FOO
135168
    1MOL0     O    1   7.354   4.295   6.680 -0.3514 -1.0682  0.6399
    1MOL0     C    2   7.386   4.403   6.716  0.0986 -0.9826 -0.9410
    1MOL0     O    3   7.296   4.505   6.746 -0.0734  0.1156  0.4045
    1MOL0     C    4   7.161   4.477   6.735 -0.0842  0.1102  0.5695
    1MOL0     C    5   7.092   4.535   6.632  0.9431 -0.5357 -0.4733
    1MOL0     C    6   6.963   4.480   6.604 -1.1484  0.1358 -0.1565
    1MOL0     C    7   6.899   4.379   6.683  0.0969  0.0534  0.5093
    1MOL0     O    8   6.782   4.328   6.647  0.2008  0.5286  0.1977
    1MOL0     C    9   6.685   4.283   6.744 -0.1281  0.7456  0.0736
    1MOL0     C   10   6.540   4.295   6.686  0.3733  0.0594 -0.1411
    1MOL0     C   11   6.489   4.438   6.680  0.4217  0.6275  0.0870
    1MOL0     C   12   6.379   4.454   6.582 -0.6920 -0.0433  0.4357
    1MOL0     C   13   6.315   4.594   6.591  0.3060  0.1796 -0.0242
    1MOL0     C   14   6.254   4.630   6.728 -0.5610 -0.3147  0.0872
    1MOL0     C   15   6.141   4.536   6.765 -0.2034 -0.1356  0.2420
    1MOL0     C   16   6.105   4.570   6.914  0.3267  0.3796  0.3231
    1MOL0     N   17   5.962   4.537   6.925 -0.1543 -0.2768  0.3336
    1MOL0     C   18   5.869   4.636   6.939  0.2670  0.0111  0.1698
    1MOL0     C   19   5.756   4.567   6.945 -0.4942 -0.5031 -0.3431
    1MOL0     C   20   5.626   4.635   6.928  0.3108 -0.0943 -0.0154
    1MOL0     C   21   5.559   4.581   6.801  0.0906  0.8527 -0.3710
    1MOL0     C   22   5.429   4.650   6.754 -0.0605  0.5056 -0.2955
    1MOL0     C   23   5.324   4.641   6.858 -0.3781 -0.3783  0.4401
    1MOL0     O   24   5.220   4.722   6.812  0.3173  0.1735 -0.3843
    1MOL0     C   25   5.092   4.713   6.870 -0.7703 -0.0963 -0.0711
    1MOL0     C   26   5.067   4.638   6.982 -0.2677  0.0480  0.1126
    1MOL0     C   27   4.937   4.612   7.016 -0.2608  0.5475  0.9526
    1MOL0     C   28   4.832   4.649   6.936  0.2963  0.0911  1.3582
    1MOL0     C   29   4.684   4.630   6.980 -0.4767 -0.7630 -1.3577
    1MOL0     O   30   4.662   4.581   7.105 -1.5350  0.2092  0.1563
    1MOL0     C   31   4.536   4.568   7.149 -0.9035  0.7346 -0.4027
    1MOL0     C   32   4.473   4.445   7.132 -0.1416 -0.0988 -0.1872
    1MOL0     C   33   4.340   4.428   7.184  0.0087  0.6035 -0.5561
    1MOL0     C   34   4.272   4.536   7.242  0.0148 -0.2909 -0.2408
    1MOL0     O   35   4.161   4.505   7.310  0.3218 -0.5036 -0.4420
    1MOL0     C   36   4.052   4.599   7.285  0.1861  0.6364  0.0739
    1MOL0     C   37   3.903   4.544   7.277 -0.0294  0.3404  0.5876
    1MOL0     C   38   3.889   4.487   7.127  0.6355 -1.0622 -0.4854
    1MOL0     C   39   3.741   4.443   7.094 -0.7218 -0.2373 -0.4397
    1MOL0     C   40   3.729   4.354   6.973  0.6651 -0.1058  0.0664
    1MOL0     C   41   3.785   4.418   6.847  0.5503  0.1055 -0.1993
    1MOL0     C   42   3.706   4.353   6.733 -0.5957 -0.8507  0.7480
    1MOL0     C   43   3.762   4.401   6.597 -0.2615 -0.5733  0.6129
    1MOL0    Cl   44   3.702   4.569   6.574  0.3189 -0.1160 -0.0604
    1MOL0     C   45   4.340   4.654   7.255  0.2002 -0.7447  0.5172
    1MOL0     C   46   4.470   4.675   7.210 -0.7579 -0.7004  0.3541
    1MOL0     O   47   4.599   4.678   6.907 -0.0987 -0.5696 -0.2984
    1MOL0     C   48   4.859   4.726   6.819 -0.1422  0.1910 -0.9625
    1MOL0     C   49   4.986   4.754   6.789  0.2837  0.2370  0.2227
    1MOL0     N   50   5.774   4.432   6.939  0.9760 -0.5195 -0.4159
    1MOL0     N   51   5.899   4.415   6.922 -0.4731 -0.7615  0.7537
    1MOL0     C   52   6.973   4.339   6.795 -0.5582  1.0496 -0.3868
    1MOL0     C   53   7.095   4.392   6.822 -0.9335 -0.0496 -0.0596
    1MOL0     C   54   7.528   4.414   6.765  0.4702  0.3820 -0.1444
    1MOL0     C   55   7.634   4.334   6.727 -0.0405  0.1504 -0.0489
    1MOL0     C   56   7.757   4.329   6.798  0.3936  0.4617  0.9644
    1MOL0     C   57   7.778   4.418   6.900 -0.5333  0.3467  0.3350
    1MOL0     O   58   7.902   4.398   6.963  0.1221  0.1035  0.3412
    1MOL0     C   59   7.902   4.458   7.090 -0.7860  0.4290  0.0056
    1MOL0     C   60   8.016   4.386   7.173  0.2105 -0.2659  0.2091
    1MOL0     C   61   8.164   4.453   7.147  0.1686  0.3406  1.2369
    1MOL0     C   62   8.293   4.379   7.181  0.5253 -0.7323 -0.3930
    1MOL0     C   63   8.410   4.455   7.196 -0.0059  0.3628 -0.8107
    1MOL0     C   64   8.512   4.525   7.220  0.3798 -0.1010  0.1560
    1MOL0     C   65   7.678   4.511   6.939  0.2548  0.1376  0.0432
    1MOL0     C   66   7.555   4.510   6.871 -0.2460 -0.0343  0.7551
    1MOL0     H   67   7.124   4.620   6.572  1.4315 -1.5460 -1.6895
    1MOL0     H   68   6.910   4.521   6.519 -0.7459  1.2416  0.1069
    1MOL0     H   69   6.682   4.335   6.841 -0.2512  0.5429  0.1792
    1MOL0     H   70   6.711   4.179   6.765 -0.0338  0.5455 -0.9994
    1MOL0     H   71   6.469   4.238   6.746  4.2133 -3.0539  1.9098
    1MOL0     H   72   6.544   4.250   6.586  2.5296 -0.8956  0.3200
    1MOL0     H   73   6.572   4.501   6.649 -0.1554  0.4172 -2.0634
    1MOL0     H   74   6.452   4.474   6.776 -3.0198 -1.3873 -0.2855
    1MOL0     H   75   6.405   4.443   6.476 -3.8698 -1.0906 -0.3308
    1MOL0     H   76   6.304   4.375   6.590  0.0132 -0.9182 -1.0715
    1MOL0     H   77   6.233   4.599   6.518  0.3963  1.7808 -0.0502
    1MOL0     H   78   6.387   4.674   6.572  1.5506 -0.5165  1.6094
    1MOL0     H   79   6.207   4.728   6.722  0.8451  0.4659  1.1764
    1MOL0     H   80   6.327   4.638   6.809 -0.8720 -2.5922  0.6584
    1MOL0     H   81   6.051   4.557   6.705 -1.0146  0.8721  1.7425
    1MOL0     H   82   6.158   4.428   6.754  0.0753 -0.2332  1.5046
    1MOL0     H   83   6.120   4.677   6.931  0.4929  0.2025  1.3572
    1MOL0     H   84   6.166   4.506   6.978 -0.1478 -4.1105 -3.1913
    1MOL0     H   85   5.878   4.744   6.932 -0.1873 -0.0027 -0.7984
    1MOL0     H   86   5.626   4.744   6.924 -2.3849  0.0631  1.9120
    1MOL0     H   87   5.561   4.604   7.010  2.0097  1.2964  1.9610
    1MOL0     H   88   5.546   4.472   6.806 -1.8331  1.0345 -0.5251
    1MOL0     H   89   5.639   4.590   6.727 -1.9922  1.5436 -2.7111
    1MOL0     H   90   5.448   4.755   6.729 -1.8796  1.6842  2.6777
    1MOL0     H   91   5.390   4.601   6.665  1.3255 -2.0894  0.4014
    1MOL0     H   92   5.358   4.698   6.945 -1.1397  1.4579 -0.4099
    1MOL0     H   93   5.292   4.539   6.881 -2.4809  0.2231  0.3271
    1MOL0     H   94   5.141   4.615   7.058 -0.3021 -0.6748 -0.0686
    1MOL0     H   95   4.917   4.558   7.109  0.7467 -0.6839  0.4822
    1MOL0     H   96   4.527   4.364   7.085 -0.4705 -0.1833 -0.4275
    1MOL0     H   97   4.282   4.341   7.159 -1.0762  1.3898 -0.8314
    1MOL0     H   98   4.076   4.649   7.191 -0.7505  0.7333 -0.1292
    1MOL0     H   99   4.052   4.680   7.359  0.6547  2.9793 -2.3161
    1MOL0     H  100   3.832   4.624   7.302  1.7957  2.3167 -0.2431
    1MOL0     H  101   3.879   4.460   7.342  0.3041 -0.9469 -0.9067
    1MOL0     H  102   3.938   4.389   7.121  0.3800 -1.2573  0.4619
    1MOL0     H  103   3.932   4.563   7.061  1.2656  0.3221  1.4345
    1MOL0     H  104   3.712   4.386   7.183 -0.9711  2.9874  1.7002
    1MOL0     H  105   3.692   4.540   7.083 -0.3604 -0.1245 -1.1324
    1MOL0     H  106   3.624   4.326   6.964  0.2028  0.5447  2.7713
    1MOL0     H  107   3.787   4.262   6.986  0.2489 -0.2402  1.0728
    1MOL0     H  108   3.895   4.424   6.844  0.6126  0.8560  2.0529
    1MOL0     H  109   3.760   4.524   6.836 -2.9462 -0.4107  1.6202
    1MOL0     H  110   3.711   4.244   6.740 -1.7667 -0.9533  0.1080
    1MOL0     H  111   3.600   4.380   6.732 -0.8942 -1.8682  2.3808
    1MOL0     H  112   3.717   4.337   6.521  1.6110 -0.0740 -0.9927
    1MOL0     H  113   3.871   4.388   6.594  0.5792  4.4470 -2.3742
    1MOL0     H  114   4.282   4.733   7.302  1.4512  3.0309 -3.5911
    1MOL0     H  115   4.532   4.764   7.216  1.4308 -2.0628 -0.6280
    1MOL0     H  116   4.783   4.766   6.752 -0.1849 -0.3600 -1.2477
    1MOL0     H  117   5.016   4.813   6.703 -1.3358  2.5691  1.1421
    1MOL0     H  118   6.918   4.267   6.855  0.9188 -0.5037 -0.8415
    1MOL0     H  119   7.157   4.358   6.905 -0.8228 -0.5862 -0.3587
    1MOL0     H  120   7.627   4.264   6.645 -0.6266 -0.4158  0.4714
    1MOL0     H  121   7.837   4.264   6.762  0.0472 -1.0571  2.7766
    1MOL0     H  122   7.804   4.445   7.135 -1.3949  1.4964 -0.9696
    1MOL0     H  123   7.923   4.565   7.086  3.6754 -0.0561  2.8087
    1MOL0     H  124   7.996   4.401   7.280  2.0493  0.1232  0.5229
    1MOL0     H  125   8.028   4.280   7.148  4.0845  0.5159 -1.9541
    1MOL0     H  126   8.166   4.546   7.204 -1.6040  0.9708  0.3501
    1MOL0     H  127   8.178   4.477   7.042  0.0453 -0.6934  0.9748
    1MOL0     H  128   8.276   4.329   7.277 -0.3965 -1.3531 -0.8630
    1MOL0     H  129   8.313   4.315   7.093  1.0605  0.8985 -1.5030
    1MOL0     H  130   8.592   4.594   7.234 -0.8566  1.2437  0.9168
    1MOL0     H  131   7.713   4.587   7.008  2.1054 -0.8721  0.3003
    1MOL0     H  132   7.482   4.585   6.899  0.9084  0.9301  1.2671
    2MOL0     O  133   9.556   8.794   9.469  0.8639 -0.7607 -0.2755
    2MOL0     C  134   9.587   8.892   9.409 -0.5645 -0.3254  0.0278
    2MOL0     O  135   9.512   8.969   9.325 -0.4519  0.6109  0.2535
    2MOL0     C  136   9.422   8.906   9.259  0.0649  0.9209  1.0993
    2MOL0     C  137   9.455   8.870   9.131  0.8325 -0.2909 -0.3778
    2MOL0     C  138   9.355   8.807   9.060  0.3800 -0.3752  0.3369
    2MOL0     C  139   9.222   8.785   9.106 -0.5329 -1.2721  0.3173
    2MOL0     O  140   9.129   8.712   9.037  0.0863  0.7402  0.2526
    2MOL0     C  141   9.155   8.648   8.908  0.3178  0.2329 -0.7839
    2MOL0     C  142   9.027   8.570   8.880  0.3652  0.0021  1.2299
    2MOL0     C  143   8.894   8.650   8.853 -0.0950  1.2647  0.4695
    2MOL0     C  144   8.905   8.775   8.765 -0.3959  0.7722  0.5025
    2MOL0     C  145   8.772   8.835   8.741 -0.3444  0.8676 -0.8522
    2MOL0     C  146   8.779   8.975   8.673  0.3414 -0.1235 -0.2194
    2MOL0     C  147   8.619   9.016   8.644  0.4337  0.4974 -0.4061
    2MOL0     C  148   8.628   9.149   8.587 -0.0974 -1.2421 -0.2942
    2MOL0     N  149   8.494   9.190   8.542  0.7465 -0.5514  0.0735
    2MOL0     C  150   8.377   9.206   8.608  0.3796 -0.2624  0.5402
    2MOL0     C  151   8.295   9.250   8.505 -0.4099  1.2509 -0.0069
    2MOL0     C  152   8.148   9.246   8.527 -0.2396  0.5729  0.8698
    2MOL0     C  153   8.098   9.394   8.505 -0.8170 -0.4273  0.1905
    2MOL0     C  154   7.949   9.418   8.528  0.1778 -0.6420 -0.5615
    2MOL0     C  155   7.924   9.435   8.682  1.0854  0.1344  0.5438
    2MOL0     O  156   7.781   9.471   8.693 -0.7005 -0.0739 -0.6493
    2MOL0     C  157   7.690   9.371   8.712  0.5330  0.6516  0.1200
    2MOL0     C  158   7.559   9.406   8.690  0.0124  0.4652 -1.0551
    2MOL0     C  159   7.457   9.306   8.688 -0.6462  0.3929  0.0425
    2MOL0     C  160   7.493   9.173   8.711  0.8878  0.5376 -0.2730
    2MOL0     C  161   7.388   9.070   8.698 -0.1650  0.1744 -0.4035
    2MOL0     O  162   7.426   8.949   8.755 -0.3908  0.2681 -0.0097
    2MOL0     C  163   7.351   8.839   8.783 -0.4444  0.5038 -0.1951
    2MOL0     C  164   7.214   8.842   8.787  0.8416 -0.4555  0.8681
    2MOL0     C  165   7.145   8.735   8.849 -0.4392 -0.2373 -0.3900
    2MOL0     C  166   7.205   8.620   8.904  0.2313 -1.6163  0.1873
    2MOL0     O  167   7.137   8.521   8.971 -0.4011  0.4664 -0.2183
    2MOL0     C  168   7.051   8.559   9.080  0.2031 -0.0573 -0.0971
    2MOL0     C  169   6.914   8.484   9.065  0.3005  0.9284  0.1507
    2MOL0     C  170   6.855   8.500   8.926  0.6060 -0.1762 -0.9017
    2MOL0     C  171   6.711   8.463   8.918  0.8109  0.0583 -0.6841
    2MOL0     C  172   6.645   8.480   8.775 -0.4239  0.2545  0.4656
    2MOL0     C  173   6.684   8.355   8.680  0.1945 -0.6092  0.1344
    2MOL0     C  174   6.609   8.355   8.552 -0.2216 -0.1180 -0.0864
    2MOL0     C  175   6.684   8.298   8.432  0.6769 -0.5068  0.6075
    2MOL0    Cl  176   6.771   8.154   8.466  0.5356  0.0773  0.1060
    2MOL0     C  177   7.343   8.624   8.895 -0.4244  0.4889  0.0490
    2MOL0     C  178   7.418   8.723   8.834  0.3814 -0.5741  0.5966
    2MOL0     O  179   7.285   9.095   8.638 -0.2745  0.6593  0.3946
    2MOL0     C  180   7.622   9.143   8.747  0.3765  0.6768  0.9314
    2MOL0     C  181   7.728   9.238   8.748 -0.7554  0.8908 -0.4461
    2MOL0     N  182   8.370   9.261   8.383  0.9916 -0.0285 -0.8731
    2MOL0     N  183   8.494   9.224   8.406  0.3834 -0.3032  0.1310
    2MOL0     C  184   9.202   8.812   9.242 -0.5089 -0.7935 -0.1377
    2MOL0     C  185   9.304   8.871   9.319 -0.2343  0.2484 -0.5554
    2MOL0     C  186   9.714   8.951   9.452 -0.0433  0.0014  0.0900
    2MOL0     C  187   9.768   9.061   9.381 -0.1680  0.6059  0.1200
    2MOL0     C  188   9.890   9.108   9.408 -0.2516 -0.9638  0.6983
    2MOL0     C  189   9.961   9.057   9.521  0.1342  0.4223 -0.3053
    2MOL0     O  190  10.073   9.122   9.572 -0.2214 -0.2937 -0.7497
    2MOL0     C  191  10.165   9.167   9.476  0.6312 -0.0432 -0.0593
    2MOL0     C  192  10.299   9.155   9.554 -0.5926  0.5699 -0.1487
    2MOL0     C  193  10.322   9.012   9.604  0.6370  0.1808  0.4548
    2MOL0     C  194  10.465   8.989   9.648  0.2566  1.1439  0.6283
    2MOL0     C  195  10.485   8.856   9.693 -0.4628  0.6695 -0.4947
    2MOL0     C  196  10.505   8.742   9.736  0.1779 -0.1543 -0.1223
    2MOL0     C  197   9.901   8.950   9.598 -0.4704  0.0713  0.1359
    2MOL0     C  198   9.785   8.895   9.563 -0.1809 -0.0457  0.3222
    2MOL0     H  199   9.555   8.887   9.092 -0.1108 -0.1082 -2.8961
    2MOL0     H  200   9.378   8.773   8.960 -0.4891 -0.1936  0.0707
    2MOL0     H  201   9.236   8.576   8.924  2.2572  2.8628  2.7574
    2MOL0     H  202   9.193   8.705   8.822 -0.1328 -0.3099 -1.3512
    2MOL0     H  203   9.013   8.511   8.971  3.4354  0.7588  2.3123
    2MOL0     H  204   9.041   8.508   8.791  0.9921  1.5244  0.2187
    2MOL0     H  205   8.852   8.673   8.951  1.6030  1.9978  1.0632
    2MOL0     H  206   8.828   8.577   8.807  1.7756  0.6391 -1.4048
    2MOL0     H  207   8.969   8.845   8.819 -0.7947  3.1720 -1.8849
    2MOL0     H  208   8.944   8.763   8.663 -0.8694 -0.0449  0.4092
    2MOL0     H  209   8.721   8.831   8.837 -1.6632 -1.1050 -1.5611
    2MOL0     H  210   8.715   8.765   8.679 -0.4841 -0.8614  1.1387
    2MOL0     H  211   8.838   8.980   8.581 -0.8467  0.5166 -0.9784
    2MOL0     H  212   8.827   9.041   8.746  0.0367  0.1118 -0.2304
    2MOL0     H  213   8.577   8.950   8.567 -0.5885 -0.3137  0.8030
    2MOL0     H  214   8.554   8.995   8.730  0.6214 -1.3559 -0.6820
    2MOL0     H  215   8.701   9.144   8.506  0.2665 -0.7433 -0.0034
    2MOL0     H  216   8.673   9.211   8.666 -0.7667 -2.6723  1.2716
    2MOL0     H  217   8.357   9.186   8.713  1.9068 -2.0184  0.5462
    2MOL0     H  218   8.121   9.207   8.625  0.9724 -1.5120  0.4310
    2MOL0     H  219   8.102   9.183   8.450  1.2967 -0.8107  1.0200
    2MOL0     H  220   8.129   9.416   8.402  1.3504  1.1810  1.1183
    2MOL0     H  221   8.155   9.462   8.569  0.2602 -2.2263  1.2274
    2MOL0     H  222   7.934   9.515   8.480  0.0724 -0.8974 -1.0454
    2MOL0     H  223   7.890   9.338   8.484 -0.5516  0.8985 -2.5154
    2MOL0     H  224   7.981   9.526   8.705  0.2041  0.9460 -0.3649
    2MOL0     H  225   7.961   9.347   8.734  1.1876 -0.0961  0.0862
    2MOL0     H  226   7.538   9.512   8.675  0.6318  0.7809  0.1478
    2MOL0     H  227   7.359   9.342   8.658 -1.0825 -1.8276 -1.4594
    2MOL0     H  228   7.149   8.915   8.740  1.2647 -0.9581 -0.5414
    2MOL0     H  229   7.037   8.737   8.854 -0.5143 -0.9786 -1.3082
    2MOL0     H  230   7.035   8.667   9.085  2.1334  0.2268  1.2625
    2MOL0     H  231   7.085   8.521   9.177  1.8119 -1.3701 -1.1162
    2MOL0     H  232   6.844   8.531   9.134 -0.6116  4.7003 -2.9599
    2MOL0     H  233   6.924   8.380   9.096 -0.7246  0.6925 -0.2756
    2MOL0     H  234   6.905   8.439   8.851  1.4994  0.6272 -0.9822
    2MOL0     H  235   6.859   8.605   8.894  1.5420  0.3027  0.6733
    2MOL0     H  236   6.705   8.356   8.941  2.2128 -0.2635 -1.7008
    2MOL0     H  237   6.659   8.530   8.987  1.2977  1.0415 -1.2382
    2MOL0     H  238   6.657   8.579   8.731 -1.2160  0.3222  0.3957
    2MOL0     H  239   6.537   8.484   8.793 -0.8619  0.5786 -1.9101
    2MOL0     H  240   6.661   8.262   8.732  1.5771 -2.2634 -2.0645
    2MOL0     H  241   6.791   8.358   8.659  0.1177  0.2523 -0.1980
    2MOL0     H  242   6.515   8.300   8.565 -0.9560  0.8893 -1.0425
    2MOL0     H  243   6.581   8.458   8.529 -0.6189 -0.6987 -2.4299
    2MOL0     H  244   6.742   8.377   8.384 -1.6468 -0.7479 -3.0276
    2MOL0     H  245   6.610   8.277   8.354 -0.1112 -1.1416  1.5029
    2MOL0     H  246   7.393   8.537   8.937 -0.0761  1.1396  1.0169
    2MOL0     H  247   7.527   8.724   8.839  0.4636  2.6902 -0.0467
    2MOL0     H  248   7.657   9.041   8.758  1.8904  1.0810  0.2389
    2MOL0     H  249   7.828   9.199   8.764 -1.3018 -0.2465  0.3389
    2MOL0     H  250   9.112   8.781   9.294 -2.9166  2.7926 -1.7208
    2MOL0     H  251   9.291   8.898   9.424  1.3778  2.9037 -0.9566
    2MOL0     H  252   9.727   9.094   9.286  0.9641  1.0938 -0.2206
    2MOL0     H  253   9.923   9.189   9.344 -0.0380 -0.3884  1.5094
    2MOL0     H  254  10.160   9.274   9.454 -2.1519 -0.1946 -0.4614
    2MOL0     H  255  10.173   9.113   9.381  0.5325  0.5978 -0.4399
    2MOL0     H  256  10.381   9.188   9.489  0.8026 -1.8759  0.2330
    2MOL0     H  257  10.281   9.229   9.632 -1.2510  0.2699 -0.0178
    2MOL0     H  258  10.298   8.946   9.520  2.3237  1.5147 -1.1941
    2MOL0     H  259  10.263   8.998   9.694 -0.2224  0.7293 -0.0096
    2MOL0     H  260  10.526   9.015   9.561 -0.2279 -1.2262 -0.5048
    2MOL0     H  261  10.476   9.065   9.726 -4.1340  1.0973  1.6093
    2MOL0     H  262  10.542   8.657   9.789  2.2252  0.9797  0.3684
    2MOL0     H  263   9.948   8.928   9.693 -0.7318 -3.6141 -0.4417
    2MOL0     H  264   9.732   8.816   9.616  1.8634  0.2208  3.0040
    3MOL0     O  265   0.796   4.786   6.989 -0.6712  0.3823  0.1383
    3MOL0     C  266   0.832   4.684   7.052 -0.1743 -0.9886  0.3846
    3MOL0     O  267   0.760   4.618   7.143  0.5934 -0.1843  1.0253
    3MOL0     C  268   0.634   4.664   7.162  0.6267 -0.4590  0.4340
    3MOL0     C  269   0.603   4.730   7.279  0.5235 -0.4779  0.0824
    3MOL0     C  270   0.467   4.762   7.309  0.8799 -0.1422 -0.7946
    3MOL0     C  271   0.364   4.753   7.214  0.2886 -0.4745 -1.0076
    3MOL0     O  272   0.240   4.807   7.242 -0.1974 -0.0231 -0.4587
    3MOL0     C  273   0.135   4.770   7.155  0.0144  0.6007 -0.5685
    3MOL0     C  274  -0.000   4.828   7.203  0.4598  0.2701 -0.6412
    3MOL0     C  275  -0.117   4.744   7.146  0.8674  0.7486  0.1678
    3MOL0     C  276  -0.239   4.809   7.204  0.4004  0.5344  0.3272
    3MOL0     C  277  -0.370   4.740   7.162 -0.0348  0.7084  0.4890
    3MOL0     C  278  -0.380   4.584   7.199 -0.3054 -0.4163  0.2756
    3MOL0     C  279  -0.512   4.526   7.133 -0.8219 -0.0554 -0.3521
    3MOL0     C  280  -0.528   4.397   7.197 -0.0349  0.4126 -0.3679
    3MOL0     N  281  -0.659   4.341   7.164 -0.1555  0.2078  0.6795
    3MOL0     C  282  -0.771   4.378   7.249  0.5204  0.6370 -1.1848
    3MOL0     C  283  -0.882   4.359   7.175 -0.3832  0.5450  0.0362
    3MOL0     C  284  -1.024   4.368   7.219  0.0932 -0.8396  0.4193
    3MOL0     C  285  -1.130   4.262   7.183 -0.4525 -0.2701  0.2142
    3MOL0     C  286  -1.176   4.260   7.031  0.0757  0.5054  0.3984
    3MOL0     C  287  -1.296   4.163   6.994 -0.5422  0.3844  0.1782
    3MOL0     O  288  -1.413   4.227   7.048  0.7999 -0.1952  0.3857
    3MOL0     C  289  -1.539   4.173   7.033 -0.8832 -0.5753 -0.3517
    3MOL0     C  290  -1.575   4.052   7.088  0.5177  0.1632  0.5503
    3MOL0     C  291  -1.704   4.001   7.066 -0.1503  0.1056 -0.2241
    3MOL0     C  292  -1.800   4.076   6.997 -0.5162 -0.1157 -1.0115
    3MOL0     C  293  -1.928   4.014   6.968  0.1979  0.3560 -0.1190
    3MOL0     O  294  -2.019   4.082   6.894 -0.4688  0.1802 -0.5349
    3MOL0     C  295  -2.134   4.016   6.859  0.3049  0.0142  0.3398
    3MOL0     C  296  -2.134   3.893   6.794  0.1990 -0.8343  0.1434
    3MOL0     C  297  -2.253   3.818   6.769  0.8364 -1.1827 -0.5989
    3MOL0     C  298  -2.377   3.875   6.802 -0.5410 -0.0887  0.0816
    3MOL0     O  299  -2.497   3.814   6.803  0.2172 -0.3836  0.6089
    3MOL0     C  300  -2.515   3.698   6.718 -0.0144 -0.3483  0.4936
    3MOL0     C  301  -2.669   3.669   6.693 -0.0715 -0.2805 -0.5257
    3MOL0     C  302  -2.734   3.799   6.641 -0.1152  0.5179  0.4580
    3MOL0     C  303  -2.882   3.769   6.657  0.1199 -0.3641 -0.1552
    3MOL0     C  304  -2.975   3.874   6.599 -1.0087 -0.2370 -0.3461
    3MOL0     C  305  -2.947   3.920   6.453 -0.8037 -0.2496  0.1175
    3MOL0     C  306  -3.038   4.034   6.403  1.0749 -0.1132 -0.0172
    3MOL0     C  307  -3.044   4.039   6.256 -0.3630  0.6737  0.4696
    3MOL0    Cl  308  -2.888   4.063   6.173  0.0642 -0.0693 -0.0732
    3MOL0     C  309  -2.381   4.002   6.862 -0.0664  0.2359  0.8710
    3MOL0     C  310  -2.262   4.069   6.891 -0.5323 -0.4231 -0.7494
    3MOL0     O  311  -1.944   3.899   7.009  0.1501 -0.1660 -0.1101
    3MOL0     C  312  -1.765   4.205   6.947  0.8482  0.3986  0.4305
    3MOL0     C  313  -1.637   4.257   6.964  0.4118  0.5970 -1.4176
    3MOL0     N  314  -0.840   4.327   7.043  0.6708 -0.0472 -0.1395
    3MOL0     N  315  -0.708   4.327   7.040  0.2700  0.0288  0.2909
    3MOL0     C  316   0.399   4.693   7.094  0.0466 -0.2436 -0.3266
    3MOL0     C  317   0.530   4.642   7.072 -0.2481 -0.1068  0.5045
    3MOL0     C  318   0.970   4.631   7.022 -1.1479 -0.2951 -0.6054
    3MOL0     C  319   1.014   4.501   7.075 -0.1008 -0.3588 -0.1383
    3MOL0     C  320   1.143   4.455   7.038  1.1428  0.1023  1.1533
    3MOL0     C  321   1.232   4.523   6.954  0.2692 -0.4430 -0.4790
    3MOL0     O  322   1.361   4.484   6.934 -0.1846 -0.5629  0.1644
    3MOL0     C  323   1.396   4.348   6.970  0.9598 -0.0005  0.1017
    3MOL0     C  324   1.484   4.302   6.856  1.0191 -0.2339 -0.1076
    3MOL0     C  325   1.531   4.168   6.877  0.2993 -0.1026 -0.0461
    3MOL0     C  326   1.634   4.115   6.782  1.0852  0.2147 -0.9550
    3MOL0     C  327   1.705   4.010   6.848  0.5541  0.3689 -0.7996
    3MOL0     C  328   1.768   3.914   6.895  0.3804 -0.0323  0.8530
    3MOL0     C  329   1.195   4.647   6.915 -0.5470 -1.4667 -0.1245
    3MOL0     C  330   1.073   4.702   6.950  0.1214 -0.2215 -0.5810
    3MOL0     H  331   0.688   4.743   7.344 -0.0109  0.6904  0.5659
    3MOL0     H  332   0.454   4.789   7.413 -2.8229 -3.0384 -0.2663
    3MOL0     H  333   0.129   4.661   7.160 -1.6380  0.5352 -2.7458
    3MOL0     H  334   0.155   4.797   7.051 -2.2534 -0.5820 -1.3909
    3MOL0     H  335   0.007   4.934   7.177  3.6825 -0.0263 -1.4287
    3MOL0     H  336  -0.008   4.821   7.312  3.0631 -1.1304 -0.4571
    3MOL0     H  337  -0.101   4.644   7.186  3.5642  1.7580  1.8274
    3MOL0     H  338  -0.120   4.746   7.037 -0.7347 -1.7259  0.1009
    3MOL0     H  339  -0.220   4.807   7.311  1.9344 -4.6419  0.2663
    3MOL0     H  340  -0.241   4.913   7.171 -1.0469  0.3592 -0.2124
    3MOL0     H  341  -0.385   4.735   7.054  0.9622 -3.9115  0.3502
    3MOL0     H  342  -0.448   4.806   7.200  0.8144  1.0445  1.7046
    3MOL0     H  343  -0.381   4.566   7.306 -1.3898 -0.0678  0.3374
    3MOL0     H  344  -0.295   4.529   7.156  1.2358  2.4836 -0.7066
    3MOL0     H  345  -0.591   4.595   7.164  0.6674  0.8286  1.6575
    3MOL0     H  346  -0.508   4.520   7.024  0.1690  1.4380 -0.4150
    3MOL0     H  347  -0.507   4.393   7.304  2.2100  0.4987 -0.7589
    3MOL0     H  348  -0.454   4.328   7.156 -0.0373 -0.6787  1.3865
    3MOL0     H  349  -0.768   4.416   7.351 -1.3486 -1.4626 -0.2438
    3MOL0     H  350  -1.064   4.458   7.172  2.0870  0.8100  1.6776
    3MOL0     H  351  -1.026   4.389   7.326  3.0882 -0.8132  0.5603
    3MOL0     H  352  -1.225   4.272   7.236  0.2313  2.6221  1.0787
    3MOL0     H  353  -1.081   4.165   7.188  0.5820  0.2030 -0.4130
    3MOL0     H  354  -1.202   4.354   6.982 -0.1111  1.0379  1.4958
    3MOL0     H  355  -1.085   4.230   6.977 -2.0310 -2.1700 -1.9147
    3MOL0     H  356  -1.288   4.063   7.037  0.5672 -0.4974 -1.9630
    3MOL0     H  357  -1.302   4.141   6.887  0.5440  0.4788  0.0858
    3MOL0     H  358  -1.505   3.980   7.130  1.0025  0.6286  0.5349
    3MOL0     H  359  -1.720   3.897   7.092 -0.2314  0.0661 -0.4337
    3MOL0     H  360  -2.040   3.845   6.767  0.2023  0.7111 -3.2074
    3MOL0     H  361  -2.261   3.717   6.729  1.2543 -1.5404  0.2060
    3MOL0     H  362  -2.467   3.604   6.747  1.9339  0.5244  0.3026
    3MOL0     H  363  -2.473   3.734   6.624 -2.5226  2.7400  0.3953
    3MOL0     H  364  -2.710   3.647   6.792  1.0932 -0.9676 -0.1654
    3MOL0     H  365  -2.671   3.590   6.617  1.6221  0.6719 -1.6369
    3MOL0     H  366  -2.700   3.818   6.539  3.4961  1.4534  1.6760
    3MOL0     H  367  -2.709   3.888   6.701 -0.1972  0.8003  0.0802
    3MOL0     H  368  -2.904   3.672   6.613 -2.8751  0.8375 -1.5826
    3MOL0     H  369  -2.905   3.769   6.764  0.4424 -0.0201 -0.0807
    3MOL0     H  370  -2.962   3.966   6.656 -1.9713  0.4929 -1.2577
    3MOL0     H  371  -3.078   3.844   6.617 -1.9138  1.9650 -1.4530
    3MOL0     H  372  -2.955   3.836   6.384  1.8306 -2.1527  1.9096
    3MOL0     H  373  -2.848   3.966   6.446  0.3375 -2.4796  0.6176
    3MOL0     H  374  -3.141   4.022   6.436  1.3838 -1.9770  0.3888
    3MOL0     H  375  -3.014   4.133   6.442 -0.2721  0.9404 -1.7396
    3MOL0     H  376  -3.114   4.122   6.240  2.5201  2.9258 -1.5009
    3MOL0     H  377  -3.084   3.950   6.206  1.2189 -0.0531  0.4325
    3MOL0     H  378  -2.479   4.047   6.879  0.1938  1.7217 -1.3164
    3MOL0     H  379  -2.254   4.158   6.952  1.6742 -0.7654 -0.4506
    3MOL0     H  380  -1.834   4.253   6.879 -1.8837 -2.1482  1.1594
    3MOL0     H  381  -1.606   4.351   6.919  4.5506 -1.4118 -3.2753
    3MOL0     H  382   0.326   4.676   7.016 -0.1414  0.6065 -0.3525
    3MOL0     H  383   0.537   4.576   6.986 -1.6709 -2.8300  2.2991
    3MOL0     H  384   0.942   4.450   7.139  2.2572  0.5350  3.5573
    3MOL0     H  385   1.168   4.365   7.093 -2.0443 -0.0308  2.6087
    3MOL0     H  386   1.317   4.273   6.971  0.1504  0.8279 -0.1323
    3MOL0     H  387   1.452   4.353   7.064  0.1337 -1.4657  0.7002
    3MOL0     H  388   1.416   4.307   6.771 -1.7409  0.9407  2.0342
    3MOL0     H  389   1.571   4.368   6.847 -0.1459  1.4147  0.3415
    3MOL0     H  390   1.455   4.089   6.872  1.2200 -0.9182 -1.6417
    3MOL0     H  391   1.572   4.165   6.979 -1.5156  0.8168  0.7639
    3MOL0     H  392   1.587   4.087   6.687 -1.3317 -0.2050  0.2918
    3MOL0     H  393   1.700   4.201   6.762 -1.2724  2.2469 -0.4942
    3MOL0     H  394   1.820   3.839   6.951  1.4657 -0.4666 -0.6531
    3MOL0     H  395   1.268   4.711   6.867 -1.2893 -1.0768 -0.7611
    3MOL0     H  396   1.040   4.795   6.905  2.7389  1.0991  0.0803
    4MOL0     O  397   5.603   2.728   3.630  0.0622  0.4310 -0.0878
    4MOL0     C  398   5.641   2.818   3.565 -0.1055  0.4341  0.7115
    4MOL0     O  399   5.557   2.917   3.522  0.7202 -0.2350  0.5430
    4MOL0     C  400   5.423   2.920   3.528  0.3620  0.4001  0.2829
    4MOL0     C  401   5.337   2.818   3.569  0.6130  0.4765  0.4927
    4MOL0     C  402   5.200   2.834   3.568  0.2454 -0.3982 -0.6759
    4MOL0     C  403   5.137   2.954   3.548 -0.3978  0.4923 -0.4017
    4MOL0     O  404   4.996   2.968   3.546 -0.4852  0.3128  0.6371
    4MOL0     C  405   4.913   2.880   3.614  0.4629  0.0311 -0.1838
    4MOL0     C  406   4.769   2.921   3.605  1.4352  0.0254  0.7310
    4MOL0     C  407   4.672   2.833   3.687  0.1792 -0.2823  0.3058
    4MOL0     C  408   4.519   2.865   3.671  0.5607  0.9385  0.5942
    4MOL0     C  409   4.440   2.764   3.760 -0.3771  0.5823  0.9292
    4MOL0     C  410   4.288   2.791   3.770 -0.0862 -0.3568 -0.9893
    4MOL0     C  411   4.215   2.805   3.646  0.0423 -0.6108  0.9770
    4MOL0     C  412   4.174   2.952   3.620 -0.0417 -0.1046 -0.4479
    4MOL0     N  413   4.103   2.954   3.486  0.0718 -0.6483  0.3354
    4MOL0     C  414   4.178   2.985   3.368 -0.1450 -0.1384  0.1887
    4MOL0     C  415   4.078   3.016   3.278  0.4518 -0.1828 -0.8773
    4MOL0     C  416   4.112   3.054   3.140  0.8639 -0.3422 -0.6714
    4MOL0     C  417   4.023   2.976   3.038 -0.4965 -0.1409 -0.2888
    4MOL0     C  418   4.114   2.890   2.949 -0.0213 -0.1211 -0.4454
    4MOL0     C  419   4.043   2.827   2.829 -0.5848  0.4640  0.6541
    4MOL0     O  420   3.963   2.718   2.876  0.4582  0.2458  0.3951
    4MOL0     C  421   3.829   2.725   2.867 -0.5635 -0.0176  0.0891
    4MOL0     C  422   3.753   2.638   2.949  0.6138  0.7312 -0.1169
    4MOL0     C  423   3.615   2.652   2.938 -0.1298  0.4322 -0.5280
    4MOL0     C  424   3.549   2.726   2.845  0.5134  0.4038 -0.0219
    4MOL0     C  425   3.399   2.732   2.835  0.3862 -0.3805 -0.2274
    4MOL0     O  426   3.354   2.816   2.739  0.1218  0.9002  0.2188
    4MOL0     C  427   3.222   2.825   2.697  0.1115 -0.1920 -0.1978
    4MOL0     C  428   3.205   2.909   2.586  0.0920  0.4961  0.2685
    4MOL0     C  429   3.074   2.921   2.532 -0.2990  1.1223  0.4901
    4MOL0     C  430   2.968   2.852   2.579  1.1839  0.5976 -0.1425
    4MOL0     O  431   2.843   2.874   2.515 -0.2814 -0.0403  0.2405
    4MOL0     C  432   2.735   2.792   2.550  0.1022  0.2517  0.0522
    4MOL0     C  433   2.730   2.657   2.476 -0.4798  0.1206 -0.4375
    4MOL0     C  434   2.611   2.574   2.531  0.5294 -0.4088 -0.7247
    4MOL0     C  435   2.476   2.634   2.481 -0.7377 -0.6534 -0.1003
    4MOL0     C  436   2.367   2.528   2.483  0.0080 -0.0148 -0.4837
    4MOL0     C  437   2.397   2.398   2.399 -1.1517  0.5677  0.2979
    4MOL0     C  438   2.278   2.305   2.405  0.2353 -0.5419  0.0732
    4MOL0     C  439   2.299   2.186   2.321 -0.2652  0.3007  0.0398
    4MOL0    Cl  440   2.285   2.212   2.140  0.2896  0.0730 -0.1578
    4MOL0     C  441   2.984   2.771   2.694 -0.7400  0.1262  0.2214
    4MOL0     C  442   3.110   2.758   2.755 -0.1224  0.0804 -0.0405
    4MOL0     O  443   3.336   2.667   2.919  0.3200 -0.6522 -0.2815
    4MOL0     C  444   3.626   2.799   2.759  0.6651 -0.0858 -0.8372
    4MOL0     C  445   3.765   2.795   2.765 -0.1777  0.0351 -0.9756
    4MOL0     N  446   3.949   3.002   3.336  0.3014  0.3081 -0.1120
    4MOL0     N  447   3.971   2.979   3.465  0.4307  0.5838 -0.2122
    4MOL0     C  448   5.224   3.064   3.513 -0.2662  0.5149  0.4532
    4MOL0     C  449   5.360   3.043   3.493  0.2472  0.0173  0.1308
    4MOL0     C  450   5.784   2.817   3.530 -0.1445  0.0962 -0.6313
    4MOL0     C  451   5.888   2.729   3.569 -0.2279  0.6214 -0.5345
    4MOL0     C  452   6.022   2.752   3.550  0.0837 -1.1027 -0.8221
    4MOL0     C  453   6.063   2.879   3.498  0.4060  0.3701 -0.4654
    4MOL0     O  454   6.196   2.901   3.487 -0.2568 -0.9411 -1.1142
    4MOL0     C  455   6.250   3.032   3.461 -0.2804  0.0769  0.8602
    4MOL0     C  456   6.404   3.026   3.474 -0.0908  0.3611 -0.0457
    4MOL0     C  457   6.475   2.931   3.379 -0.3766 -1.1724  0.6293
    4MOL0     C  458   6.625   2.946   3.395 -0.6362  0.0212  0.6202
    4MOL0     C  459   6.659   3.090   3.359 -0.6104  0.9822 -0.3435
    4MOL0     C  460   6.683   3.200   3.322 -0.8945 -0.1579 -0.9229
    4MOL0     C  461   5.967   2.985   3.474  0.4540  0.2035 -0.9283
    4MOL0     C  462   5.829   2.948   3.484  0.1560  0.4489  0.5481
    4MOL0     H  463   5.372   2.719   3.595  0.0461 -0.3117 -1.5034
    4MOL0     H  464   5.139   2.745   3.582 -1.9411  0.8611 -1.6112
    4MOL0     H  465   4.953   2.871   3.715  1.4619 -1.1571 -0.6605
    4MOL0     H  466   4.922   2.783   3.563 -0.9270  0.1950 -0.7891
    4MOL0     H  467   4.738   2.915   3.500  2.1722  3.3317  0.2154
    4MOL0     H  468   4.763   3.022   3.645 -0.7326  0.1378  0.2132
    4MOL0     H  469   4.694   2.848   3.793  1.2037  0.5383 -0.0035
    4MOL0     H  470   4.694   2.730   3.659 -1.6942 -0.7505  0.4284
    4MOL0     H  471   4.497   2.969   3.696 -1.8430  0.2873  1.5340
    4MOL0     H  472   4.484   2.849   3.569  0.6487 -0.8367  0.7995
    4MOL0     H  473   4.475   2.770   3.863 -0.0257  1.0624  0.7885
    4MOL0     H  474   4.457   2.661   3.729 -0.2125  0.1925  2.2576
    4MOL0     H  475   4.280   2.886   3.823  1.8449 -1.2538  1.0727
    4MOL0     H  476   4.240   2.716   3.834  0.9028 -0.9952 -0.9729
    4MOL0     H  477   4.279   2.785   3.560 -1.6737  1.3998 -0.8641
    4MOL0     H  478   4.125   2.742   3.647  0.2968 -1.0616 -0.9902
    4MOL0     H  479   4.263   3.015   3.625  0.0555 -0.2524 -0.3234
    4MOL0     H  480   4.102   3.000   3.687 -0.2438  0.0196 -0.7498
    4MOL0     H  481   4.283   3.003   3.348 -0.4189  2.3894  0.6248
    4MOL0     H  482   4.218   3.029   3.127  0.6046 -1.9707  0.1115
    4MOL0     H  483   4.108   3.162   3.122 -4.6440 -0.0240  0.5929
    4MOL0     H  484   3.964   3.044   2.976 -1.4170  0.2514  0.9888
    4MOL0     H  485   3.953   2.911   3.090 -1.1124  0.1285 -0.7701
    4MOL0     H  486   4.193   2.959   2.919  0.9540  0.6424  3.4194
    4MOL0     H  487   4.168   2.812   3.004 -0.2492  0.1061  0.1090
    4MOL0     H  488   4.115   2.786   2.758 -1.0287 -0.9709  1.0164
    4MOL0     H  489   3.990   2.910   2.781 -1.8311  0.3069  1.7158
    4MOL0     H  490   3.798   2.572   3.022  0.5827 -1.0464 -1.6319
    4MOL0     H  491   3.567   2.592   3.015 -2.1416  1.5781 -0.8343
    4MOL0     H  492   3.284   2.975   2.550 -0.0491  1.5149  1.7145
    4MOL0     H  493   3.062   2.977   2.440  1.9555  0.5669 -0.2040
    4MOL0     H  494   2.641   2.844   2.526 -1.2836 -0.9711  2.3810
    4MOL0     H  495   2.718   2.762   2.654 -2.9417  0.1427 -0.3753
    4MOL0     H  496   2.812   2.595   2.513 -0.2892 -0.9067 -2.4835
    4MOL0     H  497   2.730   2.676   2.369  0.2135  1.0088 -0.2877
    4MOL0     H  498   2.611   2.559   2.639 -2.1901  1.4091 -0.3549
    4MOL0     H  499   2.628   2.477   2.484  0.6111 -1.1405  0.7632
    4MOL0     H  500   2.459   2.722   2.543  1.5487  0.3773 -0.8306
    4MOL0     H  501   2.486   2.677   2.382 -5.6338  0.3653 -0.4210
    4MOL0     H  502   2.278   2.578   2.443 -2.0811 -2.9968  0.1003
    4MOL0     H  503   2.349   2.515   2.590  3.7229 -0.4289  0.2428
    4MOL0     H  504   2.471   2.335   2.450 -2.4332 -1.3184 -0.0907
    4MOL0     H  505   2.434   2.420   2.298 -2.3101  1.6206  0.0843
    4MOL0     H  506   2.255   2.281   2.509 -1.4066  0.9193  0.1017
    4MOL0     H  507   2.196   2.369   2.369  1.9011  0.0352 -3.0598
    4MOL0     H  508   2.237   2.100   2.346  1.7769 -0.8519  1.3940
    4MOL0     H  509   2.403   2.154   2.335  0.0380  0.1939 -2.1270
    4MOL0     H  510   2.907   2.731   2.758  0.3091 -1.5670  0.4900
    4MOL0     H  511   3.125   2.706   2.849  0.4413  2.2043  1.1046
    4MOL0     H  512   3.572   2.852   2.681  0.4161  2.5291  0.9776
    4MOL0     H  513   3.825   2.847   2.691  3.1801  0.2149  1.5937
    4MOL0     H  514   5.196   3.167   3.492  1.7864  0.9864 -0.2254
    4MOL0     H  515   5.419   3.134   3.480 -1.2006  0.9015 -0.4077
    4MOL0     H  516   5.862   2.648   3.637  1.0387 -0.5395 -1.3767
    4MOL0     H  517   6.102   2.688   3.586  1.8768  0.1449 -2.4082
    4MOL0     H  518   6.218   3.110   3.531 -0.5498  3.7101 -2.9008
    4MOL0     H  519   6.227   3.069   3.361 -3.4395  0.8427  1.7592
    4MOL0     H  520   6.439   3.128   3.458 -0.9855  0.7053  0.1373
    4MOL0     H  521   6.435   2.995   3.574  0.0714 -2.1660 -0.8029
    4MOL0     H  522   6.446   2.963   3.279  3.3670  0.1710 -0.2021
    4MOL0     H  523   6.432   2.830   3.386  1.6225 -2.1440 -0.3694
    4MOL0     H  524   6.653   2.918   3.497 -0.5387 -2.3530 -0.0115
    4MOL0     H  525   6.684   2.887   3.325 -1.7421 -0.0223 -0.3189
    4MOL0     H  526   6.686   3.302   3.288  1.5789  0.0887 -0.1765
    4MOL0     H  527   5.993   3.085   3.442  0.7361  1.2487  2.2440
    4MOL0     H  528   5.754   3.019   3.453 -0.1134 -0.3253 -0.6156
    5MOL0     O  529  11.113   1.264  10.759  0.1993  0.5357 -0.2902
    5MOL0     C  530  11.174   1.234  10.860  0.2075  0.5037 -0.1187
    5MOL0     O  531  11.110   1.190  10.979  0.0174 -0.1815  0.1812
    5MOL0     C  532  10.980   1.140  10.993 -0.3922  0.3005 -0.1133
    5MOL0     C  533  10.894   1.087  10.893 -0.3913 -0.1656  0.5914
    5MOL0     C  534  10.762   1.052  10.921  0.0151  0.3857 -0.4190
    5MOL0     C  535  10.710   1.061  11.055  0.1232  0.1412 -0.7486
    5MOL0     O  536  10.589   1.007  11.091  0.2796  0.3595 -0.1796
    5MOL0     C  537  10.566   0.868  11.057 -0.4708 -0.3470  0.2313
    5MOL0     C  538  10.430   0.817  11.114  0.0713 -0.1085  0.5971
    5MOL0     C  539  10.304   0.844  11.018 -0.6926 -0.5968 -1.1505
    5MOL0     C  540  10.287   0.992  10.969 -0.3162  0.9815 -0.0165
    5MOL0     C  541  10.181   0.993  10.857 -0.0623 -0.2855 -0.7528
    5MOL0     C  542  10.041   1.013  10.916 -0.4422  0.1040  0.0915
    5MOL0     C  543   9.931   0.983  10.811 -0.7145 -0.7330 -0.1882
    5MOL0     C  544   9.798   1.044  10.869  0.3153  0.0958  0.5661
    5MOL0     N  545   9.681   0.977  10.803  0.5876  0.0843  0.3793
    5MOL0     C  546   9.623   1.008  10.684  0.1368 -0.5589  0.3692
    5MOL0     C  547   9.512   0.930  10.681  0.0157 -0.2371  0.7384
    5MOL0     C  548   9.414   0.945  10.567  0.6118 -0.7777  0.2980
    5MOL0     C  549   9.292   1.026  10.604 -0.5358  0.1119 -0.2090
    5MOL0     C  550   9.191   0.942  10.677  1.7085 -0.3626 -0.5638
    5MOL0     C  551   9.082   1.036  10.731 -0.7991  0.0977  0.0508
    5MOL0     O  552   9.006   1.064  10.615  0.3120 -0.6451 -0.2030
    5MOL0     C  553   8.942   1.187  10.619  0.2881 -0.6425  0.8505
    5MOL0     C  554   8.860   1.215  10.508  0.9003  0.6098  0.0203
    5MOL0     C  555   8.796   1.340  10.496  0.2217 -0.9682  0.0066
    5MOL0     C  556   8.816   1.443  10.599  0.5288  0.0984 -0.4123
    5MOL0     C  557   8.781   1.586  10.577  0.1993 -0.3171 -0.4623
    5MOL0     O  558   8.712   1.606  10.461 -0.0550 -0.3763 -0.0990
    5MOL0     C  559   8.699   1.750  10.441 -0.0983  0.3569  0.2218
    5MOL0     C  560   8.581   1.811  10.455  0.3104 -0.1057  0.3476
    5MOL0     C  561   8.568   1.947  10.450 -0.0166 -1.2555 -0.5367
    5MOL0     C  562   8.672   2.029  10.412  0.7691  0.5949  0.5587
    5MOL0     O  563   8.667   2.163  10.407 -0.4599  0.3072 -0.0960
    5MOL0     C  564   8.596   2.240  10.502 -0.2170  0.4788  0.4535
    5MOL0     C  565   8.645   2.383  10.484  0.3540 -0.1163 -0.1324
    5MOL0     C  566   8.571   2.480  10.569  1.0487 -0.0755 -0.2649
    5MOL0     C  567   8.605   2.462  10.720 -0.3497  0.2686 -0.1551
    5MOL0     C  568   8.515   2.544  10.811 -0.3848 -0.7552 -0.1241
    5MOL0     C  569   8.518   2.699  10.782  0.2313  0.6300 -0.0326
    5MOL0     C  570   8.652   2.771  10.806  1.0709  0.2136  0.0905
    5MOL0     C  571   8.661   2.899  10.724 -0.1073  0.0679 -0.0250
    5MOL0    Cl  572   8.548   3.030  10.769  0.0309  0.0117  0.1906
    5MOL0     C  573   8.797   1.964  10.389  0.0356 -0.0200 -0.1613
    5MOL0     C  574   8.815   1.823  10.404  0.2100  0.2851 -1.4173
    5MOL0     O  575   8.811   1.670  10.659  0.2946  0.0929 -0.3554
    5MOL0     C  576   8.884   1.400  10.714  0.1265 -0.1672  0.4700
    5MOL0     C  577   8.943   1.272  10.729 -0.5686  0.1005 -0.6523
    5MOL0     N  578   9.506   0.854  10.796 -0.0722 -0.9113  0.5948
    5MOL0     N  579   9.609   0.878  10.860 -0.2664  1.0056 -0.8869
    5MOL0     C  580  10.791   1.127  11.147  0.4873  0.0558 -0.1260
    5MOL0     C  581  10.926   1.151  11.121  0.2163 -0.8949 -0.1659
    5MOL0     C  582  11.316   1.247  10.861 -0.0346 -0.6797 -0.4784
    5MOL0     C  583  11.398   1.231  10.745  0.3877 -0.5903  0.7274
    5MOL0     C  584  11.533   1.250  10.757 -1.4164  0.4377  1.0313
    5MOL0     C  585  11.601   1.275  10.874  0.1171  0.0951  0.0049
    5MOL0     O  586  11.738   1.278  10.857  0.0253 -0.3583 -0.5882
    5MOL0     C  587  11.836   1.288  10.967  0.5613 -0.1419 -1.0150
    5MOL0     C  588  11.880   1.428  11.003  0.5588 -0.3569 -0.0706
    5MOL0     C  589  11.925   1.502  10.878 -0.3462 -0.9070 -0.2180
    5MOL0     C  590  11.966   1.643  10.902  0.3047  0.1113  0.1091
    5MOL0     C  591  12.047   1.692  10.789 -1.0235  0.1204  0.3616
    5MOL0     C  592  12.113   1.706  10.693  0.8023  0.1465 -0.0187
    5MOL0     C  593  11.523   1.290  10.992 -0.6868 -0.0356  0.1404
    5MOL0     C  594  11.383   1.267  10.986  0.0545  0.2889 -0.7719
    5MOL0     H  595  10.935   1.069  10.794 -2.9997  0.4339 -0.6750
    5MOL0     H  596  10.706   1.003  10.842 -0.7685 -0.2069  0.4809
    5MOL0     H  597  10.643   0.799  11.093  0.9307  0.5097 -1.0074
    5MOL0     H  598  10.569   0.862  10.948  3.8167  4.4581 -0.2598
    5MOL0     H  599  10.398   0.858  11.210 -1.7423 -3.0095  1.3352
    5MOL0     H  600  10.445   0.711  11.136 -0.9639 -1.5811 -4.4179
    5MOL0     H  601  10.214   0.808  11.068  0.3506  0.1176  1.4582
    5MOL0     H  602  10.318   0.788  10.925  0.4744 -0.3673 -1.1363
    5MOL0     H  603  10.255   1.055  11.052  0.5704  1.7828 -0.2635
    5MOL0     H  604  10.386   1.021  10.932  1.2425 -3.2357  0.3447
    5MOL0     H  605  10.174   0.897  10.806 -0.8455 -0.3649 -0.5114
    5MOL0     H  606  10.206   1.072  10.785  0.6197  3.0928  2.8229
    5MOL0     H  607  10.024   1.117  10.946  0.0468  0.9373 -2.3410
    5MOL0     H  608  10.022   0.944  10.999  2.3316  0.8844  1.4973
    5MOL0     H  609   9.953   1.034  10.716  1.2867  0.7435  0.9881
    5MOL0     H  610   9.931   0.877  10.786  0.6672 -0.0923 -3.5332
    5MOL0     H  611   9.803   1.153  10.859  1.8377  0.2071  2.0566
    5MOL0     H  612   9.791   1.024  10.976  2.4630 -2.5350  0.3130
    5MOL0     H  613   9.645   1.089  10.616 -2.1986  1.1005  1.4535
    5MOL0     H  614   9.387   0.841  10.548  1.7985 -0.9050 -0.8073
    5MOL0     H  615   9.454   0.982  10.473  3.1959 -0.5137  1.4130
    5MOL0     H  616   9.247   1.070  10.515 -0.7462  1.7037  0.6418
    5MOL0     H  617   9.323   1.114  10.662 -1.1558 -0.3492  0.8407
    5MOL0     H  618   9.142   0.879  10.602 -0.0458  1.2593 -0.8665
    5MOL0     H  619   9.235   0.881  10.757  1.5107 -1.8744 -1.5535
    5MOL0     H  620   9.127   1.124  10.777  0.0360 -0.9829  1.3585
    5MOL0     H  621   9.025   0.990  10.812  0.0764 -2.5683 -0.7431
    5MOL0     H  622   8.836   1.140  10.434  2.9713 -0.3060  0.2201
    5MOL0     H  623   8.740   1.348  10.403 -0.6097 -0.0453  0.5770
    5MOL0     H  624   8.504   1.737  10.478 -0.4603  0.8434  0.9060
    5MOL0     H  625   8.473   1.991  10.481  0.4964 -0.6093  0.1567
    5MOL0     H  626   8.626   2.197  10.599  0.3808 -0.4654 -0.1323
    5MOL0     H  627   8.488   2.227  10.493 -0.2879  2.2436 -2.0872
    5MOL0     H  628   8.614   2.399  10.380 -0.5374 -2.4862 -0.2915
    5MOL0     H  629   8.753   2.392  10.500 -0.1339  2.4278  2.5171
    5MOL0     H  630   8.466   2.453  10.559  0.7081  1.1809 -0.2781
    5MOL0     H  631   8.588   2.583  10.537  0.4412  0.0463 -0.2098
    5MOL0     H  632   8.582   2.357  10.741  0.6487  0.0709 -0.0202
    5MOL0     H  633   8.711   2.477  10.741 -0.6885  2.5148  0.1935
    5MOL0     H  634   8.532   2.511  10.914  0.1417 -0.1932 -0.0253
    5MOL0     H  635   8.412   2.509  10.801 -1.1348  1.7287 -1.9770
    5MOL0     H  636   8.437   2.744  10.841 -0.5548 -1.4722  0.5840
    5MOL0     H  637   8.496   2.718  10.676  1.3761 -0.5851 -0.5102
    5MOL0     H  638   8.665   2.796  10.912  0.9626  2.0843 -0.2971
    5MOL0     H  639   8.737   2.708  10.777  1.2553 -0.0847  1.2106
    5MOL0     H  640   8.642   2.874  10.619  3.5763  1.1311 -1.0775
    5MOL0     H  641   8.764   2.935  10.723 -0.7023  2.0249  1.8987
    5MOL0     H  642   8.892   2.018  10.384 -0.4560  1.5498  3.7870
    5MOL0     H  643   8.915   1.782  10.396 -0.0363 -0.9863  1.1107
    5MOL0     H  644   8.890   1.471  10.796 -0.3242 -1.4908  1.6890
    5MOL0     H  645   8.997   1.263  10.823  4.7751  4.2995 -2.7964
    5MOL0     H  646  10.758   1.147  11.249  0.9960  1.2138 -0.1740
    5MOL0     H  647  10.987   1.188  11.203 -0.0576 -0.4296 -0.1661
    5MOL0     H  648  11.346   1.209  10.653  0.5964 -1.1035  0.7300
    5MOL0     H  649  11.594   1.233  10.669 -3.6056  0.7793 -0.6176
    5MOL0     H  650  11.928   1.245  10.926  1.2227  1.3370 -1.1737
    5MOL0     H  651  11.798   1.243  11.059 -0.5787  0.6800 -1.0639
    5MOL0     H  652  11.797   1.486  11.044 -0.4131 -0.8816 -1.2391
    5MOL0     H  653  11.951   1.418  11.086 -1.5705 -0.1132  1.9160
    5MOL0     H  654  11.849   1.502  10.799 -0.6845 -0.5382  0.1037
    5MOL0     H  655  12.008   1.446  10.834 -1.2459 -2.0133 -0.5871
    5MOL0     H  656  11.879   1.710  10.905  0.8192  0.8163 -0.3448
    5MOL0     H  657  12.014   1.649  11.000 -1.3337  1.4576  0.8894
    5MOL0     H  658  12.186   1.734  10.619  1.5307  0.7746  0.9204
    5MOL0     H  659  11.586   1.301  11.080 -0.0162 -0.2225 -0.3087
    5MOL0     H  660  11.323   1.255  11.076 -1.6574  0.4687 -1.8575
    6MOL0     O  661   6.011   2.904   4.400 -0.5160  0.6508  0.2158
    6MOL0     C  662   5.909   2.942   4.333 -0.6304  0.0979 -0.1564
    6MOL0     O  663   5.895   3.054   4.261 -0.5000 -0.2674 -0.0227
    6MOL0     C  664   5.985   3.157   4.252 -0.1373  0.2087  0.0992
    6MOL0     C  665   6.120   3.139   4.262 -1.2348  0.0070  0.3316
    6MOL0     C  666   6.208   3.249   4.264 -0.6176  0.0487  0.7256
    6MOL0     C  667   6.159   3.374   4.231 -0.0180  0.9851 -0.3093
    6MOL0     O  668   6.232   3.493   4.232 -0.0402 -0.0960  0.4289
    6MOL0     C  669   6.369   3.476   4.256 -0.3816  0.0376  0.3451
    6MOL0     C  670   6.434   3.605   4.226  0.7050 -0.5368  0.0955
    6MOL0     C  671   6.576   3.620   4.267 -0.2432  0.1864 -0.0803
    6MOL0     C  672   6.628   3.756   4.245  1.2493  0.4032 -0.7025
    6MOL0     C  673   6.772   3.767   4.215  0.1080  0.6037  0.6935
    6MOL0     C  674   6.797   3.913   4.167  0.3388 -0.0672 -0.1460
    6MOL0     C  675   6.936   3.939   4.125 -0.3325  0.0778 -0.4524
    6MOL0     C  676   6.980   4.080   4.164 -0.0133  0.3752  0.6222
    6MOL0     N  677   6.885   4.187   4.122  0.6460  0.5594 -0.0328
    6MOL0     C  678   6.839   4.204   3.988 -0.7128 -0.1063  0.4804
    6MOL0     C  679   6.715   4.271   3.987  0.3728 -0.5431  0.9739
    6MOL0     C  680   6.639   4.298   3.873  0.0984  0.8096  0.7088
    6MOL0     C  681   6.586   4.167   3.813  0.6997 -0.9153  0.7740
    6MOL0     C  682   6.478   4.096   3.897 -0.5273 -0.4254  0.0542
    6MOL0     C  683   6.379   4.014   3.808  0.4403  0.0503 -0.7665
    6MOL0     O  684   6.300   3.950   3.908  0.5425 -0.5235 -0.1373
    6MOL0     C  685   6.189   3.880   3.862 -1.0555 -0.7543  0.2943
    6MOL0     C  686   6.116   3.910   3.745 -0.0604  1.2220  0.4081
    6MOL0     C  687   6.001   3.837   3.729  0.0767  0.8691  0.4585
    6MOL0     C  688   5.959   3.729   3.814 -0.3127 -0.2769  0.6938
    6MOL0     C  689   5.839   3.646   3.784 -0.9235 -0.6259  1.2596
    6MOL0     O  690   5.777   3.671   3.667  1.4641  0.6453  0.0015
    6MOL0     C  691   5.676   3.600   3.611  0.3357  0.7001  0.3727
    6MOL0     C  692   5.684   3.583   3.473  0.8495  0.1807  0.0653
    6MOL0     C  693   5.578   3.526   3.406 -0.3269  0.3801 -0.5036
    6MOL0     C  694   5.476   3.466   3.477 -0.5198  0.2201  0.4198
    6MOL0     O  695   5.374   3.389   3.414 -0.0343 -0.2205 -0.0910
    6MOL0     C  696   5.346   3.427   3.281 -0.3719  0.1613 -0.4485
    6MOL0     C  697   5.211   3.363   3.237  0.7967 -0.7421  0.1406
    6MOL0     C  698   5.081   3.430   3.298  1.0821  0.1514 -0.7837
    6MOL0     C  699   4.958   3.339   3.291 -0.4222  0.2194  0.9902
    6MOL0     C  700   4.852   3.391   3.386 -0.2236  0.4647 -0.8906
    6MOL0     C  701   4.708   3.337   3.355  0.0525  0.8414  0.2867
    6MOL0     C  702   4.707   3.192   3.397  0.9092 -0.2888 -0.0357
    6MOL0     C  703   4.584   3.124   3.343 -0.4245  0.3119  0.1526
    6MOL0    Cl  704   4.424   3.195   3.388  0.0318  0.0110  0.0914
    6MOL0     C  705   5.467   3.485   3.613  0.2822  0.5193 -0.2346
    6MOL0     C  706   5.566   3.552   3.681 -0.0601 -1.2124  0.0813
    6MOL0     O  707   5.814   3.550   3.854 -0.0964 -0.5305  1.1104
    6MOL0     C  708   6.041   3.699   3.926 -0.5959  0.9958  0.0296
    6MOL0     C  709   6.156   3.770   3.945 -0.0446 -0.5722  0.9949
    6MOL0     N  710   6.693   4.305   4.113 -0.6383 -0.0865 -0.8126
    6MOL0     N  711   6.789   4.248   4.194  0.3822  0.4747  0.4538
    6MOL0     C  712   6.023   3.389   4.194  0.1428  0.4305 -0.0499
    6MOL0     C  713   5.937   3.276   4.205  0.9051 -0.0145  1.2269
    6MOL0     C  714   5.772   2.877   4.355  0.3895  0.5304  0.1260
    6MOL0     C  715   5.655   2.909   4.280 -0.1029  0.1417 -0.6293
    6MOL0     C  716   5.529   2.851   4.309 -0.0838 -0.6243 -0.2707
    6MOL0     C  717   5.527   2.741   4.401 -0.4615 -0.8395 -0.1476
    6MOL0     O  718   5.420   2.656   4.435 -0.4559 -0.1331  0.3228
    6MOL0     C  719   5.292   2.709   4.394  0.1615 -0.0439 -0.3902
    6MOL0     C  720   5.181   2.616   4.439 -0.1415  0.2975  0.3112
    6MOL0     C  721   5.062   2.700   4.469  0.4901  0.6742  0.3965
    6MOL0     C  722   4.945   2.619   4.532  0.6310 -0.4664  0.4802
    6MOL0     C  723   4.819   2.693   4.548  0.3992  0.5905 -0.0363
    6MOL0     C  724   4.734   2.778   4.552  0.5692 -0.0710  0.3539
    6MOL0     C  725   5.646   2.709   4.469  0.2154  0.3243 -0.3824
    6MOL0     C  726   5.767   2.783   4.454  0.2696  1.0697 -1.2308
    6MOL0     H  727   6.170   3.045   4.285 -1.0475  0.5271  2.2187
    6MOL0     H  728   6.312   3.230   4.287 -0.4460 -1.3762 -1.0309
    6MOL0     H  729   6.413   3.391   4.203  0.8496 -3.5334  6.1532
    6MOL0     H  730   6.382   3.445   4.360 -3.9185  0.8193  1.1676
    6MOL0     H  731   6.369   3.682   4.270  0.7176  0.8306 -2.1223
    6MOL0     H  732   6.431   3.614   4.117 -0.4298  0.2657  0.1827
    6MOL0     H  733   6.641   3.555   4.208  0.4951  2.5214 -2.0226
    6MOL0     H  734   6.586   3.604   4.375  0.5591  2.4081  0.2412
    6MOL0     H  735   6.581   3.789   4.151  0.6674  0.7502 -0.2963
    6MOL0     H  736   6.604   3.828   4.324  3.2549  0.5887 -0.2237
    6MOL0     H  737   6.799   3.711   4.125  1.4732  1.0095  0.8226
    6MOL0     H  738   6.829   3.733   4.302 -2.7358  0.5326  2.6555
    6MOL0     H  739   6.766   3.983   4.245  0.3674  0.7487 -0.8471
    6MOL0     H  740   6.733   3.944   4.083  0.3060  0.7263  0.1612
    6MOL0     H  741   6.999   3.855   4.156 -0.7339  0.0217  0.2364
    6MOL0     H  742   6.957   3.948   4.018  3.6339 -0.8879  0.0749
    6MOL0     H  743   7.084   4.106   4.144  0.7815  0.0313  3.8127
    6MOL0     H  744   6.974   4.069   4.272 -2.4127 -0.0927  0.5052
    6MOL0     H  745   6.886   4.181   3.892 -2.2806  0.7281 -0.5309
    6MOL0     H  746   6.709   4.320   3.792 -1.7859 -4.7611 -3.0493
    6MOL0     H  747   6.561   4.374   3.887  2.3989  3.3130  0.7412
    6MOL0     H  748   6.672   4.104   3.789  2.4167  1.9232 -1.2172
    6MOL0     H  749   6.532   4.195   3.722 -1.7206 -1.4474  1.9784
    6MOL0     H  750   6.528   4.030   3.968 -2.1436  0.0388  1.7031
    6MOL0     H  751   6.417   4.160   3.962 -3.2138 -2.6153 -0.1673
    6MOL0     H  752   6.426   3.941   3.741  1.9453 -1.0938  1.4018
    6MOL0     H  753   6.320   4.085   3.750 -0.1957 -0.1286 -0.3533
    6MOL0     H  754   6.149   3.972   3.663 -0.3852 -0.1508 -0.7986
    6MOL0     H  755   5.941   3.868   3.644  1.5701  1.8471 -0.2847
    6MOL0     H  756   5.769   3.634   3.429  1.5830 -0.8825  0.2080
    6MOL0     H  757   5.575   3.532   3.298 -0.1357  0.1914 -0.5199
    6MOL0     H  758   5.428   3.403   3.213  0.5360  1.8168  0.0141
    6MOL0     H  759   5.335   3.535   3.269  0.3505  0.2712 -0.1743
    6MOL0     H  760   5.213   3.256   3.260  0.7760 -0.4034  1.7888
    6MOL0     H  761   5.198   3.376   3.129 -0.8885 -0.4598  0.3577
    6MOL0     H  762   5.049   3.523   3.249  0.2683 -0.4578 -1.4286
    6MOL0     H  763   5.096   3.463   3.401 -2.1500  0.7152 -0.3938
    6MOL0     H  764   4.911   3.325   3.194 -1.0846 -0.4755  1.3994
    6MOL0     H  765   4.990   3.241   3.325 -1.3531  0.1161  1.6172
    6MOL0     H  766   4.857   3.499   3.370  1.0930  0.2912 -1.8559
    6MOL0     H  767   4.886   3.372   3.488  1.7285 -0.3360 -1.6492
    6MOL0     H  768   4.697   3.340   3.246 -0.2397 -0.3865  0.2742
    6MOL0     H  769   4.628   3.394   3.404 -2.2413 -2.5588  0.8618
    6MOL0     H  770   4.798   3.141   3.364  0.3812 -2.1070  1.1190
    6MOL0     H  771   4.706   3.198   3.506  1.7674  3.1854 -0.1054
    6MOL0     H  772   4.587   3.024   3.386  2.6760  0.6118  0.8547
    6MOL0     H  773   4.595   3.111   3.235  1.7813  1.0856  0.2310
    6MOL0     H  774   5.391   3.437   3.675  0.5293  1.3497  0.7269
    6MOL0     H  775   5.552   3.553   3.789 -1.9284  1.6613 -0.0771
    6MOL0     H  776   6.016   3.604   3.973  3.4570  0.6860  1.9313
    6MOL0     H  777   6.219   3.756   4.032 -0.0675 -1.7977  0.8290
    6MOL0     H  778   5.985   3.482   4.152 -0.4937  0.0681 -0.2994
    6MOL0     H  779   5.835   3.299   4.176  1.9451  1.6158 -1.5283
    6MOL0     H  780   5.654   2.976   4.194 -2.2207 -1.9813 -2.3879
    6MOL0     H  781   5.447   2.878   4.243 -2.1281 -3.6664  0.7952
    6MOL0     H  782   5.288   2.725   4.285 -1.8377  1.1840 -0.1945
    6MOL0     H  783   5.286   2.810   4.434 -1.1814  0.7424 -2.3720
    6MOL0     H  784   5.167   2.531   4.371  1.2698  0.2114  0.0922
    6MOL0     H  785   5.222   2.580   4.534  0.7716  0.1000 -0.1427
    6MOL0     H  786   5.036   2.743   4.372 -2.6379  2.6237  1.9358
    6MOL0     H  787   5.086   2.788   4.529  0.8334  1.5228 -0.9308
    6MOL0     H  788   4.923   2.528   4.476  0.5935 -2.2837  3.2321
    6MOL0     H  789   4.984   2.589   4.631 -0.5075 -0.7610  0.8492
    6MOL0     H  790   4.662   2.857   4.549  1.9667  1.2167 -0.7562
    6MOL0     H  791   5.650   2.643   4.555  0.9630  0.7071 -0.1115
    6MOL0     H  792   5.846   2.771   4.528  0.2835 -0.2796 -1.4456
    7MOL0     O  793   7.885   4.867   9.057 -0.1452 -0.4530  0.3897
    7MOL0     C  794   7.905   4.981   9.009  1.0730  0.3792 -0.0242
    7MOL0     O  795   7.820   5.044   8.922  0.1689  0.5656  0.1901
    7MOL0     C  796   7.701   4.979   8.890  0.0331  1.0601  1.1416
    7MOL0     C  797   7.572   4.996   8.953 -0.1171 -0.8853  0.2468
    7MOL0     C  798   7.460   4.929   8.902 -0.7458  0.2472  0.3948
    7MOL0     C  799   7.478   4.847   8.786 -0.6933 -0.5973  0.5746
    7MOL0     O  800   7.376   4.783   8.731 -0.2101 -0.2058 -0.0927
    7MOL0     C  801   7.343   4.656   8.797 -0.4495 -0.2480 -0.8753
    7MOL0     C  802   7.232   4.587   8.709  0.3522  0.0461 -0.7125
    7MOL0     C  803   7.097   4.654   8.704  0.3466 -0.6219 -0.2826
    7MOL0     C  804   7.012   4.584   8.610  0.3992 -0.4909  0.8779
    7MOL0     C  805   6.866   4.636   8.611 -0.4480 -0.0899  1.4759
    7MOL0     C  806   6.771   4.545   8.536 -0.1398  0.6633  0.3774
    7MOL0     C  807   6.629   4.591   8.551  0.5244 -0.2619  0.0684
    7MOL0     C  808   6.529   4.489   8.477  0.0082  0.0035  0.8678
    7MOL0     N  809   6.395   4.551   8.474  0.8120  0.9386 -0.3955
    7MOL0     C  810   6.300   4.511   8.564  0.3961 -0.1101 -0.6835
    7MOL0     C  811   6.200   4.603   8.541  0.4200  0.2939  0.8937
    7MOL0     C  812   6.066   4.577   8.612 -0.5155 -0.2834  0.9446
    7MOL0     C  813   5.952   4.641   8.527 -0.0958  0.7883  0.1329
    7MOL0     C  814   5.818   4.611   8.604 -0.6431  0.2171  0.4366
    7MOL0     C  815   5.698   4.673   8.543  0.1367  0.4284  0.6876
    7MOL0     O  816   5.578   4.621   8.603  0.2086 -0.2243  0.3166
    7MOL0     C  817   5.461   4.691   8.569  0.1388  0.0051 -0.5639
    7MOL0     C  818   5.343   4.618   8.597 -0.3816  0.3174  0.3025
    7MOL0     C  819   5.213   4.663   8.560 -0.1880 -0.0411  0.6474
    7MOL0     C  820   5.195   4.787   8.499  0.5066  0.2676  1.1207
    7MOL0     C  821   5.064   4.834   8.456  0.1021 -0.0402  0.9292
    7MOL0     O  822   5.067   4.953   8.408  0.6756  0.5273  0.6701
    7MOL0     C  823   4.958   5.015   8.336 -0.3592 -0.4470  0.4494
    7MOL0     C  824   4.880   4.944   8.244 -0.3273 -0.1564  0.1796
    7MOL0     C  825   4.781   5.005   8.170  0.1091 -0.1283 -0.6288
    7MOL0     C  826   4.752   5.147   8.173 -0.1217 -0.3358 -0.5422
    7MOL0     O  827   4.656   5.198   8.091  0.8248  0.3437 -1.2349
    7MOL0     C  828   4.601   5.327   8.137  0.1544 -0.6768  0.6166
    7MOL0     C  829   4.458   5.323   8.081  0.4256  0.5131  0.6400
    7MOL0     C  830   4.459   5.371   7.935 -0.0901 -0.3501  0.7047
    7MOL0     C  831   4.353   5.297   7.850  0.7769  0.2603  0.0125
    7MOL0     C  832   4.218   5.344   7.876 -0.3872 -0.4240 -0.2919
    7MOL0     C  833   4.101   5.275   7.820 -0.3486 -0.1802 -1.1542
    7MOL0     C  834   3.976   5.328   7.898  0.7434 -0.4315 -0.8210
    7MOL0     C  835   3.848   5.258   7.855  0.1943  0.3506  0.3037
    7MOL0    Cl  836   3.713   5.308   7.970 -0.1257 -0.2111  0.0907
    7MOL0     C  837   4.834   5.221   8.258  0.2066  0.0233  0.0580
    7MOL0     C  838   4.940   5.160   8.336  0.6761  0.1356  0.0040
    7MOL0     O  839   4.968   4.759   8.460  0.0766 -0.0549 -0.5367
    7MOL0     C  840   5.310   4.867   8.484 -0.5334  0.0036  0.3311
    7MOL0     C  841   5.439   4.823   8.510 -0.0601  0.2769  1.1306
    7MOL0     N  842   6.222   4.687   8.430 -0.1018  0.5202  0.6257
    7MOL0     N  843   6.349   4.666   8.399  0.6865 -0.6957  0.0340
    7MOL0     C  844   7.598   4.824   8.725  0.7436 -0.0590 -0.5744
    7MOL0     C  845   7.702   4.903   8.761  0.0049  0.6601 -0.2876
    7MOL0     C  846   8.045   5.032   9.029  0.1698  0.5054  0.1299
    7MOL0     C  847   8.137   4.967   9.110 -0.2990  0.0639 -0.3321
    7MOL0     C  848   8.264   5.027   9.132  1.1417 -0.3561  1.0200
    7MOL0     C  849   8.300   5.141   9.055 -0.0195  0.0115 -0.2727
    7MOL0     O  850   8.418   5.198   9.091  0.4058  0.2062  0.8290
    7MOL0     C  851   8.489   5.274   8.987  1.1136  0.7028 -0.3264
    7MOL0     C  852   8.592   5.370   9.052 -0.1954  0.5971  0.4667
    7MOL0     C  853   8.673   5.319   9.167  0.3355  0.7499 -0.3120
    7MOL0     C  854   8.798   5.406   9.186 -0.5420  0.4131  0.2303
    7MOL0     C  855   8.903   5.398   9.082 -0.6262 -0.3299 -0.3922
    7MOL0     C  856   8.961   5.366   8.983 -0.1692  0.1102  0.2155
    7MOL0     C  857   8.213   5.194   8.970 -0.8083 -0.6768  0.0937
    7MOL0     C  858   8.091   5.133   8.948  0.1598  0.8034 -0.1459
    7MOL0     H  859   7.570   5.059   9.042 -2.2020 -0.8577  0.2290
    7MOL0     H  860   7.358   4.930   8.940 -1.8012  0.7921 -2.2493
    7MOL0     H  861   7.302   4.676   8.896  1.1141  0.3046 -0.3065
    7MOL0     H  862   7.438   4.604   8.811 -0.9585 -1.7067 -2.4088
    7MOL0     H  863   7.225   4.487   8.754  1.9278  1.0534  2.0022
    7MOL0     H  864   7.282   4.579   8.612  0.7405  2.5290 -0.7836
    7MOL0     H  865   7.108   4.760   8.681 -2.6446  0.0257  0.7777
    7MOL0     H  866   7.051   4.652   8.803  0.4799  1.0198 -0.1667
    7MOL0     H  867   7.058   4.576   8.512  1.9520 -0.8821  1.6116
    7MOL0     H  868   7.015   4.482   8.648  1.1508  0.1079  2.5908
    7MOL0     H  869   6.864   4.737   8.569 -0.9929 -1.6229 -2.6521
    7MOL0     H  870   6.834   4.639   8.715 -3.5026  0.4651  0.5934
    7MOL0     H  871   6.792   4.447   8.582  3.1774  1.6635  1.2587
    7MOL0     H  872   6.796   4.527   8.431  1.3578  0.3224  0.7679
    7MOL0     H  873   6.597   4.609   8.654  0.1198  0.7874 -0.2361
    7MOL0     H  874   6.619   4.689   8.505  1.0960 -0.0694  0.3446
    7MOL0     H  875   6.526   4.397   8.537 -1.0319  1.0463  2.5166
    7MOL0     H  876   6.553   4.464   8.373 -1.6206  1.1489  0.1854
    7MOL0     H  877   6.302   4.435   8.641 -0.2147  2.9815  2.6566
    7MOL0     H  878   6.084   4.634   8.703 -1.1827  1.8608 -0.1878
    7MOL0     H  879   6.052   4.469   8.622 -0.1851 -1.0652 -4.2961
    7MOL0     H  880   5.953   4.589   8.430  0.5908  0.7116  0.1773
    7MOL0     H  881   5.969   4.748   8.513  2.4209  0.6202  1.4477
    7MOL0     H  882   5.808   4.502   8.616 -0.6329  0.3033  1.2659
    7MOL0     H  883   5.835   4.650   8.705  2.4240 -1.9894  0.9243
    7MOL0     H  884   5.708   4.654   8.436  0.1816  2.0217  0.3899
    7MOL0     H  885   5.705   4.780   8.566  1.2001  0.1672  1.6515
    7MOL0     H  886   5.356   4.521   8.644 -2.2419 -1.3385 -2.2734
    7MOL0     H  887   5.123   4.607   8.582 -0.9071  1.4953  1.8282
    7MOL0     H  888   4.891   4.837   8.228 -1.6425 -0.0746 -1.6130
    7MOL0     H  889   4.725   4.942   8.102  1.9685 -1.0827 -1.3196
    7MOL0     H  890   4.660   5.410   8.097  0.9380  0.1825  3.3327
    7MOL0     H  891   4.605   5.331   8.246 -1.9311 -1.8162  0.7914
    7MOL0     H  892   4.392   5.393   8.134 -1.3859 -0.6343 -0.0339
    7MOL0     H  893   4.412   5.226   8.100  0.8944 -0.0120 -0.7778
    7MOL0     H  894   4.558   5.341   7.899 -0.8997 -2.8021  0.3608
    7MOL0     H  895   4.466   5.480   7.926 -0.7702 -0.0723  2.8268
    7MOL0     H  896   4.379   5.320   7.746 -1.9194  1.8217 -0.4004
    7MOL0     H  897   4.357   5.190   7.870 -3.4583  0.0408  0.4346
    7MOL0     H  898   4.213   5.450   7.850 -0.3907  0.2331  2.0968
    7MOL0     H  899   4.213   5.340   7.985  2.0125  1.3308 -0.0427
    7MOL0     H  900   4.117   5.167   7.821  0.4582 -0.1102 -2.9180
    7MOL0     H  901   4.089   5.315   7.719  1.7047  2.2055 -0.5706
    7MOL0     H  902   3.982   5.310   8.005 -1.8131 -3.5659 -1.0500
    7MOL0     H  903   3.960   5.436   7.887 -2.5488 -0.7915 -0.6890
    7MOL0     H  904   3.870   5.153   7.877 -1.6768 -0.3124 -0.7000
    7MOL0     H  905   3.817   5.271   7.751  0.8846  0.4800  0.1054
    7MOL0     H  906   4.816   5.326   8.277 -1.2887 -0.4023  1.1974
    7MOL0     H  907   5.004   5.229   8.390  1.1115 -1.6144  1.8283
    7MOL0     H  908   5.287   4.961   8.434  1.0379 -0.1805 -0.8492
    7MOL0     H  909   5.525   4.880   8.478 -0.5683 -0.2684 -1.4099
    7MOL0     H  910   7.616   4.751   8.647  1.9314 -2.8120  2.0931
    7MOL0     H  911   7.799   4.895   8.712 -0.4388  4.4815 -2.1294
    7MOL0     H  912   8.117   4.874   9.162 -2.0726  1.1286  1.0230
    7MOL0     H  913   8.335   4.965   9.186  0.0892 -0.7056  2.0406
    7MOL0     H  914   8.429   5.339   8.923  2.7263  1.3974 -1.1893
    7MOL0     H  915   8.539   5.205   8.919 -1.7545 -0.6770 -1.2322
    7MOL0     H  916   8.664   5.389   8.972  2.1599 -1.8648  1.8194
    7MOL0     H  917   8.543   5.464   9.078 -1.1773  0.7497 -1.7344
    7MOL0     H  918   8.707   5.216   9.149  1.7039  1.1926 -0.3799
    7MOL0     H  919   8.615   5.328   9.259 -0.1629  2.3859 -0.7686
    7MOL0     H  920   8.768   5.511   9.185 -1.2193  0.2263  0.5000
    7MOL0     H  921   8.851   5.383   9.279  1.2194  0.4658 -0.7038
    7MOL0     H  922   9.011   5.316   8.903 -0.7841 -2.3716  1.2847
    7MOL0     H  923   8.239   5.285   8.916 -2.5635  0.7529  1.5099
    7MOL0     H  924   8.024   5.158   8.866  0.2160 -1.4707 -0.9425
    8MOL0     O  925   5.428  10.140   2.756  0.2653 -0.1720 -0.0569
    8MOL0     C  926   5.530  10.197   2.784  0.3708  0.7729 -0.1200
    8MOL0     O  927   5.550  10.333   2.778  0.1253  1.3242  0.3135
    8MOL0     C  928   5.446  10.409   2.731  0.1629 -0.2845 -0.6133
    8MOL0     C  929   5.360  10.474   2.821  0.4963  0.1747 -0.6715
    8MOL0     C  930   5.265  10.560   2.771  0.4773  0.3024 -0.6371
    8MOL0     C  931   5.249  10.583   2.632 -0.2898  0.2014 -0.5938
    8MOL0     O  932   5.151  10.650   2.567  0.0570  0.3721  0.1733
    8MOL0     C  933   5.062  10.718   2.659 -0.1296  0.0055  1.0685
    8MOL0     C  934   4.960  10.793   2.577  0.5100 -0.4559  1.2794
    8MOL0     C  935   4.898  10.914   2.663 -0.2598  0.8680 -1.2330
    8MOL0     C  936   4.782  10.961   2.581 -0.1524 -0.0065 -0.1218
    8MOL0     C  937   4.700  11.078   2.632 -0.3552  0.9248  0.2083
    8MOL0     C  938   4.656  11.071   2.781  0.8107  0.8173 -0.1560
    8MOL0     C  939   4.542  10.968   2.811  0.8999  0.0275 -0.6839
    8MOL0     C  940   4.517  10.959   2.957  0.5293 -0.1629 -0.3131
    8MOL0     N  941   4.391  10.885   2.977  0.0404  0.0811  0.1246
    8MOL0     C  942   4.374  10.754   2.930  0.3315  0.5568  0.1332
    8MOL0     C  943   4.241  10.737   2.942  0.3813 -0.7040 -0.4342
    8MOL0     C  944   4.190  10.608   2.883  0.5785 -0.3364  0.2187
    8MOL0     C  945   4.042  10.638   2.859 -0.5344  0.0941 -0.3791
    8MOL0     C  946   3.969  10.532   2.786  0.7632 -1.6467  0.4044
    8MOL0     C  947   3.817  10.583   2.757  0.6292 -0.2198 -0.7910
    8MOL0     O  948   3.734  10.465   2.755 -0.0794 -0.2477 -0.1677
    8MOL0     C  949   3.598  10.485   2.728 -0.5592 -0.1287 -0.3300
    8MOL0     C  950   3.528  10.361   2.729  0.2853 -0.0676 -0.6652
    8MOL0     C  951   3.395  10.346   2.692  0.7404  0.7151  0.2811
    8MOL0     C  952   3.321  10.465   2.674  0.1204  0.0790 -0.0018
    8MOL0     C  953   3.177  10.470   2.639 -0.0300  0.8850 -0.5818
    8MOL0     O  954   3.119  10.341   2.611 -0.2595  0.0613  0.4543
    8MOL0     C  955   2.981  10.321   2.582 -0.2030 -0.2263 -0.3431
    8MOL0     C  956   2.939  10.200   2.520  0.0236 -0.8243  0.0115
    8MOL0     C  957   2.804  10.168   2.504 -0.1606  0.2492 -0.0396
    8MOL0     C  958   2.705  10.261   2.528 -0.6195 -0.4129 -0.7615
    8MOL0     O  959   2.574  10.256   2.485 -0.2318 -0.5352 -0.5223
    8MOL0     C  960   2.509  10.145   2.428  0.3722  0.0537 -0.3667
    8MOL0     C  961   2.370  10.117   2.492  0.2577  0.1480 -0.0769
    8MOL0     C  962   2.283  10.240   2.497  0.2731 -0.5520 -0.3136
    8MOL0     C  963   2.151  10.202   2.565 -0.1439 -0.5494  0.2711
    8MOL0     C  964   2.096  10.307   2.660  0.8647 -0.5538 -0.2612
    8MOL0     C  965   1.975  10.252   2.744  0.5464  1.2448  0.5965
    8MOL0     C  966   1.914  10.354   2.827 -0.7654  0.2777 -0.4619
    8MOL0     C  967   1.824  10.458   2.747 -0.0660 -0.4441 -0.9006
    8MOL0    Cl  968   1.797  10.613   2.834  0.4653 -0.2432  0.4344
    8MOL0     C  969   2.745  10.387   2.574 -0.1062 -0.0626 -0.6138
    8MOL0     C  970   2.877  10.417   2.616 -0.3146 -0.0107  0.6020
    8MOL0     O  971   3.124  10.579   2.637  1.0189  0.0861  0.0083
    8MOL0     C  972   3.386  10.591   2.691 -0.0768  0.5428 -0.5110
    8MOL0     C  973   3.521  10.602   2.714 -0.4895 -0.0131 -0.5927
    8MOL0     N  974   4.176  10.849   2.988  0.4519 -0.2348  0.2923
    8MOL0     N  975   4.269  10.939   3.011  1.0798 -0.2727  0.0956
    8MOL0     C  976   5.352  10.540   2.548 -0.5582 -0.9638 -0.8674
    8MOL0     C  977   5.447  10.447   2.596 -0.4848 -0.9729  0.3690
    8MOL0     C  978   5.636  10.106   2.816  0.4038 -0.0021 -0.8198
    8MOL0     C  979   5.625   9.991   2.897  0.4927  0.2597 -0.4829
    8MOL0     C  980   5.740   9.909   2.917  0.3866  0.7991 -0.1103
    8MOL0     C  981   5.869   9.949   2.867  0.2677 -0.2493 -0.2818
    8MOL0     O  982   5.990   9.888   2.882  0.0224  0.3788  0.2131
    8MOL0     C  983   6.010   9.786   2.973  0.1222  0.4393  0.2670
    8MOL0     C  984   6.164   9.773   2.987 -0.1100  0.1743  0.8403
    8MOL0     C  985   6.219   9.872   3.092  0.0885 -0.1396  0.3978
    8MOL0     C  986   6.375   9.852   3.093  0.8535  0.7692 -0.6073
    8MOL0     C  987   6.433   9.973   3.156  0.7496  0.2130 -0.7988
    8MOL0     C  988   6.510  10.054   3.208  0.0204 -0.3548  0.7229
    8MOL0     C  989   5.875  10.069   2.806 -0.5040  0.2835 -0.7522
    8MOL0     C  990   5.763  10.151   2.783 -0.4505  0.4820 -0.2241
    8MOL0     H  991   5.356  10.446   2.925  0.4048 -0.8707 -0.9501
    8MOL0     H  992   5.203  10.609   2.845  1.4933  3.4382 -1.6722
    8MOL0     H  993   5.127  10.774   2.728 -0.6043 -0.6190  2.0394
    8MOL0     H  994   5.013  10.637   2.714  1.4625 -1.8688 -0.1146
    8MOL0     H  995   4.895  10.715   2.536  1.8255 -0.5783 -0.7441
    8MOL0     H  996   5.007  10.832   2.486 -0.5957 -1.4262  0.2609
    8MOL0     H  997   4.975  10.990   2.669  1.4482 -0.8680  0.5743
    8MOL0     H  998   4.876  10.878   2.765  1.1954 -0.8429 -1.4722
    8MOL0     H  999   4.822  10.993   2.485 -0.6743  1.5054  0.1385
    8MOL0     H 1000   4.709  10.880   2.568 -2.2106  0.8493  4.1564
    8MOL0     H 1001   4.610  11.085   2.570  1.2210  2.3134 -2.0798
    8MOL0     H 1002   4.759  11.167   2.608  1.7965  0.1202  2.1381
    8MOL0     H 1003   4.631  11.172   2.815  2.5067  1.0346  0.5775
    8MOL0     H 1004   4.752  11.061   2.832  1.0529  0.2457 -0.7134
    8MOL0     H 1005   4.447  10.985   2.758 -0.3625  0.5784  1.6125
    8MOL0     H 1006   4.568  10.867   2.780  0.7637 -0.1734 -0.1457
    8MOL0     H 1007   4.493  11.058   2.997  2.1993 -0.1778  0.8342
    8MOL0     H 1008   4.594  10.920   3.024 -0.4079 -2.0529 -0.2704
    8MOL0     H 1009   4.441  10.677   2.893 -0.0361  0.4402 -0.3108
    8MOL0     H 1010   4.205  10.518   2.943  0.5839 -0.4624  0.0305
    8MOL0     H 1011   4.229  10.585   2.784 -1.0838 -1.3304 -0.2318
    8MOL0     H 1012   4.046  10.724   2.792 -1.2220 -0.1209 -0.7105
    8MOL0     H 1013   3.989  10.662   2.952  0.7350 -0.3998  0.4968
    8MOL0     H 1014   4.031  10.513   2.698  0.8627 -1.4161  0.4246
    8MOL0     H 1015   3.962  10.440   2.846 -1.4690 -1.1945  0.9447
    8MOL0     H 1016   3.804  10.649   2.671 -0.7400 -2.7345 -2.6328
    8MOL0     H 1017   3.777  10.631   2.847 -0.7628 -1.6904 -0.5872
    8MOL0     H 1018   3.579  10.271   2.759  0.1971  0.3270  0.7373
    8MOL0     H 1019   3.343  10.252   2.702 -0.0396  0.8811 -1.8309
    8MOL0     H 1020   3.003  10.123   2.478 -1.8749 -1.3002 -2.1658
    8MOL0     H 1021   2.788  10.069   2.463  2.4765 -0.1202 -0.3527
    8MOL0     H 1022   2.554  10.046   2.426 -1.2134 -0.8018  1.9157
    8MOL0     H 1023   2.495  10.175   2.323  3.1243 -0.4353 -0.9343
    8MOL0     H 1024   2.393  10.065   2.585  0.5005  1.2717  0.5060
    8MOL0     H 1025   2.327  10.042   2.425  2.5240 -0.1613 -1.2656
    8MOL0     H 1026   2.268  10.283   2.397 -0.5845  1.9120  0.7825
    8MOL0     H 1027   2.337  10.311   2.561  3.5275 -0.4168 -2.9308
    8MOL0     H 1028   2.067  10.183   2.498 -1.5620 -0.3174  1.9024
    8MOL0     H 1029   2.164  10.105   2.612 -1.6590 -0.7681  0.2902
    8MOL0     H 1030   2.055  10.389   2.598 -0.0096  1.4887  2.7881
    8MOL0     H 1031   2.175  10.340   2.727  0.9664 -2.4305  0.5741
    8MOL0     H 1032   2.000  10.171   2.813 -0.5668 -1.4441 -1.9374
    8MOL0     H 1033   1.897  10.209   2.680 -0.7906  2.6001  1.2768
    8MOL0     H 1034   1.850  10.309   2.903 -0.7876  1.3917  0.2110
    8MOL0     H 1035   1.989  10.408   2.887 -1.7489 -0.0547  1.1232
    8MOL0     H 1036   1.735  10.403   2.715  1.5449 -2.2397 -2.6120
    8MOL0     H 1037   1.870  10.491   2.653  0.9193  2.0167  0.3694
    8MOL0     H 1038   2.671  10.465   2.593  0.8623  0.1810  2.8505
    8MOL0     H 1039   2.903  10.499   2.683  0.2606 -1.7059  2.5457
    8MOL0     H 1040   3.317  10.674   2.686 -2.6501 -1.0577  3.2151
    8MOL0     H 1041   3.577  10.695   2.708  1.1073 -0.7075  1.7340
    8MOL0     H 1042   5.362  10.568   2.444  0.5165 -1.5007 -0.9148
    8MOL0     H 1043   5.520  10.405   2.529  0.5968 -2.5405  2.4195
    8MOL0     H 1044   5.528   9.955   2.931  0.9891 -1.4168 -0.7889
    8MOL0     H 1045   5.717   9.813   2.963 -2.3260  0.6349 -1.5741
    8MOL0     H 1046   5.984   9.690   2.929 -0.0413 -0.8171  2.9183
    8MOL0     H 1047   5.952   9.797   3.065 -0.6419 -2.9341  0.2853
    8MOL0     H 1048   6.186   9.670   3.017  2.1699  0.8287  1.6929
    8MOL0     H 1049   6.218   9.786   2.893  1.8604  0.2337  1.9197
    8MOL0     H 1050   6.166   9.851   3.186  0.2290 -1.5040  0.1889
    8MOL0     H 1051   6.194   9.970   3.051 -1.4844 -1.3231 -1.6673
    8MOL0     H 1052   6.404   9.769   3.159 -3.7394 -0.7209 -0.0746
    8MOL0     H 1053   6.418   9.833   2.995 -0.0515  1.2616 -1.1164
    8MOL0     H 1054   6.577  10.127   3.248 -0.5231  2.5443 -3.1046
    8MOL0     H 1055   5.978  10.093   2.784  0.2889 -1.7787  0.4621
    8MOL0     H 1056   5.771  10.248   2.733 -0.2998 -0.0635 -1.3042
    9MOL0     O 1057  10.147   8.676  10.402 -0.0992 -0.6304  0.0308
    9MOL0     C 1058  10.223   8.742  10.469  0.1861 -0.3473 -0.0600
    9MOL0     O 1059  10.183   8.834  10.566 -1.0807  0.0554  0.8910
    9MOL0     C 1060  10.051   8.836  10.592 -0.4313 -0.6600  0.0296
    9MOL0     C 1061   9.999   8.764  10.694  0.6258 -0.0612 -0.7018
    9MOL0     C 1062   9.867   8.784  10.736 -0.4713 -0.0298 -0.5754
    9MOL0     C 1063   9.778   8.870  10.667  0.4554  0.4576  0.2337
    9MOL0     O 1064   9.650   8.887  10.723  0.6872  0.0026 -0.4261
    9MOL0     C 1065   9.557   8.983  10.663 -0.4880  0.9421  0.1792
    9MOL0     C 1066   9.414   8.931  10.683  0.2995 -0.5574  0.4819
    9MOL0     C 1067   9.325   8.998  10.584 -0.0059  0.2085  0.8099
    9MOL0     C 1068   9.175   8.980  10.614 -0.0562  0.5974 -0.2335
    9MOL0     C 1069   9.084   9.024  10.501  0.4006 -0.4359  0.3370
    9MOL0     C 1070   8.927   9.007  10.530  0.0983  0.8690  0.6863
    9MOL0     C 1071   8.872   9.062  10.665 -0.0569 -0.6603  0.0148
    9MOL0     C 1072   8.715   9.050  10.686  0.4956  0.9236 -0.0243
    9MOL0     N 1073   8.645   9.172  10.654  0.0258  0.1306  0.4124
    9MOL0     C 1074   8.621   9.208  10.521  0.1344  0.1758 -0.0558
    9MOL0     C 1075   8.548   9.323  10.529  0.3884  0.4118  0.5798
    9MOL0     C 1076   8.463   9.386  10.412 -0.2652 -0.1831 -0.4862
    9MOL0     C 1077   8.325   9.311  10.391 -0.9307 -0.8200 -0.3090
    9MOL0     C 1078   8.225   9.328  10.505 -0.2600  0.3039 -0.8577
    9MOL0     C 1079   8.096   9.256  10.478 -0.4362 -0.0612  0.0146
    9MOL0     O 1080   8.015   9.315  10.579 -0.1978 -0.2384  0.5373
    9MOL0     C 1081   7.874   9.285  10.571 -0.5215  0.9367 -0.7306
    9MOL0     C 1082   7.809   9.230  10.457 -0.6285 -0.0079 -0.1688
    9MOL0     C 1083   7.669   9.206  10.453  0.2190 -0.5028  0.3168
    9MOL0     C 1084   7.589   9.256  10.555  0.3477 -0.2092  0.2262
    9MOL0     C 1085   7.450   9.211  10.545  0.4284  0.2909  0.0862
    9MOL0     O 1086   7.430   9.120  10.444  0.2755  0.1961  0.1136
    9MOL0     C 1087   7.305   9.071  10.441  0.8487  0.2158 -0.1346
    9MOL0     C 1088   7.247   8.987  10.541 -0.2713 -0.2076  0.5213
    9MOL0     C 1089   7.121   8.936  10.506 -0.0507  0.2001 -0.5287
    9MOL0     C 1090   7.048   8.958  10.390 -0.2718  0.1674 -0.6503
    9MOL0     O 1091   6.934   8.889  10.376  0.3440  0.5625  0.4898
    9MOL0     C 1092   6.842   8.960  10.291  1.3465 -0.7038  0.3492
    9MOL0     C 1093   6.706   8.883  10.277  0.4147  0.4415 -0.1564
    9MOL0     C 1094   6.593   8.983  10.229  0.1047  0.9633  0.0337
    9MOL0     C 1095   6.453   8.917  10.214  0.0701  0.5875 -0.0220
    9MOL0     C 1096   6.379   8.874  10.334 -0.3352 -0.1896 -0.1403
    9MOL0     C 1097   6.255   8.794  10.306  0.7362 -0.1035 -0.4863
    9MOL0     C 1098   6.212   8.727  10.443  0.0896  0.0165  0.6934
    9MOL0     C 1099   6.066   8.678  10.446 -0.3389  0.6874  0.1963
    9MOL0    Cl 1100   5.950   8.813  10.461 -0.2672  0.2444 -0.0348
    9MOL0     C 1101   7.108   9.051  10.297 -0.3472 -0.0585 -1.1858
    9MOL0     C 1102   7.241   9.093  10.321  0.2284 -0.6193 -1.0678
    9MOL0     O 1103   7.367   9.256  10.619 -0.1298 -0.2532 -0.2611
    9MOL0     C 1104   7.654   9.311  10.666  0.5173  0.0945 -0.6563
    9MOL0     C 1105   7.795   9.325  10.677 -0.6494  0.2053  0.5129
    9MOL0     N 1106   8.524   9.356  10.659 -0.3258 -0.0751 -0.4811
    9MOL0     N 1107   8.592   9.272  10.737 -0.7482  0.1213 -0.1789
    9MOL0     C 1108   9.835   8.947  10.556  0.6019 -0.5372 -0.4903
    9MOL0     C 1109   9.972   8.940  10.533  0.1204  0.2927 -0.5926
    9MOL0     C 1110  10.360   8.727  10.451 -0.8372 -0.1439 -0.5433
    9MOL0     C 1111  10.450   8.785  10.544 -0.5561  0.6452 -0.7234
    9MOL0     C 1112  10.590   8.788  10.523  0.8266  0.3200 -0.2786
    9MOL0     C 1113  10.645   8.713  10.413 -0.5317 -1.0744 -0.1899
    9MOL0     O 1114  10.784   8.712  10.401  0.2979 -0.5043  0.9643
    9MOL0     C 1115  10.844   8.657  10.281  0.6105 -0.2878 -0.0367
    9MOL0     C 1116  10.839   8.764  10.165 -0.1487  0.4038 -0.9514
    9MOL0     C 1117  10.882   8.713  10.023 -0.0811  0.1770  0.1744
    9MOL0     C 1118  10.827   8.793   9.895  0.1459 -1.2082 -0.0530
    9MOL0     C 1119  10.861   8.730   9.767 -0.0985  0.4307  0.8647
    9MOL0     C 1120  10.905   8.692   9.656 -0.1458  0.2976 -0.6305
    9MOL0     C 1121  10.547   8.649  10.328 -0.1929 -0.6427 -0.1343
    9MOL0     C 1122  10.417   8.654  10.340 -0.4893  1.3260 -0.1079
    9MOL0     H 1123  10.067   8.703  10.753  2.2433  3.2202  1.0837
    9MOL0     H 1124   9.834   8.726  10.822  1.3434  0.4045  0.4706
    9MOL0     H 1125   9.576   9.001  10.557 -1.5417 -1.0785 -0.3872
    9MOL0     H 1126   9.562   9.082  10.710  2.1129  1.9726 -1.9930
    9MOL0     H 1127   9.388   8.960  10.786 -1.1427  1.3095 -0.3520
    9MOL0     H 1128   9.401   8.822  10.680 -0.9697 -0.4587  1.5712
    9MOL0     H 1129   9.348   8.966  10.482 -0.9114 -1.3051  1.0382
    9MOL0     H 1130   9.344   9.105  10.587 -3.6895  1.2190 -2.7889
    9MOL0     H 1131   9.140   8.878  10.628 -0.9259  0.8271 -0.6255
    9MOL0     H 1132   9.155   9.042  10.702  0.2993 -0.7475  0.8088
    9MOL0     H 1133   9.131   8.978  10.414  2.7191  0.0621  1.2648
    9MOL0     H 1134   9.113   9.126  10.475 -2.5712  0.3392 -0.3741
    9MOL0     H 1135   8.897   8.903  10.512  0.9991  0.3888  1.8069
    9MOL0     H 1136   8.881   9.055  10.443  0.5697 -1.9836 -1.3236
    9MOL0     H 1137   8.919   9.001  10.742  0.7791  1.7183  1.4859
    9MOL0     H 1138   8.896   9.167  10.684  0.9652 -0.8637 -0.0887
    9MOL0     H 1139   8.686   9.028  10.789  2.7585 -4.7004 -0.2274
    9MOL0     H 1140   8.682   8.965  10.625  3.3460  0.2899 -0.8433
    9MOL0     H 1141   8.636   9.142  10.437  1.4911 -1.7416  1.5787
    9MOL0     H 1142   8.518   9.405  10.319 -0.9151  1.3450 -0.5797
    9MOL0     H 1143   8.435   9.488  10.438 -0.9808 -0.5585  0.2676
    9MOL0     H 1144   8.323   9.205  10.367 -5.3487 -1.1192  0.3960
    9MOL0     H 1145   8.272   9.354  10.305 -1.3749 -1.6714 -0.4684
    9MOL0     H 1146   8.268   9.291  10.598 -3.5872  0.0849  0.7455
    9MOL0     H 1147   8.203   9.435  10.520  0.0934  0.5795 -2.1318
    9MOL0     H 1148   8.102   9.149  10.498  2.2381 -0.3611 -1.9416
    9MOL0     H 1149   8.066   9.280  10.376  1.7472  0.1490 -0.6210
    9MOL0     H 1150   7.871   9.197  10.374  0.4436 -2.1105  1.3698
    9MOL0     H 1151   7.632   9.161  10.362 -2.1403 -2.4433  2.0816
    9MOL0     H 1152   7.304   8.969  10.631 -1.2536 -1.9977  0.8241
    9MOL0     H 1153   7.074   8.863  10.572 -0.2601  1.6602  1.0037
    9MOL0     H 1154   6.884   8.970  10.191 -1.8462 -2.0646 -1.2713
    9MOL0     H 1155   6.819   9.057  10.335  0.0633 -1.2181  0.8570
    9MOL0     H 1156   6.672   8.836  10.370  0.6857 -0.4763 -0.5145
    9MOL0     H 1157   6.703   8.804  10.201  1.1412  0.1938  0.0617
    9MOL0     H 1158   6.621   9.025  10.132 -2.2079  1.6150 -0.4000
    9MOL0     H 1159   6.591   9.068  10.298  0.0792 -1.3584  3.1262
    9MOL0     H 1160   6.405   8.986  10.145 -2.8796  0.0595  1.3591
    9MOL0     H 1161   6.467   8.823  10.160  0.5696  0.3509  0.4979
    9MOL0     H 1162   6.364   8.964  10.394 -1.7545  0.8963 -2.0127
    9MOL0     H 1163   6.447   8.809  10.390 -0.3616  0.9156  1.2196
    9MOL0     H 1164   6.276   8.715  10.233  1.5536 -0.8194  0.4953
    9MOL0     H 1165   6.170   8.852  10.269  0.6193  0.0511  0.0160
    9MOL0     H 1166   6.281   8.646  10.469  0.0026 -0.3482 -0.1803
    9MOL0     H 1167   6.221   8.792  10.530  0.4161 -1.7426  2.0420
    9MOL0     H 1168   6.058   8.610  10.531  0.1209 -2.8010 -2.3527
    9MOL0     H 1169   6.037   8.614  10.363  0.6855 -3.0491  2.4853
    9MOL0     H 1170   7.058   9.071  10.202 -0.2720  0.8764 -1.0409
    9MOL0     H 1171   7.280   9.164  10.248 -1.8124 -0.0634 -1.6858
    9MOL0     H 1172   7.593   9.332  10.753  2.4410  0.7068  0.6059
    9MOL0     H 1173   7.840   9.375  10.762  2.0590 -0.0278 -0.6960
    9MOL0     H 1174   9.785   9.029  10.505  1.2172  1.1342  1.4681
    9MOL0     H 1175  10.018   8.998  10.454 -1.4411  2.2152 -0.1790
    9MOL0     H 1176  10.408   8.843  10.625  1.3145 -1.2185  1.7188
    9MOL0     H 1177  10.648   8.854  10.586 -1.1110 -0.8960  2.9991
    9MOL0     H 1178  10.794   8.569  10.238  1.3267 -0.2048 -1.0634
    9MOL0     H 1179  10.949   8.637  10.304  1.7111 -1.0377 -4.6134
    9MOL0     H 1180  10.746   8.822  10.165 -1.8235 -2.1183 -0.4201
    9MOL0     H 1181  10.915   8.837  10.196 -3.0294  3.3861 -0.3500
    9MOL0     H 1182  10.852   8.608  10.013  2.8518 -0.5739 -2.1738
    9MOL0     H 1183  10.990   8.702  10.015  0.0840  2.0832 -0.5653
    9MOL0     H 1184  10.722   8.820   9.909  0.2826 -1.0222  0.6540
    9MOL0     H 1185  10.880   8.888   9.888  0.7548 -1.6643 -2.5818
    9MOL0     H 1186  10.944   8.667   9.559  0.7670  0.1751 -0.2421
    9MOL0     H 1187  10.577   8.594  10.239  1.7806  1.8898 -1.1743
    9MOL0     H 1188  10.346   8.611  10.272  0.2594 -1.6487  0.8489
   10MOL0     O 1189   7.832   2.264   5.884  0.5126  0.6372 -0.1288
   10MOL0     C 1190   7.851   2.143   5.871 -0.0274 -1.0566  0.8456
   10MOL0     O 1191   7.751   2.054   5.878 -0.5152 -0.5787 -0.7082
   10MOL0     C 1192   7.614   2.087   5.865 -0.2005 -0.0297 -0.6561
   10MOL0     C 1193   7.519   2.036   5.945  0.6133 -0.4360  0.9099
   10MOL0     C 1194   7.380   2.076   5.944  0.5105  0.6964  0.9200
   10MOL0     C 1195   7.335   2.163   5.837 -0.7188 -0.0445 -0.9720
   10MOL0     O 1196   7.204   2.211   5.828  0.1768  0.5080 -0.3876
   10MOL0     C 1197   7.096   2.153   5.909 -0.1666 -0.4955 -1.0599
   10MOL0     C 1198   6.971   2.234   5.884  0.2281  0.1942 -0.6300
   10MOL0     C 1199   6.863   2.217   5.999 -0.5050  0.7043  0.1599
   10MOL0     C 1200   6.817   2.074   6.032  0.3888 -0.4993 -0.4261
   10MOL0     C 1201   6.706   2.065   6.145 -0.8806  0.2017 -0.3634
   10MOL0     C 1202   6.564   2.101   6.085 -0.0813  0.5507  0.9532
   10MOL0     C 1203   6.449   2.069   6.173 -0.1832 -0.0859  0.3554
   10MOL0     C 1204   6.312   2.096   6.109 -0.8985 -0.4379  0.1091
   10MOL0     N 1205   6.204   2.021   6.171 -0.3746 -0.2026 -0.5620
   10MOL0     C 1206   6.144   2.063   6.294  0.1199  0.1847  0.9974
   10MOL0     C 1207   6.060   1.964   6.329 -0.1876  0.1797 -0.2749
   10MOL0     C 1208   5.970   1.954   6.458  0.3279 -0.2438 -0.3258
   10MOL0     C 1209   5.967   1.814   6.521  0.2981  0.2691 -0.6623
   10MOL0     C 1210   5.846   1.797   6.623 -0.3927  0.3352  0.8723
   10MOL0     C 1211   5.846   1.654   6.687  0.2943  0.6718 -0.1112
   10MOL0     O 1212   5.764   1.555   6.611 -0.6962  0.5103 -0.1139
   10MOL0     C 1213   5.630   1.545   6.639  0.0773  0.4035 -0.2857
   10MOL0     C 1214   5.541   1.650   6.687 -0.1748 -0.1423  0.5273
   10MOL0     C 1215   5.404   1.630   6.705 -0.0135 -0.7671 -0.9372
   10MOL0     C 1216   5.348   1.496   6.697  0.1346 -0.0362  0.4469
   10MOL0     C 1217   5.205   1.461   6.710 -0.3274 -0.1654 -0.5375
   10MOL0     O 1218   5.138   1.568   6.754  0.7909 -0.1834  0.0185
   10MOL0     C 1219   4.999   1.555   6.741 -0.0943  0.0933  0.3270
   10MOL0     C 1220   4.928   1.522   6.626  0.2846 -0.3202  1.1019
   10MOL0     C 1221   4.786   1.522   6.617 -0.7959  0.4270  0.5005
   10MOL0     C 1222   4.708   1.558   6.723 -1.0444  0.0246 -0.6200
   10MOL0     O 1223   4.569   1.573   6.712  0.3667 -0.7322 -0.1062
   10MOL0     C 1224   4.500   1.524   6.592  0.1843 -0.7012 -0.0184
   10MOL0     C 1225   4.352   1.543   6.619  0.1154  0.2390  0.1496
   10MOL0     C 1226   4.267   1.501   6.503 -0.4983 -0.0580  0.0977
   10MOL0     C 1227   4.113   1.503   6.529  0.4513  0.8721  0.0722
   10MOL0     C 1228   4.053   1.645   6.553 -0.0851 -0.0278 -0.3550
   10MOL0     C 1229   3.902   1.630   6.565  0.3830 -0.6314 -0.0063
   10MOL0     C 1230   3.856   1.772   6.573  0.8670 -1.3667  0.2530
   10MOL0     C 1231   3.712   1.779   6.528 -0.4023  0.7162  0.4368
   10MOL0    Cl 1232   3.607   1.674   6.637  0.1537  0.3969 -0.7514
   10MOL0     C 1233   4.774   1.585   6.852 -0.1958 -0.3789  0.1114
   10MOL0     C 1234   4.914   1.577   6.859  0.3934 -0.3900 -0.7775
   10MOL0     O 1235   5.155   1.344   6.702  0.0466  0.2110  0.0760
   10MOL0     C 1236   5.430   1.397   6.658  0.3380 -0.2432  0.5616
   10MOL0     C 1237   5.564   1.422   6.621  0.8300 -0.4545 -0.2245
   10MOL0     N 1238   6.064   1.867   6.236 -0.2265  0.4675 -0.1095
   10MOL0     N 1239   6.147   1.900   6.139 -0.2635 -1.2736  0.0507
   10MOL0     C 1240   7.438   2.210   5.748  0.4081  0.8808 -0.3465
   10MOL0     C 1241   7.577   2.173   5.760  1.0494 -0.2633  0.7600
   10MOL0     C 1242   7.986   2.087   5.886  0.1381  0.1409  0.1828
   10MOL0     C 1243   8.020   1.959   5.840 -0.9533  0.3348  0.4175
   10MOL0     C 1244   8.153   1.914   5.845 -1.7161 -0.6139  0.5431
   10MOL0     C 1245   8.255   1.984   5.907  0.4609  0.8699 -0.6903
   10MOL0     O 1246   8.382   1.930   5.908  0.1176  0.0527 -0.2472
   10MOL0     C 1247   8.495   2.014   5.930 -0.4522 -0.1399 -0.4864
   10MOL0     C 1248   8.623   1.927   5.932 -0.4046  0.6133  0.2349
   10MOL0     C 1249   8.744   2.007   5.976  0.9025 -0.4536  0.0069
   10MOL0     C 1250   8.825   2.057   5.861  0.2480  0.6157  0.4298
   10MOL0     C 1251   8.931   2.155   5.907  0.0014  0.0147  0.6823
   10MOL0     C 1252   9.034   2.210   5.943  0.3789 -0.2757  1.0798
   10MOL0     C 1253   8.215   2.109   5.958 -0.0962  0.1536 -0.1137
   10MOL0     C 1254   8.090   2.158   5.953 -0.3146  0.1096  0.7620
   10MOL0     H 1255   7.569   1.977   6.022  2.7466  1.0618  0.7587
   10MOL0     H 1256   7.323   2.041   6.029  1.3446  1.8124  1.9899
   10MOL0     H 1257   7.118   2.160   6.015 -0.5321  0.9178 -1.0481
   10MOL0     H 1258   7.067   2.048   5.896  0.4239 -0.7962  0.0090
   10MOL0     H 1259   6.926   2.207   5.788 -4.0189 -0.0355  1.2285
   10MOL0     H 1260   7.002   2.339   5.878  0.9882 -0.1007 -4.0943
   10MOL0     H 1261   6.774   2.276   5.975 -1.3699 -0.0129  1.4272
   10MOL0     H 1262   6.910   2.242   6.094  1.7139 -2.7632  0.1717
   10MOL0     H 1263   6.782   2.027   5.940 -1.1079 -0.5776  0.1673
   10MOL0     H 1264   6.900   2.012   6.069  0.8466  0.3037 -0.0879
   10MOL0     H 1265   6.739   2.128   6.228 -1.0799 -0.0719 -0.0733
   10MOL0     H 1266   6.703   1.960   6.172 -0.5958  0.4860  0.8075
   10MOL0     H 1267   6.560   2.064   5.982 -0.4791  0.5047  0.9837
   10MOL0     H 1268   6.556   2.208   6.068 -2.7387  0.2427 -0.3189
   10MOL0     H 1269   6.445   1.962   6.190 -2.1231 -0.0805  0.2047
   10MOL0     H 1270   6.462   2.125   6.266  2.9637  2.2100 -1.2753
   10MOL0     H 1271   6.313   2.065   6.004 -1.6056 -0.1190  0.0084
   10MOL0     H 1272   6.283   2.201   6.116 -0.8552 -0.5064  1.6233
   10MOL0     H 1273   6.160   2.160   6.339 -0.8501  1.8054 -1.8831
   10MOL0     H 1274   5.871   1.982   6.422 -0.5089 -0.4891  1.6409
   10MOL0     H 1275   5.992   2.032   6.532  0.4459 -0.3197 -0.2802
   10MOL0     H 1276   6.065   1.783   6.559  1.2601 -1.3132 -4.0448
   10MOL0     H 1277   5.952   1.749   6.434  1.5684  0.8590 -1.3465
   10MOL0     H 1278   5.861   1.879   6.694  0.8681  0.1943  0.8030
   10MOL0     H 1279   5.755   1.811   6.564  0.8926 -2.1319 -2.0207
   10MOL0     H 1280   5.808   1.657   6.789  1.7747 -1.0279  0.5639
   10MOL0     H 1281   5.951   1.625   6.705  0.6313  0.7210 -1.7983
   10MOL0     H 1282   5.564   1.755   6.703  1.2170 -0.4781  0.8428
   10MOL0     H 1283   5.348   1.716   6.739 -0.5682 -1.0858 -1.0330
   10MOL0     H 1284   4.973   1.511   6.527 -2.0609 -2.0269  0.1240
   10MOL0     H 1285   4.745   1.500   6.519 -1.3187  0.5613  0.6853
   10MOL0     H 1286   4.531   1.422   6.567  2.3543 -0.4486  1.3876
   10MOL0     H 1287   4.535   1.594   6.515  2.8082 -1.8134  0.0478
   10MOL0     H 1288   4.326   1.647   6.644  0.0321  0.4195 -0.6727
   10MOL0     H 1289   4.321   1.486   6.707  2.2128  0.9251  1.4301
   10MOL0     H 1290   4.296   1.397   6.490 -0.6687 -0.1081  0.1238
   10MOL0     H 1291   4.300   1.554   6.413  0.5240  0.7497  0.9148
   10MOL0     H 1292   4.078   1.456   6.437  0.8927  0.0996  0.2905
   10MOL0     H 1293   4.078   1.440   6.612  0.2098  0.9950  0.0645
   10MOL0     H 1294   4.076   1.716   6.473 -2.5946  1.0535 -0.1921
   10MOL0     H 1295   4.083   1.687   6.649  1.3152  1.5343 -1.4294
   10MOL0     H 1296   3.874   1.568   6.651  0.0021 -2.6772 -1.5210
   10MOL0     H 1297   3.866   1.585   6.472 -1.1410  2.6787 -1.1858
   10MOL0     H 1298   3.858   1.803   6.678 -1.6966  0.3485 -0.1086
   10MOL0     H 1299   3.913   1.852   6.526 -0.5929  0.9186  2.1638
   10MOL0     H 1300   3.699   1.743   6.426  1.5347 -0.4193  0.5325
   10MOL0     H 1301   3.684   1.884   6.542 -0.7847  0.4417  1.9655
   10MOL0     H 1302   4.711   1.612   6.936 -3.3906 -0.2061 -2.1348
   10MOL0     H 1303   4.959   1.583   6.957  0.3825  0.3638 -0.8076
   10MOL0     H 1304   5.386   1.298   6.652 -0.1732  0.0532 -1.2513
   10MOL0     H 1305   5.611   1.335   6.574 -1.3194 -2.2817  0.8052
   10MOL0     H 1306   7.411   2.281   5.669 -1.6166  2.4067  1.5894
   10MOL0     H 1307   7.658   2.210   5.699  0.3930  0.9261  0.5795
   10MOL0     H 1308   7.944   1.904   5.786 -0.5055  0.0652  0.0448
   10MOL0     H 1309   8.180   1.817   5.806  0.3821 -0.0391  0.4730
   10MOL0     H 1310   8.482   2.063   6.027  0.3884  0.9742 -0.9262
   10MOL0     H 1311   8.499   2.094   5.856  0.3335 -0.8939 -1.2887
   10MOL0     H 1312   8.615   1.848   6.006  4.5114  1.9588  2.6035
   10MOL0     H 1313   8.626   1.886   5.831 -0.2661  1.2554 -0.0308
   10MOL0     H 1314   8.815   1.938   6.022 -0.4115 -2.0125 -0.1946
   10MOL0     H 1315   8.711   2.083   6.047 -0.8836 -0.7069 -0.4955
   10MOL0     H 1316   8.866   1.977   5.799 -1.9997 -0.9058  0.7912
   10MOL0     H 1317   8.765   2.110   5.786  0.6617 -0.7783 -0.9523
   10MOL0     H 1318   9.134   2.239   5.969  0.6601 -1.3064  1.2015
   10MOL0     H 1319   8.293   2.168   6.003  2.3053 -0.9985 -2.4627
   10MOL0     H 1320   8.071   2.262   5.980 -0.7943  1.0352 -2.5945
   11MOL0     O 1321   3.311   0.249   1.658  0.2093 -0.4342  0.1069
   11MOL0     C 1322   3.315   0.217   1.777 -0.1667 -0.8839 -0.0095
   11MOL0     O 1323   3.209   0.219   1.863 -0.0949  0.2329  0.6431
   11MOL0     C 1324   3.077   0.232   1.816 -0.4486  0.3311 -0.4480
   11MOL0     C 1325   2.976   0.247   1.919 -0.4399 -1.0651 -0.6392
   11MOL0     C 1326   2.839   0.276   1.885 -0.9741 -0.4765  0.6217
   11MOL0     C 1327   2.798   0.282   1.756  0.2897 -0.0306  0.0921
   11MOL0     O 1328   2.666   0.297   1.723  0.2009  0.2395  0.8677
   11MOL0     C 1329   2.614   0.424   1.733  0.3068 -0.5579 -0.5180
   11MOL0     C 1330   2.466   0.411   1.751  0.0125  1.1670 -0.1707
   11MOL0     C 1331   2.388   0.379   1.615 -0.4240 -0.5906 -0.0780
   11MOL0     C 1332   2.239   0.418   1.616  0.3058  0.3306 -0.4886
   11MOL0     C 1333   2.184   0.368   1.473 -0.7001  0.6468 -0.3749
   11MOL0     C 1334   2.034   0.378   1.471  0.2900  0.8028  0.1975
   11MOL0     C 1335   1.970   0.338   1.341 -0.1861  0.1409 -0.3736
   11MOL0     C 1336   1.845   0.243   1.360 -0.9414 -0.8322  0.0608
   11MOL0     N 1337   1.752   0.281   1.461  0.4061  0.4230 -0.2675
   11MOL0     C 1338   1.723   0.405   1.502  0.7396 -0.9754  0.3796
   11MOL0     C 1339   1.626   0.385   1.593  1.2482  0.5845  0.9350
   11MOL0     C 1340   1.560   0.500   1.658 -0.1867  0.7097  0.1159
   11MOL0     C 1341   1.414   0.507   1.607 -0.4932  0.5889  0.8262
   11MOL0     C 1342   1.344   0.627   1.666  0.6520 -0.5817  0.2507
   11MOL0     C 1343   1.203   0.636   1.610 -0.0586  0.1972  0.3234
   11MOL0     O 1344   1.218   0.697   1.477 -0.2442  0.4314  0.0609
   11MOL0     C 1345   1.091   0.708   1.420  0.0429 -0.5993  0.0504
   11MOL0     C 1346   0.966   0.705   1.482  0.6454  0.2348  0.1022
   11MOL0     C 1347   0.844   0.730   1.423  0.2647  0.1568  0.9612
   11MOL0     C 1348   0.840   0.749   1.283 -0.6259  0.7226  0.3552
   11MOL0     C 1349   0.714   0.762   1.204 -1.1021  0.3899  0.2453
   11MOL0     O 1350   0.725   0.764   1.066  0.4088  0.2332 -0.0052
   11MOL0     C 1351   0.620   0.773   0.988  0.1745  1.0451 -0.1225
   11MOL0     C 1352   0.520   0.674   1.003 -0.0781  0.0752  0.0801
   11MOL0     C 1353   0.412   0.673   0.909 -0.6470  0.1589  0.1461
   11MOL0     C 1354   0.394   0.766   0.810  1.5467  0.1596 -0.5266
   11MOL0     O 1355   0.279   0.778   0.734  1.1103 -1.1325  0.1050
   11MOL0     C 1356   0.180   0.671   0.740  0.6975  0.7140  0.8437
   11MOL0     C 1357   0.223   0.555   0.646 -0.7654  0.8784  0.7256
   11MOL0     C 1358   0.119   0.451   0.605 -0.0893  0.0015  0.0747
   11MOL0     C 1359   0.043   0.399   0.730 -0.1294  0.1755  0.4638
   11MOL0     C 1360  -0.056   0.297   0.678 -0.6413  1.0048 -0.8372
   11MOL0     C 1361  -0.130   0.235   0.798  0.3107 -0.0579  0.0585
   11MOL0     C 1362  -0.214   0.124   0.753 -0.3099  0.6126  0.1635
   11MOL0     C 1363  -0.313   0.147   0.627 -0.8340  0.1242 -0.4521
   11MOL0    Cl 1364  -0.410   0.285   0.646  0.1871  0.0034  0.2283
   11MOL0     C 1365   0.484   0.877   0.815  0.4169  0.2688 -0.7538
   11MOL0     C 1366   0.605   0.881   0.895  1.1789  0.4298  0.2867
   11MOL0     O 1367   0.608   0.765   1.265  0.6229  0.0162 -0.9729
   11MOL0     C 1368   0.969   0.750   1.217 -0.5105  0.6782 -0.1975
   11MOL0     C 1369   1.095   0.739   1.285 -0.3064 -0.0862 -0.2096
   11MOL0     N 1370   1.581   0.256   1.583  0.4037 -0.1195 -0.0188
   11MOL0     N 1371   1.652   0.193   1.503  0.0279 -0.1558  1.4403
   11MOL0     C 1372   2.894   0.258   1.654  0.1075 -0.1993 -0.6695
   11MOL0     C 1373   3.027   0.235   1.684  0.0252 -0.1364  0.0733
   11MOL0     C 1374   3.450   0.207   1.828 -0.6506 -0.5238  0.2807
   11MOL0     C 1375   3.561   0.227   1.741 -0.4433 -0.5791  0.2103
   11MOL0     C 1376   3.690   0.211   1.785  0.2709  0.0704  0.3661
   11MOL0     C 1377   3.728   0.186   1.914 -0.1718 -0.3256  1.4091
   11MOL0     O 1378   3.856   0.186   1.965  0.1119 -0.1017  0.2627
   11MOL0     C 1379   3.965   0.155   1.871  0.1313 -0.2476  0.9671
   11MOL0     C 1380   4.102   0.134   1.929  0.2839  0.6931 -0.1399
   11MOL0     C 1381   4.142   0.263   1.984  0.0528  0.0769 -0.2522
   11MOL0     C 1382   4.176   0.374   1.889  0.5727 -0.8693  0.1724
   11MOL0     C 1383   4.297   0.453   1.929 -0.9162 -0.5449 -1.1503
   11MOL0     C 1384   4.403   0.483   1.977 -0.4004  0.5477  0.2156
   11MOL0     C 1385   3.612   0.172   2.007 -0.0150 -1.6407 -0.7883
   11MOL0     C 1386   3.475   0.180   1.965 -0.2132  0.2052  0.3301
   11MOL0     H 1387   3.014   0.243   2.021  0.5911  0.7054 -0.9069
   11MOL0     H 1388   2.770   0.274   1.969 -2.5734 -0.9752 -0.6809
   11MOL0     H 1389   2.642   0.486   1.647 -1.0646 -0.2795 -0.7844
   11MOL0     H 1390   2.659   0.465   1.824  1.8645 -0.9984 -1.0484
   11MOL0     H 1391   2.432   0.505   1.794 -0.8463  1.2093 -0.9279
   11MOL0     H 1392   2.446   0.326   1.817 -2.1662 -0.1552 -2.3682
   11MOL0     H 1393   2.410   0.276   1.582  0.7929  0.0493 -1.3854
   11MOL0     H 1394   2.437   0.447   1.544 -0.0171  0.0295  0.7808
   11MOL0     H 1395   2.191   0.364   1.699  1.8985  0.0438  0.2943
   11MOL0     H 1396   2.216   0.524   1.631 -4.4871 -0.5356 -0.0987
   11MOL0     H 1397   2.215   0.265   1.454 -2.4169  0.6326 -3.7960
   11MOL0     H 1398   2.229   0.419   1.388  0.3883  2.6330  1.2889
   11MOL0     H 1399   1.989   0.476   1.491 -5.6176 -1.2847 -1.0679
   11MOL0     H 1400   2.002   0.306   1.546  0.4505 -0.7671 -1.1777
   11MOL0     H 1401   1.935   0.427   1.289 -0.9625 -0.8852 -1.6588
   11MOL0     H 1402   2.043   0.276   1.288 -0.6269 -0.2152 -0.5662
   11MOL0     H 1403   1.900   0.148   1.366  1.8609  0.2439 -4.1293
   11MOL0     H 1404   1.804   0.236   1.259 -0.0525 -2.1623 -0.2435
   11MOL0     H 1405   1.769   0.502   1.490 -0.1006 -0.5608  0.4411
   11MOL0     H 1406   1.616   0.591   1.635 -2.6453  1.5824 -3.1047
   11MOL0     H 1407   1.561   0.489   1.767  3.7598  0.5285  0.2021
   11MOL0     H 1408   1.360   0.416   1.633 -0.2153  0.4249  0.8293
   11MOL0     H 1409   1.409   0.517   1.498 -3.9923 -1.7513  0.6429
   11MOL0     H 1410   1.348   0.608   1.774  3.8317  1.8567  0.7036
   11MOL0     H 1411   1.397   0.722   1.652 -1.3449  0.4688 -0.5955
   11MOL0     H 1412   1.141   0.699   1.674 -0.7929  1.0069 -1.1486
   11MOL0     H 1413   1.160   0.536   1.598  2.3278 -0.7185 -1.2568
   11MOL0     H 1414   0.940   0.680   1.585  0.1910 -0.7265 -0.2386
   11MOL0     H 1415   0.752   0.726   1.481 -0.9377 -6.3345 -0.5185
   11MOL0     H 1416   0.540   0.608   1.087 -0.7814 -0.4943 -0.1858
   11MOL0     H 1417   0.341   0.593   0.925  2.1106 -2.3733  0.6007
   11MOL0     H 1418   0.086   0.714   0.704  0.5497  0.1942  0.6096
   11MOL0     H 1419   0.159   0.632   0.839 -1.4259 -1.7586 -0.4733
   11MOL0     H 1420   0.308   0.503   0.691  1.5681  2.5537 -1.5219
   11MOL0     H 1421   0.253   0.591   0.547  1.3852 -0.7573  0.6937
   11MOL0     H 1422   0.177   0.371   0.558  2.0048  1.9093 -0.8196
   11MOL0     H 1423   0.041   0.490   0.539 -0.6278  1.4278  1.4872
   11MOL0     H 1424   0.106   0.360   0.811 -0.8949 -0.7665  0.6297
   11MOL0     H 1425  -0.019   0.483   0.763  1.1810  3.3565 -4.2705
   11MOL0     H 1426   0.009   0.229   0.622  2.1578  1.6904  1.3302
   11MOL0     H 1427  -0.124   0.350   0.610 -1.1209  0.5465 -0.7187
   11MOL0     H 1428  -0.188   0.316   0.844 -1.0350 -0.3413 -1.0747
   11MOL0     H 1429  -0.064   0.195   0.875  1.2313 -1.1445 -1.2674
   11MOL0     H 1430  -0.152   0.037   0.728  0.2939  0.8770  0.7156
   11MOL0     H 1431  -0.281   0.111   0.838  0.9981  3.7941  1.8216
   11MOL0     H 1432  -0.373   0.058   0.603  1.0856 -0.9568 -1.5003
   11MOL0     H 1433  -0.249   0.163   0.540 -0.5304 -1.9753 -0.6807
   11MOL0     H 1434   0.466   0.963   0.751  0.5832  0.1713 -0.9313
   11MOL0     H 1435   0.681   0.956   0.874  0.6155  0.5388 -1.5639
   11MOL0     H 1436   0.972   0.754   1.108 -2.7456  1.5660 -0.2818
   11MOL0     H 1437   1.186   0.747   1.226  0.3436 -4.1198 -0.0937
   11MOL0     H 1438   2.878   0.242   1.548  0.1805  0.4784 -0.7846
   11MOL0     H 1439   3.093   0.221   1.599  1.8674  0.7845  1.2726
   11MOL0     H 1440   3.545   0.255   1.637 -1.9423  1.9605  1.0301
   11MOL0     H 1441   3.770   0.214   1.711 -0.4466  2.6351 -0.4123
   11MOL0     H 1442   3.980   0.236   1.799  0.2167 -0.6831  0.4908
   11MOL0     H 1443   3.938   0.061   1.822 -1.0067  0.0269  1.0231
   11MOL0     H 1444   4.099   0.058   2.008 -2.5416  2.0620  1.2454
   11MOL0     H 1445   4.177   0.104   1.856  0.8537 -1.8780  1.3792
   11MOL0     H 1446   4.229   0.241   2.047 -0.1539 -0.0426 -0.0040
   11MOL0     H 1447   4.067   0.300   2.054 -0.8829 -2.6654  0.3115
   11MOL0     H 1448   4.199   0.325   1.793 -1.9938  1.7452 -1.9616
   11MOL0     H 1449   4.093   0.443   1.870 -1.6682 -3.1188  1.2019
   11MOL0     H 1450   4.501   0.498   2.017  0.6179  0.1951 -1.9557
   11MOL0     H 1451   3.622   0.150   2.113 -2.2439  0.8397  0.0270
   11MOL0     H 1452   3.393   0.158   2.032 -2.6252 -0.0201 -2.5175
   12MOL0     O 1453   4.057   4.427   7.783  1.1094 -0.2674  0.0178
   12MOL0     C 1454   4.132   4.502   7.721 -0.1058  0.1764 -0.5875
   12MOL0     O 1455   4.099   4.629   7.681 -0.1104 -0.1027 -0.5215
   12MOL0     C 1456   3.983   4.677   7.724  1.3584 -0.0663 -0.0246
   12MOL0     C 1457   3.965   4.743   7.849 -0.0306 -0.3017  0.3074
   12MOL0     C 1458   3.837   4.789   7.900 -0.7341  0.6055  0.2199
   12MOL0     C 1459   3.715   4.762   7.826 -0.2420 -0.1052 -0.3855
   12MOL0     O 1460   3.602   4.824   7.871 -0.0645  0.8306 -0.5796
   12MOL0     C 1461   3.501   4.729   7.897 -0.5066  0.5676  0.5295
   12MOL0     C 1462   3.420   4.794   8.007 -0.2167 -0.2400  1.0205
   12MOL0     C 1463   3.333   4.911   7.962 -0.3313 -0.6053 -0.3025
   12MOL0     C 1464   3.399   5.053   7.961 -0.1885  0.2306 -0.1928
   12MOL0     C 1465   3.287   5.161   7.956  0.9240 -0.0474 -0.0104
   12MOL0     C 1466   3.342   5.290   7.916  0.6636 -0.8522 -0.5942
   12MOL0     C 1467   3.243   5.385   7.871  1.3517 -1.0083  0.9376
   12MOL0     C 1468   3.291   5.526   7.839 -0.2834 -0.6627  0.0713
   12MOL0     N 1469   3.368   5.547   7.704 -0.0355  0.1369 -0.2762
   12MOL0     C 1470   3.506   5.534   7.702  0.2128 -0.2331 -0.2978
   12MOL0     C 1471   3.532   5.576   7.581  0.0370 -0.7022 -0.2238
   12MOL0     C 1472   3.673   5.596   7.533 -0.6809 -0.4834 -0.2314
   12MOL0     C 1473   3.757   5.469   7.551 -0.1756 -0.2415  0.3296
   12MOL0     C 1474   3.887   5.481   7.470 -0.1911  1.5090 -0.7281
   12MOL0     C 1475   3.981   5.581   7.541 -0.1143  0.8163  0.2600
   12MOL0     O 1476   4.097   5.601   7.464 -0.3788 -0.3573  1.3084
   12MOL0     C 1477   4.207   5.607   7.533  0.6131 -0.8564  0.5983
   12MOL0     C 1478   4.223   5.694   7.642  0.1780  0.6731  0.8603
   12MOL0     C 1479   4.343   5.715   7.712 -0.0874  0.2273 -0.0124
   12MOL0     C 1480   4.463   5.664   7.662 -0.3835  0.5617  0.2414
   12MOL0     C 1481   4.595   5.672   7.727 -0.2554 -0.0562 -0.1957
   12MOL0     O 1482   4.694   5.600   7.681  0.2782 -0.1149 -0.4924
   12MOL0     C 1483   4.796   5.572   7.760  0.0323  0.1063  0.1108
   12MOL0     C 1484   4.891   5.666   7.785 -0.2070  0.2462 -0.1450
   12MOL0     C 1485   4.999   5.646   7.866  0.7282 -0.4087  0.4090
   12MOL0     C 1486   5.009   5.521   7.926  1.4117  0.6439  0.4635
   12MOL0     O 1487   5.125   5.502   8.002  0.0325 -0.5554  0.6359
   12MOL0     C 1488   5.106   5.495   8.138  0.4327 -0.0002 -0.2781
   12MOL0     C 1489   5.231   5.542   8.216 -0.9418 -0.3897  0.6220
   12MOL0     C 1490   5.343   5.447   8.191  0.3246  0.4206 -0.4798
   12MOL0     C 1491   5.479   5.479   8.262 -0.3304  0.2916  0.1601
   12MOL0     C 1492   5.567   5.362   8.282  0.1700 -0.3441 -0.0283
   12MOL0     C 1493   5.618   5.299   8.143  0.7786 -0.7914  0.2072
   12MOL0     C 1494   5.698   5.381   8.050 -0.6958 -0.4947  0.1603
   12MOL0     C 1495   5.718   5.312   7.918 -0.2511 -0.4840  0.3956
   12MOL0    Cl 1496   5.834   5.180   7.950 -0.0048  0.0628  0.0310
   12MOL0     C 1497   4.922   5.412   7.895 -0.6711 -0.1043  0.9752
   12MOL0     C 1498   4.816   5.436   7.802 -0.0429 -0.0812  0.3533
   12MOL0     O 1499   4.598   5.733   7.833  1.3760 -0.3738  0.0732
   12MOL0     C 1500   4.450   5.584   7.545 -0.6195  0.9317  0.4358
   12MOL0     C 1501   4.325   5.556   7.484 -0.5372  0.9094 -0.5031
   12MOL0     N 1502   3.411   5.625   7.511  0.1577 -0.1831 -0.4013
   12MOL0     N 1503   3.316   5.611   7.598 -0.1307  0.0727  0.5825
   12MOL0     C 1504   3.729   4.699   7.700 -0.6504 -0.1777  0.6937
   12MOL0     C 1505   3.860   4.658   7.658  0.2955 -0.2172  0.0865
   12MOL0     C 1506   4.265   4.432   7.694  0.7465 -0.9607 -0.5175
   12MOL0     C 1507   4.364   4.499   7.617 -0.2453  0.0185 -0.1755
   12MOL0     C 1508   4.497   4.447   7.605 -0.2226 -0.1015  0.4686
   12MOL0     C 1509   4.537   4.325   7.663  0.0877 -0.5147  0.8123
   12MOL0     O 1510   4.659   4.261   7.656 -0.1064 -0.1215  0.7799
   12MOL0     C 1511   4.776   4.334   7.595  0.1717 -0.4551  0.0845
   12MOL0     C 1512   4.778   4.306   7.439  0.2969 -0.2551 -0.4437
   12MOL0     C 1513   4.865   4.415   7.371 -0.1250 -0.0415  0.4496
   12MOL0     C 1514   4.982   4.346   7.306 -0.4750  0.1677  0.5304
   12MOL0     C 1515   4.929   4.254   7.204  0.5960  0.2037  0.5767
   12MOL0     C 1516   4.887   4.171   7.120 -0.5418 -0.7246 -0.4691
   12MOL0     C 1517   4.431   4.258   7.725  0.2894  0.1576 -0.0884
   12MOL0     C 1518   4.303   4.303   7.735  0.0132  0.8036 -0.0981
   12MOL0     H 1519   4.059   4.752   7.903 -0.1852  0.9525  0.3827
   12MOL0     H 1520   3.841   4.828   8.001 -0.0317 -1.4993  1.0596
   12MOL0     H 1521   3.545   4.633   7.925  0.2434  0.1133 -1.9559
   12MOL0     H 1522   3.438   4.721   7.808  0.4268 -1.7091  0.0208
   12MOL0     H 1523   3.483   4.825   8.091  0.9154 -1.7327  0.7669
   12MOL0     H 1524   3.353   4.718   8.050 -0.5776 -1.2711 -1.1985
   12MOL0     H 1525   3.247   4.902   8.030 -0.7900  2.1804 -0.3859
   12MOL0     H 1526   3.293   4.896   7.862 -0.4023  1.7838 -0.6957
   12MOL0     H 1527   3.445   5.075   8.058 -2.4173  2.9998  0.3629
   12MOL0     H 1528   3.475   5.071   7.884 -0.1352  2.9111  0.3763
   12MOL0     H 1529   3.234   5.172   8.052  0.1039 -0.1548 -0.4385
   12MOL0     H 1530   3.207   5.136   7.886  2.1585 -1.1852 -1.0670
   12MOL0     H 1531   3.410   5.267   7.833  1.9570 -0.6453  0.3729
   12MOL0     H 1532   3.402   5.335   7.995 -0.3560 -2.2999  1.0936
   12MOL0     H 1533   3.188   5.355   7.781  0.2745 -0.3753  1.3603
   12MOL0     H 1534   3.178   5.401   7.957 -1.3763 -0.1651 -1.1135
   12MOL0     H 1535   3.352   5.563   7.922 -1.3488 -1.0362  1.0499
   12MOL0     H 1536   3.201   5.588   7.835  0.3192  0.1548 -1.7832
   12MOL0     H 1537   3.584   5.507   7.772  1.8544  1.4170 -1.3871
   12MOL0     H 1538   3.722   5.673   7.592  3.2761 -4.0450  1.5897
   12MOL0     H 1539   3.666   5.628   7.428 -1.1582 -0.1080 -0.0880
   12MOL0     H 1540   3.707   5.377   7.517 -1.3389 -0.2701  2.0092
   12MOL0     H 1541   3.785   5.458   7.656 -0.7637 -2.1072  0.3357
   12MOL0     H 1542   3.940   5.385   7.467 -0.1215  1.5048  0.3268
   12MOL0     H 1543   3.864   5.502   7.365  0.5914  1.8361 -0.8420
   12MOL0     H 1544   4.000   5.541   7.641 -0.6924 -1.9339 -0.6455
   12MOL0     H 1545   3.936   5.679   7.529  2.7252  2.1198 -0.6413
   12MOL0     H 1546   4.137   5.746   7.682 -0.8524 -1.3224  1.3824
   12MOL0     H 1547   4.333   5.776   7.802  0.8246  0.2593  0.0840
   12MOL0     H 1548   4.874   5.767   7.749  1.0646  0.4274 -0.2919
   12MOL0     H 1549   5.081   5.717   7.876  2.4081 -2.4940  3.0507
   12MOL0     H 1550   5.084   5.390   8.158  1.9031  0.0476  1.9278
   12MOL0     H 1551   5.022   5.552   8.180 -0.3737 -1.6786  0.5098
   12MOL0     H 1552   5.212   5.553   8.323 -0.6880  2.2426  0.4697
   12MOL0     H 1553   5.256   5.635   8.162  0.3334 -0.2881  1.3562
   12MOL0     H 1554   5.370   5.433   8.086  3.1715  0.8939  0.1041
   12MOL0     H 1555   5.314   5.350   8.231  3.5815  0.2487  1.8096
   12MOL0     H 1556   5.533   5.546   8.195 -2.1400  0.2677 -1.4137
   12MOL0     H 1557   5.467   5.518   8.364 -0.5534 -0.6339  0.5008
   12MOL0     H 1558   5.500   5.293   8.333 -1.7887  0.6088 -1.1535
   12MOL0     H 1559   5.653   5.392   8.343 -0.4990  0.6441  0.4594
   12MOL0     H 1560   5.528   5.259   8.094  1.1435 -0.1661 -1.0167
   12MOL0     H 1561   5.677   5.210   8.167 -0.0680 -1.6220 -0.6829
   12MOL0     H 1562   5.637   5.466   8.017  0.6617  0.2006 -0.6444
   12MOL0     H 1563   5.796   5.400   8.094 -1.0827  1.6410  0.1832
   12MOL0     H 1564   5.753   5.378   7.839  2.7251 -2.3888 -0.0150
   12MOL0     H 1565   5.622   5.276   7.881 -1.9815  3.0686  1.0166
   12MOL0     H 1566   4.938   5.319   7.948 -0.9190 -1.1920 -0.7550
   12MOL0     H 1567   4.752   5.360   7.758  0.4277  0.6243 -1.6820
   12MOL0     H 1568   4.538   5.542   7.498 -0.7313  0.2266  0.8386
   12MOL0     H 1569   4.323   5.498   7.393  1.3337 -2.5839  1.4357
   12MOL0     H 1570   3.655   4.698   7.620  2.1382 -0.9122 -2.0829
   12MOL0     H 1571   3.870   4.618   7.558 -1.5170  1.3114 -0.7721
   12MOL0     H 1572   4.328   4.585   7.562 -0.0719  0.0205 -0.2854
   12MOL0     H 1573   4.576   4.503   7.556  1.5455 -2.3684  0.5356
   12MOL0     H 1574   4.868   4.301   7.644  0.3562  0.8561  0.6519
   12MOL0     H 1575   4.767   4.438   7.626  0.0037 -0.5176  0.2516
   12MOL0     H 1576   4.793   4.199   7.423  0.2914 -0.3775  0.2969
   12MOL0     H 1577   4.677   4.323   7.402  0.5609  1.1315 -0.5937
   12MOL0     H 1578   4.897   4.497   7.436  3.2061 -1.2115  0.4656
   12MOL0     H 1579   4.816   4.463   7.286  1.9564 -0.6381 -1.1694
   12MOL0     H 1580   5.051   4.418   7.261  1.6222 -2.6850 -1.1762
   12MOL0     H 1581   5.039   4.299   7.387  0.5544  1.8122  0.7998
   12MOL0     H 1582   4.858   4.114   7.035 -0.3970 -1.3073 -0.1298
   12MOL0     H 1583   4.454   4.161   7.769 -2.9840 -2.1726 -2.9661
   12MOL0     H 1584   4.235   4.242   7.793  0.9403 -1.9175 -1.6999
   13MOL0     O 1585   6.072   0.292   8.188 -0.5088 -0.2129 -0.3289
   13MOL0     C 1586   6.086   0.172   8.216  0.0857 -0.5502 -0.2491
   13MOL0     O 1587   5.985   0.096   8.259  0.3445  0.1654  0.4016
   13MOL0     C 1588   5.862   0.159   8.270  0.2484  0.2008 -0.3156
   13MOL0     C 1589   5.832   0.245   8.373  0.1364  0.4417 -0.0303
   13MOL0     C 1590   5.701   0.301   8.383  0.1289 -0.8622 -0.3171
   13MOL0     C 1591   5.600   0.256   8.300  0.0909 -1.0128 -0.7357
   13MOL0     O 1592   5.479   0.305   8.307 -0.2276 -0.6529  0.2026
   13MOL0     C 1593   5.387   0.249   8.411  0.4845  0.1143  0.0005
   13MOL0     C 1594   5.238   0.273   8.378 -0.1673 -0.0963  0.1209
   13MOL0     C 1595   5.199   0.220   8.236  0.3098 -0.1218  1.7486
   13MOL0     C 1596   5.206   0.328   8.121  0.5799 -0.2386  0.0061
   13MOL0     C 1597   5.134   0.288   7.997  1.2885 -0.2955  1.2255
   13MOL0     C 1598   5.120   0.403   7.898 -0.7248  0.3678 -1.0894
   13MOL0     C 1599   5.052   0.355   7.772 -0.2718 -0.3911  0.1317
   13MOL0     C 1600   4.896   0.322   7.802 -0.2630  0.6142  0.4074
   13MOL0     N 1601   4.816   0.439   7.824  0.4581  0.5381 -0.0805
   13MOL0     C 1602   4.680   0.427   7.848 -0.0864 -0.1772 -0.0136
   13MOL0     C 1603   4.642   0.561   7.846 -0.0377 -0.1588  0.7863
   13MOL0     C 1604   4.496   0.595   7.872 -0.2925 -0.9285  0.0317
   13MOL0     C 1605   4.390   0.567   7.777 -0.4801 -0.6998 -0.7620
   13MOL0     C 1606   4.432   0.606   7.634 -0.7688  0.5295  0.3076
   13MOL0     C 1607   4.321   0.584   7.527 -0.4916 -1.1539 -0.6633
   13MOL0     O 1608   4.211   0.660   7.567  0.1720  0.4090  0.3470
   13MOL0     C 1609   4.111   0.663   7.467  0.0673  0.0901 -0.3106
   13MOL0     C 1610   4.110   0.575   7.355 -0.6279 -0.9268  0.2307
   13MOL0     C 1611   3.991   0.577   7.284 -0.8813  0.8706  0.1973
   13MOL0     C 1612   3.874   0.650   7.322 -0.1591 -1.2140  0.6724
   13MOL0     C 1613   3.744   0.630   7.267 -0.2122 -0.3735  0.8234
   13MOL0     O 1614   3.726   0.572   7.144  0.0221 -0.0892  0.0609
   13MOL0     C 1615   3.608   0.566   7.078  0.5770 -0.6737 -0.4256
   13MOL0     C 1616   3.486   0.532   7.140  0.6448 -0.1223 -0.8979
   13MOL0     C 1617   3.364   0.505   7.066 -0.7246  0.5031  0.1031
   13MOL0     C 1618   3.375   0.510   6.925 -0.0629  0.1361  0.0532
   13MOL0     O 1619   3.262   0.476   6.854 -0.4122 -0.0563 -0.3541
   13MOL0     C 1620   3.250   0.489   6.711 -0.2388  0.7895  0.1268
   13MOL0     C 1621   3.123   0.431   6.668  0.3155 -0.3628 -0.2950
   13MOL0     C 1622   3.084   0.486   6.526  0.1028 -0.4137 -1.0029
   13MOL0     C 1623   2.950   0.422   6.475 -0.3924  0.3671 -0.5214
   13MOL0     C 1624   2.825   0.477   6.549  0.0596  0.1868  0.5175
   13MOL0     C 1625   2.692   0.439   6.492  1.7558  0.3525  0.1535
   13MOL0     C 1626   2.569   0.493   6.568  0.1459  0.2410  0.1677
   13MOL0     C 1627   2.570   0.450   6.719 -0.0694 -0.5553  0.6328
   13MOL0    Cl 1628   2.605   0.278   6.736 -0.1799 -0.1553  0.2260
   13MOL0     C 1629   3.502   0.534   6.860  0.4340  1.0784  0.0211
   13MOL0     C 1630   3.620   0.559   6.936 -1.2810 -0.1662  0.7146
   13MOL0     O 1631   3.651   0.663   7.338 -0.3813 -0.5940  1.0822
   13MOL0     C 1632   3.882   0.745   7.426  0.6054  0.0867  0.2936
   13MOL0     C 1633   4.002   0.753   7.484  0.7830 -0.4451 -0.3140
   13MOL0     N 1634   4.745   0.643   7.831  0.1417 -0.8698 -0.1811
   13MOL0     N 1635   4.846   0.567   7.798  0.3513 -0.5603 -0.2199
   13MOL0     C 1636   5.627   0.169   8.203 -0.7910 -0.5815  0.4827
   13MOL0     C 1637   5.760   0.117   8.183  0.0400 -0.2240  0.1867
   13MOL0     C 1638   6.225   0.122   8.218  0.0434 -0.2840  0.5210
   13MOL0     C 1639   6.331   0.200   8.177 -0.1559 -0.3653 -0.1167
   13MOL0     C 1640   6.466   0.150   8.177 -0.0613  0.5904 -0.8875
   13MOL0     C 1641   6.487   0.020   8.223 -0.2196 -0.4613  0.4752
   13MOL0     O 1642   6.609  -0.027   8.245 -0.1201 -0.2330 -0.0049
   13MOL0     C 1643   6.714   0.070   8.276 -0.0337 -0.3081  0.1510
   13MOL0     C 1644   6.843  -0.001   8.330  0.3318 -0.4602  0.2591
   13MOL0     C 1645   6.818  -0.069   8.474  0.1313 -0.1949  1.3254
   13MOL0     C 1646   6.927  -0.177   8.511 -0.4290 -0.0510 -0.2752
   13MOL0     C 1647   7.060  -0.123   8.537 -0.5198  0.4797  0.0806
   13MOL0     C 1648   7.172  -0.079   8.566  0.5936 -0.4152  0.6286
   13MOL0     C 1649   6.386  -0.063   8.263 -0.2301  0.0497 -0.2344
   13MOL0     C 1650   6.247  -0.013   8.265 -0.9775 -0.2177  0.6730
   13MOL0     H 1651   5.908   0.280   8.442 -0.9786 -0.8525  1.9230
   13MOL0     H 1652   5.687   0.376   8.460  1.3137 -0.3529 -0.5714
   13MOL0     H 1653   5.400   0.289   8.512 -3.0573  2.4256 -0.2649
   13MOL0     H 1654   5.395   0.141   8.425 -0.1780  0.3036  2.2366
   13MOL0     H 1655   5.212   0.377   8.401  2.2661  0.4101  0.8893
   13MOL0     H 1656   5.174   0.212   8.443  0.2457 -1.6525 -0.8747
   13MOL0     H 1657   5.100   0.174   8.239 -0.0114  0.5306  1.3578
   13MOL0     H 1658   5.269   0.143   8.200 -0.1386  0.3217 -0.1959
   13MOL0     H 1659   5.151   0.417   8.154 -1.5335 -1.3024 -0.4956
   13MOL0     H 1660   5.312   0.348   8.102  0.7281 -0.5709  0.4849
   13MOL0     H 1661   5.034   0.255   8.027  1.0854 -1.1322 -0.2324
   13MOL0     H 1662   5.173   0.205   7.937 -2.4300  0.6859 -3.1591
   13MOL0     H 1663   5.220   0.438   7.871 -0.5928 -0.1588 -1.2915
   13MOL0     H 1664   5.073   0.489   7.946 -2.7890 -1.0032 -0.5501
   13MOL0     H 1665   5.057   0.438   7.701 -2.3670 -2.0471 -2.1232
   13MOL0     H 1666   5.100   0.278   7.712  0.2110 -0.8289  1.0680
   13MOL0     H 1667   4.891   0.253   7.886  1.8838  0.7839  0.7426
   13MOL0     H 1668   4.865   0.270   7.712  3.8491 -0.2717 -0.7253
   13MOL0     H 1669   4.615   0.341   7.858 -1.1249  0.6846  0.9481
   13MOL0     H 1670   4.504   0.704   7.874  2.0111 -0.8843 -3.0703
   13MOL0     H 1671   4.459   0.569   7.971  2.1025 -2.5001  0.6202
   13MOL0     H 1672   4.295   0.611   7.808 -0.7558  0.2529 -2.7917
   13MOL0     H 1673   4.375   0.459   7.785 -3.4111 -0.3160 -0.1486
   13MOL0     H 1674   4.476   0.706   7.644  1.8127 -0.7760  4.0562
   13MOL0     H 1675   4.520   0.544   7.616 -0.8121 -1.0625  4.4873
   13MOL0     H 1676   4.295   0.477   7.523  0.2599 -1.3345 -0.8781
   13MOL0     H 1677   4.362   0.609   7.429 -3.7692  2.8610 -1.2815
   13MOL0     H 1678   4.191   0.508   7.330 -1.8361 -1.4405 -2.5887
   13MOL0     H 1679   3.989   0.521   7.191  1.3047 -0.3393  0.8031
   13MOL0     H 1680   3.483   0.506   7.246 -3.0276 -2.5735 -1.4233
   13MOL0     H 1681   3.268   0.476   7.107  0.4393 -1.8678  1.3659
   13MOL0     H 1682   3.320   0.425   6.657 -1.2901 -0.9165  0.7036
   13MOL0     H 1683   3.255   0.593   6.677  0.7046  0.5501 -0.5412
   13MOL0     H 1684   3.047   0.470   6.737  1.7160  1.5474  0.2630
   13MOL0     H 1685   3.132   0.322   6.660  0.1442 -0.5239  1.3884
   13MOL0     H 1686   3.156   0.457   6.448  0.0232 -0.7808 -0.9449
   13MOL0     H 1687   3.076   0.594   6.536 -0.8759 -0.5338 -0.3347
   13MOL0     H 1688   2.930   0.437   6.368 -1.8410  1.2516 -0.1564
   13MOL0     H 1689   2.955   0.314   6.485 -0.7529  0.4115  0.1542
   13MOL0     H 1690   2.823   0.587   6.551 -1.9415  0.2142 -0.4992
   13MOL0     H 1691   2.827   0.436   6.651  2.0378  0.8079  0.7684
   13MOL0     H 1692   2.674   0.332   6.477  0.6829  0.2896  1.6813
   13MOL0     H 1693   2.686   0.464   6.386  1.4232 -1.2706 -0.2352
   13MOL0     H 1694   2.564   0.601   6.550 -2.5216 -0.2175 -2.8299
   13MOL0     H 1695   2.478   0.465   6.514 -0.0537 -0.7608  0.9873
   13MOL0     H 1696   2.470   0.473   6.759 -0.4316 -0.3099 -0.3755
   13MOL0     H 1697   2.645   0.505   6.776 -0.6227 -0.7391  1.5772
   13MOL0     H 1698   3.524   0.512   6.756  0.4410 -1.1548  0.4306
   13MOL0     H 1699   3.711   0.556   6.877 -2.1154 -0.2382 -0.6017
   13MOL0     H 1700   3.805   0.815   7.459  1.2362  0.5962  0.7065
   13MOL0     H 1701   4.016   0.822   7.567  2.5709 -1.3581  0.2086
   13MOL0     H 1702   5.546   0.141   8.136  0.9382  0.0203 -1.9878
   13MOL0     H 1703   5.781   0.036   8.113 -2.5323  0.2610 -1.2445
   13MOL0     H 1704   6.316   0.304   8.153 -4.3497 -0.3442  1.6371
   13MOL0     H 1705   6.541   0.216   8.136 -2.4034  5.4756  1.8079
   13MOL0     H 1706   6.672   0.142   8.347 -0.6974 -0.0153 -0.5211
   13MOL0     H 1707   6.731   0.134   8.189 -1.2342  1.3814  1.0899
   13MOL0     H 1708   6.869  -0.079   8.258 -0.2176  0.9642 -1.5661
   13MOL0     H 1709   6.926   0.071   8.329 -1.9203  2.3367 -0.8419
   13MOL0     H 1710   6.719  -0.115   8.462  0.0250  0.4953 -0.9408
   13MOL0     H 1711   6.806   0.002   8.556 -1.1187  2.5681 -1.0704
   13MOL0     H 1712   6.897  -0.231   8.602 -1.5399  2.9665  1.2799
   13MOL0     H 1713   6.936  -0.247   8.427 -1.5179  0.5468 -0.9099
   13MOL0     H 1714   7.267  -0.052   8.606  1.0508  0.7666 -1.1746
   13MOL0     H 1715   6.407  -0.162   8.301  0.9208 -0.4293 -2.0143
   13MOL0     H 1716   6.167  -0.078   8.300 -1.9186  0.9572  0.7560
   14MOL0     O 1717   7.449   0.565  11.163  0.3731  0.4291  0.2678
   14MOL0     C 1718   7.483   0.462  11.104  0.3344  0.7835  0.5043
   14MOL0     O 1719   7.404   0.352  11.109  0.7468 -0.0813  0.5211
   14MOL0     C 1720   7.277   0.356  11.164 -0.1049  0.1737  0.1619
   14MOL0     C 1721   7.172   0.386  11.069 -0.9221 -0.3617 -0.4307
   14MOL0     C 1722   7.045   0.388  11.114 -0.3998 -0.6041 -1.0814
   14MOL0     C 1723   7.015   0.360  11.248  0.2385  0.3064 -0.6557
   14MOL0     O 1724   6.886   0.362  11.305 -0.6300  0.4535 -0.1919
   14MOL0     C 1725   6.771   0.350  11.215 -1.1890 -0.5361 -0.5478
   14MOL0     C 1726   6.661   0.312  11.319  0.2460 -0.6187  0.1872
   14MOL0     C 1727   6.617   0.431  11.415 -0.6348 -0.3903  0.9662
   14MOL0     C 1728   6.487   0.391  11.504  0.3556 -0.8976  0.3817
   14MOL0     C 1729   6.471   0.494  11.612 -0.6429 -0.3820 -0.1891
   14MOL0     C 1730   6.352   0.471  11.706  0.0223  0.3364  0.4345
   14MOL0     C 1731   6.342   0.570  11.821 -0.1117  0.2933  0.2688
   14MOL0     C 1732   6.234   0.517  11.909  0.1302 -0.0736  1.2539
   14MOL0     N 1733   6.113   0.489  11.833  0.0456 -0.5054 -0.0864
   14MOL0     C 1734   6.036   0.583  11.770  1.3394  0.3180  0.1283
   14MOL0     C 1735   5.932   0.506  11.731  0.0054 -0.1292  0.1335
   14MOL0     C 1736   5.805   0.569  11.668  0.3467 -0.0982  0.5080
   14MOL0     C 1737   5.704   0.458  11.623  1.1019 -0.3803  1.2844
   14MOL0     C 1738   5.619   0.401  11.739  0.2162  0.0982  0.8160
   14MOL0     C 1739   5.557   0.268  11.710  0.8518 -0.1179 -0.0999
   14MOL0     O 1740   5.495   0.213  11.823  0.3169 -0.0538 -0.2187
   14MOL0     C 1741   5.363   0.197  11.804 -0.2270  0.2020 -0.2999
   14MOL0     C 1742   5.316   0.091  11.733 -0.3140  0.9517 -0.3303
   14MOL0     C 1743   5.180   0.064  11.716 -0.0587  0.2183  0.1566
   14MOL0     C 1744   5.081   0.147  11.774 -0.0703 -0.0375 -0.0546
   14MOL0     C 1745   4.939   0.129  11.751  0.4310  0.4617 -0.1461
   14MOL0     O 1746   4.861   0.237  11.779  0.2244  0.5795  0.4712
   14MOL0     C 1747   4.741   0.251  11.715 -0.5627 -0.3126  0.0135
   14MOL0     C 1748   4.740   0.247  11.573  0.2400  0.2947 -0.9979
   14MOL0     C 1749   4.612   0.265  11.507 -1.0256 -0.1355 -0.9991
   14MOL0     C 1750   4.489   0.296  11.571  0.1717  0.2713  0.0809
   14MOL0     O 1751   4.365   0.297  11.511 -1.2069 -0.2698 -0.0527
   14MOL0     C 1752   4.371   0.366  11.385  0.4310  0.0915  0.0924
   14MOL0     C 1753   4.218   0.391  11.337 -1.4582 -0.6940 -0.2287
   14MOL0     C 1754   4.213   0.453  11.202  0.2601 -0.2732 -0.4739
   14MOL0     C 1755   4.070   0.499  11.164 -0.9896 -0.0635 -0.1502
   14MOL0     C 1756   4.064   0.572  11.023  0.4766 -0.3186 -0.9238
   14MOL0     C 1757   3.919   0.608  10.975 -0.3838 -1.0887 -0.1090
   14MOL0     C 1758   3.920   0.700  10.852  0.1563 -0.4252 -0.8950
   14MOL0     C 1759   3.972   0.623  10.727  0.0074 -0.0107 -0.0553
   14MOL0    Cl 1760   3.972   0.735  10.590  0.5793 -0.1177  0.1515
   14MOL0     C 1761   4.501   0.302  11.712 -0.3724 -0.7860  0.9860
   14MOL0     C 1762   4.619   0.269  11.783  0.3527  0.0286  0.0520
   14MOL0     O 1763   4.894   0.019  11.714  0.4536 -0.3425 -0.0514
   14MOL0     C 1764   5.137   0.265  11.835  0.0902  0.2745  0.5104
   14MOL0     C 1765   5.273   0.278  11.866  0.0929  0.8068  0.0243
   14MOL0     N 1766   5.946   0.371  11.776 -0.3996  0.1640  0.5532
   14MOL0     N 1767   6.059   0.366  11.841 -0.4926  0.4962 -0.1037
   14MOL0     C 1768   7.117   0.315  11.334  0.1214  0.7014  0.7485
   14MOL0     C 1769   7.248   0.313  11.292 -0.0623  0.8041  0.6204
   14MOL0     C 1770   7.599   0.456  11.014  0.0414  1.3867  0.1738
   14MOL0     C 1771   7.700   0.541  11.058 -0.0896  0.3225  0.0943
   14MOL0     C 1772   7.824   0.538  10.989  0.1059 -0.5108  0.0023
   14MOL0     C 1773   7.841   0.445  10.881 -0.4951 -0.2963  0.2320
   14MOL0     O 1774   7.960   0.411  10.824  0.7116 -0.3817 -0.4900
   14MOL0     C 1775   8.071   0.496  10.836  0.7527 -0.5178 -0.9636
   14MOL0     C 1776   8.186   0.432  10.763 -0.2911  0.6893 -0.0414
   14MOL0     C 1777   8.315   0.507  10.755 -0.3342  0.2478  0.0359
   14MOL0     C 1778   8.416   0.412  10.685 -0.1633 -0.0676 -0.4236
   14MOL0     C 1779   8.439   0.286  10.746 -0.1583 -0.4440  0.7222
   14MOL0     C 1780   8.449   0.177  10.789  0.9351  0.4604  0.1849
   14MOL0     C 1781   7.727   0.370  10.840 -0.0065  0.6962 -0.2313
   14MOL0     C 1782   7.607   0.370  10.907 -0.4076  0.0264 -0.6446
   14MOL0     H 1783   7.198   0.413  10.967  0.2086 -1.9198 -0.5903
   14MOL0     H 1784   6.963   0.419  11.050  0.2434  2.4143 -0.6193
   14MOL0     H 1785   6.795   0.275  11.139  2.9157 -0.7623  0.7257
   14MOL0     H 1786   6.736   0.442  11.166 -2.4499  0.5803  2.2719
   14MOL0     H 1787   6.688   0.236  11.393 -4.1922 -0.5912  2.0918
   14MOL0     H 1788   6.571   0.281  11.265  0.7746 -2.1501  0.1269
   14MOL0     H 1789   6.590   0.511  11.345  2.0321 -1.2349 -1.2292
   14MOL0     H 1790   6.697   0.470  11.479 -0.0080  1.8130 -1.0064
   14MOL0     H 1791   6.400   0.394  11.438  1.0226  0.0855 -0.4902
   14MOL0     H 1792   6.497   0.290  11.543  1.2341 -0.6153  0.9261
   14MOL0     H 1793   6.457   0.591  11.562 -1.8980  0.4449  1.6386
   14MOL0     H 1794   6.555   0.510  11.681 -0.0232 -0.9119 -0.8099
   14MOL0     H 1795   6.360   0.367  11.738 -2.5006  0.0511  0.3758
   14MOL0     H 1796   6.272   0.489  11.634  0.5734 -0.8720 -0.5207
   14MOL0     H 1797   6.436   0.560  11.877  0.1219 -4.5352 -0.4992
   14MOL0     H 1798   6.319   0.668  11.780 -0.7596  0.0350  0.0102
   14MOL0     H 1799   6.222   0.588  11.991 -0.7253  1.4035 -0.0896
   14MOL0     H 1800   6.267   0.418  11.942  0.5304 -1.4595 -2.8041
   14MOL0     H 1801   6.038   0.690  11.758 -1.6253  0.1553 -3.6173
   14MOL0     H 1802   5.825   0.624  11.575 -1.4194 -2.3464 -1.3414
   14MOL0     H 1803   5.758   0.638  11.738  0.3680  0.2050  0.2274
   14MOL0     H 1804   5.756   0.377  11.569 -1.5280 -0.9669 -0.5664
   14MOL0     H 1805   5.636   0.496  11.546  0.5387 -0.7863  1.5757
   14MOL0     H 1806   5.687   0.377  11.822  2.1224 -0.6794 -0.8838
   14MOL0     H 1807   5.548   0.477  11.772 -0.3416  0.1885 -0.5425
   14MOL0     H 1808   5.630   0.194  11.675 -0.3507 -1.0796 -0.6335
   14MOL0     H 1809   5.490   0.297  11.629 -0.8733 -1.3236  0.8256
   14MOL0     H 1810   5.395   0.021  11.706 -0.4960  0.7002 -0.2127
   14MOL0     H 1811   5.157  -0.037  11.685  0.2325 -0.1448  1.1232
   14MOL0     H 1812   4.831   0.214  11.524  1.1101 -1.2245  1.4989
   14MOL0     H 1813   4.611   0.256  11.399 -1.5413  0.1083 -1.0170
   14MOL0     H 1814   4.429   0.303  11.317  0.9472 -0.3141  0.8979
   14MOL0     H 1815   4.421   0.462  11.397 -0.2811  0.7504 -1.7883
   14MOL0     H 1816   4.170   0.459  11.409 -4.5624 -1.8569 -1.0662
   14MOL0     H 1817   4.162   0.297  11.337 -1.3050 -0.7860 -0.5660
   14MOL0     H 1818   4.261   0.386  11.130 -0.9394 -1.3714 -0.2936
   14MOL0     H 1819   4.268   0.548  11.207  0.4212 -0.3939  0.1247
   14MOL0     H 1820   4.011   0.408  11.151 -1.3056  0.0636  0.3726
   14MOL0     H 1821   4.026   0.561  11.242 -0.6808 -0.2650  0.1860
   14MOL0     H 1822   4.118   0.512  10.949  2.9074  2.3088 -1.4562
   14MOL0     H 1823   4.124   0.663  11.020  2.0860 -1.3472 -1.1384
   14MOL0     H 1824   3.870   0.673  11.048  2.1068  2.1797 -1.1254
   14MOL0     H 1825   3.859   0.518  10.956 -0.1679 -1.6340  1.6383
   14MOL0     H 1826   3.820   0.738  10.831  0.9968  3.0770  0.6662
   14MOL0     H 1827   3.978   0.791  10.869 -1.2055  0.0151  1.8147
   14MOL0     H 1828   3.912   0.538  10.694  1.2473 -1.0413  0.2325
   14MOL0     H 1829   4.075   0.586  10.739 -0.4390 -0.5663  2.8773
   14MOL0     H 1830   4.415   0.316  11.777 -0.3771 -2.0603  1.2961
   14MOL0     H 1831   4.613   0.261  11.891  1.5082 -2.5076  0.0104
   14MOL0     H 1832   5.056   0.328  11.871 -1.4535 -2.0438  1.3406
   14MOL0     H 1833   5.296   0.366  11.926  0.2673  0.9484 -0.2462
   14MOL0     H 1834   7.086   0.279  11.431 -0.4492 -0.9923 -0.0200
   14MOL0     H 1835   7.328   0.268  11.350  1.1511  0.5072 -1.2223
   14MOL0     H 1836   7.683   0.601  11.147 -3.9158 -2.1560  1.2640
   14MOL0     H 1837   7.904   0.597  11.032 -1.8178  1.1806  1.5017
   14MOL0     H 1838   8.097   0.523  10.939 -1.3530  1.2594 -0.8072
   14MOL0     H 1839   8.057   0.593  10.787  0.3928 -0.6506 -1.1239
   14MOL0     H 1840   8.217   0.351  10.830 -1.4202  1.0473  0.9383
   14MOL0     H 1841   8.156   0.389  10.667  3.1231 -1.0097 -0.5334
   14MOL0     H 1842   8.334   0.534  10.859  0.7347 -4.3126  1.2351
   14MOL0     H 1843   8.305   0.600  10.697 -1.1975 -0.5574 -1.1621
   14MOL0     H 1844   8.374   0.398  10.584 -1.5381  1.4002 -0.0987
   14MOL0     H 1845   8.511   0.465  10.684  0.7112 -1.4303  2.2572
   14MOL0     H 1846   8.468   0.077  10.823  0.8531  0.0360 -0.9639
   14MOL0     H 1847   7.740   0.310  10.751 -3.0387  0.0335 -0.3491
   14MOL0     H 1848   7.523   0.311  10.871 -0.3584 -0.4602  0.0201
   15MOL0     O 1849   8.896   7.988   4.423 -0.4116  0.1584 -0.6803
   15MOL0     C 1850   8.930   8.094   4.377 -0.0983 -0.1146  0.6214
   15MOL0     O 1851   8.852   8.178   4.292  0.1914  0.1225  0.6534
   15MOL0     C 1852   8.726   8.147   4.244  0.0385  0.4437 -0.7512
   15MOL0     C 1853   8.641   8.046   4.296 -0.6871  0.0041 -0.2890
   15MOL0     C 1854   8.514   8.022   4.238  0.2077  0.0838 -0.1109
   15MOL0     C 1855   8.469   8.089   4.128  0.2409 -1.1990  0.0598
   15MOL0     O 1856   8.348   8.066   4.061 -0.0142  0.5546 -0.2620
   15MOL0     C 1857   8.267   7.955   4.109  0.4645 -0.4963 -0.3360
   15MOL0     C 1858   8.138   7.986   4.040 -0.0680  0.3841 -0.4440
   15MOL0     C 1859   8.047   7.867   4.034  0.1682 -0.0447  0.5131
   15MOL0     C 1860   7.910   7.887   3.974 -0.0779 -0.4297 -0.0059
   15MOL0     C 1861   7.835   7.756   3.943  0.5363 -0.7875 -0.4156
   15MOL0     C 1862   7.721   7.780   3.843 -0.9737  0.1432  0.3827
   15MOL0     C 1863   7.622   7.662   3.821 -1.1956  0.5161 -0.1757
   15MOL0     C 1864   7.498   7.719   3.747 -0.7243 -0.2870 -0.6286
   15MOL0     N 1865   7.417   7.616   3.695 -0.1553 -0.7006 -0.7745
   15MOL0     C 1866   7.299   7.570   3.751  0.0843  0.0709 -0.1430
   15MOL0     C 1867   7.250   7.498   3.650 -0.3186 -0.1410 -0.0881
   15MOL0     C 1868   7.119   7.431   3.664 -0.3074 -0.4552  1.5570
   15MOL0     C 1869   7.060   7.403   3.519 -0.8303 -0.3978 -0.7709
   15MOL0     C 1870   6.924   7.326   3.525  0.1791 -0.9946 -0.3605
   15MOL0     C 1871   6.881   7.283   3.384  0.2064 -0.4004 -0.6056
   15MOL0     O 1872   6.836   7.391   3.308 -0.2099 -0.1555 -0.1102
   15MOL0     C 1873   6.724   7.378   3.238  0.3551 -0.5297  0.0907
   15MOL0     C 1874   6.625   7.468   3.253 -0.0577 -0.7129 -0.0654
   15MOL0     C 1875   6.512   7.470   3.178  0.2724  0.2929  0.6500
   15MOL0     C 1876   6.488   7.371   3.077  0.7643  0.0144  0.1331
   15MOL0     C 1877   6.367   7.382   2.989 -0.2244  0.6536  0.6207
   15MOL0     O 1878   6.339   7.272   2.919 -0.0886 -0.4180  0.1951
   15MOL0     C 1879   6.222   7.248   2.861 -1.0735  0.2057 -0.5651
   15MOL0     C 1880   6.093   7.291   2.903 -0.5840 -0.0741  0.5605
   15MOL0     C 1881   5.979   7.250   2.842 -0.1583 -0.7667  0.1014
   15MOL0     C 1882   5.980   7.165   2.726 -0.7561 -0.1402 -0.2740
   15MOL0     O 1883   5.865   7.113   2.678 -0.3564  0.4572  0.4471
   15MOL0     C 1884   5.845   7.099   2.538  0.2636 -0.2750  0.1966
   15MOL0     C 1885   5.705   7.067   2.496  1.4742 -1.2579 -0.1288
   15MOL0     C 1886   5.696   7.041   2.342  0.1074 -0.5744 -0.6019
   15MOL0     C 1887   5.552   7.015   2.298 -0.5638 -0.5601  0.4042
   15MOL0     C 1888   5.458   7.135   2.309  0.4739 -0.4872 -0.4225
   15MOL0     C 1889   5.312   7.118   2.263  0.1833  0.2115  0.3410
   15MOL0     C 1890   5.219   7.239   2.275 -0.5143 -0.2216 -0.0544
   15MOL0     C 1891   5.085   7.194   2.238  1.0265  0.2290  0.2611
   15MOL0    Cl 1892   4.976   7.325   2.293  0.3410 -0.2706 -0.1752
   15MOL0     C 1893   6.111   7.137   2.686  0.3545  0.5639  0.3296
   15MOL0     C 1894   6.227   7.171   2.750  0.3498 -0.1843 -0.5036
   15MOL0     O 1895   6.311   7.487   2.981 -0.4254  0.9454 -0.9071
   15MOL0     C 1896   6.587   7.278   3.058 -0.0226  0.1646  0.2462
   15MOL0     C 1897   6.708   7.289   3.134  0.3887  0.0019  0.6016
   15MOL0     N 1898   7.345   7.487   3.553 -0.0850  0.6203 -0.0132
   15MOL0     N 1899   7.451   7.548   3.584 -0.5395 -0.4308 -1.0613
   15MOL0     C 1900   8.557   8.185   4.072  0.5384 -0.1322  0.0852
   15MOL0     C 1901   8.679   8.215   4.131 -0.3314  1.0081 -0.0830
   15MOL0     C 1902   9.070   8.141   4.398  0.8815  1.1067  0.4386
   15MOL0     C 1903   9.136   8.205   4.292  0.4880 -0.1821  0.6675
   15MOL0     C 1904   9.270   8.250   4.316  0.6165 -0.3090  0.3110
   15MOL0     C 1905   9.344   8.213   4.436  0.8696  0.5530  0.0345
   15MOL0     O 1906   9.471   8.277   4.438 -0.0450  0.4048 -0.5071
   15MOL0     C 1907   9.504   8.316   4.573 -0.9341  0.0910 -0.0171
   15MOL0     C 1908   9.611   8.221   4.619  0.5169  0.7839  0.0233
   15MOL0     C 1909   9.740   8.260   4.546 -0.5679 -0.6237  0.2219
   15MOL0     C 1910   9.857   8.208   4.637  0.1178 -0.0179  0.2240
   15MOL0     C 1911   9.983   8.210   4.562 -0.6478 -0.8052  0.0011
   15MOL0     C 1912  10.080   8.207   4.489  0.1050 -0.6473 -0.1418
   15MOL0     C 1913   9.270   8.138   4.541  0.0919  0.2567 -0.3414
   15MOL0     C 1914   9.136   8.102   4.521  0.1150 -0.9583  0.0067
   15MOL0     H 1915   8.674   7.992   4.383  0.7085  1.2400 -0.0003
   15MOL0     H 1916   8.467   7.939   4.291  1.4029 -0.6710 -0.1970
   15MOL0     H 1917   8.258   7.956   4.218 -0.4400  0.4991 -0.3980
   15MOL0     H 1918   8.319   7.863   4.079 -2.1334 -1.9228 -0.8013
   15MOL0     H 1919   8.159   8.022   3.939  0.3199  1.7223  0.0964
   15MOL0     H 1920   8.088   8.069   4.092  0.9839  1.1690 -0.6591
   15MOL0     H 1921   8.042   7.829   4.137 -0.8299  1.8878  1.2289
   15MOL0     H 1922   8.097   7.794   3.970  1.8345  0.1458  1.5385
   15MOL0     H 1923   7.846   7.945   4.042 -0.2438 -0.6433  0.0207
   15MOL0     H 1924   7.917   7.949   3.884  1.2537 -0.1297  0.2807
   15MOL0     H 1925   7.790   7.733   4.040 -1.6191 -0.8153 -1.3513
   15MOL0     H 1926   7.903   7.682   3.901 -1.3184 -0.9439 -3.5196
   15MOL0     H 1927   7.761   7.815   3.748  0.1715 -1.4359  0.2466
   15MOL0     H 1928   7.660   7.864   3.879 -1.6660 -0.4737  0.6810
   15MOL0     H 1929   7.674   7.593   3.753 -1.8665  1.2151 -1.4314
   15MOL0     H 1930   7.604   7.612   3.916 -1.7884  0.8760 -0.0919
   15MOL0     H 1931   7.528   7.768   3.654 -0.4398 -0.2052 -0.4942
   15MOL0     H 1932   7.445   7.792   3.807  1.9455  1.5320 -0.3149
   15MOL0     H 1933   7.258   7.581   3.851 -0.2196  1.7728 -0.4179
   15MOL0     H 1934   7.056   7.497   3.725 -0.2714  0.0626  1.0452
   15MOL0     H 1935   7.136   7.340   3.721 -0.0881 -0.4340  1.5236
   15MOL0     H 1936   7.131   7.356   3.451  2.6497  2.3578  0.6711
   15MOL0     H 1937   7.054   7.505   3.479  1.2218 -0.7759 -2.1716
   15MOL0     H 1938   6.927   7.237   3.588  1.4232  0.0885  1.1899
   15MOL0     H 1939   6.842   7.390   3.558  1.0943  0.5641 -1.0365
   15MOL0     H 1940   6.813   7.200   3.402  0.4058 -0.9214 -2.1227
   15MOL0     H 1941   6.969   7.241   3.333  0.5086 -0.9424  0.3353
   15MOL0     H 1942   6.644   7.545   3.328 -2.8563 -2.1603  2.3160
   15MOL0     H 1943   6.430   7.542   3.178  0.3634  0.6192 -3.0596
   15MOL0     H 1944   6.089   7.341   2.999  0.8219 -0.8142  1.0440
   15MOL0     H 1945   5.881   7.268   2.885 -1.0379 -2.0749 -1.2195
   15MOL0     H 1946   5.909   7.020   2.498 -1.4889  0.5885 -5.0565
   15MOL0     H 1947   5.885   7.185   2.484  1.9057 -0.9925  0.1925
   15MOL0     H 1948   5.645   7.157   2.513 -0.6272 -2.2685 -1.6148
   15MOL0     H 1949   5.676   6.978   2.553  4.9117 -1.3877  1.6624
   15MOL0     H 1950   5.769   6.967   2.308 -1.1363 -1.8272 -0.6376
   15MOL0     H 1951   5.733   7.130   2.290  2.9067 -1.3784 -0.1447
   15MOL0     H 1952   5.545   6.987   2.193 -2.9069 -0.8741  0.5744
   15MOL0     H 1953   5.518   6.934   2.363  0.2510  0.4505  2.1514
   15MOL0     H 1954   5.505   7.206   2.240  0.3739  1.8446  1.7236
   15MOL0     H 1955   5.449   7.179   2.409 -2.5865 -1.4950 -0.1660
   15MOL0     H 1956   5.259   7.035   2.312  0.1729 -1.1952 -1.9096
   15MOL0     H 1957   5.322   7.097   2.156  0.7702  2.5874 -0.1266
   15MOL0     H 1958   5.219   7.283   2.376 -4.8719 -1.8259  0.8489
   15MOL0     H 1959   5.249   7.312   2.199 -1.0210  0.1023  0.0515
   15MOL0     H 1960   5.065   7.102   2.294  0.6623 -0.5867 -1.1719
   15MOL0     H 1961   5.078   7.174   2.131  1.1697  2.0269 -0.1086
   15MOL0     H 1962   6.120   7.072   2.599  2.5014 -1.3233  1.8596
   15MOL0     H 1963   6.325   7.141   2.715  0.9937  1.8951 -0.5887
   15MOL0     H 1964   6.595   7.212   2.972  0.8587  0.7418 -0.1362
   15MOL0     H 1965   6.800   7.238   3.108  0.2490  0.2865 -0.4870
   15MOL0     H 1966   8.511   8.243   3.993 -2.9221 -1.5306  0.8825
   15MOL0     H 1967   8.746   8.284   4.082 -2.0975  0.3197 -3.8363
   15MOL0     H 1968   9.082   8.244   4.207 -0.5513  0.9922  1.8307
   15MOL0     H 1969   9.326   8.307   4.242 -1.2960  1.4864  0.1838
   15MOL0     H 1970   9.418   8.331   4.640 -1.4028  4.4073 -1.3081
   15MOL0     H 1971   9.540   8.419   4.579  1.8186 -0.8251  0.3267
   15MOL0     H 1972   9.630   8.219   4.726  3.8669 -1.1235 -0.4457
   15MOL0     H 1973   9.594   8.115   4.597 -0.4910  0.7409  0.9340
   15MOL0     H 1974   9.743   8.369   4.539 -0.2561 -0.5566  1.2305
   15MOL0     H 1975   9.735   8.230   4.441 -0.4423  1.5600 -0.4494
   15MOL0     H 1976   9.884   8.256   4.732  2.8101 -0.1686 -0.3932
   15MOL0     H 1977   9.848   8.105   4.673  2.6920  0.1890  1.7523
   15MOL0     H 1978  10.157   8.229   4.418 -0.9605  2.7823 -0.4178
   15MOL0     H 1979   9.316   8.112   4.636 -1.7197 -0.0010  0.4977
   15MOL0     H 1980   9.076   8.057   4.600  2.4556 -3.0767  0.7031
   16MOL0     O 1981   4.101   8.719  11.069  0.1770 -0.3293  0.4883
   16MOL0     C 1982   4.099   8.633  10.981 -0.6711  0.1058 -0.5439
   16MOL0     O 1983   3.991   8.595  10.903  0.1947 -0.0271 -1.0416
   16MOL0     C 1984   3.853   8.620  10.933  0.7385 -0.2414  0.3819
   16MOL0     C 1985   3.762   8.568  10.840  0.3081 -0.1259 -0.3704
   16MOL0     C 1986   3.626   8.580  10.853  0.3236 -0.6730 -0.0937
   16MOL0     C 1987   3.577   8.650  10.957  0.1587  0.2809 -0.4351
   16MOL0     O 1988   3.444   8.676  10.959  0.0979  0.1704  1.2365
   16MOL0     C 1989   3.349   8.588  10.910  0.0380  0.4780 -0.2104
   16MOL0     C 1990   3.224   8.679  10.931 -0.6646  0.3391 -0.0270
   16MOL0     C 1991   3.176   8.664  11.083 -0.0034  0.1212 -0.4062
   16MOL0     C 1992   3.085   8.776  11.132  0.5168  0.4674  0.3100
   16MOL0     C 1993   3.011   8.750  11.268 -0.0770 -0.2123  0.0172
   16MOL0     C 1994   2.886   8.670  11.256 -0.2391  0.3787  0.7645
   16MOL0     C 1995   2.805   8.701  11.381 -0.3552  0.3744  0.1018
   16MOL0     C 1996   2.680   8.613  11.387 -0.0691  0.9943  0.3120
   16MOL0     N 1997   2.562   8.683  11.323  0.1136  0.4633  0.3856
   16MOL0     C 1998   2.445   8.712  11.391  0.6204 -0.0293  0.1741
   16MOL0     C 1999   2.365   8.772  11.297 -0.1663  0.2949 -0.8326
   16MOL0     C 2000   2.228   8.821  11.317 -0.7594 -0.0356 -0.3322
   16MOL0     C 2001   2.213   8.972  11.365  0.2869  1.2509  0.1348
   16MOL0     C 2002   2.282   9.001  11.496 -0.0812  0.2620  1.0485
   16MOL0     C 2003   2.254   9.150  11.522 -1.1187 -0.2108  0.3894
   16MOL0     O 2004   2.284   9.181  11.659  0.9458 -0.2404 -0.3765
   16MOL0     C 2005   2.203   9.289  11.696 -0.1121 -0.7152 -0.0824
   16MOL0     C 2006   2.191   9.406  11.614 -0.5290  0.1088  0.2230
   16MOL0     C 2007   2.120   9.520  11.662 -0.3916 -0.0766 -0.9171
   16MOL0     C 2008   2.069   9.530  11.799 -0.9872  0.2300 -0.4801
   16MOL0     C 2009   1.998   9.646  11.847 -0.0212 -0.0477  0.3311
   16MOL0     O 2010   1.947   9.628  11.977 -0.0537  0.2481 -0.0253
   16MOL0     C 2011   1.863   9.715  12.036 -0.2083 -0.6882 -0.4043
   16MOL0     C 2012   1.769   9.677  12.132 -0.2218  0.1355 -0.2791
   16MOL0     C 2013   1.687   9.774  12.202  1.3001 -0.1032  0.6221
   16MOL0     C 2014   1.711   9.911  12.187  0.0157  0.1044  0.0621
   16MOL0     O 2015   1.637  10.007  12.244  0.3512 -0.4274 -0.5766
   16MOL0     C 2016   1.496   9.967  12.252 -0.0993  0.2194  0.7321
   16MOL0     C 2017   1.408  10.096  12.272 -0.0761  0.2109 -0.6188
   16MOL0     C 2018   1.389  10.140  12.422 -0.2753 -0.3760 -0.4114
   16MOL0     C 2019   1.331  10.285  12.436  0.3374 -0.3469 -0.1577
   16MOL0     C 2020   1.181  10.297  12.411 -0.7238  0.8121 -0.2296
   16MOL0     C 2021   1.159  10.433  12.363  0.8549  1.1106  0.3202
   16MOL0     C 2022   1.004  10.443  12.324  0.3335  0.5091 -0.8930
   16MOL0     C 2023   0.949  10.590  12.320  0.1844  0.9702 -0.1466
   16MOL0    Cl 2024   0.775  10.565  12.264 -0.0434  0.0468  0.2358
   16MOL0     C 2025   1.819   9.952  12.104  0.0987  0.1958 -0.4576
   16MOL0     C 2026   1.890   9.863  12.025 -0.0181  0.5703 -1.1009
   16MOL0     O 2027   1.969   9.736  11.763  0.3662 -0.0756  0.2886
   16MOL0     C 2028   2.087   9.413  11.873 -0.7495 -0.1249 -0.1923
   16MOL0     C 2029   2.147   9.296  11.827  0.2647  0.1475  0.1292
   16MOL0     N 2030   2.437   8.778  11.179  0.6768  0.1147  0.4537
   16MOL0     N 2031   2.560   8.728  11.199  0.1725 -0.1154 -0.4879
   16MOL0     C 2032   3.661   8.716  11.052 -0.9362 -1.4925  0.3485
   16MOL0     C 2033   3.802   8.690  11.044  0.1647  0.3519  0.4093
   16MOL0     C 2034   4.225   8.572  10.951  0.4366  0.5837  0.5546
   16MOL0     C 2035   4.340   8.642  10.991 -0.1412  0.3750  0.8164
   16MOL0     C 2036   4.471   8.587  10.965  0.0117  1.0913  0.3834
   16MOL0     C 2037   4.492   8.469  10.883 -1.1506 -0.4707 -0.3394
   16MOL0     O 2038   4.617   8.432  10.842  0.2663  0.6386 -0.6336
   16MOL0     C 2039   4.665   8.329  10.936  0.4597 -0.3204 -0.2698
   16MOL0     C 2040   4.817   8.318  10.936  1.3241 -0.4279  0.1573
   16MOL0     C 2041   4.857   8.206  11.023 -0.3958 -0.6295  1.0836
   16MOL0     C 2042   5.010   8.181  11.035 -0.7854 -0.6059 -0.7812
   16MOL0     C 2043   5.047   8.077  11.134  0.0340 -0.1835  0.1903
   16MOL0     C 2044   5.085   8.001  11.224  0.0493 -0.5200 -0.4507
   16MOL0     C 2045   4.378   8.409  10.845 -0.0029  0.2903 -0.2586
   16MOL0     C 2046   4.246   8.454  10.873  0.1292  0.8096 -0.4747
   16MOL0     H 2047   3.793   8.506  10.757 -0.8973 -1.6414  0.2640
   16MOL0     H 2048   3.564   8.531  10.779 -0.7556  1.3496 -0.5996
   16MOL0     H 2049   3.333   8.494  10.964  1.0498 -0.2624 -1.1399
   16MOL0     H 2050   3.368   8.573  10.804  2.0828  1.4304 -0.0394
   16MOL0     H 2051   3.164   8.638  10.850  4.4141 -2.3736 -2.9156
   16MOL0     H 2052   3.259   8.781  10.913 -0.5091  1.1762  4.0204
   16MOL0     H 2053   3.263   8.669  11.149 -1.6645  0.1304  1.9235
   16MOL0     H 2054   3.121   8.571  11.100  1.1142 -0.4198  0.3097
   16MOL0     H 2055   3.152   8.861  11.143  0.6477  0.6012 -1.2565
   16MOL0     H 2056   3.007   8.794  11.057  0.1266 -0.0527  0.5832
   16MOL0     H 2057   2.986   8.848  11.311  2.1610  1.8089 -2.8732
   16MOL0     H 2058   3.078   8.708  11.344 -1.1046  0.4465  1.3369
   16MOL0     H 2059   2.926   8.568  11.246  0.4021  0.8204 -2.2576
   16MOL0     H 2060   2.829   8.702  11.168  0.1287 -0.2717  0.2814
   16MOL0     H 2061   2.866   8.673  11.467 -0.6505 -0.3765  0.0699
   16MOL0     H 2062   2.784   8.809  11.384  0.7493  0.5806  0.9478
   16MOL0     H 2063   2.663   8.595  11.493 -0.8677 -0.2061 -0.0006
   16MOL0     H 2064   2.696   8.520  11.330 -0.2009  1.5891 -0.7308
   16MOL0     H 2065   2.416   8.689  11.493  1.2386  1.1583  0.6355
   16MOL0     H 2066   2.177   8.758  11.389  0.1129  0.2007  0.5057
   16MOL0     H 2067   2.171   8.799  11.226 -1.2165 -1.5252  0.2805
   16MOL0     H 2068   2.107   8.999  11.364  0.0055  0.1826 -0.4457
   16MOL0     H 2069   2.255   9.043  11.293  1.3442 -0.6190 -1.1763
   16MOL0     H 2070   2.238   8.934  11.571 -0.2370 -1.0977 -0.2078
   16MOL0     H 2071   2.387   8.971  11.486 -0.4544 -0.8388  0.1762
   16MOL0     H 2072   2.151   9.173  11.492 -0.8651 -0.0779 -0.4100
   16MOL0     H 2073   2.326   9.216  11.472  0.8871 -1.4845  1.4508
   16MOL0     H 2074   2.233   9.410  11.514 -1.5013 -0.5542 -0.2232
   16MOL0     H 2075   2.105   9.612  11.606 -0.0895  0.6355  0.1428
   16MOL0     H 2076   1.755   9.571  12.153 -1.5976 -0.0637 -1.9683
   16MOL0     H 2077   1.622   9.743  12.283  0.0729  0.2544 -0.2071
   16MOL0     H 2078   1.476   9.904  12.340 -1.3832  0.9884  1.0052
   16MOL0     H 2079   1.474   9.908  12.163 -0.1196  2.7925 -1.0667
   16MOL0     H 2080   1.313  10.075  12.223  0.0745  0.8398 -1.2005
   16MOL0     H 2081   1.449  10.174  12.207 -1.9986  2.5358  0.7726
   16MOL0     H 2082   1.485  10.130  12.474  0.2367  0.8704 -1.0560
   16MOL0     H 2083   1.315  10.071  12.463  1.4560 -1.2082  1.4900
   16MOL0     H 2084   1.351  10.333  12.532 -1.2793 -1.0522  0.5715
   16MOL0     H 2085   1.395  10.332  12.361  0.5522 -0.5282 -0.0867
   16MOL0     H 2086   1.120  10.280  12.501 -1.4979  2.6182 -0.3796
   16MOL0     H 2087   1.150  10.227  12.333  0.9546 -0.6586  0.3380
   16MOL0     H 2088   1.216  10.443  12.271 -0.2464  0.0103 -0.5211
   16MOL0     H 2089   1.176  10.516  12.433 -0.7133 -0.3767  2.6241
   16MOL0     H 2090   0.991  10.399  12.224  0.3706  2.6301 -1.8807
   16MOL0     H 2091   0.940  10.395  12.399 -0.9256  0.7758 -1.7507
   16MOL0     H 2092   1.002  10.637  12.237  0.5244  1.8376  0.5412
   16MOL0     H 2093   0.954  10.641  12.417  2.7693  2.2038 -0.8511
   16MOL0     H 2094   1.834  10.059  12.108 -1.3289  0.4121 -0.0142
   16MOL0     H 2095   1.969   9.898  11.960 -0.3461  0.0344 -1.8118
   16MOL0     H 2096   2.032   9.409  11.967  2.7084  1.6696  2.1289
   16MOL0     H 2097   2.142   9.208  11.891 -0.6429 -1.3739 -1.9271
   16MOL0     H 2098   3.618   8.775  11.132  3.3671  2.9290 -0.1014
   16MOL0     H 2099   3.869   8.718  11.125  2.9895  0.5409 -1.8508
   16MOL0     H 2100   4.337   8.739  11.039  0.1071  1.0643 -0.4968
   16MOL0     H 2101   4.561   8.632  11.006  1.7494 -0.9147 -0.9598
   16MOL0     H 2102   4.619   8.234  10.906  0.6372 -0.8211  0.9919
   16MOL0     H 2103   4.638   8.354  11.039  0.2971  1.6808 -0.7562
   16MOL0     H 2104   4.850   8.294  10.835  0.8165 -0.7023  0.0501
   16MOL0     H 2105   4.853   8.421  10.945 -1.7463  1.0069 -2.1000
   16MOL0     H 2106   4.810   8.112  10.995  0.7965 -1.7224  2.5742
   16MOL0     H 2107   4.824   8.211  11.127 -1.0794  0.1436  0.8456
   16MOL0     H 2108   5.051   8.160  10.936 -0.7278  1.7284 -1.3143
   16MOL0     H 2109   5.064   8.268  11.074 -2.6350  0.4235 -0.3652
   16MOL0     H 2110   5.125   7.934  11.297  0.0923 -2.8419 -2.4986
   16MOL0     H 2111   4.394   8.322  10.783  2.1504 -1.4416  2.4483
   16MOL0     H 2112   4.169   8.387  10.839 -1.1008  1.1428  1.4759
   17MOL0     O 2113   0.166   9.700   5.727 -0.0011  0.2395  0.4624
   17MOL0     C 2114   0.163   9.823   5.721 -0.2004 -0.5516 -0.1068
   17MOL0     O 2115   0.067   9.907   5.699 -0.4589  0.1311 -0.2817
   17MOL0     C 2116  -0.061   9.859   5.703 -0.1306  0.9874 -0.6165
   17MOL0     C 2117  -0.110   9.769   5.796 -0.3175 -0.2290  0.1306
   17MOL0     C 2118  -0.246   9.733   5.793  0.8126 -1.6119  0.3557
   17MOL0     C 2119  -0.330   9.774   5.682  0.1778  0.2408  0.4250
   17MOL0     O 2120  -0.459   9.729   5.661 -0.4012  0.2287 -0.4180
   17MOL0     C 2121  -0.512   9.647   5.765  0.7539  0.7598 -1.4954
   17MOL0     C 2122  -0.647   9.597   5.727  0.9494 -0.1069 -0.2509
   17MOL0     C 2123  -0.750   9.708   5.767 -0.7211  0.3950  0.2731
   17MOL0     C 2124  -0.902   9.664   5.751 -0.3050 -0.0456  0.0477
   17MOL0     C 2125  -1.007   9.757   5.814 -0.0118  0.3467  0.5199
   17MOL0     C 2126  -1.020   9.708   5.959 -0.8633  1.0598  0.4832
   17MOL0     C 2127  -1.125   9.793   6.025  0.4361  0.0028 -0.4854
   17MOL0     C 2128  -1.274   9.746   6.027  0.0420 -0.5233  0.3091
   17MOL0     N 2129  -1.337   9.783   5.899  0.3352  0.0116 -0.3613
   17MOL0     C 2130  -1.412   9.693   5.826  1.2946  0.0088  0.0330
   17MOL0     C 2131  -1.489   9.772   5.741  0.9021  0.1109 -0.0343
   17MOL0     C 2132  -1.600   9.724   5.662  0.1277  0.0123 -1.0556
   17MOL0     C 2133  -1.701   9.660   5.760 -0.3980  0.1876 -0.6537
   17MOL0     C 2134  -1.789   9.548   5.704  0.1557 -0.6033 -0.3802
   17MOL0     C 2135  -1.926   9.541   5.774 -0.6610  0.1221 -0.1110
   17MOL0     O 2136  -1.997   9.436   5.717  0.0278  0.7286  0.3728
   17MOL0     C 2137  -2.130   9.425   5.749  0.3593 -0.0464 -0.4324
   17MOL0     C 2138  -2.184   9.306   5.708  0.3505  0.6787 -0.4082
   17MOL0     C 2139  -2.309   9.267   5.745  1.1128  0.5482 -0.4687
   17MOL0     C 2140  -2.388   9.360   5.822  0.1259 -0.2995 -0.3610
   17MOL0     C 2141  -2.528   9.331   5.852 -0.3730 -0.3374 -0.1744
   17MOL0     O 2142  -2.576   9.370   5.970 -0.2883  0.2475 -0.3754
   17MOL0     C 2143  -2.696   9.341   6.004  0.9618  0.3372 -0.5035
   17MOL0     C 2144  -2.722   9.266   6.112  0.4200  0.7265 -0.5064
   17MOL0     C 2145  -2.853   9.236   6.166  0.3024  0.1774  0.1442
   17MOL0     C 2146  -2.964   9.307   6.102  0.0786  0.3222  0.2401
   17MOL0     O 2147  -3.099   9.295   6.130 -0.2996  0.2996 -0.2771
   17MOL0     C 2148  -3.131   9.240   6.261 -0.0037  0.0936 -0.8259
   17MOL0     C 2149  -3.276   9.276   6.304  0.3002  1.4896 -0.9015
   17MOL0     C 2150  -3.382   9.164   6.267 -0.4300 -0.7442  0.9708
   17MOL0     C 2151  -3.519   9.189   6.341  0.1174  0.1432 -0.9044
   17MOL0     C 2152  -3.610   9.063   6.323  0.2687 -0.0129 -0.2768
   17MOL0     C 2153  -3.733   9.030   6.411 -0.4436 -0.4157  0.6339
   17MOL0     C 2154  -3.815   9.157   6.403 -0.3147  0.0594 -0.3998
   17MOL0     C 2155  -3.949   9.135   6.479  0.2072 -0.1871 -0.0459
   17MOL0    Cl 2156  -4.072   9.037   6.395 -0.0474  0.2201  0.7160
   17MOL0     C 2157  -2.934   9.394   5.999 -0.2683 -0.3146  0.0475
   17MOL0     C 2158  -2.809   9.410   5.951 -0.2206 -0.0647 -0.7799
   17MOL0     O 2159  -2.587   9.275   5.768  0.0297  0.6891 -0.3432
   17MOL0     C 2160  -2.326   9.473   5.874  0.3329 -0.7993 -0.1587
   17MOL0     C 2161  -2.195   9.506   5.831  0.7300  0.8603 -1.2763
   17MOL0     N 2162  -1.457   9.905   5.757  0.3015  0.3753 -0.0356
   17MOL0     N 2163  -1.374   9.911   5.859  0.3982 -0.4730  0.1929
   17MOL0     C 2164  -0.270   9.855   5.583  0.1134 -0.4638  0.0848
   17MOL0     C 2165  -0.134   9.902   5.595  0.5627  0.1330 -0.7759
   17MOL0     C 2166   0.298   9.886   5.711 -0.4063  0.9175  1.1520
   17MOL0     C 2167   0.331  10.024   5.720 -0.7543  0.6663  0.6278
   17MOL0     C 2168   0.461  10.076   5.700  0.5597  0.0740 -0.4473
   17MOL0     C 2169   0.561   9.988   5.657  0.9762 -0.6195 -1.1249
   17MOL0     O 2170   0.689  10.015   5.624  0.1688 -0.1919 -0.7911
   17MOL0     C 2171   0.744  10.147   5.631 -0.2746  0.2280  0.2177
   17MOL0     C 2172   0.877  10.132   5.562 -0.5112  0.1039  0.0130
   17MOL0     C 2173   0.980  10.053   5.642  0.2025  0.3440 -0.0172
   17MOL0     C 2174   1.023  10.116   5.773 -1.6218  0.2846 -0.1650
   17MOL0     C 2175   1.075  10.006   5.870  0.1903 -0.5353  0.0845
   17MOL0     C 2176   1.101   9.912   5.942 -0.3126 -0.0082  0.2576
   17MOL0     C 2177   0.537   9.853   5.666  0.4601  0.3718  0.0669
   17MOL0     C 2178   0.408   9.801   5.695 -0.0640 -0.5021  0.5510
   17MOL0     H 2179  -0.042   9.736   5.875 -0.4316 -0.3978  0.1576
   17MOL0     H 2180  -0.292   9.670   5.868 -1.9120  0.8207  0.8776
   17MOL0     H 2181  -0.519   9.689   5.866 -4.7455  0.7787 -1.6232
   17MOL0     H 2182  -0.462   9.550   5.778  0.0707  0.4438 -1.2057
   17MOL0     H 2183  -0.674   9.509   5.786  1.2089  0.3880  0.6098
   17MOL0     H 2184  -0.647   9.583   5.618 -1.7068 -0.5409 -0.2573
   17MOL0     H 2185  -0.737   9.801   5.711 -2.0912  0.0161 -0.7258
   17MOL0     H 2186  -0.731   9.734   5.871  1.5441  1.2772 -0.3053
   17MOL0     H 2187  -0.928   9.662   5.645  0.9683  1.9803 -0.3648
   17MOL0     H 2188  -0.904   9.563   5.792  1.4098  0.5510  1.8190
   17MOL0     H 2189  -1.107   9.744   5.773  1.0287 -2.6133 -1.3767
   17MOL0     H 2190  -0.977   9.862   5.824  1.0365  0.2027 -0.8401
   17MOL0     H 2191  -0.925   9.709   6.012 -0.3701  2.9918 -0.3794
   17MOL0     H 2192  -1.056   9.604   5.960 -0.2330  0.8419  0.8313
   17MOL0     H 2193  -1.099   9.806   6.131  2.2865 -0.1968 -0.8849
   17MOL0     H 2194  -1.118   9.892   5.978 -0.4892  1.0462  1.4268
   17MOL0     H 2195  -1.334   9.803   6.098  0.7162 -2.8353  2.9319
   17MOL0     H 2196  -1.288   9.641   6.052 -0.3628 -0.2877  1.0925
   17MOL0     H 2197  -1.431   9.591   5.855 -1.4670  0.8106  1.4188
   17MOL0     H 2198  -1.561   9.654   5.588  1.5596  1.5667 -1.8314
   17MOL0     H 2199  -1.657   9.803   5.611 -1.5015 -1.4546 -1.6155
   17MOL0     H 2200  -1.750   9.748   5.802 -0.6286 -0.2636  0.0490
   17MOL0     H 2201  -1.641   9.619   5.842 -0.5514 -0.0768 -0.6712
   17MOL0     H 2202  -1.792   9.562   5.596  3.3119 -1.0145 -0.6253
   17MOL0     H 2203  -1.734   9.455   5.726  2.4659  0.5316 -1.0341
   17MOL0     H 2204  -1.972   9.638   5.753 -0.9419 -0.0891 -0.4777
   17MOL0     H 2205  -1.903   9.527   5.880  2.9739 -1.0654 -0.9017
   17MOL0     H 2206  -2.141   9.241   5.632  0.1450  0.4444 -0.3266
   17MOL0     H 2207  -2.334   9.170   5.705  1.1063  0.1586  0.4598
   17MOL0     H 2208  -2.641   9.217   6.166 -0.8461 -0.1644  0.6648
   17MOL0     H 2209  -2.868   9.163   6.245 -0.7202 -1.4335 -1.4709
   17MOL0     H 2210  -3.068   9.286   6.337  0.7737 -2.5752  0.2734
   17MOL0     H 2211  -3.110   9.132   6.267  1.6814  0.4639  2.9927
   17MOL0     H 2212  -3.305   9.369   6.255  2.0202  2.1338 -0.7428
   17MOL0     H 2213  -3.284   9.284   6.412 -1.7937 -0.2679 -0.8614
   17MOL0     H 2214  -3.333   9.067   6.274  1.4124  0.1025  0.4366
   17MOL0     H 2215  -3.404   9.172   6.160 -0.2434  3.3514  1.0976
   17MOL0     H 2216  -3.507   9.210   6.448 -2.4182  0.1267 -0.5422
   17MOL0     H 2217  -3.554   9.280   6.292  1.0113  2.0270  1.6956
   17MOL0     H 2218  -3.535   8.985   6.340  2.3467  1.9495  0.0832
   17MOL0     H 2219  -3.648   9.079   6.222  0.0230  1.2413  0.0008
   17MOL0     H 2220  -3.686   9.002   6.506  1.8941 -3.3739 -1.1839
   17MOL0     H 2221  -3.787   8.949   6.362 -2.6536  2.9031 -2.9922
   17MOL0     H 2222  -3.758   9.235   6.455 -0.0740 -0.3472 -0.0416
   17MOL0     H 2223  -3.827   9.196   6.302  1.4083 -1.3678 -1.2236
   17MOL0     H 2224  -3.981   9.240   6.486 -0.0251  0.1376 -3.6581
   17MOL0     H 2225  -3.951   9.112   6.585 -0.1385  0.5163  0.1067
   17MOL0     H 2226  -3.019   9.444   5.953  0.7610  2.3299  0.8891
   17MOL0     H 2227  -2.808   9.469   5.860  1.1584  1.6789  0.3037
   17MOL0     H 2228  -2.383   9.539   5.938  0.3993  1.0974 -1.9651
   17MOL0     H 2229  -2.160   9.601   5.871 -2.0432  0.7040  1.9599
   17MOL0     H 2230  -0.323   9.887   5.493  0.9772  1.8154  0.3176
   17MOL0     H 2231  -0.080   9.961   5.522  1.8586 -0.1064 -0.0425
   17MOL0     H 2232   0.245  10.084   5.749 -1.1151  1.4233 -1.8125
   17MOL0     H 2233   0.492  10.179   5.701  0.6079  0.2677  4.6346
   17MOL0     H 2234   0.746  10.181   5.735  1.1935 -0.5388  0.4708
   17MOL0     H 2235   0.677  10.204   5.566 -1.9298 -2.4829 -0.6384
   17MOL0     H 2236   0.862  10.066   5.476  1.5518 -2.7073  1.6515
   17MOL0     H 2237   0.917  10.227   5.525 -3.4077  0.9236 -1.3223
   17MOL0     H 2238   1.068  10.029   5.582 -0.0086  0.2422 -0.2897
   17MOL0     H 2239   0.936   9.956   5.668 -0.0226  0.1872 -0.9307
   17MOL0     H 2240   1.098  10.195   5.761 -0.9865  0.1545  2.4341
   17MOL0     H 2241   0.933  10.159   5.815 -2.0385 -1.7971  1.2145
   17MOL0     H 2242   1.140   9.830   6.000 -1.5468 -0.7175  0.1080
   17MOL0     H 2243   0.621   9.785   5.663  0.8560  0.8172  0.7829
   17MOL0     H 2244   0.405   9.693   5.696  0.8176 -0.6744 -2.9640
   18MOL0     O 2245   5.352   0.586  10.754  0.4151 -0.1198 -0.1683
   18MOL0     C 2246   5.348   0.618  10.631  0.4634  0.2810 -0.9025
   18MOL0     O 2247   5.453   0.654  10.567 -0.2350 -0.0787 -0.6625
   18MOL0     C 2248   5.568   0.672  10.648  0.1326 -0.2602 -0.3345
   18MOL0     C 2249   5.602   0.797  10.705 -0.3949  0.7322  0.3811
   18MOL0     C 2250   5.724   0.812  10.777  0.3091 -0.5892  0.1051
   18MOL0     C 2251   5.800   0.700  10.792  0.2439  0.7421 -0.4653
   18MOL0     O 2252   5.926   0.715  10.862  0.3526 -0.4631 -0.0393
   18MOL0     C 2253   5.993   0.844  10.866 -0.3608 -0.8613  0.1590
   18MOL0     C 2254   6.029   0.892  10.721 -0.5705 -0.3606  0.0535
   18MOL0     C 2255   6.117   1.012  10.731  0.3474 -0.0365  0.3849
   18MOL0     C 2256   6.100   1.105  10.614 -0.3138 -1.0074 -0.3069
   18MOL0     C 2257   6.168   1.238  10.634 -0.7152  0.2420 -0.0820
   18MOL0     C 2258   6.136   1.337  10.519 -0.2545  0.3673 -0.6228
   18MOL0     C 2259   6.233   1.456  10.503 -0.2298 -0.2489 -0.6433
   18MOL0     C 2260   6.191   1.537  10.377  0.2868  0.5725 -0.1047
   18MOL0     N 2261   6.062   1.612  10.392 -0.5156  0.2029 -0.1887
   18MOL0     C 2262   5.982   1.632  10.283 -0.9636 -0.5896  0.0486
   18MOL0     C 2263   5.890   1.725  10.323 -0.6494  0.2042 -1.2441
   18MOL0     C 2264   5.769   1.786  10.251 -0.5964 -0.3905 -0.3463
   18MOL0     C 2265   5.794   1.927  10.200 -0.1946  0.9391  0.2647
   18MOL0     C 2266   5.691   1.967  10.096 -0.0295 -0.8069 -0.5868
   18MOL0     C 2267   5.542   1.947  10.134 -0.4127  0.1601  0.3433
   18MOL0     O 2268   5.500   2.036  10.236  0.9865 -0.8393 -0.1759
   18MOL0     C 2269   5.364   2.062  10.237  0.2858  0.2666 -0.8511
   18MOL0     C 2270   5.308   2.157  10.322  0.2453  0.0738 -0.2008
   18MOL0     C 2271   5.169   2.173  10.326 -0.2698  0.1847 -0.6087
   18MOL0     C 2272   5.083   2.085  10.254 -0.5248  0.0978 -0.5772
   18MOL0     C 2273   4.939   2.116  10.247 -0.5630  0.4274 -0.1387
   18MOL0     O 2274   4.898   2.230  10.313 -0.1770 -0.4436  0.0319
   18MOL0     C 2275   4.758   2.238  10.335  0.1604  0.1070 -0.6315
   18MOL0     C 2276   4.657   2.266  10.241  0.4511 -0.2964 -0.3317
   18MOL0     C 2277   4.520   2.271  10.279 -1.0003  0.2033 -0.4388
   18MOL0     C 2278   4.476   2.248  10.411 -0.3487  0.1816 -0.3784
   18MOL0     O 2279   4.341   2.271  10.437 -0.7793 -0.1700 -0.6087
   18MOL0     C 2280   4.316   2.250  10.577  0.6839 -0.7752  0.0188
   18MOL0     C 2281   4.180   2.296  10.605 -0.1389  0.1098  0.8758
   18MOL0     C 2282   4.074   2.189  10.562 -0.6275  1.0104  0.6802
   18MOL0     C 2283   3.943   2.235  10.633 -0.6960 -0.5309 -0.3680
   18MOL0     C 2284   3.821   2.154  10.593  0.8894 -0.7385 -0.1346
   18MOL0     C 2285   3.727   2.118  10.713  0.1625 -0.8067 -0.6075
   18MOL0     C 2286   3.623   2.018  10.703 -0.2866 -0.1531 -0.6922
   18MOL0     C 2287   3.499   2.045  10.620 -0.3359 -0.3590  0.3554
   18MOL0    Cl 2288   3.425   2.197  10.674  0.0960 -0.3815 -0.4082
   18MOL0     C 2289   4.581   2.225  10.504 -0.1416  0.2869 -0.2201
   18MOL0     C 2290   4.718   2.231  10.474 -0.6497 -0.2305 -0.3063
   18MOL0     O 2291   4.866   2.036  10.187 -0.3486 -0.3262  0.2613
   18MOL0     C 2292   5.137   1.984  10.183 -0.7270  0.2768  0.2924
   18MOL0     C 2293   5.273   1.978  10.168 -0.0384 -0.4482 -0.1833
   18MOL0     N 2294   5.919   1.754  10.452 -0.4741  0.4679 -0.2541
   18MOL0     N 2295   6.022   1.687  10.497  0.5084  0.9525 -0.5802
   18MOL0     C 2296   5.760   0.575  10.750  0.2145  0.4157 -0.9848
   18MOL0     C 2297   5.644   0.562  10.679 -0.1176 -0.4849  0.1695
   18MOL0     C 2298   5.218   0.636  10.561 -0.3743  1.4014 -0.9764
   18MOL0     C 2299   5.211   0.685  10.430 -0.5315 -0.7945  0.4062
   18MOL0     C 2300   5.084   0.709  10.372 -0.5481 -0.3878 -0.7741
   18MOL0     C 2301   4.968   0.673  10.442 -0.1650 -0.9060 -0.3700
   18MOL0     O 2302   4.842   0.672  10.390  0.1718 -0.1792 -0.2272
   18MOL0     C 2303   4.822   0.718  10.255 -0.0900  0.0117  0.6922
   18MOL0     C 2304   4.677   0.751  10.238  0.6857  1.4292  1.1259
   18MOL0     C 2305   4.650   0.826  10.110  0.1283 -0.5408 -0.3070
   18MOL0     C 2306   4.502   0.825  10.068  0.0704  0.3850  0.4007
   18MOL0     C 2307   4.411   0.905  10.152 -1.1620 -0.8276 -0.6275
   18MOL0     C 2308   4.339   0.945  10.235 -0.1385 -0.3127 -0.3534
   18MOL0     C 2309   4.977   0.629  10.576  0.4665 -0.5214 -0.1141
   18MOL0     C 2310   5.100   0.599  10.632  0.4442  0.3339 -0.1533
   18MOL0     H 2311   5.526   0.875  10.706  0.5434  1.6785  1.8158
   18MOL0     H 2312   5.752   0.912  10.810  1.0694 -0.8441  0.2520
   18MOL0     H 2313   6.088   0.835  10.919 -1.0740 -0.3590  1.5691
   18MOL0     H 2314   5.936   0.915  10.927 -0.7492  0.1320 -1.3180
   18MOL0     H 2315   5.937   0.919  10.669  0.2186  0.9724 -0.7157
   18MOL0     H 2316   6.080   0.811  10.668 -0.9473 -0.3353 -0.3566
   18MOL0     H 2317   6.218   0.971  10.726  0.0417 -1.4937  3.7896
   18MOL0     H 2318   6.107   1.065  10.826 -1.2143  0.2861  0.0762
   18MOL0     H 2319   6.141   1.070  10.519  1.3908  5.2904 -2.4409
   18MOL0     H 2320   5.993   1.128  10.603 -0.1917  0.1290  0.6763
   18MOL0     H 2321   6.276   1.224  10.645 -0.4857  2.1777  0.6867
   18MOL0     H 2322   6.136   1.283  10.729  1.9518 -2.6925  2.4422
   18MOL0     H 2323   6.030   1.365  10.530 -0.7487 -1.1877 -1.2374
   18MOL0     H 2324   6.141   1.285  10.423  2.7931  0.3798 -0.5665
   18MOL0     H 2325   6.228   1.524  10.588  3.1578  1.3322 -1.5582
   18MOL0     H 2326   6.336   1.422  10.493  1.2757  2.9312  2.2427
   18MOL0     H 2327   6.183   1.476  10.286  2.6796 -2.3295  1.4330
   18MOL0     H 2328   6.275   1.605  10.359  1.2051  0.4034  2.9657
   18MOL0     H 2329   5.996   1.593  10.183 -1.4185  2.4489 -1.3464
   18MOL0     H 2330   5.691   1.775  10.326  1.2318 -0.0154  1.7141
   18MOL0     H 2331   5.760   1.728  10.159  2.4672 -0.7071 -0.5583
   18MOL0     H 2332   5.893   1.918  10.155 -1.6741 -0.5661 -3.0288
   18MOL0     H 2333   5.798   2.002  10.279 -3.3858  0.8131  0.6587
   18MOL0     H 2334   5.707   2.073  10.074  2.7530 -0.9220  0.5815
   18MOL0     H 2335   5.716   1.908  10.007 -1.9882 -1.3875 -0.7981
   18MOL0     H 2336   5.532   1.845  10.170  2.1286 -0.7391 -1.2090
   18MOL0     H 2337   5.490   1.968  10.040  3.6997 -1.1855 -2.5389
   18MOL0     H 2338   5.370   2.225  10.379 -0.4992 -0.6025  1.4989
   18MOL0     H 2339   5.136   2.264  10.374  0.5861 -0.0604  0.4819
   18MOL0     H 2340   4.684   2.281  10.137 -0.5666  1.0159 -0.4269
   18MOL0     H 2341   4.457   2.287  10.193  1.5112  1.0384 -2.2481
   18MOL0     H 2342   4.375   2.321  10.636  0.8554 -2.0136  1.4177
   18MOL0     H 2343   4.318   2.145  10.609 -0.1730  0.1926  3.8398
   18MOL0     H 2344   4.163   2.389  10.551  1.2114 -0.7812 -1.2172
   18MOL0     H 2345   4.162   2.310  10.712 -0.7710 -0.6723  0.8770
   18MOL0     H 2346   4.099   2.090  10.602  2.4342  0.8685 -1.3091
   18MOL0     H 2347   4.059   2.184  10.454  0.1416 -1.0268  0.6299
   18MOL0     H 2348   3.957   2.221  10.740  3.3611 -1.1923 -0.8409
   18MOL0     H 2349   3.931   2.340  10.603 -3.3109 -0.1459  1.6644
   18MOL0     H 2350   3.866   2.065  10.546  2.2886  0.9187 -2.1500
   18MOL0     H 2351   3.765   2.202  10.512  1.6957 -2.0380 -1.5185
   18MOL0     H 2352   3.682   2.213  10.744  2.1236 -0.9153  3.1619
   18MOL0     H 2353   3.786   2.101  10.803 -0.5468  0.6781  0.1756
   18MOL0     H 2354   3.675   1.927  10.670 -0.4521 -0.8388  0.8584
   18MOL0     H 2355   3.600   2.000  10.808 -0.0939 -1.0329 -0.7886
   18MOL0     H 2356   3.434   1.960  10.646 -0.5501  0.4500  2.6706
   18MOL0     H 2357   3.515   2.050  10.512  0.0823 -0.0647  0.4314
   18MOL0     H 2358   4.550   2.199  10.605 -2.5811 -0.5331 -1.1219
   18MOL0     H 2359   4.800   2.208  10.541  0.6707 -0.8976 -2.0582
   18MOL0     H 2360   5.083   1.897  10.146  2.4488 -1.4585 -0.5727
   18MOL0     H 2361   5.310   1.893  10.112 -2.9235 -0.2240 -2.6981
   18MOL0     H 2362   5.821   0.486  10.765 -0.6114 -0.1615 -0.9316
   18MOL0     H 2363   5.619   0.468  10.630 -0.7734 -1.2538  1.9125
   18MOL0     H 2364   5.300   0.711  10.373 -2.6818 -0.4055 -3.0794
   18MOL0     H 2365   5.079   0.755  10.274 -0.2699  0.9053 -0.1877
   18MOL0     H 2366   4.852   0.636  10.188  0.1714 -0.8260  1.8045
   18MOL0     H 2367   4.883   0.806  10.231 -2.6323  1.2882 -1.5714
   18MOL0     H 2368   4.621   0.657  10.240 -0.6697  2.2205  2.0071
   18MOL0     H 2369   4.647   0.819  10.318 -0.9194  2.2554 -0.1281
   18MOL0     H 2370   4.711   0.784  10.030 -0.7398  2.3453 -2.6518
   18MOL0     H 2371   4.675   0.932  10.124  0.1134 -0.3015 -1.9635
   18MOL0     H 2372   4.490   0.856   9.963 -0.7782 -1.9112 -0.2407
   18MOL0     H 2373   4.462   0.724  10.075 -0.9504  0.4754 -2.5709
   18MOL0     H 2374   4.277   0.982  10.314  1.5490  1.7736  0.0828
   18MOL0     H 2375   4.880   0.604  10.618  0.3500 -1.5627 -0.9617
   18MOL0     H 2376   5.112   0.558  10.732 -2.1440 -2.8180 -0.9619
   19MOL0     O 2377   6.764   9.342  10.317  0.0873 -0.1934  0.4704
   19MOL0     C 2378   6.790   9.460  10.288  1.3855  0.8167  0.6167
   19MOL0     O 2379   6.696   9.548  10.249  0.0599 -0.0570  0.1109
   19MOL0     C 2380   6.564   9.513  10.265 -0.4314  0.2119  0.0369
   19MOL0     C 2381   6.485   9.524  10.150  0.7004  0.8013  0.3580
   19MOL0     C 2382   6.358   9.463  10.141  1.4792 -0.5549  0.6208
   19MOL0     C 2383   6.300   9.397  10.254 -0.5529 -0.4110 -0.2483
   19MOL0     O 2384   6.192   9.316  10.262  0.2387 -0.2341  0.1555
   19MOL0     C 2385   6.157   9.263  10.132 -0.6163 -0.1982  0.7006
   19MOL0     C 2386   6.057   9.151  10.140 -0.4796  0.7756 -0.7707
   19MOL0     C 2387   5.915   9.200  10.179  0.6334 -0.2066  0.0643
   19MOL0     C 2388   5.814   9.091  10.151  0.4272  0.0585 -0.0079
   19MOL0     C 2389   5.682   9.109  10.237 -0.4548  0.6519  0.4470
   19MOL0     C 2390   5.571   9.021  10.183 -0.4354 -0.6135 -0.7827
   19MOL0     C 2391   5.451   9.057  10.251  0.2305 -0.6663  0.8853
   19MOL0     C 2392   5.403   9.194  10.207 -0.0099 -0.0503 -0.2611
   19MOL0     N 2393   5.315   9.174  10.098  0.0366 -0.2017 -0.2089
   19MOL0     C 2394   5.183   9.140  10.115 -0.1892  0.3590 -0.1266
   19MOL0     C 2395   5.131   9.174  10.000  0.3621 -0.3702  1.6388
   19MOL0     C 2396   4.982   9.196   9.960 -0.3009  0.0108 -0.4135
   19MOL0     C 2397   4.923   9.082   9.869  0.3525  0.2308 -0.1453
   19MOL0     C 2398   4.768   9.097   9.849  0.1288 -0.4914  1.3622
   19MOL0     C 2399   4.727   9.232   9.773  0.0041 -0.4658  0.4028
   19MOL0     O 2400   4.594   9.222   9.714  0.8450  0.7503  0.0908
   19MOL0     C 2401   4.478   9.214   9.790  0.6490 -0.2122  0.2229
   19MOL0     C 2402   4.365   9.185   9.728  0.0543  0.6091  0.1994
   19MOL0     C 2403   4.235   9.180   9.783 -0.9928  0.3834 -0.3044
   19MOL0     C 2404   4.227   9.183   9.927  0.2151 -0.1160  1.2057
   19MOL0     C 2405   4.095   9.144   9.988 -0.2832  0.7030  1.1330
   19MOL0     O 2406   3.989   9.132   9.901  0.1514 -0.2128 -0.3938
   19MOL0     C 2407   3.859   9.127   9.954 -0.1540  0.3232  0.1051
   19MOL0     C 2408   3.812   9.001   9.992  0.2919  0.2027 -0.7681
   19MOL0     C 2409   3.681   8.991  10.044  0.1624  0.4009  0.4580
   19MOL0     C 2410   3.602   9.103  10.064  0.1426 -0.3239  0.2085
   19MOL0     O 2411   3.470   9.081  10.102 -0.0262 -0.2003  0.2209
   19MOL0     C 2412   3.455   9.035  10.242  0.4363  0.1390  0.7725
   19MOL0     C 2413   3.320   9.081  10.294 -0.8506  0.0746  0.4748
   19MOL0     C 2414   3.324   9.223  10.344  1.3825 -0.6252 -0.5402
   19MOL0     C 2415   3.180   9.274  10.377 -0.8443 -0.6323 -0.3622
   19MOL0     C 2416   3.083   9.281  10.272  0.3293 -0.9427  0.2600
   19MOL0     C 2417   2.952   9.352  10.310  0.5993  0.3977  0.4407
   19MOL0     C 2418   2.856   9.258  10.385 -0.3144 -0.9850  0.7596
   19MOL0     C 2419   2.726   9.331  10.409  0.5346 -0.5018  0.7621
   19MOL0    Cl 2420   2.695   9.376  10.573 -0.4202  0.1955 -0.4462
   19MOL0     C 2421   3.642   9.226  10.020  0.1876 -0.0158  0.6704
   19MOL0     C 2422   3.774   9.238   9.970  0.3165 -0.3564 -0.6125
   19MOL0     O 2423   4.096   9.119  10.109  0.3476  0.4507 -0.6191
   19MOL0     C 2424   4.339   9.203   9.998 -0.3996  0.7603  0.6252
   19MOL0     C 2425   4.462   9.220   9.934 -0.3767 -0.2782  0.3074
   19MOL0     N 2426   5.227   9.205   9.908  0.8070  0.0756  0.4608
   19MOL0     N 2427   5.341   9.200   9.968  0.2193 -0.4374  0.3102
   19MOL0     C 2428   6.369   9.402  10.370  0.9117 -0.1481 -0.7870
   19MOL0     C 2429   6.501   9.458  10.376  0.1185  0.4050  0.2999
   19MOL0     C 2430   6.933   9.508  10.295  0.6913  0.2021 -0.3769
   19MOL0     C 2431   6.975   9.636  10.269 -0.5380  0.0708 -0.0420
   19MOL0     C 2432   7.104   9.668  10.293 -0.2506  0.0371  0.4440
   19MOL0     C 2433   7.199   9.583  10.343 -0.3017 -0.0018 -0.1568
   19MOL0     O 2434   7.327   9.638  10.353 -0.2272  0.9712 -0.1106
   19MOL0     C 2435   7.436   9.553  10.390  0.1464  0.7131 -0.5065
   19MOL0     C 2436   7.570   9.632  10.380  0.6634 -0.2667  0.6564
   19MOL0     C 2437   7.595   9.705  10.248 -0.4143 -0.0090 -0.5734
   19MOL0     C 2438   7.729   9.765  10.225 -0.0990  0.9728  0.0069
   19MOL0     C 2439   7.828   9.658  10.238  0.3844 -0.1220 -0.6920
   19MOL0     C 2440   7.912   9.574  10.233 -0.6598 -0.2952 -0.2456
   19MOL0     C 2441   7.156   9.456  10.379  0.1477  0.1092  0.3050
   19MOL0     C 2442   7.026   9.424  10.359  0.1823 -0.6809  1.5158
   19MOL0     H 2443   6.531   9.584  10.072  1.7463  2.5098  2.1955
   19MOL0     H 2444   6.300   9.461  10.049 -0.3283 -1.6517  1.7188
   19MOL0     H 2445   6.247   9.234  10.076 -0.0442 -0.3695  1.6996
   19MOL0     H 2446   6.107   9.340  10.072  0.6707  1.0362  1.1701
   19MOL0     H 2447   6.091   9.074  10.209 -0.2869  1.9296  0.4751
   19MOL0     H 2448   6.061   9.106  10.041  0.6237 -0.8521 -0.0256
   19MOL0     H 2449   5.896   9.291  10.122  1.7359  0.2719  0.4189
   19MOL0     H 2450   5.917   9.216  10.288  1.6143 -3.3513  0.5944
   19MOL0     H 2451   5.781   9.115  10.050 -0.5464 -1.7158 -0.1415
   19MOL0     H 2452   5.860   8.992  10.156  1.3986  0.2426 -3.0929
   19MOL0     H 2453   5.663   9.217  10.236 -1.4970  0.4705  0.2784
   19MOL0     H 2454   5.712   9.079  10.338 -0.3427 -1.0746 -0.0691
   19MOL0     H 2455   5.601   8.917  10.199 -3.2654 -1.5409 -1.0621
   19MOL0     H 2456   5.545   9.032  10.077 -2.8325  0.7886 -0.1290
   19MOL0     H 2457   5.367   8.988  10.239 -1.8162  1.8315 -0.2426
   19MOL0     H 2458   5.475   9.065  10.358  3.1629  1.9495  0.1726
   19MOL0     H 2459   5.477   9.269  10.178  0.7475  0.5305  2.8352
   19MOL0     H 2460   5.346   9.246  10.285  0.5622 -2.1228  1.6316
   19MOL0     H 2461   5.123   9.111  10.201  1.6889 -0.2434  1.0525
   19MOL0     H 2462   4.977   9.295   9.914 -0.9425  0.1067 -0.1530
   19MOL0     H 2463   4.923   9.201  10.052  1.7780 -4.2205  1.4546
   19MOL0     H 2464   4.929   8.991   9.929  0.8918  0.1972 -0.2490
   19MOL0     H 2465   4.974   9.071   9.773  0.1899 -3.4776  0.0391
   19MOL0     H 2466   4.732   9.019   9.781  2.3620 -1.5116  1.2606
   19MOL0     H 2467   4.722   9.086   9.948  0.0739 -0.6711  1.3176
   19MOL0     H 2468   4.809   9.255   9.704 -0.2412 -0.5002  0.0960
   19MOL0     H 2469   4.736   9.315   9.844 -1.5122  0.6374 -0.6262
   19MOL0     H 2470   4.371   9.187   9.620 -1.1507 -1.6659  0.0411
   19MOL0     H 2471   4.154   9.142   9.722 -0.4455 -0.3603 -0.5783
   19MOL0     H 2472   3.882   8.918   9.998 -0.1833 -0.1734 -0.3351
   19MOL0     H 2473   3.650   8.892  10.077  2.1284 -0.5260 -0.2860
   19MOL0     H 2474   3.539   9.069  10.302 -0.0245  1.0169  0.9389
   19MOL0     H 2475   3.453   8.926  10.244  0.0713  0.1516  3.3283
   19MOL0     H 2476   3.287   9.018  10.377  0.3193 -3.7997 -1.7721
   19MOL0     H 2477   3.259   9.051  10.208  1.9682  1.0593 -2.0173
   19MOL0     H 2478   3.367   9.284  10.263  2.2764 -0.0360  0.3614
   19MOL0     H 2479   3.385   9.231  10.434  0.9839 -1.4573 -0.1788
   19MOL0     H 2480   3.141   9.220  10.464  0.0145  1.6042  1.5382
   19MOL0     H 2481   3.201   9.379  10.403 -1.5744 -1.2436  3.2159
   19MOL0     H 2482   3.053   9.185  10.230 -3.0721  0.8344 -1.8935
   19MOL0     H 2483   3.123   9.336  10.186  2.1126 -3.1176 -0.3890
   19MOL0     H 2484   2.893   9.387  10.226 -1.4803  3.7359  3.0182
   19MOL0     H 2485   2.979   9.439  10.371  4.3052  0.8955 -1.6052
   19MOL0     H 2486   2.837   9.175  10.317 -1.0471 -0.6694  0.5681
   19MOL0     H 2487   2.893   9.225  10.483  1.0073 -3.6261 -0.5374
   19MOL0     H 2488   2.642   9.265  10.386 -0.4230 -0.2786  3.2256
   19MOL0     H 2489   2.719   9.421  10.348 -0.5677 -0.2236  1.2798
   19MOL0     H 2490   3.572   9.308  10.014 -0.1573 -0.2558  1.3165
   19MOL0     H 2491   3.820   9.330   9.934 -2.5980  1.1830 -0.6608
   19MOL0     H 2492   4.322   9.218  10.104 -0.8686  0.2463  0.6227
   19MOL0     H 2493   4.549   9.238   9.996  0.7252  0.9484 -1.5171
   19MOL0     H 2494   6.329   9.366  10.464  1.9875  0.1948 -0.1818
   19MOL0     H 2495   6.542   9.467  10.476 -1.6749  0.9322  1.0252
   19MOL0     H 2496   6.908   9.706  10.219  0.2605  1.0701  0.2530
   19MOL0     H 2497   7.142   9.764  10.259 -2.7253  0.5771 -1.0695
   19MOL0     H 2498   7.433   9.460  10.332 -0.7110  1.3916 -1.5973
   19MOL0     H 2499   7.428   9.528  10.496 -1.8426 -1.7165 -1.1477
   19MOL0     H 2500   7.575   9.706  10.461 -0.4279 -2.3377  2.7640
   19MOL0     H 2501   7.654   9.567  10.404 -0.1515 -0.6455  2.7819
   19MOL0     H 2502   7.529   9.792  10.244 -0.8726 -0.1789  1.6746
   19MOL0     H 2503   7.577   9.646  10.158  2.0317  2.0108 -2.5185
   19MOL0     H 2504   7.742   9.807  10.125  1.0896  1.0288  0.1668
   19MOL0     H 2505   7.741   9.846  10.299 -0.2193  3.2923 -2.3665
   19MOL0     H 2506   7.982   9.493  10.243 -1.2662 -0.8400 -0.3668
   19MOL0     H 2507   7.216   9.381  10.430 -1.0619 -1.3367 -0.3207
   19MOL0     H 2508   6.997   9.325  10.393 -0.7093  0.0342  2.9628
   20MOL0     O 2509   5.490   3.417   8.360 -0.2876 -0.2950  0.1885
   20MOL0     C 2510   5.503   3.316   8.293 -0.4565  0.4202  0.2110
   20MOL0     O 2511   5.408   3.237   8.232 -0.0513  0.0483  0.4495
   20MOL0     C 2512   5.279   3.274   8.224  0.4098  0.4855  0.1670
   20MOL0     C 2513   5.202   3.256   8.109  0.6467  0.3349 -0.2367
   20MOL0     C 2514   5.062   3.272   8.102 -0.3837 -0.3009 -0.8217
   20MOL0     C 2515   4.996   3.331   8.214 -0.8054 -0.2859  0.7580
   20MOL0     O 2516   4.857   3.362   8.225  0.0660 -0.2714 -0.1647
   20MOL0     C 2517   4.786   3.358   8.096  0.2273  0.0629 -0.0952
   20MOL0     C 2518   4.646   3.405   8.119 -0.0904  0.2703  0.4916
   20MOL0     C 2519   4.569   3.412   7.993 -0.9098 -0.6284  0.1722
   20MOL0     C 2520   4.434   3.471   8.013 -0.5673  0.2716 -0.1651
   20MOL0     C 2521   4.330   3.374   8.064 -0.0966 -0.3844 -0.0390
   20MOL0     C 2522   4.192   3.436   8.056 -0.5341 -0.1411 -0.1631
   20MOL0     C 2523   4.089   3.327   8.023 -0.3171 -0.8345  0.1798
   20MOL0     C 2524   3.953   3.392   7.999 -0.0553  0.5762  0.1402
   20MOL0     N 2525   3.885   3.461   8.111 -0.0457  0.4334 -0.6394
   20MOL0     C 2526   3.874   3.428   8.250  0.7807 -0.5188  0.2108
   20MOL0     C 2527   3.803   3.530   8.311  0.3224  0.0889 -0.6970
   20MOL0     C 2528   3.764   3.523   8.463  0.2533  0.7322 -0.1742
   20MOL0     C 2529   3.644   3.436   8.468 -0.5539 -0.0456  0.0791
   20MOL0     C 2530   3.587   3.402   8.607 -1.0807 -0.2853  0.0142
   20MOL0     C 2531   3.446   3.350   8.617  0.0156 -0.6984  0.4761
   20MOL0     O 2532   3.393   3.377   8.743  0.2198 -0.8501 -0.1646
   20MOL0     C 2533   3.314   3.484   8.769  0.4533 -0.2325 -0.3667
   20MOL0     C 2534   3.261   3.510   8.896 -0.0669 -0.2208  0.1210
   20MOL0     C 2535   3.178   3.612   8.926  0.1934  0.0535 -0.1216
   20MOL0     C 2536   3.137   3.705   8.826  0.2112  0.3788  0.1089
   20MOL0     C 2537   3.046   3.813   8.854  0.4155 -0.8098  0.5946
   20MOL0     O 2538   3.004   3.833   8.982 -0.0323 -0.4134 -0.2102
   20MOL0     C 2539   2.914   3.931   9.022  0.5491  0.0239  0.7655
   20MOL0     C 2540   2.946   4.002   9.139 -0.3353  0.3123  0.2249
   20MOL0     C 2541   2.868   4.106   9.186  0.7835 -0.2185 -0.5879
   20MOL0     C 2542   2.748   4.140   9.123 -0.4025 -0.0023  0.0983
   20MOL0     O 2543   2.675   4.260   9.147  0.1172  0.3271  0.4613
   20MOL0     C 2544   2.636   4.269   9.288  0.2513  0.1179 -0.1661
   20MOL0     C 2545   2.491   4.245   9.311  0.4404  0.2070  0.3617
   20MOL0     C 2546   2.395   4.341   9.242 -0.3524 -0.4771 -0.7419
   20MOL0     C 2547   2.240   4.333   9.277  0.1814  0.6882 -1.0225
   20MOL0     C 2548   2.208   4.374   9.423 -0.1254  0.0901  0.3838
   20MOL0     C 2549   2.052   4.353   9.449 -0.0372  0.9802  0.2993
   20MOL0     C 2550   2.035   4.351   9.592  0.3462 -0.7568  0.9196
   20MOL0     C 2551   1.882   4.357   9.621  0.8090 -0.2623 -0.0415
   20MOL0    Cl 2552   1.865   4.330   9.794 -0.6770 -0.4108  0.1699
   20MOL0     C 2553   2.714   4.068   9.012  0.8851 -0.3396  0.1507
   20MOL0     C 2554   2.789   3.957   8.960  0.2536 -0.1544  0.1586
   20MOL0     O 2555   3.022   3.887   8.767  0.2738 -0.5054 -1.1480
   20MOL0     C 2556   3.195   3.691   8.699 -0.7351  0.6418 -0.2263
   20MOL0     C 2557   3.286   3.586   8.671  0.3843 -0.3378  0.1716
   20MOL0     N 2558   3.763   3.616   8.210 -0.7580  0.5733 -0.5037
   20MOL0     N 2559   3.819   3.582   8.099 -0.6510 -0.0388  0.5732
   20MOL0     C 2560   5.072   3.347   8.334 -0.7124  0.3648 -0.3055
   20MOL0     C 2561   5.211   3.321   8.333  0.2695  0.0705  0.2642
   20MOL0     C 2562   5.650   3.270   8.270 -0.6665  0.0188 -0.1699
   20MOL0     C 2563   5.755   3.327   8.354 -0.0125 -0.1643  0.1036
   20MOL0     C 2564   5.890   3.276   8.354 -0.5837  0.1326 -0.8122
   20MOL0     C 2565   5.919   3.168   8.269 -0.3152 -0.0021  0.5380
   20MOL0     O 2566   6.047   3.123   8.241 -0.5130 -0.3598  0.5522
   20MOL0     C 2567   6.160   3.216   8.262  0.2729  0.6265  0.0285
   20MOL0     C 2568   6.305   3.153   8.254 -0.0775  0.0007 -0.5757
   20MOL0     C 2569   6.339   3.111   8.103  0.4152 -0.1430 -0.9280
   20MOL0     C 2570   6.479   3.056   8.092 -0.2670 -0.5492  1.1593
   20MOL0     C 2571   6.503   2.989   7.962 -0.4956  0.0244  0.9194
   20MOL0     C 2572   6.522   2.934   7.857 -1.2179 -0.6146 -0.5865
   20MOL0     C 2573   5.816   3.100   8.197 -0.0746 -0.9634  0.0484
   20MOL0     C 2574   5.690   3.155   8.191 -0.6743 -0.3510 -0.6888
   20MOL0     H 2575   5.258   3.226   8.021  1.9196  1.8132  0.0121
   20MOL0     H 2576   5.007   3.254   8.011 -0.6076 -0.1942 -0.7087
   20MOL0     H 2577   4.793   3.256   8.057  0.3084 -0.5359  1.3999
   20MOL0     H 2578   4.848   3.416   8.028 -0.1190 -0.8102 -1.1848
   20MOL0     H 2579   4.642   3.505   8.164  3.0283  2.1303 -2.8228
   20MOL0     H 2580   4.590   3.341   8.187  0.5508 -2.4365 -1.3739
   20MOL0     H 2581   4.567   3.312   7.947  1.0578 -0.2042 -0.9307
   20MOL0     H 2582   4.640   3.458   7.923 -0.1732 -3.6271 -1.2192
   20MOL0     H 2583   4.457   3.556   8.077  0.7050 -1.1753  1.3793
   20MOL0     H 2584   4.416   3.509   7.912  1.9131 -0.0569 -0.7967
   20MOL0     H 2585   4.348   3.346   8.168 -0.1657 -0.1037  0.0501
   20MOL0     H 2586   4.332   3.286   7.999 -2.9891  0.2748 -1.1889
   20MOL0     H 2587   4.187   3.522   7.987  1.9988 -2.5209 -3.6948
   20MOL0     H 2588   4.162   3.484   8.150  1.7085  0.6381  0.2117
   20MOL0     H 2589   4.116   3.282   7.927  1.7981 -1.1095  0.8477
   20MOL0     H 2590   4.084   3.254   8.105 -0.5691  0.6659  1.5586
   20MOL0     H 2591   3.889   3.307   7.972  0.3389 -0.2423  1.6248
   20MOL0     H 2592   3.958   3.464   7.918 -0.2187 -0.3648 -0.7294
   20MOL0     H 2593   3.902   3.335   8.299  1.2433 -0.1236  0.7107
   20MOL0     H 2594   3.729   3.620   8.498 -0.7905  0.6056 -0.8044
   20MOL0     H 2595   3.851   3.478   8.511 -0.1559 -2.5657 -2.2163
   20MOL0     H 2596   3.661   3.334   8.432  0.8652  0.2494 -0.1418
   20MOL0     H 2597   3.572   3.483   8.401  2.4496  0.4375 -3.0812
   20MOL0     H 2598   3.650   3.328   8.656 -1.8959 -0.6852  0.4769
   20MOL0     H 2599   3.590   3.499   8.659  1.1518  3.2770 -5.7531
   20MOL0     H 2600   3.446   3.245   8.585  2.5525 -1.3527  2.2645
   20MOL0     H 2601   3.381   3.391   8.539  1.1222  2.5356  1.0939
   20MOL0     H 2602   3.292   3.453   8.983  0.2236 -0.1210  0.0842
   20MOL0     H 2603   3.133   3.616   9.024 -1.0652  0.8325 -0.7105
   20MOL0     H 2604   3.030   3.965   9.197 -0.6007  0.2457  0.5703
   20MOL0     H 2605   2.896   4.156   9.278  0.3942  1.0863 -1.1423
   20MOL0     H 2606   2.651   4.373   9.319 -1.0846  0.0501  0.7824
   20MOL0     H 2607   2.701   4.224   9.363 -4.1591 -3.1519  2.1073
   20MOL0     H 2608   2.462   4.227   9.414 -0.5008 -1.3565 -0.1392
   20MOL0     H 2609   2.452   4.155   9.263 -0.1983  0.6317  0.0651
   20MOL0     H 2610   2.412   4.317   9.137  2.0437 -1.2080 -0.2546
   20MOL0     H 2611   2.413   4.445   9.269 -1.7495 -0.2778 -0.4788
   20MOL0     H 2612   2.183   4.387   9.201 -1.1502  1.9158  0.7579
   20MOL0     H 2613   2.203   4.230   9.270 -0.3497  0.8809 -1.1171
   20MOL0     H 2614   2.227   4.482   9.427  0.9065  0.0310 -1.5848
   20MOL0     H 2615   2.271   4.323   9.496  3.2303  1.0945 -1.5445
   20MOL0     H 2616   2.011   4.263   9.402 -0.9550  1.9018 -0.7053
   20MOL0     H 2617   1.995   4.438   9.411  1.7274  1.4341 -1.5529
   20MOL0     H 2618   2.080   4.262   9.638 -0.8249 -0.8769  1.9189
   20MOL0     H 2619   2.075   4.446   9.628  2.0938 -0.0712 -2.5155
   20MOL0     H 2620   1.825   4.281   9.568  0.3118  0.3967 -0.4788
   20MOL0     H 2621   1.831   4.452   9.599 -1.3063 -1.0691  1.0660
   20MOL0     H 2622   2.617   4.095   8.971  1.2791 -1.2050 -1.4280
   20MOL0     H 2623   2.757   3.908   8.869 -1.6847  0.4470  0.4700
   20MOL0     H 2624   3.170   3.762   8.621 -3.2728 -1.4755 -1.5047
   20MOL0     H 2625   3.317   3.573   8.568  0.0100 -1.1440  0.1534
   20MOL0     H 2626   5.037   3.373   8.433  2.4297  2.8164  0.3320
   20MOL0     H 2627   5.262   3.339   8.428 -1.0220  1.4775  0.7361
   20MOL0     H 2628   5.733   3.412   8.416 -0.1046 -0.5613  0.6224
   20MOL0     H 2629   5.962   3.328   8.416 -1.6540 -0.7721  1.2637
   20MOL0     H 2630   6.147   3.264   8.360 -2.0412 -2.4660  1.3679
   20MOL0     H 2631   6.155   3.291   8.182  0.3558 -0.1878 -0.7449
   20MOL0     H 2632   6.372   3.227   8.298 -0.5208  0.5732 -0.8564
   20MOL0     H 2633   6.308   3.066   8.321 -0.2594  2.0264  2.2770
   20MOL0     H 2634   6.329   3.195   8.034  2.3294  0.6632 -0.2758
   20MOL0     H 2635   6.267   3.034   8.072 -0.0611  1.2097 -3.3899
   20MOL0     H 2636   6.545   3.143   8.098 -3.4785  2.0399  2.0476
   20MOL0     H 2637   6.504   2.983   8.169 -0.2923 -0.8674  0.8677
   20MOL0     H 2638   6.529   2.898   7.756 -0.9840  1.2077 -1.2567
   20MOL0     H 2639   5.844   3.017   8.132  1.6757  0.8739 -1.7088
   20MOL0     H 2640   5.606   3.107   8.141 -0.1374 -0.6895 -1.2807
   21MOL0     O 2641   6.443   8.145   6.619  0.1439  0.5836 -0.1982
   21MOL0     C 2642   6.523   8.226   6.659  0.3153 -0.9756  0.1051
   21MOL0     O 2643   6.492   8.341   6.733 -0.5667 -0.4607 -0.2715
   21MOL0     C 2644   6.359   8.371   6.755 -0.2350 -0.0032  0.2705
   21MOL0     C 2645   6.293   8.461   6.674  0.0492 -0.0067 -0.0334
   21MOL0     C 2646   6.165   8.498   6.695 -0.4648 -0.3448 -0.7701
   21MOL0     C 2647   6.096   8.432   6.801 -0.2123 -0.6547  0.1586
   21MOL0     O 2648   5.961   8.464   6.810 -0.2053  0.5021 -0.4254
   21MOL0     C 2649   5.905   8.511   6.935  0.5773  0.2166 -0.2585
   21MOL0     C 2650   5.754   8.462   6.919  0.2743  0.0301  1.1092
   21MOL0     C 2651   5.687   8.465   7.054  0.1566  0.5431 -0.3050
   21MOL0     C 2652   5.536   8.463   7.040 -0.7651  0.3566  0.5494
   21MOL0     C 2653   5.455   8.539   7.146 -0.8544 -0.1380 -0.0907
   21MOL0     C 2654   5.306   8.524   7.107  0.5105 -0.3540 -0.1618
   21MOL0     C 2655   5.262   8.618   6.992  0.3161  0.5365 -1.1749
   21MOL0     C 2656   5.139   8.565   6.936 -0.5921  0.1250  1.4176
   21MOL0     N 2657   5.023   8.561   7.035 -1.0705  0.8346 -0.2451
   21MOL0     C 2658   4.961   8.669   7.089  0.3921 -0.0844 -0.7399
   21MOL0     C 2659   4.882   8.638   7.195 -0.1450  0.8515 -0.8834
   21MOL0     C 2660   4.784   8.719   7.270  0.3094 -0.4830 -0.4878
   21MOL0     C 2661   4.641   8.647   7.281  0.0626 -0.4526  0.0804
   21MOL0     C 2662   4.577   8.629   7.138 -0.4666  0.3395  0.5417
   21MOL0     C 2663   4.446   8.568   7.144 -0.1274  0.2918 -0.9131
   21MOL0     O 2664   4.351   8.646   7.232  0.7816 -0.6135  0.2991
   21MOL0     C 2665   4.213   8.625   7.211 -0.8732 -0.1055  0.0241
   21MOL0     C 2666   4.156   8.526   7.133 -0.7509 -0.1608 -0.4247
   21MOL0     C 2667   4.014   8.494   7.131 -1.1903  0.0413  0.3573
   21MOL0     C 2668   3.936   8.571   7.216 -0.3419 -0.2648 -0.2992
   21MOL0     C 2669   3.798   8.542   7.219  0.6624  0.8614 -0.2849
   21MOL0     O 2670   3.756   8.416   7.195  1.0438 -0.2810  0.3450
   21MOL0     C 2671   3.621   8.387   7.214  0.1365  0.1526  1.1880
   21MOL0     C 2672   3.582   8.314   7.319 -0.6518  0.5660 -0.4799
   21MOL0     C 2673   3.456   8.262   7.336 -0.0030  0.1730 -0.5877
   21MOL0     C 2674   3.352   8.281   7.239 -0.4301 -0.7362 -0.7115
   21MOL0     O 2675   3.224   8.231   7.264  0.4465 -0.2316 -0.0510
   21MOL0     C 2676   3.163   8.200   7.141 -0.5136 -0.2122  0.2455
   21MOL0     C 2677   3.047   8.113   7.161 -0.2439 -0.2783 -0.2625
   21MOL0     C 2678   2.923   8.172   7.243 -0.0743 -0.3208 -0.2313
   21MOL0     C 2679   2.867   8.309   7.207  0.1425  0.2072  1.5398
   21MOL0     C 2680   2.723   8.350   7.257  0.2032  0.7371  0.1420
   21MOL0     C 2681   2.608   8.258   7.210  0.5207  0.2601  0.5710
   21MOL0     C 2682   2.615   8.236   7.059  0.0520 -0.2770 -1.1349
   21MOL0     C 2683   2.480   8.181   7.000  0.0478  0.1310  0.0031
   21MOL0    Cl 2684   2.354   8.302   6.967 -0.4210 -0.4116  0.2814
   21MOL0     C 2685   3.387   8.366   7.132  0.1688 -0.3077 -0.8356
   21MOL0     C 2686   3.520   8.411   7.120 -0.7342  0.1516 -0.4684
   21MOL0     O 2687   3.717   8.632   7.251 -0.7899  0.5678  0.3343
   21MOL0     C 2688   3.992   8.678   7.293 -1.4261  0.1860  0.0891
   21MOL0     C 2689   4.125   8.703   7.280 -0.8269 -0.1554 -0.8543
   21MOL0     N 2690   4.907   8.501   7.215  0.6209  0.3639 -0.2218
   21MOL0     N 2691   4.985   8.453   7.118 -0.9748 -0.5689  0.0832
   21MOL0     C 2692   6.157   8.340   6.889 -0.6087  0.2239 -0.5112
   21MOL0     C 2693   6.293   8.312   6.864 -0.8201  0.7636 -0.2304
   21MOL0     C 2694   6.665   8.200   6.655 -0.6009 -0.3057 -0.4891
   21MOL0     C 2695   6.764   8.292   6.700  1.3773  0.1334 -0.6020
   21MOL0     C 2696   6.897   8.252   6.712  0.3091 -0.7298  0.8752
   21MOL0     C 2697   6.938   8.123   6.675  0.1079  0.2041  0.0147
   21MOL0     O 2698   7.063   8.070   6.695  0.4866 -0.2110  0.4940
   21MOL0     C 2699   7.172   8.131   6.637  0.8446  0.2883  0.0762
   21MOL0     C 2700   7.207   8.063   6.501 -0.0480 -0.1006 -1.2427
   21MOL0     C 2701   7.257   7.917   6.528 -0.3241 -0.0531  0.5693
   21MOL0     C 2702   7.289   7.831   6.405 -0.5816  0.4744 -0.1000
   21MOL0     C 2703   7.182   7.812   6.313 -0.5350  0.1417 -0.4036
   21MOL0     C 2704   7.104   7.785   6.224  0.2146 -0.4609 -1.1827
   21MOL0     C 2705   6.846   8.045   6.612  0.3498  0.5438 -0.1121
   21MOL0     C 2706   6.711   8.083   6.598  0.2332 -0.6244 -0.5978
   21MOL0     H 2707   6.355   8.512   6.600  0.8823  1.5105  1.6226
   21MOL0     H 2708   6.133   8.576   6.626  1.1346  1.8649  0.8430
   21MOL0     H 2709   5.894   8.619   6.942 -2.7889  0.0578 -1.3891
   21MOL0     H 2710   5.953   8.473   7.026  2.7395  1.9657 -0.6018
   21MOL0     H 2711   5.740   8.364   6.873 -0.3123 -0.0272  1.4038
   21MOL0     H 2712   5.714   8.536   6.848  0.3240 -1.1274 -0.1813
   21MOL0     H 2713   5.700   8.556   7.113 -3.3373  2.7728 -2.6243
   21MOL0     H 2714   5.735   8.388   7.115  0.4723  0.6594 -0.3986
   21MOL0     H 2715   5.517   8.514   6.946  2.7367 -1.9208 -1.6189
   21MOL0     H 2716   5.505   8.358   7.035  0.2420  0.0812 -0.2309
   21MOL0     H 2717   5.481   8.643   7.168  2.0196 -0.9432  0.7527
   21MOL0     H 2718   5.452   8.478   7.237 -2.0181 -1.5533 -1.0420
   21MOL0     H 2719   5.246   8.534   7.197 -0.3022 -2.1432 -0.4671
   21MOL0     H 2720   5.293   8.420   7.074  2.8309 -0.4174 -1.0690
   21MOL0     H 2721   5.240   8.720   7.026 -1.2232  0.4056 -1.6783
   21MOL0     H 2722   5.339   8.613   6.915  1.2514 -3.2967 -0.1955
   21MOL0     H 2723   5.150   8.459   6.908 -1.8871 -0.5897  3.3592
   21MOL0     H 2724   5.112   8.621   6.847  2.3567 -0.5215 -0.0130
   21MOL0     H 2725   4.981   8.769   7.052  2.5346  0.6439  1.9721
   21MOL0     H 2726   4.766   8.807   7.207 -1.5378 -0.2161  0.3412
   21MOL0     H 2727   4.813   8.737   7.374 -1.9899 -2.7238  0.6513
   21MOL0     H 2728   4.582   8.714   7.345  3.3568  1.5474  1.2614
   21MOL0     H 2729   4.651   8.558   7.345 -0.5803 -1.8064 -1.6232
   21MOL0     H 2730   4.571   8.727   7.091  2.0911  0.8113  1.0664
   21MOL0     H 2731   4.638   8.558   7.081 -0.4791 -0.9239  2.0305
   21MOL0     H 2732   4.454   8.466   7.183 -2.8305  0.4513  0.2821
   21MOL0     H 2733   4.404   8.569   7.042 -3.5631  0.2093  0.3547
   21MOL0     H 2734   4.219   8.455   7.081  0.3442 -0.2528  0.9767
   21MOL0     H 2735   3.968   8.414   7.074 -0.2205  1.1616 -2.1580
   21MOL0     H 2736   3.665   8.281   7.381 -3.3471 -5.0095  0.8365
   21MOL0     H 2737   3.438   8.200   7.424 -1.9694 -0.9584 -1.7192
   21MOL0     H 2738   3.240   8.155   7.079  0.8912  1.3551  0.7866
   21MOL0     H 2739   3.129   8.293   7.096  2.9504  1.4465  0.7775
   21MOL0     H 2740   3.084   8.026   7.214 -1.1504  0.3129  1.4232
   21MOL0     H 2741   3.009   8.088   7.061 -0.6396  0.1951 -0.2367
   21MOL0     H 2742   2.949   8.180   7.349  0.1350 -0.7432 -0.2491
   21MOL0     H 2743   2.849   8.093   7.225  1.3825 -1.3030 -2.3665
   21MOL0     H 2744   2.936   8.379   7.254 -1.0004  1.2949  1.6609
   21MOL0     H 2745   2.877   8.330   7.100 -2.5435 -0.2759  1.1264
   21MOL0     H 2746   2.720   8.456   7.228  2.6429 -0.0780 -3.9291
   21MOL0     H 2747   2.723   8.341   7.366 -0.4707  0.4137  0.1188
   21MOL0     H 2748   2.514   8.303   7.244 -0.5015 -1.7832  0.6177
   21MOL0     H 2749   2.620   8.157   7.250  3.3898 -0.4597 -1.7063
   21MOL0     H 2750   2.635   8.331   7.010  0.2276  0.6301  0.6236
   21MOL0     H 2751   2.693   8.162   7.040 -0.2462 -0.6161 -1.0523
   21MOL0     H 2752   2.436   8.096   7.051  0.4324  0.7548  1.4327
   21MOL0     H 2753   2.519   8.140   6.906 -0.3666 -0.6794  0.1827
   21MOL0     H 2754   3.313   8.409   7.066 -1.2139  3.2390  2.6032
   21MOL0     H 2755   3.546   8.481   7.041  0.8029  0.1083 -0.0290
   21MOL0     H 2756   3.933   8.740   7.361  1.5634  0.0528  3.0972
   21MOL0     H 2757   4.188   8.780   7.324 -0.5572  0.5141 -2.3547
   21MOL0     H 2758   6.094   8.284   6.957  0.3707  1.2386  1.3059
   21MOL0     H 2759   6.330   8.236   6.933 -2.4988 -0.4803 -0.6255
   21MOL0     H 2760   6.737   8.388   6.743  2.0944  0.0252  0.1207
   21MOL0     H 2761   6.970   8.323   6.750  1.0299 -2.0120  1.9507
   21MOL0     H 2762   7.256   8.123   6.707  1.2915 -1.2464 -0.6124
   21MOL0     H 2763   7.162   8.240   6.632 -0.8717  0.1390 -0.4134
   21MOL0     H 2764   7.110   8.051   6.452 -0.3277  1.0177 -1.0028
   21MOL0     H 2765   7.285   8.110   6.441  1.8773 -4.1894 -2.2606
   21MOL0     H 2766   7.180   7.853   6.573 -1.2266 -0.0355 -0.8692
   21MOL0     H 2767   7.343   7.915   6.594 -0.3667  1.3062  0.7041
   21MOL0     H 2768   7.366   7.886   6.349  0.3463  0.9928  1.5888
   21MOL0     H 2769   7.317   7.729   6.434 -2.1725 -0.3152 -1.2266
   21MOL0     H 2770   7.020   7.769   6.159 -0.7076 -3.4870  0.5602
   21MOL0     H 2771   6.862   7.945   6.574 -5.2604 -0.6117 -0.3612
   21MOL0     H 2772   6.644   8.013   6.549 -1.0739  2.6890 -4.0258
   22MOL0     O 2773   4.127   0.700   4.178 -0.5714  0.5616 -0.3205
   22MOL0     C 2774   4.178   0.616   4.115  0.5096  0.0799  0.6239
   22MOL0     O 2775   4.116   0.520   4.044  0.1021 -0.4150 -0.2304
   22MOL0     C 2776   3.979   0.504   4.033  0.0693 -0.2555  0.6476
   22MOL0     C 2777   3.875   0.590   4.088 -1.1800  0.5252  0.2242
   22MOL0     C 2778   3.739   0.545   4.083  0.2488 -0.0653  0.7098
   22MOL0     C 2779   3.710   0.429   4.012  0.1952 -0.8774  0.1655
   22MOL0     O 2780   3.585   0.387   4.036  0.4323  0.2043  0.4419
   22MOL0     C 2781   3.496   0.374   3.927 -0.6038 -0.8702  0.3169
   22MOL0     C 2782   3.354   0.347   3.982 -0.9359  0.2402  0.7263
   22MOL0     C 2783   3.248   0.335   3.864  0.2032 -0.8767 -0.5588
   22MOL0     C 2784   3.200   0.478   3.821 -0.0678 -0.1802  1.1082
   22MOL0     C 2785   3.050   0.491   3.852 -0.2645 -0.1930 -0.5730
   22MOL0     C 2786   2.950   0.398   3.780  0.2077  0.2911  0.3067
   22MOL0     C 2787   2.942   0.430   3.625  1.0837  0.6566  0.2793
   22MOL0     C 2788   2.852   0.338   3.538  0.4160 -0.0867 -0.2261
   22MOL0     N 2789   2.715   0.331   3.592  0.1102  0.0745  0.4107
   22MOL0     C 2790   2.633   0.439   3.601  0.2461 -0.0939 -1.1562
   22MOL0     C 2791   2.513   0.398   3.643 -0.0735  0.4374  1.1649
   22MOL0     C 2792   2.396   0.488   3.672  0.8349  0.9922  1.0859
   22MOL0     C 2793   2.328   0.541   3.540 -0.3091 -0.5465  0.8069
   22MOL0     C 2794   2.269   0.423   3.460  0.5144 -1.0032 -0.1897
   22MOL0     C 2795   2.224   0.467   3.321  0.1231  0.9320  0.1986
   22MOL0     O 2796   2.148   0.586   3.313  0.3768  0.0929  0.2988
   22MOL0     C 2797   2.007   0.580   3.319  0.5712  0.1724 -0.7171
   22MOL0     C 2798   1.941   0.701   3.330 -0.4133  0.0533 -0.2220
   22MOL0     C 2799   1.800   0.711   3.335 -0.1617 -0.0841 -0.1312
   22MOL0     C 2800   1.724   0.600   3.312 -0.3290 -0.3600 -1.1349
   22MOL0     C 2801   1.575   0.608   3.312 -0.3196 -0.4785  0.3276
   22MOL0     O 2802   1.507   0.715   3.368 -0.7072 -0.8972 -0.1934
   22MOL0     C 2803   1.376   0.714   3.393  0.0703  0.6490  0.8526
   22MOL0     C 2804   1.303   0.831   3.355 -0.3300 -0.0469  0.1811
   22MOL0     C 2805   1.165   0.836   3.382 -0.6828  0.2336 -1.0281
   22MOL0     C 2806   1.095   0.733   3.449 -0.9521  0.1731 -0.1159
   22MOL0     O 2807   0.966   0.725   3.483 -0.2726 -0.1328  0.1563
   22MOL0     C 2808   0.882   0.836   3.455 -0.1824  0.4832  0.3426
   22MOL0     C 2809   0.847   0.847   3.310 -0.3629  0.1824  0.3976
   22MOL0     C 2810   0.751   0.971   3.292  0.7438 -0.8240  0.6453
   22MOL0     C 2811   0.707   1.000   3.150  0.6376 -0.4666  0.0459
   22MOL0     C 2812   0.617   0.881   3.099 -0.5410 -0.5707 -0.8478
   22MOL0     C 2813   0.679   0.791   2.988 -0.3487  0.1841  0.3259
   22MOL0     C 2814   0.567   0.754   2.886 -0.1943 -0.7275  0.7124
   22MOL0     C 2815   0.617   0.660   2.773  0.0726  0.0788 -0.3777
   22MOL0    Cl 2816   0.700   0.767   2.667  0.2934 -0.0602 -0.2240
   22MOL0     C 2817   1.167   0.619   3.482 -0.8018 -0.2626  0.3477
   22MOL0     C 2818   1.305   0.604   3.455  0.2849  0.1083 -0.9159
   22MOL0     O 2819   1.522   0.501   3.278  0.2344 -0.0955  0.4607
   22MOL0     C 2820   1.786   0.473   3.303  0.3345 -0.7532  0.7617
   22MOL0     C 2821   1.925   0.467   3.308  0.2869  0.2899 -0.0801
   22MOL0     N 2822   2.526   0.260   3.655  0.2874  0.2152 -0.3533
   22MOL0     N 2823   2.641   0.218   3.620 -0.2292  0.3953 -0.4612
   22MOL0     C 2824   3.805   0.354   3.944 -0.5119 -0.3877 -0.3631
   22MOL0     C 2825   3.935   0.397   3.955  0.3940  0.7510 -0.4214
   22MOL0     C 2826   4.325   0.617   4.108 -0.4256  0.2250 -0.5069
   22MOL0     C 2827   4.407   0.736   4.119  0.0371 -0.8177 -0.4241
   22MOL0     C 2828   4.544   0.728   4.102  0.0064  0.1011  0.7595
   22MOL0     C 2829   4.611   0.610   4.081  0.4863 -0.4751 -0.2155
   22MOL0     O 2830   4.744   0.625   4.055 -0.2171 -0.2413  0.1960
   22MOL0     C 2831   4.819   0.522   3.998  0.6406  0.4720 -0.6047
   22MOL0     C 2832   4.821   0.529   3.845 -0.2960 -0.7594  0.0750
   22MOL0     C 2833   4.880   0.387   3.793  0.5490 -0.7935  0.0412
   22MOL0     C 2834   4.898   0.388   3.641 -0.7714 -0.1627 -1.2920
   22MOL0     C 2835   5.019   0.464   3.611 -0.0323 -0.5648 -0.5212
   22MOL0     C 2836   5.120   0.524   3.577  0.1639 -0.3812 -0.2417
   22MOL0     C 2837   4.532   0.486   4.073  0.1350 -0.4066 -0.3118
   22MOL0     C 2838   4.394   0.492   4.079  0.6739 -0.0043 -0.7606
   22MOL0     H 2839   3.887   0.683   4.143 -1.7925 -0.8754  2.8887
   22MOL0     H 2840   3.654   0.582   4.139  0.6258  0.7046  0.7885
   22MOL0     H 2841   3.528   0.304   3.850  1.1787 -0.4720  0.6578
   22MOL0     H 2842   3.499   0.472   3.878 -1.8189 -1.4936 -1.1039
   22MOL0     H 2843   3.312   0.423   4.048 -3.8428 -1.3187  0.8419
   22MOL0     H 2844   3.360   0.248   4.027  2.9267  0.0959  0.2146
   22MOL0     H 2845   3.171   0.269   3.906  1.6631 -1.6201  1.0453
   22MOL0     H 2846   3.300   0.285   3.782  0.0158 -1.9917 -0.0166
   22MOL0     H 2847   3.257   0.563   3.861  0.4146 -1.9168  4.4432
   22MOL0     H 2848   3.215   0.482   3.712 -1.1696  2.6722  0.9679
   22MOL0     H 2849   3.025   0.597   3.842  0.9568  0.0121 -1.7502
   22MOL0     H 2850   3.039   0.473   3.959  0.8378 -0.2657 -0.4529
   22MOL0     H 2851   2.850   0.394   3.824  0.7093  3.5746  2.0628
   22MOL0     H 2852   2.990   0.296   3.776  1.3479  0.6755  1.4652
   22MOL0     H 2853   2.903   0.531   3.609  0.1721  0.1299 -0.9599
   22MOL0     H 2854   3.042   0.426   3.581  0.3322 -0.5026 -1.3974
   22MOL0     H 2855   2.894   0.237   3.536 -0.2319 -0.3547 -0.9670
   22MOL0     H 2856   2.844   0.376   3.436 -2.2673  2.4335  0.7661
   22MOL0     H 2857   2.662   0.540   3.574  0.9449  0.2741  0.8255
   22MOL0     H 2858   2.429   0.579   3.723  2.6343 -0.6132  2.9633
   22MOL0     H 2859   2.320   0.421   3.714  1.0992 -0.2568 -0.3040
   22MOL0     H 2860   2.396   0.596   3.473 -3.3078  2.8919  0.2304
   22MOL0     H 2861   2.244   0.601   3.577 -2.5821 -3.2663  0.3355
   22MOL0     H 2862   2.344   0.346   3.443 -1.2298 -2.6855 -0.5978
   22MOL0     H 2863   2.184   0.385   3.516  1.0530 -1.1462  0.5380
   22MOL0     H 2864   2.172   0.396   3.255  1.1936 -0.7996  1.1426
   22MOL0     H 2865   2.318   0.469   3.264 -0.7170  1.3076 -1.2152
   22MOL0     H 2866   2.012   0.783   3.336 -0.0860 -0.2543  0.2719
   22MOL0     H 2867   1.748   0.806   3.345  1.3614  0.5117  4.3878
   22MOL0     H 2868   1.345   0.926   3.323 -2.1520  1.3458  1.6719
   22MOL0     H 2869   1.114   0.924   3.346 -0.9322 -0.0010 -1.2521
   22MOL0     H 2870   0.927   0.929   3.491  2.5177 -0.6299  0.0907
   22MOL0     H 2871   0.792   0.811   3.511  0.1030 -0.6221  0.3253
   22MOL0     H 2872   0.802   0.756   3.269 -0.2856 -0.1330  0.9920
   22MOL0     H 2873   0.939   0.870   3.255  1.7926 -2.9231  2.3692
   22MOL0     H 2874   0.803   1.058   3.335 -1.1221  2.1997 -2.6703
   22MOL0     H 2875   0.665   0.947   3.355  0.0767 -1.7823 -0.5898
   22MOL0     H 2876   0.642   1.088   3.160  0.5826 -0.5930  0.8431
   22MOL0     H 2877   0.795   1.020   3.087  1.6548 -0.1702  1.4860
   22MOL0     H 2878   0.528   0.923   3.052  0.4602 -0.7662 -3.0774
   22MOL0     H 2879   0.579   0.819   3.181  4.2262 -2.3136  0.3937
   22MOL0     H 2880   0.731   0.707   3.035  0.0080  0.4005  0.3213
   22MOL0     H 2881   0.752   0.850   2.933  1.3760 -2.4492 -0.3896
   22MOL0     H 2882   0.476   0.717   2.934 -1.1579 -0.0597 -0.5520
   22MOL0     H 2883   0.527   0.849   2.850  2.0509  0.4611  1.1832
   22MOL0     H 2884   0.539   0.606   2.720  0.8815 -2.0779  0.5408
   22MOL0     H 2885   0.676   0.576   2.811  0.7628  0.1533 -1.2463
   22MOL0     H 2886   1.120   0.536   3.533 -2.1238 -0.1028 -0.5619
   22MOL0     H 2887   1.362   0.514   3.478 -0.5135 -0.4352 -1.0102
   22MOL0     H 2888   1.738   0.378   3.281 -0.4967  0.0626 -1.2904
   22MOL0     H 2889   1.972   0.370   3.291 -0.5265 -0.2101  0.4220
   22MOL0     H 2890   3.786   0.263   3.889  2.8081 -1.8330  0.6131
   22MOL0     H 2891   4.004   0.337   3.897  0.6664 -0.0008  0.6477
   22MOL0     H 2892   4.357   0.832   4.126  0.5363 -0.6261  0.7012
   22MOL0     H 2893   4.602   0.819   4.095 -0.5268  0.6373  2.7472
   22MOL0     H 2894   4.784   0.424   4.032  0.7501  0.8142  0.5057
   22MOL0     H 2895   4.920   0.535   4.035 -0.1503 -0.2345  1.9745
   22MOL0     H 2896   4.718   0.542   3.811 -0.7709  1.1454  2.0226
   22MOL0     H 2897   4.886   0.613   3.818  0.7580 -1.6994 -0.4224
   22MOL0     H 2898   4.810   0.311   3.828 -0.0716  0.9294  2.8549
   22MOL0     H 2899   4.980   0.364   3.831  1.1081  1.5498  0.1221
   22MOL0     H 2900   4.913   0.282   3.615  1.6543  0.0772 -1.0370
   22MOL0     H 2901   4.811   0.427   3.587 -0.0727  0.7379 -1.7829
   22MOL0     H 2902   5.198   0.590   3.545 -1.7554  2.7539  1.0279
   22MOL0     H 2903   4.565   0.383   4.063 -1.7726 -1.0544 -0.4119
   22MOL0     H 2904   4.340   0.401   4.059  1.4866 -0.3410 -1.4955
   23MOL0     O 2905   8.830   7.064   4.707  0.1382  0.1827  0.8308
   23MOL0     C 2906   8.777   7.033   4.810  0.1117 -0.2278  0.8629
   23MOL0     O 2907   8.665   6.955   4.822  0.7218  0.0453  0.0236
   23MOL0     C 2908   8.585   6.906   4.730  0.5420  1.1329 -0.5315
   23MOL0     C 2909   8.628   6.862   4.597  0.8884  0.2073 -0.0437
   23MOL0     C 2910   8.545   6.795   4.514 -0.3562 -0.1862 -0.0887
   23MOL0     C 2911   8.414   6.770   4.550 -1.0755 -0.9675 -0.0130
   23MOL0     O 2912   8.347   6.689   4.465  0.0608 -0.1659 -0.2934
   23MOL0     C 2913   8.217   6.758   4.434  0.0995  0.9997 -0.5522
   23MOL0     C 2914   8.154   6.693   4.312  0.2704 -0.1707 -0.5145
   23MOL0     C 2915   8.077   6.574   4.363  0.5882  0.0213  0.3695
   23MOL0     C 2916   8.042   6.478   4.249  0.1640  0.1495  0.4819
   23MOL0     C 2917   7.951   6.367   4.283  0.6711 -0.3183 -0.0977
   23MOL0     C 2918   7.803   6.408   4.288 -0.8115  0.3240 -1.3089
   23MOL0     C 2919   7.715   6.289   4.309 -0.2071 -0.1526  0.6994
   23MOL0     C 2920   7.585   6.337   4.373  0.5787 -0.5265 -0.9647
   23MOL0     N 2921   7.501   6.235   4.442 -1.2989  0.5512  1.0551
   23MOL0     C 2922   7.371   6.236   4.460  0.7555  0.2902  0.0714
   23MOL0     C 2923   7.345   6.113   4.512  0.1135  0.2503 -0.1912
   23MOL0     C 2924   7.211   6.067   4.551 -0.8590 -0.2682  0.0714
   23MOL0     C 2925   7.089   6.106   4.462 -0.2351 -0.3336 -0.3911
   23MOL0     C 2926   7.099   6.042   4.325  0.6598  0.6388 -0.9023
   23MOL0     C 2927   6.968   6.076   4.253  0.0215 -0.3388 -0.5697
   23MOL0     O 2928   6.877   5.966   4.282  0.3341  0.1581 -0.4532
   23MOL0     C 2929   6.748   5.968   4.236 -0.8948 -0.2206 -0.9200
   23MOL0     C 2930   6.665   5.855   4.246 -0.4776 -0.3261 -0.6974
   23MOL0     C 2931   6.533   5.849   4.202 -0.2367 -0.4321 -0.1302
   23MOL0     C 2932   6.475   5.963   4.146 -0.0427  0.9111  0.1408
   23MOL0     C 2933   6.328   5.966   4.124 -0.2438 -0.7647  0.1954
   23MOL0     O 2934   6.256   5.854   4.154 -0.2816  0.1457  0.3615
   23MOL0     C 2935   6.119   5.849   4.132 -0.5368 -0.0071  0.9207
   23MOL0     C 2936   6.035   5.792   4.225 -0.2057 -0.0979  0.2117
   23MOL0     C 2937   5.898   5.768   4.182 -0.2930  0.2079 -0.3363
   23MOL0     C 2938   5.846   5.816   4.068 -0.0290  1.3005  0.4734
   23MOL0     O 2939   5.715   5.799   4.028 -0.1816  0.2967 -0.6172
   23MOL0     C 2940   5.623   5.813   4.137 -0.0082 -0.6834  0.7049
   23MOL0     C 2941   5.491   5.870   4.085  0.4131 -0.1228  0.7247
   23MOL0     C 2942   5.432   5.778   3.968 -0.0783 -0.1462  0.8062
   23MOL0     C 2943   5.294   5.825   3.920 -0.0044 -0.3730 -0.5575
   23MOL0     C 2944   5.252   5.740   3.808 -0.9148  0.5784 -0.1583
   23MOL0     C 2945   5.114   5.781   3.766 -0.4578  0.1574 -0.2088
   23MOL0     C 2946   5.068   5.710   3.640  0.3673 -0.4945  0.5413
   23MOL0     C 2947   4.933   5.764   3.596 -0.2274  0.2853 -0.0811
   23MOL0    Cl 2948   4.892   5.709   3.428 -0.1217  0.0920 -0.8584
   23MOL0     C 2949   5.929   5.884   3.984  0.3428  0.5933  0.6753
   23MOL0     C 2950   6.057   5.892   4.010  0.2317 -0.6371 -0.2870
   23MOL0     O 2951   6.281   6.077   4.077 -0.1092  1.1098 -0.2234
   23MOL0     C 2952   6.559   6.075   4.118  0.4134  0.7369 -0.1008
   23MOL0     C 2953   6.687   6.078   4.170 -0.0787 -0.3922  0.5344
   23MOL0     N 2954   7.464   6.037   4.531 -0.9343 -0.0105 -0.1831
   23MOL0     N 2955   7.549   6.116   4.481  0.5982  0.3782  1.0275
   23MOL0     C 2956   8.370   6.787   4.682  0.4310  0.0856  0.0390
   23MOL0     C 2957   8.458   6.863   4.772 -0.1766 -0.1785  0.4805
   23MOL0     C 2958   8.843   7.092   4.931  0.8484  0.3680  0.4915
   23MOL0     C 2959   8.950   7.191   4.944  1.0746  0.3120  1.6888
   23MOL0     C 2960   8.995   7.237   5.065  0.1445 -0.1320 -0.1919
   23MOL0     C 2961   8.960   7.167   5.189 -0.7870 -0.3154 -0.2238
   23MOL0     O 2962   8.998   7.198   5.312 -0.4803 -0.4249  0.2313
   23MOL0     C 2963   9.108   7.286   5.330 -0.5943  0.2048 -0.4197
   23MOL0     C 2964   9.126   7.318   5.480 -0.8794  0.0971 -0.0896
   23MOL0     C 2965   9.237   7.421   5.519  1.0924  0.2945 -0.1796
   23MOL0     C 2966   9.374   7.371   5.484  0.2722  0.0695 -0.5220
   23MOL0     C 2967   9.482   7.472   5.501  0.4977  0.5351  0.3703
   23MOL0     C 2968   9.556   7.565   5.507 -0.1470  0.0894 -0.6649
   23MOL0     C 2969   8.879   7.054   5.175  0.5282 -0.1795  0.8127
   23MOL0     C 2970   8.814   7.021   5.052 -0.1307  0.8746  0.1576
   23MOL0     H 2971   8.729   6.878   4.560  0.9449 -2.6936 -1.4609
   23MOL0     H 2972   8.591   6.764   4.421 -0.3420 -1.1827  0.2385
   23MOL0     H 2973   8.229   6.863   4.406 -0.7697  0.6929 -2.2281
   23MOL0     H 2974   8.148   6.749   4.519  1.0245  0.6140  0.1782
   23MOL0     H 2975   8.228   6.659   4.239  3.6410  2.7203  1.2603
   23MOL0     H 2976   8.085   6.766   4.267 -0.6780 -0.2496  0.7767
   23MOL0     H 2977   7.987   6.607   4.415 -0.2016  1.0861 -1.5670
   23MOL0     H 2978   8.140   6.522   4.436 -1.5149 -1.5597  1.1573
   23MOL0     H 2979   7.995   6.530   4.164  0.9860 -0.9691 -0.7079
   23MOL0     H 2980   8.137   6.441   4.210 -0.6058  0.5477 -1.9651
   23MOL0     H 2981   7.982   6.330   4.381  0.4800 -0.5056 -0.1104
   23MOL0     H 2982   7.959   6.279   4.220  1.8376 -0.9082  0.8313
   23MOL0     H 2983   7.778   6.457   4.194  2.8111 -1.2127 -3.2941
   23MOL0     H 2984   7.787   6.484   4.365 -0.3743  0.6872 -1.5758
   23MOL0     H 2985   7.705   6.230   4.217  1.0381 -1.7019  1.5062
   23MOL0     H 2986   7.763   6.221   4.379 -2.0276 -2.2508  0.0327
   23MOL0     H 2987   7.518   6.379   4.297 -1.9675  0.4987  1.6477
   23MOL0     H 2988   7.602   6.417   4.445 -0.4258 -0.3107 -0.9493
   23MOL0     H 2989   7.298   6.314   4.439  0.9449  0.1663 -1.1212
   23MOL0     H 2990   7.204   6.092   4.657 -1.1248 -0.2894  0.0592
   23MOL0     H 2991   7.202   5.959   4.561 -0.1041 -0.2883  0.6098
   23MOL0     H 2992   7.075   6.214   4.456 -0.9094 -0.3502  0.6786
   23MOL0     H 2993   6.995   6.072   4.506 -1.4027 -0.7481 -3.0268
   23MOL0     H 2994   7.162   6.092   4.251 -1.3388  0.1848 -3.0429
   23MOL0     H 2995   7.114   5.933   4.321  0.9349  0.6988 -1.6542
   23MOL0     H 2996   6.991   6.083   4.146 -1.9745 -0.8717 -1.0780
   23MOL0     H 2997   6.914   6.165   4.284 -0.1074 -0.9814  1.1678
   23MOL0     H 2998   6.721   5.769   4.282  1.1653  1.6622  2.0123
   23MOL0     H 2999   6.471   5.761   4.211 -0.4740 -0.0913  2.2145
   23MOL0     H 3000   6.070   5.760   4.323 -2.9953  0.7226  1.5932
   23MOL0     H 3001   5.842   5.711   4.256 -0.4658  2.8797  1.7844
   23MOL0     H 3002   5.657   5.879   4.218 -2.0850  3.1187 -1.2686
   23MOL0     H 3003   5.594   5.713   4.173 -0.4301 -0.9007 -0.2248
   23MOL0     H 3004   5.509   5.974   4.055  1.3363 -0.9141 -1.8045
   23MOL0     H 3005   5.414   5.878   4.161 -0.0551 -1.7948  0.4737
   23MOL0     H 3006   5.427   5.677   4.010  2.4571 -0.0593  1.4393
   23MOL0     H 3007   5.499   5.775   3.882 -3.8691 -1.7173 -2.3967
   23MOL0     H 3008   5.210   5.823   3.991 -0.2847 -1.3088 -0.9004
   23MOL0     H 3009   5.294   5.930   3.887 -1.3526 -0.0477  0.3845
   23MOL0     H 3010   5.264   5.635   3.836 -2.3797  0.7480  1.1867
   23MOL0     H 3011   5.313   5.773   3.723 -0.2615 -0.2015 -0.0057
   23MOL0     H 3012   5.105   5.890   3.769 -2.5571 -0.0127  1.6313
   23MOL0     H 3013   5.048   5.750   3.848  0.4558 -0.0815  0.4547
   23MOL0     H 3014   5.144   5.736   3.566  0.0924 -1.3605 -0.0527
   23MOL0     H 3015   5.065   5.602   3.652  0.5152 -1.0343 -3.1493
   23MOL0     H 3016   4.929   5.873   3.596 -2.9641  0.2604 -1.9086
   23MOL0     H 3017   4.861   5.736   3.673  1.9316  1.7172  2.6255
   23MOL0     H 3018   5.900   5.922   3.887  2.7782  1.9566  0.4099
   23MOL0     H 3019   6.127   5.926   3.934  1.5956 -1.4842  0.5418
   23MOL0     H 3020   6.519   6.162   4.067 -2.6788 -0.8185 -0.5846
   23MOL0     H 3021   6.746   6.167   4.150 -0.7089 -0.3753 -1.5402
   23MOL0     H 3022   8.277   6.742   4.716  0.1178  0.1084 -0.7748
   23MOL0     H 3023   8.439   6.872   4.878 -0.1896 -2.6096  0.7560
   23MOL0     H 3024   8.990   7.240   4.857 -2.4989  0.4402 -0.0855
   23MOL0     H 3025   9.077   7.307   5.068  0.8826 -1.0024  1.3567
   23MOL0     H 3026   9.086   7.381   5.281  0.0726  0.6035  0.0364
   23MOL0     H 3027   9.202   7.239   5.297  2.2669  2.8939  3.0365
   23MOL0     H 3028   9.028   7.362   5.498 -0.5525  1.3861 -1.2956
   23MOL0     H 3029   9.129   7.230   5.545 -2.3561  1.1566  1.5021
   23MOL0     H 3030   9.250   7.438   5.626  4.1382  0.6907 -0.5326
   23MOL0     H 3031   9.204   7.513   5.469 -0.5887 -1.1714 -1.9547
   23MOL0     H 3032   9.392   7.288   5.552  1.1329  0.8859  0.2839
   23MOL0     H 3033   9.374   7.324   5.385 -0.6021 -1.0837  0.0035
   23MOL0     H 3034   9.619   7.652   5.506  0.4560 -0.3029 -3.3441
   23MOL0     H 3035   8.865   6.996   5.266  2.7085 -1.7987  0.1957
   23MOL0     H 3036   8.738   6.945   5.060  1.0263 -0.3111  0.2961
   24MOL0     O 3037   9.524  10.581   0.991 -1.0320 -0.5188  0.0252
   24MOL0     C 3038   9.614  10.544   0.921 -0.3030  0.2576  0.1620
   24MOL0     O 3039   9.589  10.456   0.816 -0.2915 -0.3561 -0.0265
   24MOL0     C 3040   9.455  10.434   0.779  0.0865 -0.0102  0.0417
   24MOL0     C 3041   9.373  10.332   0.834 -0.3411 -0.8643 -0.1368
   24MOL0     C 3042   9.251  10.296   0.779  0.0164 -0.6959 -0.4438
   24MOL0     C 3043   9.199  10.372   0.670 -0.2724 -0.0543 -0.3268
   24MOL0     O 3044   9.090  10.342   0.598  1.0758  1.2719  0.2623
   24MOL0     C 3045   8.982  10.270   0.664 -0.4818 -0.2910 -0.0681
   24MOL0     C 3046   8.846  10.286   0.591 -0.0315 -0.0798  0.4177
   24MOL0     C 3047   8.855  10.388   0.473  0.5819 -0.0412 -0.3013
   24MOL0     C 3048   8.727  10.423   0.406 -0.8634 -0.2330  0.1380
   24MOL0     C 3049   8.652  10.318   0.310  0.0453  0.3119 -0.9683
   24MOL0     C 3050   8.574  10.214   0.382 -0.1184 -0.0234 -0.4029
   24MOL0     C 3051   8.498  10.115   0.292 -0.4052  0.3720 -0.9456
   24MOL0     C 3052   8.580  10.033   0.193  0.4019 -0.3385 -0.6573
   24MOL0     N 3053   8.693   9.955   0.242  0.4941  0.4621  0.3699
   24MOL0     C 3054   8.815   9.996   0.235 -0.9676  0.4098 -0.1835
   24MOL0     C 3055   8.888   9.890   0.280 -0.3875 -0.8067 -0.5545
   24MOL0     C 3056   9.042   9.889   0.295 -0.4583 -0.7614  0.7506
   24MOL0     C 3057   9.093   9.804   0.416  0.5612  0.0008  0.3508
   24MOL0     C 3058   9.115   9.894   0.542 -0.0565 -0.3442 -0.7629
   24MOL0     C 3059   9.236   9.975   0.532 -1.3708  0.4008  0.3091
   24MOL0     O 3060   9.353   9.891   0.560 -0.4916 -0.2907 -0.6188
   24MOL0     C 3061   9.459   9.959   0.614  0.4680 -0.3523 -0.1965
   24MOL0     C 3062   9.539   9.890   0.703 -0.1797 -0.1029  0.6525
   24MOL0     C 3063   9.653   9.953   0.755  0.1051  0.3560  0.5449
   24MOL0     C 3064   9.690  10.083   0.710 -0.1451 -0.1064 -0.3924
   24MOL0     C 3065   9.822  10.134   0.759 -0.4677 -0.7724  0.2801
   24MOL0     O 3066   9.901  10.066   0.842 -0.0252  0.0964  0.3435
   24MOL0     C 3067  10.017  10.114   0.879 -0.9283 -0.0619  0.3897
   24MOL0     C 3068  10.129  10.046   0.826 -0.2284  0.7763 -0.7636
   24MOL0     C 3069  10.255  10.100   0.848  0.9327 -0.0721 -0.1081
   24MOL0     C 3070  10.280  10.213   0.926  0.6011  0.1071  0.2921
   24MOL0     O 3071  10.406  10.262   0.927  0.2249  1.0610 -0.2340
   24MOL0     C 3072  10.441  10.388   0.997 -0.1996  1.2114 -0.3130
   24MOL0     C 3073  10.598  10.406   1.015  0.6429  0.6933 -0.2533
   24MOL0     C 3074  10.628  10.540   1.090  0.3286  0.5197  0.6598
   24MOL0     C 3075  10.770  10.567   1.084 -0.2340  0.1674  0.4332
   24MOL0     C 3076  10.809  10.683   1.167  0.4763  0.5454 -0.8681
   24MOL0     C 3077  10.804  10.653   1.312 -0.4939  0.0295  0.3877
   24MOL0     C 3078  10.835  10.769   1.397  0.2551 -1.1274 -0.7173
   24MOL0     C 3079  10.939  10.724   1.508  0.3878  1.0970  0.3837
   24MOL0    Cl 3080  10.949  10.856   1.637 -0.2387 -0.1083  0.1595
   24MOL0     C 3081  10.172  10.274   0.989 -0.2597  0.2520 -0.5250
   24MOL0     C 3082  10.048  10.221   0.970 -0.4660 -0.5761  0.0464
   24MOL0     O 3083   9.857  10.244   0.719 -0.2840 -0.0493  0.3141
   24MOL0     C 3084   9.604  10.156   0.636  0.0946 -1.1606  0.9856
   24MOL0     C 3085   9.493  10.084   0.579 -0.9821 -0.4228  0.4120
   24MOL0     N 3086   8.806   9.784   0.306  0.0926  1.2895 -0.2396
   24MOL0     N 3087   8.686   9.823   0.281  0.2426 -0.7217  0.2679
   24MOL0     C 3088   9.269  10.489   0.627 -0.6815  1.3110 -0.6425
   24MOL0     C 3089   9.396  10.510   0.677  0.9749 -0.1762  0.8645
   24MOL0     C 3090   9.750  10.574   0.957 -0.0676 -0.1815  0.3656
   24MOL0     C 3091   9.767  10.665   1.059  0.7091 -0.1861  0.4019
   24MOL0     C 3092   9.889  10.711   1.102 -0.3885 -0.4897  0.3948
   24MOL0     C 3093  10.005  10.669   1.042 -1.0065  0.5500  0.5817
   24MOL0     O 3094  10.130  10.708   1.073 -0.1780  0.2435 -0.5094
   24MOL0     C 3095  10.151  10.775   1.196  0.4464  0.1521  0.3654
   24MOL0     C 3096  10.147  10.699   1.332  0.7316 -0.8064  0.5469
   24MOL0     C 3097  10.254  10.585   1.319 -0.0485 -0.1965  0.3116
   24MOL0     C 3098  10.285  10.541   1.455 -0.1379 -0.5713  0.1383
   24MOL0     C 3099  10.190  10.455   1.516  0.1152  0.0617  0.4124
   24MOL0     C 3100  10.111  10.388   1.581  0.8152 -0.5372 -0.1468
   24MOL0     C 3101   9.994  10.584   0.925  0.0597  0.2085 -0.1750
   24MOL0     C 3102   9.863  10.541   0.880  0.4700 -0.2616  0.1581
   24MOL0     H 3103   9.395  10.269   0.919 -0.4816  0.2900  0.7776
   24MOL0     H 3104   9.205  10.207   0.818 -0.4376 -1.1597 -1.9482
   24MOL0     H 3105   8.966  10.306   0.766  0.5880  0.4221 -0.1353
   24MOL0     H 3106   9.014  10.168   0.685  0.1161 -0.0173  0.4002
   24MOL0     H 3107   8.771  10.301   0.670  0.5069 -2.6148  1.5046
   24MOL0     H 3108   8.808  10.189   0.559 -0.3914  0.3521 -0.4891
   24MOL0     H 3109   8.932  10.359   0.402 -0.8039  1.1176 -2.3739
   24MOL0     H 3110   8.897  10.477   0.520  1.4556 -0.5753 -0.0549
   24MOL0     H 3111   8.660  10.460   0.484 -1.3323 -0.0032 -0.3646
   24MOL0     H 3112   8.756  10.508   0.344  2.5928 -2.1347 -1.1495
   24MOL0     H 3113   8.727  10.281   0.240  0.9493 -0.8843  0.5616
   24MOL0     H 3114   8.579  10.378   0.254  0.0187 -0.3197 -1.6247
   24MOL0     H 3115   8.507  10.272   0.446  2.6117  2.2015  0.6356
   24MOL0     H 3116   8.633  10.161   0.457 -1.7599  1.6205  2.2219
   24MOL0     H 3117   8.441  10.046   0.356  0.8582  0.4482  0.2924
   24MOL0     H 3118   8.413  10.168   0.247  0.1326  1.1560 -1.0480
   24MOL0     H 3119   8.613  10.116   0.130  3.2737  0.4111  1.5929
   24MOL0     H 3120   8.518   9.960   0.140  0.0614 -0.2950 -0.3257
   24MOL0     H 3121   8.845  10.091   0.192  0.4930  0.1575  0.2176
   24MOL0     H 3122   9.082   9.990   0.307 -0.3369 -0.2450 -2.9802
   24MOL0     H 3123   9.087   9.851   0.203 -0.5283  2.4149 -0.7230
   24MOL0     H 3124   9.185   9.764   0.374  0.7579  2.8119 -2.2879
   24MOL0     H 3125   9.025   9.720   0.436 -1.4856  1.4223 -0.2397
   24MOL0     H 3126   9.023   9.953   0.554  0.8908  1.3951 -1.6781
   24MOL0     H 3127   9.132   9.825   0.626 -0.6290 -0.4340 -0.7137
   24MOL0     H 3128   9.224  10.049   0.613 -0.2785 -0.5868  1.4100
   24MOL0     H 3129   9.263  10.022   0.437  3.0042  1.0641  1.6309
   24MOL0     H 3130   9.517   9.790   0.739 -0.2094 -0.0351  0.8231
   24MOL0     H 3131   9.712   9.903   0.831  2.6315 -1.0127 -2.1518
   24MOL0     H 3132  10.101   9.953   0.776  0.2805 -2.0185  3.6194
   24MOL0     H 3133  10.348  10.062   0.805  0.8495  1.6430 -1.9496
   24MOL0     H 3134  10.402  10.387   1.099  2.1535  0.5589  0.6424
   24MOL0     H 3135  10.410  10.470   0.931 -0.7713 -0.2489 -1.9241
   24MOL0     H 3136  10.643  10.400   0.915  1.6093  0.6325  0.1704
   24MOL0     H 3137  10.639  10.316   1.064 -0.2984  0.1025 -0.5292
   24MOL0     H 3138  10.581  10.540   1.189 -0.1210 -0.9694  0.4743
   24MOL0     H 3139  10.573  10.618   1.036  0.1921 -0.1643 -0.2064
   24MOL0     H 3140  10.835  10.486   1.119 -0.6337  0.5012  2.0408
   24MOL0     H 3141  10.803  10.593   0.983 -1.6018 -0.4135 -0.1922
   24MOL0     H 3142  10.736  10.760   1.138  0.2479  1.1733  1.2304
   24MOL0     H 3143  10.908  10.722   1.143  0.2631 -0.1344 -3.1124
   24MOL0     H 3144  10.877  10.572   1.328  0.6198 -0.0302 -3.9076
   24MOL0     H 3145  10.702  10.622   1.335 -0.0280 -2.9201 -1.0296
   24MOL0     H 3146  10.865  10.859   1.343 -2.3332  0.3184  0.0576
   24MOL0     H 3147  10.740  10.792   1.446  0.0568 -1.4874 -0.9259
   24MOL0     H 3148  11.036  10.706   1.462 -1.3521 -3.7304 -2.1646
   24MOL0     H 3149  10.905  10.626   1.543  2.7989  0.0585 -0.0359
   24MOL0     H 3150  10.198  10.361   1.048  2.6961 -0.4065 -0.7072
   24MOL0     H 3151   9.968  10.278   1.016 -0.6577 -2.6405  2.5409
   24MOL0     H 3152   9.636  10.254   0.602  0.0787 -1.7045 -0.6982
   24MOL0     H 3153   9.428  10.144   0.517 -0.0085 -1.1200 -1.3774
   24MOL0     H 3154   9.224  10.547   0.547 -0.3517  1.6996 -0.5524
   24MOL0     H 3155   9.461  10.591   0.645  0.2590  0.3677  0.7598
   24MOL0     H 3156   9.679  10.705   1.107 -0.5393 -1.9091 -0.3419
   24MOL0     H 3157   9.891  10.774   1.190  0.3573 -0.5807  0.4487
   24MOL0     H 3158  10.096  10.869   1.206 -1.4532 -0.4464 -2.9852
   24MOL0     H 3159  10.257  10.803   1.190  0.6182 -0.4796  0.3510
   24MOL0     H 3160  10.183  10.766   1.410  0.0633 -1.4358  1.4132
   24MOL0     H 3161  10.043  10.666   1.346 -0.8415  2.7638 -1.4587
   24MOL0     H 3162  10.341  10.617   1.260 -1.0741  0.4102 -0.9168
   24MOL0     H 3163  10.228  10.497   1.260  1.4871  0.7698 -1.9591
   24MOL0     H 3164  10.375  10.479   1.448  0.0874 -0.0613 -3.5259
   24MOL0     H 3165  10.299  10.634   1.512  2.4630 -0.0632 -1.1984
   24MOL0     H 3166  10.040  10.340   1.645  0.0663 -0.9111 -1.2483
   24MOL0     H 3167  10.077  10.549   0.866  2.6375 -0.0718  3.2908
   24MOL0     H 3168   9.852  10.474   0.796 -0.4453  0.6680 -0.4848
   25MOL0     O 3169  11.263   8.399  10.848  0.0723  0.3898 -0.4366
   25MOL0     C 3170  11.310   8.498  10.900  0.0741 -0.6177 -0.2042
   25MOL0     O 3171  11.290   8.539  11.028 -0.8645 -0.2190  0.7865
   25MOL0     C 3172  11.216   8.467  11.113  0.7994  0.2720  0.7156
   25MOL0     C 3173  11.270   8.371  11.204  0.4320 -1.2522  0.6817
   25MOL0     C 3174  11.191   8.308  11.297  0.1808  0.2952  0.3757
   25MOL0     C 3175  11.055   8.352  11.316 -0.1687  0.4646 -0.2185
   25MOL0     O 3176  10.964   8.307  11.406 -0.3143 -0.9815 -0.3465
   25MOL0     C 3177  10.946   8.175  11.448  0.0368 -0.4589  0.2597
   25MOL0     C 3178  11.022   8.152  11.571  0.2245  0.7068  0.3264
   25MOL0     C 3179  10.955   8.232  11.686  0.3649 -0.4012 -0.1528
   25MOL0     C 3180  11.011   8.180  11.817  0.6777 -0.2713 -1.0951
   25MOL0     C 3181  10.939   8.251  11.936  0.1135  0.8640 -0.3432
   25MOL0     C 3182  10.931   8.406  11.940  0.2795 -0.0683 -0.1526
   25MOL0     C 3183  10.873   8.475  12.058  0.4839 -0.9978 -0.8947
   25MOL0     C 3184  10.718   8.457  12.086  0.2142  0.5854 -1.1066
   25MOL0     N 3185  10.615   8.482  11.978 -0.1929  0.3860 -0.0579
   25MOL0     C 3186  10.533   8.597  11.965 -0.7536  0.4827 -0.4765
   25MOL0     C 3187  10.490   8.593  11.838  0.3126  0.7178  0.3052
   25MOL0     C 3188  10.386   8.688  11.780  0.4576  0.5726 -0.3752
   25MOL0     C 3189  10.269   8.721  11.881 -0.5666  0.1007  1.1726
   25MOL0     C 3190  10.207   8.590  11.918  0.4904 -0.0703  0.0043
   25MOL0     C 3191  10.079   8.615  11.992  0.5225  0.0192 -0.0585
   25MOL0     O 3192  10.017   8.488  12.030 -0.9226 -0.2618  0.7087
   25MOL0     C 3193   9.881   8.485  12.058  0.1212  0.5646 -0.2985
   25MOL0     C 3194   9.796   8.414  11.977  0.0589 -0.1747  0.9706
   25MOL0     C 3195   9.667   8.394  12.014  0.6387 -0.2727  0.7319
   25MOL0     C 3196   9.616   8.461  12.132  0.4929  0.9586  0.3200
   25MOL0     C 3197   9.466   8.441  12.161  0.0724  0.3976  0.5339
   25MOL0     O 3198   9.389   8.401  12.054 -0.6432  0.3377  0.5325
   25MOL0     C 3199   9.258   8.414  12.080  0.7408  0.1529 -0.4787
   25MOL0     C 3200   9.190   8.309  12.144 -0.6121 -0.2497  0.8222
   25MOL0     C 3201   9.048   8.313  12.155 -0.4650 -0.8458 -0.4255
   25MOL0     C 3202   8.975   8.425  12.112 -0.8143  0.1870 -1.2838
   25MOL0     O 3203   8.845   8.411  12.138  0.4983  0.7592  0.2213
   25MOL0     C 3204   8.759   8.521  12.176 -0.2969 -0.7744  0.6580
   25MOL0     C 3205   8.616   8.480  12.155 -1.1320  0.0051 -0.9206
   25MOL0     C 3206   8.561   8.469  12.019 -0.3011  0.5372  0.4861
   25MOL0     C 3207   8.409   8.422  12.021 -0.2111  0.1338 -0.0794
   25MOL0     C 3208   8.352   8.428  11.879 -0.2777 -0.5579 -0.6148
   25MOL0     C 3209   8.215   8.364  11.869 -0.0188 -0.6393  0.8207
   25MOL0     C 3210   8.137   8.423  11.754  0.8378  0.1632  0.4671
   25MOL0     C 3211   8.002   8.373  11.709  0.6957  0.0178  0.4350
   25MOL0    Cl 3212   7.908   8.348  11.866  0.0400  0.4902  0.2320
   25MOL0     C 3213   9.044   8.529  12.042 -1.0150  0.0719  0.2615
   25MOL0     C 3214   9.184   8.517  12.016 -0.1428 -0.6679 -0.6736
   25MOL0     O 3215   9.423   8.467  12.274  0.1071 -0.4555  1.1680
   25MOL0     C 3216   9.701   8.540  12.207 -0.0358 -0.2013  0.6586
   25MOL0     C 3217   9.838   8.542  12.180 -0.0982  0.0849  0.2695
   25MOL0     N 3218  10.528   8.471  11.782 -0.2117 -0.1990 -0.0002
   25MOL0     N 3219  10.608   8.414  11.861  0.3716 -0.0493 -0.4159
   25MOL0     C 3220  11.009   8.458  11.235  0.6109 -0.6883 -0.1403
   25MOL0     C 3221  11.089   8.514  11.135 -0.4727 -0.5225  0.3810
   25MOL0     C 3222  11.407   8.577  10.821 -0.3450 -1.0363  0.7453
   25MOL0     C 3223  11.459   8.528  10.701 -0.6185  0.3968  0.8460
   25MOL0     C 3224  11.569   8.585  10.633  0.8913 -0.5604 -0.5198
   25MOL0     C 3225  11.622   8.697  10.683 -0.3216  0.2708 -0.1924
   25MOL0     O 3226  11.720   8.756  10.611  0.4015  0.5630  0.8680
   25MOL0     C 3227  11.812   8.690  10.516  0.1150 -0.3660  0.4771
   25MOL0     C 3228  11.764   8.713  10.371 -0.5328  0.9058  0.0762
   25MOL0     C 3229  11.778   8.856  10.312  0.2986 -0.2622 -0.4461
   25MOL0     C 3230  11.905   8.940  10.346  0.3013  0.1694  0.2445
   25MOL0     C 3231  12.022   8.885  10.266  0.5728 -0.0055 -0.0017
   25MOL0     C 3232  12.112   8.823  10.222  0.5637  0.0165 -0.3579
   25MOL0     C 3233  11.568   8.755  10.798 -0.0668 -0.4404 -0.1929
   25MOL0     C 3234  11.459   8.705  10.867  0.4394  0.0422  0.8657
   25MOL0     H 3235  11.377   8.356  11.197  0.5940 -0.1479  0.6002
   25MOL0     H 3236  11.231   8.243  11.374 -0.8145 -0.1420  0.5374
   25MOL0     H 3237  10.979   8.112  11.365  0.3889 -0.0935  0.1182
   25MOL0     H 3238  10.838   8.161  11.462  0.1593 -1.4086  0.2894
   25MOL0     H 3239  11.127   8.181  11.561  0.2977 -0.2646 -3.3889
   25MOL0     H 3240  11.011   8.046  11.598  1.1223  0.6573  0.5145
   25MOL0     H 3241  10.847   8.216  11.686  0.3575 -0.8236 -2.7626
   25MOL0     H 3242  10.985   8.337  11.674  2.8611 -0.9834  0.5723
   25MOL0     H 3243  10.988   8.073  11.824  1.8861 -0.4962 -0.2729
   25MOL0     H 3244  11.120   8.186  11.826  0.5618  3.8034 -0.3932
   25MOL0     H 3245  10.990   8.216  12.026 -1.0095  1.1117  0.3969
   25MOL0     H 3246  10.837   8.212  11.938  1.4120 -3.0996 -1.9193
   25MOL0     H 3247  10.871   8.437  11.854 -0.2280  1.6648  0.7896
   25MOL0     H 3248  11.029   8.450  11.921 -0.5315  0.7168 -3.0090
   25MOL0     H 3249  10.935   8.437  12.140  0.8498  2.5410  0.6381
   25MOL0     H 3250  10.886   8.583  12.048 -2.5093 -0.5276 -0.5572
   25MOL0     H 3251  10.703   8.535  12.161  0.1003 -0.3799 -0.1016
   25MOL0     H 3252  10.694   8.363  12.135  0.1766  1.8382  1.4428
   25MOL0     H 3253  10.494   8.672  12.032  0.6526 -0.0735  1.0432
   25MOL0     H 3254  10.343   8.639  11.692  1.2050 -1.4065  0.3117
   25MOL0     H 3255  10.438   8.780  11.753  1.2092  0.1130 -0.5068
   25MOL0     H 3256  10.200   8.792  11.834 -1.3189 -1.4655 -0.2004
   25MOL0     H 3257  10.312   8.771  11.968  3.2943  0.4256 -0.7087
   25MOL0     H 3258  10.180   8.532  11.829 -0.2421  2.0027 -1.2035
   25MOL0     H 3259  10.276   8.527  11.975  1.3477  2.2662  1.6687
   25MOL0     H 3260  10.011   8.663  11.921  1.3732 -0.6063 -1.3499
   25MOL0     H 3261  10.099   8.680  12.078  0.8530  1.4687 -1.1923
   25MOL0     H 3262   9.828   8.369  11.883 -2.0311 -1.1692  0.6709
   25MOL0     H 3263   9.614   8.327  11.946 -0.6617  1.6544 -0.2317
   25MOL0     H 3264   9.251   8.223  12.174 -1.3878 -0.7792  0.9100
   25MOL0     H 3265   9.002   8.228  12.205  0.7497 -0.8598  0.7008
   25MOL0     H 3266   8.778   8.607  12.111  0.7970 -3.5547 -3.0777
   25MOL0     H 3267   8.780   8.546  12.280  1.4426  1.1370 -0.0755
   25MOL0     H 3268   8.561   8.548  12.222  2.7526  1.9356  0.6104
   25MOL0     H 3269   8.611   8.385  12.210 -2.0282 -0.2561 -1.4404
   25MOL0     H 3270   8.619   8.407  11.949  1.9806  2.6934  0.3255
   25MOL0     H 3271   8.555   8.574  11.989  1.4237  1.4437  3.0041
   25MOL0     H 3272   8.409   8.317  12.049 -0.7518  0.0785 -0.2882
   25MOL0     H 3273   8.350   8.478  12.094 -0.3539  1.4660 -1.1543
   25MOL0     H 3274   8.423   8.386  11.808  2.3100 -1.3857  2.2223
   25MOL0     H 3275   8.336   8.534  11.856  3.2161  1.0735  3.2098
   25MOL0     H 3276   8.152   8.391  11.954 -0.7080  1.6172 -0.3314
   25MOL0     H 3277   8.220   8.255  11.853 -0.5037 -0.3422 -1.8589
   25MOL0     H 3278   8.117   8.528  11.779 -1.2147  0.0715 -0.5718
   25MOL0     H 3279   8.197   8.426  11.663  0.6266  2.0925  0.3434
   25MOL0     H 3280   8.015   8.275  11.662 -1.8483  0.4669 -1.3817
   25MOL0     H 3281   7.946   8.444  11.647 -2.5545 -0.7476  2.2440
   25MOL0     H 3282   8.984   8.614  12.010  1.1093  1.4528 -0.2305
   25MOL0     H 3283   9.247   8.590  11.965  2.6587 -0.3381  2.8755
   25MOL0     H 3284   9.669   8.608  12.285  1.1844 -2.0381  2.8714
   25MOL0     H 3285   9.916   8.587  12.239 -0.6160 -1.4094  2.1896
   25MOL0     H 3286  10.905   8.486  11.243  0.6069 -0.7739  0.1423
   25MOL0     H 3287  11.056   8.600  11.078  2.1545 -0.5846 -1.4195
   25MOL0     H 3288  11.418   8.435  10.662  0.1306 -0.0977  1.2219
   25MOL0     H 3289  11.600   8.531  10.544  2.3183 -2.7876  1.2183
   25MOL0     H 3290  11.818   8.585  10.545  0.8390 -0.0054  1.7335
   25MOL0     H 3291  11.917   8.720  10.524 -0.4268  3.0020 -2.3664
   25MOL0     H 3292  11.823   8.636  10.321 -1.0585 -0.5499  1.6044
   25MOL0     H 3293  11.661   8.677  10.381 -1.5613  3.6331  0.1924
   25MOL0     H 3294  11.698   8.911  10.361  1.3366  2.0143 -1.1913
   25MOL0     H 3295  11.764   8.853  10.203 -1.5746 -1.3363 -0.2178
   25MOL0     H 3296  11.889   9.046  10.324 -0.6839 -0.2261 -1.0596
   25MOL0     H 3297  11.904   8.937  10.456 -1.0489  0.3907  0.2441
   25MOL0     H 3298  12.194   8.760  10.194 -0.0332 -0.2742 -1.5055
   25MOL0     H 3299  11.614   8.849  10.824  1.7643 -1.8416  2.0506
   25MOL0     H 3300  11.420   8.750  10.958 -0.8700 -2.3393  1.5730
   26MOL0     O 3301   1.177   8.250  10.044 -0.0028  0.3395 -0.2354
   26MOL0     C 3302   1.234   8.362  10.035 -0.4634 -0.4382  0.2045
   26MOL0     O 3303   1.219   8.465  10.124 -0.7472 -0.5151  0.4748
   26MOL0     C 3304   1.118   8.448  10.220 -0.1372  0.6617 -0.5388
   26MOL0     C 3305   0.984   8.477  10.190 -0.3155 -0.0744 -0.5330
   26MOL0     C 3306   0.885   8.449  10.286  0.5900 -0.9398 -0.4879
   26MOL0     C 3307   0.919   8.406  10.415  0.2263  0.5076  0.2689
   26MOL0     O 3308   0.814   8.363  10.499  0.3777 -0.5573  0.5352
   26MOL0     C 3309   0.845   8.359  10.638  0.3659 -0.2996 -0.9754
   26MOL0     C 3310   0.708   8.387  10.714 -0.1514 -0.8092 -0.4329
   26MOL0     C 3311   0.594   8.286  10.680  0.6963 -0.2757 -1.0637
   26MOL0     C 3312   0.476   8.323  10.769 -0.1525 -0.1068  0.2030
   26MOL0     C 3313   0.344   8.243  10.723  1.2888  0.0101  0.7055
   26MOL0     C 3314   0.338   8.102  10.760  0.6736  0.7568  0.4794
   26MOL0     C 3315   0.185   8.055  10.784  1.1287 -1.2154 -0.8018
   26MOL0     C 3316   0.141   8.089  10.927  1.0525  0.4948  0.7445
   26MOL0     N 3317   0.004   8.065  10.964 -0.1345  0.8218  0.4694
   26MOL0     C 3318  -0.115   8.095  10.901 -0.2192  0.6471 -0.6411
   26MOL0     C 3319  -0.211   8.032  10.974 -0.5008  0.2320  0.0326
   26MOL0     C 3320  -0.359   8.065  10.944 -0.2721 -0.2098 -0.2974
   26MOL0     C 3321  -0.414   8.141  11.060 -0.6635 -0.0873  0.2332
   26MOL0     C 3322  -0.563   8.134  11.060  0.2439 -0.1331  0.2962
   26MOL0     C 3323  -0.622   8.225  11.170 -0.6494  0.2116 -0.2437
   26MOL0     O 3324  -0.759   8.199  11.155  0.3066  0.4412 -0.7092
   26MOL0     C 3325  -0.836   8.224  11.257  0.4373 -0.3939  0.8192
   26MOL0     C 3326  -0.950   8.150  11.261  0.3679  0.5434 -0.4919
   26MOL0     C 3327  -1.038   8.176  11.359 -1.2074 -0.3766  1.0337
   26MOL0     C 3328  -1.016   8.275  11.455  0.6210 -0.8843  1.4487
   26MOL0     C 3329  -1.127   8.301  11.551 -0.0019  0.4524 -0.0696
   26MOL0     O 3330  -1.229   8.200  11.554 -0.2664  0.2622 -0.3097
   26MOL0     C 3331  -1.362   8.225  11.577 -0.5158  0.4885 -0.0302
   26MOL0     C 3332  -1.433   8.338  11.536  0.0799 -0.7991 -0.7999
   26MOL0     C 3333  -1.561   8.353  11.561  0.5738  0.6944 -0.5521
   26MOL0     C 3334  -1.631   8.269  11.638  0.1063  0.6347  1.3706
   26MOL0     O 3335  -1.760   8.304  11.686 -0.8209 -0.8136  0.6869
   26MOL0     C 3336  -1.847   8.200  11.725 -0.0639  0.1050 -0.0601
   26MOL0     C 3337  -1.984   8.263  11.709 -0.5015 -0.3046  0.7744
   26MOL0     C 3338  -2.096   8.165  11.747 -0.5384 -0.6320 -0.4350
   26MOL0     C 3339  -2.112   8.043  11.651  0.4563  0.2528  0.6437
   26MOL0     C 3340  -2.211   8.075  11.537 -0.2680 -0.7525  0.1824
   26MOL0     C 3341  -2.321   7.979  11.509 -0.9686  0.6143  0.0393
   26MOL0     C 3342  -2.273   7.833  11.486  0.1226 -0.4666 -0.0537
   26MOL0     C 3343  -2.390   7.750  11.430  0.3087 -0.4544  0.0242
   26MOL0    Cl 3344  -2.527   7.757  11.544  0.0958  0.0076  0.0758
   26MOL0     C 3345  -1.563   8.153  11.685  0.2994 -0.2761 -0.2427
   26MOL0     C 3346  -1.426   8.135  11.652  0.2077  0.1437  0.1224
   26MOL0     O 3347  -1.136   8.412  11.604  0.1198 -0.4147 -0.9780
   26MOL0     C 3348  -0.891   8.348  11.462  1.0633  0.2361 -0.1509
   26MOL0     C 3349  -0.803   8.317  11.361  0.6209 -0.3009 -0.2645
   26MOL0     N 3350  -0.154   7.984  11.087 -0.0374 -0.2016  0.1330
   26MOL0     N 3351  -0.025   7.995  11.073 -0.2425  0.8342  0.1424
   26MOL0     C 3352   1.048   8.382  10.449  0.6023  0.4205  0.3053
   26MOL0     C 3353   1.147   8.401  10.348  0.9483  1.1455  0.0466
   26MOL0     C 3354   1.343   8.363   9.939 -0.4359  1.1185  0.1043
   26MOL0     C 3355   1.320   8.306   9.807 -0.8771  0.2049 -0.2620
   26MOL0     C 3356   1.424   8.282   9.714 -0.5317 -0.1847  1.1123
   26MOL0     C 3357   1.553   8.322   9.745  0.0238  0.9300  0.1509
   26MOL0     O 3358   1.641   8.309   9.644 -0.5447 -0.1290 -0.1750
   26MOL0     C 3359   1.778   8.323   9.684  0.0810  0.5298  0.0318
   26MOL0     C 3360   1.863   8.263   9.578 -0.1903 -0.9355  0.4126
   26MOL0     C 3361   1.849   8.354   9.453 -0.3070  1.1601  0.1904
   26MOL0     C 3362   1.942   8.475   9.453 -0.0204  0.3547 -0.0316
   26MOL0     C 3363   1.936   8.541   9.322  0.6596  0.2424 -0.6564
   26MOL0     C 3364   1.931   8.597   9.209 -0.4205  0.1451 -0.1496
   26MOL0     C 3365   1.577   8.373   9.875 -0.3699 -0.3686 -0.1627
   26MOL0     C 3366   1.478   8.388   9.974 -0.2038 -0.1959  0.1814
   26MOL0     H 3367   0.970   8.517  10.090  1.3936  2.3548  0.0937
   26MOL0     H 3368   0.783   8.477  10.261  0.7300 -0.6674 -0.7605
   26MOL0     H 3369   0.907   8.446  10.663 -1.6090  0.5876  1.2502
   26MOL0     H 3370   0.893   8.266  10.669 -0.0807 -0.0197  0.6655
   26MOL0     H 3371   0.683   8.491  10.694  0.5923 -0.1673  1.7663
   26MOL0     H 3372   0.736   8.376  10.819 -1.0945 -0.4688 -0.1423
   26MOL0     H 3373   0.628   8.183  10.698 -0.6051 -0.4317  0.8342
   26MOL0     H 3374   0.569   8.293  10.574  0.9139 -0.5574 -1.1348
   26MOL0     H 3375   0.489   8.317  10.878 -3.9093  1.1547  0.8663
   26MOL0     H 3376   0.469   8.430  10.749 -0.5240 -0.2753 -0.5739
   26MOL0     H 3377   0.319   8.241  10.616 -0.8283 -0.7092  1.1748
   26MOL0     H 3378   0.256   8.291  10.765 -0.7663 -2.6587 -0.2249
   26MOL0     H 3379   0.383   8.089  10.859  0.5046 -1.4420  0.3022
   26MOL0     H 3380   0.386   8.035  10.690  0.0077  0.6235  0.1421
   26MOL0     H 3381   0.117   8.102  10.713 -1.7232 -3.4280  0.2216
   26MOL0     H 3382   0.176   7.946  10.783  1.4087 -1.3794  2.4600
   26MOL0     H 3383   0.158   8.197  10.935 -1.6600  1.3005 -2.3825
   26MOL0     H 3384   0.206   8.021  10.983  0.4067 -1.2957 -0.5920
   26MOL0     H 3385  -0.121   8.155  10.811 -0.3852 -0.6478 -1.5132
   26MOL0     H 3386  -0.411   7.969  10.935  0.5728 -0.7021 -0.0415
   26MOL0     H 3387  -0.367   8.125  10.852 -1.7683 -0.4739 -0.3625
   26MOL0     H 3388  -0.378   8.244  11.054  0.6358 -0.4843  0.8128
   26MOL0     H 3389  -0.372   8.097  11.151 -1.3695  0.8516  1.0445
   26MOL0     H 3390  -0.598   8.177  10.966  1.0134 -0.8369 -0.3245
   26MOL0     H 3391  -0.585   8.029  11.079  2.2677 -1.0528 -1.9908
   26MOL0     H 3392  -0.592   8.325  11.137 -0.2492  0.2548  0.2395
   26MOL0     H 3393  -0.586   8.199  11.270 -0.9030  0.0493 -0.1935
   26MOL0     H 3394  -0.970   8.073  11.187 -2.1989  0.5428  0.0969
   26MOL0     H 3395  -1.127   8.114  11.360 -2.8190  1.8168  1.5144
   26MOL0     H 3396  -1.391   8.424  11.485 -1.4353  1.7083  1.8460
   26MOL0     H 3397  -1.623   8.435  11.527 -1.8074  1.5490  4.7138
   26MOL0     H 3398  -1.837   8.171  11.830  0.9113 -0.4385 -0.2929
   26MOL0     H 3399  -1.825   8.116  11.659 -0.2103 -0.0658  0.1066
   26MOL0     H 3400  -1.988   8.294  11.604  2.0804 -0.6930  0.5095
   26MOL0     H 3401  -1.991   8.350  11.776  0.4163 -1.3106  2.2344
   26MOL0     H 3402  -2.191   8.216  11.763 -0.5995 -0.2377 -1.9052
   26MOL0     H 3403  -2.072   8.128  11.847  2.2979  2.3275  0.1124
   26MOL0     H 3404  -2.019   8.015  11.599 -1.1126 -0.5615 -1.9290
   26MOL0     H 3405  -2.157   7.960  11.707 -0.8086 -0.3724 -1.2040
   26MOL0     H 3406  -2.154   8.086  11.444  1.2378 -0.8201  1.0706
   26MOL0     H 3407  -2.263   8.171  11.547 -1.3143 -1.1751 -0.9405
   26MOL0     H 3408  -2.376   8.021  11.424 -0.5060  2.7347  0.7222
   26MOL0     H 3409  -2.382   7.974  11.600 -0.2193 -0.7521  0.4923
   26MOL0     H 3410  -2.200   7.835  11.404 -1.1319  0.3652 -1.1854
   26MOL0     H 3411  -2.239   7.791  11.581 -3.5408 -2.6058  0.5154
   26MOL0     H 3412  -2.359   7.648  11.405  1.8685  0.4069 -1.8467
   26MOL0     H 3413  -2.425   7.788  11.333  1.2992 -1.9637 -0.9567
   26MOL0     H 3414  -1.605   8.094  11.766  3.3350 -1.2109  0.7611
   26MOL0     H 3415  -1.365   8.056  11.695  1.0202  0.3049 -0.7091
   26MOL0     H 3416  -0.880   8.421  11.541 -1.5026 -0.5062  1.0033
   26MOL0     H 3417  -0.705   8.364  11.360 -0.3662  1.8622  0.0834
   26MOL0     H 3418   1.072   8.336  10.545 -0.9916 -2.1941 -0.4606
   26MOL0     H 3419   1.250   8.370  10.362  0.3110 -1.5187 -0.4892
   26MOL0     H 3420   1.226   8.268   9.767  1.2510 -1.4615 -4.2001
   26MOL0     H 3421   1.411   8.229   9.620 -0.6787  0.5796  0.6997
   26MOL0     H 3422   1.812   8.277   9.777  3.5899  2.2160 -0.2513
   26MOL0     H 3423   1.807   8.427   9.700  0.7070  0.8204 -2.5185
   26MOL0     H 3424   1.966   8.252   9.611  0.4907  2.6617 -0.1331
   26MOL0     H 3425   1.825   8.162   9.560 -2.4596 -0.0944  0.1273
   26MOL0     H 3426   1.745   8.387   9.446 -1.1372 -1.0991  1.1878
   26MOL0     H 3427   1.874   8.282   9.374 -0.0862 -0.1599  1.4288
   26MOL0     H 3428   1.902   8.542   9.530 -1.7708 -0.9588  0.2572
   26MOL0     H 3429   2.048   8.459   9.475 -0.5325  0.4737  2.9599
   26MOL0     H 3430   1.932   8.653   9.118  2.5874  1.5751  0.6406
   26MOL0     H 3431   1.675   8.413   9.899  0.2051 -2.2609  0.9057
   26MOL0     H 3432   1.492   8.442  10.067 -0.6161  2.2659 -1.0697
   27MOL0     O 3433  11.210  11.017   4.235  0.5155 -0.0134 -0.1407
   27MOL0     C 3434  11.298  11.099   4.206  0.2439 -0.0168 -0.5766
   27MOL0     O 3435  11.272  11.232   4.182 -0.4571  0.7638  0.3646
   27MOL0     C 3436  11.153  11.300   4.211 -0.0126 -0.1161  0.1861
   27MOL0     C 3437  11.045  11.243   4.288  0.2375 -0.6815 -0.3507
   27MOL0     C 3438  10.923  11.313   4.314 -0.5221 -0.6363  1.0657
   27MOL0     C 3439  10.917  11.442   4.251  0.3784 -0.4417  0.1923
   27MOL0     O 3440  10.792  11.510   4.255 -1.1987  0.4715 -0.4994
   27MOL0     C 3441  10.677  11.443   4.289 -0.6061  0.0077  0.5402
   27MOL0     C 3442  10.554  11.534   4.266  0.4514 -0.4138 -0.0443
   27MOL0     C 3443  10.548  11.669   4.340  0.5831  0.4745  0.7238
   27MOL0     C 3444  10.513  11.670   4.483  0.6846  0.4136 -0.3467
   27MOL0     C 3445  10.514  11.816   4.533 -1.0929  0.4868  0.3012
   27MOL0     C 3446  10.491  11.819   4.684 -0.3322  0.0292 -0.7474
   27MOL0     C 3447  10.333  11.821   4.707  0.4349  0.1072  0.5469
   27MOL0     C 3448  10.298  11.846   4.850  0.2600 -0.1722 -0.5191
   27MOL0     N 3449  10.152  11.867   4.880  0.5996  1.0358 -0.2205
   27MOL0     C 3450  10.077  11.975   4.848  0.5443 -0.2614 -0.5100
   27MOL0     C 3451   9.953  11.970   4.917 -0.6372 -0.0283  0.0204
   27MOL0     C 3452   9.851  12.083   4.929  0.6579  0.5877 -0.3403
   27MOL0     C 3453   9.706  12.023   4.927  0.5624 -0.0736 -0.0707
   27MOL0     C 3454   9.659  11.981   4.787 -0.0251 -0.1759  0.2939
   27MOL0     C 3455   9.514  11.927   4.784 -0.6780  0.7006 -0.4676
   27MOL0     O 3456   9.411  12.021   4.822  0.5865  0.5865 -0.5499
   27MOL0     C 3457   9.275  11.990   4.838 -0.7999  0.6360  1.0324
   27MOL0     C 3458   9.214  12.068   4.937 -0.4313  0.5865 -0.7255
   27MOL0     C 3459   9.078  12.042   4.961  0.5980 -0.3168 -0.2860
   27MOL0     C 3460   9.003  11.945   4.894 -0.6880 -0.7953 -0.5945
   27MOL0     C 3461   8.871  11.908   4.931  0.0378  0.6457  0.4695
   27MOL0     O 3462   8.806  11.987   5.032 -0.0284  0.4898  0.3870
   27MOL0     C 3463   8.676  11.964   5.056  0.4814 -0.4641 -0.2506
   27MOL0     C 3464   8.576  11.932   4.950  0.4065  0.6956 -0.2325
   27MOL0     C 3465   8.442  11.914   4.992  1.1961 -0.1203 -0.0703
   27MOL0     C 3466   8.395  11.928   5.124  1.6050  0.3470 -0.4873
   27MOL0     O 3467   8.256  11.906   5.143 -0.1184 -0.6050  0.8089
   27MOL0     C 3468   8.192  11.907   5.272  0.5738  0.0441  0.7005
   27MOL0     C 3469   8.238  11.793   5.358  0.3439 -0.2907  0.2556
   27MOL0     C 3470   8.117  11.744   5.446  0.1360 -1.2592 -0.9146
   27MOL0     C 3471   8.173  11.632   5.536  0.3594 -0.2829  0.1247
   27MOL0     C 3472   8.062  11.572   5.624  0.0288 -0.8381 -0.0530
   27MOL0     C 3473   8.019  11.678   5.731  0.1045  1.0580  0.9560
   27MOL0     C 3474   7.941  11.608   5.837  0.0981  0.9928 -0.0211
   27MOL0     C 3475   7.856  11.709   5.913 -0.2721  0.4792 -0.6294
   27MOL0    Cl 3476   7.733  11.806   5.813  0.0534 -0.3188 -0.2977
   27MOL0     C 3477   8.492  11.949   5.225  0.7622 -1.0915  0.2166
   27MOL0     C 3478   8.633  11.972   5.190  0.1148 -0.2391  0.3288
   27MOL0     O 3479   8.823  11.807   4.882 -0.0012 -0.7051  0.0540
   27MOL0     C 3480   9.073  11.888   4.786 -0.1907  0.6170  0.1847
   27MOL0     C 3481   9.207  11.908   4.751  0.1691  0.9620  0.1903
   27MOL0     N 3482   9.952  11.839   4.962 -0.5619 -0.1027 -0.1215
   27MOL0     N 3483  10.072  11.782   4.953 -0.3859  0.3780 -0.4208
   27MOL0     C 3484  11.025  11.498   4.179 -0.0480 -0.1607 -0.1299
   27MOL0     C 3485  11.147  11.424   4.155  0.1817  1.0601 -0.1556
   27MOL0     C 3486  11.428  11.047   4.191 -0.6353 -0.5871 -0.4289
   27MOL0     C 3487  11.539  11.130   4.159 -0.0473 -0.5150 -1.4716
   27MOL0     C 3488  11.668  11.077   4.132  0.5411  0.0177 -1.0622
   27MOL0     C 3489  11.684  10.937   4.126  0.2125  0.3632 -0.0128
   27MOL0     O 3490  11.797  10.873   4.092 -0.7310 -0.9819 -0.3167
   27MOL0     C 3491  11.919  10.950   4.084  0.9267 -0.7308 -0.7752
   27MOL0     C 3492  12.039  10.858   4.069  0.4737 -0.0518 -0.4464
   27MOL0     C 3493  12.080  10.783   4.200  0.4281  0.1991 -0.1383
   27MOL0     C 3494  12.193  10.867   4.273  0.2862  0.1717 -0.2425
   27MOL0     C 3495  12.321  10.824   4.226 -0.0523 -0.7047  0.1400
   27MOL0     C 3496  12.433  10.788   4.193  0.0520  0.1196 -0.3145
   27MOL0     C 3497  11.579  10.851   4.161  0.5364 -0.5399 -0.2038
   27MOL0     C 3498  11.454  10.910   4.202 -0.1375 -0.5308  0.7592
   27MOL0     H 3499  11.051  11.150   4.344 -2.2286  0.0013  1.2539
   27MOL0     H 3500  10.857  11.272   4.390 -0.3190 -0.2038  1.4848
   27MOL0     H 3501  10.692  11.428   4.396  2.0210 -0.8222  0.1283
   27MOL0     H 3502  10.665  11.353   4.229 -2.0650 -0.1329  1.0232
   27MOL0     H 3503  10.462  11.482   4.292 -0.2606  1.3935  1.3013
   27MOL0     H 3504  10.549  11.560   4.160 -2.0593  0.3634  0.1968
   27MOL0     H 3505  10.474  11.720   4.278  3.7480  1.4788 -2.6781
   27MOL0     H 3506  10.648  11.708   4.319  0.2496  0.1509 -1.8899
   27MOL0     H 3507  10.416  11.622   4.497  0.5126  0.5747 -0.9389
   27MOL0     H 3508  10.591  11.616   4.537  2.7997  2.4475 -1.1761
   27MOL0     H 3509  10.450  11.888   4.482 -2.2084  0.2854  1.3434
   27MOL0     H 3510  10.618  11.838   4.507 -1.5720  0.1469 -2.1376
   27MOL0     H 3511  10.525  11.908   4.738  0.4632 -1.1009  0.7241
   27MOL0     H 3512  10.548  11.733   4.723 -0.1124 -0.9889 -3.1816
   27MOL0     H 3513  10.270  11.890   4.651 -2.7532 -1.4576  1.9482
   27MOL0     H 3514  10.293  11.724   4.674  0.7639  0.2547 -0.2912
   27MOL0     H 3515  10.359  11.927   4.892  1.2014 -1.8667  1.5302
   27MOL0     H 3516  10.334  11.759   4.905 -1.5681  0.3648  1.7050
   27MOL0     H 3517  10.115  12.061   4.794 -0.2230  1.5950  1.7391
   27MOL0     H 3518   9.850  12.162   4.853 -0.1415 -0.6148 -1.6244
   27MOL0     H 3519   9.879  12.126   5.026  4.4543 -0.5369 -0.7603
   27MOL0     H 3520   9.630  12.099   4.952  1.1106  0.1720  0.9424
   27MOL0     H 3521   9.688  11.941   4.997 -1.7021  1.9867  1.9789
   27MOL0     H 3522   9.659  12.051   4.703  2.4218 -0.5757 -0.1054
   27MOL0     H 3523   9.722  11.898   4.753  1.0181 -0.0508  1.8100
   27MOL0     H 3524   9.525  11.841   4.851  0.6877 -0.6634 -2.3336
   27MOL0     H 3525   9.492  11.874   4.690 -1.6918  1.6192 -0.7627
   27MOL0     H 3526   9.271  12.133   5.003 -1.0166  0.4196 -0.0329
   27MOL0     H 3527   9.029  12.087   5.047  1.8636  1.2270 -0.3248
   27MOL0     H 3528   8.601  11.914   4.846 -1.5519 -1.1202 -0.4533
   27MOL0     H 3529   8.356  11.904   4.926 -1.4701 -3.2436  3.4615
   27MOL0     H 3530   8.086  11.887   5.257  1.1412 -2.3667 -0.8275
   27MOL0     H 3531   8.193  12.009   5.310 -0.2656  0.9200 -1.4746
   27MOL0     H 3532   8.310  11.849   5.419 -1.9688  0.0684  2.8545
   27MOL0     H 3533   8.282  11.713   5.300  2.6458  1.8342 -1.1101
   27MOL0     H 3534   8.022  11.717   5.399 -0.1605  0.2318 -1.2460
   27MOL0     H 3535   8.085  11.830   5.506 -1.9586  1.1657 -5.0443
   27MOL0     H 3536   8.224  11.545   5.494 -1.8025 -2.6279  2.0225
   27MOL0     H 3537   8.248  11.689   5.592  0.5338  0.0612 -0.4565
   27MOL0     H 3538   8.112  11.489   5.674  1.1532  0.0240  0.2721
   27MOL0     H 3539   7.981  11.535   5.560 -0.7838 -0.4313  0.7156
   27MOL0     H 3540   7.956  11.762   5.698 -3.4026 -0.6983  2.5349
   27MOL0     H 3541   8.107  11.727   5.774  2.4425 -3.0975  1.3281
   27MOL0     H 3542   7.875  11.534   5.792  1.0017  0.7013 -0.9182
   27MOL0     H 3543   8.008  11.556   5.906 -2.2673  0.5818  2.0855
   27MOL0     H 3544   7.918  11.772   5.978  2.6730 -0.8024 -1.9728
   27MOL0     H 3545   7.798  11.657   5.990  0.1949  1.9212  0.7417
   27MOL0     H 3546   8.467  11.969   5.329  0.0930  3.9349 -0.6565
   27MOL0     H 3547   8.705  12.005   5.263  1.0836  1.0693 -1.1428
   27MOL0     H 3548   9.027  11.819   4.716  0.9735  2.7142 -2.8552
   27MOL0     H 3549   9.260  11.857   4.671  1.6595 -0.3798  1.9643
   27MOL0     H 3550  11.030  11.601   4.145 -1.0353  0.0494  0.3425
   27MOL0     H 3551  11.224  11.480   4.103 -1.6528  1.3257 -2.8301
   27MOL0     H 3552  11.544  11.239   4.162  0.9309 -0.5760 -0.1639
   27MOL0     H 3553  11.751  11.146   4.128  1.4568 -0.3977  4.2875
   27MOL0     H 3554  11.932  11.019   4.168  3.0362 -1.0413 -0.7871
   27MOL0     H 3555  11.921  11.002   3.987  0.5065 -2.3224 -1.6702
   27MOL0     H 3556  12.008  10.791   3.989  0.6342  3.1506 -3.4286
   27MOL0     H 3557  12.119  10.924   4.034 -1.2227  3.2041  1.2361
   27MOL0     H 3558  12.122  10.686   4.172  1.6499  0.5599  0.3537
   27MOL0     H 3559  11.992  10.769   4.262  0.0704  2.3446 -0.0705
   27MOL0     H 3560  12.183  10.976   4.282 -0.6589 -0.0564  2.3520
   27MOL0     H 3561  12.203  10.835   4.377  1.6641  0.5608 -0.2305
   27MOL0     H 3562  12.531  10.749   4.175 -0.5499 -1.8351  0.4480
   27MOL0     H 3563  11.582  10.743   4.159 -2.0284 -0.6624 -1.1712
   27MOL0     H 3564  11.381  10.836   4.230 -0.1370 -1.1831 -0.8599
   28MOL0     O 3565   4.112   1.012   8.890  0.2742 -0.8168 -0.1446
   28MOL0     C 3566   4.135   1.129   8.904 -0.1752 -0.2219 -0.2466
   28MOL0     O 3567   4.037   1.233   8.886 -0.3420 -0.0149 -0.2898
   28MOL0     C 3568   3.904   1.210   8.848  0.5241  0.1208 -1.0112
   28MOL0     C 3569   3.861   1.264   8.731 -0.8483  0.5228  0.4909
   28MOL0     C 3570   3.741   1.243   8.670  0.6237 -1.0754 -0.0504
   28MOL0     C 3571   3.642   1.165   8.737 -1.1184 -0.0575  0.3256
   28MOL0     O 3572   3.528   1.127   8.679  0.2322  0.8532  0.1766
   28MOL0     C 3573   3.458   1.207   8.577 -0.2493 -0.2812  0.0477
   28MOL0     C 3574   3.357   1.293   8.640  0.6860 -0.8547  0.2624
   28MOL0     C 3575   3.263   1.207   8.722 -1.1713 -0.9110 -0.6831
   28MOL0     C 3576   3.153   1.147   8.633  0.2002  0.0251  0.3466
   28MOL0     C 3577   3.115   1.007   8.678  0.3747 -0.7497 -0.6436
   28MOL0     C 3578   3.023   0.944   8.570 -0.4541 -0.1389  0.9463
   28MOL0     C 3579   2.892   1.017   8.540  0.0349 -0.4269  0.7925
   28MOL0     C 3580   2.783   0.989   8.649 -0.1870  0.0179  0.8701
   28MOL0     N 3581   2.665   1.070   8.638  0.7172 -1.2949 -1.2984
   28MOL0     C 3582   2.581   1.083   8.535 -0.2152 -0.7077  0.2023
   28MOL0     C 3583   2.505   1.188   8.553  0.8646 -0.4513  0.1750
   28MOL0     C 3584   2.419   1.259   8.456 -0.4757 -0.0561  0.8880
   28MOL0     C 3585   2.273   1.271   8.494  0.8103  0.1148  0.0895
   28MOL0     C 3586   2.203   1.373   8.397  0.8611  0.4810  0.4320
   28MOL0     C 3587   2.048   1.381   8.399 -0.1734  1.1075 -0.4492
   28MOL0     O 3588   2.001   1.450   8.517  0.3163  0.4945 -0.4052
   28MOL0     C 3589   1.865   1.475   8.519  0.0260 -0.6418 -0.3386
   28MOL0     C 3590   1.774   1.459   8.418  1.0220 -0.2131 -0.0093
   28MOL0     C 3591   1.642   1.497   8.440 -0.7170  0.5975  0.1212
   28MOL0     C 3592   1.612   1.572   8.550  0.3319  0.3904 -1.0689
   28MOL0     C 3593   1.481   1.640   8.565  0.1472 -0.1282 -0.6502
   28MOL0     O 3594   1.401   1.628   8.454  0.3692 -0.1124  0.2668
   28MOL0     C 3595   1.281   1.695   8.451  0.2696  0.2299  0.0562
   28MOL0     C 3596   1.171   1.618   8.405  0.0322  0.1175  0.8423
   28MOL0     C 3597   1.047   1.669   8.386  0.6515 -0.5565  0.2055
   28MOL0     C 3598   1.026   1.802   8.421  0.3707  0.4711  0.3591
   28MOL0     O 3599   0.893   1.846   8.410  0.3125  0.2504 -0.5077
   28MOL0     C 3600   0.870   1.981   8.444 -0.1968 -0.8673 -0.3795
   28MOL0     C 3601   0.715   2.013   8.433 -0.6154  0.8024  0.6515
   28MOL0     C 3602   0.648   2.003   8.558  0.3864 -0.2772 -0.6366
   28MOL0     C 3603   0.499   1.962   8.548 -0.5512  0.6419 -0.6726
   28MOL0     C 3604   0.402   2.075   8.516  0.0290  0.0223 -0.2117
   28MOL0     C 3605   0.251   2.040   8.543  0.1969 -1.5038 -0.0047
   28MOL0     C 3606   0.177   2.164   8.496  0.1573 -0.1165 -0.3070
   28MOL0     C 3607   0.027   2.137   8.506 -0.4093 -0.2992 -0.4494
   28MOL0    Cl 3608  -0.069   2.257   8.408 -0.3118 -0.2208 -0.1818
   28MOL0     C 3609   1.128   1.871   8.469  0.0334 -0.1497  0.0854
   28MOL0     C 3610   1.257   1.825   8.478  0.8491  0.2160  0.2279
   28MOL0     O 3611   1.449   1.701   8.668 -0.1403 -0.2209 -0.4032
   28MOL0     C 3612   1.702   1.580   8.654  0.3882  0.0938  1.0664
   28MOL0     C 3613   1.832   1.539   8.639 -0.3485 -0.3169  0.1707
   28MOL0     N 3614   2.529   1.230   8.681  0.4770  0.1318  0.2400
   28MOL0     N 3615   2.627   1.165   8.733  0.0782 -0.5490  0.2885
   28MOL0     C 3616   3.693   1.096   8.851  0.1913  0.7699  0.4141
   28MOL0     C 3617   3.820   1.117   8.907 -0.9576 -0.1823  0.5058
   28MOL0     C 3618   4.274   1.178   8.928  0.5627  0.6600 -1.0361
   28MOL0     C 3619   4.373   1.080   8.955  0.3701 -0.1883 -0.5646
   28MOL0     C 3620   4.510   1.106   8.970  0.5822 -0.5339  0.2020
   28MOL0     C 3621   4.553   1.238   8.978 -0.5650 -0.3805 -0.5346
   28MOL0     O 3622   4.684   1.284   8.993  0.6078 -1.3203 -0.3904
   28MOL0     C 3623   4.796   1.199   8.961  0.2747 -0.1143  0.2174
   28MOL0     C 3624   4.926   1.262   9.006 -0.5333 -0.7521  0.9971
   28MOL0     C 3625   4.961   1.396   8.940 -0.2008 -0.2054  0.2143
   28MOL0     C 3626   5.097   1.457   8.983  0.4443  0.2199 -0.3557
   28MOL0     C 3627   5.211   1.368   8.990 -0.0814  0.4808  1.1297
   28MOL0     C 3628   5.295   1.282   8.971 -0.8953  1.1534 -0.2334
   28MOL0     C 3629   4.455   1.334   8.977 -0.3252  0.0717 -0.3649
   28MOL0     C 3630   4.317   1.310   8.941  0.4062  0.6420 -0.7577
   28MOL0     H 3631   3.936   1.330   8.689 -0.0770  1.0399  2.5916
   28MOL0     H 3632   3.721   1.291   8.574  1.8142  1.5891  0.9414
   28MOL0     H 3633   3.408   1.152   8.497  0.7889  0.0748 -0.8807
   28MOL0     H 3634   3.523   1.274   8.519 -1.8846  0.8948 -0.4881
   28MOL0     H 3635   3.301   1.349   8.564 -1.4549 -1.9868  0.9403
   28MOL0     H 3636   3.406   1.369   8.701 -0.9594  2.3315 -2.0576
   28MOL0     H 3637   3.227   1.258   8.811  3.1031  1.5105 -0.0587
   28MOL0     H 3638   3.317   1.123   8.767  0.2201  1.4647  2.4513
   28MOL0     H 3639   3.059   1.204   8.641 -1.4554 -2.4875 -0.1493
   28MOL0     H 3640   3.188   1.156   8.530 -0.3375  1.1699  0.2421
   28MOL0     H 3641   3.066   1.014   8.776 -0.6279 -2.0862 -1.0139
   28MOL0     H 3642   3.208   0.950   8.688 -0.4279 -1.7979  1.8421
   28MOL0     H 3643   3.013   0.840   8.603 -0.5923 -0.7985 -1.0105
   28MOL0     H 3644   3.085   0.934   8.480 -1.6090 -0.3215  0.1489
   28MOL0     H 3645   2.913   1.123   8.528 -0.8477 -0.2016  1.1296
   28MOL0     H 3646   2.858   0.985   8.441  1.7559  1.1131 -0.3542
   28MOL0     H 3647   2.839   1.004   8.742  5.4220 -1.5499 -1.8223
   28MOL0     H 3648   2.753   0.884   8.644  0.4405 -0.1707 -3.6416
   28MOL0     H 3649   2.611   1.035   8.442  3.0090  0.1672  0.6752
   28MOL0     H 3650   2.429   1.208   8.359 -0.4889  2.3698 -0.4470
   28MOL0     H 3651   2.453   1.360   8.432 -2.7373  0.7938  1.0893
   28MOL0     H 3652   2.250   1.299   8.597  2.6360  0.6640  0.3825
   28MOL0     H 3653   2.241   1.167   8.479 -1.7376  0.8579 -0.1561
   28MOL0     H 3654   2.247   1.472   8.415 -0.1669  1.2308 -1.0130
   28MOL0     H 3655   2.231   1.341   8.296 -2.5403 -2.3851  0.2137
   28MOL0     H 3656   2.022   1.275   8.398  2.4992  0.3893 -0.3279
   28MOL0     H 3657   2.008   1.428   8.309 -2.6843 -0.8197 -0.4328
   28MOL0     H 3658   1.792   1.414   8.321  0.4390  0.9567 -0.6865
   28MOL0     H 3659   1.571   1.469   8.363 -0.3769  0.8642 -0.2991
   28MOL0     H 3660   1.184   1.517   8.367 -1.2693  0.3627 -0.3423
   28MOL0     H 3661   0.969   1.610   8.340 -0.9536  0.6444  1.2594
   28MOL0     H 3662   0.923   2.046   8.374  1.1008 -1.5967 -0.0993
   28MOL0     H 3663   0.890   2.000   8.550 -0.3651 -2.2402 -0.0868
   28MOL0     H 3664   0.669   1.951   8.355  3.5946 -1.4692 -0.2855
   28MOL0     H 3665   0.711   2.114   8.391 -0.9681  0.8222  0.7298
   28MOL0     H 3666   0.657   2.105   8.598  2.7114 -0.3799 -0.7641
   28MOL0     H 3667   0.696   1.942   8.636 -0.2776  1.5060  1.2765
   28MOL0     H 3668   0.486   1.876   8.481 -1.1347 -2.3652  2.9765
   28MOL0     H 3669   0.475   1.928   8.649  2.9377  3.6515  1.3954
   28MOL0     H 3670   0.418   2.080   8.408 -0.0801  1.6069 -0.1778
   28MOL0     H 3671   0.434   2.168   8.566 -0.9167 -0.2567  0.9620
   28MOL0     H 3672   0.235   2.013   8.647  3.3961 -2.4710  0.3416
   28MOL0     H 3673   0.212   1.957   8.483  0.7023 -1.7828  0.0462
   28MOL0     H 3674   0.205   2.248   8.561 -0.5554  0.9191 -1.2822
   28MOL0     H 3675   0.205   2.189   8.393 -0.2847  0.5083 -0.2808
   28MOL0     H 3676  -0.006   2.134   8.610  1.2877  0.3536  0.1371
   28MOL0     H 3677   0.013   2.038   8.462 -3.1356  0.3180 -1.1481
   28MOL0     H 3678   1.122   1.971   8.510  2.5866  0.6832 -1.3443
   28MOL0     H 3679   1.344   1.879   8.514 -0.3706  0.6433  2.8304
   28MOL0     H 3680   1.662   1.630   8.742 -1.6107 -1.7035  1.2574
   28MOL0     H 3681   1.897   1.556   8.724 -1.3787  1.8132  0.6040
   28MOL0     H 3682   3.635   1.020   8.901  1.4939 -0.0624  0.6995
   28MOL0     H 3683   3.850   1.064   8.996  0.8709 -1.4267 -0.7737
   28MOL0     H 3684   4.343   0.975   8.951  0.2728 -0.1564 -0.7166
   28MOL0     H 3685   4.583   1.026   8.973  0.2644 -0.9332 -1.4299
   28MOL0     H 3686   4.790   1.180   8.854 -3.5998 -1.8154  0.5636
   28MOL0     H 3687   4.786   1.103   9.012 -0.0397  1.1445  2.7045
   28MOL0     H 3688   4.926   1.277   9.114 -0.8518 -0.7640  1.0007
   28MOL0     H 3689   5.003   1.188   8.982  0.2085  0.7796 -1.8131
   28MOL0     H 3690   4.874   1.458   8.965  0.0792  0.9225 -1.4555
   28MOL0     H 3691   4.971   1.388   8.832 -0.4959 -0.7132  0.2222
   28MOL0     H 3692   5.121   1.539   8.915 -0.2805  2.7887  2.2655
   28MOL0     H 3693   5.094   1.500   9.084  1.0751 -0.0674 -0.2073
   28MOL0     H 3694   5.359   1.200   8.946 -1.2152  0.3517  1.4031
   28MOL0     H 3695   4.489   1.436   8.986  1.4577 -0.4624 -0.4776
   28MOL0     H 3696   4.252   1.396   8.931  0.7277  0.6562 -3.2887
   29MOL0     O 3697   4.170   5.116   4.578  0.2883 -0.5777  0.6255
   29MOL0     C 3698   4.189   5.227   4.619 -0.3545  0.3334  0.1871
   29MOL0     O 3699   4.085   5.313   4.660  0.4024  0.1706  0.1808
   29MOL0     C 3700   3.954   5.300   4.603 -0.5267  0.1903 -0.0842
   29MOL0     C 3701   3.849   5.345   4.680  0.0507 -0.5253  0.7882
   29MOL0     C 3702   3.719   5.348   4.638  1.4668 -0.6116 -1.1503
   29MOL0     C 3703   3.684   5.307   4.514  0.1433 -0.3806 -0.5044
   29MOL0     O 3704   3.549   5.311   4.477  1.3856 -0.1116  0.0444
   29MOL0     C 3705   3.506   5.229   4.362 -1.0276 -0.4350  0.1915
   29MOL0     C 3706   3.365   5.191   4.385  0.3874  0.1908 -0.3909
   29MOL0     C 3707   3.330   5.042   4.350  0.1224 -0.9191 -0.1858
   29MOL0     C 3708   3.178   5.023   4.353  0.0621 -0.2647  0.6472
   29MOL0     C 3709   3.111   5.056   4.218 -0.2319 -0.3880 -0.2615
   29MOL0     C 3710   2.956   5.071   4.217  0.3640  0.2330  0.0239
   29MOL0     C 3711   2.888   4.936   4.213 -0.9160 -0.8139 -0.1791
   29MOL0     C 3712   2.735   4.939   4.193  0.6895  0.0051 -0.1576
   29MOL0     N 3713   2.644   4.982   4.305  0.5566 -0.4446 -0.1642
   29MOL0     C 3714   2.629   4.915   4.426 -0.2897  0.3897  0.7248
   29MOL0     C 3715   2.522   4.981   4.480 -0.4051 -0.0336 -0.2809
   29MOL0     C 3716   2.479   4.957   4.630 -0.1440 -0.4980  0.0919
   29MOL0     C 3717   2.339   4.902   4.650 -0.6119 -1.2434  0.1815
   29MOL0     C 3718   2.231   5.009   4.625  0.2818  0.5319  0.6910
   29MOL0     C 3719   2.088   4.958   4.634 -0.4261  0.2467 -0.3573
   29MOL0     O 3720   2.044   4.952   4.773 -0.5189  0.2276  0.0034
   29MOL0     C 3721   1.908   4.962   4.796 -0.2013 -0.0904  0.9771
   29MOL0     C 3722   1.870   4.970   4.930 -0.9496 -0.2195 -0.0296
   29MOL0     C 3723   1.738   4.969   4.972 -0.1920 -0.2511  1.5651
   29MOL0     C 3724   1.633   4.963   4.873 -0.0918 -0.3289  0.5354
   29MOL0     C 3725   1.486   4.960   4.899  0.1814 -0.3907  1.0799
   29MOL0     O 3726   1.435   5.015   5.017 -0.1872  0.4298  0.0108
   29MOL0     C 3727   1.301   5.060   5.019 -0.3231  0.2146 -0.1833
   29MOL0     C 3728   1.242   5.063   5.147 -0.2974  0.2007  0.0995
   29MOL0     C 3729   1.104   5.099   5.157 -0.1135  0.4038  0.8093
   29MOL0     C 3730   1.040   5.158   5.050 -1.3392  0.0993  0.3710
   29MOL0     O 3731   0.918   5.201   5.072  0.1014  0.0766 -0.4549
   29MOL0     C 3732   0.862   5.292   4.977  0.6736  0.6389 -0.3729
   29MOL0     C 3733   0.719   5.336   5.015 -0.0056  0.6450 -0.7441
   29MOL0     C 3734   0.622   5.216   4.983  0.0360 -0.2855 -0.0016
   29MOL0     C 3735   0.469   5.250   4.987 -0.3360  0.6726  0.3810
   29MOL0     C 3736   0.390   5.156   4.891  0.1004  0.8422 -0.5372
   29MOL0     C 3737   0.242   5.195   4.911 -0.2149 -0.3193 -0.6291
   29MOL0     C 3738   0.147   5.114   4.810  0.0393  1.0265  0.2451
   29MOL0     C 3739   0.002   5.124   4.859 -0.0008 -0.0332  0.4071
   29MOL0    Cl 3740  -0.105   5.019   4.760 -0.1475  0.0051  0.8351
   29MOL0     C 3741   1.112   5.169   4.923 -0.1380  0.0257 -0.5752
   29MOL0     C 3742   1.241   5.125   4.915 -0.9126 -0.0010  0.3456
   29MOL0     O 3743   1.416   4.918   4.809 -0.4336 -0.0902  0.1354
   29MOL0     C 3744   1.675   4.957   4.737 -0.1205  0.6877 -0.4175
   29MOL0     C 3745   1.804   4.961   4.699 -0.6850 -0.1909 -1.0340
   29MOL0     N 3746   2.467   5.069   4.394  0.5724  0.0038  0.2870
   29MOL0     N 3747   2.545   5.072   4.292 -0.5353  0.5380  0.7818
   29MOL0     C 3748   3.788   5.257   4.438  0.5800  0.3192  0.6621
   29MOL0     C 3749   3.925   5.248   4.471 -0.5193 -1.5294 -0.0785
   29MOL0     C 3750   4.316   5.263   4.663 -0.1432  0.3716 -0.0483
   29MOL0     C 3751   4.339   5.384   4.741 -0.0300  0.3100 -0.3059
   29MOL0     C 3752   4.468   5.428   4.778 -0.0072  0.0022  0.8749
   29MOL0     C 3753   4.585   5.366   4.728 -0.6778  0.4269  1.1521
   29MOL0     O 3754   4.702   5.428   4.753 -0.5645 -0.6332 -0.3937
   29MOL0     C 3755   4.831   5.378   4.715  0.4972 -0.2640  0.0294
   29MOL0     C 3756   4.850   5.422   4.569  0.2180  0.4120 -0.5363
   29MOL0     C 3757   4.985   5.396   4.500  1.0457 -0.3786  0.0051
   29MOL0     C 3758   5.092   5.473   4.577 -0.0647 -0.9021 -0.0562
   29MOL0     C 3759   5.142   5.407   4.699  0.0201 -0.4151 -0.3979
   29MOL0     C 3760   5.181   5.368   4.800 -0.2526  0.6351 -0.4820
   29MOL0     C 3761   4.564   5.250   4.654 -0.0773 -0.2162 -0.5248
   29MOL0     C 3762   4.436   5.201   4.614 -0.0203  0.1845 -1.5892
   29MOL0     H 3763   3.868   5.388   4.778 -1.3672 -1.1538  1.3807
   29MOL0     H 3764   3.650   5.390   4.710 -0.3084 -2.1255 -1.9078
   29MOL0     H 3765   3.568   5.139   4.367 -2.5753 -1.5998 -0.7540
   29MOL0     H 3766   3.526   5.292   4.275 -3.6144 -0.1033 -0.2297
   29MOL0     H 3767   3.309   5.263   4.324  0.6390 -0.2474 -1.1531
   29MOL0     H 3768   3.349   5.198   4.493  1.8820 -2.3268  0.0563
   29MOL0     H 3769   3.376   4.981   4.428  2.1992  0.5887 -0.1470
   29MOL0     H 3770   3.367   5.015   4.250  1.2857  1.4735 -0.4846
   29MOL0     H 3771   3.160   4.916   4.370 -0.8703 -0.6363 -2.2166
   29MOL0     H 3772   3.140   5.083   4.437  2.2497  0.8484  0.9097
   29MOL0     H 3773   3.142   4.980   4.146 -0.0058 -1.4921  0.9724
   29MOL0     H 3774   3.144   5.153   4.178 -2.0464 -0.2108 -1.4391
   29MOL0     H 3775   2.927   5.127   4.128 -0.0059 -1.2234 -0.8059
   29MOL0     H 3776   2.931   5.129   4.306 -2.2896 -1.9149  0.8287
   29MOL0     H 3777   2.945   4.871   4.147 -1.6171 -1.6637  0.0288
   29MOL0     H 3778   2.890   4.901   4.317  0.9318  2.1560  0.9061
   29MOL0     H 3779   2.698   4.839   4.171  0.7698  0.8042 -5.1072
   29MOL0     H 3780   2.710   5.001   4.106 -1.3906 -0.8014 -0.1900
   29MOL0     H 3781   2.691   4.835   4.467  0.0815  1.0890  1.5554
   29MOL0     H 3782   2.492   5.045   4.693 -3.1187 -0.9381  1.4934
   29MOL0     H 3783   2.555   4.892   4.675  1.5650 -0.1325 -2.0835
   29MOL0     H 3784   2.328   4.879   4.757  1.0321 -1.4385  0.3221
   29MOL0     H 3785   2.329   4.812   4.588  0.6259 -1.7063  0.6272
   29MOL0     H 3786   2.244   5.087   4.700  3.2121  0.3993  0.4270
   29MOL0     H 3787   2.241   5.042   4.521 -2.2708 -0.5428  0.0261
   29MOL0     H 3788   2.079   4.859   4.589  2.4917 -0.2664 -0.0205
   29MOL0     H 3789   2.041   5.040   4.580  0.9618  0.7205 -0.9136
   29MOL0     H 3790   1.949   4.980   5.004  0.5982  1.2193 -1.7898
   29MOL0     H 3791   1.704   4.976   5.074 -3.0111  2.8477  0.6031
   29MOL0     H 3792   1.282   5.022   5.239 -3.5937 -0.5684  1.3650
   29MOL0     H 3793   1.063   5.101   5.258 -1.4022  4.4382  0.3901
   29MOL0     H 3794   0.860   5.253   4.875 -0.4681  1.6875 -0.7756
   29MOL0     H 3795   0.935   5.373   4.977  2.6358 -1.0247 -1.2454
   29MOL0     H 3796   0.687   5.428   4.965 -2.0228  0.9047  0.9073
   29MOL0     H 3797   0.719   5.354   5.123  0.8291  0.2467 -0.6635
   29MOL0     H 3798   0.646   5.140   5.058  0.6123 -1.4668 -1.3357
   29MOL0     H 3799   0.654   5.168   4.890  0.7257  0.0190  0.0775
   29MOL0     H 3800   0.431   5.241   5.089 -1.4023 -0.2885 -0.0873
   29MOL0     H 3801   0.463   5.355   4.957  2.1268  0.4176 -1.3575
   29MOL0     H 3802   0.392   5.050   4.917  2.1180  1.0425  0.3538
   29MOL0     H 3803   0.420   5.173   4.787 -2.4527  1.3043 -1.2504
   29MOL0     H 3804   0.238   5.304   4.907  4.4645  0.1707  1.6620
   29MOL0     H 3805   0.220   5.164   5.014 -0.8486  1.0504 -0.3327
   29MOL0     H 3806   0.169   5.151   4.709 -0.7185  1.7163  0.3163
   29MOL0     H 3807   0.164   5.006   4.808 -0.7299  0.9019 -0.7814
   29MOL0     H 3808  -0.034   5.227   4.851 -1.3631 -0.6451 -2.4455
   29MOL0     H 3809   0.003   5.094   4.964  0.4360 -0.9504  0.1479
   29MOL0     H 3810   1.066   5.209   4.833 -1.9251 -0.1410  0.2236
   29MOL0     H 3811   1.286   5.132   4.816 -0.0629  1.4495  0.7943
   29MOL0     H 3812   1.604   4.941   4.657 -2.6376 -1.4904  2.0625
   29MOL0     H 3813   1.816   4.942   4.593 -3.3535 -3.4351 -0.9175
   29MOL0     H 3814   3.771   5.222   4.336  1.4203  3.3731 -0.6542
   29MOL0     H 3815   4.001   5.209   4.404  2.0018  2.0467  0.3700
   29MOL0     H 3816   4.254   5.446   4.767 -0.6586  0.3026 -2.1324
   29MOL0     H 3817   4.473   5.518   4.840 -2.9313  0.0049  1.2717
   29MOL0     H 3818   4.840   5.269   4.725 -1.4194 -0.3796  1.0694
   29MOL0     H 3819   4.905   5.410   4.788  3.1433 -2.9799 -1.2637
   29MOL0     H 3820   4.771   5.373   4.511  1.6711 -1.1531 -1.2467
   29MOL0     H 3821   4.824   5.529   4.560 -1.1746  0.0284 -1.5146
   29MOL0     H 3822   4.972   5.439   4.400  2.7782 -0.9431 -0.4855
   29MOL0     H 3823   5.012   5.291   4.488 -2.0482 -0.9839 -3.3120
   29MOL0     H 3824   5.172   5.479   4.503  0.6686 -0.4414  0.7516
   29MOL0     H 3825   5.053   5.574   4.596  0.5916 -0.7719  0.6571
   29MOL0     H 3826   5.223   5.320   4.886  1.3923 -0.5278 -1.8683
   29MOL0     H 3827   4.651   5.186   4.639 -0.8319 -1.0967 -1.2166
   29MOL0     H 3828   4.437   5.116   4.547 -0.9260  0.0512 -1.4513
   30MOL0     O 3829  10.615   1.540   3.772  0.2625 -0.0882  0.5816
   30MOL0     C 3830  10.628   1.591   3.659 -0.8389  0.3308 -0.5706
   30MOL0     O 3831  10.534   1.661   3.589  0.0570 -0.3198 -0.2917
   30MOL0     C 3832  10.425   1.721   3.664 -0.1076 -0.0234  0.5178
   30MOL0     C 3833  10.328   1.644   3.723 -0.0836  0.8430  0.3333
   30MOL0     C 3834  10.237   1.704   3.807 -0.2695  0.5823  0.4247
   30MOL0     C 3835  10.231   1.837   3.829  0.6184 -0.3891  0.6089
   30MOL0     O 3836  10.126   1.888   3.896  1.3239 -0.3912 -0.4217
   30MOL0     C 3837  10.138   2.016   3.962  0.6582  0.3549 -0.2211
   30MOL0     C 3838   9.995   2.069   3.985 -0.2457  0.1171 -0.1982
   30MOL0     C 3839   9.991   2.197   4.070 -0.2026 -0.5096  0.2059
   30MOL0     C 3840   9.859   2.214   4.145 -0.6395 -0.3703  0.2153
   30MOL0     C 3841   9.849   2.337   4.239  0.0971 -0.1789  1.1264
   30MOL0     C 3842   9.716   2.331   4.308  0.3064  0.8484  0.0045
   30MOL0     C 3843   9.722   2.417   4.433  0.7222  0.9648  0.0153
   30MOL0     C 3844   9.580   2.430   4.494  0.9704  0.2101  0.3017
   30MOL0     N 3845   9.511   2.544   4.441 -0.9124  0.0879  0.6370
   30MOL0     C 3846   9.419   2.540   4.340 -0.4652  0.3161  0.0308
   30MOL0     C 3847   9.349   2.652   4.342  0.5611  0.5459  0.0930
   30MOL0     C 3848   9.253   2.701   4.229 -0.1945 -0.8921 -0.7765
   30MOL0     C 3849   9.112   2.716   4.300 -0.6877 -0.0145  0.4432
   30MOL0     C 3850   9.012   2.795   4.209 -0.6292 -0.2649  0.3778
   30MOL0     C 3851   8.868   2.784   4.241 -0.4046  0.4832 -0.2919
   30MOL0     O 3852   8.831   2.656   4.172  0.5723 -0.2692  0.2015
   30MOL0     C 3853   8.701   2.659   4.118 -0.4217 -0.3944  0.1788
   30MOL0     C 3854   8.593   2.648   4.198 -0.1153 -0.1949 -0.3122
   30MOL0     C 3855   8.465   2.654   4.144  0.4896 -0.5871 -0.1264
   30MOL0     C 3856   8.448   2.670   4.004  0.3335 -0.1665  0.7084
   30MOL0     C 3857   8.313   2.684   3.950 -0.6139  0.6826 -0.9593
   30MOL0     O 3858   8.212   2.691   4.045 -0.6597 -0.8727  0.6408
   30MOL0     C 3859   8.091   2.729   3.996  0.6271 -0.6514  0.5794
   30MOL0     C 3860   7.994   2.631   3.985 -0.4424 -0.7586 -0.6393
   30MOL0     C 3861   7.866   2.664   3.934 -0.1826 -0.2225  0.1275
   30MOL0     C 3862   7.843   2.794   3.880  0.7122  0.1084  0.4989
   30MOL0     O 3863   7.724   2.829   3.819  0.0552  0.1424 -0.1578
   30MOL0     C 3864   7.607   2.808   3.894  0.2160 -1.0389  0.4080
   30MOL0     C 3865   7.506   2.920   3.859 -0.7733  0.7319  0.4297
   30MOL0     C 3866   7.366   2.876   3.920  0.1356  0.0710  1.1688
   30MOL0     C 3867   7.238   2.955   3.859 -0.9928  1.1214 -0.9010
   30MOL0     C 3868   7.102   2.925   3.928  0.2757  0.2117  0.0470
   30MOL0     C 3869   6.989   2.976   3.834  1.0033  0.1028 -0.2499
   30MOL0     C 3870   6.847   2.965   3.904  0.3781  0.5237  0.2157
   30MOL0     C 3871   6.744   3.011   3.799  0.6002  0.0945 -0.8741
   30MOL0    Cl 3872   6.577   2.999   3.876 -0.1076 -0.4073 -0.0236
   30MOL0     C 3873   7.944   2.891   3.889  0.2195 -0.8209  0.8645
   30MOL0     C 3874   8.068   2.856   3.940  0.0256  0.6411 -0.2156
   30MOL0     O 3875   8.299   2.710   3.832  0.0869 -1.0099  0.3822
   30MOL0     C 3876   8.564   2.694   3.924  0.7377 -0.8164  0.1004
   30MOL0     C 3877   8.689   2.688   3.988 -0.1450  0.1564 -0.6977
   30MOL0     N 3878   9.393   2.729   4.451 -0.2249  0.0020  0.4983
   30MOL0     N 3879   9.492   2.663   4.495  0.5053  0.5364  0.1867
   30MOL0     C 3880  10.328   1.917   3.770 -0.4866  0.1979  0.4751
   30MOL0     C 3881  10.424   1.859   3.686 -0.2511  0.7177  0.5516
   30MOL0     C 3882  10.757   1.566   3.591  0.5385 -0.3318 -0.5815
   30MOL0     C 3883  10.882   1.554   3.655  0.3373  0.2559 -0.3238
   30MOL0     C 3884  10.988   1.516   3.581 -0.3988 -0.9883  0.9627
   30MOL0     C 3885  10.978   1.497   3.439  0.1567  0.7308 -0.5951
   30MOL0     O 3886  11.082   1.461   3.357 -0.0287 -0.2718 -0.3923
   30MOL0     C 3887  11.218   1.460   3.415  0.0818 -0.4198 -0.3334
   30MOL0     C 3888  11.316   1.447   3.298 -0.2476  0.3642 -0.0450
   30MOL0     C 3889  11.456   1.499   3.339  0.1747 -0.1399  0.1360
   30MOL0     C 3890  11.572   1.463   3.237  0.1797 -0.5100 -0.8692
   30MOL0     C 3891  11.579   1.318   3.205 -0.4346 -0.1215 -0.3802
   30MOL0     C 3892  11.582   1.200   3.170 -0.5902 -0.3107 -0.0156
   30MOL0     C 3893  10.849   1.506   3.374  0.8064  0.1349 -0.1195
   30MOL0     C 3894  10.743   1.544   3.458 -0.5409  0.9698  0.2895
   30MOL0     H 3895  10.321   1.539   3.696  0.5174  1.5041 -2.7704
   30MOL0     H 3896  10.162   1.640   3.853 -0.2557  0.1606 -0.1218
   30MOL0     H 3897  10.191   2.091   3.902 -0.3235  2.1548  1.0914
   30MOL0     H 3898  10.183   2.002   4.061 -2.4881  1.2072  1.4442
   30MOL0     H 3899   9.951   1.998   4.055 -0.8114  3.0590  2.6773
   30MOL0     H 3900   9.947   2.085   3.888  0.9765  0.2854 -0.7918
   30MOL0     H 3901  10.011   2.280   4.002  1.3870 -0.4802  0.6611
   30MOL0     H 3902  10.079   2.203   4.135  0.6657  4.0338 -1.0630
   30MOL0     H 3903   9.774   2.220   4.075 -3.3705 -1.4638  3.1933
   30MOL0     H 3904   9.825   2.130   4.206 -4.2315  2.1820  2.1082
   30MOL0     H 3905   9.847   2.431   4.183  0.1768 -0.8356 -0.0024
   30MOL0     H 3906   9.934   2.339   4.308 -0.2645 -1.0378  1.6186
   30MOL0     H 3907   9.696   2.225   4.330 -0.1255  0.6441 -1.3223
   30MOL0     H 3908   9.632   2.372   4.251 -1.1904 -2.4388 -0.3846
   30MOL0     H 3909   9.771   2.354   4.508 -0.5027 -0.7103 -0.5038
   30MOL0     H 3910   9.770   2.514   4.419  0.3209  0.8830 -2.3986
   30MOL0     H 3911   9.582   2.444   4.603 -1.6749 -0.1901  0.4692
   30MOL0     H 3912   9.529   2.334   4.482 -2.3126  1.4702  2.6083
   30MOL0     H 3913   9.407   2.451   4.278  2.8208 -0.6092  0.5056
   30MOL0     H 3914   9.247   2.625   4.151 -3.1751 -0.8321 -0.7136
   30MOL0     H 3915   9.292   2.795   4.190  2.0817 -2.0828 -1.5186
   30MOL0     H 3916   9.127   2.761   4.398  4.2803  0.5269 -0.3037
   30MOL0     H 3917   9.069   2.615   4.299 -0.1321 -0.2603  0.6343
   30MOL0     H 3918   9.047   2.898   4.220 -0.5758 -0.0192 -1.6897
   30MOL0     H 3919   9.042   2.766   4.108 -0.2581  1.7716 -0.1433
   30MOL0     H 3920   8.822   2.878   4.210  0.1629  0.9136  0.1454
   30MOL0     H 3921   8.861   2.773   4.349  2.3538 -2.4163 -0.2659
   30MOL0     H 3922   8.606   2.623   4.303  0.0345  1.5898  0.1226
   30MOL0     H 3923   8.384   2.629   4.212  0.2007  2.1198  0.6427
   30MOL0     H 3924   8.028   2.536   4.023  2.8759  0.6970  0.3266
   30MOL0     H 3925   7.785   2.594   3.919  0.1555 -0.4037 -0.9261
   30MOL0     H 3926   7.616   2.809   4.003  0.8962 -1.0722  0.3533
   30MOL0     H 3927   7.552   2.717   3.865 -3.1287  0.4294  1.6623
   30MOL0     H 3928   7.493   2.913   3.751  1.3343  1.9981  0.0260
   30MOL0     H 3929   7.537   3.021   3.886  2.6635  0.6514 -2.5182
   30MOL0     H 3930   7.377   2.901   4.026  1.9861  0.4739  0.9168
   30MOL0     H 3931   7.346   2.769   3.909 -0.3673  0.4238 -2.7175
   30MOL0     H 3932   7.260   3.062   3.852  3.0260  0.4982 -0.2183
   30MOL0     H 3933   7.236   2.914   3.758 -0.3053 -2.6123  0.4024
   30MOL0     H 3934   7.088   2.981   4.021 -0.3336  0.5810 -0.2596
   30MOL0     H 3935   7.092   2.820   3.954 -0.6311 -0.6230 -3.2074
   30MOL0     H 3936   6.983   2.913   3.745 -2.3288 -1.3343  0.8364
   30MOL0     H 3937   7.020   3.078   3.810 -1.2852  1.3821  1.7917
   30MOL0     H 3938   6.833   2.859   3.930  2.3444  0.6183  1.9334
   30MOL0     H 3939   6.848   3.034   3.988 -1.4145 -0.2262  0.9043
   30MOL0     H 3940   6.757   2.946   3.712  0.3547  0.1354 -0.9420
   30MOL0     H 3941   6.753   3.115   3.766 -1.9700  0.1871 -1.5089
   30MOL0     H 3942   7.928   2.980   3.829 -1.3541 -2.9656 -2.1503
   30MOL0     H 3943   8.138   2.938   3.943  0.7359  0.1592 -2.2545
   30MOL0     H 3944   8.565   2.719   3.818  0.2345  0.5553  0.3921
   30MOL0     H 3945   8.781   2.698   3.932 -1.4374  1.4559 -2.6972
   30MOL0     H 3946  10.348   2.023   3.780  1.3701  0.1351 -1.7737
   30MOL0     H 3947  10.506   1.916   3.642  2.0753 -0.6150  2.8696
   30MOL0     H 3948  10.906   1.557   3.761  1.4606  0.3016 -0.5591
   30MOL0     H 3949  11.078   1.487   3.635  2.7841  1.5914 -2.4366
   30MOL0     H 3950  11.228   1.370   3.475  0.4748 -1.4146 -1.8451
   30MOL0     H 3951  11.245   1.549   3.472  2.0739 -1.5351  0.5309
   30MOL0     H 3952  11.315   1.339   3.278 -0.6130  0.9277 -3.9853
   30MOL0     H 3953  11.274   1.504   3.214 -1.1447  0.1243  0.2315
   30MOL0     H 3954  11.476   1.473   3.443  3.9028 -1.7948 -0.8256
   30MOL0     H 3955  11.452   1.608   3.332  3.8763  0.1826  0.9055
   30MOL0     H 3956  11.580   1.519   3.143 -1.4111  0.2719 -0.5703
   30MOL0     H 3957  11.667   1.482   3.287 -0.3964 -2.5881  1.1827
   30MOL0     H 3958  11.587   1.097   3.140  1.3074 -0.6061  1.1174
   30MOL0     H 3959  10.847   1.496   3.266  1.2784  0.2750 -0.1413
   30MOL0     H 3960  10.647   1.560   3.411 -2.2318  1.2561  3.5325
   31MOL0     O 3961   9.785   8.781   5.144 -0.1953  0.1540 -0.0813
   31MOL0     C 3962   9.817   8.865   5.230 -1.6463  0.1027  0.4020
   31MOL0     O 3963   9.729   8.935   5.299 -0.0137  0.3692 -1.0726
   31MOL0     C 3964   9.596   8.925   5.259 -0.2754 -0.4743  0.1396
   31MOL0     C 3965   9.546   9.005   5.156 -0.5682 -0.7003 -1.0383
   31MOL0     C 3966   9.416   9.009   5.110 -0.1688  0.1541  0.0587
   31MOL0     C 3967   9.329   8.913   5.172 -0.1101 -0.9059  0.1427
   31MOL0     O 3968   9.193   8.906   5.142 -0.3154  0.4011  0.1596
   31MOL0     C 3969   9.123   9.037   5.156  0.1301  0.1282 -0.8680
   31MOL0     C 3970   8.993   9.034   5.070  0.2023  0.4136 -0.5277
   31MOL0     C 3971   8.907   8.917   5.107  0.1544 -0.5960  0.6661
   31MOL0     C 3972   8.758   8.912   5.043 -0.8676 -0.7132 -0.6313
   31MOL0     C 3973   8.763   8.860   4.895  0.1432  0.2558  0.1130
   31MOL0     C 3974   8.622   8.854   4.838  0.3596  0.4219  0.4460
   31MOL0     C 3975   8.523   8.775   4.927  0.8346  0.8508  0.2121
   31MOL0     C 3976   8.550   8.624   4.932  0.6403 -0.3550  0.5497
   31MOL0     N 3977   8.431   8.540   4.955  0.0887  0.2956 -0.5261
   31MOL0     C 3978   8.389   8.522   5.081  0.5241 -0.0214 -1.2815
   31MOL0     C 3979   8.267   8.462   5.076 -0.1173 -0.7600  0.1449
   31MOL0     C 3980   8.176   8.423   5.191 -0.9025  0.0366  0.0140
   31MOL0     C 3981   8.033   8.394   5.160  0.7943 -0.1664  0.4804
   31MOL0     C 3982   7.960   8.499   5.078  0.3952  0.8530  0.2801
   31MOL0     C 3983   7.926   8.627   5.162 -0.5683 -0.2235 -0.1401
   31MOL0     O 3984   7.858   8.595   5.288  0.6085 -0.5206  0.6485
   31MOL0     C 3985   7.725   8.560   5.295 -0.1082 -0.1207 -0.9090
   31MOL0     C 3986   7.626   8.593   5.205 -0.1382 -0.3195  1.3451
   31MOL0     C 3987   7.495   8.558   5.235 -0.5271 -0.6274 -0.3243
   31MOL0     C 3988   7.461   8.501   5.361  0.2456  0.7475  0.0771
   31MOL0     C 3989   7.317   8.465   5.382 -0.2987  0.4586  0.5861
   31MOL0     O 3990   7.300   8.350   5.451  0.1478  0.0715  0.0014
   31MOL0     C 3991   7.177   8.311   5.497  0.1731 -0.5558 -0.2370
   31MOL0     C 3992   7.153   8.307   5.635  0.1087 -0.5141  0.1691
   31MOL0     C 3993   7.024   8.275   5.689 -0.0871 -0.2909 -0.2982
   31MOL0     C 3994   6.917   8.235   5.599 -0.0689 -0.2592 -0.2008
   31MOL0     O 3995   6.789   8.190   5.628 -0.5707  0.0241  0.4078
   31MOL0     C 3996   6.767   8.146   5.760 -0.8280 -0.4688  0.0424
   31MOL0     C 3997   6.610   8.155   5.758 -0.7275 -0.5473 -0.0819
   31MOL0     C 3998   6.540   8.056   5.659  0.3058 -0.1208  0.3688
   31MOL0     C 3999   6.570   7.910   5.675 -0.0545  0.0304  0.0473
   31MOL0     C 4000   6.584   7.866   5.817  0.2349 -0.9835  0.3784
   31MOL0     C 4001   6.609   7.719   5.823 -0.7133 -0.9290  0.2571
   31MOL0     C 4002   6.635   7.680   5.970 -0.0037  0.7500 -0.4905
   31MOL0     C 4003   6.679   7.535   5.971 -0.4986 -1.0657  0.0544
   31MOL0    Cl 4004   6.548   7.440   5.900 -0.0374 -0.0359 -0.1560
   31MOL0     C 4005   6.948   8.231   5.460 -0.2527  0.9710 -0.0152
   31MOL0     C 4006   7.077   8.268   5.409  0.7733  0.7274 -0.2083
   31MOL0     O 4007   7.231   8.526   5.322  0.1825  0.3167 -0.3468
   31MOL0     C 4008   7.566   8.476   5.451  0.9588  0.7174 -1.3842
   31MOL0     C 4009   7.693   8.505   5.420 -0.9161 -0.6157 -0.0257
   31MOL0     N 4010   8.238   8.447   4.944 -0.2322  0.6678  0.3006
   31MOL0     N 4011   8.333   8.494   4.871  0.0328 -0.2039  0.6579
   31MOL0     C 4012   9.378   8.833   5.269 -0.0142  0.9105  0.0940
   31MOL0     C 4013   9.512   8.837   5.316  0.1910 -0.1119 -0.0071
   31MOL0     C 4014   9.958   8.880   5.267 -1.1351 -0.3248  0.6111
   31MOL0     C 4015  10.061   8.802   5.200  0.5614  0.4397 -0.3540
   31MOL0     C 4016  10.196   8.821   5.223  0.4674  0.2426 -0.6241
   31MOL0     C 4017  10.243   8.903   5.326  0.4473 -0.1051  0.4858
   31MOL0     O 4018  10.379   8.908   5.336 -0.6181 -0.1894 -0.2752
   31MOL0     C 4019  10.431   9.026   5.407  0.5485  0.4885 -0.2085
   31MOL0     C 4020  10.577   9.017   5.414 -0.3470  0.1745  0.2190
   31MOL0     C 4021  10.660   9.146   5.413  0.2273  0.7791 -0.2241
   31MOL0     C 4022  10.769   9.157   5.533 -0.0560  0.0039  0.0925
   31MOL0     C 4023  10.699   9.160   5.656 -0.4235 -1.0224 -0.9555
   31MOL0     C 4024  10.641   9.152   5.759  0.0358  0.1342 -0.1725
   31MOL0     C 4025  10.147   8.967   5.402 -0.2422  0.7926  0.6726
   31MOL0     C 4026  10.002   8.953   5.374  0.1199  0.4662  0.2091
   31MOL0     H 4027   9.617   9.063   5.098 -0.1896  1.4052  1.3827
   31MOL0     H 4028   9.387   9.073   5.027  1.5202  2.0973  0.8825
   31MOL0     H 4029   9.169   9.131   5.125  0.6104 -0.3378 -1.6127
   31MOL0     H 4030   9.093   9.056   5.259  0.9913  1.4089 -0.8289
   31MOL0     H 4031   9.027   9.028   4.967 -0.9018 -2.5596 -0.8256
   31MOL0     H 4032   8.928   9.122   5.075 -0.4207  0.0251 -1.4385
   31MOL0     H 4033   8.893   8.922   5.216  0.0207  0.4946  0.6110
   31MOL0     H 4034   8.957   8.824   5.081  1.3134 -0.4225  2.1005
   31MOL0     H 4035   8.702   8.842   5.105  2.9054 -1.9344  1.7245
   31MOL0     H 4036   8.716   9.013   5.046  0.1942 -0.2325 -1.2335
   31MOL0     H 4037   8.801   8.758   4.882 -0.0275  0.3254 -1.1087
   31MOL0     H 4038   8.840   8.914   4.838  0.5829  1.2257  1.5689
   31MOL0     H 4039   8.642   8.802   4.743  2.4206 -1.2399  1.7023
   31MOL0     H 4040   8.588   8.954   4.809  1.8992  0.9017  0.1880
   31MOL0     H 4041   8.506   8.810   5.029  1.9291  0.5640  0.5015
   31MOL0     H 4042   8.420   8.779   4.891 -0.1664  1.5904  2.9398
   31MOL0     H 4043   8.626   8.601   5.008  2.2610  0.0221 -0.9064
   31MOL0     H 4044   8.607   8.598   4.842  1.1856  2.7428 -0.1073
   31MOL0     H 4045   8.441   8.550   5.172 -2.3182  0.8104  0.2103
   31MOL0     H 4046   8.175   8.501   5.268 -2.2018 -1.4837  1.6260
   31MOL0     H 4047   8.213   8.332   5.240  0.3343 -0.8029 -2.3218
   31MOL0     H 4048   7.971   8.383   5.250 -1.2335  0.0971 -0.8324
   31MOL0     H 4049   8.024   8.296   5.112  1.3792 -0.6651  1.3597
   31MOL0     H 4050   8.010   8.528   4.985 -2.4803  3.7652 -0.5478
   31MOL0     H 4051   7.865   8.455   5.048 -0.2405  2.8140 -0.7172
   31MOL0     H 4052   7.860   8.692   5.105  0.8729 -0.1908 -1.8649
   31MOL0     H 4053   8.018   8.677   5.195 -1.0936  0.2191  0.6839
   31MOL0     H 4054   7.645   8.642   5.110  2.3845  2.5299  3.1616
   31MOL0     H 4055   7.419   8.593   5.165  0.3337 -1.6052 -1.8043
   31MOL0     H 4056   7.226   8.346   5.705  0.6607 -1.9286  0.4083
   31MOL0     H 4057   7.007   8.265   5.796 -1.9508 -3.6152 -0.7702
   31MOL0     H 4058   6.813   8.206   5.839  1.0987  0.9620 -2.0625
   31MOL0     H 4059   6.811   8.047   5.776  0.6277  0.1022 -0.3251
   31MOL0     H 4060   6.588   8.256   5.720 -1.5106 -0.5164  0.4165
   31MOL0     H 4061   6.575   8.138   5.860 -0.9780  0.0056 -0.0706
   31MOL0     H 4062   6.555   8.084   5.555 -0.8020  1.3714  0.5831
   31MOL0     H 4063   6.436   8.075   5.687  1.2519  3.8292  1.8165
   31MOL0     H 4064   6.497   7.848   5.622 -1.2993 -0.7988  2.5626
   31MOL0     H 4065   6.665   7.887   5.625 -0.1334 -2.1191  0.8036
   31MOL0     H 4066   6.492   7.898   5.867  2.1581  2.1833  2.1963
   31MOL0     H 4067   6.664   7.917   5.871 -0.2892 -0.7603  0.9524
   31MOL0     H 4068   6.695   7.695   5.761 -0.1457 -2.9239  1.7032
   31MOL0     H 4069   6.518   7.664   5.797  0.5265 -2.4246 -1.0344
   31MOL0     H 4070   6.706   7.751   6.013 -1.8505  1.7491  1.0718
   31MOL0     H 4071   6.542   7.692   6.026  0.6814 -1.1603  1.1633
   31MOL0     H 4072   6.710   7.504   6.070  2.4043  0.3250 -0.3282
   31MOL0     H 4073   6.765   7.538   5.903 -0.3787  1.3543  0.2262
   31MOL0     H 4074   6.867   8.194   5.398 -0.4739  1.2751  0.0896
   31MOL0     H 4075   7.103   8.285   5.305  1.2497  0.5235 -0.1243
   31MOL0     H 4076   7.545   8.432   5.549 -1.3287  2.7556 -0.8556
   31MOL0     H 4077   7.766   8.510   5.501  0.0480  0.3967 -0.9233
   31MOL0     H 4078   9.314   8.752   5.301 -2.9312  3.1213  0.2933
   31MOL0     H 4079   9.531   8.764   5.395 -1.6820 -1.9875 -1.1537
   31MOL0     H 4080  10.027   8.747   5.113  1.4800 -0.1754 -0.3392
   31MOL0     H 4081  10.270   8.774   5.158 -0.6126 -0.6717 -1.2411
   31MOL0     H 4082  10.385   9.021   5.507 -2.1438 -3.0891 -1.4043
   31MOL0     H 4083  10.402   9.117   5.353  0.7832  0.9983  0.5116
   31MOL0     H 4084  10.609   8.965   5.505  3.7186  1.1859 -0.4261
   31MOL0     H 4085  10.614   8.959   5.328  1.0261 -1.3808  1.7820
   31MOL0     H 4086  10.580   9.221   5.412 -3.1214 -2.4762  1.0551
   31MOL0     H 4087  10.709   9.151   5.315 -0.0122 -0.7783 -0.4442
   31MOL0     H 4088  10.841   9.074   5.540 -1.0651 -0.7685  1.9487
   31MOL0     H 4089  10.827   9.247   5.513  2.5578 -1.6468 -0.2776
   31MOL0     H 4090  10.604   9.157   5.859  3.2667 -0.0067  1.1544
   31MOL0     H 4091  10.173   9.024   5.491 -0.4357  1.4694  0.2993
   31MOL0     H 4092   9.930   8.995   5.444 -0.1722  3.2255 -1.6196
   32MOL0     O 4093   4.437   6.368   9.090 -0.3025 -0.2243  0.4403
   32MOL0     C 4094   4.473   6.483   9.081 -1.3325 -0.7781  0.9913
   32MOL0     O 4095   4.400   6.587   9.027 -0.2739  0.0991  0.0890
   32MOL0     C 4096   4.268   6.557   8.997  0.0503  0.3946  0.9829
   32MOL0     C 4097   4.215   6.589   8.871  0.2553 -0.6245 -0.1165
   32MOL0     C 4098   4.080   6.581   8.847 -0.5926 -0.4801 -0.5911
   32MOL0     C 4099   3.992   6.540   8.954  0.2290 -1.1382 -0.0760
   32MOL0     O 4100   3.855   6.550   8.932  0.4994 -0.0196  0.4896
   32MOL0     C 4101   3.763   6.557   9.039  0.6504  0.6949  0.5548
   32MOL0     C 4102   3.622   6.575   8.983 -0.4040  0.2885 -0.7868
   32MOL0     C 4103   3.523   6.588   9.092 -0.7376  0.1884 -0.7521
   32MOL0     C 4104   3.378   6.622   9.048 -0.5715  1.0907  0.2154
   32MOL0     C 4105   3.283   6.637   9.176  0.0940  0.2164  0.5162
   32MOL0     C 4106   3.133   6.663   9.137  0.2598 -0.3080 -0.6957
   32MOL0     C 4107   3.066   6.518   9.122  0.6465  0.0152  0.0602
   32MOL0     C 4108   2.927   6.535   9.055 -0.7409 -0.3309  0.6686
   32MOL0     N 4109   2.839   6.635   9.121  0.2348 -0.2689  0.0338
   32MOL0     C 4110   2.811   6.627   9.255  0.3044 -0.5710 -0.1823
   32MOL0     C 4111   2.745   6.740   9.281  0.6435  0.4741 -0.2774
   32MOL0     C 4112   2.685   6.765   9.413 -0.6734  0.2885  0.3145
   32MOL0     C 4113   2.552   6.711   9.455 -0.3949 -0.3646  0.2572
   32MOL0     C 4114   2.438   6.779   9.380 -0.8528 -0.5616  0.3105
   32MOL0     C 4115   2.310   6.728   9.443 -1.3043 -0.1255  0.7574
   32MOL0     O 4116   2.212   6.800   9.374 -0.3008  0.2364 -0.6228
   32MOL0     C 4117   2.081   6.815   9.423 -0.4959 -0.0997  0.4503
   32MOL0     C 4118   2.044   6.830   9.557 -0.2333 -0.3428  0.6320
   32MOL0     C 4119   1.908   6.859   9.590  0.3730 -0.3932  0.9418
   32MOL0     C 4120   1.808   6.839   9.485  0.1301  0.4001 -0.4153
   32MOL0     C 4121   1.663   6.870   9.512 -0.1523  0.6949  0.6667
   32MOL0     O 4122   1.635   6.917   9.636 -0.3160  0.4838 -0.6248
   32MOL0     C 4123   1.516   6.987   9.653 -0.8678  0.2416 -0.2944
   32MOL0     C 4124   1.527   7.120   9.698 -0.7036  0.1401 -0.0165
   32MOL0     C 4125   1.413   7.187   9.740  0.1887  0.9093  1.2299
   32MOL0     C 4126   1.281   7.129   9.706 -0.1075  0.6695 -0.3611
   32MOL0     O 4127   1.166   7.192   9.734 -0.2837 -0.3760  0.1975
   32MOL0     C 4128   1.164   7.329   9.695 -0.3315  0.1119  1.0625
   32MOL0     C 4129   1.170   7.429   9.805 -0.5226  0.7391 -0.3476
   32MOL0     C 4130   1.114   7.571   9.767  0.6813  0.0294 -0.7067
   32MOL0     C 4131   1.053   7.623   9.896  0.5228 -0.4018  0.1395
   32MOL0     C 4132   1.002   7.765   9.897 -0.9007  0.7905  0.4642
   32MOL0     C 4133   1.103   7.855   9.811 -0.5342  0.0520  0.1573
   32MOL0     C 4134   1.110   7.997   9.862  0.2960 -0.0350  0.0003
   32MOL0     C 4135   0.966   8.057   9.856 -0.2545 -0.2233  0.6504
   32MOL0    Cl 4136   0.889   8.042   9.681  0.1331 -0.0822 -0.0341
   32MOL0     C 4137   1.276   6.997   9.657 -0.0190  0.4963  0.2563
   32MOL0     C 4138   1.390   6.926   9.640  0.3243 -0.4825 -0.0802
   32MOL0     O 4139   1.576   6.862   9.422  0.4072 -0.3392  0.0599
   32MOL0     C 4140   1.849   6.805   9.357 -0.5197  0.9637 -0.1240
   32MOL0     C 4141   1.982   6.799   9.328  0.5159 -0.4078  0.2051
   32MOL0     N 4142   2.728   6.816   9.168  0.1836  0.0686  0.9962
   32MOL0     N 4143   2.786   6.751   9.073 -0.1325  0.0612 -0.3061
   32MOL0     C 4144   4.051   6.495   9.072 -0.1431 -0.5089 -0.0976
   32MOL0     C 4145   4.185   6.510   9.101 -0.5629  1.3195  0.2253
   32MOL0     C 4146   4.607   6.521   9.122  0.6973  0.8708 -0.4278
   32MOL0     C 4147   4.661   6.429   9.207 -0.5782  0.1675 -0.6635
   32MOL0     C 4148   4.783   6.453   9.271  0.3741 -0.3114 -0.9706
   32MOL0     C 4149   4.853   6.564   9.237 -0.7760 -0.0280  0.1571
   32MOL0     O 4150   4.980   6.599   9.275  0.7807 -0.0362  0.2377
   32MOL0     C 4151   5.055   6.519   9.365 -0.7999  0.7048 -0.4385
   32MOL0     C 4152   5.190   6.570   9.406 -0.3508 -0.8613  0.1857
   32MOL0     C 4153   5.183   6.711   9.484 -0.3060  0.2108  0.4667
   32MOL0     C 4154   5.271   6.705   9.612  0.0874  0.4473 -0.4168
   32MOL0     C 4155   5.400   6.655   9.579 -1.0808 -0.3334  0.1958
   32MOL0     C 4156   5.510   6.606   9.561 -0.0948 -0.3281  0.1585
   32MOL0     C 4157   4.793   6.658   9.158  0.2525 -0.8272  0.0821
   32MOL0     C 4158   4.669   6.641   9.104  0.2794 -0.3545  0.3473
   32MOL0     H 4159   4.287   6.629   8.801 -0.0379  3.1111  1.4717
   32MOL0     H 4160   4.030   6.613   8.756 -0.4735  2.6470  0.3022
   32MOL0     H 4161   3.797   6.644   9.097  1.7763  0.5988  0.0561
   32MOL0     H 4162   3.760   6.465   9.098 -0.5152  1.1209  1.1964
   32MOL0     H 4163   3.604   6.483   8.926  0.9751 -1.9358  2.0869
   32MOL0     H 4164   3.621   6.655   8.909  3.3911  0.1566 -1.1997
   32MOL0     H 4165   3.560   6.659   9.167 -0.4543  0.4417 -1.1287
   32MOL0     H 4166   3.512   6.492   9.143  0.7279  0.3786 -0.0421
   32MOL0     H 4167   3.370   6.711   8.985 -3.4378 -1.2003 -2.9967
   32MOL0     H 4168   3.336   6.537   8.993  2.5267 -1.3212  1.2730
   32MOL0     H 4169   3.321   6.709   9.249  1.8232  0.8468 -0.9239
   32MOL0     H 4170   3.280   6.544   9.232  0.5565  0.2272  0.5612
   32MOL0     H 4171   3.125   6.721   9.044 -0.7197 -2.3527 -1.9706
   32MOL0     H 4172   3.099   6.733   9.214  1.9901 -0.8586  0.6373
   32MOL0     H 4173   3.120   6.443   9.064  0.6278  0.2912 -0.3193
   32MOL0     H 4174   3.053   6.477   9.223  1.6968 -2.5238 -0.7701
   32MOL0     H 4175   2.876   6.440   9.042  0.2642 -0.7687 -0.1960
   32MOL0     H 4176   2.959   6.580   8.961 -1.7143 -1.3088 -0.1450
   32MOL0     H 4177   2.834   6.548   9.326 -0.2452 -1.8549 -1.4008
   32MOL0     H 4178   2.672   6.874   9.409 -4.4348 -0.0338 -0.8234
   32MOL0     H 4179   2.754   6.727   9.488 -0.3852 -2.8536 -1.3593
   32MOL0     H 4180   2.544   6.719   9.564 -2.6739 -1.6211  0.2481
   32MOL0     H 4181   2.559   6.604   9.432  2.2645 -0.7410  2.2890
   32MOL0     H 4182   2.451   6.888   9.381  0.2680 -0.6587 -1.0969
   32MOL0     H 4183   2.431   6.744   9.277 -0.2686  2.5239 -0.8965
   32MOL0     H 4184   2.303   6.736   9.552 -0.6379  1.0692  0.7306
   32MOL0     H 4185   2.302   6.624   9.410  2.4967 -0.1318 -0.6836
   32MOL0     H 4186   2.116   6.837   9.638 -1.3655  0.2848  1.6162
   32MOL0     H 4187   1.885   6.896   9.690  1.5403  1.4230  0.5947
   32MOL0     H 4188   1.622   7.173   9.701 -1.6117  2.0206 -1.6918
   32MOL0     H 4189   1.415   7.285   9.786 -3.5027  0.6179  2.3768
   32MOL0     H 4190   1.075   7.348   9.635  2.2957  1.2352 -2.9495
   32MOL0     H 4191   1.230   7.362   9.613 -3.3132 -0.1806 -1.6642
   32MOL0     H 4192   1.275   7.432   9.837 -0.2152 -2.2884 -0.8404
   32MOL0     H 4193   1.107   7.389   9.885 -0.1339 -1.4527 -1.0855
   32MOL0     H 4194   1.035   7.553   9.693 -0.5438 -1.2991  0.8684
   32MOL0     H 4195   1.192   7.634   9.723  2.7873 -3.7260 -3.0124
   32MOL0     H 4196   0.979   7.554   9.936 -1.3516  1.3370 -0.1568
   32MOL0     H 4197   1.128   7.619   9.976  0.8912  1.4764 -0.0674
   32MOL0     H 4198   0.994   7.797  10.002 -3.0291 -1.6371  1.1441
   32MOL0     H 4199   0.900   7.769   9.858 -1.0891  1.9309  1.0122
   32MOL0     H 4200   1.084   7.857   9.703  0.3333  1.3552  0.0041
   32MOL0     H 4201   1.204   7.813   9.810 -0.3227  0.5404  0.7775
   32MOL0     H 4202   1.137   8.006   9.968 -0.1771 -1.6140  0.2770
   32MOL0     H 4203   1.191   8.046   9.808  2.0679 -1.1644  1.5265
   32MOL0     H 4204   0.968   8.166   9.871 -1.2378 -0.1210  0.1192
   32MOL0     H 4205   0.899   8.018   9.933 -1.3347  2.3767  1.1460
   32MOL0     H 4206   1.172   6.969   9.646 -0.2600  0.4522  2.3133
   32MOL0     H 4207   1.385   6.819   9.621 -3.1997 -0.6878  1.2531
   32MOL0     H 4208   1.778   6.789   9.276 -1.3356  0.2065  0.7179
   32MOL0     H 4209   2.012   6.777   9.226  2.1864 -0.2306  0.6189
   32MOL0     H 4210   3.987   6.463   9.153 -1.4539  1.2138 -0.3871
   32MOL0     H 4211   4.237   6.478   9.190 -0.0370 -3.0235 -1.3838
   32MOL0     H 4212   4.630   6.328   9.230  0.3575 -0.2194 -1.0457
   32MOL0     H 4213   4.837   6.382   9.332  0.6675  0.9448  0.2945
   32MOL0     H 4214   5.071   6.423   9.315 -1.4091 -0.2383  1.1219
   32MOL0     H 4215   4.992   6.490   9.449  2.3150 -2.2669  1.1017
   32MOL0     H 4216   5.230   6.492   9.472 -0.8029 -1.0942  0.1852
   32MOL0     H 4217   5.254   6.579   9.317  0.8387  0.2568  1.1114
   32MOL0     H 4218   5.081   6.736   9.513 -0.3246 -0.0432  0.6127
   32MOL0     H 4219   5.229   6.791   9.424  2.6182 -0.9950  0.9165
   32MOL0     H 4220   5.280   6.807   9.650 -3.0126  0.9403 -0.7254
   32MOL0     H 4221   5.223   6.645   9.690  0.9362  0.3578  0.0447
   32MOL0     H 4222   5.605   6.559   9.545 -1.1541 -3.3804  2.0500
   32MOL0     H 4223   4.865   6.735   9.133  2.0328 -2.7329 -0.9685
   32MOL0     H 4224   4.622   6.718   9.043  0.5292 -0.4053  0.0903
   33MOL0     O 4225   2.118   2.540   3.197 -0.2819  0.2325  0.4435
   33MOL0     C 4226   2.124   2.586   3.308 -0.3312  0.0886 -0.2936
   33MOL0     O 4227   2.038   2.681   3.360 -0.0451  0.8689 -0.3596
   33MOL0     C 4228   1.938   2.740   3.293 -0.8841  0.4533  0.2406
   33MOL0     C 4229   1.954   2.790   3.162  0.7056 -0.1058  0.4278
   33MOL0     C 4230   1.842   2.849   3.094  0.3158 -0.3576 -0.0738
   33MOL0     C 4231   1.720   2.872   3.157 -0.2962 -0.4166  0.3902
   33MOL0     O 4232   1.612   2.925   3.086 -0.0126 -0.4890  0.8927
   33MOL0     C 4233   1.484   2.900   3.137  0.3402 -0.1434  0.1348
   33MOL0     C 4234   1.384   2.966   3.044  0.5622 -0.4912 -0.3155
   33MOL0     C 4235   1.245   2.976   3.096  0.6903 -0.1699 -0.8873
   33MOL0     C 4236   1.153   3.069   3.007 -0.1825  0.1405 -0.5929
   33MOL0     C 4237   1.005   3.050   3.044  0.4654  0.2287  0.1046
   33MOL0     C 4238   0.907   3.130   2.949  0.4854  0.6869  0.4999
   33MOL0     C 4239   0.759   3.089   2.977 -1.1663  0.2961  0.1852
   33MOL0     C 4240   0.669   3.160   2.876  0.4624 -0.3955 -0.5727
   33MOL0     N 4241   0.526   3.105   2.886  0.0573 -0.8821  0.8864
   33MOL0     C 4242   0.422   3.147   2.972 -0.2740  0.1618 -0.2558
   33MOL0     C 4243   0.323   3.059   2.957 -0.1368  0.0258  0.2486
   33MOL0     C 4244   0.190   3.055   3.021  0.1158  0.0701  0.1860
   33MOL0     C 4245   0.101   3.175   2.985  0.4028 -0.3655  0.3212
   33MOL0     C 4246   0.047   3.160   2.841 -0.0485  0.5388 -0.7233
   33MOL0     C 4247  -0.076   3.079   2.856  0.9906  0.3572 -0.0176
   33MOL0     O 4248  -0.189   3.154   2.902  0.4471 -0.5658  0.4656
   33MOL0     C 4249  -0.311   3.097   2.880 -0.1438 -0.4534 -0.5903
   33MOL0     C 4250  -0.415   3.192   2.868 -0.5031  0.7445 -0.4419
   33MOL0     C 4251  -0.551   3.150   2.857  0.3528 -0.4667 -0.3452
   33MOL0     C 4252  -0.584   3.019   2.846 -0.3051  0.4499 -0.0534
   33MOL0     C 4253  -0.718   2.985   2.817 -0.3470 -1.5277  0.8593
   33MOL0     O 4254  -0.828   3.070   2.843  0.7485 -0.6475 -0.2495
   33MOL0     C 4255  -0.948   3.031   2.794 -0.0824 -0.5220  0.1637
   33MOL0     C 4256  -0.997   2.904   2.823 -0.0803 -0.4935  0.0777
   33MOL0     C 4257  -1.125   2.869   2.770 -0.7809  0.1746  0.4811
   33MOL0     C 4258  -1.198   2.964   2.689  0.9386  0.5565 -0.2944
   33MOL0     O 4259  -1.321   2.927   2.636 -0.4273 -0.1403 -0.2565
   33MOL0     C 4260  -1.423   3.015   2.597  0.1269  0.5987 -0.3225
   33MOL0     C 4261  -1.499   3.088   2.712  0.1554 -0.3877  0.1247
   33MOL0     C 4262  -1.549   2.981   2.813 -0.2387 -0.4751 -0.0938
   33MOL0     C 4263  -1.598   3.037   2.954  0.5043  0.3376  0.6927
   33MOL0     C 4264  -1.631   2.918   3.046 -0.8383 -0.2741 -1.2213
   33MOL0     C 4265  -1.752   2.830   3.005 -0.1179 -0.1297 -0.0239
   33MOL0     C 4266  -1.809   2.749   3.119  0.8657  0.3444  0.1918
   33MOL0     C 4267  -1.871   2.602   3.085  0.9474 -0.4737 -1.1018
   33MOL0    Cl 4268  -2.010   2.612   2.967 -0.0898  0.5637 -0.4171
   33MOL0     C 4269  -1.152   3.105   2.679 -0.7327 -0.2517 -0.0708
   33MOL0     C 4270  -1.026   3.125   2.728 -0.7562  0.0936 -1.0777
   33MOL0     O 4271  -0.729   2.882   2.753 -0.5825 -0.0381  0.1964
   33MOL0     C 4272  -0.480   2.925   2.862 -0.0404  0.1148  0.0221
   33MOL0     C 4273  -0.347   2.963   2.889 -0.3620 -0.0416 -0.1828
   33MOL0     N 4274   0.368   2.968   2.867  0.0997 -0.1857 -0.2739
   33MOL0     N 4275   0.489   2.988   2.823  0.4189 -0.7398 -0.1816
   33MOL0     C 4276   1.714   2.825   3.292 -0.2799 -0.5547 -1.1631
   33MOL0     C 4277   1.823   2.758   3.362  0.8992 -0.0185 -0.5426
   33MOL0     C 4278   2.249   2.553   3.374 -0.1914  0.0455 -0.4701
   33MOL0     C 4279   2.335   2.445   3.333  0.4081  0.0012 -1.0804
   33MOL0     C 4280   2.457   2.423   3.400 -0.2714  0.0009  0.2274
   33MOL0     C 4281   2.490   2.502   3.505  0.1920  0.3040 -0.6503
   33MOL0     O 4282   2.615   2.474   3.565  0.6217 -0.2041  0.1150
   33MOL0     C 4283   2.683   2.599   3.599 -0.3494 -0.0324 -0.1037
   33MOL0     C 4284   2.835   2.570   3.607  0.5220 -0.1312 -0.2564
   33MOL0     C 4285   2.870   2.507   3.737 -0.3147  0.1778 -0.1764
   33MOL0     C 4286   3.014   2.451   3.731  0.4571  0.6628 -0.0604
   33MOL0     C 4287   3.116   2.539   3.679  0.5442  0.6756 -0.0821
   33MOL0     C 4288   3.211   2.586   3.620 -0.1157  0.1455  0.6683
   33MOL0     C 4289   2.401   2.607   3.552 -0.1032  0.6912  0.0426
   33MOL0     C 4290   2.287   2.634   3.483 -0.1592 -0.0621 -0.1674
   33MOL0     H 4291   2.031   2.749   3.098  0.4301 -1.3442  0.8490
   33MOL0     H 4292   1.853   2.877   2.990  0.3033  0.6352  0.1852
   33MOL0     H 4293   1.467   2.926   3.242 -2.2464  2.0316 -0.7181
   33MOL0     H 4294   1.468   2.792   3.126  1.5757 -0.2383 -1.0699
   33MOL0     H 4295   1.389   2.917   2.947  0.7383  1.4498 -1.3410
   33MOL0     H 4296   1.420   3.069   3.033  2.1661 -1.2374 -2.9909
   33MOL0     H 4297   1.238   3.013   3.199 -1.6081  0.8867 -1.3459
   33MOL0     H 4298   1.198   2.877   3.095 -0.6731  0.4434 -0.6390
   33MOL0     H 4299   1.197   3.169   3.011 -0.5743  0.2861  0.2324
   33MOL0     H 4300   1.157   3.044   2.900 -0.9867  0.7099 -0.7666
   33MOL0     H 4301   0.996   3.083   3.148  1.3033  1.1911 -0.1140
   33MOL0     H 4302   0.975   2.946   3.032  0.8329  0.4080 -3.9349
   33MOL0     H 4303   0.933   3.093   2.850 -1.8500  0.6787 -0.1657
   33MOL0     H 4304   0.917   3.238   2.965  0.6547  0.6706  0.5033
   33MOL0     H 4305   0.745   2.981   2.971  0.4541  0.1345 -1.6514
   33MOL0     H 4306   0.745   3.110   3.084 -0.7918  1.3263  0.0501
   33MOL0     H 4307   0.706   3.150   2.774  0.9557 -2.2463 -0.2526
   33MOL0     H 4308   0.656   3.267   2.897 -1.4356 -1.0021  1.8840
   33MOL0     H 4309   0.413   3.229   3.043  0.2708  2.1235 -2.3367
   33MOL0     H 4310   0.192   3.046   3.130 -0.2097  1.0232  0.2817
   33MOL0     H 4311   0.144   2.964   2.979 -3.1239  1.9009 -0.5811
   33MOL0     H 4312   0.147   3.272   3.005 -1.1065  0.2851  0.8061
   33MOL0     H 4313   0.023   3.178   3.062 -0.5008  0.5153 -0.5927
   33MOL0     H 4314   0.005   3.254   2.803 -2.4190  0.5701  1.6735
   33MOL0     H 4315   0.116   3.104   2.777  2.1745  0.4884  1.5904
   33MOL0     H 4316  -0.073   2.994   2.925 -0.1031  1.6514  1.6918
   33MOL0     H 4317  -0.089   3.039   2.755 -2.0560  2.1250 -0.4325
   33MOL0     H 4318  -0.401   3.298   2.887 -4.9376  1.1617  1.9886
   33MOL0     H 4319  -0.631   3.224   2.857  0.8437  0.1194  1.6293
   33MOL0     H 4320  -0.940   2.832   2.882  0.1249  0.0976  0.6136
   33MOL0     H 4321  -1.159   2.766   2.780  3.6702 -1.4271  1.4330
   33MOL0     H 4322  -1.497   2.957   2.541  1.1527 -2.2564  1.0837
   33MOL0     H 4323  -1.384   3.091   2.529  2.8389  1.9054  2.4757
   33MOL0     H 4324  -1.578   3.153   2.674  0.6325 -0.3193 -0.7776
   33MOL0     H 4325  -1.428   3.149   2.768  1.1287 -1.4293  0.0467
   33MOL0     H 4326  -1.475   2.905   2.837 -0.2206 -0.3052  0.4040
   33MOL0     H 4327  -1.638   2.929   2.776  0.0199 -0.3753 -0.8873
   33MOL0     H 4328  -1.514   3.087   3.003  1.7369 -2.3315  1.4823
   33MOL0     H 4329  -1.680   3.103   2.925 -0.7855 -1.8907 -1.1470
   33MOL0     H 4330  -1.648   2.951   3.149  2.6536 -1.7366 -0.0298
   33MOL0     H 4331  -1.540   2.858   3.047  0.5644  1.5709 -4.1190
   33MOL0     H 4332  -1.720   2.760   2.927 -0.5139  0.2449 -0.5311
   33MOL0     H 4333  -1.834   2.895   2.975 -0.8142 -0.6115  0.7745
   33MOL0     H 4334  -1.737   2.745   3.201 -0.6737 -3.2436  1.5699
   33MOL0     H 4335  -1.895   2.802   3.161 -0.5131 -2.2207  0.8307
   33MOL0     H 4336  -1.899   2.549   3.177 -2.2505  1.8856 -0.5589
   33MOL0     H 4337  -1.788   2.550   3.037 -0.1274 -0.7550 -2.7197
   33MOL0     H 4338  -1.219   3.179   2.637 -0.4299  0.2247  0.2782
   33MOL0     H 4339  -0.980   3.224   2.726 -0.6601  0.3396  3.1805
   33MOL0     H 4340  -0.506   2.820   2.864 -0.7592  0.2647 -0.7448
   33MOL0     H 4341  -0.282   2.877   2.893 -0.3715 -0.0614 -0.4400
   33MOL0     H 4342   1.636   2.842   3.364  1.3487 -2.8368  1.3221
   33MOL0     H 4343   1.817   2.724   3.465  0.1695  2.1998  0.2079
   33MOL0     H 4344   2.307   2.379   3.251  1.0563 -2.5694  0.6488
   33MOL0     H 4345   2.520   2.348   3.352 -0.9181 -2.2871  2.6728
   33MOL0     H 4346   2.646   2.631   3.697 -0.1442  1.9323 -0.6338
   33MOL0     H 4347   2.661   2.683   3.532 -0.9796 -0.6326 -0.6758
   33MOL0     H 4348   2.870   2.514   3.520  0.1234 -0.6485 -0.0934
   33MOL0     H 4349   2.890   2.663   3.591  0.2752 -0.1285 -1.1046
   33MOL0     H 4350   2.799   2.426   3.755  0.7664 -1.2848 -2.0426
   33MOL0     H 4351   2.867   2.580   3.818 -0.5996 -1.6699  1.5620
   33MOL0     H 4352   3.048   2.435   3.834  3.0030  2.8387 -0.4471
   33MOL0     H 4353   3.014   2.357   3.675  0.8616 -1.6399  3.5402
   33MOL0     H 4354   3.295   2.616   3.561 -0.4130  1.4077  0.8456
   33MOL0     H 4355   2.423   2.669   3.638  0.5746  0.0039  0.3743
   33MOL0     H 4356   2.216   2.711   3.513  0.2631 -0.4782  2.1142
   34MOL0     O 4357   8.883   2.157   0.603  0.0243 -0.0969  0.5916
   34MOL0     C 4358   8.799   2.114   0.529  0.0130  0.0278  0.7485
   34MOL0     O 4359   8.792   2.125   0.394 -0.2947  0.7139  0.0296
   34MOL0     C 4360   8.879   2.187   0.306 -0.4289  0.5051 -0.2327
   34MOL0     C 4361   8.848   2.180   0.178  0.5053  0.0233  0.1781
   34MOL0     C 4362   8.937   2.236   0.079 -0.3344  0.7161 -0.0593
   34MOL0     C 4363   9.051   2.299   0.110  0.4876 -0.1949 -0.2307
   34MOL0     O 4364   9.118   2.357   0.009 -0.3871  0.0120  0.4580
   34MOL0     C 4365   9.225   2.451   0.044  0.0966 -0.5019 -0.3581
   34MOL0     C 4366   9.304   2.488  -0.088 -0.3011 -0.3032 -1.5200
   34MOL0     C 4367   9.363   2.371  -0.162 -0.5705  0.0910  0.7146
   34MOL0     C 4368   9.484   2.418  -0.264  0.0900 -0.0391  1.1888
   34MOL0     C 4369   9.573   2.302  -0.319 -0.3681 -0.1302  0.0409
   34MOL0     C 4370   9.501   2.207  -0.424 -0.1089  0.9258 -0.3137
   34MOL0     C 4371   9.597   2.093  -0.462 -0.5314  0.7314 -0.4051
   34MOL0     C 4372   9.534   1.980  -0.546  0.3537 -0.0292  0.0044
   34MOL0     N 4373   9.632   1.861  -0.562  0.1893  0.3783 -0.1247
   34MOL0     C 4374   9.774   1.867  -0.554 -0.3115 -0.3152 -0.2375
   34MOL0     C 4375   9.817   1.755  -0.626 -0.5392 -0.6068 -0.2636
   34MOL0     C 4376   9.955   1.713  -0.657  0.0392  0.4501 -0.2582
   34MOL0     C 4377  10.050   1.817  -0.724  0.9050  0.4718 -0.3917
   34MOL0     C 4378   9.973   1.852  -0.853 -1.1976 -0.0147 -0.5955
   34MOL0     C 4379  10.069   1.924  -0.946 -0.6084 -0.0307 -0.1889
   34MOL0     O 4380  10.156   1.828  -1.010 -0.4143 -0.7995 -0.0351
   34MOL0     C 4381  10.273   1.874  -1.069 -0.4258  0.5913  0.6117
   34MOL0     C 4382  10.386   1.789  -1.056 -0.5341  0.0476  0.0264
   34MOL0     C 4383  10.513   1.826  -1.111  0.4510 -0.6993 -0.1080
   34MOL0     C 4384  10.521   1.939  -1.191  0.6368  0.3170  0.1821
   34MOL0     C 4385  10.650   1.965  -1.260 -0.4427 -0.1317 -0.1531
   34MOL0     O 4386  10.657   2.079  -1.351 -0.1035 -0.0482 -0.3777
   34MOL0     C 4387  10.780   2.093  -1.408 -0.5438  0.3238  0.1177
   34MOL0     C 4388  10.860   2.210  -1.372  0.5979  0.5618  0.0683
   34MOL0     C 4389  10.983   2.235  -1.431  0.5482  0.0138  0.0574
   34MOL0     C 4390  11.040   2.138  -1.512 -1.0510 -0.1684 -0.0965
   34MOL0     O 4391  11.153   2.142  -1.585 -0.1612 -0.4822 -0.6560
   34MOL0     C 4392  11.240   2.259  -1.571  0.4625  0.7417 -0.2893
   34MOL0     C 4393  11.378   2.219  -1.636 -0.1235  0.6059  0.7522
   34MOL0     C 4394  11.361   2.179  -1.786  0.5955  0.3855 -0.0516
   34MOL0     C 4395  11.489   2.118  -1.856  0.4128  0.0954 -0.4896
   34MOL0     C 4396  11.620   2.196  -1.839  0.4050 -0.5714  0.1835
   34MOL0     C 4397  11.740   2.147  -1.920 -0.5481 -0.3388  0.0178
   34MOL0     C 4398  11.727   2.146  -2.073  0.6914  0.1907 -0.5081
   34MOL0     C 4399  11.700   2.287  -2.132  1.1110 -0.1065 -0.0206
   34MOL0    Cl 4400  11.846   2.389  -2.127 -0.0442 -0.2008  0.0295
   34MOL0     C 4401  10.960   2.036  -1.560 -0.0293  0.8465  0.5798
   34MOL0     C 4402  10.840   2.008  -1.499  0.0809 -0.9901  0.3271
   34MOL0     O 4403  10.741   1.889  -1.249 -0.1122 -0.1207  0.5474
   34MOL0     C 4404  10.401   2.013  -1.220 -0.4835  1.2475 -0.2308
   34MOL0     C 4405  10.279   1.981  -1.162 -0.2568  0.0456 -0.2002
   34MOL0     N 4406   9.705   1.671  -0.644 -0.6273 -0.7549  0.5162
   34MOL0     N 4407   9.597   1.736  -0.611  0.2162  0.0500 -0.1012
   34MOL0     C 4408   9.089   2.305   0.244  0.6867  0.3484  1.0631
   34MOL0     C 4409   9.002   2.245   0.342 -0.3698 -0.0124  0.9172
   34MOL0     C 4410   8.677   2.056   0.593 -0.3785 -0.0043  0.2030
   34MOL0     C 4411   8.641   2.093   0.729  0.0112  0.0374 -0.1318
   34MOL0     C 4412   8.516   2.052   0.787 -0.4523  0.0969 -0.4394
   34MOL0     C 4413   8.432   1.964   0.726  0.9445 -0.5190  0.3574
   34MOL0     O 4414   8.318   1.919   0.796 -0.1389 -0.4436  0.3677
   34MOL0     C 4415   8.244   1.814   0.739  0.0072  0.2675 -0.4799
   34MOL0     C 4416   8.138   1.775   0.833  0.0556  0.4680  0.5027
   34MOL0     C 4417   8.192   1.717   0.972  0.2706 -0.2779 -0.3029
   34MOL0     C 4418   8.287   1.593   0.976  0.4771  0.9354 -0.9439
   34MOL0     C 4419   8.241   1.480   0.903  0.1863 -0.1129  0.3357
   34MOL0     C 4420   8.188   1.384   0.858 -0.1694 -0.1419 -0.3678
   34MOL0     C 4421   8.470   1.922   0.594 -0.3484 -0.2512 -0.1091
   34MOL0     C 4422   8.586   1.968   0.526  0.4213  0.0452 -0.4464
   34MOL0     H 4423   8.753   2.136   0.149 -1.2803  1.1440  3.8040
   34MOL0     H 4424   8.906   2.239  -0.025  1.8157 -0.8517 -0.8169
   34MOL0     H 4425   9.307   2.402   0.096 -0.4264 -2.9453 -1.7030
   34MOL0     H 4426   9.179   2.541   0.088  0.5935 -0.5197  0.1972
   34MOL0     H 4427   9.373   2.563  -0.046 -3.1851  1.4550  0.5045
   34MOL0     H 4428   9.230   2.544  -0.146  1.0367  1.8804 -1.2756
   34MOL0     H 4429   9.285   2.325  -0.223  0.3044 -2.4025  1.3238
   34MOL0     H 4430   9.407   2.295  -0.096  0.4079  0.4154  0.4549
   34MOL0     H 4431   9.439   2.455  -0.357  0.2871  0.6752  1.3754
   34MOL0     H 4432   9.546   2.493  -0.215 -1.1251 -1.2177  4.8770
   34MOL0     H 4433   9.618   2.253  -0.233  3.3638  4.2369  0.9625
   34MOL0     H 4434   9.662   2.343  -0.367  0.3000 -2.3383 -0.7063
   34MOL0     H 4435   9.484   2.273  -0.510  3.1148  0.7049 -1.2396
   34MOL0     H 4436   9.408   2.171  -0.379  0.0522  2.1927  1.1009
   34MOL0     H 4437   9.674   2.130  -0.530 -0.9569 -1.8236 -2.4592
   34MOL0     H 4438   9.644   2.056  -0.370 -1.5577  0.6488  0.0922
   34MOL0     H 4439   9.505   2.020  -0.644 -0.9341  5.9291  2.3926
   34MOL0     H 4440   9.439   1.944  -0.506  1.1923 -0.2719  1.8551
   34MOL0     H 4441   9.834   1.951  -0.522 -1.3262  0.5207 -0.4917
   34MOL0     H 4442   9.961   1.618  -0.711  4.7216  1.1136 -1.3951
   34MOL0     H 4443   9.999   1.678  -0.563  2.6174 -1.2312 -1.9733
   34MOL0     H 4444  10.147   1.774  -0.749 -0.1991 -1.4312 -1.6692
   34MOL0     H 4445  10.057   1.905  -0.658 -3.1096  1.6621 -1.2487
   34MOL0     H 4446   9.930   1.764  -0.900 -1.7542  0.1645 -0.4264
   34MOL0     H 4447   9.892   1.921  -0.829 -1.2395 -0.6137  1.1150
   34MOL0     H 4448  10.118   1.998  -0.884 -3.4388  1.1614  0.7949
   34MOL0     H 4449  10.019   1.990  -1.018 -0.9677  2.3409  2.1083
   34MOL0     H 4450  10.371   1.693  -1.007 -4.0236  0.8474  0.7217
   34MOL0     H 4451  10.600   1.762  -1.097  0.5458 -0.3632  0.9441
   34MOL0     H 4452  10.807   2.284  -1.313 -3.0790 -2.9141  1.6436
   34MOL0     H 4453  11.033   2.328  -1.409 -0.2821  0.7433 -1.0315
   34MOL0     H 4454  11.256   2.270  -1.463  0.0026 -1.0109 -0.0073
   34MOL0     H 4455  11.197   2.352  -1.608 -0.6889  0.2632 -0.1813
   34MOL0     H 4456  11.410   2.128  -1.585 -0.7702 -0.4757 -0.7120
   34MOL0     H 4457  11.459   2.290  -1.616  0.9686 -0.5981  0.7370
   34MOL0     H 4458  11.319   2.268  -1.834 -2.0892 -0.4754  0.5442
   34MOL0     H 4459  11.292   2.094  -1.796  0.5608  0.6525 -6.7253
   34MOL0     H 4460  11.513   2.024  -1.805 -0.2537  0.6011  0.7978
   34MOL0     H 4461  11.483   2.100  -1.964  2.9182 -0.5501 -0.6053
   34MOL0     H 4462  11.646   2.200  -1.733  0.0210  1.9921  0.2314
   34MOL0     H 4463  11.595   2.299  -1.865 -0.9952 -1.1355 -0.8426
   34MOL0     H 4464  11.767   2.049  -1.880 -2.4553 -0.6679  0.6285
   34MOL0     H 4465  11.821   2.215  -1.896  1.5385 -2.4934 -0.5161
   34MOL0     H 4466  11.812   2.105  -2.127  0.2159 -0.0829 -1.0554
   34MOL0     H 4467  11.641   2.080  -2.087  1.7939 -1.9120  1.8763
   34MOL0     H 4468  11.620   2.337  -2.077 -1.5375 -1.0234 -2.7549
   34MOL0     H 4469  11.650   2.287  -2.230 -0.6034 -3.2363  0.7268
   34MOL0     H 4470  10.997   1.965  -1.633 -0.8159  0.5351  0.4800
   34MOL0     H 4471  10.785   1.917  -1.523 -1.9105 -0.2448  1.8107
   34MOL0     H 4472  10.420   2.112  -1.261  0.9983  1.9816  2.0244
   34MOL0     H 4473  10.197   2.052  -1.166  0.3304  0.8148  0.9138
   34MOL0     H 4474   9.177   2.360   0.275 -0.3000  0.9888  2.8499
   34MOL0     H 4475   9.038   2.259   0.443 -0.5477 -0.0305  0.9841
   34MOL0     H 4476   8.718   2.153   0.776  2.6611 -1.2513 -2.4845
   34MOL0     H 4477   8.477   2.104   0.874 -4.0874 -0.1514 -1.7482
   34MOL0     H 4478   8.306   1.728   0.711  0.6120  0.4697  0.2107
   34MOL0     H 4479   8.201   1.844   0.643  0.2461  2.6669  0.0911
   34MOL0     H 4480   8.067   1.855   0.854 -1.1143 -0.2141 -0.7438
   34MOL0     H 4481   8.088   1.693   0.782  2.8256  0.0980 -1.8970
   34MOL0     H 4482   8.097   1.699   1.023 -1.6712  5.0018 -1.4491
   34MOL0     H 4483   8.235   1.800   1.028 -0.1491  1.0735 -1.8896
   34MOL0     H 4484   8.393   1.613   0.958  0.8908  1.2703  1.5062
   34MOL0     H 4485   8.285   1.565   1.082 -0.0315  2.4302 -0.5337
   34MOL0     H 4486   8.136   1.305   0.808  2.2214 -0.2459 -2.9232
   34MOL0     H 4487   8.394   1.865   0.541 -2.0417  0.0521  1.8276
   34MOL0     H 4488   8.604   1.948   0.421  1.7851  0.7806 -0.3822
   35MOL0     O 4489   1.981   5.241   5.831  0.3030 -0.5469  1.0571
   35MOL0     C 4490   1.966   5.310   5.728  0.1780 -0.8212  0.1085
   35MOL0     O 4491   1.850   5.381   5.685  0.1224 -0.0183  0.0034
   35MOL0     C 4492   1.723   5.357   5.745  0.0701  0.0704 -0.5877
   35MOL0     C 4493   1.620   5.443   5.718 -0.7502 -0.0049  0.8659
   35MOL0     C 4494   1.490   5.421   5.768 -0.1671 -0.4037  0.5542
   35MOL0     C 4495   1.454   5.307   5.836 -0.5621  0.5151 -0.0029
   35MOL0     O 4496   1.326   5.296   5.874 -0.2327  0.3490 -0.3350
   35MOL0     C 4497   1.312   5.282   6.015  0.1073 -0.1296  0.2248
   35MOL0     C 4498   1.159   5.311   6.038  0.2188  0.0567  0.0021
   35MOL0     C 4499   1.122   5.458   6.018 -0.0652 -0.0243 -0.6987
   35MOL0     C 4500   0.972   5.490   6.045  0.6724  1.0596 -0.0284
   35MOL0     C 4501   0.874   5.454   5.936 -0.0148 -0.7532 -0.3723
   35MOL0     C 4502   0.728   5.482   5.967 -0.1501 -0.4878  0.6761
   35MOL0     C 4503   0.671   5.380   6.061  0.5643  0.9287 -0.0662
   35MOL0     C 4504   0.575   5.280   5.995  0.6195  0.0615  0.1541
   35MOL0     N 4505   0.453   5.325   5.932  0.2660  0.0492  0.0080
   35MOL0     C 4506   0.331   5.278   5.964  0.2924  0.5674  0.1703
   35MOL0     C 4507   0.256   5.316   5.860 -0.3376  0.6546  0.7015
   35MOL0     C 4508   0.114   5.262   5.850 -0.7434  0.6489  0.6899
   35MOL0     C 4509   0.010   5.329   5.933 -0.7058  0.3622  0.1269
   35MOL0     C 4510  -0.015   5.255   6.058  0.4054 -0.9120  0.0311
   35MOL0     C 4511  -0.153   5.289   6.106  0.2006 -0.3105  0.7898
   35MOL0     O 4512  -0.158   5.425   6.151 -0.5024  0.2052  0.1018
   35MOL0     C 4513  -0.269   5.485   6.190 -0.5286  0.0338 -0.0141
   35MOL0     C 4514  -0.257   5.616   6.251  0.1154 -0.6135  0.0353
   35MOL0     C 4515  -0.371   5.677   6.298 -0.0095 -0.1207 -0.2913
   35MOL0     C 4516  -0.497   5.621   6.281 -0.6364  0.1083  0.8475
   35MOL0     C 4517  -0.620   5.694   6.327 -0.0251 -0.0730 -1.0733
   35MOL0     O 4518  -0.611   5.827   6.372 -0.2180  1.0271  0.6759
   35MOL0     C 4519  -0.722   5.874   6.437 -0.6064 -0.3124  0.4435
   35MOL0     C 4520  -0.695   5.923   6.568  1.2298 -0.2847 -0.2236
   35MOL0     C 4521  -0.800   5.983   6.640 -0.1761 -0.0217 -0.3228
   35MOL0     C 4522  -0.932   5.995   6.585 -0.9396 -0.7465 -0.4304
   35MOL0     O 4523  -1.042   6.056   6.654 -0.5836  0.7674  0.0416
   35MOL0     C 4524  -1.032   6.072   6.804  0.6998  0.0431 -1.1253
   35MOL0     C 4525  -1.144   6.154   6.852  0.0141 -0.2330 -0.1017
   35MOL0     C 4526  -1.271   6.073   6.876 -0.0689 -0.1279  0.4193
   35MOL0     C 4527  -1.388   6.174   6.914 -0.2019 -0.5895 -0.1609
   35MOL0     C 4528  -1.500   6.096   6.968 -0.1134  0.1380  0.2288
   35MOL0     C 4529  -1.591   6.190   7.052  0.1253 -0.7133 -0.1127
   35MOL0     C 4530  -1.743   6.146   7.060 -0.9190 -0.2474 -0.1871
   35MOL0     C 4531  -1.821   6.264   7.118  0.6624  0.0936 -0.1556
   35MOL0    Cl 4532  -1.993   6.262   7.072  0.0287  0.0482  0.0690
   35MOL0     C 4533  -0.940   5.959   6.452 -0.0985 -1.0679  1.0053
   35MOL0     C 4534  -0.843   5.888   6.378 -0.3601  0.4537  0.1692
   35MOL0     O 4535  -0.723   5.628   6.340  0.6389 -0.1746  0.4390
   35MOL0     C 4536  -0.502   5.494   6.227 -0.9402  0.7961  0.0201
   35MOL0     C 4537  -0.389   5.430   6.174  0.4942  0.3006 -0.6725
   35MOL0     N 4538   0.333   5.372   5.759 -0.2954 -0.2492  0.2264
   35MOL0     N 4539   0.448   5.379   5.809 -1.3353 -0.7518 -0.2562
   35MOL0     C 4540   1.550   5.210   5.851  0.2432  0.2585 -0.2562
   35MOL0     C 4541   1.682   5.239   5.808  0.8088 -0.1293 -0.8975
   35MOL0     C 4542   2.090   5.319   5.640  0.7011 -0.0134 -0.7263
   35MOL0     C 4543   2.119   5.431   5.558  0.0904 -0.0018 -0.6422
   35MOL0     C 4544   2.250   5.451   5.504 -0.0475 -0.2390 -0.5877
   35MOL0     C 4545   2.344   5.364   5.525  0.9064  0.2183 -0.3101
   35MOL0     O 4546   2.460   5.399   5.459 -0.5304  0.0339 -0.5075
   35MOL0     C 4547   2.566   5.304   5.477 -0.1882 -0.3621 -0.3130
   35MOL0     C 4548   2.696   5.330   5.395  0.1342  0.1448  0.1331
   35MOL0     C 4549   2.676   5.354   5.247 -0.7916 -0.2830 -0.6383
   35MOL0     C 4550   2.816   5.375   5.175  0.0120 -0.4371  0.6396
   35MOL0     C 4551   2.891   5.490   5.226  0.2647  0.8402  0.1638
   35MOL0     C 4552   2.951   5.576   5.287 -0.0592  0.2829  0.6244
   35MOL0     C 4553   2.318   5.240   5.592 -0.7648 -0.4887 -0.4309
   35MOL0     C 4554   2.187   5.218   5.653  0.8458 -0.4437  0.1870
   35MOL0     H 4555   1.651   5.535   5.671 -0.6923 -0.8497 -0.8126
   35MOL0     H 4556   1.421   5.502   5.749 -0.4458 -0.6020  0.7149
   35MOL0     H 4557   1.361   5.358   6.076 -0.7294  0.1468  0.5662
   35MOL0     H 4558   1.340   5.183   6.054 -2.9078 -0.8866  0.7313
   35MOL0     H 4559   1.137   5.277   6.140 -1.5270  3.3595  0.8659
   35MOL0     H 4560   1.099   5.251   5.968  1.8173  0.3442 -1.6747
   35MOL0     H 4561   1.130   5.502   5.918 -4.1765  3.0578  0.0622
   35MOL0     H 4562   1.188   5.514   6.086 -3.2028  2.4792  0.5546
   35MOL0     H 4563   0.938   5.441   6.136 -3.0646  1.7623 -0.8572
   35MOL0     H 4564   0.965   5.598   6.064  0.8484  1.0634  0.0125
   35MOL0     H 4565   0.888   5.349   5.907 -1.9421 -1.2949  0.4646
   35MOL0     H 4566   0.899   5.516   5.850 -0.4907  0.1538  0.1367
   35MOL0     H 4567   0.672   5.479   5.873 -1.7506  2.3596  1.4431
   35MOL0     H 4568   0.718   5.581   6.011 -0.6685 -1.0292  1.8358
   35MOL0     H 4569   0.743   5.325   6.122  0.3978  1.5759  0.7347
   35MOL0     H 4570   0.609   5.432   6.135 -0.1241  0.2801 -0.1656
   35MOL0     H 4571   0.542   5.205   6.068  0.6046  0.9400  1.0778
   35MOL0     H 4572   0.627   5.236   5.910  2.6108  2.2946  0.1121
   35MOL0     H 4573   0.287   5.227   6.050 -0.2778  1.7700  0.6110
   35MOL0     H 4574   0.112   5.153   5.866  2.9849  0.3074 -0.2103
   35MOL0     H 4575   0.075   5.272   5.748 -0.6124 -2.1863  0.2699
   35MOL0     H 4576  -0.080   5.319   5.871  1.9123 -2.4172 -3.7079
   35MOL0     H 4577   0.041   5.434   5.932 -3.3183  1.3285 -3.5498
   35MOL0     H 4578  -0.005   5.147   6.046  0.5348 -0.7756 -1.2181
   35MOL0     H 4579   0.065   5.283   6.127  0.8566  0.0152 -0.8374
   35MOL0     H 4580  -0.160   5.224   6.194 -2.1504  1.2443  1.8866
   35MOL0     H 4581  -0.225   5.265   6.028  1.8753  0.4859 -1.0778
   35MOL0     H 4582  -0.163   5.668   6.264 -0.3129  0.0275  0.7019
   35MOL0     H 4583  -0.357   5.767   6.358  1.9460 -1.7982  1.9563
   35MOL0     H 4584  -0.601   5.927   6.623  2.3280  1.0100 -2.1019
   35MOL0     H 4585  -0.766   6.015   6.738  0.1111 -2.8895  0.5887
   35MOL0     H 4586  -0.938   6.127   6.822  1.9519 -1.0569 -3.7835
   35MOL0     H 4587  -1.037   5.978   6.859 -0.5890  1.2623  1.0069
   35MOL0     H 4588  -1.161   6.236   6.781  0.5488  0.8834  1.0259
   35MOL0     H 4589  -1.118   6.208   6.943 -1.6843  2.3443 -1.0252
   35MOL0     H 4590  -1.259   6.003   6.959 -2.3078 -1.9351 -0.6581
   35MOL0     H 4591  -1.299   6.011   6.790 -0.3665  3.0081 -1.9555
   35MOL0     H 4592  -1.357   6.251   6.986 -0.2640 -2.0550  1.5197
   35MOL0     H 4593  -1.427   6.235   6.833 -0.2938 -0.9406 -0.3844
   35MOL0     H 4594  -1.457   6.019   7.032 -1.1743 -1.2746 -0.6970
   35MOL0     H 4595  -1.553   6.035   6.895 -2.4495 -1.4225  2.9901
   35MOL0     H 4596  -1.585   6.294   7.016  0.0004  0.0421  1.9219
   35MOL0     H 4597  -1.552   6.191   7.154  0.2335 -0.6940 -0.1550
   35MOL0     H 4598  -1.789   6.125   6.963  2.1375 -2.0444 -1.4189
   35MOL0     H 4599  -1.768   6.055   7.115 -1.5816 -0.8345 -1.4112
   35MOL0     H 4600  -1.789   6.362   7.081 -0.0259  0.7370  0.9255
   35MOL0     H 4601  -1.812   6.281   7.226 -2.0957 -1.2903  0.3696
   35MOL0     H 4602  -1.038   5.973   6.408  0.4738 -2.1287 -0.7383
   35MOL0     H 4603  -0.857   5.851   6.277 -2.3659 -1.3538  1.0521
   35MOL0     H 4604  -0.598   5.445   6.211 -0.8415  1.1213 -1.7763
   35MOL0     H 4605  -0.397   5.329   6.134 -0.6440  0.3527 -0.5847
   35MOL0     H 4606   1.538   5.119   5.909  1.5691 -0.5642 -1.2344
   35MOL0     H 4607   1.756   5.159   5.817 -0.7670 -1.5616 -0.1509
   35MOL0     H 4608   2.039   5.499   5.527 -0.6937 -2.5112 -5.0939
   35MOL0     H 4609   2.266   5.537   5.441  1.4413  1.1829  1.5994
   35MOL0     H 4610   2.533   5.204   5.448 -2.0583  0.8733 -2.8759
   35MOL0     H 4611   2.597   5.315   5.581  2.9951  0.8310 -1.2666
   35MOL0     H 4612   2.741   5.413   5.450 -1.0898 -0.5473  2.3044
   35MOL0     H 4613   2.767   5.247   5.397 -0.0369 -0.0660 -1.3754
   35MOL0     H 4614   2.613   5.441   5.225 -0.5468 -0.1938 -0.9961
   35MOL0     H 4615   2.630   5.269   5.196  0.2223 -0.6482 -0.9600
   35MOL0     H 4616   2.870   5.284   5.200  0.8847 -0.7572 -2.1198
   35MOL0     H 4617   2.805   5.375   5.066 -0.1062 -0.5872  0.6515
   35MOL0     H 4618   2.990   5.657   5.345  1.4538  0.1740 -0.1970
   35MOL0     H 4619   2.394   5.169   5.625  0.3227  0.8157 -0.0352
   35MOL0     H 4620   2.157   5.137   5.720 -2.2288  2.1129  2.2148
   36MOL0     O 4621   4.254   1.813   0.339 -0.1333 -0.4023  0.3483
   36MOL0     C 4622   4.267   1.734   0.428  0.1587 -0.8081  0.7978
   36MOL0     O 4623   4.165   1.683   0.503 -0.1656  0.3009 -0.0896
   36MOL0     C 4624   4.043   1.735   0.493 -0.5331 -0.6147 -0.1597
   36MOL0     C 4625   3.931   1.650   0.510 -0.2982 -0.4578  0.4448
   36MOL0     C 4626   3.802   1.696   0.512 -0.2600 -0.0572 -0.3860
   36MOL0     C 4627   3.776   1.833   0.496  0.1155 -0.2550  0.0964
   36MOL0     O 4628   3.650   1.883   0.506 -0.9424 -0.4254  0.2857
   36MOL0     C 4629   3.556   1.825   0.413 -0.3277  0.2499  0.4668
   36MOL0     C 4630   3.418   1.872   0.399 -0.0789 -0.6945  0.5387
   36MOL0     C 4631   3.354   1.915   0.540  0.1391  0.2882 -1.0964
   36MOL0     C 4632   3.208   1.896   0.516 -0.9199  0.7847 -0.0080
   36MOL0     C 4633   3.127   1.929   0.642 -0.2165 -0.3105 -0.3905
   36MOL0     C 4634   3.094   2.081   0.647 -0.4030  0.7089 -0.2285
   36MOL0     C 4635   2.980   2.107   0.555 -0.5611 -0.4885  0.2364
   36MOL0     C 4636   2.849   2.116   0.634  0.7628  0.8618  0.5555
   36MOL0     N 4637   2.732   2.058   0.557  0.0698 -0.6512  0.4648
   36MOL0     C 4638   2.672   2.134   0.448 -0.2469  0.5068 -0.0890
   36MOL0     C 4639   2.575   2.046   0.408  0.6363 -0.1886  0.6124
   36MOL0     C 4640   2.488   2.054   0.288 -0.3178 -0.3901 -0.0604
   36MOL0     C 4641   2.396   2.172   0.304  0.5048  0.6179  0.6585
   36MOL0     C 4642   2.278   2.130   0.387  0.2582  0.9935 -1.3604
   36MOL0     C 4643   2.184   2.247   0.425  0.2805  0.8633 -0.0630
   36MOL0     O 4644   2.141   2.306   0.306  0.1601  0.4597 -1.2305
   36MOL0     C 4645   2.016   2.369   0.307  0.1042 -0.1079 -1.0274
   36MOL0     C 4646   1.897   2.300   0.282  0.8924 -0.1634  0.0806
   36MOL0     C 4647   1.776   2.370   0.287 -0.3374  0.1578 -0.0272
   36MOL0     C 4648   1.769   2.500   0.337 -0.4327 -1.2267  0.1882
   36MOL0     C 4649   1.633   2.565   0.347 -0.1439 -1.1553 -0.0276
   36MOL0     O 4650   1.515   2.504   0.316 -0.1293  0.0692  0.2896
   36MOL0     C 4651   1.386   2.567   0.316  0.1338  0.7022  0.6146
   36MOL0     C 4652   1.359   2.696   0.291 -0.2132 -1.0265 -0.0715
   36MOL0     C 4653   1.226   2.748   0.269  0.6769  0.3660 -0.5345
   36MOL0     C 4654   1.120   2.649   0.266  0.6226  0.3644 -0.1471
   36MOL0     O 4655   0.983   2.674   0.250 -0.4624  0.0819  0.8114
   36MOL0     C 4656   0.945   2.816   0.259 -0.3071 -0.1681  0.8571
   36MOL0     C 4657   0.789   2.830   0.269  0.6216  0.2466  0.7031
   36MOL0     C 4658   0.700   2.778   0.148  0.2335 -0.1440 -0.0020
   36MOL0     C 4659   0.549   2.757   0.172  0.7694  0.0395  0.1532
   36MOL0     C 4660   0.485   2.719   0.034 -0.0047  0.5531 -1.1786
   36MOL0     C 4661   0.335   2.706   0.041  0.3627  0.2279  0.0596
   36MOL0     C 4662   0.252   2.837   0.074  0.0420  0.3936  0.0233
   36MOL0     C 4663   0.112   2.790   0.063  0.0405  0.4474 -0.3176
   36MOL0    Cl 4664   0.063   2.748  -0.105 -0.0655  0.1449  0.1473
   36MOL0     C 4665   1.156   2.519   0.279 -0.9241 -0.0252  0.2922
   36MOL0     C 4666   1.286   2.477   0.310  0.5440 -0.4952  0.1919
   36MOL0     O 4667   1.641   2.687   0.363 -0.2734  0.3382  0.0622
   36MOL0     C 4668   1.890   2.569   0.362 -0.0532  0.7992  0.3166
   36MOL0     C 4669   2.016   2.505   0.337 -0.6549  0.1327  0.4533
   36MOL0     N 4670   2.560   1.942   0.498 -0.0836  0.1048 -0.7793
   36MOL0     N 4671   2.672   1.936   0.582  0.4807  0.3154  0.5183
   36MOL0     C 4672   3.878   1.919   0.457  0.0545  0.7721 -0.1228
   36MOL0     C 4673   4.016   1.869   0.467  0.0066 -0.0477 -0.2513
   36MOL0     C 4674   4.410   1.694   0.454 -0.5663 -0.1816 -0.4196
   36MOL0     C 4675   4.450   1.629   0.577 -0.5032 -0.2252 -0.2531
   36MOL0     C 4676   4.585   1.573   0.584  0.1988 -0.0754 -0.2650
   36MOL0     C 4677   4.669   1.580   0.475  0.6053 -0.1659  0.0736
   36MOL0     O 4678   4.774   1.498   0.499 -0.1685  0.9106  1.1348
   36MOL0     C 4679   4.889   1.533   0.427  0.4916  0.0132  0.1214
   36MOL0     C 4680   5.005   1.449   0.461  0.8645 -0.1186  0.0398
   36MOL0     C 4681   5.046   1.457   0.614 -0.2149  0.6715 -0.0998
   36MOL0     C 4682   5.186   1.398   0.626 -0.2561  0.4816  0.1816
   36MOL0     C 4683   5.210   1.344   0.761  0.6798 -0.0841 -0.6533
   36MOL0     C 4684   5.228   1.290   0.872  0.1790  0.0598 -0.4724
   36MOL0     C 4685   4.627   1.650   0.363  0.5256 -0.5282  0.4533
   36MOL0     C 4686   4.505   1.710   0.358  0.1966  0.0404 -0.3988
   36MOL0     H 4687   3.938   1.548   0.546  0.0050  0.1969  2.3533
   36MOL0     H 4688   3.714   1.638   0.541 -2.1297  2.0385 -1.5227
   36MOL0     H 4689   3.556   1.717   0.431 -1.2272  0.4131  1.5477
   36MOL0     H 4690   3.589   1.835   0.309 -1.2547 -0.3702  0.1046
   36MOL0     H 4691   3.355   1.795   0.354  0.3641 -2.0726  2.1684
   36MOL0     H 4692   3.427   1.955   0.329  2.6346 -2.4805 -1.4276
   36MOL0     H 4693   3.371   2.017   0.576  2.3061 -0.3243 -0.2133
   36MOL0     H 4694   3.380   1.844   0.619 -1.3862  1.7885  0.8681
   36MOL0     H 4695   3.176   1.955   0.429  0.2448  1.3541 -0.0599
   36MOL0     H 4696   3.190   1.792   0.488 -0.8832  0.6830  0.3486
   36MOL0     H 4697   3.182   1.910   0.735  0.7343  0.5197 -0.7605
   36MOL0     H 4698   3.033   1.875   0.634 -0.8622  0.9694 -2.0566
   36MOL0     H 4699   3.176   2.148   0.622  0.5406 -0.2236  0.2959
   36MOL0     H 4700   3.070   2.107   0.750 -1.3844  0.2291 -0.3123
   36MOL0     H 4701   2.998   2.199   0.498  0.8818 -0.2675  1.0155
   36MOL0     H 4702   2.979   2.028   0.479  4.3401  0.0490 -0.6712
   36MOL0     H 4703   2.825   2.218   0.665 -0.9459  0.7289 -0.2226
   36MOL0     H 4704   2.847   2.066   0.731 -0.4468 -1.5721 -0.6398
   36MOL0     H 4705   2.710   2.220   0.394  0.6269 -0.0647 -0.4104
   36MOL0     H 4706   2.440   1.963   0.252  4.9557 -3.4006 -0.5724
   36MOL0     H 4707   2.559   2.082   0.209  2.8525 -0.5317  2.5395
   36MOL0     H 4708   2.354   2.191   0.205  1.0939 -0.6833  0.1308
   36MOL0     H 4709   2.448   2.261   0.339  1.6909  0.4980 -0.7170
   36MOL0     H 4710   2.224   2.059   0.324  3.2716 -1.1974 -1.6985
   36MOL0     H 4711   2.306   2.076   0.479  1.0074  4.5672  0.6841
   36MOL0     H 4712   2.254   2.317   0.472  3.0238 -0.6076 -1.7067
   36MOL0     H 4713   2.100   2.215   0.487 -0.2239  1.4136 -0.4535
   36MOL0     H 4714   1.908   2.198   0.246 -0.3953 -0.6864  1.1132
   36MOL0     H 4715   1.686   2.314   0.264 -0.9254  0.8497  0.5326
   36MOL0     H 4716   1.438   2.770   0.297 -0.8106 -0.4599  1.5165
   36MOL0     H 4717   1.204   2.854   0.260 -0.5398  0.0844 -1.1019
   36MOL0     H 4718   0.988   2.870   0.175  0.7494 -0.5470  1.1459
   36MOL0     H 4719   0.986   2.872   0.343  3.8283 -0.1841 -0.9347
   36MOL0     H 4720   0.755   2.930   0.296 -1.1168 -0.1440  0.0554
   36MOL0     H 4721   0.745   2.768   0.348 -4.6026 -2.0731 -3.3788
   36MOL0     H 4722   0.742   2.682   0.117 -1.5749 -0.8981 -0.2376
   36MOL0     H 4723   0.715   2.850   0.067  0.9450  1.0621  1.1565
   36MOL0     H 4724   0.525   2.681   0.247  1.7348 -0.5194 -0.0861
   36MOL0     H 4725   0.504   2.850   0.208  0.0499 -0.5265  0.7392
   36MOL0     H 4726   0.531   2.630  -0.010 -0.6237 -0.5127  0.2227
   36MOL0     H 4727   0.499   2.795  -0.043 -2.3161  0.7694 -1.4762
   36MOL0     H 4728   0.320   2.627   0.115 -0.9021 -0.5331 -0.9729
   36MOL0     H 4729   0.305   2.652  -0.049  1.6960 -1.2980  0.4848
   36MOL0     H 4730   0.270   2.866   0.177 -3.0256  0.4891  0.6329
   36MOL0     H 4731   0.260   2.916  -0.001  2.1817 -1.7230 -2.1902
   36MOL0     H 4732   0.048   2.871   0.098  0.9374  1.1184 -0.1759
   36MOL0     H 4733   0.088   2.703   0.125 -1.6390 -1.4858 -3.4096
   36MOL0     H 4734   1.071   2.452   0.266  0.8070 -2.1714 -0.4650
   36MOL0     H 4735   1.297   2.370   0.321  1.2094 -0.5658 -0.9550
   36MOL0     H 4736   1.872   2.671   0.392  0.7452  1.3557 -1.0170
   36MOL0     H 4737   2.119   2.536   0.347 -0.0742 -1.5056 -0.1086
   36MOL0     H 4738   3.867   2.026   0.445 -1.8531  0.8196  1.4539
   36MOL0     H 4739   4.081   1.955   0.459  2.7692 -2.0407 -0.3621
   36MOL0     H 4740   4.371   1.600   0.647 -1.4637  0.7049 -0.9149
   36MOL0     H 4741   4.618   1.519   0.672 -0.8031 -0.9684 -0.4259
   36MOL0     H 4742   4.911   1.639   0.443 -1.2478  0.5594 -0.8722
   36MOL0     H 4743   4.881   1.513   0.320  1.2908  0.0195  0.0502
   36MOL0     H 4744   4.985   1.346   0.430  1.3304 -0.2668  0.2218
   36MOL0     H 4745   5.088   1.495   0.406  1.4167  2.9225  3.0839
   36MOL0     H 4746   4.970   1.409   0.677  0.7460 -0.3909  0.2787
   36MOL0     H 4747   5.064   1.558   0.650  0.0398 -0.2619  2.6064
   36MOL0     H 4748   5.203   1.316   0.555  1.9450  0.9617  0.0739
   36MOL0     H 4749   5.257   1.481   0.616 -1.6283  2.0359  2.3316
   36MOL0     H 4750   5.242   1.226   0.957  0.3114 -0.3660 -0.8074
   36MOL0     H 4751   4.695   1.675   0.282  2.2858 -1.0088  1.7242
   36MOL0     H 4752   4.468   1.770   0.275  0.2217  0.7184  0.0652
   37MOL0     O 4753   2.159   7.497   4.940  0.0676 -0.0445 -0.0299
   37MOL0     C 4754   2.138   7.556   4.831 -0.6077  0.3211 -0.5912
   37MOL0     O 4755   2.012   7.572   4.779 -0.7688 -0.2146  0.4498
   37MOL0     C 4756   1.893   7.540   4.839  1.5238 -0.4659  1.1557
   37MOL0     C 4757   1.876   7.517   4.977  0.2173  0.4214  0.1532
   37MOL0     C 4758   1.750   7.484   5.035  0.1319  0.4456  0.0194
   37MOL0     C 4759   1.633   7.465   4.945  0.7999 -0.5152 -0.4569
   37MOL0     O 4760   1.513   7.422   5.005  0.0230  0.3781 -0.7526
   37MOL0     C 4761   1.420   7.355   4.917 -0.2689 -0.1494  0.0539
   37MOL0     C 4762   1.292   7.313   4.997 -0.1997 -0.1090 -0.1392
   37MOL0     C 4763   1.212   7.423   5.054 -0.5799  0.0734  0.5434
   37MOL0     C 4764   1.126   7.471   4.934  0.7340  0.1725 -0.5049
   37MOL0     C 4765   0.977   7.480   4.974 -0.3528 -0.3327 -0.2323
   37MOL0     C 4766   0.874   7.489   4.860 -0.4772  0.2958  0.2395
   37MOL0     C 4767   0.722   7.481   4.900 -0.4643 -0.2069  0.6712
   37MOL0     C 4768   0.632   7.466   4.771 -0.1305 -0.6555 -0.0243
   37MOL0     N 4769   0.484   7.466   4.803  0.7737  0.2027  0.3451
   37MOL0     C 4770   0.430   7.392   4.900 -0.2600 -0.2105 -0.6511
   37MOL0     C 4771   0.306   7.441   4.917 -0.5582  0.1617 -0.9614
   37MOL0     C 4772   0.208   7.405   5.032  0.5505 -0.1564 -0.7563
   37MOL0     C 4773   0.062   7.418   4.987 -0.1322 -0.6479 -0.3117
   37MOL0     C 4774   0.036   7.312   4.871 -0.3527 -0.8713 -0.1455
   37MOL0     C 4775  -0.116   7.299   4.850  0.0374  0.0326  0.1896
   37MOL0     O 4776  -0.178   7.429   4.834 -0.5668 -0.4834 -0.0297
   37MOL0     C 4777  -0.309   7.436   4.816  0.0180 -0.6513 -0.6515
   37MOL0     C 4778  -0.394   7.347   4.742 -0.8574 -0.0385 -0.6180
   37MOL0     C 4779  -0.527   7.375   4.723 -0.3510  0.9532  0.4704
   37MOL0     C 4780  -0.585   7.500   4.757  0.1729  0.2576 -0.3196
   37MOL0     C 4781  -0.719   7.538   4.702  0.6638  0.2225  0.6309
   37MOL0     O 4782  -0.779   7.450   4.605 -0.9092 -0.6768 -0.8510
   37MOL0     C 4783  -0.909   7.499   4.576  0.1962  0.6085 -0.2774
   37MOL0     C 4784  -1.016   7.443   4.649  0.4823 -0.8694 -0.0012
   37MOL0     C 4785  -1.155   7.483   4.626 -0.6162  0.6337  0.1066
   37MOL0     C 4786  -1.194   7.564   4.517  1.3981  0.1315 -0.2351
   37MOL0     O 4787  -1.328   7.598   4.503 -0.1092 -0.4049 -0.3550
   37MOL0     C 4788  -1.372   7.728   4.495  0.8142 -0.8801 -0.6519
   37MOL0     C 4789  -1.336   7.826   4.603 -0.5979 -0.7346 -0.2621
   37MOL0     C 4790  -1.396   7.782   4.733  0.1070 -0.2516 -0.4405
   37MOL0     C 4791  -1.302   7.829   4.847  0.2339 -0.6313 -0.3157
   37MOL0     C 4792  -1.359   7.777   4.981  0.0256  1.1653  0.6907
   37MOL0     C 4793  -1.338   7.624   4.999 -0.7128 -1.0304  0.2440
   37MOL0     C 4794  -1.382   7.575   5.135 -0.0421  0.5497  0.1556
   37MOL0     C 4795  -1.424   7.429   5.137  0.0894  0.4872 -0.5920
   37MOL0    Cl 4796  -1.286   7.333   5.081  0.1559 -0.0124 -0.0183
   37MOL0     C 4797  -1.084   7.617   4.434 -0.5349 -0.4463  0.2695
   37MOL0     C 4798  -0.948   7.588   4.469  0.0085  0.0602 -0.1033
   37MOL0     O 4799  -0.753   7.649   4.737 -0.6988  0.1181  0.6823
   37MOL0     C 4800  -0.501   7.586   4.838 -0.8830 -0.6037  0.1015
   37MOL0     C 4801  -0.365   7.553   4.870 -0.2331 -0.0162 -0.4007
   37MOL0     N 4802   0.289   7.532   4.811  0.3551  0.2002 -0.3076
   37MOL0     N 4803   0.394   7.541   4.741  0.0321  0.2815  0.6205
   37MOL0     C 4804   1.650   7.494   4.808 -1.1859  0.0466  0.0375
   37MOL0     C 4805   1.777   7.531   4.761  0.5143  0.1888  0.0826
   37MOL0     C 4806   2.257   7.613   4.750  0.2118 -0.6671 -0.1621
   37MOL0     C 4807   2.219   7.706   4.651  0.3910  0.5057  0.2124
   37MOL0     C 4808   2.306   7.775   4.568 -0.6908  0.8673 -0.2481
   37MOL0     C 4809   2.445   7.765   4.590 -0.4867 -0.1406 -0.2796
   37MOL0     O 4810   2.536   7.843   4.530  0.1150  0.3833  0.2848
   37MOL0     C 4811   2.512   7.884   4.390  0.3285 -0.5017 -0.3550
   37MOL0     C 4812   2.623   7.975   4.347 -0.3279  0.1494 -0.3611
   37MOL0     C 4813   2.764   7.914   4.363 -0.8865 -0.0305  1.1818
   37MOL0     C 4814   2.779   7.764   4.326 -0.0508 -0.3000 -0.0668
   37MOL0     C 4815   2.919   7.731   4.359  0.7529  0.1184  0.0830
   37MOL0     C 4816   3.028   7.713   4.396  0.2192  0.2578 -0.1688
   37MOL0     C 4817   2.493   7.685   4.702 -0.2109  0.6086 -0.2645
   37MOL0     C 4818   2.395   7.607   4.780 -0.0752 -0.1785 -0.5694
   37MOL0     H 4819   1.951   7.543   5.051  0.5696  0.4846 -0.2240
   37MOL0     H 4820   1.753   7.473   5.143 -1.2649 -2.0255 -0.1238
   37MOL0     H 4821   1.473   7.269   4.876  0.1174 -0.2350  0.7181
   37MOL0     H 4822   1.393   7.413   4.828  1.7690 -2.1520 -1.9913
   37MOL0     H 4823   1.319   7.273   5.095 -1.5419 -2.0936 -0.5084
   37MOL0     H 4824   1.227   7.249   4.937 -2.6452  2.3625 -0.3270
   37MOL0     H 4825   1.283   7.502   5.079 -2.9108  2.1422  0.9424
   37MOL0     H 4826   1.160   7.409   5.149  0.1261  2.3021  1.3236
   37MOL0     H 4827   1.138   7.578   4.914  0.1124  0.0766 -1.4794
   37MOL0     H 4828   1.133   7.423   4.835 -1.8127  0.7963 -1.0609
   37MOL0     H 4829   0.964   7.568   5.038  0.3971 -0.0102 -0.5131
   37MOL0     H 4830   0.944   7.395   5.035  2.4313 -1.6035 -0.3687
   37MOL0     H 4831   0.896   7.410   4.787  0.3214  2.0808 -1.5595
   37MOL0     H 4832   0.891   7.586   4.811 -0.5011  0.5294  0.6865
   37MOL0     H 4833   0.708   7.394   4.965 -3.6991  0.3038  0.8379
   37MOL0     H 4834   0.684   7.569   4.953 -1.3275  1.5001 -2.5070
   37MOL0     H 4835   0.652   7.368   4.727 -1.5099 -0.9996  0.0672
   37MOL0     H 4836   0.659   7.543   4.698  1.4029 -1.5539 -0.4602
   37MOL0     H 4837   0.477   7.321   4.968 -1.9957  0.2077  1.1030
   37MOL0     H 4838   0.218   7.461   5.125 -3.0493 -1.6923  0.7762
   37MOL0     H 4839   0.231   7.301   5.057 -0.5085 -0.2852 -0.2534
   37MOL0     H 4840   0.038   7.516   4.945  1.4620 -1.5323 -3.6745
   37MOL0     H 4841   0.001   7.409   5.077  1.4233  1.3349  1.0632
   37MOL0     H 4842   0.097   7.330   4.782 -0.9589 -1.4074 -0.6805
   37MOL0     H 4843   0.068   7.210   4.892  0.7947 -1.0996 -2.6566
   37MOL0     H 4844  -0.160   7.244   4.934 -0.4343  1.4007  0.8803
   37MOL0     H 4845  -0.124   7.239   4.759  1.8645 -0.0632  0.0684
   37MOL0     H 4846  -0.345   7.256   4.709  1.5059 -0.1966  2.8297
   37MOL0     H 4847  -0.577   7.308   4.654 -3.0222  4.0138 -0.8023
   37MOL0     H 4848  -0.989   7.374   4.728  2.6022 -0.8847 -0.6851
   37MOL0     H 4849  -1.228   7.444   4.696  0.9463  0.6083  1.7933
   37MOL0     H 4850  -1.481   7.720   4.482  0.5809  1.1093 -0.2611
   37MOL0     H 4851  -1.328   7.759   4.400  0.9436 -1.5432 -0.8189
   37MOL0     H 4852  -1.352   7.930   4.574  2.6576  0.2313  0.9412
   37MOL0     H 4853  -1.227   7.812   4.600 -0.6201 -1.6999  1.8472
   37MOL0     H 4854  -1.421   7.676   4.742 -2.6090  0.3365  0.1097
   37MOL0     H 4855  -1.498   7.822   4.735 -0.0785 -0.5118 -2.3150
   37MOL0     H 4856  -1.198   7.809   4.817 -0.4810 -1.8314 -2.1903
   37MOL0     H 4857  -1.305   7.937   4.857 -0.6846 -0.3861 -2.6119
   37MOL0     H 4858  -1.464   7.806   4.987 -0.8316 -1.1941 -1.2513
   37MOL0     H 4859  -1.296   7.830   5.053  1.8698  2.3525 -1.6800
   37MOL0     H 4860  -1.230   7.615   4.986 -0.6282  1.4566 -1.3690
   37MOL0     H 4861  -1.390   7.563   4.925  1.4481 -1.4036 -1.0560
   37MOL0     H 4862  -1.317   7.591   5.221  2.6345  1.3624 -1.8783
   37MOL0     H 4863  -1.463   7.645   5.160  0.3410  0.6531  1.1630
   37MOL0     H 4864  -1.499   7.406   5.061  0.9633 -0.6405 -1.1505
   37MOL0     H 4865  -1.459   7.395   5.235 -3.7471  2.0670 -1.2400
   37MOL0     H 4866  -1.099   7.691   4.356  2.3853 -1.5441 -1.4780
   37MOL0     H 4867  -0.877   7.637   4.404 -1.8550  2.5272 -0.4385
   37MOL0     H 4868  -0.540   7.673   4.891  0.2480 -0.2569  0.4107
   37MOL0     H 4869  -0.305   7.623   4.928  3.0090 -0.9273 -2.3770
   37MOL0     H 4870   1.568   7.499   4.737 -0.8306  4.6194 -0.3273
   37MOL0     H 4871   1.778   7.547   4.654 -3.1365 -1.9205 -0.4416
   37MOL0     H 4872   2.123   7.708   4.601 -0.7939 -3.2618  1.9449
   37MOL0     H 4873   2.269   7.834   4.485 -1.8062 -2.0409 -1.9605
   37MOL0     H 4874   2.420   7.942   4.374 -0.9881 -1.8667  1.6806
   37MOL0     H 4875   2.505   7.797   4.324  0.0227 -2.6657  2.3167
   37MOL0     H 4876   2.612   8.018   4.247  0.1548  2.6518  0.5684
   37MOL0     H 4877   2.616   8.057   4.420 -4.3328  0.4085 -0.8277
   37MOL0     H 4878   2.793   7.926   4.468  1.2017 -3.3539  1.1334
   37MOL0     H 4879   2.834   7.972   4.303  0.0253 -0.0464  2.2032
   37MOL0     H 4880   2.717   7.713   4.401  1.4749  0.2818  1.6751
   37MOL0     H 4881   2.757   7.743   4.221  0.3451  1.8650 -0.6390
   37MOL0     H 4882   3.131   7.708   4.425 -0.1154  2.3475  1.5836
   37MOL0     H 4883   2.600   7.688   4.724  0.1501  1.1519 -1.9193
   37MOL0     H 4884   2.432   7.546   4.862 -2.2524  2.2250  2.4558
   38MOL0     O 4885   3.617   4.965   7.368  0.4322 -0.2939  0.2055
   38MOL0     C 4886   3.667   4.989   7.478  0.4266 -0.1485  0.6796
   38MOL0     O 4887   3.595   5.033   7.587  0.2340  0.7358  0.3076
   38MOL0     C 4888   3.469   5.075   7.562  0.1926 -0.0416 -0.4469
   38MOL0     C 4889   3.353   5.011   7.607 -0.6127  0.0158 -0.9198
   38MOL0     C 4890   3.236   5.084   7.591 -0.3629  0.2076  1.0386
   38MOL0     C 4891   3.225   5.209   7.529 -0.1593  0.5228  0.1680
   38MOL0     O 4892   3.099   5.245   7.506 -0.3326  0.2963 -0.1152
   38MOL0     C 4893   3.083   5.372   7.455  0.1210 -0.3464  0.1273
   38MOL0     C 4894   2.938   5.415   7.457  0.4329  0.4624  0.0973
   38MOL0     C 4895   2.873   5.410   7.595  0.5931 -0.2466 -0.1764
   38MOL0     C 4896   2.827   5.269   7.639  0.4161  0.4022  0.2836
   38MOL0     C 4897   2.741   5.280   7.771 -0.3091  0.1901  0.8633
   38MOL0     C 4898   2.605   5.326   7.744 -0.6255 -0.4487 -0.1468
   38MOL0     C 4899   2.523   5.326   7.872 -0.6442  0.0123  0.2897
   38MOL0     C 4900   2.377   5.309   7.866 -0.1209 -0.0154 -0.2792
   38MOL0     N 4901   2.324   5.303   8.008 -0.4245  0.1271  0.1588
   38MOL0     C 4902   2.319   5.197   8.089  0.1019  0.5653  0.1612
   38MOL0     C 4903   2.295   5.249   8.210  0.2002  0.4199  0.0019
   38MOL0     C 4904   2.285   5.165   8.333  0.1811 -0.5645  0.8619
   38MOL0     C 4905   2.428   5.159   8.388  0.2572 -0.4859 -0.1939
   38MOL0     C 4906   2.530   5.072   8.316 -0.1546 -0.0475 -0.4307
   38MOL0     C 4907   2.492   4.937   8.286  0.3122 -0.2679 -0.3843
   38MOL0     O 4908   2.474   4.858   8.409 -0.3147 -0.0155  0.0428
   38MOL0     C 4909   2.350   4.855   8.459  0.8734 -0.2877 -1.6941
   38MOL0     C 4910   2.343   4.878   8.602 -0.0011  1.0164  0.6623
   38MOL0     C 4911   2.215   4.842   8.667 -0.0730 -0.3223  0.4151
   38MOL0     C 4912   2.099   4.817   8.586 -0.6920 -0.3326 -0.0878
   38MOL0     C 4913   1.971   4.789   8.662  0.4752 -0.2708 -0.4092
   38MOL0     O 4914   1.864   4.745   8.578 -0.3232  0.1553 -0.5142
   38MOL0     C 4915   1.738   4.721   8.628 -0.0803  0.4227 -0.3570
   38MOL0     C 4916   1.644   4.678   8.535 -0.0521 -0.6727 -0.6792
   38MOL0     C 4917   1.512   4.664   8.564 -0.3819 -0.7277  0.4183
   38MOL0     C 4918   1.465   4.692   8.697  0.1103 -1.1036  0.9952
   38MOL0     O 4919   1.327   4.685   8.718  0.3676  0.4132  0.0879
   38MOL0     C 4920   1.266   4.772   8.810 -0.9528 -0.6319 -0.6008
   38MOL0     C 4921   1.114   4.777   8.819  0.8462 -0.7806  0.1679
   38MOL0     C 4922   1.042   4.661   8.865  0.4189 -0.2579 -0.1804
   38MOL0     C 4923   0.894   4.703   8.869 -0.5162 -0.1389 -0.8531
   38MOL0     C 4924   0.806   4.585   8.862 -0.7531  0.3003  0.2415
   38MOL0     C 4925   0.651   4.618   8.888  0.5129  0.9345  0.7818
   38MOL0     C 4926   0.610   4.694   9.021 -0.2086  1.0110 -0.2289
   38MOL0     C 4927   0.454   4.678   9.045  0.0108 -0.5599 -0.2482
   38MOL0    Cl 4928   0.383   4.800   9.177  0.8528 -0.1493  0.0292
   38MOL0     C 4929   1.560   4.732   8.797 -0.3181 -0.7179  0.5118
   38MOL0     C 4930   1.695   4.736   8.766  0.3594  0.0029 -0.0756
   38MOL0     O 4931   1.974   4.796   8.784 -0.2278  0.3000  0.5585
   38MOL0     C 4932   2.118   4.803   8.448 -1.1596 -0.2008 -0.6525
   38MOL0     C 4933   2.240   4.816   8.386  0.4424  0.2209  0.4330
   38MOL0     N 4934   2.300   5.379   8.205  0.0577 -0.1904 -0.4092
   38MOL0     N 4935   2.305   5.415   8.081  0.3596 -0.5507 -0.1788
   38MOL0     C 4936   3.346   5.256   7.471  0.9455 -1.0362  0.4684
   38MOL0     C 4937   3.468   5.194   7.494 -0.0616 -0.4580 -0.3863
   38MOL0     C 4938   3.816   4.986   7.478  0.6045  0.3675  0.0835
   38MOL0     C 4939   3.893   4.956   7.364  0.4849 -0.1286  0.2506
   38MOL0     C 4940   4.032   4.950   7.362  0.1344 -0.1798 -0.3003
   38MOL0     C 4941   4.101   4.974   7.485 -0.1240 -0.8438 -0.3205
   38MOL0     O 4942   4.230   4.931   7.496 -0.1476  0.4945  0.4478
   38MOL0     C 4943   4.316   5.037   7.455 -0.5353  1.0946 -0.0046
   38MOL0     C 4944   4.413   5.081   7.564 -0.0027  0.3992 -0.0848
   38MOL0     C 4945   4.520   4.969   7.611  0.6439 -0.9356  0.6973
   38MOL0     C 4946   4.615   5.032   7.703 -0.2251  0.3867 -0.1882
   38MOL0     C 4947   4.740   4.960   7.692 -0.2514  0.7996 -0.1597
   38MOL0     C 4948   4.854   4.914   7.683 -0.5722 -0.1353 -0.0004
   38MOL0     C 4949   4.028   5.007   7.595  0.4066 -0.5830  0.5648
   38MOL0     C 4950   3.885   5.004   7.597  0.3105 -0.3498 -1.0170
   38MOL0     H 4951   3.369   4.920   7.664  2.7599 -0.3730 -2.2653
   38MOL0     H 4952   3.145   5.042   7.632 -0.5651  0.0259  0.4007
   38MOL0     H 4953   3.116   5.377   7.350 -2.7916  3.1581 -0.8427
   38MOL0     H 4954   3.140   5.443   7.517 -0.3359 -1.7456  2.2269
   38MOL0     H 4955   2.872   5.364   7.386  1.5568 -0.9009 -0.0239
   38MOL0     H 4956   2.941   5.521   7.433  1.9211  1.0767  2.5928
   38MOL0     H 4957   2.785   5.474   7.588  1.1797  0.5772 -0.1106
   38MOL0     H 4958   2.931   5.446   7.680  0.0620  1.3695 -0.4653
   38MOL0     H 4959   2.771   5.216   7.561  2.7251  0.0275 -1.2057
   38MOL0     H 4960   2.912   5.201   7.653 -2.1115 -2.8540  1.2077
   38MOL0     H 4961   2.793   5.346   7.842  0.0935 -0.7241  1.4347
   38MOL0     H 4962   2.736   5.182   7.818  2.3705 -0.4978 -0.0751
   38MOL0     H 4963   2.564   5.252   7.675  1.2057 -1.5674 -0.0810
   38MOL0     H 4964   2.614   5.421   7.691 -1.0132  0.6173  1.6238
   38MOL0     H 4965   2.575   5.263   7.945  0.2480 -1.8583 -1.8097
   38MOL0     H 4966   2.527   5.432   7.897 -0.2028  1.3803 -4.5271
   38MOL0     H 4967   2.351   5.220   7.808 -2.4177  0.8436 -0.6440
   38MOL0     H 4968   2.344   5.399   7.813  0.1796 -0.3178 -0.9980
   38MOL0     H 4969   2.325   5.094   8.057 -0.4525  0.9298 -1.2109
   38MOL0     H 4970   2.242   5.067   8.311  2.3191 -1.7947  1.8093
   38MOL0     H 4971   2.214   5.216   8.399 -2.9516 -1.0656 -1.8355
   38MOL0     H 4972   2.421   5.118   8.489 -0.4813  0.9744  0.3588
   38MOL0     H 4973   2.466   5.255   8.422 -0.9201 -0.0225 -0.1427
   38MOL0     H 4974   2.548   5.130   8.225 -4.2220  1.5884 -0.4063
   38MOL0     H 4975   2.622   5.066   8.375 -0.6047 -0.3995  0.2468
   38MOL0     H 4976   2.575   4.898   8.226  0.5264  0.1606 -0.3692
   38MOL0     H 4977   2.403   4.932   8.223  0.7981 -0.5282 -1.0671
   38MOL0     H 4978   2.429   4.916   8.656  1.1495 -0.2313 -0.2134
   38MOL0     H 4979   2.209   4.852   8.775  1.9291 -0.4320  0.5849
   38MOL0     H 4980   1.684   4.657   8.436  2.0639 -0.2643  0.0298
   38MOL0     H 4981   1.444   4.646   8.482 -1.9058  4.4417  0.2047
   38MOL0     H 4982   1.289   4.876   8.785 -0.9751 -0.1054  1.4359
   38MOL0     H 4983   1.301   4.753   8.912 -1.8913 -1.6866 -0.4612
   38MOL0     H 4984   1.076   4.803   8.720  0.3971 -2.2229 -0.0713
   38MOL0     H 4985   1.087   4.859   8.886  1.4006 -0.3355 -0.1499
   38MOL0     H 4986   1.078   4.626   8.962  0.0309 -2.2367 -0.6922
   38MOL0     H 4987   1.052   4.571   8.803 -0.0090 -0.5076  0.1051
   38MOL0     H 4988   0.875   4.763   8.959  2.4416 -0.1338 -0.1156
   38MOL0     H 4989   0.868   4.753   8.776  0.1526  1.6084 -0.1485
   38MOL0     H 4990   0.842   4.508   8.932  0.5133 -1.5873 -2.3469
   38MOL0     H 4991   0.818   4.529   8.769  2.2399  0.9519  0.1376
   38MOL0     H 4992   0.590   4.527   8.883  3.0683 -0.9050  0.8386
   38MOL0     H 4993   0.614   4.685   8.811 -1.5206  1.7380  2.3535
   38MOL0     H 4994   0.665   4.655   9.107  1.3426  1.7830 -0.8374
   38MOL0     H 4995   0.628   4.798   8.992  0.4398  1.0190  0.1894
   38MOL0     H 4996   0.431   4.579   9.084  0.5460  0.5933  3.3863
   38MOL0     H 4997   0.392   4.692   8.955 -3.7535 -0.0642  2.1887
   38MOL0     H 4998   1.537   4.746   8.902  0.7324  2.4554  0.4358
   38MOL0     H 4999   1.770   4.742   8.844  0.1102  1.9896  0.0547
   38MOL0     H 5000   2.033   4.789   8.381 -0.8514 -1.7992 -0.7679
   38MOL0     H 5001   2.251   4.791   8.281 -0.5382 -2.4155  0.8828
   38MOL0     H 5002   3.336   5.332   7.394  1.7557 -1.0867  0.3133
   38MOL0     H 5003   3.560   5.235   7.455 -1.4619  1.4260 -1.8574
   38MOL0     H 5004   3.845   4.925   7.272  1.6349  0.5436 -0.6155
   38MOL0     H 5005   4.079   4.920   7.270 -2.1110  2.6881 -2.6031
   38MOL0     H 5006   4.255   5.118   7.414 -3.6952  0.1905  2.4772
   38MOL0     H 5007   4.374   4.999   7.370 -1.0879 -0.7042  0.3826
   38MOL0     H 5008   4.459   5.170   7.519 -0.7130 -0.6865 -3.2499
   38MOL0     H 5009   4.360   5.101   7.657  2.9847  0.4273  1.7512
   38MOL0     H 5010   4.574   4.932   7.523 -1.5023 -2.1152 -0.1956
   38MOL0     H 5011   4.475   4.885   7.665  1.2076 -0.9725  1.1258
   38MOL0     H 5012   4.637   5.135   7.675  0.3183  0.6821  1.2445
   38MOL0     H 5013   4.561   5.045   7.797 -1.0902 -0.2415 -0.5816
   38MOL0     H 5014   4.956   4.882   7.679 -1.0906 -1.7979 -2.6466
   38MOL0     H 5015   4.087   5.017   7.685  0.3818  3.5616  0.3144
   38MOL0     H 5016   3.829   5.023   7.687 -0.5754 -1.9189 -1.1961
   39MOL0     O 5017   2.381   7.640   9.591  0.3821  0.1095  0.5776
   39MOL0     C 5018   2.463   7.625   9.503 -0.1677  0.6804  0.4923
   39MOL0     O 5019   2.437   7.572   9.373  0.3673 -0.2157 -0.5328
   39MOL0     C 5020   2.315   7.511   9.352  0.5713 -0.0467  0.0889
   39MOL0     C 5021   2.235   7.549   9.244  0.3893 -0.5347 -0.3384
   39MOL0     C 5022   2.105   7.503   9.232 -0.2692  1.1282 -0.4560
   39MOL0     C 5023   2.042   7.408   9.316 -0.5171 -0.2665 -0.1553
   39MOL0     O 5024   1.921   7.380   9.294  0.3358  0.6167  0.2696
   39MOL0     C 5025   1.898   7.236   9.283  0.8456  0.4592 -0.2316
   39MOL0     C 5026   1.892   7.185   9.146 -0.3326 -0.2571 -1.0714
   39MOL0     C 5027   1.764   7.211   9.066  0.0610  0.3150 -0.2710
   39MOL0     C 5028   1.739   7.365   9.057 -0.0528  0.3153 -0.3885
   39MOL0     C 5029   1.654   7.389   8.943  0.4863 -0.0017  0.0576
   39MOL0     C 5030   1.516   7.336   8.965  0.1729 -0.3870  0.1819
   39MOL0     C 5031   1.412   7.410   8.880 -0.0624  0.0677 -0.5525
   39MOL0     C 5032   1.360   7.542   8.944 -0.1702  0.0143  0.8019
   39MOL0     N 5033   1.252   7.611   8.865  0.2860 -0.1842 -0.2606
   39MOL0     C 5034   1.120   7.606   8.895  0.1539  0.2651 -0.2657
   39MOL0     C 5035   1.063   7.715   8.844 -0.9780  0.3344 -0.6034
   39MOL0     C 5036   0.921   7.762   8.823 -1.0686  0.5482  0.4704
   39MOL0     C 5037   0.820   7.688   8.907  0.2380  0.3757  0.5108
   39MOL0     C 5038   0.776   7.539   8.869 -0.4751  0.5480  0.0075
   39MOL0     C 5039   0.669   7.487   8.964  0.1839  1.2807 -0.5281
   39MOL0     O 5040   0.568   7.579   8.975  0.0340 -0.9811 -0.4713
   39MOL0     C 5041   0.437   7.542   8.973  0.3670 -0.3157  0.6741
   39MOL0     C 5042   0.338   7.638   8.931 -0.0112 -0.0020  0.0285
   39MOL0     C 5043   0.210   7.596   8.916 -0.0111 -0.0596 -0.4979
   39MOL0     C 5044   0.168   7.470   8.946  0.6318 -0.2394 -1.0260
   39MOL0     C 5045   0.019   7.433   8.934 -1.4294 -0.5311  0.0068
   39MOL0     O 5046  -0.075   7.532   8.891 -0.3328 -0.5184  0.8146
   39MOL0     C 5047  -0.215   7.526   8.916 -0.8119 -0.7146  0.0578
   39MOL0     C 5048  -0.268   7.477   9.029 -0.2032  0.4808  0.0326
   39MOL0     C 5049  -0.408   7.488   9.046  0.1100 -0.2744 -0.7244
   39MOL0     C 5050  -0.491   7.550   8.958  0.2223  0.1162  0.6196
   39MOL0     O 5051  -0.630   7.570   8.972 -0.6422 -0.8339 -0.1731
   39MOL0     C 5052  -0.689   7.533   9.090  0.0320 -0.3249 -0.7858
   39MOL0     C 5053  -0.845   7.540   9.090 -0.0362  0.7253  0.2014
   39MOL0     C 5054  -0.899   7.684   9.102 -0.1366  1.1949  0.2601
   39MOL0     C 5055  -0.895   7.776   8.978 -0.2107  0.2521 -0.3914
   39MOL0     C 5056  -1.012   7.872   8.996  0.5643  0.5728 -0.1030
   39MOL0     C 5057  -1.024   7.969   8.874  0.0343 -0.3050  0.1583
   39MOL0     C 5058  -1.149   8.057   8.886  0.0910 -0.2167  0.2492
   39MOL0     C 5059  -1.177   8.149   8.772  0.0995 -0.1053  0.3835
   39MOL0    Cl 5060  -1.310   8.271   8.805  0.0607 -0.6448  0.1424
   39MOL0     C 5061  -0.436   7.604   8.844  0.0984 -0.3828 -0.2369
   39MOL0     C 5062  -0.297   7.589   8.818  0.0046  0.2276 -0.6732
   39MOL0     O 5063  -0.005   7.321   8.988  0.1716  0.5140 -0.3799
   39MOL0     C 5064   0.257   7.376   8.991  0.8545  0.3107  0.6054
   39MOL0     C 5065   0.393   7.419   9.004  0.1878  0.7411 -0.1248
   39MOL0     N 5066   1.169   7.777   8.772 -0.5600 -0.5039  0.3361
   39MOL0     N 5067   1.274   7.706   8.776 -0.4724  0.3456 -0.2645
   39MOL0     C 5068   2.115   7.367   9.428 -0.1759  0.3907 -1.2174
   39MOL0     C 5069   2.246   7.425   9.447 -0.1082  0.0853  0.3698
   39MOL0     C 5070   2.600   7.675   9.530 -0.2326  0.7059  1.0989
   39MOL0     C 5071   2.637   7.717   9.653  0.3320 -0.3487  0.0534
   39MOL0     C 5072   2.771   7.759   9.673  0.3243  0.4154  0.7518
   39MOL0     C 5073   2.874   7.735   9.573  0.1129  0.2623  0.4403
   39MOL0     O 5074   3.005   7.765   9.579 -0.1789 -0.6118  0.0606
   39MOL0     C 5075   3.069   7.798   9.706 -0.0449 -0.0424 -0.1868
   39MOL0     C 5076   3.040   7.946   9.763  0.0439  0.3267  1.1820
   39MOL0     C 5077   3.094   7.981   9.900 -0.1965 -0.1617 -0.0268
   39MOL0     C 5078   3.102   7.869  10.005  0.3117 -0.1292 -0.1203
   39MOL0     C 5079   2.966   7.823  10.040 -0.4350 -0.7386 -0.5654
   39MOL0     C 5080   2.860   7.791  10.084  0.3648  0.0033  0.8044
   39MOL0     C 5081   2.828   7.688   9.454 -0.3542  0.1750  0.0754
   39MOL0     C 5082   2.692   7.660   9.426 -0.6306  0.1350 -0.9822
   39MOL0     H 5083   2.273   7.613   9.165 -0.1231 -0.6640 -0.6931
   39MOL0     H 5084   2.058   7.518   9.136  2.2153  1.0551 -1.7573
   39MOL0     H 5085   1.799   7.223   9.328  0.5425 -1.1126 -1.2978
   39MOL0     H 5086   1.970   7.170   9.331 -1.1497 -1.4011  0.3899
   39MOL0     H 5087   1.913   7.078   9.143 -3.8708 -1.1352  0.4197
   39MOL0     H 5088   1.969   7.247   9.099 -2.5696  1.2893 -2.9561
   39MOL0     H 5089   1.687   7.173   9.134  2.0300  0.2751  2.0491
   39MOL0     H 5090   1.763   7.158   8.970  0.9131 -3.0116  1.4196
   39MOL0     H 5091   1.691   7.396   9.150  1.6052 -1.2640  1.0856
   39MOL0     H 5092   1.831   7.420   9.035 -0.2319 -0.0512 -2.1840
   39MOL0     H 5093   1.699   7.337   8.857  0.5711 -2.1433  1.3281
   39MOL0     H 5094   1.648   7.497   8.924  0.9441  0.2712  1.3503
   39MOL0     H 5095   1.505   7.344   9.073  2.8006  0.6272  0.4573
   39MOL0     H 5096   1.518   7.231   8.936  1.3606  0.0447 -1.4837
   39MOL0     H 5097   1.455   7.423   8.780 -1.2897 -0.9617 -1.2448
   39MOL0     H 5098   1.327   7.344   8.861  0.6902 -2.1150  2.7791
   39MOL0     H 5099   1.442   7.614   8.952 -0.1337 -0.1347  1.9505
   39MOL0     H 5100   1.318   7.530   9.045  2.8433 -1.5990  1.9692
   39MOL0     H 5101   1.069   7.529   8.952  1.7457 -1.2612 -0.7937
   39MOL0     H 5102   0.884   7.749   8.721  0.2921  1.9594 -0.2340
   39MOL0     H 5103   0.911   7.869   8.844 -0.7894  0.1618  2.8690
   39MOL0     H 5104   0.730   7.750   8.896  0.0546  0.1577  0.7717
   39MOL0     H 5105   0.853   7.689   9.011  0.1396  1.5470  0.5466
   39MOL0     H 5106   0.728   7.528   8.771 -0.0359  0.6692 -0.2258
   39MOL0     H 5107   0.867   7.479   8.868  0.8284  2.4586 -0.4650
   39MOL0     H 5108   0.716   7.459   9.059  1.2466  0.9078 -1.1546
   39MOL0     H 5109   0.638   7.388   8.931  1.1971  1.1498 -1.1273
   39MOL0     H 5110   0.359   7.743   8.912  0.9663 -0.4233 -1.3384
   39MOL0     H 5111   0.140   7.672   8.884  1.9112  0.9747 -2.5683
   39MOL0     H 5112  -0.195   7.430   9.095  0.9917 -0.4353 -1.8420
   39MOL0     H 5113  -0.451   7.434   9.130 -5.0385 -1.8503 -3.8970
   39MOL0     H 5114  -0.648   7.596   9.170 -0.3199  0.5003 -1.2460
   39MOL0     H 5115  -0.657   7.431   9.114  2.4745 -0.7504 -4.8787
   39MOL0     H 5116  -0.879   7.482   9.177 -0.2222 -1.1833 -1.0720
   39MOL0     H 5117  -0.877   7.499   8.993 -0.4133  1.0464  0.1873
   39MOL0     H 5118  -0.843   7.726   9.186  0.7550  1.8189 -0.6331
   39MOL0     H 5119  -1.002   7.679   9.138 -0.9886 -2.5004 -2.1346
   39MOL0     H 5120  -0.800   7.827   8.965  0.8674 -1.8908 -1.3697
   39MOL0     H 5121  -0.921   7.713   8.893  0.2287  1.2206 -1.2555
   39MOL0     H 5122  -1.007   7.932   9.087  0.9997  0.9553 -0.3737
   39MOL0     H 5123  -1.105   7.815   8.997  1.3810 -0.8674 -1.1154
   39MOL0     H 5124  -1.038   7.922   8.777  0.3016  1.3041 -0.6996
   39MOL0     H 5125  -0.931   8.027   8.870  0.2937 -0.7195 -3.5689
   39MOL0     H 5126  -1.237   7.993   8.897  0.7660 -1.0112  1.1594
   39MOL0     H 5127  -1.153   8.106   8.984  0.2345 -3.1244  1.8094
   39MOL0     H 5128  -1.215   8.094   8.685  0.4528  2.2177 -1.3464
   39MOL0     H 5129  -1.086   8.205   8.749  2.4082 -3.3291  1.0463
   39MOL0     H 5130  -0.501   7.663   8.781  0.2417 -0.5359 -0.5289
   39MOL0     H 5131  -0.252   7.635   8.731  1.9434 -0.0854  0.1325
   39MOL0     H 5132   0.229   7.273   9.011  0.9701  0.2917  0.6755
   39MOL0     H 5133   0.462   7.344   9.042 -0.0403 -0.3035 -1.6530
   39MOL0     H 5134   2.076   7.291   9.495  0.0198  0.9361 -0.4668
   39MOL0     H 5135   2.301   7.415   9.540 -2.6564 -0.5397  1.9105
   39MOL0     H 5136   2.584   7.727   9.747 -0.8723  1.8299 -0.7988
   39MOL0     H 5137   2.796   7.790   9.774 -0.9448 -1.4825  1.7006
   39MOL0     H 5138   3.178   7.798   9.693  0.1688  0.7370  1.3959
   39MOL0     H 5139   3.051   7.726   9.787  0.5784 -1.2263 -1.0629
   39MOL0     H 5140   3.086   8.021   9.697  3.8321 -1.0697  1.9673
   39MOL0     H 5141   2.932   7.957   9.755 -0.2267 -1.5966  1.6896
   39MOL0     H 5142   3.038   8.066   9.940 -0.6452 -1.2259  1.6725
   39MOL0     H 5143   3.195   8.016   9.876 -0.5477 -0.6639 -2.5447
   39MOL0     H 5144   3.166   7.785   9.976  0.9571 -0.2918  1.6414
   39MOL0     H 5145   3.151   7.909  10.095 -2.6601  3.0973  0.2876
   39MOL0     H 5146   2.765   7.760  10.123  0.0208  1.6357  1.3253
   39MOL0     H 5147   2.901   7.683   9.374  0.2799  0.9019  0.5931
   39MOL0     H 5148   2.666   7.607   9.335 -1.2644 -0.5184 -0.4299
   40MOL0     O 5149   9.374   0.082   5.963 -0.0824 -0.2194 -0.9325
   40MOL0     C 5150   9.462   0.112   6.050  0.1137  0.7705  0.1243
   40MOL0     O 5151   9.449   0.129   6.183  0.7284  0.5404  0.5013
   40MOL0     C 5152   9.330   0.086   6.237  0.2165  0.1856  0.2863
   40MOL0     C 5153   9.209   0.151   6.203  0.2637 -0.1421  0.0176
   40MOL0     C 5154   9.089   0.104   6.261 -0.4195 -0.9367  0.3646
   40MOL0     C 5155   9.086   0.006   6.349  0.8841  1.3569  0.8030
   40MOL0     O 5156   8.970  -0.036   6.392 -0.2493  0.0201 -0.4110
   40MOL0     C 5157   8.941  -0.178   6.363 -0.0214 -0.6129  0.0959
   40MOL0     C 5158   8.795  -0.206   6.402 -0.2073  0.3972  0.6795
   40MOL0     C 5159   8.776  -0.350   6.434  0.3961 -0.0121 -0.5180
   40MOL0     C 5160   8.643  -0.406   6.388  0.0042 -0.3663  0.1188
   40MOL0     C 5161   8.619  -0.552   6.440 -0.5101 -0.2552 -0.1708
   40MOL0     C 5162   8.470  -0.607   6.423 -0.1212  0.6856  1.1789
   40MOL0     C 5163   8.366  -0.517   6.483  0.8164  0.3527 -1.0329
   40MOL0     C 5164   8.236  -0.594   6.484  0.6411 -0.2692 -0.8406
   40MOL0     N 5165   8.125  -0.496   6.529 -0.8726  0.2464 -0.0507
   40MOL0     C 5166   8.085  -0.392   6.457 -0.2510  0.8847  0.0902
   40MOL0     C 5167   8.003  -0.322   6.532 -0.0216  0.5749 -0.2591
   40MOL0     C 5168   7.932  -0.196   6.482 -0.1954  0.2649  0.8735
   40MOL0     C 5169   7.788  -0.222   6.433 -0.2670 -1.1487 -0.1551
   40MOL0     C 5170   7.694  -0.184   6.549 -0.4517 -0.3431 -0.5860
   40MOL0     C 5171   7.549  -0.207   6.512 -0.0953  0.1207 -0.8296
   40MOL0     O 5172   7.477  -0.157   6.623  0.7316 -0.0588  0.7473
   40MOL0     C 5173   7.383  -0.242   6.678 -1.2642 -0.0820 -0.1632
   40MOL0     C 5174   7.274  -0.294   6.608 -0.5767 -1.0402  0.4109
   40MOL0     C 5175   7.170  -0.368   6.666 -0.5452 -0.7323  0.4017
   40MOL0     C 5176   7.165  -0.385   6.804 -0.1801 -0.5669  0.0420
   40MOL0     C 5177   7.062  -0.453   6.872 -0.4775 -0.1427 -0.5690
   40MOL0     O 5178   7.062  -0.446   7.014 -0.4234 -0.4746  0.4051
   40MOL0     C 5179   6.984  -0.525   7.095  0.2492  0.3558  0.0211
   40MOL0     C 5180   6.992  -0.509   7.233  0.0117 -0.3148  0.6252
   40MOL0     C 5181   6.913  -0.575   7.321 -1.2349  0.5590 -0.7328
   40MOL0     C 5182   6.827  -0.677   7.275 -0.3868 -0.9271 -0.2723
   40MOL0     O 5183   6.750  -0.756   7.362 -0.3487 -1.0529  0.0955
   40MOL0     C 5184   6.636  -0.685   7.406 -0.6858  0.5161 -0.4832
   40MOL0     C 5185   6.533  -0.797   7.439 -0.3760 -0.4329  0.0949
   40MOL0     C 5186   6.408  -0.742   7.513 -0.4229 -0.3868 -0.2636
   40MOL0     C 5187   6.293  -0.833   7.501  0.3561  0.0180  0.1679
   40MOL0     C 5188   6.218  -0.827   7.360 -0.2128  0.4179  0.0676
   40MOL0     C 5189   6.071  -0.869   7.371  0.0025  0.2516 -0.5300
   40MOL0     C 5190   6.001  -0.878   7.237 -0.3157 -0.5693  0.1553
   40MOL0     C 5191   5.868  -0.959   7.242  0.8057  0.1280 -0.4304
   40MOL0    Cl 5192   5.760  -0.861   7.349 -0.2292 -0.1652  0.0333
   40MOL0     C 5193   6.824  -0.705   7.134  0.4564  0.2431 -0.0561
   40MOL0     C 5194   6.885  -0.615   7.053 -0.6094 -0.5336  0.5817
   40MOL0     O 5195   6.994  -0.531   6.801  0.4258  0.2080  0.0820
   40MOL0     C 5196   7.265  -0.322   6.873  0.1814 -0.3232  0.1706
   40MOL0     C 5197   7.371  -0.247   6.814  0.1260  0.5392 -1.2721
   40MOL0     N 5198   7.977  -0.391   6.652 -0.1154 -0.1808  0.2277
   40MOL0     N 5199   8.067  -0.490   6.656 -0.1476  0.0729  0.4395
   40MOL0     C 5200   9.206  -0.068   6.376  0.5569 -0.0232  0.3024
   40MOL0     C 5201   9.326  -0.021   6.320 -0.1495  0.8512  0.7109
   40MOL0     C 5202   9.601   0.147   5.995  0.3601  2.1059  0.0052
   40MOL0     C 5203   9.703   0.134   6.084  0.6406 -0.4824  0.2783
   40MOL0     C 5204   9.834   0.152   6.046  1.1063  0.5971  0.6825
   40MOL0     C 5205   9.866   0.185   5.917  0.1607 -0.1824  0.2977
   40MOL0     O 5206   9.997   0.215   5.896 -0.0255 -0.7836 -0.1864
   40MOL0     C 5207  10.010   0.344   5.833  0.4600  0.3081 -0.1469
   40MOL0     C 5208  10.093   0.313   5.706  0.4546 -0.3558  0.7159
   40MOL0     C 5209  10.235   0.374   5.709 -0.4924 -0.1858  0.7358
   40MOL0     C 5210  10.226   0.532   5.689 -0.2823 -0.1971 -0.1812
   40MOL0     C 5211  10.254   0.611   5.807 -0.5589 -0.5431  0.5849
   40MOL0     C 5212  10.256   0.674   5.905  0.2018  0.0929 -0.8858
   40MOL0     C 5213   9.760   0.182   5.817 -0.3105  0.0070 -1.3295
   40MOL0     C 5214   9.628   0.153   5.855  0.0371 -0.8296 -0.6660
   40MOL0     H 5215   9.205   0.240   6.140  0.5753 -0.4936 -0.5063
   40MOL0     H 5216   8.995   0.157   6.244 -1.0248 -1.9544  0.4171
   40MOL0     H 5217   9.007  -0.234   6.430 -1.1020 -1.2308  0.6624
   40MOL0     H 5218   8.963  -0.199   6.257  1.6066 -0.5737  0.3898
   40MOL0     H 5219   8.730  -0.180   6.318  0.2393  1.4646  0.6445
   40MOL0     H 5220   8.762  -0.140   6.483  0.9430  0.9729  0.7024
   40MOL0     H 5221   8.782  -0.368   6.542 -0.7927 -0.8748 -0.5803
   40MOL0     H 5222   8.859  -0.406   6.390  1.4309  1.1588 -0.1407
   40MOL0     H 5223   8.567  -0.335   6.422 -1.5680 -0.1664 -3.3457
   40MOL0     H 5224   8.640  -0.410   6.278 -0.5721  0.1038  0.1147
   40MOL0     H 5225   8.643  -0.558   6.547 -1.0927  4.0316  0.3447
   40MOL0     H 5226   8.694  -0.621   6.399  0.7121 -0.3960  2.1628
   40MOL0     H 5227   8.479  -0.708   6.464  1.0043 -1.2222 -3.0963
   40MOL0     H 5228   8.446  -0.608   6.316  1.0659  3.8098  0.7730
   40MOL0     H 5229   8.388  -0.499   6.589 -1.6321 -0.1432 -0.3679
   40MOL0     H 5230   8.357  -0.424   6.426 -0.9229  0.8674 -0.0106
   40MOL0     H 5231   8.243  -0.675   6.557 -2.5510  1.0817  1.1925
   40MOL0     H 5232   8.216  -0.639   6.386  0.5603  0.0186 -0.9567
   40MOL0     H 5233   8.117  -0.373   6.355  1.4528  1.8357  0.7622
   40MOL0     H 5234   7.987  -0.149   6.400 -2.9569  1.9606 -0.1412
   40MOL0     H 5235   7.923  -0.121   6.561 -2.2708 -0.6826  1.6267
   40MOL0     H 5236   7.784  -0.329   6.411  1.9375 -1.0099 -1.5188
   40MOL0     H 5237   7.768  -0.166   6.341  0.2319  0.1403  0.4870
   40MOL0     H 5238   7.729  -0.240   6.637 -0.9550 -0.2969 -0.3524
   40MOL0     H 5239   7.705  -0.077   6.566 -0.3531 -0.2985 -0.9335
   40MOL0     H 5240   7.524  -0.313   6.503 -0.2450  0.2904 -2.6628
   40MOL0     H 5241   7.520  -0.168   6.414 -2.5566  2.5685  0.7220
   40MOL0     H 5242   7.289  -0.272   6.502  0.6122  1.1537  0.9595
   40MOL0     H 5243   7.089  -0.403   6.602 -2.2238  0.8192  1.5509
   40MOL0     H 5244   7.053  -0.429   7.274 -1.5152  0.6564  1.0526
   40MOL0     H 5245   6.916  -0.564   7.429 -1.4194 -3.3453 -0.2086
   40MOL0     H 5246   6.590  -0.627   7.325 -0.6219 -0.8001 -1.4922
   40MOL0     H 5247   6.659  -0.638   7.502 -0.1810 -0.5286 -0.0860
   40MOL0     H 5248   6.586  -0.867   7.504 -0.6870  0.0190  0.8351
   40MOL0     H 5249   6.510  -0.848   7.344 -4.0593  0.7651  0.1694
   40MOL0     H 5250   6.378  -0.647   7.466  0.4367  0.2667  0.4717
   40MOL0     H 5251   6.428  -0.722   7.618  0.4373 -0.4777 -0.4007
   40MOL0     H 5252   6.332  -0.934   7.516 -0.8264 -0.4282  0.2919
   40MOL0     H 5253   6.216  -0.804   7.573  0.3244  0.8489 -0.1837
   40MOL0     H 5254   6.269  -0.901   7.298 -1.1431 -0.3178  0.1588
   40MOL0     H 5255   6.230  -0.730   7.311  0.3465 -0.5735 -1.8600
   40MOL0     H 5256   6.012  -0.809   7.440 -0.5255  0.4741 -1.1618
   40MOL0     H 5257   6.078  -0.970   7.412  2.0328  1.0787  1.4022
   40MOL0     H 5258   5.987  -0.777   7.197 -0.3160 -1.2098 -1.5782
   40MOL0     H 5259   6.066  -0.926   7.163  1.0045  0.0543  0.8712
   40MOL0     H 5260   5.877  -1.061   7.280  0.2243 -0.9234 -2.9750
   40MOL0     H 5261   5.817  -0.979   7.148 -0.9945  1.5969  0.1568
   40MOL0     H 5262   6.770  -0.792   7.099 -2.6396  1.9210  0.2072
   40MOL0     H 5263   6.859  -0.635   6.950  2.9477  0.6280 -0.6777
   40MOL0     H 5264   7.261  -0.315   6.982 -0.8971  1.5857  0.0610
   40MOL0     H 5265   7.454  -0.196   6.862  1.1166 -0.7095 -1.5980
   40MOL0     H 5266   9.196  -0.163   6.427  0.7779 -0.4375 -0.4126
   40MOL0     H 5267   9.407  -0.089   6.342 -1.4709 -1.3285 -0.8314
   40MOL0     H 5268   9.667   0.128   6.186 -0.8717  0.8706 -0.1434
   40MOL0     H 5269   9.920   0.140   6.111  3.2436 -0.9023 -2.2032
   40MOL0     H 5270  10.061   0.412   5.902  0.5723 -1.6153  1.7526
   40MOL0     H 5271   9.916   0.392   5.805 -1.2591 -1.4668  2.1589
   40MOL0     H 5272  10.098   0.204   5.704 -4.1703 -0.8530  2.9239
   40MOL0     H 5273  10.031   0.354   5.625 -2.0723 -0.4213  2.4909
   40MOL0     H 5274  10.291   0.326   5.628 -0.1160  0.7826  0.4095
   40MOL0     H 5275  10.294   0.347   5.798  2.4014  1.2592 -0.6116
   40MOL0     H 5276  10.301   0.558   5.615  0.5548 -1.0585  0.3443
   40MOL0     H 5277  10.129   0.551   5.642  0.1870  0.2500 -0.9759
   40MOL0     H 5278  10.252   0.736   5.992  1.6931 -1.0092  0.0158
   40MOL0     H 5279   9.777   0.215   5.715 -0.4849 -0.4364 -1.5042
   40MOL0     H 5280   9.546   0.149   5.784 -0.5046  0.7796 -0.1836
   41MOL0     O 5281   5.551   6.396   9.244 -0.1731 -0.8530  0.5568
   41MOL0     C 5282   5.651   6.452   9.183  0.4627  0.2870  0.9343
   41MOL0     O 5283   5.640   6.541   9.081  0.8106  0.1168  1.2063
   41MOL0     C 5284   5.514   6.571   9.037  0.1020 -0.6274  0.7425
   41MOL0     C 5285   5.475   6.541   8.903  0.3071  0.5456 -0.9621
   41MOL0     C 5286   5.353   6.584   8.855  0.0385 -1.0159 -0.2356
   41MOL0     C 5287   5.266   6.658   8.933 -0.0202 -0.1468  0.2168
   41MOL0     O 5288   5.143   6.698   8.887  0.7487  0.1794  0.3305
   41MOL0     C 5289   5.063   6.609   8.797  0.0693  0.1048  0.1252
   41MOL0     C 5290   4.917   6.643   8.831 -0.5357 -0.0373 -0.7250
   41MOL0     C 5291   4.820   6.582   8.717  0.5074  0.8225 -0.4216
   41MOL0     C 5292   4.686   6.643   8.733  0.1271  0.2763  0.4241
   41MOL0     C 5293   4.580   6.606   8.624  0.6500 -0.3328 -1.1729
   41MOL0     C 5294   4.627   6.661   8.485 -0.2450  0.0463 -1.0272
   41MOL0     C 5295   4.513   6.630   8.383  1.0850 -0.8488  0.0988
   41MOL0     C 5296   4.510   6.764   8.296  0.6367  0.3364  0.0658
   41MOL0     N 5297   4.398   6.764   8.201  0.6042  0.9878 -0.1112
   41MOL0     C 5298   4.280   6.699   8.200 -0.2428  0.8565 -0.1473
   41MOL0     C 5299   4.223   6.706   8.079 -0.7723 -0.3046  0.3438
   41MOL0     C 5300   4.091   6.654   8.032  0.3786 -0.0061 -0.5724
   41MOL0     C 5301   3.974   6.720   8.104  0.0385 -0.0294 -0.0915
   41MOL0     C 5302   3.963   6.873   8.075 -0.6714  0.8744  0.0964
   41MOL0     C 5303   3.858   6.933   8.172 -0.2065  0.4806 -0.3211
   41MOL0     O 5304   3.724   6.873   8.139 -0.1269 -1.0556 -0.5296
   41MOL0     C 5305   3.607   6.912   8.198 -0.2914 -0.0759 -0.3384
   41MOL0     C 5306   3.484   6.861   8.154 -0.4202  0.2401  0.0155
   41MOL0     C 5307   3.361   6.897   8.214  0.5084  0.3017  0.0025
   41MOL0     C 5308   3.355   6.995   8.309  0.4125 -0.4678  0.4723
   41MOL0     C 5309   3.218   7.041   8.356 -0.5693  0.4299  0.5334
   41MOL0     O 5310   3.205   7.147   8.434 -0.0487 -0.5542 -0.1862
   41MOL0     C 5311   3.091   7.224   8.432 -0.1052  0.5554 -0.3332
   41MOL0     C 5312   2.974   7.169   8.483 -0.7156 -0.3991 -0.1363
   41MOL0     C 5313   2.863   7.242   8.505  0.0582  0.3332  0.1609
   41MOL0     C 5314   2.866   7.375   8.480 -0.1626 -1.2414 -0.1636
   41MOL0     O 5315   2.761   7.466   8.501  0.4472  0.2490  0.9422
   41MOL0     C 5316   2.706   7.456   8.631  0.5465  0.2340  0.0396
   41MOL0     C 5317   2.563   7.511   8.611  0.1280  0.4774 -0.5858
   41MOL0     C 5318   2.469   7.487   8.730 -0.2783  0.1233  0.9187
   41MOL0     C 5319   2.345   7.573   8.691 -0.3725 -0.0431 -0.2141
   41MOL0     C 5320   2.236   7.575   8.800 -0.0670  0.5827  0.7910
   41MOL0     C 5321   2.118   7.642   8.718 -0.4757 -0.6810  0.4140
   41MOL0     C 5322   1.987   7.627   8.803 -0.4326 -1.1463 -0.4360
   41MOL0     C 5323   1.867   7.646   8.710 -0.8128  0.7095 -1.0826
   41MOL0    Cl 5324   1.866   7.823   8.657 -0.0049  0.3421  0.1139
   41MOL0     C 5325   2.983   7.437   8.430 -0.1052  0.2201 -0.0702
   41MOL0     C 5326   3.097   7.357   8.409  0.3629 -0.8946  0.0165
   41MOL0     O 5327   3.125   6.968   8.325 -0.3193  0.5921 -0.4152
   41MOL0     C 5328   3.474   7.060   8.343  0.0353  0.9768  1.4230
   41MOL0     C 5329   3.600   7.012   8.302  0.0948  0.7353  0.7115
   41MOL0     N 5330   4.305   6.783   7.993 -0.3803  0.5190 -0.1936
   41MOL0     N 5331   4.411   6.810   8.069  0.0908  0.2305  1.1049
   41MOL0     C 5332   5.298   6.677   9.067  0.6806 -0.2868 -1.1612
   41MOL0     C 5333   5.420   6.637   9.120 -0.4844  1.0378 -0.5909
   41MOL0     C 5334   5.785   6.435   9.252  0.3612 -0.0148  0.5927
   41MOL0     C 5335   5.812   6.334   9.345 -0.8394  0.6293 -0.5053
   41MOL0     C 5336   5.946   6.316   9.394  0.7828 -0.5013 -0.1004
   41MOL0     C 5337   6.047   6.400   9.331 -0.7026 -0.6938  1.3157
   41MOL0     O 5338   6.180   6.372   9.349 -0.6750  0.7314  0.0729
   41MOL0     C 5339   6.228   6.396   9.485  0.4483 -0.4013  0.2270
   41MOL0     C 5340   6.273   6.267   9.553  0.5299 -0.1955  0.2821
   41MOL0     C 5341   6.392   6.220   9.473 -0.2244 -0.0616 -0.9241
   41MOL0     C 5342   6.440   6.098   9.537 -0.3035  0.8986  0.6415
   41MOL0     C 5343   6.573   6.077   9.477  0.5000 -0.2121  0.4475
   41MOL0     C 5344   6.678   6.038   9.423  0.1988 -1.0416 -0.1318
   41MOL0     C 5345   6.015   6.486   9.226 -0.2445 -0.5193  0.0981
   41MOL0     C 5346   5.882   6.518   9.206 -1.0482 -0.1333  0.2571
   41MOL0     H 5347   5.531   6.475   8.838  0.3596 -0.0125 -0.3472
   41MOL0     H 5348   5.313   6.564   8.756 -4.3460  0.8737  0.9088
   41MOL0     H 5349   5.087   6.502   8.805 -1.7694 -0.2911  0.9853
   41MOL0     H 5350   5.081   6.638   8.693  1.3481 -2.1282 -0.3458
   41MOL0     H 5351   4.904   6.751   8.832 -1.2200 -0.1192 -0.1914
   41MOL0     H 5352   4.890   6.623   8.935 -2.2922  2.0090 -0.7364
   41MOL0     H 5353   4.814   6.473   8.721 -0.2304  0.8264 -1.1284
   41MOL0     H 5354   4.854   6.606   8.616  0.4169 -0.4469 -0.7745
   41MOL0     H 5355   4.643   6.621   8.831 -1.0712 -0.3417 -0.2057
   41MOL0     H 5356   4.717   6.747   8.738  1.2489 -0.0868  1.4676
   41MOL0     H 5357   4.479   6.641   8.649  1.1903 -0.8651  2.2761
   41MOL0     H 5358   4.576   6.497   8.627 -0.1736 -0.3002  0.9120
   41MOL0     H 5359   4.715   6.605   8.452  1.1768  2.6641 -1.9410
   41MOL0     H 5360   4.647   6.768   8.495  3.2016 -0.7039  2.4772
   41MOL0     H 5361   4.535   6.546   8.317 -0.2303  0.6881 -2.4921
   41MOL0     H 5362   4.422   6.616   8.442  2.7603 -1.5620  2.6781
   41MOL0     H 5363   4.602   6.771   8.236 -1.1618  1.7884 -2.7565
   41MOL0     H 5364   4.505   6.853   8.359  0.6886  2.7225 -3.0212
   41MOL0     H 5365   4.243   6.649   8.289  1.5903  2.8565  1.8438
   41MOL0     H 5366   4.093   6.554   8.077 -1.6022  0.1846  0.0215
   41MOL0     H 5367   4.072   6.638   7.925 -1.0855 -0.5047 -0.2507
   41MOL0     H 5368   3.973   6.691   8.210 -1.2702 -0.5319 -0.2178
   41MOL0     H 5369   3.887   6.674   8.056  1.5682 -4.1752  0.6831
   41MOL0     H 5370   4.060   6.923   8.089  0.8803 -2.3219  2.1029
   41MOL0     H 5371   3.937   6.897   7.972 -1.2725 -0.1770 -0.0098
   41MOL0     H 5372   3.853   7.042   8.166  3.3295  0.6678 -2.5879
   41MOL0     H 5373   3.892   6.914   8.274 -1.4673 -1.8342 -0.2595
   41MOL0     H 5374   3.482   6.794   8.068  1.4887  0.8860 -0.5718
   41MOL0     H 5375   3.269   6.858   8.173 -0.2054  0.8872  0.9969
   41MOL0     H 5376   2.979   7.063   8.508  0.8263  0.4267  3.8553
   41MOL0     H 5377   2.776   7.202   8.555  0.1962 -0.2877 -0.0897
   41MOL0     H 5378   2.758   7.517   8.705 -1.6413 -1.2583  3.0196
   41MOL0     H 5379   2.700   7.361   8.685  0.5728 -0.3185 -0.9015
   41MOL0     H 5380   2.520   7.443   8.535 -0.0313 -2.1438  1.7014
   41MOL0     H 5381   2.574   7.618   8.591 -0.6169  0.3187 -1.9990
   41MOL0     H 5382   2.502   7.525   8.827  0.3885 -1.0888  1.1856
   41MOL0     H 5383   2.437   7.383   8.735  0.0825 -0.0666 -0.2957
   41MOL0     H 5384   2.373   7.672   8.655  0.9440 -0.5105 -0.5342
   41MOL0     H 5385   2.316   7.506   8.609  1.2958 -0.3172 -0.6204
   41MOL0     H 5386   2.273   7.625   8.890  3.4437  0.9736 -0.7125
   41MOL0     H 5387   2.200   7.479   8.838  1.8872 -0.8067 -0.6546
   41MOL0     H 5388   2.103   7.602   8.618  0.9266  0.4230 -0.2586
   41MOL0     H 5389   2.138   7.746   8.694  1.3317 -0.8489  1.0155
   41MOL0     H 5390   1.984   7.537   8.865 -1.4827 -0.1845  0.9947
   41MOL0     H 5391   2.001   7.714   8.869 -1.7721 -0.3818 -1.1199
   41MOL0     H 5392   1.775   7.623   8.763 -1.2796  3.5388 -0.5058
   41MOL0     H 5393   1.871   7.578   8.624  1.1373  2.1868 -2.2501
   41MOL0     H 5394   2.985   7.545   8.421  0.1837  0.2055 -0.1996
   41MOL0     H 5395   3.200   7.389   8.399  0.3208 -0.6744  0.2687
   41MOL0     H 5396   3.480   7.146   8.407 -0.5473  2.9732 -1.0437
   41MOL0     H 5397   3.692   7.057   8.335  1.3967 -0.8548 -0.5686
   41MOL0     H 5398   5.231   6.732   9.133 -1.8616 -0.9028 -3.0815
   41MOL0     H 5399   5.452   6.668   9.220  0.0230 -1.2007 -0.0105
   41MOL0     H 5400   5.731   6.271   9.383 -0.1283 -0.0074 -0.0225
   41MOL0     H 5401   5.978   6.245   9.469  0.4453 -3.9133 -2.9138
   41MOL0     H 5402   6.158   6.457   9.544 -0.2595 -1.2179  0.2528
   41MOL0     H 5403   6.320   6.455   9.484 -0.3638  0.9109 -0.4850
   41MOL0     H 5404   6.296   6.282   9.659 -1.3258  0.0048  0.6992
   41MOL0     H 5405   6.194   6.193   9.541 -1.6217  2.1300 -1.0918
   41MOL0     H 5406   6.466   6.299   9.487  1.4308 -1.7638  0.4802
   41MOL0     H 5407   6.383   6.214   9.364  1.2108 -3.4279 -0.9761
   41MOL0     H 5408   6.449   6.110   9.645 -3.5783 -2.4758  1.5082
   41MOL0     H 5409   6.378   6.009   9.523 -0.6258  1.0204  1.2407
   41MOL0     H 5410   6.774   6.011   9.385  0.7796 -0.5252  0.9142
   41MOL0     H 5411   6.103   6.542   9.195 -1.3462  2.5125  1.9394
   41MOL0     H 5412   5.865   6.601   9.138  3.2728  1.1241  0.4178
   42MOL0     O 5413   3.334   5.593   5.641  0.2707 -0.2467  0.1027
   42MOL0     C 5414   3.337   5.628   5.754 -0.4669 -0.0351  0.1437
   42MOL0     O 5415   3.237   5.624   5.841 -0.2340 -0.9841 -1.0379
   42MOL0     C 5416   3.104   5.596   5.811  0.4761 -0.6344  0.4251
   42MOL0     C 5417   3.014   5.666   5.885  0.5812  0.1220  0.2735
   42MOL0     C 5418   2.878   5.645   5.865 -0.9956  0.4008 -0.0327
   42MOL0     C 5419   2.830   5.560   5.764  0.3805  0.4787 -0.6744
   42MOL0     O 5420   2.697   5.533   5.733  0.4224  0.2729  0.1527
   42MOL0     C 5421   2.613   5.532   5.848  0.1832 -0.3481  0.6786
   42MOL0     C 5422   2.472   5.487   5.799 -0.7659  0.5163 -0.2773
   42MOL0     C 5423   2.371   5.493   5.908 -0.2838  0.1250 -0.0138
   42MOL0     C 5424   2.317   5.638   5.925  0.2063 -0.1723  0.0975
   42MOL0     C 5425   2.205   5.642   6.033 -0.6364 -1.3965 -0.4472
   42MOL0     C 5426   2.082   5.567   5.986 -1.0262 -0.4119  0.3138
   42MOL0     C 5427   1.954   5.607   6.060 -0.9898 -0.4182 -0.1172
   42MOL0     C 5428   1.841   5.505   6.034  0.3843  0.4262 -0.2759
   42MOL0     N 5429   1.727   5.522   6.112 -0.3865  0.5129  0.0841
   42MOL0     C 5430   1.705   5.476   6.238  0.5875 -0.1384 -1.0254
   42MOL0     C 5431   1.579   5.527   6.281  0.3143  0.2611  0.0818
   42MOL0     C 5432   1.509   5.504   6.416  0.1456  0.7250 -0.5118
   42MOL0     C 5433   1.388   5.593   6.438 -0.7077 -0.1031 -0.4386
   42MOL0     C 5434   1.257   5.523   6.402  0.9090 -0.8498 -0.0220
   42MOL0     C 5435   1.141   5.590   6.468  0.3692 -0.8869 -0.5595
   42MOL0     O 5436   1.031   5.544   6.384 -0.4904 -0.1763  0.0618
   42MOL0     C 5437   0.897   5.571   6.413  1.0949  0.4115  0.3898
   42MOL0     C 5438   0.789   5.477   6.369  0.1058 -0.4690 -0.3616
   42MOL0     C 5439   0.655   5.499   6.411 -0.5339  0.4986  0.1904
   42MOL0     C 5440   0.623   5.615   6.491  0.5063 -0.2214  0.3567
   42MOL0     C 5441   0.478   5.636   6.541 -0.4419  0.9572 -0.4100
   42MOL0     O 5442   0.372   5.558   6.489 -0.5483  0.0033  0.7507
   42MOL0     C 5443   0.251   5.581   6.550  0.0077  0.2971 -0.6134
   42MOL0     C 5444   0.142   5.631   6.472 -0.6132 -0.4340 -1.1558
   42MOL0     C 5445   0.019   5.661   6.541  0.1693 -0.2140 -0.1823
   42MOL0     C 5446  -0.000   5.632   6.673  0.0756 -0.2643  0.0405
   42MOL0     O 5447  -0.116   5.656   6.736  0.6388 -0.1443  0.4559
   42MOL0     C 5448  -0.236   5.671   6.658 -0.2702 -0.1057 -1.2152
   42MOL0     C 5449  -0.324   5.542   6.676 -0.1439  0.6420  0.3607
   42MOL0     C 5450  -0.473   5.569   6.669 -0.1902  0.2794  0.2052
   42MOL0     C 5451  -0.552   5.431   6.699 -0.0959 -0.4648  0.0417
   42MOL0     C 5452  -0.707   5.466   6.702 -0.2595  0.9707  0.0264
   42MOL0     C 5453  -0.793   5.342   6.742  0.2504  0.2727  0.8234
   42MOL0     C 5454  -0.767   5.212   6.660  0.1340  0.4843  0.0118
   42MOL0     C 5455  -0.863   5.106   6.688  0.7834 -0.1674  0.4886
   42MOL0    Cl 5456  -1.041   5.160   6.679 -0.3840 -0.2549 -0.3286
   42MOL0     C 5457   0.101   5.572   6.742 -0.5086 -0.4009  0.5342
   42MOL0     C 5458   0.221   5.541   6.682  0.3192  0.0261  0.4760
   42MOL0     O 5459   0.466   5.725   6.625 -0.7405 -0.0081  0.3814
   42MOL0     C 5460   0.725   5.699   6.527 -0.1470 -0.7414  0.3780
   42MOL0     C 5461   0.851   5.682   6.482  0.2242 -0.1213 -0.1677
   42MOL0     N 5462   1.524   5.587   6.168  0.2061  0.6212  0.2514
   42MOL0     N 5463   1.613   5.590   6.080 -0.5061  0.1776  0.2500
   42MOL0     C 5464   2.921   5.495   5.687 -0.7821  0.0238 -0.2840
   42MOL0     C 5465   3.065   5.514   5.711  0.5279  0.4973  0.0073
   42MOL0     C 5466   3.471   5.674   5.808 -0.1186 -0.4339  0.4405
   42MOL0     C 5467   3.589   5.657   5.733  0.7382 -0.7802  0.0033
   42MOL0     C 5468   3.713   5.702   5.791 -0.6607 -0.0798  0.3340
   42MOL0     C 5469   3.716   5.762   5.915 -0.6896 -0.1972  0.7940
   42MOL0     O 5470   3.838   5.806   5.954  0.5135 -0.4152  0.0619
   42MOL0     C 5471   3.847   5.940   6.001  0.1562  0.3831  0.3442
   42MOL0     C 5472   3.988   5.995   5.990  0.3054  0.3910  0.6235
   42MOL0     C 5473   4.027   6.056   5.854 -0.0259  0.0394  0.4701
   42MOL0     C 5474   4.028   5.947   5.738  0.1863 -0.5968 -0.3633
   42MOL0     C 5475   4.101   5.989   5.623  0.5859 -0.6274 -0.8317
   42MOL0     C 5476   4.161   5.995   5.518  0.4526  0.8039 -0.3301
   42MOL0     C 5477   3.595   5.796   5.978  0.3970 -0.0433 -0.3608
   42MOL0     C 5478   3.471   5.749   5.925 -0.0197 -0.4241  0.0967
   42MOL0     H 5479   3.059   5.720   5.968  0.8484  1.2967 -0.6077
   42MOL0     H 5480   2.805   5.702   5.922  0.0032  0.4500  1.2310
   42MOL0     H 5481   2.605   5.628   5.900  0.1094 -0.3442  0.6595
   42MOL0     H 5482   2.650   5.467   5.928  2.2926 -0.5590 -0.3957
   42MOL0     H 5483   2.496   5.386   5.765  1.0085  1.1433 -0.9600
   42MOL0     H 5484   2.435   5.548   5.717  1.0694 -0.3240 -1.8148
   42MOL0     H 5485   2.414   5.463   6.004  0.0178  0.6228  0.0076
   42MOL0     H 5486   2.293   5.426   5.870  0.4099  0.8294 -2.8582
   42MOL0     H 5487   2.400   5.703   5.954 -2.5087  3.8909 -0.4076
   42MOL0     H 5488   2.267   5.676   5.836  1.4667  1.3662  0.0127
   42MOL0     H 5489   2.184   5.747   6.052  3.1280 -0.4699 -0.5628
   42MOL0     H 5490   2.248   5.605   6.126 -0.5301 -0.3999 -0.0885
   42MOL0     H 5491   2.104   5.462   6.008  0.5815  0.4748  3.5463
   42MOL0     H 5492   2.057   5.575   5.880  0.4092 -2.0016 -0.1951
   42MOL0     H 5493   1.980   5.603   6.166 -4.3207 -1.6242  0.7555
   42MOL0     H 5494   1.918   5.704   6.027 -1.5996  0.5485  3.0820
   42MOL0     H 5495   1.876   5.401   6.030  0.1930  0.2586  1.6204
   42MOL0     H 5496   1.813   5.529   5.931  0.4847  0.3633 -0.3188
   42MOL0     H 5497   1.761   5.405   6.299  0.2999 -1.2499 -2.0154
   42MOL0     H 5498   1.579   5.512   6.500 -1.6807  0.4981  1.0887
   42MOL0     H 5499   1.474   5.400   6.413  1.3691  0.2297 -4.7309
   42MOL0     H 5500   1.400   5.691   6.390 -2.0070  1.5727  2.3784
   42MOL0     H 5501   1.389   5.609   6.546 -1.3761  0.5699 -0.5225
   42MOL0     H 5502   1.239   5.547   6.297 -2.1719  3.9757  1.2798
   42MOL0     H 5503   1.250   5.415   6.415 -3.0991 -0.9086 -1.4644
   42MOL0     H 5504   1.150   5.699   6.461  0.4988 -0.9188 -0.9322
   42MOL0     H 5505   1.131   5.560   6.572  2.9508  0.8266  0.2915
   42MOL0     H 5506   0.826   5.386   6.322  2.1712 -0.5861  1.3042
   42MOL0     H 5507   0.580   5.428   6.378 -0.6572  0.1092  1.2441
   42MOL0     H 5508   0.177   5.673   6.379  4.0689 -2.3330 -0.5222
   42MOL0     H 5509  -0.053   5.688   6.464  1.6589 -1.3251 -2.0513
   42MOL0     H 5510  -0.234   5.692   6.551 -0.6383  1.1027 -1.0024
   42MOL0     H 5511  -0.287   5.758   6.701  0.9615 -0.8324  2.0608
   42MOL0     H 5512  -0.312   5.504   6.778  1.0416 -0.8076 -0.2913
   42MOL0     H 5513  -0.303   5.469   6.598  0.6349  0.8038  0.4118
   42MOL0     H 5514  -0.507   5.597   6.569  3.6441 -0.5214 -1.4737
   42MOL0     H 5515  -0.501   5.647   6.741  3.9430  0.6373  1.6893
   42MOL0     H 5516  -0.527   5.359   6.620  0.1279  0.1736 -0.4771
   42MOL0     H 5517  -0.511   5.385   6.790 -0.0678  2.7485  1.8271
   42MOL0     H 5518  -0.741   5.501   6.604  2.7826  0.9549 -1.1349
   42MOL0     H 5519  -0.732   5.545   6.772 -4.3669 -0.5557  0.5547
   42MOL0     H 5520  -0.900   5.364   6.734  0.9009  3.2365 -1.2251
   42MOL0     H 5521  -0.768   5.332   6.848  1.5092  1.4590  0.6609
   42MOL0     H 5522  -0.776   5.234   6.553  2.0162  0.0236 -0.2869
   42MOL0     H 5523  -0.665   5.177   6.679 -0.3666  0.1848  2.4878
   42MOL0     H 5524  -0.847   5.057   6.784  1.6648 -0.2891  0.2828
   42MOL0     H 5525  -0.860   5.028   6.612  0.6724 -0.2368  0.5545
   42MOL0     H 5526   0.087   5.568   6.850 -0.3476  1.9115  0.6924
   42MOL0     H 5527   0.295   5.508   6.754 -0.6721  1.1338  2.0770
   42MOL0     H 5528   0.705   5.785   6.591  0.7199  0.5690 -1.0598
   42MOL0     H 5529   0.924   5.761   6.502 -0.9450  0.7512  0.8075
   42MOL0     H 5530   2.894   5.435   5.601 -0.5977 -0.5970  0.0848
   42MOL0     H 5531   3.140   5.477   5.642 -0.4566  2.0941 -2.0011
   42MOL0     H 5532   3.599   5.613   5.634  2.7548 -0.3756 -0.0292
   42MOL0     H 5533   3.806   5.681   5.741 -0.5959 -0.3583  0.5685
   42MOL0     H 5534   3.809   5.929   6.103  0.5718 -1.1053  0.3539
   42MOL0     H 5535   3.784   6.005   5.939  1.3368 -1.0274 -2.5342
   42MOL0     H 5536   3.993   6.082   6.055 -3.7544  1.2782  0.0243
   42MOL0     H 5537   4.072   5.930   6.014  1.2167  0.2926 -2.3954
   42MOL0     H 5538   4.128   6.097   5.865 -0.9819  1.9710  3.4912
   42MOL0     H 5539   3.959   6.132   5.816 -1.4462 -2.1372 -1.6124
   42MOL0     H 5540   4.085   5.860   5.772  0.7682 -0.7664 -1.6819
   42MOL0     H 5541   3.929   5.918   5.701 -0.9726 -2.1428  3.5015
   42MOL0     H 5542   4.208   5.984   5.423  0.1908 -0.5965 -0.3163
   42MOL0     H 5543   3.580   5.850   6.071  0.1254 -0.2064 -0.3103
   42MOL0     H 5544   3.374   5.773   5.967  0.8313  1.8669  0.8987
   43MOL0     O 5545   5.953   1.131   3.728 -0.4802 -0.3939  0.2988
   43MOL0     C 5546   5.982   1.101   3.843 -1.0751  0.3167  0.9413
   43MOL0     O 5547   5.937   0.987   3.909 -1.2119 -0.6210 -0.3252
   43MOL0     C 5548   5.848   0.909   3.838  0.7298 -0.4201  0.4066
   43MOL0     C 5549   5.878   0.775   3.803 -0.4650  0.2698  0.5326
   43MOL0     C 5550   5.784   0.691   3.746 -0.0556 -0.4868  0.1632
   43MOL0     C 5551   5.660   0.746   3.709  0.4484  0.3887 -0.0394
   43MOL0     O 5552   5.573   0.660   3.641 -0.3706  0.6325  0.1620
   43MOL0     C 5553   5.602   0.615   3.514 -0.6726 -0.5574 -0.4852
   43MOL0     C 5554   5.469   0.609   3.441 -0.6246  0.8510 -0.7758
   43MOL0     C 5555   5.497   0.531   3.309  0.1524  0.1229 -0.6542
   43MOL0     C 5556   5.379   0.551   3.207 -0.7665  0.2014 -0.7615
   43MOL0     C 5557   5.394   0.458   3.088 -0.3999  0.5198 -0.6893
   43MOL0     C 5558   5.296   0.497   2.979  0.7876 -0.0491 -0.9298
   43MOL0     C 5559   5.296   0.407   2.857  0.0177 -0.2137 -0.0717
   43MOL0     C 5560   5.187   0.443   2.750  0.8196 -0.8375  0.0569
   43MOL0     N 5561   5.226   0.568   2.683 -0.1461 -0.6334 -0.9234
   43MOL0     C 5562   5.313   0.572   2.583 -0.2348  0.3299  0.4782
   43MOL0     C 5563   5.325   0.702   2.558  0.8066 -0.3118 -0.2225
   43MOL0     C 5564   5.373   0.770   2.437  0.0237 -0.4571 -1.2182
   43MOL0     C 5565   5.521   0.761   2.414  0.2410 -0.0656  0.2907
   43MOL0     C 5566   5.543   0.828   2.281 -0.7729 -0.2221  0.8165
   43MOL0     C 5567   5.698   0.837   2.250 -0.1680 -0.5043 -0.4236
   43MOL0     O 5568   5.770   0.723   2.304 -0.0810  0.0841  0.5749
   43MOL0     C 5569   5.906   0.711   2.281 -0.8022 -0.0395 -0.4361
   43MOL0     C 5570   5.987   0.795   2.198  0.6432  0.5985 -0.1961
   43MOL0     C 5571   6.122   0.764   2.174  0.0230 -0.7666  0.5260
   43MOL0     C 5572   6.191   0.670   2.235 -0.6083 -0.1257  0.3583
   43MOL0     C 5573   6.331   0.654   2.222 -0.2514  0.2629  0.4818
   43MOL0     O 5574   6.412   0.756   2.185 -0.1026  0.6518  0.0518
   43MOL0     C 5575   6.532   0.713   2.140 -0.0203  0.2350  0.4106
   43MOL0     C 5576   6.548   0.664   2.012 -0.1928  0.3382  0.0341
   43MOL0     C 5577   6.679   0.635   1.966  0.0196  0.3623  0.7533
   43MOL0     C 5578   6.791   0.647   2.049 -0.7270  0.4061  0.0465
   43MOL0     O 5579   6.917   0.611   1.985 -0.1755 -0.7716  0.0126
   43MOL0     C 5580   7.030   0.671   2.032 -0.0011 -0.1682 -0.0909
   43MOL0     C 5581   7.144   0.596   1.968  0.1075 -0.2146 -0.6683
   43MOL0     C 5582   7.142   0.623   1.822 -0.5179 -0.6339  0.4716
   43MOL0     C 5583   7.237   0.536   1.735  0.9046 -0.4139  0.0577
   43MOL0     C 5584   7.372   0.595   1.727  0.3180 -0.7722 -0.1444
   43MOL0     C 5585   7.464   0.503   1.662 -0.0612  0.4445 -1.1221
   43MOL0     C 5586   7.605   0.561   1.677 -0.8157 -0.5151 -0.5019
   43MOL0     C 5587   7.630   0.690   1.593  0.4697 -0.4781 -0.3183
   43MOL0    Cl 5588   7.800   0.725   1.593 -0.1340  0.5676 -0.1819
   43MOL0     C 5589   6.768   0.704   2.176 -0.5637  0.5387 -0.3243
   43MOL0     C 5590   6.636   0.722   2.225 -0.3463 -0.1684  0.1757
   43MOL0     O 5591   6.380   0.546   2.255 -0.5004  0.0810  0.1483
   43MOL0     C 5592   6.117   0.579   2.305  0.0320  1.1370  0.1259
   43MOL0     C 5593   5.977   0.598   2.337  0.2317 -0.0507  0.3097
   43MOL0     N 5594   5.258   0.772   2.657 -0.4138 -0.1138  0.6743
   43MOL0     N 5595   5.211   0.692   2.732  0.6290  0.3556 -0.4533
   43MOL0     C 5596   5.623   0.884   3.746 -0.6094  0.1096  0.2877
   43MOL0     C 5597   5.721   0.963   3.809  0.4916 -0.4265  0.9586
   43MOL0     C 5598   6.089   1.194   3.904  0.6832 -0.1599  0.2488
   43MOL0     C 5599   6.091   1.218   4.041 -0.2934 -1.1366  0.0191
   43MOL0     C 5600   6.169   1.316   4.093 -0.3394 -0.5264 -0.2062
   43MOL0     C 5601   6.239   1.418   4.017 -0.0234 -0.3221 -0.3706
   43MOL0     O 5602   6.323   1.511   4.075 -0.0362  0.6255 -1.5949
   43MOL0     C 5603   6.335   1.518   4.227  0.2249  0.2065 -0.5857
   43MOL0     C 5604   6.431   1.634   4.243 -0.4226  0.1198 -0.1552
   43MOL0     C 5605   6.485   1.623   4.381  0.4934  0.3309 -0.2811
   43MOL0     C 5606   6.595   1.733   4.427  0.7448 -0.1246  0.0206
   43MOL0     C 5607   6.699   1.745   4.329  0.3471  0.3981  0.7969
   43MOL0     C 5608   6.772   1.750   4.231  0.5183 -0.5742  0.2133
   43MOL0     C 5609   6.236   1.398   3.881 -0.6839  0.8925  0.0742
   43MOL0     C 5610   6.165   1.284   3.820  0.2172  0.1888 -0.4767
   43MOL0     H 5611   5.976   0.746   3.840 -1.5792 -2.6833  1.4574
   43MOL0     H 5612   5.809   0.586   3.731 -2.7092 -0.8558 -2.6413
   43MOL0     H 5613   5.667   0.528   3.524  2.2342  1.1716 -2.7587
   43MOL0     H 5614   5.656   0.690   3.457  0.0606 -0.0998  0.7780
   43MOL0     H 5615   5.434   0.710   3.418  0.3370  0.8350 -2.4913
   43MOL0     H 5616   5.392   0.555   3.497 -1.3829  1.0871 -1.5698
   43MOL0     H 5617   5.503   0.423   3.325  1.2015  0.1111 -1.0773
   43MOL0     H 5618   5.593   0.562   3.268 -0.7841  3.3324 -0.7038
   43MOL0     H 5619   5.284   0.532   3.258 -1.5469  0.3321 -2.1117
   43MOL0     H 5620   5.373   0.656   3.177 -1.5297  0.0508 -1.1559
   43MOL0     H 5621   5.376   0.356   3.124 -0.9103  1.4026  1.7773
   43MOL0     H 5622   5.497   0.454   3.053 -0.1420 -0.3991  0.1472
   43MOL0     H 5623   5.310   0.601   2.949 -1.5182  1.3233  2.1165
   43MOL0     H 5624   5.197   0.506   3.026  0.1211  1.0308 -2.4632
   43MOL0     H 5625   5.389   0.413   2.800 -1.1128 -1.8189 -2.1948
   43MOL0     H 5626   5.277   0.304   2.887 -1.0822 -0.0623 -0.2098
   43MOL0     H 5627   5.100   0.467   2.811  1.2066  1.1209 -0.1116
   43MOL0     H 5628   5.180   0.359   2.680  2.0200  0.1091 -1.2561
   43MOL0     H 5629   5.345   0.483   2.529  0.2462 -0.0488  1.3744
   43MOL0     H 5630   5.339   0.874   2.435  0.9466 -0.0684  0.8713
   43MOL0     H 5631   5.328   0.707   2.359 -0.0756 -1.3202 -0.4806
   43MOL0     H 5632   5.553   0.657   2.398 -1.0445 -0.8229  2.2779
   43MOL0     H 5633   5.593   0.798   2.487  1.3762 -0.3710 -0.6460
   43MOL0     H 5634   5.488   0.766   2.209 -1.6235 -0.7420  1.8822
   43MOL0     H 5635   5.514   0.933   2.279  0.7108  0.2658  2.3847
   43MOL0     H 5636   5.736   0.925   2.303 -1.3762  0.6801 -1.4557
   43MOL0     H 5637   5.726   0.852   2.146  1.0886  2.5111  0.2486
   43MOL0     H 5638   5.942   0.881   2.149  2.3160  2.2005  0.9332
   43MOL0     H 5639   6.175   0.839   2.116 -1.2602  0.4094  0.8276
   43MOL0     H 5640   6.458   0.644   1.954 -0.8680 -0.6647  1.3844
   43MOL0     H 5641   6.700   0.592   1.869  0.7402  0.7073  0.7520
   43MOL0     H 5642   7.038   0.664   2.141 -0.4999 -1.7862 -0.1217
   43MOL0     H 5643   7.037   0.776   2.004 -0.3949  0.1620  0.9807
   43MOL0     H 5644   7.145   0.487   1.983  0.9562 -0.1034  0.2696
   43MOL0     H 5645   7.234   0.643   2.010 -0.5262 -1.1197  1.9149
   43MOL0     H 5646   7.158   0.730   1.805 -0.3174 -0.8210 -0.5973
   43MOL0     H 5647   7.041   0.612   1.783  0.0695 -0.8019 -1.0699
   43MOL0     H 5648   7.244   0.432   1.770  2.0194 -1.7293 -3.6140
   43MOL0     H 5649   7.203   0.532   1.631  1.1337 -0.4179 -0.0169
   43MOL0     H 5650   7.408   0.617   1.828  0.6029  3.2986 -0.9467
   43MOL0     H 5651   7.362   0.694   1.682  3.7444 -0.4533 -0.4501
   43MOL0     H 5652   7.430   0.492   1.559 -1.1839  1.1316 -0.8389
   43MOL0     H 5653   7.457   0.406   1.712 -0.9165  0.9995 -0.1374
   43MOL0     H 5654   7.623   0.577   1.784 -3.4521 -0.7040  0.0396
   43MOL0     H 5655   7.675   0.486   1.638  3.3581  3.7068 -2.0641
   43MOL0     H 5656   7.574   0.775   1.634  0.8588  0.6890 -2.0898
   43MOL0     H 5657   7.597   0.672   1.490 -2.1166  0.7745  0.2057
   43MOL0     H 5658   6.852   0.708   2.244  0.0265  1.7262 -1.0911
   43MOL0     H 5659   6.621   0.741   2.330  0.7100 -1.2501  0.5541
   43MOL0     H 5660   6.161   0.496   2.359 -2.0087 -2.1661 -2.8966
   43MOL0     H 5661   5.913   0.523   2.382  0.2758 -0.1789  0.1576
   43MOL0     H 5662   5.522   0.917   3.725 -1.1260 -0.0099  2.3533
   43MOL0     H 5663   5.696   1.061   3.847 -0.7664 -0.5337  0.4706
   43MOL0     H 5664   6.019   1.165   4.104 -1.6697  1.7907  1.0821
   43MOL0     H 5665   6.168   1.326   4.202  1.7266 -0.5844 -0.1402
   43MOL0     H 5666   6.390   1.429   4.258  1.6374  1.5457  0.8603
   43MOL0     H 5667   6.243   1.527   4.285  0.1224  0.6180 -0.8045
   43MOL0     H 5668   6.516   1.634   4.174  1.4783  2.1726  2.0331
   43MOL0     H 5669   6.378   1.730   4.239  0.7690  0.7456 -2.0127
   43MOL0     H 5670   6.527   1.522   4.392  0.2239  0.1264 -1.0671
   43MOL0     H 5671   6.405   1.629   4.455  1.0148 -0.4327  0.3741
   43MOL0     H 5672   6.540   1.826   4.443 -0.6845 -0.9339 -0.0454
   43MOL0     H 5673   6.639   1.716   4.526  1.3981 -0.1934 -0.2768
   43MOL0     H 5674   6.826   1.744   4.139  2.6393  0.4322  1.3038
   43MOL0     H 5675   6.299   1.457   3.816 -1.2051  0.2186 -1.0808
   43MOL0     H 5676   6.167   1.258   3.715 -0.7292 -2.6222  0.0987
   44MOL0     O 5677   7.370   2.120   2.485  0.0571  0.2498 -0.2087
   44MOL0     C 5678   7.437   2.020   2.503  0.0308  0.9661 -0.4065
   44MOL0     O 5679   7.372   1.898   2.518  0.3135 -0.7502 -0.3519
   44MOL0     C 5680   7.242   1.896   2.489  0.0828  0.0565  0.2658
   44MOL0     C 5681   7.150   1.949   2.573 -0.8445  1.1892 -0.7115
   44MOL0     C 5682   7.011   1.932   2.553 -0.4260 -0.2708  0.0768
   44MOL0     C 5683   6.964   1.859   2.439 -0.5999 -0.2472 -0.2490
   44MOL0     O 5684   6.828   1.849   2.421  0.1337 -0.2250 -0.1370
   44MOL0     C 5685   6.733   1.942   2.468 -0.9373  0.1716 -0.1604
   44MOL0     C 5686   6.610   1.919   2.386  0.8253  0.7234 -0.1181
   44MOL0     C 5687   6.484   1.981   2.435 -1.0741  0.1499 -0.3708
   44MOL0     C 5688   6.357   1.925   2.380  0.5454  0.2057 -0.0815
   44MOL0     C 5689   6.233   2.024   2.412 -0.4451  0.0702  0.6650
   44MOL0     C 5690   6.213   2.134   2.306 -0.4470  0.4317  0.1864
   44MOL0     C 5691   6.155   2.073   2.180  0.4703  0.6547 -0.2770
   44MOL0     C 5692   6.128   2.173   2.068 -0.1322 -0.2331 -0.7356
   44MOL0     N 5693   5.998   2.239   2.069  0.1011 -0.0219 -0.2566
   44MOL0     C 5694   5.938   2.326   2.160 -0.4421 -0.5155 -0.7959
   44MOL0     C 5695   5.822   2.365   2.109 -0.3386  0.3872  0.4490
   44MOL0     C 5696   5.718   2.443   2.168 -0.4967 -0.5252  0.6972
   44MOL0     C 5697   5.574   2.399   2.149 -0.0890  0.3591  0.2768
   44MOL0     C 5698   5.483   2.500   2.204  0.7767  0.4030 -0.7680
   44MOL0     C 5699   5.342   2.442   2.209 -0.4440 -0.0081  0.3350
   44MOL0     O 5700   5.338   2.331   2.297 -0.6993 -0.4103 -0.7577
   44MOL0     C 5701   5.222   2.283   2.350  0.0453  0.5008  0.2109
   44MOL0     C 5702   5.233   2.168   2.435  0.0880 -0.0065 -0.7370
   44MOL0     C 5703   5.124   2.107   2.494  1.0546 -0.4996  0.0667
   44MOL0     C 5704   4.994   2.150   2.461 -0.3122  0.0302  0.0175
   44MOL0     C 5705   4.866   2.091   2.523 -0.4369 -0.4127  1.0517
   44MOL0     O 5706   4.753   2.169   2.506  0.4041 -0.2427  0.0002
   44MOL0     C 5707   4.633   2.125   2.558  0.3012  0.3675 -0.3262
   44MOL0     C 5708   4.600   2.109   2.695 -0.5981 -0.5191  0.0207
   44MOL0     C 5709   4.483   2.041   2.736  0.4545  0.7122 -0.0892
   44MOL0     C 5710   4.384   2.004   2.644  0.5082  0.3876 -0.2749
   44MOL0     O 5711   4.263   1.945   2.669 -0.0492  0.0841  0.3170
   44MOL0     C 5712   4.202   1.955   2.795 -0.2869  0.6820 -0.4695
   44MOL0     C 5713   4.049   1.950   2.783  0.1102 -0.0485 -0.9528
   44MOL0     C 5714   3.997   1.809   2.816 -0.1707 -0.7012  0.3710
   44MOL0     C 5715   3.847   1.808   2.834 -1.0072  0.0374 -0.2805
   44MOL0     C 5716   3.777   1.789   2.697  0.9528 -0.2722 -0.1540
   44MOL0     C 5717   3.624   1.786   2.713 -0.3398  0.3459  0.6954
   44MOL0     C 5718   3.557   1.801   2.580 -0.3684  0.0086  0.4385
   44MOL0     C 5719   3.404   1.798   2.583  0.0258  0.3118  1.0854
   44MOL0    Cl 5720   3.316   1.840   2.420  0.2663  0.1402  0.2264
   44MOL0     C 5721   4.413   2.029   2.509  0.3185 -0.0722  0.4762
   44MOL0     C 5722   4.527   2.096   2.468  0.1551  0.0812 -0.0884
   44MOL0     O 5723   4.874   1.986   2.587  0.1086 -0.2437 -0.5443
   44MOL0     C 5724   4.978   2.263   2.372 -0.2096 -0.4356  0.2220
   44MOL0     C 5725   5.094   2.324   2.317  0.7561 -0.0303 -0.6630
   44MOL0     N 5726   5.803   2.290   1.992  0.2365  0.5210  0.5019
   44MOL0     N 5727   5.904   2.233   1.968 -0.5035  0.8620 -0.1534
   44MOL0     C 5728   7.059   1.824   2.339 -0.0138  0.1627 -0.6585
   44MOL0     C 5729   7.198   1.837   2.368 -0.9426  0.0175 -0.5032
   44MOL0     C 5730   7.582   2.032   2.526  0.1037  1.1989 -0.2850
   44MOL0     C 5731   7.653   2.152   2.512 -0.0548 -0.9005 -0.6164
   44MOL0     C 5732   7.779   2.163   2.556 -1.4366 -0.1235 -0.6105
   44MOL0     C 5733   7.848   2.050   2.607  0.5416  0.5297  0.5239
   44MOL0     O 5734   7.986   2.075   2.643 -0.1578  0.4174  0.3916
   44MOL0     C 5735   8.063   1.956   2.692  0.8457 -0.1933 -0.1233
   44MOL0     C 5736   8.147   1.900   2.579  0.6340  0.4945 -1.4259
   44MOL0     C 5737   8.171   1.743   2.601  0.4156 -0.6535  0.0740
   44MOL0     C 5738   8.251   1.718   2.728 -0.0761 -0.0092  1.2440
   44MOL0     C 5739   8.381   1.777   2.738 -0.3918 -0.1958  0.0387
   44MOL0     C 5740   8.487   1.829   2.749  0.2846 -0.2926  0.1491
   44MOL0     C 5741   7.785   1.919   2.593 -0.2702 -0.2875 -0.0348
   44MOL0     C 5742   7.652   1.917   2.561 -0.0463  0.3810 -0.6307
   44MOL0     H 5743   7.182   2.011   2.656 -1.3013  1.6324 -0.8634
   44MOL0     H 5744   6.939   1.974   2.623 -0.0567  1.4297 -0.5036
   44MOL0     H 5745   6.761   2.047   2.457  0.6970 -0.2866 -0.7180
   44MOL0     H 5746   6.714   1.917   2.573  0.3679  1.7962  0.5269
   44MOL0     H 5747   6.597   1.811   2.390  0.9107  0.7308  0.3804
   44MOL0     H 5748   6.635   1.944   2.282  0.5658  1.1392 -0.0834
   44MOL0     H 5749   6.494   2.084   2.399  3.9059  0.0847  0.1803
   44MOL0     H 5750   6.474   1.978   2.544 -1.2139  2.7798 -0.2576
   44MOL0     H 5751   6.372   1.903   2.274  2.3662 -2.1431  0.5771
   44MOL0     H 5752   6.341   1.831   2.434  0.4354  0.1927 -0.1367
   44MOL0     H 5753   6.254   2.072   2.508  2.5949 -0.2340  0.2407
   44MOL0     H 5754   6.144   1.960   2.411  0.4438 -1.2358 -1.3570
   44MOL0     H 5755   6.314   2.175   2.296  0.1755 -1.1993 -0.4172
   44MOL0     H 5756   6.145   2.207   2.352 -2.0599 -0.4234 -0.7183
   44MOL0     H 5757   6.217   1.996   2.133 -0.1815 -0.3572  0.4875
   44MOL0     H 5758   6.063   2.019   2.204  1.3485 -1.1720 -0.8434
   44MOL0     H 5759   6.141   2.122   1.972  3.7271 -0.0126 -0.4785
   44MOL0     H 5760   6.200   2.255   2.067  1.4379 -1.5506  0.1917
   44MOL0     H 5761   5.982   2.360   2.253  1.7278  3.6311 -3.0788
   44MOL0     H 5762   5.728   2.546   2.130  2.0124 -0.9563  0.0543
   44MOL0     H 5763   5.733   2.447   2.276 -2.6358 -2.6658  1.1682
   44MOL0     H 5764   5.571   2.304   2.202 -0.6391 -0.1356 -0.6370
   44MOL0     H 5765   5.547   2.385   2.044 -1.5479  1.2896  0.4919
   44MOL0     H 5766   5.515   2.526   2.305 -1.3189 -2.0338  0.6270
   44MOL0     H 5767   5.474   2.597   2.153  0.4674  0.7905 -0.0048
   44MOL0     H 5768   5.319   2.412   2.106  2.5100 -0.6372 -0.2360
   44MOL0     H 5769   5.282   2.526   2.245  0.2464  0.0053  1.4990
   44MOL0     H 5770   5.330   2.122   2.452 -2.1078 -3.9114  3.2876
   44MOL0     H 5771   5.135   2.022   2.561 -0.5720 -1.2237 -0.5299
   44MOL0     H 5772   4.667   2.129   2.779 -1.3105 -1.0348  0.7209
   44MOL0     H 5773   4.480   2.019   2.842  2.0018  1.6233  0.1752
   44MOL0     H 5774   4.229   2.052   2.839 -3.7164  2.2049 -1.3108
   44MOL0     H 5775   4.232   1.868   2.853 -0.2238 -0.1348 -1.6938
   44MOL0     H 5776   4.036   1.954   2.674  0.4861  1.9729 -0.9496
   44MOL0     H 5777   3.992   2.024   2.839  0.4562 -0.7320  0.3317
   44MOL0     H 5778   4.044   1.778   2.910  0.8803 -3.2844 -0.8776
   44MOL0     H 5779   4.025   1.740   2.735 -0.9934  0.5203 -1.0059
   44MOL0     H 5780   3.824   1.724   2.900  0.9673  0.6706  1.3127
   44MOL0     H 5781   3.814   1.899   2.883 -1.7130  1.2528 -2.8147
   44MOL0     H 5782   3.824   1.707   2.643 -0.0302 -1.7629  1.1689
   44MOL0     H 5783   3.802   1.877   2.638  1.2935 -0.7047 -0.6589
   44MOL0     H 5784   3.595   1.868   2.779 -1.8193 -0.6241  1.3058
   44MOL0     H 5785   3.605   1.692   2.765  0.3299 -0.9071 -1.2326
   44MOL0     H 5786   3.582   1.898   2.535 -0.0081 -1.1980 -2.1613
   44MOL0     H 5787   3.583   1.724   2.506 -0.0882 -1.8924  2.4214
   44MOL0     H 5788   3.373   1.869   2.660  2.8240 -0.1747  2.8127
   44MOL0     H 5789   3.371   1.697   2.611  0.5401  0.1204  0.9998
   44MOL0     H 5790   4.342   2.009   2.430  0.0296  0.2789  0.6426
   44MOL0     H 5791   4.528   2.118   2.362 -3.1226  2.9567  0.3075
   44MOL0     H 5792   4.877   2.288   2.343  0.3084  0.2172 -1.0762
   44MOL0     H 5793   5.078   2.409   2.252  0.5054  0.2272 -0.2690
   44MOL0     H 5794   7.033   1.773   2.246 -1.3401 -0.8538  0.2222
   44MOL0     H 5795   7.265   1.795   2.294  0.3552 -0.4811  0.9252
   44MOL0     H 5796   7.602   2.227   2.452 -1.1511 -3.4233 -3.0576
   44MOL0     H 5797   7.836   2.255   2.549 -1.6844  0.0106 -0.9112
   44MOL0     H 5798   7.998   1.885   2.744  0.7041 -0.8584 -1.1904
   44MOL0     H 5799   8.137   1.982   2.768 -1.2457 -1.2117  2.4198
   44MOL0     H 5800   8.098   1.913   2.482 -0.2235 -1.6969 -1.3384
   44MOL0     H 5801   8.244   1.951   2.575  2.5797 -2.6667  0.7209
   44MOL0     H 5802   8.227   1.710   2.513 -2.1288 -0.8147 -1.5957
   44MOL0     H 5803   8.077   1.687   2.604 -1.3303  2.0599 -0.5342
   44MOL0     H 5804   8.191   1.742   2.817  0.0759  0.0592  1.3276
   44MOL0     H 5805   8.270   1.611   2.725 -1.4898 -0.2737  0.8942
   44MOL0     H 5806   8.587   1.868   2.750  1.0793 -2.2195  0.7965
   44MOL0     H 5807   7.843   1.830   2.611 -0.1013 -0.7569 -2.5224
   44MOL0     H 5808   7.608   1.818   2.568  1.5090 -0.2648  0.8727
   45MOL0     O 5809   0.943   0.287   8.838 -0.6961 -0.4736  0.3208
   45MOL0     C 5810   0.824   0.267   8.863  0.1967 -0.3771 -0.0061
   45MOL0     O 5811   0.756   0.155   8.861  0.6376 -0.0386  0.3442
   45MOL0     C 5812   0.816   0.043   8.802 -0.2106 -0.9871  0.2128
   45MOL0     C 5813   0.752  -0.071   8.841  0.2947  0.1225 -0.1217
   45MOL0     C 5814   0.785  -0.197   8.799 -0.2842  0.2437 -0.5959
   45MOL0     C 5815   0.889  -0.206   8.705 -0.5121 -0.8006  0.0196
   45MOL0     O 5816   0.932  -0.329   8.664 -0.0793  0.7276 -0.0292
   45MOL0     C 5817   0.862  -0.445   8.710 -0.5017  0.0455  0.1220
   45MOL0     C 5818   0.916  -0.579   8.655 -0.4726 -0.6099  0.6342
   45MOL0     C 5819   1.036  -0.617   8.735 -0.4150  0.4256 -0.2814
   45MOL0     C 5820   1.117  -0.733   8.682 -0.0666  0.7615  0.1965
   45MOL0     C 5821   1.240  -0.774   8.761  0.2120 -0.1522  0.0527
   45MOL0     C 5822   1.219  -0.804   8.899 -0.5220 -0.0948 -0.3999
   45MOL0     C 5823   1.150  -0.928   8.942  0.3663 -0.1305  0.0876
   45MOL0     C 5824   1.178  -0.970   9.093  0.5194 -1.1028 -0.0369
   45MOL0     N 5825   1.093  -1.076   9.150 -0.7544 -0.2371 -0.1163
   45MOL0     C 5826   1.102  -1.135   9.269  0.1674 -1.1890 -0.1447
   45MOL0     C 5827   1.014  -1.234   9.280  0.6464  0.0380  1.3157
   45MOL0     C 5828   0.966  -1.310   9.397 -0.1868 -0.4821  0.8857
   45MOL0     C 5829   0.811  -1.304   9.412  0.0382  0.8034  0.0901
   45MOL0     C 5830   0.751  -1.167   9.449 -0.2329 -0.2206 -0.2127
   45MOL0     C 5831   0.615  -1.166   9.522 -0.2149 -0.0304 -0.1043
   45MOL0     O 5832   0.507  -1.234   9.456 -0.0081 -0.5921 -0.2584
   45MOL0     C 5833   0.382  -1.209   9.493 -0.2189 -0.1804  0.0416
   45MOL0     C 5834   0.342  -1.157   9.621  0.1365 -0.8318  0.8178
   45MOL0     C 5835   0.212  -1.121   9.651 -0.0818 -0.4150 -0.1589
   45MOL0     C 5836   0.112  -1.137   9.548  0.1507 -0.0992 -0.7609
   45MOL0     C 5837  -0.021  -1.075   9.566 -0.4279  0.9796  0.5010
   45MOL0     O 5838  -0.093  -1.042   9.449 -0.5706 -0.9915  0.0564
   45MOL0     C 5839  -0.216  -0.987   9.467 -0.0502 -0.0064 -0.2775
   45MOL0     C 5840  -0.244  -0.868   9.392 -0.0707 -0.0755  0.1310
   45MOL0     C 5841  -0.380  -0.828   9.374  0.6161 -0.2176  0.7853
   45MOL0     C 5842  -0.479  -0.901   9.443  0.3510  0.0903 -0.2194
   45MOL0     O 5843  -0.611  -0.863   9.415 -0.2325 -1.0304 -0.6871
   45MOL0     C 5844  -0.712  -0.885   9.512 -0.1439 -0.0457 -0.3438
   45MOL0     C 5845  -0.834  -0.812   9.463 -0.5468  0.0565  0.5011
   45MOL0     C 5846  -0.960  -0.862   9.533 -0.5922  0.2806  0.6720
   45MOL0     C 5847  -1.081  -0.768   9.504  0.5161 -0.4723  0.4426
   45MOL0     C 5848  -1.194  -0.850   9.452 -0.3778  0.6364 -0.0196
   45MOL0     C 5849  -1.296  -0.764   9.378 -0.4843 -0.7516 -0.8282
   45MOL0     C 5850  -1.406  -0.851   9.315  0.3595 -0.0683  0.9542
   45MOL0     C 5851  -1.532  -0.774   9.304 -0.5789  0.4802  1.0089
   45MOL0    Cl 5852  -1.507  -0.624   9.205  0.5845  0.0815 -0.4020
   45MOL0     C 5853  -0.449  -1.022   9.509 -0.8228 -0.0615 -0.0354
   45MOL0     C 5854  -0.313  -1.068   9.510  0.3485  1.0758  0.2187
   45MOL0     O 5855  -0.054  -1.047   9.681 -0.1544 -0.5338 -0.7397
   45MOL0     C 5856   0.146  -1.208   9.432 -0.3723  0.5946  0.2521
   45MOL0     C 5857   0.280  -1.234   9.406  0.4283  0.0783  0.8729
   45MOL0     N 5858   0.954  -1.242   9.150  0.3505  0.0127 -0.9595
   45MOL0     N 5859   1.002  -1.144   9.079 -0.0553 -0.0958 -0.9163
   45MOL0     C 5860   0.957  -0.098   8.669 -0.2241 -0.0341  0.6948
   45MOL0     C 5861   0.922   0.028   8.711  0.7096 -0.5076  0.3207
   45MOL0     C 5862   0.753   0.396   8.911 -0.0994  0.4174 -0.2133
   45MOL0     C 5863   0.621   0.385   8.965 -0.3964  0.1196 -0.8653
   45MOL0     C 5864   0.552   0.496   9.011 -0.5998  0.5402 -0.4865
   45MOL0     C 5865   0.605   0.627   8.996  0.2363  0.4620 -0.7129
   45MOL0     O 5866   0.532   0.733   9.042  0.7671  0.0998  0.2872
   45MOL0     C 5867   0.481   0.820   8.942 -0.4782 -0.7724 -0.2476
   45MOL0     C 5868   0.547   0.962   8.931  0.0492  0.2338 -0.4870
   45MOL0     C 5869   0.639   0.978   8.813  0.1388  0.0048  0.2458
   45MOL0     C 5870   0.565   0.962   8.672  0.1688  0.6377 -1.3136
   45MOL0     C 5871   0.466   1.075   8.643 -0.2797 -0.4039  0.1675
   45MOL0     C 5872   0.396   1.168   8.606  0.0576  0.3634  0.2210
   45MOL0     C 5873   0.734   0.645   8.943 -0.0405 -0.4055 -0.1527
   45MOL0     C 5874   0.807   0.530   8.902 -0.9072  0.1465 -0.0139
   45MOL0     H 5875   0.672  -0.064   8.914 -1.7934 -1.1960 -2.1703
   45MOL0     H 5876   0.734  -0.278   8.850  2.5981 -0.8450  0.7730
   45MOL0     H 5877   0.756  -0.433   8.684 -1.2894  0.6484  3.2709
   45MOL0     H 5878   0.860  -0.446   8.819  1.7305  1.7309  0.2477
   45MOL0     H 5879   0.939  -0.571   8.548 -0.9394  1.0859  0.6347
   45MOL0     H 5880   0.838  -0.655   8.660 -0.1195 -1.4162 -3.0450
   45MOL0     H 5881   1.012  -0.632   8.840  1.7019  2.8555  0.6697
   45MOL0     H 5882   1.099  -0.528   8.744 -1.8846  1.5122 -0.4829
   45MOL0     H 5883   1.051  -0.817   8.662  1.2536 -0.7672  1.9938
   45MOL0     H 5884   1.155  -0.687   8.589 -0.2036  1.1027  0.3064
   45MOL0     H 5885   1.302  -0.684   8.759  1.5824 -0.9070  2.9669
   45MOL0     H 5886   1.290  -0.857   8.711  0.3733  0.3213 -0.5741
   45MOL0     H 5887   1.170  -0.724   8.955  0.2903 -1.2640  2.1902
   45MOL0     H 5888   1.320  -0.813   8.940 -0.3869 -0.2521 -0.7628
   45MOL0     H 5889   1.044  -0.909   8.924  0.3928  1.8138  1.7071
   45MOL0     H 5890   1.171  -1.017   8.881 -2.5280 -0.0955 -1.0970
   45MOL0     H 5891   1.168  -0.876   9.146 -1.2684  0.0843 -2.2941
   45MOL0     H 5892   1.283  -1.000   9.097  0.1823 -3.0638 -2.9219
   45MOL0     H 5893   1.161  -1.104   9.355  1.7099 -0.1869 -1.4995
   45MOL0     H 5894   1.009  -1.266   9.487  0.5603  1.5961 -0.4069
   45MOL0     H 5895   1.007  -1.411   9.388  0.3937 -0.0778 -3.5395
   45MOL0     H 5896   0.781  -1.365   9.497 -0.4000  2.6830  1.3346
   45MOL0     H 5897   0.767  -1.337   9.317  1.8245 -0.5218 -0.3290
   45MOL0     H 5898   0.815  -1.114   9.520 -0.6296 -1.7125  1.3478
   45MOL0     H 5899   0.745  -1.103   9.361 -0.7430  0.7226  0.4935
   45MOL0     H 5900   0.587  -1.062   9.538 -0.1629 -0.1589  0.9277
   45MOL0     H 5901   0.642  -1.211   9.619  1.3840 -0.0900 -0.5393
   45MOL0     H 5902   0.404  -1.137   9.708 -0.4895 -0.1048  1.1091
   45MOL0     H 5903   0.205  -1.078   9.750  2.4299  0.1813 -0.1741
   45MOL0     H 5904  -0.168  -0.821   9.331 -1.5417 -0.7025 -2.3237
   45MOL0     H 5905  -0.412  -0.744   9.312 -1.0467 -0.4055  1.3485
   45MOL0     H 5906  -0.690  -0.846   9.612 -2.6096 -0.7358  0.5546
   45MOL0     H 5907  -0.736  -0.991   9.519  1.3505 -0.2834  2.2587
   45MOL0     H 5908  -0.847  -0.812   9.355  0.0505  1.3244  0.4137
   45MOL0     H 5909  -0.809  -0.710   9.495  0.0253 -0.0238  0.3207
   45MOL0     H 5910  -0.946  -0.862   9.642  0.3075 -0.1542  0.5677
   45MOL0     H 5911  -0.983  -0.965   9.505 -0.2477  0.3239  0.2240
   45MOL0     H 5912  -1.116  -0.705   9.587  0.3284  0.6828 -0.4831
   45MOL0     H 5913  -1.046  -0.706   9.421  1.8850 -0.6238  0.8841
   45MOL0     H 5914  -1.245  -0.895   9.537  1.5851 -1.3009  0.2124
   45MOL0     H 5915  -1.161  -0.933   9.388 -1.8712  2.4681 -3.4252
   45MOL0     H 5916  -1.245  -0.703   9.302  1.9483 -0.3202  1.0492
   45MOL0     H 5917  -1.345  -0.698   9.449 -1.1592 -3.0750  0.9827
   45MOL0     H 5918  -1.378  -0.890   9.216 -2.8685  0.0540 -0.1217
   45MOL0     H 5919  -1.430  -0.935   9.381  2.1437 -1.3757  0.0451
   45MOL0     H 5920  -1.574  -0.758   9.403  0.6826 -3.0255  2.2863
   45MOL0     H 5921  -1.602  -0.841   9.251 -0.7616 -0.4115  2.3231
   45MOL0     H 5922  -0.522  -1.088   9.555 -2.1470  1.5479  0.2880
   45MOL0     H 5923  -0.297  -1.168   9.550 -1.8428 -0.6990 -2.8920
   45MOL0     H 5924   0.079  -1.241   9.352  1.2835 -0.7416 -0.6586
   45MOL0     H 5925   0.299  -1.288   9.313 -4.3510  0.2492 -0.4684
   45MOL0     H 5926   1.049  -0.109   8.613  1.4915 -0.4488  3.4117
   45MOL0     H 5927   0.966   0.114   8.662 -2.6635  0.3831 -1.4343
   45MOL0     H 5928   0.569   0.289   8.963 -0.8173  0.2248  1.4590
   45MOL0     H 5929   0.454   0.486   9.056 -0.6744  0.9926 -0.5512
   45MOL0     H 5930   0.375   0.827   8.967  0.1274  1.3542  2.0624
   45MOL0     H 5931   0.511   0.775   8.847  1.1538 -1.5227  0.5871
   45MOL0     H 5932   0.471   1.039   8.913  0.4697 -0.0567 -4.3938
   45MOL0     H 5933   0.603   0.989   9.021  0.4389 -1.9763 -0.0206
   45MOL0     H 5934   0.706   0.892   8.828 -0.6118 -0.9538 -1.5591
   45MOL0     H 5935   0.686   1.074   8.835  0.2831  0.2188 -0.9335
   45MOL0     H 5936   0.629   0.975   8.584 -0.6303  2.2145 -1.7110
   45MOL0     H 5937   0.520   0.863   8.667 -2.9241  1.9584 -1.8698
   45MOL0     H 5938   0.328   1.234   8.557 -1.0536  0.1100  1.3769
   45MOL0     H 5939   0.786   0.740   8.935 -1.8569  0.8157  1.7216
   45MOL0     H 5940   0.911   0.544   8.875 -0.0030 -1.8758  2.0325
   46MOL0     O 5941   2.739   8.334   9.095 -0.4254 -0.4458 -0.0500
   46MOL0     C 5942   2.620   8.358   9.076 -0.1033 -0.1460 -0.5664
   46MOL0     O 5943   2.569   8.447   8.993 -0.0106 -0.3643  0.5069
   46MOL0     C 5944   2.649   8.512   8.899 -0.4533  0.3155  0.6612
   46MOL0     C 5945   2.672   8.445   8.782 -0.3657 -1.1644  0.9085
   46MOL0     C 5946   2.739   8.503   8.676  0.5704 -0.0958  0.1509
   46MOL0     C 5947   2.808   8.624   8.694  0.0522 -0.0754 -0.3104
   46MOL0     O 5948   2.875   8.670   8.585  0.3646 -1.2378  0.2484
   46MOL0     C 5949   2.914   8.809   8.583 -0.6162  0.0423  0.2065
   46MOL0     C 5950   2.972   8.841   8.441  0.0351 -0.7105  0.6541
   46MOL0     C 5951   2.870   8.920   8.359 -0.2345  0.1527 -0.0317
   46MOL0     C 5952   2.859   9.068   8.414  0.3082  0.0592 -0.7219
   46MOL0     C 5953   2.841   9.175   8.298  0.0706 -0.1722 -0.0617
   46MOL0     C 5954   2.805   9.310   8.364 -0.0431 -0.5926  0.9108
   46MOL0     C 5955   2.798   9.422   8.254  0.1509  0.7416  0.2507
   46MOL0     C 5956   2.790   9.551   8.329  0.5210 -0.5910  0.2081
   46MOL0     N 5957   2.661   9.573   8.407  0.3739  0.8030 -0.7533
   46MOL0     C 5958   2.538   9.556   8.355 -0.0114 -0.2895 -0.8791
   46MOL0     C 5959   2.449   9.599   8.445 -0.4347 -0.3526  0.4724
   46MOL0     C 5960   2.302   9.586   8.433  0.2887  0.3057  0.3387
   46MOL0     C 5961   2.234   9.679   8.537 -0.4220 -0.1445  0.7225
   46MOL0     C 5962   2.083   9.699   8.532  0.1964 -0.5446  0.0706
   46MOL0     C 5963   2.034   9.779   8.404  0.5519  0.1688 -0.5140
   46MOL0     O 5964   2.071   9.919   8.402 -0.6256 -0.3555 -0.2041
   46MOL0     C 5965   2.009   9.990   8.499  1.2975 -0.2888  0.8427
   46MOL0     C 5966   2.057  10.007   8.621  0.3358  0.4054  0.1366
   46MOL0     C 5967   1.969  10.060   8.724  0.2965  0.6383  0.0932
   46MOL0     C 5968   1.838  10.103   8.695 -0.5171 -0.1407  0.6215
   46MOL0     C 5969   1.748  10.140   8.805  0.3563  0.0114 -0.5036
   46MOL0     O 5970   1.774  10.105   8.939 -0.3641 -0.5280  0.9152
   46MOL0     C 5971   1.691  10.157   9.037  0.5637 -0.5048  0.7521
   46MOL0     C 5972   1.645  10.074   9.140  0.2809 -0.1006 -0.3061
   46MOL0     C 5973   1.553  10.125   9.235 -0.5022  0.9396  0.3959
   46MOL0     C 5974   1.507  10.250   9.235 -0.5321 -0.0549  0.7982
   46MOL0     O 5975   1.409  10.297   9.314  0.3031  0.4003 -0.7581
   46MOL0     C 5976   1.446  10.341   9.445  0.1274  0.7365  0.0802
   46MOL0     C 5977   1.326  10.316   9.533  0.0681 -0.1005 -0.1137
   46MOL0     C 5978   1.338  10.367   9.669  0.7212 -1.2184  0.7686
   46MOL0     C 5979   1.221  10.326   9.771 -0.5901 -0.0407  0.3969
   46MOL0     C 5980   1.232  10.174   9.808  0.7519 -0.2262 -0.3897
   46MOL0     C 5981   1.101  10.108   9.768  1.1583  0.8431 -0.2299
   46MOL0     C 5982   0.972  10.157   9.835 -0.4403 -0.1595  0.3584
   46MOL0     C 5983   0.861  10.059   9.807  0.4904  0.5013  0.1884
   46MOL0    Cl 5984   0.700  10.127   9.878  0.1333 -0.4056 -0.0970
   46MOL0     C 5985   1.554  10.335   9.133 -0.5605  0.0686  0.0986
   46MOL0     C 5986   1.636  10.287   9.031  0.3318  0.7736  0.0013
   46MOL0     O 5987   1.643  10.198   8.769 -0.0578  0.0043 -0.0253
   46MOL0     C 5988   1.804  10.107   8.557  0.2132 -0.0078 -0.2681
   46MOL0     C 5989   1.885  10.041   8.462  0.2260  0.0129 -0.4205
   46MOL0     N 5990   2.528   9.646   8.555  0.9274  0.1861  0.1231
   46MOL0     N 5991   2.650   9.626   8.533  0.7312 -0.3394  0.0431
   46MOL0     C 5992   2.803   8.684   8.821  0.1951 -1.0912  0.9659
   46MOL0     C 5993   2.725   8.624   8.917  0.6681  0.2108 -0.5361
   46MOL0     C 5994   2.524   8.276   9.155  0.2470  0.7799 -0.6591
   46MOL0     C 5995   2.554   8.150   9.213  0.3970 -0.1740 -0.2636
   46MOL0     C 5996   2.464   8.084   9.299 -0.2724 -0.7732  0.0125
   46MOL0     C 5997   2.336   8.130   9.317  0.3669  0.1723  0.5269
   46MOL0     O 5998   2.226   8.066   9.384 -0.8289  0.1968 -0.3884
   46MOL0     C 5999   2.232   7.923   9.412 -0.0526 -0.0618  1.0127
   46MOL0     C 6000   2.125   7.906   9.527 -0.7634  0.0289 -0.3234
   46MOL0     C 6001   2.170   7.965   9.669 -0.2559 -0.5480  0.0972
   46MOL0     C 6002   2.069   7.949   9.780 -0.0277 -0.2508 -0.4463
   46MOL0     C 6003   2.035   7.808   9.830 -0.0983  0.0514  0.6610
   46MOL0     C 6004   1.986   7.704   9.861  0.2037  0.7008 -0.4524
   46MOL0     C 6005   2.311   8.259   9.270 -0.4821 -0.2231  0.7345
   46MOL0     C 6006   2.398   8.324   9.179 -0.6024  0.2372  0.1967
   46MOL0     H 6007   2.628   8.348   8.763 -2.7296  0.1594 -0.8127
   46MOL0     H 6008   2.739   8.456   8.578  0.1111  1.2337 -0.5149
   46MOL0     H 6009   2.996   8.808   8.655 -0.9601  0.9241  0.6362
   46MOL0     H 6010   2.828   8.874   8.605  0.1184  0.1346  3.3113
   46MOL0     H 6011   2.998   8.748   8.388 -1.7239  0.1726 -1.9575
   46MOL0     H 6012   3.059   8.906   8.451  0.2923 -0.2140 -3.3014
   46MOL0     H 6013   2.770   8.876   8.366 -1.7203  3.2935 -0.0023
   46MOL0     H 6014   2.904   8.911   8.256  0.7436  1.2628  0.1744
   46MOL0     H 6015   2.786   9.078   8.494  1.3282  0.1018  0.2282
   46MOL0     H 6016   2.954   9.095   8.460 -0.7387 -1.1121  2.3892
   46MOL0     H 6017   2.760   9.139   8.234  2.2275 -1.5638 -2.2292
   46MOL0     H 6018   2.935   9.179   8.241 -0.0718  0.5639 -0.2474
   46MOL0     H 6019   2.888   9.331   8.432  0.6955 -3.8454  1.1535
   46MOL0     H 6020   2.708   9.303   8.413 -1.0618 -2.4313 -1.1989
   46MOL0     H 6021   2.891   9.430   8.197  1.4930  0.8961  2.3844
   46MOL0     H 6022   2.719   9.399   8.181  0.3608 -0.2366  0.3222
   46MOL0     H 6023   2.790   9.635   8.259  3.5918 -1.6085 -1.1800
   46MOL0     H 6024   2.878   9.555   8.393 -0.2251  2.1914  1.2255
   46MOL0     H 6025   2.509   9.499   8.267  2.0084 -0.3816 -1.5515
   46MOL0     H 6026   2.276   9.483   8.459 -0.4735  0.6638  1.0475
   46MOL0     H 6027   2.251   9.609   8.340 -2.7817 -0.2943  1.7330
   46MOL0     H 6028   2.281   9.776   8.524 -3.0846  1.3588  1.5219
   46MOL0     H 6029   2.261   9.619   8.625  1.0215 -3.0609 -1.5117
   46MOL0     H 6030   2.029   9.604   8.537 -1.7385  0.5714  2.0030
   46MOL0     H 6031   2.047   9.752   8.620 -1.0161 -2.5200  0.8360
   46MOL0     H 6032   1.924   9.777   8.401  0.4639  1.8961  0.3387
   46MOL0     H 6033   2.078   9.737   8.313  0.8897  0.2310 -0.3802
   46MOL0     H 6034   2.154   9.965   8.643  0.9356  0.8084 -1.6373
   46MOL0     H 6035   2.007  10.054   8.826  0.5898 -0.1935 -0.0536
   46MOL0     H 6036   1.654   9.967   9.124 -3.3210 -0.0418 -4.3902
   46MOL0     H 6037   1.528  10.047   9.306 -0.0001  0.4003 -0.0082
   46MOL0     H 6038   1.463  10.449   9.446 -2.1433  1.1933  3.1280
   46MOL0     H 6039   1.527  10.284   9.491  0.6613  2.1100  0.9132
   46MOL0     H 6040   1.311  10.208   9.533 -1.9451  0.1269  1.0848
   46MOL0     H 6041   1.241  10.365   9.484  0.5513  0.4729 -0.4014
   46MOL0     H 6042   1.346  10.476   9.661  1.3808 -1.3857 -1.6475
   46MOL0     H 6043   1.431  10.335   9.718  2.9864 -2.3344 -3.7394
   46MOL0     H 6044   1.212  10.388   9.861 -1.1618 -0.1380  0.4083
   46MOL0     H 6045   1.126  10.338   9.718 -0.4793  3.2380  0.7608
   46MOL0     H 6046   1.257  10.162   9.914 -1.2240  2.4120  0.4867
   46MOL0     H 6047   1.306  10.126   9.742 -1.3873 -2.2689 -1.4754
   46MOL0     H 6048   1.110  10.003   9.795 -1.2870  0.7584  0.4194
   46MOL0     H 6049   1.080  10.113   9.661  3.0923 -0.0461 -0.7051
   46MOL0     H 6050   0.991  10.162   9.943  1.2298 -2.5086  0.2529
   46MOL0     H 6051   0.939  10.257   9.803  1.1145  0.4291  0.4963
   46MOL0     H 6052   0.888   9.960   9.844  0.0843  0.8572  1.4755
   46MOL0     H 6053   0.841  10.040   9.701  0.4842  1.1201  0.0714
   46MOL0     H 6054   1.508  10.433   9.134 -1.0724 -0.1685  0.4092
   46MOL0     H 6055   1.658  10.353   8.948  0.3978  0.5060 -0.1936
   46MOL0     H 6056   1.707  10.147   8.529  1.0822  2.5835  0.2186
   46MOL0     H 6057   1.856  10.015   8.360  0.8735 -1.3165 -0.2904
   46MOL0     H 6058   2.841   8.784   8.838 -3.4475  1.3278 -3.2485
   46MOL0     H 6059   2.705   8.672   9.013 -0.1092  1.6315 -1.3716
   46MOL0     H 6060   2.648   8.097   9.197  0.3542 -0.9024  1.6839
   46MOL0     H 6061   2.492   7.991   9.348  2.0295  0.1137  0.5203
   46MOL0     H 6062   2.325   7.894   9.462 -0.9854  2.1541  4.3750
   46MOL0     H 6063   2.198   7.873   9.321 -0.3892  1.7222  0.0952
   46MOL0     H 6064   2.028   7.950   9.502 -0.3153  0.9729 -0.4250
   46MOL0     H 6065   2.114   7.798   9.542  0.5538  0.0459  0.9018
   46MOL0     H 6066   2.194   8.071   9.657 -1.1840 -0.4929 -1.6417
   46MOL0     H 6067   2.263   7.913   9.691 -1.6866 -4.8671 -2.5795
   46MOL0     H 6068   2.107   8.018   9.857 -3.2674  0.7854  0.3725
   46MOL0     H 6069   1.975   7.991   9.744 -0.6213 -2.2311 -1.3629
   46MOL0     H 6070   1.922   7.626   9.898  3.1333 -2.5982 -1.7692
   46MOL0     H 6071   2.217   8.312   9.283  1.8838  4.3334  1.0349
   46MOL0     H 6072   2.364   8.413   9.129 -0.6040 -1.3230 -2.8048
   47MOL0     O 6073   0.333   9.812   7.272 -0.5291 -0.1637  0.0110
   47MOL0     C 6074   0.379   9.828   7.157  0.1833 -0.5385  0.0664
   47MOL0     O 6075   0.324   9.916   7.064  0.0291  0.5579  0.1919
   47MOL0     C 6076   0.204   9.977   7.082  0.2173 -0.4323 -1.0047
   47MOL0     C 6077   0.088   9.902   7.049  0.1520 -0.2416  0.4362
   47MOL0     C 6078  -0.043   9.958   7.051  0.4251  0.8852  0.4809
   47MOL0     C 6079  -0.049  10.097   7.078  0.0791  0.4829 -0.0629
   47MOL0     O 6080  -0.164  10.179   7.093  0.4564 -0.2686 -0.1323
   47MOL0     C 6081  -0.270  10.137   7.010 -0.2229  0.1690  0.0285
   47MOL0     C 6082  -0.377  10.252   7.011 -0.8830 -0.7129 -0.7566
   47MOL0     C 6083  -0.469  10.254   7.130  0.4613  0.8336 -0.7099
   47MOL0     C 6084  -0.591  10.348   7.121  0.8010  0.3447 -0.0468
   47MOL0     C 6085  -0.704  10.326   7.234  0.0835 -1.0449 -0.1040
   47MOL0     C 6086  -0.803  10.445   7.218 -0.3434  1.0896  0.1137
   47MOL0     C 6087  -0.931  10.435   7.294  0.3132 -0.2794 -0.4971
   47MOL0     C 6088  -1.030  10.547   7.260 -0.5607 -0.1742 -0.1155
   47MOL0     N 6089  -1.160  10.525   7.328  0.6548 -0.3303 -0.2321
   47MOL0     C 6090  -1.235  10.412   7.318  0.9768 -0.5770 -0.5007
   47MOL0     C 6091  -1.346  10.441   7.393 -0.4589 -0.0883 -0.5151
   47MOL0     C 6092  -1.471  10.350   7.426  0.7159  0.2373  0.0094
   47MOL0     C 6093  -1.600  10.383   7.347  0.0617  0.1161  0.7642
   47MOL0     C 6094  -1.641  10.527   7.368 -0.2661 -0.4211  0.2638
   47MOL0     C 6095  -1.771  10.549   7.308 -0.0866 -0.4011 -1.0811
   47MOL0     O 6096  -1.870  10.502   7.400  0.2446 -0.8757  0.1724
   47MOL0     C 6097  -1.993  10.557   7.376 -0.7602 -0.6464 -0.4541
   47MOL0     C 6098  -2.076  10.504   7.282 -0.1406 -0.8300  0.6900
   47MOL0     C 6099  -2.202  10.556   7.251 -0.3219  0.7055 -0.7851
   47MOL0     C 6100  -2.241  10.681   7.322  0.2330  1.4977  0.2714
   47MOL0     C 6101  -2.357  10.758   7.272 -0.7722 -0.9892 -0.5969
   47MOL0     O 6102  -2.342  10.899   7.282 -0.3870  0.1232 -0.3611
   47MOL0     C 6103  -2.451  10.971   7.232  0.2027 -0.3670  0.8245
   47MOL0     C 6104  -2.570  10.978   7.305  0.0303  0.8006  0.0895
   47MOL0     C 6105  -2.681  11.055   7.270  0.1551  0.0988  0.1747
   47MOL0     C 6106  -2.679  11.137   7.156  0.4889  0.5426  0.2476
   47MOL0     O 6107  -2.799  11.201   7.132  0.4714  0.5464 -0.9879
   47MOL0     C 6108  -2.837  11.267   7.011 -0.0052  0.2040 -0.8715
   47MOL0     C 6109  -2.939  11.376   7.042  0.0617  0.2530 -0.5285
   47MOL0     C 6110  -2.869  11.494   7.115  0.4614 -0.2978 -0.5125
   47MOL0     C 6111  -2.940  11.625   7.110  0.4777 -0.9998  0.4523
   47MOL0     C 6112  -2.870  11.729   7.204  0.9224 -0.4065  0.6796
   47MOL0     C 6113  -2.923  11.877   7.199  0.0704 -0.2294 -0.2999
   47MOL0     C 6114  -2.859  11.962   7.311  0.2605  0.0730 -0.1477
   47MOL0     C 6115  -2.705  11.956   7.336 -0.4905 -0.0669  0.5262
   47MOL0    Cl 6116  -2.610  11.966   7.181 -0.1814  0.0420  0.2978
   47MOL0     C 6117  -2.564  11.134   7.078  0.0492  0.6851  1.0999
   47MOL0     C 6118  -2.446  11.055   7.121  0.2519 -0.1250  0.2774
   47MOL0     O 6119  -2.454  10.701   7.223 -0.3397 -0.8101 -0.1268
   47MOL0     C 6120  -2.162  10.722   7.431  0.0883 -0.1760 -0.0338
   47MOL0     C 6121  -2.046  10.660   7.459 -1.7384 -0.1689 -0.3528
   47MOL0     N 6122  -1.339  10.571   7.441  1.1795 -0.8743 -0.5708
   47MOL0     N 6123  -1.228  10.623   7.401  0.4649 -0.1394 -0.0843
   47MOL0     C 6124   0.072  10.171   7.113  0.7779 -0.2050 -0.0165
   47MOL0     C 6125   0.200  10.111   7.101  0.5253 -0.1165  0.2295
   47MOL0     C 6126   0.512   9.780   7.129  0.1793  1.2571 -0.0651
   47MOL0     C 6127   0.594   9.716   7.226  0.3067 -0.7034 -0.1225
   47MOL0     C 6128   0.718   9.662   7.182 -0.5372 -0.8482  0.4744
   47MOL0     C 6129   0.755   9.665   7.046  1.1630 -0.5650 -0.4611
   47MOL0     O 6130   0.872   9.606   7.015 -0.3830 -0.4970 -0.6672
   47MOL0     C 6131   0.931   9.603   6.882 -0.4507 -0.3072  0.0592
   47MOL0     C 6132   0.983   9.739   6.822 -0.6867  0.3774 -0.2164
   47MOL0     C 6133   1.103   9.794   6.909  0.6512  0.0452  0.3169
   47MOL0     C 6134   1.163   9.930   6.862 -0.5568  0.2183 -0.3293
   47MOL0     C 6135   1.067  10.034   6.864  0.1179  0.0213 -0.1273
   47MOL0     C 6136   0.970  10.107   6.866 -0.6121 -0.2137  0.1977
   47MOL0     C 6137   0.671   9.733   6.950  0.1749 -0.2100 -0.4657
   47MOL0     C 6138   0.550   9.776   6.994  0.0480 -0.1028  0.3139
   47MOL0     H 6139   0.109   9.798   7.025 -0.9820 -0.8469  1.9310
   47MOL0     H 6140  -0.133   9.900   7.035  0.5911  0.6787  0.2876
   47MOL0     H 6141  -0.319  10.045   7.046  0.3014 -1.4751 -3.0733
   47MOL0     H 6142  -0.238  10.100   6.912  0.2501 -2.6971  1.1648
   47MOL0     H 6143  -0.437  10.227   6.923  0.7916  1.4742 -2.6427
   47MOL0     H 6144  -0.322  10.344   6.990 -0.3983 -0.8928 -0.3292
   47MOL0     H 6145  -0.415  10.277   7.222  1.5594  0.8009 -1.3311
   47MOL0     H 6146  -0.508  10.152   7.141  0.7528  1.0257  4.1821
   47MOL0     H 6147  -0.558  10.450   7.139 -0.1143  0.0694  4.0887
   47MOL0     H 6148  -0.640  10.334   7.024  0.9094 -5.8120  0.3610
   47MOL0     H 6149  -0.675  10.335   7.340 -0.2619  0.4766 -0.1070
   47MOL0     H 6150  -0.747  10.227   7.221  0.7420 -1.6081  1.6772
   47MOL0     H 6151  -0.826  10.452   7.111 -0.0839 -1.1720 -0.1248
   47MOL0     H 6152  -0.753  10.534   7.256 -1.8875  2.1290 -0.1953
   47MOL0     H 6153  -0.977  10.342   7.260 -1.0156  0.7651 -1.6587
   47MOL0     H 6154  -0.903  10.423   7.399  0.6966 -3.6394 -0.8753
   47MOL0     H 6155  -1.051  10.554   7.153  1.4826  0.3101 -0.5330
   47MOL0     H 6156  -0.993  10.643   7.297 -2.7051  1.7181 -2.4641
   47MOL0     H 6157  -1.230  10.311   7.277 -2.2695 -1.5026  1.0602
   47MOL0     H 6158  -1.495  10.340   7.533  0.1678  1.6032  0.0339
   47MOL0     H 6159  -1.442  10.259   7.374 -0.7702 -0.2340 -0.0378
   47MOL0     H 6160  -1.685  10.317   7.370  1.5291 -1.5472  1.6431
   47MOL0     H 6161  -1.566  10.368   7.244  3.4346  1.0822  1.6232
   47MOL0     H 6162  -1.635  10.552   7.475 -0.5089  1.0019 -0.0326
   47MOL0     H 6163  -1.571  10.597   7.321  1.1844  0.8203  3.9100
   47MOL0     H 6164  -1.766  10.483   7.221  2.3244 -0.2051 -1.1642
   47MOL0     H 6165  -1.790  10.651   7.274 -1.7420 -0.1102  0.5351
   47MOL0     H 6166  -2.026  10.421   7.232 -0.4038 -2.6249  3.2030
   47MOL0     H 6167  -2.260  10.516   7.169  1.7246  1.8625 -2.9269
   47MOL0     H 6168  -2.582  10.920   7.395  0.4206  0.1292 -0.2877
   47MOL0     H 6169  -2.765  11.039   7.337 -0.0101 -1.2746 -0.3207
   47MOL0     H 6170  -2.884  11.205   6.935 -0.8438  0.8958 -0.9358
   47MOL0     H 6171  -2.745  11.306   6.965 -0.1639  0.8094 -0.6936
   47MOL0     H 6172  -3.017  11.338   7.109  0.3152 -0.6456 -0.7334
   47MOL0     H 6173  -2.983  11.408   6.947  0.1045  0.6685 -0.4097
   47MOL0     H 6174  -2.769  11.511   7.074 -0.2463  1.9065 -1.4463
   47MOL0     H 6175  -2.857  11.464   7.220 -0.8544  1.9816  0.3636
   47MOL0     H 6176  -2.932  11.659   7.006 -0.2385 -5.6535 -1.3784
   47MOL0     H 6177  -3.048  11.616   7.126  0.1007 -2.3161 -2.2058
   47MOL0     H 6178  -2.767  11.736   7.167  1.2089  1.1203  1.6797
   47MOL0     H 6179  -2.863  11.693   7.307  1.4947  1.1805  1.2136
   47MOL0     H 6180  -3.032  11.887   7.210  0.4619  1.9228  2.5113
   47MOL0     H 6181  -2.889  11.931   7.110  0.4666 -1.5024 -0.9377
   47MOL0     H 6182  -2.882  12.066   7.283 -1.2075  0.3083  1.6776
   47MOL0     H 6183  -2.921  11.949   7.401 -2.9400 -0.1903 -2.2350
   47MOL0     H 6184  -2.666  11.867   7.386  0.2530 -1.5675 -2.4888
   47MOL0     H 6185  -2.682  12.043   7.398  1.4200  0.1202 -0.3511
   47MOL0     H 6186  -2.552  11.171   6.977  0.8952 -0.7695  0.6319
   47MOL0     H 6187  -2.351  11.065   7.070  0.3258  0.2241  0.4828
   47MOL0     H 6188  -2.179  10.800   7.504 -0.4149 -0.7063  0.4312
   47MOL0     H 6189  -1.981  10.689   7.541  1.8491 -3.6564 -1.6092
   47MOL0     H 6190   0.062  10.276   7.140  1.4696 -0.1500  0.0425
   47MOL0     H 6191   0.294  10.164   7.115  0.4411 -0.1619  1.0163
   47MOL0     H 6192   0.560   9.715   7.330  3.1346  2.7502  1.0399
   47MOL0     H 6193   0.768   9.603   7.259 -1.3163  2.0993  3.4435
   47MOL0     H 6194   0.855   9.565   6.813  0.2426  2.9025 -2.7313
   47MOL0     H 6195   1.016   9.534   6.883  0.4971  0.8345  1.5379
   47MOL0     H 6196   1.022   9.717   6.722 -0.6021 -0.2450 -0.0472
   47MOL0     H 6197   0.901   9.809   6.801  1.5911  2.7123 -1.9803
   47MOL0     H 6198   1.177   9.716   6.929  0.9245 -0.9751 -3.7101
   47MOL0     H 6199   1.068   9.812   7.011 -1.5592 -0.7978 -0.2433
   47MOL0     H 6200   1.248   9.961   6.923 -0.4005 -1.2094  0.2155
   47MOL0     H 6201   1.197   9.915   6.759  0.0830 -1.1608  0.0531
   47MOL0     H 6202   0.899  10.183   6.841  0.8984  0.5066 -2.1434
   47MOL0     H 6203   0.694   9.747   6.845 -0.9866 -0.3489 -0.7531
   47MOL0     H 6204   0.480   9.816   6.922 -0.9431 -1.7817  0.3118
   48MOL0     O 6205   9.914   6.217   5.860  0.0754  0.0739  0.0611
   48MOL0     C 6206   9.958   6.334   5.849 -0.4432  0.8706  0.0240
   48MOL0     O 6207   9.891   6.449   5.896 -0.9574  0.6169 -0.7669
   48MOL0     C 6208   9.775   6.429   5.970  0.5915 -0.5167 -0.9882
   48MOL0     C 6209   9.763   6.512   6.085 -0.4844  0.4295  0.0279
   48MOL0     C 6210   9.634   6.518   6.150 -0.6097 -0.8172 -0.6451
   48MOL0     C 6211   9.531   6.441   6.115 -0.8805 -0.3157  0.5215
   48MOL0     O 6212   9.415   6.420   6.179  0.1545 -0.3388  0.2451
   48MOL0     C 6213   9.382   6.473   6.301 -0.1508  0.1923 -0.0025
   48MOL0     C 6214   9.240   6.421   6.331  0.0134 -0.4974  0.1187
   48MOL0     C 6215   9.132   6.492   6.249 -0.5289 -0.6084  0.4181
   48MOL0     C 6216   8.992   6.429   6.282 -0.1384  0.4390 -0.6318
   48MOL0     C 6217   8.892   6.466   6.181  0.4213 -0.1988 -0.2746
   48MOL0     C 6218   8.749   6.481   6.244 -0.0291 -0.9452 -0.6463
   48MOL0     C 6219   8.651   6.498   6.141  0.0914 -0.5127  0.1012
   48MOL0     C 6220   8.501   6.503   6.189  0.7403 -0.7967 -0.3750
   48MOL0     N 6221   8.419   6.505   6.072  0.6886 -0.1506  0.2039
   48MOL0     C 6222   8.312   6.418   6.041  0.2379  0.0457 -0.3174
   48MOL0     C 6223   8.263   6.473   5.928  0.0584  0.1190 -0.3717
   48MOL0     C 6224   8.138   6.438   5.859 -0.5877 -0.3483 -0.4280
   48MOL0     C 6225   8.159   6.433   5.700 -0.1466  0.4581 -0.7621
   48MOL0     C 6226   8.141   6.573   5.619 -0.0191 -0.1705 -1.0855
   48MOL0     C 6227   8.017   6.649   5.671 -0.3297 -0.2119  0.1842
   48MOL0     O 6228   7.971   6.734   5.555  0.3516  0.3425 -0.6561
   48MOL0     C 6229   7.842   6.740   5.539  0.9030 -1.1131 -0.3553
   48MOL0     C 6230   7.803   6.774   5.406  0.4921 -0.5232  0.1041
   48MOL0     C 6231   7.664   6.785   5.363 -0.9219  1.3994 -0.4680
   48MOL0     C 6232   7.565   6.765   5.456 -0.0111  0.0680 -0.3520
   48MOL0     C 6233   7.420   6.785   5.422 -1.1836 -1.2429 -0.3208
   48MOL0     O 6234   7.335   6.773   5.523  0.3240  0.4619  0.7011
   48MOL0     C 6235   7.200   6.752   5.513  0.7523 -0.7520  0.0659
   48MOL0     C 6236   7.112   6.785   5.613 -0.8283 -0.1999  0.9851
   48MOL0     C 6237   6.971   6.783   5.593 -0.1556  0.6792 -0.0228
   48MOL0     C 6238   6.917   6.755   5.462  0.1021  0.1150  0.2903
   48MOL0     O 6239   6.784   6.740   5.438  1.1398 -0.0455  1.0464
   48MOL0     C 6240   6.726   6.741   5.306  0.7239  0.7462  0.0535
   48MOL0     C 6241   6.588   6.806   5.336 -0.0752 -0.4299 -0.2151
   48MOL0     C 6242   6.478   6.783   5.225 -0.8339 -0.1145 -0.1424
   48MOL0     C 6243   6.325   6.810   5.258  0.8039 -0.5087  0.2904
   48MOL0     C 6244   6.287   6.953   5.290 -1.0330 -0.3059  0.9017
   48MOL0     C 6245   6.143   6.982   5.321 -0.0449  0.5186  0.6469
   48MOL0     C 6246   6.126   7.137   5.321  0.1318 -0.1503  0.8468
   48MOL0     C 6247   5.987   7.185   5.370  0.6391 -0.5833  0.9353
   48MOL0    Cl 6248   5.865   7.079   5.294 -0.1022  0.0651  0.2692
   48MOL0     C 6249   7.011   6.714   5.369 -0.2948  0.6275 -0.4903
   48MOL0     C 6250   7.149   6.708   5.393  0.5459 -1.0989 -0.2692
   48MOL0     O 6251   7.399   6.813   5.301  0.0345 -0.1605 -0.3935
   48MOL0     C 6252   7.604   6.722   5.589  0.6171 -0.0080  0.7608
   48MOL0     C 6253   7.736   6.712   5.633 -0.0095 -0.7628  0.0966
   48MOL0     N 6254   8.336   6.575   5.870 -0.5201  0.4032 -0.2651
   48MOL0     N 6255   8.433   6.588   5.962  0.2785  0.8557  0.8321
   48MOL0     C 6256   9.548   6.347   6.007 -0.3371 -0.2361 -0.9941
   48MOL0     C 6257   9.664   6.355   5.936 -0.1358  0.7514 -1.3300
   48MOL0     C 6258  10.091   6.349   5.787  0.1268  0.0426 -0.0437
   48MOL0     C 6259  10.127   6.468   5.736 -0.2214 -0.1738  0.3103
   48MOL0     C 6260  10.254   6.490   5.681 -0.8092 -0.3829 -0.2740
   48MOL0     C 6261  10.342   6.383   5.669  0.2708 -0.3267 -0.1526
   48MOL0     O 6262  10.456   6.406   5.603  0.4024 -0.6429  0.0472
   48MOL0     C 6263  10.545   6.293   5.588 -0.8900  0.5937  0.8337
   48MOL0     C 6264  10.683   6.330   5.538  0.0449  0.8789  0.1281
   48MOL0     C 6265  10.730   6.469   5.584 -0.2743 -0.3494  0.2332
   48MOL0     C 6266  10.769   6.482   5.734  0.4819 -0.3774 -0.5325
   48MOL0     C 6267  10.890   6.401   5.768 -0.1308  0.2912  0.4858
   48MOL0     C 6268  10.990   6.334   5.768  0.1371  0.6589  0.4704
   48MOL0     C 6269  10.303   6.257   5.716 -0.3391 -0.2979  0.1823
   48MOL0     C 6270  10.184   6.243   5.779  1.4778  0.1774  0.6508
   48MOL0     H 6271   9.845   6.576   6.114 -1.0843  0.8087  0.9214
   48MOL0     H 6272   9.612   6.595   6.223 -1.2315 -1.6381  0.0651
   48MOL0     H 6273   9.392   6.582   6.307  3.5281 -0.0841  1.3169
   48MOL0     H 6274   9.456   6.432   6.370 -2.1471 -3.7612  0.0692
   48MOL0     H 6275   9.221   6.438   6.437 -0.5608  0.2127 -0.0860
   48MOL0     H 6276   9.242   6.314   6.309  1.7673 -0.4218 -0.2835
   48MOL0     H 6277   9.164   6.498   6.144  1.9291  2.3015  1.1714
   48MOL0     H 6278   9.151   6.597   6.274  3.8661 -0.0946 -3.6605
   48MOL0     H 6279   8.995   6.320   6.281 -0.3008  0.3815  1.3837
   48MOL0     H 6280   8.961   6.467   6.380  1.6780 -2.5043  1.2372
   48MOL0     H 6281   8.899   6.396   6.098  1.9688 -0.0779 -0.2679
   48MOL0     H 6282   8.914   6.566   6.142 -0.3576  0.1911  0.2499
   48MOL0     H 6283   8.754   6.571   6.306  0.6333 -1.6310  0.3205
   48MOL0     H 6284   8.731   6.393   6.305 -2.0890 -0.2741 -0.2047
   48MOL0     H 6285   8.679   6.585   6.081  3.1501 -1.5290 -0.0885
   48MOL0     H 6286   8.654   6.408   6.078 -2.4790 -1.9860  1.8896
   48MOL0     H 6287   8.494   6.591   6.253  3.5960 -0.5055 -0.3472
   48MOL0     H 6288   8.485   6.411   6.246  3.4988 -2.0185 -1.4247
   48MOL0     H 6289   8.274   6.333   6.096  2.6154 -0.0860  1.2661
   48MOL0     H 6290   8.050   6.498   5.887 -0.7777 -0.8906  0.1780
   48MOL0     H 6291   8.109   6.337   5.890 -0.8917 -0.5076 -1.2300
   48MOL0     H 6292   8.078   6.368   5.666 -0.0881 -1.6620  2.6464
   48MOL0     H 6293   8.256   6.388   5.677 -1.4834 -1.9747 -1.9165
   48MOL0     H 6294   8.228   6.639   5.626 -0.5442  0.4432 -0.0526
   48MOL0     H 6295   8.117   6.544   5.517 -0.5168 -2.4920 -0.3582
   48MOL0     H 6296   8.034   6.714   5.758  0.1678 -0.0964  0.0049
   48MOL0     H 6297   7.940   6.572   5.686  0.3907 -1.1181 -0.7016
   48MOL0     H 6298   7.878   6.791   5.329  2.0239 -1.3961  1.3418
   48MOL0     H 6299   7.634   6.816   5.263 -0.8152  0.3640 -0.8236
   48MOL0     H 6300   7.139   6.822   5.711  1.3429  3.2755 -0.7025
   48MOL0     H 6301   6.901   6.808   5.672  0.0046 -0.3492  0.4633
   48MOL0     H 6302   6.701   6.639   5.276 -1.1155  1.5400 -1.3613
   48MOL0     H 6303   6.794   6.794   5.238  1.4242 -1.0747 -0.7319
   48MOL0     H 6304   6.607   6.913   5.354  1.8683 -0.6235 -0.9741
   48MOL0     H 6305   6.555   6.766   5.432 -2.2461 -0.8808 -1.0950
   48MOL0     H 6306   6.493   6.684   5.181  0.4870 -0.8237  1.7676
   48MOL0     H 6307   6.513   6.858   5.154 -0.6683 -0.1745 -0.1259
   48MOL0     H 6308   6.261   6.778   5.175  0.8384 -1.0004  0.4472
   48MOL0     H 6309   6.305   6.762   5.355  3.0247  0.9565  1.5603
   48MOL0     H 6310   6.305   7.009   5.198 -2.8444 -0.4251  0.4313
   48MOL0     H 6311   6.350   6.999   5.366 -1.8951  1.1842  0.7736
   48MOL0     H 6312   6.113   6.942   5.419 -3.2153  1.1930  0.0480
   48MOL0     H 6313   6.084   6.937   5.241 -1.3863 -1.6063  2.7108
   48MOL0     H 6314   6.206   7.177   5.385  2.9958 -0.8641 -2.0286
   48MOL0     H 6315   6.146   7.169   5.218 -3.1560  0.4970  0.3154
   48MOL0     H 6316   5.974   7.289   5.342 -3.2741 -0.6519  1.9245
   48MOL0     H 6317   5.970   7.182   5.478 -4.3637 -0.9242  0.3521
   48MOL0     H 6318   6.973   6.647   5.293  0.5226  1.3790 -1.5782
   48MOL0     H 6319   7.210   6.668   5.313 -1.0691 -4.5448  0.0540
   48MOL0     H 6320   7.522   6.710   5.659  0.8458 -1.6092  0.8054
   48MOL0     H 6321   7.748   6.707   5.740 -1.6222 -0.0427  0.3325
   48MOL0     H 6322   9.466   6.283   5.975 -0.1673  0.7285 -3.5968
   48MOL0     H 6323   9.680   6.295   5.847  1.8574 -2.7322  1.1162
   48MOL0     H 6324  10.053   6.547   5.741  0.8771  0.9427 -0.5324
   48MOL0     H 6325  10.286   6.590   5.656  0.1394 -0.6534 -0.1984
   48MOL0     H 6326  10.495   6.216   5.528  3.4079 -1.1862 -0.8844
   48MOL0     H 6327  10.562   6.244   5.685  1.1361 -1.1390 -0.3102
   48MOL0     H 6328  10.751   6.253   5.575  0.1185  1.5430  1.4235
   48MOL0     H 6329  10.683   6.341   5.429  1.6597  0.8910  0.1160
   48MOL0     H 6330  10.649   6.538   5.559 -0.2367 -0.6778 -0.8513
   48MOL0     H 6331  10.818   6.488   5.523 -0.1160 -3.4982 -0.6867
   48MOL0     H 6332  10.792   6.586   5.759 -3.9463  0.4332  0.9531
   48MOL0     H 6333  10.680   6.454   5.791 -0.0913  2.7905  0.3276
   48MOL0     H 6334  11.064   6.256   5.770 -0.5977 -0.0464  1.3797
   48MOL0     H 6335  10.361   6.165   5.725 -1.0041 -0.6362  1.2456
   48MOL0     H 6336  10.151   6.151   5.825  0.0900  0.6232  0.5990
   49MOL0     O 6337   3.564   8.147   1.882 -0.4277 -0.1205  0.3276
   49MOL0     C 6338   3.626   8.111   1.777 -0.1034  0.6212  1.1519
   49MOL0     O 6339   3.764   8.077   1.761  0.0291 -0.8571  0.3742
   49MOL0     C 6340   3.848   8.110   1.865 -0.7340 -0.5787 -1.0260
   49MOL0     C 6341   3.958   8.189   1.829 -0.2905 -0.9387 -0.5976
   49MOL0     C 6342   4.052   8.234   1.928  0.6733  0.0393  0.0176
   49MOL0     C 6343   4.028   8.200   2.062  0.1441 -1.2219  0.2802
   49MOL0     O 6344   4.119   8.235   2.158 -0.3368 -1.3473 -0.3894
   49MOL0     C 6345   4.222   8.326   2.124  0.5382 -0.2166 -0.9901
   49MOL0     C 6346   4.179   8.480   2.128 -0.4763  0.6006 -0.6503
   49MOL0     C 6347   4.181   8.534   2.272 -1.0247  0.2728  0.1566
   49MOL0     C 6348   4.191   8.689   2.277  0.6563  0.1123  0.2657
   49MOL0     C 6349   4.147   8.744   2.415  0.2670  0.4513 -0.5749
   49MOL0     C 6350   4.146   8.899   2.415 -0.0970  0.1674  0.1913
   49MOL0     C 6351   4.087   8.945   2.550  0.1176  0.4066  0.3917
   49MOL0     C 6352   3.936   8.902   2.565  0.5855  0.7561 -0.2548
   49MOL0     N 6353   3.884   8.946   2.697 -0.4798 -0.7692  0.8270
   49MOL0     C 6354   3.889   8.869   2.809 -0.9452  1.1205  0.2626
   49MOL0     C 6355   3.814   8.938   2.898 -0.4487 -0.2374  0.0832
   49MOL0     C 6356   3.789   8.906   3.047  0.2790 -0.2024 -0.1107
   49MOL0     C 6357   3.658   8.978   3.093  0.3458  0.1952 -0.2658
   49MOL0     C 6358   3.698   9.117   3.162 -0.2512 -0.3894  0.4176
   49MOL0     C 6359   3.579   9.183   3.234 -0.4394 -0.2444  0.3950
   49MOL0     O 6360   3.560   9.116   3.357 -0.4740 -0.5267  0.0684
   49MOL0     C 6361   3.449   9.147   3.431  0.2543  0.0729  0.2156
   49MOL0     C 6362   3.344   9.236   3.393 -0.0009  0.2798  0.4793
   49MOL0     C 6363   3.228   9.254   3.476 -1.0196 -0.5807  0.1293
   49MOL0     C 6364   3.226   9.203   3.609 -0.0738  1.2074  0.0344
   49MOL0     C 6365   3.100   9.201   3.688 -0.2149  0.2199 -0.5388
   49MOL0     O 6366   2.985   9.190   3.618  0.2480  0.4309 -0.4501
   49MOL0     C 6367   2.859   9.214   3.666  0.7608 -0.2983 -0.8201
   49MOL0     C 6368   2.821   9.238   3.802 -0.1957  0.8024  0.5971
   49MOL0     C 6369   2.692   9.274   3.847  0.1110 -0.2224  0.7113
   49MOL0     C 6370   2.594   9.294   3.752 -0.2447 -0.1360  0.3286
   49MOL0     O 6371   2.471   9.340   3.790 -0.6412 -0.5026  0.4956
   49MOL0     C 6372   2.363   9.343   3.693 -0.1870  0.2889 -0.6226
   49MOL0     C 6373   2.253   9.412   3.769 -0.1447  0.2712 -0.6931
   49MOL0     C 6374   2.181   9.324   3.876 -0.4144 -0.7854  0.3701
   49MOL0     C 6375   2.065   9.391   3.937  1.0361  0.8815 -0.2168
   49MOL0     C 6376   2.036   9.337   4.073 -0.8448  0.0127 -0.4624
   49MOL0     C 6377   1.937   9.419   4.162 -0.3972 -0.0946 -0.3524
   49MOL0     C 6378   1.792   9.416   4.118 -0.8942 -0.5725 -0.3038
   49MOL0     C 6379   1.741   9.276   4.138  0.1015 -0.5989 -0.2552
   49MOL0    Cl 6380   1.569   9.271   4.140  0.4729  0.0281  0.2152
   49MOL0     C 6381   2.625   9.276   3.616 -0.7722 -0.1162  0.4407
   49MOL0     C 6382   2.755   9.243   3.576 -0.7727  0.7452  0.4283
   49MOL0     O 6383   3.109   9.216   3.808  0.7017  0.0266 -0.3753
   49MOL0     C 6384   3.336   9.126   3.652 -0.7418 -0.3002  0.3119
   49MOL0     C 6385   3.440   9.092   3.562 -0.0320  0.5708  0.0855
   49MOL0     N 6386   3.750   9.045   2.833  0.4892 -0.3348  0.7364
   49MOL0     N 6387   3.793   9.045   2.709 -0.1540  0.2729 -0.0141
   49MOL0     C 6388   3.921   8.136   2.097  0.5682 -0.3331 -0.3220
   49MOL0     C 6389   3.831   8.094   2.003 -0.4785  0.0199  0.5945
   49MOL0     C 6390   3.548   8.091   1.653 -0.1995 -0.1190  0.3844
   49MOL0     C 6391   3.604   8.092   1.524 -0.3183  0.9367 -0.1935
   49MOL0     C 6392   3.524   8.090   1.411 -0.2321  0.4815  0.3879
   49MOL0     C 6393   3.384   8.071   1.419  0.1101  0.3653  0.6439
   49MOL0     O 6394   3.318   8.059   1.301 -0.1694 -0.2420 -1.2998
   49MOL0     C 6395   3.174   8.069   1.301 -0.1515 -0.2590 -0.0767
   49MOL0     C 6396   3.111   7.933   1.279 -0.0706  1.1810  0.2789
   49MOL0     C 6397   2.956   7.930   1.231 -1.1008  0.1559 -0.6089
   49MOL0     C 6398   2.860   8.043   1.290  0.3141 -0.2535  0.1848
   49MOL0     C 6399   2.876   8.038   1.432  0.2611  0.5291  0.2754
   49MOL0     C 6400   2.904   8.006   1.548 -0.4066 -0.2539 -1.1182
   49MOL0     C 6401   3.331   8.059   1.545 -0.2328 -0.1892 -0.5954
   49MOL0     C 6402   3.409   8.070   1.655 -0.5697  0.1400 -0.1061
   49MOL0     H 6403   3.984   8.206   1.725 -1.8054 -0.2841 -0.8921
   49MOL0     H 6404   4.135   8.290   1.887  1.3499 -0.4454  0.7000
   49MOL0     H 6405   4.264   8.302   2.026 -0.1798 -0.3673 -1.2657
   49MOL0     H 6406   4.306   8.315   2.193 -0.6309 -2.9337  0.1060
   49MOL0     H 6407   4.083   8.491   2.076  0.8019  3.6220 -2.6890
   49MOL0     H 6408   4.257   8.544   2.086  1.0548  0.3681  1.6783
   49MOL0     H 6409   4.266   8.497   2.331  0.4913 -3.0022 -3.5210
   49MOL0     H 6410   4.092   8.500   2.325 -0.7930 -0.0484  0.3429
   49MOL0     H 6411   4.296   8.715   2.265  1.0543 -1.6003 -0.1650
   49MOL0     H 6412   4.129   8.736   2.200  1.5495 -0.5724 -0.8843
   49MOL0     H 6413   4.216   8.714   2.494 -1.1432 -0.0279  0.5342
   49MOL0     H 6414   4.051   8.705   2.451  0.1423  0.1755 -1.2098
   49MOL0     H 6415   4.083   8.930   2.331 -1.5786 -0.3536  1.0628
   49MOL0     H 6416   4.246   8.940   2.399 -0.2802 -0.0492 -1.8814
   49MOL0     H 6417   4.163   8.909   2.620  2.7533  1.9568 -1.4908
   49MOL0     H 6418   4.084   9.055   2.550 -0.7843  0.4708 -2.7754
   49MOL0     H 6419   3.917   8.794   2.557 -2.1155  1.0340  1.3886
   49MOL0     H 6420   3.873   8.956   2.494 -0.1204 -0.9867 -1.0371
   49MOL0     H 6421   3.941   8.775   2.825 -1.7087  0.5735 -0.3911
   49MOL0     H 6422   3.882   8.934   3.098  0.0804 -0.1194  0.2090
   49MOL0     H 6423   3.789   8.800   3.072  2.5382  0.0470  1.2580
   49MOL0     H 6424   3.598   8.919   3.163 -1.8640 -0.1764 -2.3693
   49MOL0     H 6425   3.590   9.002   3.011  0.3985  0.4491 -0.2365
   49MOL0     H 6426   3.781   9.090   3.228 -1.6363 -3.1378  1.1945
   49MOL0     H 6427   3.730   9.178   3.076  3.6325 -2.9113 -0.1506
   49MOL0     H 6428   3.487   9.178   3.175 -0.1660  0.2249 -0.0749
   49MOL0     H 6429   3.601   9.288   3.251 -0.6629 -0.0065 -0.6782
   49MOL0     H 6430   3.339   9.292   3.300 -3.6078  0.8903  0.8929
   49MOL0     H 6431   3.144   9.313   3.439  0.3064 -0.3595 -2.7991
   49MOL0     H 6432   2.884   9.205   3.884  2.4477  0.5173 -1.4023
   49MOL0     H 6433   2.678   9.281   3.954 -0.9990  2.8982  0.4709
   49MOL0     H 6434   2.322   9.247   3.660 -2.0782  1.4417 -1.8136
   49MOL0     H 6435   2.380   9.409   3.608 -0.6617  0.4339 -0.6099
   49MOL0     H 6436   2.174   9.453   3.705 -1.0272  0.3384  0.4094
   49MOL0     H 6437   2.285   9.511   3.804  1.0116  0.0417 -1.0625
   49MOL0     H 6438   2.255   9.304   3.954  1.3287  0.6041 -0.8500
   49MOL0     H 6439   2.159   9.223   3.841 -1.5559 -1.5052  2.9834
   49MOL0     H 6440   2.075   9.500   3.946 -0.0143  1.0926 -1.2667
   49MOL0     H 6441   1.976   9.374   3.875  0.7841 -0.4623  0.4731
   49MOL0     H 6442   2.128   9.346   4.132 -1.5186  0.5468  0.5405
   49MOL0     H 6443   2.004   9.233   4.062 -0.4705 -0.2081  0.4217
   49MOL0     H 6444   1.971   9.522   4.174  0.9163 -0.5007 -0.3390
   49MOL0     H 6445   1.951   9.389   4.267  0.9580  3.3651  0.6105
   49MOL0     H 6446   1.741   9.473   4.196 -1.2081 -4.0034  2.2856
   49MOL0     H 6447   1.779   9.450   4.015  0.9179  1.9364  0.1996
   49MOL0     H 6448   1.785   9.249   4.235  2.2127 -0.5223 -1.1337
   49MOL0     H 6449   1.782   9.197   4.074 -1.2971 -1.3188 -0.3153
   49MOL0     H 6450   2.547   9.278   3.541 -1.7085  1.6373  1.4038
   49MOL0     H 6451   2.766   9.227   3.469  0.7972 -0.9240  0.7864
   49MOL0     H 6452   3.338   9.093   3.755 -2.3242 -1.0926  0.1300
   49MOL0     H 6453   3.524   9.029   3.588 -1.1818  0.3906  4.0303
   49MOL0     H 6454   3.893   8.105   2.198 -2.5863  1.3025 -0.5846
   49MOL0     H 6455   3.746   8.032   2.031 -1.5198  0.5205 -1.2437
   49MOL0     H 6456   3.712   8.093   1.514 -0.4391 -0.2500 -2.1246
   49MOL0     H 6457   3.577   8.080   1.317 -0.1768 -0.0837  0.4762
   49MOL0     H 6458   3.154   8.133   1.215  2.6476  1.5208  0.4694
   49MOL0     H 6459   3.126   8.132   1.377 -0.4328 -0.2161 -0.2874
   49MOL0     H 6460   3.174   7.882   1.206  1.5858  2.1926  0.9518
   49MOL0     H 6461   3.128   7.874   1.369  1.2435  0.3198 -0.5066
   49MOL0     H 6462   2.910   7.839   1.270 -0.7057  0.1849 -0.0672
   49MOL0     H 6463   2.948   7.926   1.122 -0.8095  0.3652 -0.6383
   49MOL0     H 6464   2.896   8.133   1.239 -0.6376 -1.4591 -2.7905
   49MOL0     H 6465   2.757   8.032   1.256 -0.4529  3.6703  0.7346
   49MOL0     H 6466   2.935   7.985   1.649  2.3027 -2.1220 -2.2090
   49MOL0     H 6467   3.223   8.051   1.556 -0.5201  0.0048 -2.8523
   49MOL0     H 6468   3.366   8.064   1.754 -1.6514 -0.5017 -0.5952
   50MOL0     O 6469   5.523   7.772   2.560  0.1948  0.1285  0.4706
   50MOL0     C 6470   5.534   7.648   2.561  0.1173  0.9974  0.6799
   50MOL0     O 6471   5.446   7.556   2.557 -0.2859  0.4859  0.1680
   50MOL0     C 6472   5.315   7.600   2.548 -0.4350 -0.1265 -0.5115
   50MOL0     C 6473   5.225   7.529   2.629  0.9003 -0.6187 -0.6031
   50MOL0     C 6474   5.087   7.562   2.627  1.1445  0.8847 -0.8360
   50MOL0     C 6475   5.042   7.667   2.536  0.3386  0.7458  0.2710
   50MOL0     O 6476   4.909   7.699   2.537  0.2168  0.4275 -0.5120
   50MOL0     C 6477   4.878   7.834   2.547  0.0856 -0.4257  0.0104
   50MOL0     C 6478   4.737   7.869   2.593 -0.0373 -0.5092  0.4859
   50MOL0     C 6479   4.645   7.882   2.469  0.7052  0.3100  0.1692
   50MOL0     C 6480   4.512   7.934   2.530  0.3454  0.4246 -0.7969
   50MOL0     C 6481   4.398   7.954   2.430  0.6870  0.0649 -0.8429
   50MOL0     C 6482   4.264   7.978   2.499 -0.1017 -0.0598  0.3350
   50MOL0     C 6483   4.147   7.964   2.413  0.9995 -0.5113  0.2496
   50MOL0     C 6484   4.018   7.940   2.483  0.4585  0.2024  0.3113
   50MOL0     N 6485   4.011   7.810   2.560  1.1443  0.1974 -0.2461
   50MOL0     C 6486   4.001   7.680   2.507 -0.5764 -0.0569 -0.1529
   50MOL0     C 6487   4.021   7.600   2.618 -0.6349 -0.3741  0.5505
   50MOL0     C 6488   4.006   7.448   2.596  0.4505 -0.0545 -1.1981
   50MOL0     C 6489   3.937   7.368   2.712  0.6066 -0.3099  0.5245
   50MOL0     C 6490   3.929   7.216   2.678 -0.3653 -0.4786 -0.2081
   50MOL0     C 6491   4.060   7.144   2.711 -0.0989  0.0926  0.5213
   50MOL0     O 6492   4.048   6.997   2.709 -0.5176  0.0633  0.0882
   50MOL0     C 6493   4.151   6.919   2.767 -1.1769  0.5380  0.1819
   50MOL0     C 6494   4.273   6.975   2.818  0.3156  0.5940 -0.7139
   50MOL0     C 6495   4.365   6.884   2.870 -0.6010  0.1307  0.9934
   50MOL0     C 6496   4.345   6.746   2.862 -1.1626  1.0646  0.0171
   50MOL0     C 6497   4.446   6.655   2.927  0.1854  0.3694  1.2051
   50MOL0     O 6498   4.562   6.722   2.967  0.0265  0.2050 -0.4758
   50MOL0     C 6499   4.667   6.664   3.033 -0.3460  0.9908 -0.8341
   50MOL0     C 6500   4.748   6.750   3.113 -0.7846  0.6273  0.4023
   50MOL0     C 6501   4.877   6.715   3.163 -0.0113  0.2370 -1.1152
   50MOL0     C 6502   4.912   6.579   3.165  0.7242  0.6116  0.3846
   50MOL0     O 6503   5.021   6.533   3.236  0.2000  0.3160  0.5009
   50MOL0     C 6504   5.091   6.419   3.194 -0.4179  0.1195  0.1756
   50MOL0     C 6505   5.232   6.433   3.263  0.2758 -0.5751 -1.4775
   50MOL0     C 6506   5.222   6.414   3.412 -0.4028 -0.9301  0.8404
   50MOL0     C 6507   5.363   6.407   3.473 -0.0966 -0.6758 -0.5532
   50MOL0     C 6508   5.375   6.374   3.625  0.4143  0.0073 -1.2699
   50MOL0     C 6509   5.513   6.401   3.675  0.0001 -0.4165 -0.2183
   50MOL0     C 6510   5.532   6.394   3.824  0.4786  0.0937 -0.5899
   50MOL0     C 6511   5.526   6.259   3.887  0.8797  0.2106 -0.7337
   50MOL0    Cl 6512   5.530   6.287   4.061  0.1233  0.2441  0.0180
   50MOL0     C 6513   4.834   6.488   3.092 -0.0787  1.0016  0.1362
   50MOL0     C 6514   4.717   6.537   3.029 -0.8104 -0.3241 -1.3227
   50MOL0     O 6515   4.431   6.536   2.921  0.0019  0.0907 -0.0561
   50MOL0     C 6516   4.232   6.693   2.808 -0.1739  0.5971  0.3220
   50MOL0     C 6517   4.142   6.780   2.754  0.0899 -0.6518  0.3272
   50MOL0     N 6518   4.006   7.683   2.726  0.0641  0.2010 -0.1206
   50MOL0     N 6519   3.987   7.806   2.696 -0.8321  0.2762  1.0717
   50MOL0     C 6520   5.138   7.725   2.453  0.0088 -0.1756 -0.1181
   50MOL0     C 6521   5.273   7.692   2.460  0.5228 -0.8326 -0.4940
   50MOL0     C 6522   5.676   7.601   2.553 -0.4576 -0.3162  0.1877
   50MOL0     C 6523   5.775   7.654   2.636  0.1275  0.2614 -0.0664
   50MOL0     C 6524   5.907   7.607   2.629 -0.2583 -0.1227  0.4752
   50MOL0     C 6525   5.942   7.513   2.535  1.1756 -0.6244  0.2498
   50MOL0     O 6526   6.070   7.467   2.520 -0.7809  0.3891  0.3768
   50MOL0     C 6527   6.184   7.534   2.585 -0.6980  0.1194 -0.4151
   50MOL0     C 6528   6.223   7.671   2.527  0.1432 -0.9968  0.2319
   50MOL0     C 6529   6.219   7.679   2.374  0.1981 -0.6443 -0.0736
   50MOL0     C 6530   6.166   7.815   2.332 -0.7566  0.0540  0.3788
   50MOL0     C 6531   6.273   7.922   2.335  0.0027 -0.5199 -0.6481
   50MOL0     C 6532   6.359   8.007   2.351  1.5219  0.4210  0.3069
   50MOL0     C 6533   5.841   7.456   2.456  0.1384  0.3898  0.2913
   50MOL0     C 6534   5.712   7.502   2.466 -0.0068  0.4188 -0.0174
   50MOL0     H 6535   5.258   7.451   2.696  1.7585  0.2815  0.0440
   50MOL0     H 6536   5.011   7.525   2.694 -0.0749  2.0789 -1.5178
   50MOL0     H 6537   4.891   7.889   2.453 -1.3451  1.6988  0.9749
   50MOL0     H 6538   4.945   7.890   2.612  2.5833 -0.9819 -1.9191
   50MOL0     H 6539   4.741   7.969   2.637 -0.6099  0.9550 -2.4994
   50MOL0     H 6540   4.694   7.789   2.654 -2.0435 -0.7135 -1.0771
   50MOL0     H 6541   4.648   7.786   2.418  3.2876 -0.2145  1.1327
   50MOL0     H 6542   4.677   7.954   2.393  0.1806  1.4274  0.9756
   50MOL0     H 6543   4.476   7.878   2.617 -1.1282 -1.2280 -2.4178
   50MOL0     H 6544   4.536   8.036   2.560  2.6160 -0.7813  1.9968
   50MOL0     H 6545   4.411   7.868   2.363  0.6118  1.0801 -2.1967
   50MOL0     H 6546   4.411   8.036   2.358 -4.5953  1.0886 -0.9930
   50MOL0     H 6547   4.255   8.081   2.536 -1.8732 -0.0470 -0.0195
   50MOL0     H 6548   4.249   7.913   2.586 -6.5915 -0.1184 -0.2898
   50MOL0     H 6549   4.138   8.054   2.353  2.6648 -0.0061  0.7045
   50MOL0     H 6550   4.161   7.873   2.354  0.3591 -1.5096  1.5820
   50MOL0     H 6551   3.937   7.928   2.410  1.8148  0.2005 -1.2573
   50MOL0     H 6552   3.994   8.022   2.551 -3.8660 -0.2251 -0.3858
   50MOL0     H 6553   4.001   7.645   2.404 -2.3914 -1.9011  0.4139
   50MOL0     H 6554   4.106   7.405   2.585  0.5019  0.3897 -2.6455
   50MOL0     H 6555   3.960   7.425   2.500 -2.0527 -0.8496  0.1105
   50MOL0     H 6556   3.833   7.399   2.719  0.7758  0.3964 -0.0391
   50MOL0     H 6557   3.992   7.400   2.801 -1.4473  2.7057  0.8590
   50MOL0     H 6558   3.846   7.171   2.734  1.3971 -0.1420  2.8970
   50MOL0     H 6559   3.900   7.199   2.574 -2.0596  1.9700 -0.2365
   50MOL0     H 6560   4.095   7.167   2.812  3.3359 -1.0180 -0.3133
   50MOL0     H 6561   4.137   7.181   2.643 -1.5947 -0.9420 -1.8318
   50MOL0     H 6562   4.303   7.079   2.832 -0.8644  0.5900  2.9958
   50MOL0     H 6563   4.460   6.920   2.908  0.9687 -0.8058 -1.7654
   50MOL0     H 6564   4.733   6.856   3.125  0.3464  1.2676 -2.8587
   50MOL0     H 6565   4.930   6.789   3.221  0.2164 -1.2826  0.7256
   50MOL0     H 6566   5.109   6.409   3.086 -5.0497 -2.3483 -0.5824
   50MOL0     H 6567   5.055   6.319   3.220 -3.0259  0.7414 -0.7867
   50MOL0     H 6568   5.266   6.535   3.247 -1.1740  0.0854 -0.5518
   50MOL0     H 6569   5.311   6.373   3.216 -1.0982 -2.0917 -1.9585
   50MOL0     H 6570   5.178   6.314   3.425 -0.4431 -0.6914  2.9949
   50MOL0     H 6571   5.157   6.492   3.453 -1.0026 -0.4852 -0.8849
   50MOL0     H 6572   5.411   6.322   3.425  0.9738  0.1792 -1.0619
   50MOL0     H 6573   5.417   6.501   3.455  0.3879 -1.2743 -2.3711
   50MOL0     H 6574   5.350   6.271   3.649 -1.7257  0.7415 -0.1435
   50MOL0     H 6575   5.304   6.428   3.688 -0.5348 -2.5170 -0.0489
   50MOL0     H 6576   5.546   6.497   3.635 -0.3277  0.5804  1.7364
   50MOL0     H 6577   5.582   6.328   3.631 -1.6285 -0.9925 -1.9152
   50MOL0     H 6578   5.630   6.440   3.841 -0.0848  1.1658 -0.1437
   50MOL0     H 6579   5.448   6.452   3.865 -3.5216 -3.9305 -2.1792
   50MOL0     H 6580   5.619   6.208   3.860  0.7843 -1.8008  2.2895
   50MOL0     H 6581   5.434   6.212   3.853  0.7319 -0.4505  0.5083
   50MOL0     H 6582   4.863   6.384   3.083  2.4590  1.6260  0.3149
   50MOL0     H 6583   4.642   6.465   2.994 -3.2514  0.9663  0.8590
   50MOL0     H 6584   4.206   6.587   2.809 -0.7024  0.6977  2.2016
   50MOL0     H 6585   4.054   6.740   2.703  0.6184 -0.9855 -0.3464
   50MOL0     H 6586   5.101   7.806   2.391  2.4466  0.8299 -0.3436
   50MOL0     H 6587   5.336   7.742   2.388 -3.1026  1.4792 -2.3273
   50MOL0     H 6588   5.748   7.720   2.718  0.4826  0.7742 -0.3544
   50MOL0     H 6589   5.970   7.658   2.701  0.2180  0.5565 -0.3957
   50MOL0     H 6590   6.269   7.465   2.582 -0.9455 -0.1967 -0.1992
   50MOL0     H 6591   6.161   7.529   2.691  1.0479  0.1587 -0.0100
   50MOL0     H 6592   6.157   7.751   2.560  1.9974  0.9386 -0.4916
   50MOL0     H 6593   6.322   7.698   2.566 -0.8078  1.6022  1.0617
   50MOL0     H 6594   6.145   7.605   2.342 -1.6527  1.4106 -0.7084
   50MOL0     H 6595   6.313   7.652   2.325 -0.2034 -1.7380 -0.2733
   50MOL0     H 6596   6.140   7.807   2.226 -0.4815  0.3256  0.2884
   50MOL0     H 6597   6.073   7.850   2.380  0.1337 -0.5455  2.6886
   50MOL0     H 6598   6.437   8.079   2.361  0.8063  1.0705  1.3353
   50MOL0     H 6599   5.857   7.381   2.379 -0.6051 -1.5124  1.8846
   50MOL0     H 6600   5.630   7.457   2.410 -4.2325  2.8458  3.5345
   51MOL0     O 6601  10.744  10.516   2.283 -0.9504 -0.4402  0.0152
   51MOL0     C 6602  10.793  10.596   2.202 -0.2501  0.3935  0.2855
   51MOL0     O 6603  10.758  10.732   2.199  0.0716  0.4716 -0.1119
   51MOL0     C 6604  10.646  10.778   2.262  0.6910 -0.4685 -0.7668
   51MOL0     C 6605  10.542  10.829   2.193  0.4157  0.2921  0.4870
   51MOL0     C 6606  10.439  10.886   2.259 -0.5688 -0.5111  0.1350
   51MOL0     C 6607  10.429  10.904   2.398 -0.6142  0.4384  0.0294
   51MOL0     O 6608  10.311  10.961   2.439  0.4966 -0.2323  0.2429
   51MOL0     C 6609  10.307  10.986   2.578  0.2130  0.4030  1.1069
   51MOL0     C 6610  10.170  11.025   2.617 -0.3801  0.2549 -0.2084
   51MOL0     C 6611  10.118  11.149   2.546  0.0958  0.5079 -0.4753
   51MOL0     C 6612   9.964  11.150   2.552  0.3756  0.1109  0.0032
   51MOL0     C 6613   9.891  11.252   2.461 -0.1851 -0.0085  0.1658
   51MOL0     C 6614   9.738  11.251   2.485 -0.0187  0.8035  0.1761
   51MOL0     C 6615   9.722  11.312   2.629  0.2227 -0.4060  1.2921
   51MOL0     C 6616   9.584  11.351   2.656  0.2863 -0.3737 -0.0617
   51MOL0     N 6617   9.491  11.239   2.684 -0.3991 -0.0863 -0.0270
   51MOL0     C 6618   9.528  11.113   2.723  0.3071  0.1976  0.1335
   51MOL0     C 6619   9.407  11.051   2.740  0.2683 -0.6759  0.3294
   51MOL0     C 6620   9.401  10.911   2.786  0.4681  1.0897 -0.2223
   51MOL0     C 6621   9.274  10.873   2.879 -0.4127  0.0555 -0.1269
   51MOL0     C 6622   9.142  10.872   2.795  0.4066 -0.3501 -0.1679
   51MOL0     C 6623   9.025  10.792   2.860  0.3123  0.3328 -0.3055
   51MOL0     O 6624   8.915  10.815   2.767  0.0032 -0.1020 -0.8567
   51MOL0     C 6625   8.795  10.745   2.789 -0.3578 -0.2412 -0.1617
   51MOL0     C 6626   8.683  10.791   2.724 -0.1201 -0.2582  0.2022
   51MOL0     C 6627   8.562  10.743   2.736  0.3234  0.1765  0.0463
   51MOL0     C 6628   8.538  10.625   2.809 -0.0248  0.2070 -0.5548
   51MOL0     C 6629   8.410  10.565   2.823  1.2323  0.4252 -0.7586
   51MOL0     O 6630   8.308  10.612   2.748  0.1092  0.4858 -0.6225
   51MOL0     C 6631   8.195  10.550   2.717 -0.7936  0.3309 -0.8520
   51MOL0     C 6632   8.105  10.504   2.822  1.1268 -0.8691 -0.6255
   51MOL0     C 6633   7.978  10.446   2.794 -0.9847 -0.1878 -0.5310
   51MOL0     C 6634   7.946  10.437   2.659  0.8669  0.6475 -1.1904
   51MOL0     O 6635   7.818  10.394   2.632 -0.4153  0.3334 -0.2352
   51MOL0     C 6636   7.808  10.268   2.567 -0.2208 -0.7423 -0.2136
   51MOL0     C 6637   7.687  10.266   2.465 -0.7834  0.7522 -0.4025
   51MOL0     C 6638   7.554  10.309   2.526  0.4369 -0.1377 -0.1368
   51MOL0     C 6639   7.435  10.291   2.436 -0.5045 -0.6086 -0.3589
   51MOL0     C 6640   7.312  10.325   2.505  1.2077  0.5594  0.1997
   51MOL0     C 6641   7.191  10.320   2.418  0.6064 -0.3440  0.0579
   51MOL0     C 6642   7.149  10.170   2.391  0.2949 -0.6224 -0.2230
   51MOL0     C 6643   7.030  10.170   2.297 -0.3104 -0.9119  0.0004
   51MOL0    Cl 6644   6.892  10.255   2.366  0.4540  0.0274 -0.1045
   51MOL0     C 6645   8.028  10.482   2.558  0.7159  0.3462  0.5114
   51MOL0     C 6646   8.153  10.542   2.579  0.5600  0.7372 -0.1497
   51MOL0     O 6647   8.399  10.494   2.925  0.4015 -0.1114 -0.0881
   51MOL0     C 6648   8.644  10.589   2.889 -0.4801 -0.5959 -0.7728
   51MOL0     C 6649   8.770  10.646   2.875  0.2401  0.7255  0.3199
   51MOL0     N 6650   9.299  11.134   2.704 -1.2223  0.1956 -0.6158
   51MOL0     N 6651   9.354  11.242   2.656 -0.2344 -0.1340 -0.7850
   51MOL0     C 6652  10.537  10.858   2.469  0.7456 -0.2979 -0.1039
   51MOL0     C 6653  10.642  10.804   2.401 -0.4130  0.2019 -0.4401
   51MOL0     C 6654  10.897  10.555   2.108  1.2168 -1.3677  0.5620
   51MOL0     C 6655  10.963  10.432   2.114  0.2297 -0.3953  0.6825
   51MOL0     C 6656  11.076  10.410   2.034  0.4917  0.7955 -0.6181
   51MOL0     C 6657  11.109  10.498   1.933 -0.3534 -0.5924  0.4201
   51MOL0     O 6658  11.222  10.462   1.853  0.2848  0.0549  0.3274
   51MOL0     C 6659  11.263  10.542   1.746  0.0225  0.3591 -0.6262
   51MOL0     C 6660  11.401  10.498   1.691  0.0688  1.4533 -0.1952
   51MOL0     C 6661  11.522  10.527   1.776  0.4939  0.7633  0.3078
   51MOL0     C 6662  11.663  10.512   1.709  0.9140 -0.5432  0.3231
   51MOL0     C 6663  11.704  10.368   1.712  0.4988 -0.8260 -0.7173
   51MOL0     C 6664  11.729  10.245   1.716  0.5223  0.3187 -0.3674
   51MOL0     C 6665  11.040  10.614   1.916  0.5419 -0.8163  0.5683
   51MOL0     C 6666  10.942  10.650   2.015 -0.4731  0.3787  1.6973
   51MOL0     H 6667  10.541  10.810   2.086  0.2858  2.5934  0.0395
   51MOL0     H 6668  10.354  10.904   2.195 -0.1313 -2.2366 -1.0000
   51MOL0     H 6669  10.383  11.059   2.606  1.3242  0.1542 -1.0381
   51MOL0     H 6670  10.328  10.890   2.627  4.7908 -0.4158 -1.8610
   51MOL0     H 6671  10.162  11.036   2.726 -0.8045 -2.5470  0.1015
   51MOL0     H 6672  10.103  10.943   2.590 -1.6190  1.2449 -0.2272
   51MOL0     H 6673  10.146  11.125   2.443 -0.5912 -0.4016 -0.4594
   51MOL0     H 6674  10.159  11.242   2.588 -2.7432  2.2716 -1.3256
   51MOL0     H 6675   9.921  11.052   2.528 -1.4571  1.0634 -0.7041
   51MOL0     H 6676   9.949  11.181   2.656  0.1038  0.1727 -0.0561
   51MOL0     H 6677   9.898  11.220   2.356 -2.1131  0.9612 -0.2999
   51MOL0     H 6678   9.928  11.352   2.484  1.2918 -0.6492  0.7007
   51MOL0     H 6679   9.699  11.148   2.480 -1.2521  1.1990  1.0305
   51MOL0     H 6680   9.695  11.322   2.415 -3.1376 -0.5860  0.4732
   51MOL0     H 6681   9.752  11.246   2.711 -3.6030 -2.3435  1.3748
   51MOL0     H 6682   9.790  11.396   2.644 -0.8619  0.7456  0.0923
   51MOL0     H 6683   9.548  11.413   2.574 -1.1233 -0.1363  0.7016
   51MOL0     H 6684   9.586  11.401   2.753 -3.5162  0.3824 -0.2091
   51MOL0     H 6685   9.628  11.073   2.739  0.3871 -1.1414 -2.9889
   51MOL0     H 6686   9.489  10.892   2.849  0.2934 -0.5669 -0.4420
   51MOL0     H 6687   9.414  10.837   2.706  2.4887  3.1954 -1.9917
   51MOL0     H 6688   9.261  10.949   2.957  0.7209  0.7086 -0.5446
   51MOL0     H 6689   9.298  10.781   2.933 -0.3171 -0.0051 -0.2764
   51MOL0     H 6690   9.107  10.973   2.771 -0.8749 -0.8486 -0.5234
   51MOL0     H 6691   9.156  10.825   2.697 -1.0363 -1.4732  0.1173
   51MOL0     H 6692   8.999  10.836   2.956 -1.0902 -1.8341  0.3808
   51MOL0     H 6693   9.054  10.687   2.868  2.2423  0.8115 -0.3984
   51MOL0     H 6694   8.691  10.872   2.653 -1.2264 -1.4263 -1.3282
   51MOL0     H 6695   8.488  10.769   2.660  1.2247  0.1875 -0.8417
   51MOL0     H 6696   8.128  10.524   2.926  1.1385 -0.0462 -0.7757
   51MOL0     H 6697   7.903  10.422   2.868 -1.3525 -1.9798 -1.4217
   51MOL0     H 6698   7.784  10.189   2.639  0.2878 -2.1321 -1.4938
   51MOL0     H 6699   7.902  10.246   2.516  0.7553  2.1397  0.2124
   51MOL0     H 6700   7.677  10.161   2.435 -1.3405  0.8196 -0.4614
   51MOL0     H 6701   7.709  10.331   2.381  1.8092 -0.6006 -0.8904
   51MOL0     H 6702   7.565  10.414   2.555 -0.7882  0.1453 -0.6426
   51MOL0     H 6703   7.535  10.240   2.609  1.5607 -1.7891 -1.1658
   51MOL0     H 6704   7.446  10.363   2.355 -2.6018  0.2066  0.0019
   51MOL0     H 6705   7.425  10.192   2.390  2.6631 -0.2414 -2.1105
   51MOL0     H 6706   7.320  10.432   2.529 -2.2297  0.4259  2.7407
   51MOL0     H 6707   7.292  10.274   2.600  0.3180 -0.1968 -0.3727
   51MOL0     H 6708   7.203  10.363   2.318 -0.8301  0.7916  0.3297
   51MOL0     H 6709   7.103  10.368   2.462  0.9874 -0.2267  0.7071
   51MOL0     H 6710   7.226  10.114   2.336  0.4343 -0.2672 -0.3958
   51MOL0     H 6711   7.113  10.129   2.485 -1.6835  1.4832  0.0132
   51MOL0     H 6712   7.011  10.062   2.295 -0.9098 -0.8327 -2.8841
   51MOL0     H 6713   7.061  10.207   2.200 -1.5669 -1.2746 -0.5676
   51MOL0     H 6714   7.987  10.476   2.457 -2.0521 -1.2960  1.6146
   51MOL0     H 6715   8.220  10.574   2.500 -0.4381 -2.2035 -2.3653
   51MOL0     H 6716   8.651  10.506   2.959  3.7398 -0.6904 -1.0733
   51MOL0     H 6717   8.857  10.602   2.923 -0.2048  0.8679  1.2733
   51MOL0     H 6718  10.545  10.870   2.576 -1.4678  0.6437  0.0105
   51MOL0     H 6719  10.727  10.775   2.463 -0.5292 -3.1942 -1.6562
   51MOL0     H 6720  10.934  10.357   2.187  3.3057 -1.7787  0.6521
   51MOL0     H 6721  11.118  10.310   2.042  1.7319  1.2141 -1.5647
   51MOL0     H 6722  11.271  10.645   1.782 -1.6929  0.5185 -0.6375
   51MOL0     H 6723  11.186  10.545   1.668  0.9417 -0.5367 -1.5975
   51MOL0     H 6724  11.385  10.391   1.678 -1.3134  1.0448  3.6619
   51MOL0     H 6725  11.410  10.547   1.594 -2.2276  0.6419 -0.8702
   51MOL0     H 6726  11.512  10.465   1.866 -2.3983 -0.2517 -0.5859
   51MOL0     H 6727  11.506  10.632   1.804 -1.6080  0.5200  0.1939
   51MOL0     H 6728  11.662  10.550   1.606  1.9340  3.0509  1.4885
   51MOL0     H 6729  11.734  10.577   1.759 -0.3371 -0.4123  2.0223
   51MOL0     H 6730  11.758  10.141   1.718 -1.9548 -0.4329 -0.6122
   51MOL0     H 6731  11.065  10.677   1.831 -0.1762  0.1388  1.0550
   51MOL0     H 6732  10.893  10.747   2.003 -0.5880  0.2333  0.8963
   52MOL0     O 6733   3.110   4.868  10.099  0.5041  0.4341 -0.1482
   52MOL0     C 6734   3.212   4.803  10.072 -0.9552 -0.0801  0.0093
   52MOL0     O 6735   3.216   4.681  10.013 -0.4614  0.3230  0.0716
   52MOL0     C 6736   3.119   4.634   9.932 -0.0354  0.5907 -0.0061
   52MOL0     C 6737   3.154   4.516   9.866 -0.4356  0.1319 -0.1849
   52MOL0     C 6738   3.075   4.460   9.763  0.0869 -0.8006 -0.6649
   52MOL0     C 6739   2.948   4.512   9.736  0.5407 -0.5058 -0.4093
   52MOL0     O 6740   2.868   4.435   9.655 -0.4583 -0.1139 -0.0769
   52MOL0     C 6741   2.732   4.427   9.695 -0.3315 -0.7015  0.2749
   52MOL0     C 6742   2.682   4.292   9.718  0.2948  0.3055  0.2054
   52MOL0     C 6743   2.542   4.316   9.789 -0.2400 -0.2694 -0.3645
   52MOL0     C 6744   2.458   4.191   9.782  1.1090  0.4785 -0.1150
   52MOL0     C 6745   2.348   4.184   9.895 -0.1125  0.7463  0.8008
   52MOL0     C 6746   2.281   4.317   9.924 -0.9865 -0.2584 -0.1832
   52MOL0     C 6747   2.145   4.289   9.993  0.0820  1.1649  0.9181
   52MOL0     C 6748   2.155   4.215  10.124 -0.9852  0.4181  0.1207
   52MOL0     N 6749   2.023   4.200  10.196 -0.1893  0.6595 -0.7766
   52MOL0     C 6750   1.935   4.305  10.222 -0.1009  1.5215 -0.0478
   52MOL0     C 6751   1.822   4.250  10.275  0.4744  0.0194 -0.0714
   52MOL0     C 6752   1.709   4.328  10.345  0.6772  0.6041  0.0611
   52MOL0     C 6753   1.577   4.323  10.262 -0.4335  0.3012 -0.1621
   52MOL0     C 6754   1.590   4.402  10.131 -0.0404 -0.7700 -0.1338
   52MOL0     C 6755   1.558   4.551  10.150 -0.0109  0.4331 -0.8343
   52MOL0     O 6756   1.675   4.620  10.215  0.2858  0.2484  0.3234
   52MOL0     C 6757   1.798   4.641  10.150  0.2386 -0.4062  0.4898
   52MOL0     C 6758   1.911   4.661  10.236 -0.1148  0.8093  0.5991
   52MOL0     C 6759   2.038   4.686  10.192  0.1490  0.2376 -0.3807
   52MOL0     C 6760   2.066   4.677  10.052 -0.2958 -0.1121 -0.3197
   52MOL0     C 6761   2.200   4.687   9.995 -0.8707  0.0761 -0.3829
   52MOL0     O 6762   2.204   4.710   9.866 -0.1604  0.1059 -0.3556
   52MOL0     C 6763   2.324   4.715   9.801 -0.4753 -0.2238  0.9816
   52MOL0     C 6764   2.329   4.657   9.677  0.1295  0.5608 -0.6495
   52MOL0     C 6765   2.452   4.657   9.611  0.3080  0.7485  0.4672
   52MOL0     C 6766   2.568   4.726   9.652 -0.1317 -0.1260 -0.1851
   52MOL0     O 6767   2.696   4.746   9.594  0.0939 -0.7317 -0.0453
   52MOL0     C 6768   2.708   4.700   9.459  0.0116  0.2447  0.2310
   52MOL0     C 6769   2.854   4.689   9.409 -0.0205 -0.1903 -0.3923
   52MOL0     C 6770   2.937   4.819   9.415 -0.3315 -0.3997 -0.0422
   52MOL0     C 6771   3.050   4.830   9.303  0.3569  0.0573  0.3864
   52MOL0     C 6772   3.186   4.823   9.382 -0.5607 -0.0803 -0.2225
   52MOL0     C 6773   3.219   4.684   9.443 -0.2452  0.0359 -0.3362
   52MOL0     C 6774   3.349   4.695   9.516 -0.6057 -0.4452  0.0229
   52MOL0     C 6775   3.349   4.785   9.641  0.6436  0.1085  0.1124
   52MOL0    Cl 6776   3.515   4.790   9.710 -0.0793  0.2566 -0.0667
   52MOL0     C 6777   2.554   4.776   9.777 -0.4705  0.2692 -0.7012
   52MOL0     C 6778   2.438   4.779   9.849  0.4244 -0.0376 -0.2903
   52MOL0     O 6779   2.298   4.684  10.075  0.2305  0.2066  0.2445
   52MOL0     C 6780   1.955   4.653   9.968  0.6051 -0.5451 -0.3512
   52MOL0     C 6781   1.822   4.632  10.019 -0.8126  0.2689 -0.9991
   52MOL0     N 6782   1.841   4.108  10.278  0.0746 -0.3954  0.1784
   52MOL0     N 6783   1.955   4.081  10.219  0.1921 -0.2749 -0.0778
   52MOL0     C 6784   2.921   4.634   9.792  0.0490  0.1584 -0.0093
   52MOL0     C 6785   3.001   4.706   9.884 -0.1354  0.5007 -0.2144
   52MOL0     C 6786   3.346   4.869  10.110 -0.0234 -0.5333 -0.3382
   52MOL0     C 6787   3.348   5.006  10.150  0.0072  0.9210 -0.2895
   52MOL0     C 6788   3.468   5.071  10.185  0.5808  0.6296  1.1861
   52MOL0     C 6789   3.593   4.994  10.184  0.3914  0.1579  0.3620
   52MOL0     O 6790   3.717   5.042  10.221 -0.3508  0.6958 -0.7101
   52MOL0     C 6791   3.737   5.149  10.318 -1.4199  0.1535  0.4761
   52MOL0     C 6792   3.884   5.196  10.310  0.2299  0.3427  0.8172
   52MOL0     C 6793   3.993   5.085  10.321  0.0796 -0.4606  0.0184
   52MOL0     C 6794   4.145   5.132  10.336  0.7531 -0.5985  0.6307
   52MOL0     C 6795   4.227   5.014  10.309 -0.1741 -0.5081 -0.0945
   52MOL0     C 6796   4.292   4.925  10.262  0.0622  0.0412 -0.3011
   52MOL0     C 6797   3.589   4.860  10.143 -0.4934 -0.2265  0.2849
   52MOL0     C 6798   3.464   4.798  10.114 -0.4037  0.4746 -0.2499
   52MOL0     H 6799   3.251   4.476   9.895  0.3771  1.4760 -0.9578
   52MOL0     H 6800   3.103   4.368   9.712  0.7875  0.2675 -2.2924
   52MOL0     H 6801   2.679   4.468   9.609  0.5582  3.6035  1.4925
   52MOL0     H 6802   2.708   4.491   9.781 -2.9010 -0.9845 -0.1682
   52MOL0     H 6803   2.751   4.229   9.774  1.1038  0.3273 -0.7330
   52MOL0     H 6804   2.661   4.246   9.621  0.6057  1.1173 -0.2591
   52MOL0     H 6805   2.489   4.392   9.731 -2.8043 -1.7796 -0.1781
   52MOL0     H 6806   2.558   4.353   9.891  0.2653  1.4615 -1.0465
   52MOL0     H 6807   2.407   4.197   9.685  0.5092  1.9361  0.2701
   52MOL0     H 6808   2.520   4.101   9.778  0.1210 -0.2296 -4.3347
   52MOL0     H 6809   2.396   4.152   9.988  1.3321 -2.2257 -0.8263
   52MOL0     H 6810   2.276   4.108   9.863  1.7980 -0.4114 -0.9730
   52MOL0     H 6811   2.274   4.370   9.829  1.6770  0.6253  0.0365
   52MOL0     H 6812   2.342   4.371   9.997 -3.7555 -0.5224  2.5156
   52MOL0     H 6813   2.085   4.378  10.011 -3.3525 -1.0141  1.2064
   52MOL0     H 6814   2.078   4.233   9.928  1.1441  0.3345  0.5025
   52MOL0     H 6815   2.225   4.275  10.184 -0.7369  1.2681 -0.9941
   52MOL0     H 6816   2.197   4.115  10.110 -1.2242  0.1886  1.0030
   52MOL0     H 6817   1.962   4.410  10.218  2.8421  0.8495 -0.1863
   52MOL0     H 6818   1.738   4.432  10.362  0.8540  0.3512  1.4394
   52MOL0     H 6819   1.698   4.278  10.442  1.7541 -1.2704 -0.7295
   52MOL0     H 6820   1.486   4.339  10.320  1.3913  0.0818  3.0085
   52MOL0     H 6821   1.547   4.219  10.244 -0.1694 -0.2079  1.9748
   52MOL0     H 6822   1.690   4.403  10.087  0.8864  0.1110  1.8542
   52MOL0     H 6823   1.514   4.364  10.062  0.8619 -2.2085 -0.3751
   52MOL0     H 6824   1.475   4.571  10.218  0.9615  1.7628  0.0147
   52MOL0     H 6825   1.536   4.604  10.057 -1.2788  2.0501  0.3295
   52MOL0     H 6826   1.893   4.662  10.343 -0.3751  0.1239  0.5669
   52MOL0     H 6827   2.127   4.702  10.252 -0.2372 -3.5087  1.4839
   52MOL0     H 6828   2.243   4.606   9.634 -0.7513  1.4579 -0.0057
   52MOL0     H 6829   2.450   4.616   9.510 -2.4122  2.7232 -0.4272
   52MOL0     H 6830   2.655   4.763   9.387 -0.5968 -1.8493 -1.2506
   52MOL0     H 6831   2.665   4.601   9.448  0.7325  0.1345 -2.5089
   52MOL0     H 6832   2.837   4.664   9.304 -0.8722 -1.7165  0.0674
   52MOL0     H 6833   2.906   4.607   9.461 -0.9538 -0.2520  0.4833
   52MOL0     H 6834   2.974   4.821   9.518  0.1414  0.8351 -0.2285
   52MOL0     H 6835   2.878   4.911   9.405  1.1633  0.3707 -2.4926
   52MOL0     H 6836   3.047   4.742   9.238 -0.5799  0.6552 -0.3956
   52MOL0     H 6837   3.036   4.920   9.243 -2.8965 -1.2854 -1.1145
   52MOL0     H 6838   3.195   4.899   9.460  0.2866  1.9157 -2.1431
   52MOL0     H 6839   3.251   4.845   9.296 -1.2406  0.7645 -0.5279
   52MOL0     H 6840   3.229   4.606   9.367  3.9636 -2.5295  2.4398
   52MOL0     H 6841   3.133   4.660   9.506 -2.4667  0.4914 -2.9669
   52MOL0     H 6842   3.370   4.597   9.561 -1.1491 -0.1897  0.8463
   52MOL0     H 6843   3.422   4.732   9.443  0.2305  4.5332  2.9536
   52MOL0     H 6844   3.274   4.740   9.707  2.0979 -2.2753  0.2642
   52MOL0     H 6845   3.327   4.891   9.626  2.7797  0.6269  0.2833
   52MOL0     H 6846   2.645   4.819   9.817 -0.8254  1.0495 -0.7062
   52MOL0     H 6847   2.442   4.825   9.948 -1.4849  1.3131 -0.7812
   52MOL0     H 6848   1.964   4.630   9.863 -2.3356 -1.4795 -0.4770
   52MOL0     H 6849   1.741   4.618   9.949 -0.0076  3.3492 -2.7435
   52MOL0     H 6850   2.829   4.691   9.778  1.1264  1.7647 -0.8314
   52MOL0     H 6851   2.966   4.802   9.922 -2.1489  0.9776 -2.9527
   52MOL0     H 6852   3.257   5.065  10.143 -0.7515 -0.1496  0.3293
   52MOL0     H 6853   3.462   5.178  10.202  1.4549  0.6076  1.7058
   52MOL0     H 6854   3.728   5.109  10.419 -2.9453  1.9486  1.1049
   52MOL0     H 6855   3.669   5.232  10.298 -1.1993  0.8562  2.5034
   52MOL0     H 6856   3.905   5.237  10.211 -4.0213  2.4410  0.5591
   52MOL0     H 6857   3.898   5.276  10.385 -1.1947  0.4559  0.9832
   52MOL0     H 6858   3.989   5.020  10.233  1.9277  0.0017 -0.4489
   52MOL0     H 6859   3.973   5.031  10.414  0.9601 -0.0599  0.4420
   52MOL0     H 6860   4.159   5.209  10.259 -0.4995 -0.6643  0.3069
   52MOL0     H 6861   4.166   5.172  10.436 -4.4635 -2.0111  2.6361
   52MOL0     H 6862   4.344   4.846  10.211 -0.3489  0.7652 -1.8893
   52MOL0     H 6863   3.683   4.807  10.135  0.1254  0.8000  0.5856
   52MOL0     H 6864   3.475   4.695  10.083  3.0032  0.9890 -1.2224
   53MOL0     O 6865  10.903   8.795   6.423 -0.5222  0.7100 -0.1552
   53MOL0     C 6866  10.953   8.810   6.541 -0.0562  0.4932  0.7783
   53MOL0     O 6867  10.892   8.860   6.652  0.1132 -0.1353 -0.5148
   53MOL0     C 6868  10.761   8.886   6.671  0.1700  0.2707 -0.4097
   53MOL0     C 6869  10.666   8.910   6.568  0.6703  0.6321 -0.1843
   53MOL0     C 6870  10.531   8.938   6.590 -0.7767  0.3600  0.6324
   53MOL0     C 6871  10.483   8.952   6.720  0.1657  0.1109 -0.5962
   53MOL0     O 6872  10.353   8.976   6.750 -0.0097  0.3212  0.0665
   53MOL0     C 6873  10.254   8.981   6.652 -0.0497  0.2166 -0.0232
   53MOL0     C 6874  10.120   8.940   6.711 -0.4549  0.8438 -0.1775
   53MOL0     C 6875  10.069   9.026   6.835  0.0077 -0.2201  0.3108
   53MOL0     C 6876  10.058   9.171   6.808 -0.8352  0.1750 -0.8143
   53MOL0     C 6877   9.982   9.250   6.919 -0.0731  0.2583 -0.8681
   53MOL0     C 6878   9.909   9.378   6.866  0.9770  0.7359  0.3883
   53MOL0     C 6879   9.778   9.359   6.782  0.3429  0.9141  0.4481
   53MOL0     C 6880   9.646   9.356   6.857 -0.2927  0.0252 -1.2901
   53MOL0     N 6881   9.626   9.234   6.946  0.0513 -0.2353 -0.2465
   53MOL0     C 6882   9.534   9.228   7.041 -0.5560  0.6845 -0.4762
   53MOL0     C 6883   9.531   9.094   7.078  0.1539 -0.8547  0.1752
   53MOL0     C 6884   9.442   9.050   7.185  0.5384  0.0902  0.4281
   53MOL0     C 6885   9.443   8.897   7.209  0.7708  0.0659  0.4037
   53MOL0     C 6886   9.361   8.869   7.337 -0.1524  0.5821  0.2520
   53MOL0     C 6887   9.223   8.938   7.347 -0.5801 -0.6143  0.9786
   53MOL0     O 6888   9.140   8.876   7.249 -0.1847  0.0822  0.4349
   53MOL0     C 6889   9.006   8.865   7.274 -0.0276  1.2052  0.4070
   53MOL0     C 6890   8.930   8.925   7.373 -0.1982  0.2070 -0.3449
   53MOL0     C 6891   8.791   8.918   7.384 -0.9402 -1.2511 -0.0978
   53MOL0     C 6892   8.728   8.822   7.306  0.2386  0.0452 -0.2792
   53MOL0     C 6893   8.583   8.799   7.335  0.2805  0.4300  0.7704
   53MOL0     O 6894   8.538   8.847   7.449 -0.0959  0.2115  0.3074
   53MOL0     C 6895   8.399   8.842   7.479 -0.0989 -1.2125 -0.3020
   53MOL0     C 6896   8.378   8.865   7.619 -0.5651  0.2313 -0.6460
   53MOL0     C 6897   8.248   8.863   7.669  0.1762 -0.4657  0.1296
   53MOL0     C 6898   8.137   8.834   7.589 -0.4715  0.2667 -0.7092
   53MOL0     O 6899   8.009   8.825   7.635 -0.0701 -0.0848  0.5473
   53MOL0     C 6900   7.997   8.777   7.767 -0.2960 -0.2644  0.4117
   53MOL0     C 6901   7.840   8.757   7.777  0.0187 -0.8725  0.4252
   53MOL0     C 6902   7.762   8.893   7.766  0.9668 -1.1003  0.4013
   53MOL0     C 6903   7.607   8.864   7.780 -0.6569 -0.0226  0.0778
   53MOL0     C 6904   7.522   8.965   7.694 -0.8393 -0.1686  0.1618
   53MOL0     C 6905   7.376   8.968   7.739  0.2410  0.3299 -0.0596
   53MOL0     C 6906   7.310   9.101   7.697  0.2795 -0.2586  0.5329
   53MOL0     C 6907   7.170   9.116   7.749 -0.2576 -0.5352 -0.2680
   53MOL0    Cl 6908   7.096   9.269   7.706 -0.0082 -0.1027  0.1645
   53MOL0     C 6909   8.161   8.820   7.457  0.8911  0.7409  0.1043
   53MOL0     C 6910   8.287   8.817   7.393 -0.2132  0.9514  0.4178
   53MOL0     O 6911   8.522   8.743   7.248 -0.4614  0.1836  0.4795
   53MOL0     C 6912   8.796   8.759   7.198 -0.3478  0.8748  0.0352
   53MOL0     C 6913   8.935   8.783   7.177 -0.0227 -0.4781 -0.2338
   53MOL0     N 6914   9.610   9.020   6.995 -1.0706  0.3214  0.5139
   53MOL0     N 6915   9.667   9.106   6.920 -0.2468  0.2047  0.8216
   53MOL0     C 6916  10.565   8.912   6.826  0.4941 -0.7580 -0.4309
   53MOL0     C 6917  10.705   8.882   6.802 -0.0450  0.0859  0.4926
   53MOL0     C 6918  11.096   8.777   6.555  0.0770  0.0371  0.1651
   53MOL0     C 6919  11.154   8.788   6.680  0.3301  0.2125  0.2145
   53MOL0     C 6920  11.285   8.741   6.700  0.5298 -0.1721  0.4776
   53MOL0     C 6921  11.357   8.679   6.591  0.0128 -0.0939 -0.4586
   53MOL0     O 6922  11.483   8.635   6.607  1.1343 -0.4131 -0.0735
   53MOL0     C 6923  11.490   8.506   6.655 -0.1272 -0.0310 -0.0224
   53MOL0     C 6924  11.510   8.402   6.539 -0.1139 -0.3267  0.5282
   53MOL0     C 6925  11.578   8.271   6.580 -0.3696 -0.3423 -0.3505
   53MOL0     C 6926  11.618   8.187   6.464 -0.6228 -0.1195  0.7349
   53MOL0     C 6927  11.512   8.120   6.389  0.1355  0.5891 -0.2168
   53MOL0     C 6928  11.431   8.062   6.315 -0.6773 -0.8697  0.1987
   53MOL0     C 6929  11.306   8.682   6.464  0.3957  0.6378 -0.1382
   53MOL0     C 6930  11.176   8.720   6.447 -0.0960  0.0639 -0.7185
   53MOL0     H 6931  10.708   8.897   6.469 -0.9639 -2.2619 -0.6411
   53MOL0     H 6932  10.479   8.957   6.497 -0.7219 -0.0289  0.5213
   53MOL0     H 6933  10.276   8.920   6.564 -3.4595  1.7311 -2.1330
   53MOL0     H 6934  10.263   9.085   6.619 -0.5817  0.6822  1.2377
   53MOL0     H 6935  10.131   8.835   6.739  3.0377  1.0760 -0.1821
   53MOL0     H 6936  10.046   8.945   6.630 -2.4942 -2.5537  1.2819
   53MOL0     H 6937  10.143   9.023   6.915 -1.3965  2.6923  1.8687
   53MOL0     H 6938   9.975   8.989   6.876  0.1165 -0.3261  0.4658
   53MOL0     H 6939  10.158   9.213   6.799 -0.6190  0.4956  2.0130
   53MOL0     H 6940  10.011   9.188   6.711  1.4127  0.7374 -1.8614
   53MOL0     H 6941  10.045   9.276   7.005  2.2198 -2.9413 -1.4112
   53MOL0     H 6942   9.900   9.185   6.952  0.4431 -0.4233 -0.9161
   53MOL0     H 6943   9.969   9.441   6.800 -0.3554  2.9752  1.2135
   53MOL0     H 6944   9.873   9.422   6.959  1.2184 -0.3868  1.0340
   53MOL0     H 6945   9.760   9.437   6.708 -0.7467  2.0600  1.8707
   53MOL0     H 6946   9.780   9.271   6.716 -0.6162  0.9473  0.3583
   53MOL0     H 6947   9.567   9.358   6.781 -3.1960  0.7662  1.5205
   53MOL0     H 6948   9.628   9.452   6.906  1.4257 -0.3049  0.0526
   53MOL0     H 6949   9.466   9.308   7.068 -0.1114  0.5003  1.3360
   53MOL0     H 6950   9.346   9.082   7.143  0.2509 -0.0246  0.9866
   53MOL0     H 6951   9.454   9.106   7.279  1.5903 -1.5846  1.3470
   53MOL0     H 6952   9.548   8.870   7.228  1.4061  2.4220  0.6601
   53MOL0     H 6953   9.402   8.840   7.126  1.8361 -0.5828  0.2954
   53MOL0     H 6954   9.344   8.762   7.344 -1.5626  0.8649  2.1351
   53MOL0     H 6955   9.414   8.905   7.426  1.9143  1.7579 -1.3515
   53MOL0     H 6956   9.222   9.043   7.315  2.9491 -1.0376 -1.1184
   53MOL0     H 6957   9.190   8.923   7.450  1.8773  2.6307  2.4390
   53MOL0     H 6958   8.982   8.987   7.446 -0.6829 -0.6846  0.7809
   53MOL0     H 6959   8.741   8.961   7.471 -1.2175 -0.2769 -0.7263
   53MOL0     H 6960   8.464   8.887   7.682 -0.8148  0.6160 -0.4396
   53MOL0     H 6961   8.227   8.896   7.770 -2.1542 -1.0189 -0.1146
   53MOL0     H 6962   8.036   8.848   7.841  0.3178  0.5012 -0.6320
   53MOL0     H 6963   8.056   8.686   7.782  1.9408  1.1515  0.5305
   53MOL0     H 6964   7.824   8.722   7.880  1.5392  1.7296  1.6398
   53MOL0     H 6965   7.797   8.689   7.703 -0.1838 -0.0532 -0.2294
   53MOL0     H 6966   7.777   8.944   7.670 -1.8297 -0.2348  0.3412
   53MOL0     H 6967   7.794   8.963   7.844 -3.3555  0.3639  1.1083
   53MOL0     H 6968   7.585   8.764   7.742 -1.8023 -0.8249  2.6051
   53MOL0     H 6969   7.566   8.869   7.882 -0.6408 -2.1967  0.2399
   53MOL0     H 6970   7.526   8.945   7.587 -1.5999 -0.4827  0.1875
   53MOL0     H 6971   7.578   9.059   7.698  0.1379 -0.7490  0.5327
   53MOL0     H 6972   7.378   8.966   7.849 -1.5594 -0.4629 -0.0154
   53MOL0     H 6973   7.323   8.884   7.695 -0.7439 -0.4814  2.4848
   53MOL0     H 6974   7.367   9.186   7.736  0.7139  0.5462 -1.7454
   53MOL0     H 6975   7.302   9.107   7.589 -1.7796 -2.8072  0.4665
   53MOL0     H 6976   7.178   9.107   7.858 -0.7522 -0.7167 -0.2452
   53MOL0     H 6977   7.099   9.038   7.719  0.8022 -1.1723 -1.2142
   53MOL0     H 6978   8.071   8.819   7.395  0.8633  2.1091  0.0921
   53MOL0     H 6979   8.296   8.795   7.287  0.4301 -2.3976  1.0447
   53MOL0     H 6980   8.744   8.685   7.137 -1.9840  2.1142 -0.1365
   53MOL0     H 6981   8.980   8.715   7.105 -2.2002 -2.3833  0.0785
   53MOL0     H 6982  10.524   8.906   6.926 -0.8061 -1.4398 -0.9885
   53MOL0     H 6983  10.775   8.860   6.881 -1.7015 -1.3588  1.6391
   53MOL0     H 6984  11.104   8.829   6.767  1.3958  0.2980  0.8167
   53MOL0     H 6985  11.315   8.754   6.803 -2.4739  2.9877  1.1446
   53MOL0     H 6986  11.411   8.468   6.720 -0.4728  0.0361 -0.4024
   53MOL0     H 6987  11.578   8.500   6.720 -1.0842  0.0667  1.3304
   53MOL0     H 6988  11.409   8.386   6.500 -0.3518 -0.4887  1.1922
   53MOL0     H 6989  11.562   8.453   6.458  1.5454 -0.9315  1.1676
   53MOL0     H 6990  11.507   8.222   6.648 -0.0908  2.0902  1.8393
   53MOL0     H 6991  11.677   8.291   6.619 -1.0289 -2.1048  2.5012
   53MOL0     H 6992  11.673   8.246   6.390 -0.0098 -3.2714 -1.5381
   53MOL0     H 6993  11.679   8.106   6.504  1.2340 -0.0151 -1.6488
   53MOL0     H 6994  11.370   8.007   6.246 -0.2022  1.3455 -2.1306
   53MOL0     H 6995  11.356   8.639   6.378  0.0317  1.2532 -0.6694
   53MOL0     H 6996  11.124   8.707   6.352 -1.4711 -0.3007  0.0599
   54MOL0     O 6997  10.914   9.933   6.261 -1.1392  0.0971 -0.4149
   54MOL0     C 6998  10.966  10.018   6.192 -0.6818  0.1134  0.0160
   54MOL0     O 6999  10.894  10.132   6.163  0.0260  0.4794 -0.8545
   54MOL0     C 7000  10.758  10.137   6.185  0.6562 -0.2779  0.3677
   54MOL0     C 7001  10.704  10.246   6.259  0.1481 -0.0047  0.7297
   54MOL0     C 7002  10.567  10.245   6.289 -0.7508  0.4779  0.7607
   54MOL0     C 7003  10.490  10.132   6.251  0.0751 -0.4751 -0.4004
   54MOL0     O 7004  10.363  10.109   6.300  0.1111  0.5768  0.6724
   54MOL0     C 7005  10.293  10.221   6.359 -0.1408  0.4938 -0.2127
   54MOL0     C 7006  10.152  10.216   6.306 -0.0813  0.5566 -0.3959
   54MOL0     C 7007  10.083  10.084   6.336  0.5331  0.8532 -0.1273
   54MOL0     C 7008   9.954  10.074   6.250  0.0956  0.4362  0.1092
   54MOL0     C 7009   9.853   9.964   6.308 -0.4334 -1.0373  0.3480
   54MOL0     C 7010   9.736   9.937   6.213  0.9831 -0.4383 -0.1411
   54MOL0     C 7011   9.668   9.803   6.259 -0.1908 -0.4144 -0.0625
   54MOL0     C 7012   9.588   9.798   6.393 -0.5581 -0.4628 -0.4419
   54MOL0     N 7013   9.514   9.676   6.418 -0.3936 -0.0576  0.4901
   54MOL0     C 7014   9.397   9.645   6.355 -0.3491 -0.0568  0.8748
   54MOL0     C 7015   9.365   9.523   6.412  0.8544  0.3741  0.9812
   54MOL0     C 7016   9.259   9.428   6.379  0.5939  0.4289 -0.1585
   54MOL0     C 7017   9.209   9.442   6.230  0.1654 -0.1689  1.9622
   54MOL0     C 7018   9.104   9.331   6.194  0.4124 -0.2459 -0.4494
   54MOL0     C 7019   8.962   9.349   6.238  0.9641 -1.0213 -0.3087
   54MOL0     O 7020   8.943   9.422   6.358  0.1106 -0.0377  0.2376
   54MOL0     C 7021   8.825   9.427   6.419  0.3646  0.1824  0.2323
   54MOL0     C 7022   8.815   9.516   6.524 -0.1304 -0.0421  0.4992
   54MOL0     C 7023   8.687   9.532   6.583  0.3211  0.8397 -0.7158
   54MOL0     C 7024   8.572   9.453   6.552 -0.7364 -0.6657 -0.3316
   54MOL0     C 7025   8.444   9.467   6.624 -0.2898 -0.0923  0.4292
   54MOL0     O 7026   8.361   9.368   6.622 -0.0827  0.2683 -0.9248
   54MOL0     C 7027   8.243   9.382   6.704 -0.5299 -0.7404  0.2250
   54MOL0     C 7028   8.126   9.420   6.649  0.4329 -0.0389  0.2620
   54MOL0     C 7029   8.011   9.446   6.734 -0.0941  0.5822  0.3679
   54MOL0     C 7030   8.023   9.432   6.873 -0.0098 -0.6510  0.3341
   54MOL0     O 7031   7.920   9.455   6.958 -0.3284 -0.5118  0.8234
   54MOL0     C 7032   7.782   9.459   6.906  0.4138  0.0873  0.3636
   54MOL0     C 7033   7.696   9.490   7.033 -0.2506 -1.1105  0.1569
   54MOL0     C 7034   7.544   9.489   7.004 -0.1119  1.0069 -0.1881
   54MOL0     C 7035   7.500   9.373   6.905  0.4039 -0.3258  0.4272
   54MOL0     C 7036   7.347   9.347   6.921  1.4105 -0.6660  0.1935
   54MOL0     C 7037   7.266   9.461   6.862  0.1134 -1.1279  0.1000
   54MOL0     C 7038   7.285   9.488   6.708  0.3298  0.2787  0.3843
   54MOL0     C 7039   7.192   9.592   6.649  0.3330 -0.7473  0.3197
   54MOL0    Cl 7040   7.017   9.551   6.659 -0.3710  0.3285  0.3366
   54MOL0     C 7041   8.146   9.392   6.925  0.7610 -0.3010 -0.1811
   54MOL0     C 7042   8.260   9.365   6.838  0.6444  0.1143 -0.3504
   54MOL0     O 7043   8.425   9.579   6.683 -0.8369 -0.2441  0.4822
   54MOL0     C 7044   8.590   9.346   6.466  0.6427 -0.6032 -0.0021
   54MOL0     C 7045   8.713   9.334   6.399 -0.0773 -0.1344  0.1867
   54MOL0     N 7046   9.462   9.485   6.508  0.4391  0.2146  0.3968
   54MOL0     N 7047   9.551   9.583   6.508  0.5517 -0.4196 -0.2947
   54MOL0     C 7048  10.538  10.032   6.174 -0.4338  0.9742  0.3074
   54MOL0     C 7049  10.674  10.031   6.142  0.0596  0.2984 -0.9881
   54MOL0     C 7050  11.110   9.995   6.175 -0.3990  0.2062 -0.7492
   54MOL0     C 7051  11.189   9.901   6.253  0.2861 -0.1713 -0.3907
   54MOL0     C 7052  11.323   9.885   6.226 -0.6592 -0.1775 -1.0525
   54MOL0     C 7053  11.386   9.950   6.120 -0.4107  0.4591  0.4401
   54MOL0     O 7054  11.513   9.929   6.085 -0.0138  0.1851  0.6763
   54MOL0     C 7055  11.614   9.911   6.188  0.1037 -0.5074  0.1554
   54MOL0     C 7056  11.613  10.013   6.306  0.0847 -0.5486 -0.3341
   54MOL0     C 7057  11.714   9.985   6.416 -0.3166  0.8056  0.5009
   54MOL0     C 7058  11.735  10.094   6.515  0.8372 -0.3598  0.6503
   54MOL0     C 7059  11.833  10.068   6.616  0.7434 -0.5132 -0.6248
   54MOL0     C 7060  11.928  10.048   6.691  1.2925  0.5471 -0.1449
   54MOL0     C 7061  11.315  10.047   6.048  0.3923  0.5463 -0.5802
   54MOL0     C 7062  11.179  10.070   6.078 -0.2259  0.3885  0.4551
   54MOL0     H 7063  10.781  10.317   6.288  1.0267 -1.0136  0.9335
   54MOL0     H 7064  10.532  10.328   6.349 -0.2776  1.7976 -0.7238
   54MOL0     H 7065  10.322  10.325   6.341 -0.2267  0.1671 -2.5644
   54MOL0     H 7066  10.275  10.215   6.467 -1.4009  2.4395 -0.2633
   54MOL0     H 7067  10.179  10.222   6.200  0.1918 -1.6271 -0.5073
   54MOL0     H 7068  10.089  10.302   6.328  1.3792  2.6266 -3.6031
   54MOL0     H 7069  10.055  10.078   6.442 -1.0995 -3.3040 -0.5893
   54MOL0     H 7070  10.151  10.002   6.312  1.6338  2.5550 -3.4666
   54MOL0     H 7071   9.910  10.174   6.249  2.2846  1.4765  0.5107
   54MOL0     H 7072   9.978  10.047   6.147  1.2756 -0.8833  0.6849
   54MOL0     H 7073   9.812  10.002   6.402  0.5220 -0.1324  0.4260
   54MOL0     H 7074   9.911   9.871   6.317  2.4190  0.7514  2.4721
   54MOL0     H 7075   9.770   9.933   6.109  0.7214 -1.6750 -0.1921
   54MOL0     H 7076   9.663  10.017   6.233  0.2145 -1.1136 -0.2229
   54MOL0     H 7077   9.601   9.784   6.175  0.7479  1.4013 -1.2899
   54MOL0     H 7078   9.749   9.730   6.257  2.2321  1.9709  2.6004
   54MOL0     H 7079   9.529   9.890   6.397 -1.8394 -1.2853  0.5362
   54MOL0     H 7080   9.665   9.805   6.470  0.3998 -2.3834 -1.1694
   54MOL0     H 7081   9.345   9.697   6.275  1.3770 -0.6901 -0.7526
   54MOL0     H 7082   9.175   9.431   6.449 -0.5338 -4.3672 -0.9794
   54MOL0     H 7083   9.299   9.327   6.391  1.7710  0.7207 -1.3308
   54MOL0     H 7084   9.287   9.429   6.155 -0.8891  0.4081  0.7229
   54MOL0     H 7085   9.164   9.539   6.207  1.3000  0.1554  1.0526
   54MOL0     H 7086   9.102   9.310   6.087 -0.3082 -1.2869 -0.2436
   54MOL0     H 7087   9.141   9.239   6.239 -1.9833 -2.5391 -2.8252
   54MOL0     H 7088   8.916   9.250   6.245 -0.5039 -0.3603 -0.3617
   54MOL0     H 7089   8.914   9.396   6.152  0.2109 -2.0810 -0.4735
   54MOL0     H 7090   8.892   9.592   6.534  0.9451 -1.1179  0.5903
   54MOL0     H 7091   8.674   9.612   6.655  0.3664 -0.6968  1.0692
   54MOL0     H 7092   8.120   9.432   6.541 -2.4078 -0.5934  0.2747
   54MOL0     H 7093   7.928   9.479   6.674  0.6921  2.7999  0.4200
   54MOL0     H 7094   7.754   9.361   6.869  0.7248 -0.0334  0.4455
   54MOL0     H 7095   7.774   9.537   6.829 -0.1366 -2.0004 -1.8035
   54MOL0     H 7096   7.732   9.583   7.078 -4.7063  0.8367  0.1959
   54MOL0     H 7097   7.716   9.409   7.103 -0.1109  0.1886  1.6702
   54MOL0     H 7098   7.510   9.588   6.972 -0.5219  0.4929 -1.4122
   54MOL0     H 7099   7.505   9.468   7.104  0.7775 -2.3016 -0.4279
   54MOL0     H 7100   7.529   9.388   6.800 -1.8305 -0.0488 -0.2128
   54MOL0     H 7101   7.543   9.277   6.935  2.2247  0.7636  1.4740
   54MOL0     H 7102   7.326   9.318   7.025  5.6819 -0.1783  1.4038
   54MOL0     H 7103   7.322   9.254   6.868 -0.5862  1.1827 -2.3379
   54MOL0     H 7104   7.285   9.553   6.918 -3.4812  0.2395 -0.6318
   54MOL0     H 7105   7.161   9.437   6.881 -0.3273 -3.4209 -3.9173
   54MOL0     H 7106   7.390   9.515   6.690  0.5019 -0.2825  0.5366
   54MOL0     H 7107   7.264   9.392   6.662  4.1483 -0.6953  0.3291
   54MOL0     H 7108   7.217   9.605   6.543  4.1442  0.7637  1.2180
   54MOL0     H 7109   7.208   9.693   6.689 -2.1800  0.3257 -1.1588
   54MOL0     H 7110   8.154   9.369   7.031  0.0866 -0.6641 -0.2062
   54MOL0     H 7111   8.358   9.341   6.877  1.8827  0.3833 -3.1278
   54MOL0     H 7112   8.506   9.279   6.454  0.7189 -0.5292 -1.0313
   54MOL0     H 7113   8.725   9.246   6.337  0.3764 -0.8743  1.2946
   54MOL0     H 7114  10.485   9.939   6.155 -0.1345  0.6929  0.8392
   54MOL0     H 7115  10.720   9.941   6.104  3.3159  1.1517  0.5715
   54MOL0     H 7116  11.143   9.844   6.333 -1.7537 -1.0675 -2.1256
   54MOL0     H 7117  11.386   9.818   6.283 -0.7755  0.6148  0.0247
   54MOL0     H 7118  11.714   9.916   6.144 -0.6309 -0.1504 -1.5777
   54MOL0     H 7119  11.594   9.810   6.225 -1.1411 -0.0457  0.8038
   54MOL0     H 7120  11.646  10.109   6.265  0.0159 -2.0795 -4.4287
   54MOL0     H 7121  11.515  10.017   6.354 -0.0894 -3.1491 -0.3291
   54MOL0     H 7122  11.806   9.958   6.362 -1.8594 -0.5674 -1.5751
   54MOL0     H 7123  11.693   9.885   6.455  2.3650 -1.2259 -2.6997
   54MOL0     H 7124  11.752  10.189   6.464 -0.1774 -0.3078  0.3717
   54MOL0     H 7125  11.634  10.110   6.555  0.1344  0.3984 -1.2805
   54MOL0     H 7126  12.006  10.015   6.757  0.8947  2.3051  1.2754
   54MOL0     H 7127  11.366  10.111   5.977  3.8630 -0.0371  1.2003
   54MOL0     H 7128  11.120  10.149   6.033  0.5668 -0.2901 -1.9313
   55MOL0     O 7129   2.629   1.825   1.975 -0.2230 -0.5202 -0.5265
   55MOL0     C 7130   2.562   1.729   1.947  0.0258 -0.6870 -0.0126
   55MOL0     O 7131   2.584   1.593   1.968 -0.3435 -0.3511 -0.4692
   55MOL0     C 7132   2.709   1.561   2.014  0.3250 -1.2320 -1.3889
   55MOL0     C 7133   2.735   1.553   2.154  0.3792 -0.2598 -0.6652
   55MOL0     C 7134   2.867   1.522   2.209  0.0736 -0.7482  0.3771
   55MOL0     C 7135   2.972   1.499   2.119 -0.0816 -0.2273 -0.3683
   55MOL0     O 7136   3.102   1.469   2.143 -0.4564 -0.2608 -0.2841
   55MOL0     C 7137   3.149   1.495   2.281  0.3025 -0.4546  0.2368
   55MOL0     C 7138   3.309   1.491   2.259  0.3415  0.6396 -0.0705
   55MOL0     C 7139   3.399   1.479   2.385 -0.2413  0.3250 -0.0683
   55MOL0     C 7140   3.343   1.388   2.498  0.0946 -0.4121 -0.1207
   55MOL0     C 7141   3.440   1.317   2.586  0.3765 -0.8572 -0.3656
   55MOL0     C 7142   3.543   1.401   2.659 -0.0619  0.3335  0.0253
   55MOL0     C 7143   3.643   1.326   2.743 -0.1289 -0.6204  0.6073
   55MOL0     C 7144   3.729   1.234   2.662  0.2452 -0.5805  0.4777
   55MOL0     N 7145   3.771   1.297   2.534  0.2116  0.8995 -0.4904
   55MOL0     C 7146   3.739   1.266   2.401  0.0077 -0.3108  0.1936
   55MOL0     C 7147   3.820   1.353   2.324 -0.4290 -0.0895 -0.5969
   55MOL0     C 7148   3.820   1.370   2.173 -0.3924  1.4145 -0.0813
   55MOL0     C 7149   3.684   1.345   2.101  0.0533 -0.4616 -0.0399
   55MOL0     C 7150   3.691   1.372   1.950  0.4135  0.5081 -0.1318
   55MOL0     C 7151   3.559   1.366   1.876 -0.6324  0.8688 -0.0112
   55MOL0     O 7152   3.510   1.497   1.842 -0.8020 -0.7036 -0.3034
   55MOL0     C 7153   3.396   1.511   1.770 -0.3646  0.4292  0.3782
   55MOL0     C 7154   3.311   1.407   1.736  0.0746  0.4227  0.9739
   55MOL0     C 7155   3.181   1.430   1.696 -0.4639 -0.1461 -0.3863
   55MOL0     C 7156   3.140   1.559   1.648  0.6149  0.6954 -0.2645
   55MOL0     C 7157   3.003   1.575   1.603 -0.1279  0.0307  2.1068
   55MOL0     O 7158   2.969   1.706   1.597  0.3962 -0.3459  0.1116
   55MOL0     C 7159   2.844   1.749   1.549 -0.1208  1.3660  0.1714
   55MOL0     C 7160   2.726   1.669   1.547 -0.8403 -0.6044  0.5289
   55MOL0     C 7161   2.603   1.719   1.501  0.4770  0.0212 -0.4488
   55MOL0     C 7162   2.592   1.848   1.445  0.5265  1.4992 -0.0723
   55MOL0     O 7163   2.468   1.898   1.405  0.0647  0.2853  0.0570
   55MOL0     C 7164   2.354   1.808   1.376 -0.0868 -0.5112 -0.7262
   55MOL0     C 7165   2.232   1.891   1.344  0.0873  0.2786 -0.2610
   55MOL0     C 7166   2.206   1.904   1.188  0.5598 -0.6384 -0.3974
   55MOL0     C 7167   2.161   1.772   1.126  0.3900 -0.7820 -0.1403
   55MOL0     C 7168   2.122   1.783   0.978 -0.6904 -0.3942 -0.0749
   55MOL0     C 7169   1.990   1.854   0.936  0.4254 -0.5056  0.6423
   55MOL0     C 7170   1.871   1.770   0.985  0.1427 -0.2928 -0.3147
   55MOL0     C 7171   1.738   1.810   0.917  0.1681 -0.1091 -0.0190
   55MOL0    Cl 7172   1.682   1.974   0.947  0.2967 -0.0337 -0.3863
   55MOL0     C 7173   2.704   1.926   1.451  0.0937 -0.8767 -0.0497
   55MOL0     C 7174   2.829   1.879   1.499 -0.5449 -0.0800  0.6856
   55MOL0     O 7175   2.934   1.477   1.568  0.3351  0.9738 -0.3315
   55MOL0     C 7176   3.236   1.659   1.667  0.2020  0.3678  0.2695
   55MOL0     C 7177   3.355   1.634   1.731 -0.6574 -0.8645  0.1080
   55MOL0     N 7178   3.867   1.449   2.420  0.5264  0.4711 -0.3198
   55MOL0     N 7179   3.840   1.411   2.540 -0.8815 -0.8471  0.2732
   55MOL0     C 7180   2.939   1.520   1.980  0.5278  0.1919 -0.1994
   55MOL0     C 7181   2.813   1.561   1.933 -0.9441  0.3563  0.7107
   55MOL0     C 7182   2.429   1.765   1.887  0.0680 -1.0725 -0.9890
   55MOL0     C 7183   2.315   1.688   1.908  0.3498 -0.0474 -0.1039
   55MOL0     C 7184   2.185   1.732   1.850 -0.1538 -0.3877  0.0420
   55MOL0     C 7185   2.177   1.848   1.761 -1.2220 -0.0093  0.3186
   55MOL0     O 7186   2.067   1.903   1.699 -0.1683  0.9089 -0.4481
   55MOL0     C 7187   1.955   1.805   1.685 -0.1346 -0.3433 -0.0508
   55MOL0     C 7188   1.835   1.874   1.622  0.4150 -0.3314 -0.6344
   55MOL0     C 7189   1.832   1.893   1.469  0.2908 -0.2892 -1.1765
   55MOL0     C 7190   1.699   1.860   1.400 -0.0137  0.0345  0.8463
   55MOL0     C 7191   1.589   1.945   1.443  0.5238 -0.3556 -1.6995
   55MOL0     C 7192   1.496   2.019   1.479 -0.3941  0.6701 -0.1112
   55MOL0     C 7193   2.295   1.927   1.755  0.0882 -0.3503  0.5908
   55MOL0     C 7194   2.414   1.886   1.816  0.9109 -0.0003 -0.1688
   55MOL0     H 7195   2.639   1.570   2.203 -0.2011  2.1516 -2.4506
   55MOL0     H 7196   2.892   1.513   2.314  0.6256 -0.3155  0.2854
   55MOL0     H 7197   3.121   1.410   2.343  4.4847 -3.0289 -0.9606
   55MOL0     H 7198   3.127   1.594   2.322 -1.4846 -0.6338 -0.2390
   55MOL0     H 7199   3.341   1.579   2.202 -2.0176  0.3823 -1.9694
   55MOL0     H 7200   3.326   1.411   2.186 -1.2385 -3.2779  3.4830
   55MOL0     H 7201   3.412   1.580   2.426  1.9001 -0.6131  1.7717
   55MOL0     H 7202   3.497   1.440   2.354  0.7932  3.2039 -0.7201
   55MOL0     H 7203   3.271   1.442   2.561  0.5499  3.7833 -2.7734
   55MOL0     H 7204   3.274   1.314   2.456 -1.7582  2.0112 -1.6440
   55MOL0     H 7205   3.489   1.245   2.520  0.6846 -0.9101 -0.0863
   55MOL0     H 7206   3.372   1.262   2.651 -1.1898  3.4415  2.0561
   55MOL0     H 7207   3.484   1.462   2.729 -0.0787  0.7644 -0.3582
   55MOL0     H 7208   3.592   1.471   2.590  0.0488  1.7358  1.4718
   55MOL0     H 7209   3.710   1.401   2.787 -1.6762  0.9854  0.3267
   55MOL0     H 7210   3.595   1.266   2.820  2.3883 -2.1058  1.1420
   55MOL0     H 7211   3.666   1.146   2.646  0.1947 -0.6094  0.8401
   55MOL0     H 7212   3.814   1.208   2.726  2.4942 -3.1755 -3.0967
   55MOL0     H 7213   3.678   1.179   2.379  3.1199 -3.4424  2.7225
   55MOL0     H 7214   3.890   1.301   2.127 -0.7647  0.3150  0.9459
   55MOL0     H 7215   3.857   1.469   2.145 -0.8412  2.6053  3.0581
   55MOL0     H 7216   3.622   1.419   2.153  1.1327 -0.4225  1.2665
   55MOL0     H 7217   3.643   1.245   2.117 -1.3794 -0.1914 -1.7115
   55MOL0     H 7218   3.716   1.478   1.938  0.7000  0.5568  0.7776
   55MOL0     H 7219   3.761   1.302   1.903 -1.4254  0.4987 -3.1157
   55MOL0     H 7220   3.503   1.297   1.940  1.1538 -1.6017 -0.9144
   55MOL0     H 7221   3.567   1.312   1.781 -1.3991  0.8175 -0.0517
   55MOL0     H 7222   3.326   1.310   1.782 -0.9598 -1.0019 -1.4903
   55MOL0     H 7223   3.117   1.343   1.690 -0.4265 -0.1459 -0.8302
   55MOL0     H 7224   2.739   1.573   1.595  0.3342 -0.1734  1.1179
   55MOL0     H 7225   2.525   1.647   1.523  1.3516 -1.5664 -2.2676
   55MOL0     H 7226   2.334   1.741   1.460  0.0706  0.2812 -0.0534
   55MOL0     H 7227   2.380   1.734   1.299  3.0464 -0.5087  0.2180
   55MOL0     H 7228   2.236   1.992   1.386  1.6437  0.0400  0.2186
   55MOL0     H 7229   2.146   1.846   1.394  0.7502  0.1349  0.7706
   55MOL0     H 7230   2.303   1.943   1.157  0.2711  4.4285  3.6919
   55MOL0     H 7231   2.136   1.986   1.168  0.4388 -0.6313  0.0388
   55MOL0     H 7232   2.245   1.704   1.144  0.5762 -0.8522 -1.2379
   55MOL0     H 7233   2.079   1.717   1.172 -0.6917 -2.1966 -3.4783
   55MOL0     H 7234   2.125   1.679   0.943 -1.8140  0.2021 -2.1697
   55MOL0     H 7235   2.203   1.839   0.930  1.9639 -1.9412  2.3126
   55MOL0     H 7236   1.991   1.875   0.828 -0.8662  1.3352  0.9314
   55MOL0     H 7237   1.971   1.954   0.977 -3.9147 -0.1659 -1.5530
   55MOL0     H 7238   1.889   1.666   0.956  0.5714  0.2247 -2.0457
   55MOL0     H 7239   1.861   1.784   1.093  0.9525  1.8599 -0.4822
   55MOL0     H 7240   1.657   1.741   0.940  0.9374 -1.9074 -2.3167
   55MOL0     H 7241   1.754   1.804   0.808  0.2502 -0.0153 -0.0124
   55MOL0     H 7242   2.694   2.025   1.408  4.9810 -0.5713 -1.0429
   55MOL0     H 7243   2.921   1.938   1.498 -0.8372  0.3980 -1.0149
   55MOL0     H 7244   3.210   1.762   1.644  0.4275  0.6031  1.0509
   55MOL0     H 7245   3.408   1.725   1.759 -3.7104  1.7239 -1.7257
   55MOL0     H 7246   3.023   1.512   1.913  2.1875  0.1395  1.8012
   55MOL0     H 7247   2.791   1.588   1.830  0.5116  1.2999  0.6102
   55MOL0     H 7248   2.319   1.603   1.976  0.7311 -0.3180 -0.4538
   55MOL0     H 7249   2.093   1.680   1.874 -0.9217  0.6747 -0.5421
   55MOL0     H 7250   1.917   1.770   1.782 -0.9309 -0.5304 -0.4249
   55MOL0     H 7251   1.986   1.722   1.622  4.9229 -1.0687  2.8163
   55MOL0     H 7252   1.747   1.815   1.653 -2.0799  2.9682 -0.9074
   55MOL0     H 7253   1.826   1.971   1.672  0.7140  0.5082 -2.1639
   55MOL0     H 7254   1.911   1.829   1.428 -1.7040 -1.5607 -3.2365
   55MOL0     H 7255   1.856   1.997   1.446  3.4966 -1.0039 -1.5397
   55MOL0     H 7256   1.712   1.873   1.292  0.0715 -2.6087  0.4903
   55MOL0     H 7257   1.678   1.754   1.411  0.5611 -0.2342 -0.4226
   55MOL0     H 7258   1.403   2.062   1.509 -0.4780 -0.2723  1.0232
   55MOL0     H 7259   2.290   2.025   1.708 -0.4261 -1.2294 -1.2780
   55MOL0     H 7260   2.490   1.963   1.806 -1.3099  2.3672  0.1825
   56MOL0     O 7261   5.282   8.913   8.876 -0.5677 -0.2898 -0.0421
   56MOL0     C 7262   5.301   8.887   8.761  0.0673  0.2554 -0.1936
   56MOL0     O 7263   5.227   8.808   8.682 -0.2989  0.2763 -0.2627
   56MOL0     C 7264   5.133   8.718   8.723 -0.9200  0.0876 -1.1873
   56MOL0     C 7265   5.033   8.759   8.808 -0.1359  0.2686 -0.1798
   56MOL0     C 7266   4.936   8.665   8.852  0.7399  0.4056  0.2688
   56MOL0     C 7267   4.941   8.530   8.807  0.1052 -0.0070 -0.2495
   56MOL0     O 7268   4.862   8.434   8.869  0.6611  0.2379 -0.9159
   56MOL0     C 7269   4.795   8.347   8.778  0.0837 -0.0166  0.4126
   56MOL0     C 7270   4.651   8.325   8.829  0.5773  0.2018  1.3666
   56MOL0     C 7271   4.579   8.247   8.718  1.1636  0.2137  0.2349
   56MOL0     C 7272   4.447   8.183   8.765  0.1951 -0.2144 -1.2444
   56MOL0     C 7273   4.461   8.038   8.815  1.0116 -0.1624 -0.5530
   56MOL0     C 7274   4.335   7.979   8.893 -0.6958  0.0806 -0.1918
   56MOL0     C 7275   4.213   7.958   8.802 -0.7750  0.0723  0.1943
   56MOL0     C 7276   4.089   7.932   8.888  0.7500 -0.6944  0.9159
   56MOL0     N 7277   3.970   7.905   8.806 -0.0219 -0.5696  0.4669
   56MOL0     C 7278   3.830   7.940   8.828  0.5127 -0.1986  0.8984
   56MOL0     C 7279   3.745   7.872   8.735 -1.2904  0.4627  0.0699
   56MOL0     C 7280   3.611   7.905   8.703  0.2240  0.2589  0.0473
   56MOL0     C 7281   3.519   7.845   8.811  0.1873  0.5205 -0.4135
   56MOL0     C 7282   3.370   7.857   8.771 -1.3924  0.3493 -0.3726
   56MOL0     C 7283   3.327   7.747   8.678 -0.5130  0.8626 -0.4659
   56MOL0     O 7284   3.186   7.715   8.691 -0.0120 -0.2531 -0.7961
   56MOL0     C 7285   3.097   7.811   8.644 -0.1188  0.7109  0.9498
   56MOL0     C 7286   3.129   7.927   8.567 -0.1922 -0.1480 -0.2942
   56MOL0     C 7287   3.024   8.001   8.519  0.6962  0.7092  0.0141
   56MOL0     C 7288   2.885   7.974   8.534 -0.8931  0.2510 -0.6384
   56MOL0     C 7289   2.784   8.055   8.463 -0.0721  0.1537  0.6057
   56MOL0     O 7290   2.829   8.166   8.386  0.2567  0.1434  0.3954
   56MOL0     C 7291   2.745   8.211   8.290  0.3521 -1.1046  0.2715
   56MOL0     C 7292   2.629   8.284   8.341  1.8621 -0.4797 -0.0202
   56MOL0     C 7293   2.530   8.313   8.247  0.2944 -0.2728  0.0301
   56MOL0     C 7294   2.554   8.289   8.106  0.3695  0.6151 -0.3305
   56MOL0     O 7295   2.466   8.320   8.009 -0.3477  0.1018  0.5115
   56MOL0     C 7296   2.339   8.264   8.018 -0.0586  0.4228 -0.5650
   56MOL0     C 7297   2.237   8.337   7.930  0.5654  0.3670  0.8717
   56MOL0     C 7298   2.228   8.483   7.932  0.2893 -0.4011 -0.0432
   56MOL0     C 7299   2.122   8.529   7.834  0.0062  1.2989  0.4994
   56MOL0     C 7300   2.117   8.686   7.837  0.8618 -0.2215  0.1483
   56MOL0     C 7301   2.018   8.725   7.723 -0.7914 -0.4723  0.0869
   56MOL0     C 7302   2.036   8.878   7.704  0.3992  0.3399  0.5302
   56MOL0     C 7303   1.933   8.925   7.600  0.0832 -0.1565 -0.1318
   56MOL0    Cl 7304   1.757   8.880   7.630  0.0566 -0.0273  0.2380
   56MOL0     C 7305   2.673   8.234   8.057 -1.6370 -0.3462  0.0127
   56MOL0     C 7306   2.776   8.183   8.155 -0.3047 -0.9705  0.0590
   56MOL0     O 7307   2.671   8.008   8.465  0.2481 -0.5581 -0.2536
   56MOL0     C 7308   2.857   7.852   8.601 -0.3842 -0.0721 -0.4977
   56MOL0     C 7309   2.965   7.773   8.654  0.3728 -0.4618  0.3747
   56MOL0     N 7310   3.834   7.786   8.671  0.1695  1.2791 -0.0597
   56MOL0     N 7311   3.959   7.797   8.728 -0.1823 -0.5589  0.1598
   56MOL0     C 7312   5.046   8.493   8.718 -0.3057 -0.1670  0.0444
   56MOL0     C 7313   5.145   8.587   8.680 -0.1574 -0.6555 -0.5028
   56MOL0     C 7314   5.428   8.935   8.709  0.3134  0.3861 -1.2353
   56MOL0     C 7315   5.473   8.885   8.596 -0.2604  0.7138  0.4796
   56MOL0     C 7316   5.594   8.935   8.539  0.6102  0.1388 -0.7623
   56MOL0     C 7317   5.676   9.026   8.599  0.2286 -0.8533 -0.2318
   56MOL0     O 7318   5.807   9.064   8.570 -0.0391  0.1464  0.2273
   56MOL0     C 7319   5.885   8.978   8.474  1.0129 -0.4273 -0.5396
   56MOL0     C 7320   6.020   9.041   8.440 -0.3169 -1.0234 -0.5002
   56MOL0     C 7321   6.015   9.187   8.382 -0.3619  0.5278  0.2473
   56MOL0     C 7322   5.961   9.186   8.237  0.9042 -0.7665 -0.0979
   56MOL0     C 7323   6.071   9.165   8.147  0.8960  0.7448 -0.0155
   56MOL0     C 7324   6.176   9.160   8.088  1.2024  0.0898  0.1215
   56MOL0     C 7325   5.629   9.076   8.727  0.1350  0.0847  0.1065
   56MOL0     C 7326   5.505   9.036   8.767  0.2704  0.3902 -0.1853
   56MOL0     H 7327   5.018   8.862   8.837 -1.7843 -0.4849  1.9263
   56MOL0     H 7328   4.871   8.700   8.932  1.9696  1.7544  0.7222
   56MOL0     H 7329   4.861   8.259   8.776 -0.6448 -0.6192  1.7569
   56MOL0     H 7330   4.790   8.385   8.676 -2.0988 -0.8187  0.1579
   56MOL0     H 7331   4.609   8.426   8.834  1.6849  0.6884  1.0859
   56MOL0     H 7332   4.647   8.271   8.924  0.4332  0.1098  1.3099
   56MOL0     H 7333   4.643   8.167   8.679  5.8640  2.7913  1.8594
   56MOL0     H 7334   4.555   8.312   8.633 -2.9035  0.5583  1.4537
   56MOL0     H 7335   4.387   8.245   8.832  1.8047  1.0570 -0.8985
   56MOL0     H 7336   4.373   8.187   8.685 -0.9300  5.1400 -0.3726
   56MOL0     H 7337   4.542   8.039   8.889 -2.2600  2.7908  3.4449
   56MOL0     H 7338   4.483   7.983   8.723 -1.7467 -2.9552  0.3152
   56MOL0     H 7339   4.321   8.045   8.979 -0.2935  1.3771 -1.0889
   56MOL0     H 7340   4.358   7.881   8.935 -1.9204  0.4731  1.5267
   56MOL0     H 7341   4.188   8.041   8.736 -1.8503 -1.2235 -1.1076
   56MOL0     H 7342   4.240   7.867   8.747 -0.0973 -0.0366  0.6882
   56MOL0     H 7343   4.066   8.024   8.943 -0.0956  0.3659 -1.1008
   56MOL0     H 7344   4.101   7.860   8.970  1.4958 -3.3619 -1.3780
   56MOL0     H 7345   3.789   8.025   8.881 -0.4236  0.5925 -1.0229
   56MOL0     H 7346   3.591   7.844   8.615 -0.5425 -2.4521  1.9490
   56MOL0     H 7347   3.592   8.012   8.692 -1.4488  0.0002  0.1106
   56MOL0     H 7348   3.536   7.898   8.906  2.0221  1.9506 -1.4853
   56MOL0     H 7349   3.547   7.740   8.820  4.2822  0.9924 -4.2357
   56MOL0     H 7350   3.305   7.860   8.859  0.1344  0.8773  0.7634
   56MOL0     H 7351   3.354   7.951   8.717 -0.3647  0.3674 -0.6591
   56MOL0     H 7352   3.374   7.655   8.713  0.5427  1.6062  0.1315
   56MOL0     H 7353   3.353   7.769   8.573  1.3443  1.6914  0.1147
   56MOL0     H 7354   3.225   7.972   8.546 -0.8950  3.3086  2.8315
   56MOL0     H 7355   3.048   8.090   8.461  0.5175  0.3825 -0.5677
   56MOL0     H 7356   2.605   8.300   8.446  1.8815  1.5659 -0.2881
   56MOL0     H 7357   2.436   8.354   8.282  1.5672  2.8430  0.0885
   56MOL0     H 7358   2.302   8.264   8.121  2.2144 -0.6665  0.3173
   56MOL0     H 7359   2.352   8.162   7.981  1.4636  0.7527 -1.0089
   56MOL0     H 7360   2.141   8.291   7.958  0.1397  1.3704  1.0909
   56MOL0     H 7361   2.243   8.322   7.822 -2.1179  0.9827  0.5668
   56MOL0     H 7362   2.320   8.535   7.904 -0.3731  2.2372  2.2411
   56MOL0     H 7363   2.221   8.509   8.038 -0.1061  2.1038 -0.6119
   56MOL0     H 7364   2.144   8.488   7.735  0.3829 -0.2604  1.1921
   56MOL0     H 7365   2.037   8.481   7.884  0.1311  0.1874 -0.3217
   56MOL0     H 7366   2.218   8.720   7.813  0.7441  0.4845  0.6500
   56MOL0     H 7367   2.086   8.723   7.935 -2.7780  1.1094 -1.3381
   56MOL0     H 7368   1.920   8.682   7.746 -0.2470 -1.7129  0.1672
   56MOL0     H 7369   2.047   8.684   7.626  0.2941  0.9763 -0.2461
   56MOL0     H 7370   2.018   8.927   7.800  0.9124  3.1735 -0.7158
   56MOL0     H 7371   2.141   8.897   7.679 -0.1843  2.2530 -0.7194
   56MOL0     H 7372   1.959   8.878   7.504 -2.2873 -2.0637  0.0533
   56MOL0     H 7373   1.946   9.032   7.582  0.9901 -0.5711 -2.3314
   56MOL0     H 7374   2.684   8.225   7.950 -0.9851  2.2764 -0.2123
   56MOL0     H 7375   2.856   8.117   8.125 -1.9967 -3.3425  0.5032
   56MOL0     H 7376   2.753   7.822   8.615 -0.4119  0.3407  0.2546
   56MOL0     H 7377   2.934   7.687   8.712 -0.7777  0.6764  1.5038
   56MOL0     H 7378   5.061   8.389   8.694 -0.3092  0.1536 -1.4386
   56MOL0     H 7379   5.230   8.555   8.620  1.2246 -0.2515  1.1762
   56MOL0     H 7380   5.419   8.804   8.547 -1.6779  1.7283  0.3358
   56MOL0     H 7381   5.632   8.883   8.451 -0.0104  1.3165 -1.7503
   56MOL0     H 7382   5.816   8.967   8.390 -1.1826 -3.8222  1.4839
   56MOL0     H 7383   5.902   8.889   8.534  0.2725 -0.8068 -0.8877
   56MOL0     H 7384   6.075   9.051   8.534 -0.4394  1.9131 -0.6662
   56MOL0     H 7385   6.077   8.976   8.372 -0.3480 -0.8228 -0.7177
   56MOL0     H 7386   6.115   9.231   8.379 -1.3983  2.9640 -0.3961
   56MOL0     H 7387   5.955   9.258   8.440 -1.5225  0.4740 -0.8416
   56MOL0     H 7388   5.884   9.109   8.236  0.1194 -0.0021 -1.1443
   56MOL0     H 7389   5.918   9.285   8.218  2.8694  0.6146  2.0910
   56MOL0     H 7390   6.269   9.158   8.034  0.8269  1.6902 -0.6370
   56MOL0     H 7391   5.693   9.124   8.800  3.6905 -0.6166 -2.2955
   56MOL0     H 7392   5.470   9.077   8.861 -2.9528 -0.7685 -0.7341
   57MOL0     O 7393   8.921   6.523  10.405  0.8221 -0.0605 -0.6246
   57MOL0     C 7394   8.999   6.473  10.322 -0.7375 -0.6894  0.3042
   57MOL0     O 7395   8.986   6.361  10.249  1.2984 -0.6961  0.0050
   57MOL0     C 7396   8.862   6.308  10.255  0.8585  0.5468 -0.8079
   57MOL0     C 7397   8.851   6.208  10.348 -0.0185 -0.1183 -0.3743
   57MOL0     C 7398   8.731   6.135  10.362  0.4550  0.5172 -0.2553
   57MOL0     C 7399   8.615   6.168  10.283 -0.7976  0.0103 -0.0947
   57MOL0     O 7400   8.502   6.101  10.307 -0.1571  0.3911 -0.3732
   57MOL0     C 7401   8.410   6.164  10.399 -1.0300 -0.0878  0.4475
   57MOL0     C 7402   8.335   6.274  10.324  0.3485  0.5674  1.0164
   57MOL0     C 7403   8.224   6.325  10.406  0.3892 -0.2813  0.5193
   57MOL0     C 7404   8.167   6.455  10.350  1.1251 -0.4197  0.2094
   57MOL0     C 7405   8.053   6.519  10.444 -0.1733 -0.5224 -0.2371
   57MOL0     C 7406   7.912   6.471  10.408 -0.6198 -0.1528  0.2949
   57MOL0     C 7407   7.815   6.508  10.514  0.3920 -1.5557 -0.0279
   57MOL0     C 7408   7.775   6.656  10.511  0.0121 -0.4813 -0.9198
   57MOL0     N 7409   7.686   6.698  10.626 -0.8993  0.1133  0.5384
   57MOL0     C 7410   7.724   6.796  10.711 -0.2748  0.0842 -0.5538
   57MOL0     C 7411   7.605   6.833  10.770  0.1392  0.1779 -0.4646
   57MOL0     C 7412   7.584   6.941  10.871 -0.2212 -0.2481  0.7089
   57MOL0     C 7413   7.531   7.064  10.808  0.0647 -0.1508 -0.6949
   57MOL0     C 7414   7.389   7.056  10.756  1.0934 -0.1479 -0.1515
   57MOL0     C 7415   7.283   7.002  10.854  0.5615  0.3763  0.0988
   57MOL0     O 7416   7.155   7.031  10.812  0.7445  0.5749  0.2755
   57MOL0     C 7417   7.089   6.959  10.715  0.8884  0.1647 -0.3839
   57MOL0     C 7418   6.967   7.015  10.675  0.0128  0.0329  0.7997
   57MOL0     C 7419   6.890   6.959  10.572 -0.7266  0.3555  0.1959
   57MOL0     C 7420   6.932   6.843  10.499  0.2492 -0.4230 -0.2307
   57MOL0     C 7421   6.835   6.783  10.397 -0.7050 -0.1465  1.1101
   57MOL0     O 7422   6.849   6.655  10.379  0.1198  0.7116 -0.2487
   57MOL0     C 7423   6.741   6.587  10.326 -0.1604  0.4880 -0.7509
   57MOL0     C 7424   6.716   6.585  10.191  0.2782 -0.3779 -0.8265
   57MOL0     C 7425   6.625   6.507  10.134 -0.1521  1.3055 -0.5985
   57MOL0     C 7426   6.543   6.427  10.211 -0.7109 -0.9554 -0.4771
   57MOL0     O 7427   6.450   6.350  10.145 -0.3095  0.1990  0.2176
   57MOL0     C 7428   6.425   6.216  10.198 -0.1538  0.2488 -0.4714
   57MOL0     C 7429   6.455   6.104  10.089 -0.2473 -0.2966  0.9190
   57MOL0     C 7430   6.586   6.098  10.014  0.0705  0.0359  0.7475
   57MOL0     C 7431   6.592   5.980   9.921 -0.7397  0.1772  0.3163
   57MOL0     C 7432   6.711   6.011   9.834  0.3950  0.2727 -0.4453
   57MOL0     C 7433   6.840   6.011   9.912 -0.5514  0.2187  0.1771
   57MOL0     C 7434   6.957   6.016   9.815 -0.3142  0.0631 -0.2782
   57MOL0     C 7435   7.101   6.037   9.869 -0.0213 -0.2553 -0.0274
   57MOL0    Cl 7436   7.148   5.966  10.026  0.0294 -0.0172  0.2268
   57MOL0     C 7437   6.548   6.437  10.356  0.0253 -0.7533  0.2813
   57MOL0     C 7438   6.650   6.515  10.411 -0.4604  0.4178  0.0631
   57MOL0     O 7439   6.747   6.849  10.348 -0.6931 -0.0928 -0.0789
   57MOL0     C 7440   7.050   6.781  10.551  0.7214 -1.0128  0.8339
   57MOL0     C 7441   7.127   6.846  10.651  0.2608  0.4484 -0.3984
   57MOL0     N 7442   7.503   6.751  10.725  0.2555 -0.5101 -0.1710
   57MOL0     N 7443   7.548   6.666  10.636 -0.1460 -0.7618 -0.0503
   57MOL0     C 7444   8.630   6.267  10.191 -0.2220 -0.0633 -0.1487
   57MOL0     C 7445   8.753   6.342  10.178  0.0278  0.2311 -0.1759
   57MOL0     C 7446   9.126   6.551  10.290  0.2443 -0.5271  0.2860
   57MOL0     C 7447   9.223   6.498  10.206  0.3596 -0.8337 -0.0093
   57MOL0     C 7448   9.342   6.573  10.169 -0.1483 -0.5379 -0.7461
   57MOL0     C 7449   9.372   6.692  10.231 -0.5347  0.5419 -0.4102
   57MOL0     O 7450   9.494   6.765  10.229 -0.7027 -0.1559  0.1833
   57MOL0     C 7451   9.584   6.739  10.118  0.1376 -0.4516 -0.6355
   57MOL0     C 7452   9.685   6.853  10.086 -0.3189  0.0399 -0.0282
   57MOL0     C 7453   9.739   6.907  10.218 -0.1570  0.2070 -0.0315
   57MOL0     C 7454   9.653   7.022  10.267 -0.0164  0.6399 -0.1415
   57MOL0     C 7455   9.689   7.142  10.187 -0.0103  0.2177 -0.7409
   57MOL0     C 7456   9.712   7.238  10.114 -0.0766  0.5919 -0.1727
   57MOL0     C 7457   9.278   6.736  10.325  0.2571  0.4750  0.3029
   57MOL0     C 7458   9.155   6.677  10.354  0.0948  0.4929 -0.0745
   57MOL0     H 7459   8.939   6.183  10.408  0.1169  2.0020  0.4185
   57MOL0     H 7460   8.715   6.050  10.426 -2.3092  0.4001 -0.9579
   57MOL0     H 7461   8.450   6.211  10.490 -2.0524  0.0533  0.8385
   57MOL0     H 7462   8.339   6.087  10.430 -0.5265 -0.8588 -0.2704
   57MOL0     H 7463   8.308   6.234  10.226 -0.1164 -0.1574  1.4331
   57MOL0     H 7464   8.399   6.356  10.290  2.6401 -1.1464  0.9384
   57MOL0     H 7465   8.258   6.328  10.510  1.0613  1.1047  0.2774
   57MOL0     H 7466   8.145   6.250  10.394  1.8695 -1.8504  0.1398
   57MOL0     H 7467   8.258   6.515  10.353  0.9303 -0.1016 -0.1462
   57MOL0     H 7468   8.135   6.450  10.245  0.2149  0.8269  0.4118
   57MOL0     H 7469   8.063   6.627  10.425 -0.4707 -0.7573 -1.8761
   57MOL0     H 7470   8.083   6.502  10.548  1.3186  1.9891 -0.1678
   57MOL0     H 7471   7.920   6.362  10.400  1.6310 -0.1907  2.0035
   57MOL0     H 7472   7.875   6.512  10.314  0.1691  2.1259  0.9215
   57MOL0     H 7473   7.718   6.461  10.500 -0.3627 -0.6671  1.8593
   57MOL0     H 7474   7.851   6.483  10.615  0.0828 -2.9413 -0.2498
   57MOL0     H 7475   7.725   6.663  10.414 -0.9970 -1.3582 -0.4867
   57MOL0     H 7476   7.865   6.718  10.516 -0.2129 -0.2339  0.6862
   57MOL0     H 7477   7.819   6.847  10.728 -0.7991  0.6483  0.8033
   57MOL0     H 7478   7.679   6.967  10.918 -1.2493  1.5531  1.9069
   57MOL0     H 7479   7.506   6.914  10.943 -1.3250 -3.1349 -1.3372
   57MOL0     H 7480   7.600   7.099  10.731  0.3476  0.4034 -0.1996
   57MOL0     H 7481   7.516   7.142  10.882 -1.5699 -0.2386 -0.9087
   57MOL0     H 7482   7.354   7.156  10.727 -2.8752 -1.6320 -1.0721
   57MOL0     H 7483   7.382   6.994  10.666 -0.5348 -0.9426  0.4917
   57MOL0     H 7484   7.294   7.045  10.954 -1.8689 -1.7508  1.4127
   57MOL0     H 7485   7.293   6.893  10.865 -1.0781 -0.0599 -2.0954
   57MOL0     H 7486   6.918   7.097  10.726 -1.3546 -0.1390 -0.1847
   57MOL0     H 7487   6.795   7.003  10.543 -0.1198  2.1778  0.8446
   57MOL0     H 7488   6.786   6.645  10.134 -0.7472  0.2966 -1.4187
   57MOL0     H 7489   6.631   6.515  10.026  1.5965  1.2640 -0.5310
   57MOL0     H 7490   6.320   6.204  10.228 -0.2178  2.3649  0.2927
   57MOL0     H 7491   6.495   6.194  10.279 -0.3501  0.2054 -0.3116
   57MOL0     H 7492   6.383   6.119  10.007  2.9872  0.0010 -2.0914
   57MOL0     H 7493   6.430   6.006  10.132 -0.9219  0.6454  2.7521
   57MOL0     H 7494   6.664   6.083  10.089  0.6507  0.4767  0.2389
   57MOL0     H 7495   6.606   6.196   9.971  0.0996  0.0684  0.8347
   57MOL0     H 7496   6.613   5.896   9.987  0.5013  1.9725  2.3503
   57MOL0     H 7497   6.504   5.972   9.856  0.4045 -0.7440 -1.1664
   57MOL0     H 7498   6.705   6.106   9.780  1.2693  1.0841  0.8249
   57MOL0     H 7499   6.722   5.932   9.758 -0.9378 -2.0666  1.6383
   57MOL0     H 7500   6.848   5.909   9.952  0.3147  0.6527  1.1412
   57MOL0     H 7501   6.845   6.090   9.987 -1.8838  1.1728 -0.6919
   57MOL0     H 7502   6.957   5.920   9.762  3.6927 -0.6778  0.7496
   57MOL0     H 7503   6.947   6.105   9.753 -0.4364  0.1030 -0.2009
   57MOL0     H 7504   7.109   6.145   9.884 -2.2396 -0.0760  0.1989
   57MOL0     H 7505   7.176   6.009   9.794  1.1443  1.3159  0.4942
   57MOL0     H 7506   6.469   6.379  10.402  0.1515 -1.3607 -0.2621
   57MOL0     H 7507   6.656   6.522  10.519 -0.8875 -3.0829  0.4371
   57MOL0     H 7508   7.058   6.682  10.507  2.6250 -0.7723  0.5692
   57MOL0     H 7509   7.223   6.810  10.688 -1.4044 -1.7421  2.1769
   57MOL0     H 7510   8.548   6.294  10.126  1.6517 -1.3973 -3.2955
   57MOL0     H 7511   8.762   6.427  10.111 -4.1886  1.5031  0.5896
   57MOL0     H 7512   9.204   6.407  10.150 -1.6978 -0.3966 -0.0841
   57MOL0     H 7513   9.425   6.532  10.112 -0.1067  1.2685 -2.0701
   57MOL0     H 7514   9.519   6.735  10.030 -0.6559 -1.4259 -0.0363
   57MOL0     H 7515   9.631   6.641  10.134  1.2375  0.3807  1.6114
   57MOL0     H 7516   9.771   6.808  10.034 -0.8129 -1.3817  0.3304
   57MOL0     H 7517   9.647   6.933  10.022 -0.2074  0.1185  0.0030
   57MOL0     H 7518   9.845   6.931  10.204  0.5736 -2.5027  0.3130
   57MOL0     H 7519   9.738   6.832  10.297  0.0597  1.6273  1.3755
   57MOL0     H 7520   9.547   6.999  10.259 -0.3895  2.4214 -0.8219
   57MOL0     H 7521   9.687   7.040  10.369  3.2680  2.7306 -1.4282
   57MOL0     H 7522   9.711   7.325  10.052 -0.1069  0.1109 -0.8713
   57MOL0     H 7523   9.319   6.826  10.371 -0.2835 -1.0634  4.1330
   57MOL0     H 7524   9.089   6.719  10.430  2.3281 -0.0251  2.2859
   58MOL0     O 7525   6.496   3.565   5.319  0.6951 -0.1851 -0.3489
   58MOL0     C 7526   6.541   3.534   5.434  0.6808 -0.1707 -0.3053
   58MOL0     O 7527   6.461   3.496   5.539 -0.1705  0.2553 -0.1173
   58MOL0     C 7528   6.331   3.473   5.515  0.4496 -0.7455 -1.0220
   58MOL0     C 7529   6.235   3.512   5.612 -0.8631  0.1227  0.4145
   58MOL0     C 7530   6.105   3.479   5.601  0.3714 -0.2608 -0.5340
   58MOL0     C 7531   6.055   3.391   5.505  0.1197  0.3724  0.4078
   58MOL0     O 7532   5.927   3.334   5.506 -0.1661 -0.2556 -0.0993
   58MOL0     C 7533   5.839   3.344   5.387  0.3167  0.0399 -0.3384
   58MOL0     C 7534   5.707   3.390   5.434  0.6921 -0.0208 -0.1607
   58MOL0     C 7535   5.605   3.408   5.317 -0.3810 -0.6806 -0.0470
   58MOL0     C 7536   5.464   3.440   5.375  0.3664  0.4783  1.1215
   58MOL0     C 7537   5.403   3.314   5.429 -0.3618 -0.9361 -0.8896
   58MOL0     C 7538   5.249   3.323   5.431 -0.1180  0.1925 -0.7806
   58MOL0     C 7539   5.203   3.229   5.535 -0.3256  0.5328  0.3319
   58MOL0     C 7540   5.055   3.210   5.527 -0.1633  0.3870  0.2893
   58MOL0     N 7541   4.975   3.311   5.592 -0.1100  0.0654  0.4384
   58MOL0     C 7542   4.947   3.324   5.723 -0.8505 -0.4637 -0.3365
   58MOL0     C 7543   4.849   3.421   5.726 -1.2676 -0.4738  0.1690
   58MOL0     C 7544   4.802   3.498   5.843  0.0102  0.1887  0.2346
   58MOL0     C 7545   4.683   3.436   5.913  0.5658  0.3138  0.3181
   58MOL0     C 7546   4.555   3.487   5.858  0.4524  0.2088 -0.5613
   58MOL0     C 7547   4.512   3.615   5.920 -1.0232  0.0830 -0.1173
   58MOL0     O 7548   4.461   3.589   6.047  0.3281 -0.0356 -0.0358
   58MOL0     C 7549   4.317   3.557   6.059 -0.2224 -0.0574  0.0582
   58MOL0     C 7550   4.261   3.542   6.187  0.3886 -0.5642  0.8189
   58MOL0     C 7551   4.137   3.497   6.209  0.1968  0.0810 -0.0824
   58MOL0     C 7552   4.047   3.476   6.102  0.3658  0.1330  1.1777
   58MOL0     C 7553   3.910   3.444   6.120 -0.0316  0.3806  0.4619
   58MOL0     O 7554   3.854   3.489   6.241 -0.3265 -0.3694 -0.2002
   58MOL0     C 7555   3.716   3.463   6.255 -0.1594 -0.0504  0.4411
   58MOL0     C 7556   3.629   3.518   6.160  0.2056 -0.2126 -0.4016
   58MOL0     C 7557   3.489   3.490   6.155 -0.2955  0.0992 -0.5991
   58MOL0     C 7558   3.438   3.400   6.249 -0.2030  0.5108  1.0699
   58MOL0     O 7559   3.304   3.365   6.243 -0.3798 -0.2648 -0.5041
   58MOL0     C 7560   3.223   3.476   6.286  0.0770  0.0655 -0.0320
   58MOL0     C 7561   3.164   3.464   6.427  0.1627  0.3422  0.3006
   58MOL0     C 7562   3.080   3.335   6.444  1.2070 -0.3691  0.0833
   58MOL0     C 7563   3.023   3.319   6.590 -0.0087  0.4816  0.3835
   58MOL0     C 7564   2.950   3.178   6.625  0.0819 -0.0036  0.2889
   58MOL0     C 7565   2.815   3.151   6.566 -0.2029 -0.5350 -0.7196
   58MOL0     C 7566   2.769   3.011   6.623  0.3499 -0.2286 -0.0830
   58MOL0     C 7567   2.623   2.995   6.661 -0.0588  0.2457  0.0023
   58MOL0    Cl 7568   2.512   3.014   6.512 -0.6701 -0.0502 -0.3587
   58MOL0     C 7569   3.524   3.348   6.352 -0.1148 -0.9262 -0.5074
   58MOL0     C 7570   3.654   3.387   6.354  0.3310 -0.0145 -1.0715
   58MOL0     O 7571   3.861   3.382   6.024 -0.0862  0.6618 -0.3125
   58MOL0     C 7572   4.097   3.500   5.976  0.0482 -0.6606 -0.8968
   58MOL0     C 7573   4.228   3.540   5.953 -0.2028  0.8707 -1.1247
   58MOL0     N 7574   4.814   3.447   5.596  0.8166  0.3147  0.0848
   58MOL0     N 7575   4.887   3.378   5.517 -0.0706 -0.3164 -0.3996
   58MOL0     C 7576   6.145   3.359   5.403 -0.1084  0.7526 -0.6694
   58MOL0     C 7577   6.281   3.395   5.408  0.3160 -0.0895  0.1722
   58MOL0     C 7578   6.676   3.559   5.467  0.1167 -0.0804 -0.3189
   58MOL0     C 7579   6.764   3.597   5.365  0.3439 -0.2237 -0.4104
   58MOL0     C 7580   6.899   3.624   5.375 -1.1054 -0.8827 -0.1005
   58MOL0     C 7581   6.962   3.618   5.494  0.1187  0.2727 -0.4915
   58MOL0     O 7582   7.095   3.659   5.527 -0.6090 -0.4142 -0.1394
   58MOL0     C 7583   7.191   3.651   5.422 -0.1948 -0.0336  0.4133
   58MOL0     C 7584   7.340   3.662   5.460  0.9062  0.3957  0.8585
   58MOL0     C 7585   7.422   3.620   5.335 -0.5879 -0.6632  0.7652
   58MOL0     C 7586   7.573   3.680   5.355 -0.1650  0.1152  0.8932
   58MOL0     C 7587   7.640   3.638   5.476  0.8996  0.4766 -0.5900
   58MOL0     C 7588   7.694   3.585   5.577  0.1533  0.8013 -0.0872
   58MOL0     C 7589   6.885   3.581   5.604 -0.3983 -0.1787  0.0067
   58MOL0     C 7590   6.747   3.552   5.593 -0.0052  0.7334  0.0547
   58MOL0     H 7591   6.272   3.577   5.691 -5.8243 -0.1190  3.3584
   58MOL0     H 7592   6.034   3.525   5.669  1.9246  2.0755 -0.3940
   58MOL0     H 7593   5.835   3.249   5.334 -3.2634  0.9769 -2.0196
   58MOL0     H 7594   5.891   3.413   5.319  1.1531 -0.0820  0.1531
   58MOL0     H 7595   5.721   3.485   5.486  3.4003  0.9841 -2.4522
   58MOL0     H 7596   5.673   3.310   5.500  2.4822 -0.1220  0.6943
   58MOL0     H 7597   5.604   3.310   5.268 -0.0722  0.2948 -2.1183
   58MOL0     H 7598   5.641   3.491   5.255  0.5605  1.2091  2.8072
   58MOL0     H 7599   5.457   3.517   5.452 -0.7669  0.8256  0.6843
   58MOL0     H 7600   5.403   3.483   5.295 -1.7364  3.8625  4.1805
   58MOL0     H 7601   5.455   3.292   5.523 -1.1527 -1.7856 -0.6379
   58MOL0     H 7602   5.426   3.226   5.368 -1.2670 -1.6196 -0.2734
   58MOL0     H 7603   5.213   3.287   5.334 -1.1536 -0.3362 -0.2188
   58MOL0     H 7604   5.213   3.426   5.441 -3.0051 -0.3517 -3.8141
   58MOL0     H 7605   5.255   3.133   5.535 -0.3598  0.5137  0.3627
   58MOL0     H 7606   5.234   3.271   5.631  2.3439  2.0689 -1.0795
   58MOL0     H 7607   5.021   3.110   5.555  2.6027 -0.0037  2.7867
   58MOL0     H 7608   5.031   3.223   5.421  2.2009  2.6044 -0.0713
   58MOL0     H 7609   4.982   3.265   5.807 -1.1129 -0.8903 -0.5246
   58MOL0     H 7610   4.778   3.601   5.814  0.1971  0.5937  1.4745
   58MOL0     H 7611   4.876   3.500   5.924 -0.4394 -1.3273  0.7055
   58MOL0     H 7612   4.696   3.451   6.021 -1.4800 -0.6687  0.7665
   58MOL0     H 7613   4.680   3.326   5.907  0.2524  0.3092  0.4892
   58MOL0     H 7614   4.570   3.496   5.750  0.3859  0.2009 -0.5714
   58MOL0     H 7615   4.478   3.409   5.864 -2.5764  2.9239 -0.9595
   58MOL0     H 7616   4.440   3.665   5.854 -1.9944 -0.0419  0.8227
   58MOL0     H 7617   4.598   3.681   5.932 -2.4209  1.9767 -0.0352
   58MOL0     H 7618   4.326   3.555   6.273  0.7077 -2.0137  0.8236
   58MOL0     H 7619   4.095   3.485   6.308  0.7824  3.0550  0.6324
   58MOL0     H 7620   3.671   3.589   6.090  3.5042 -2.9990 -1.5169
   58MOL0     H 7621   3.430   3.533   6.075 -0.5300 -0.3017 -0.6435
   58MOL0     H 7622   3.135   3.479   6.221  1.0444  0.6924 -1.3842
   58MOL0     H 7623   3.274   3.573   6.290  1.0260 -0.4268  3.5892
   58MOL0     H 7624   3.104   3.554   6.443 -1.1617 -0.0830 -1.9390
   58MOL0     H 7625   3.245   3.452   6.500  0.6563 -0.3757 -0.3549
   58MOL0     H 7626   3.139   3.249   6.409  1.9141  0.8902 -2.0017
   58MOL0     H 7627   3.001   3.351   6.370  4.0904  1.4167 -2.8831
   58MOL0     H 7628   3.106   3.321   6.661 -0.0082 -0.0862  0.4038
   58MOL0     H 7629   2.955   3.402   6.612  0.5850  0.4328  2.6691
   58MOL0     H 7630   2.916   3.182   6.729 -3.5623  1.8040 -0.8165
   58MOL0     H 7631   3.010   3.089   6.606 -1.0424 -1.2012  2.0250
   58MOL0     H 7632   2.832   3.141   6.458 -0.2520 -1.0675 -0.6833
   58MOL0     H 7633   2.748   3.233   6.592  0.6697 -0.1144  0.2393
   58MOL0     H 7634   2.812   2.924   6.572  0.6327 -0.4899  0.5878
   58MOL0     H 7635   2.817   3.000   6.721 -0.7753 -3.2071  0.2459
   58MOL0     H 7636   2.591   3.067   6.738 -2.7825  1.5614 -2.1719
   58MOL0     H 7637   2.613   2.892   6.697 -1.6169  0.6730  0.9153
   58MOL0     H 7638   3.495   3.267   6.418  0.1899 -0.7860 -0.1986
   58MOL0     H 7639   3.722   3.358   6.434 -1.3648 -1.2548  0.0002
   58MOL0     H 7640   4.035   3.495   5.888  0.0286 -1.8242 -0.8283
   58MOL0     H 7641   4.256   3.552   5.849  0.7896 -0.3492 -1.0217
   58MOL0     H 7642   6.114   3.303   5.316  1.5384 -2.6556  0.7417
   58MOL0     H 7643   6.348   3.360   5.330  0.3983 -0.0085  0.2062
   58MOL0     H 7644   6.724   3.606   5.265  0.5489 -2.6985 -0.7619
   58MOL0     H 7645   6.949   3.660   5.286  1.4550  2.0872  2.3016
   58MOL0     H 7646   7.163   3.729   5.351 -3.4548  0.2600  1.8680
   58MOL0     H 7647   7.177   3.555   5.372  3.3271  0.0802 -1.1024
   58MOL0     H 7648   7.359   3.766   5.487  2.3163  1.2996 -2.9600
   58MOL0     H 7649   7.353   3.596   5.546  2.1402  1.4482  1.5047
   58MOL0     H 7650   7.377   3.667   5.247 -0.7672 -0.6940  0.8399
   58MOL0     H 7651   7.416   3.512   5.323  0.7804 -0.6181 -0.6309
   58MOL0     H 7652   7.641   3.639   5.280  2.1591  4.3403  0.3600
   58MOL0     H 7653   7.576   3.789   5.343 -0.0123  0.4619  3.5695
   58MOL0     H 7654   7.743   3.550   5.666 -2.6688  0.1231  1.3231
   58MOL0     H 7655   6.920   3.584   5.706  0.3601  0.4670 -0.2689
   58MOL0     H 7656   6.689   3.547   5.684 -1.1347  1.1064 -0.6189
   59MOL0     O 7657   0.086  10.749   1.445 -0.0002  0.7850 -0.8537
   59MOL0     C 7658   0.165  10.831   1.481  0.2263 -0.0460 -0.0904
   59MOL0     O 7659   0.277  10.869   1.412  0.5630 -0.1903 -0.2754
   59MOL0     C 7660   0.311  10.820   1.288  0.7839  0.4197  0.0449
   59MOL0     C 7661   0.294  10.903   1.176  0.3826  0.8957 -0.0220
   59MOL0     C 7662   0.323  10.865   1.043 -0.4454 -0.2684  0.1169
   59MOL0     C 7663   0.365  10.731   1.025 -0.1134  0.8395 -0.3627
   59MOL0     O 7664   0.402  10.677   0.903  0.6321 -0.0633 -0.1633
   59MOL0     C 7665   0.439  10.763   0.796 -0.2198  0.1537  0.4244
   59MOL0     C 7666   0.389  10.725   0.649 -0.2613  0.3675  0.0618
   59MOL0     C 7667   0.246  10.732   0.649 -0.1981 -0.0157 -0.1385
   59MOL0     C 7668   0.187  10.682   0.509 -1.3179  0.6017 -0.9410
   59MOL0     C 7669   0.038  10.656   0.528  0.2661 -0.2334 -0.5194
   59MOL0     C 7670  -0.028  10.642   0.395 -0.3119  0.8020 -0.1924
   59MOL0     C 7671  -0.173  10.634   0.418  0.0372  0.5145  0.1791
   59MOL0     C 7672  -0.251  10.554   0.312 -0.8895  0.1371 -0.1007
   59MOL0     N 7673  -0.392  10.548   0.362 -0.0299 -0.4395 -0.3404
   59MOL0     C 7674  -0.440  10.474   0.467  0.3801  0.1062 -0.7564
   59MOL0     C 7675  -0.573  10.496   0.473  0.5796 -0.5264  0.8287
   59MOL0     C 7676  -0.668  10.428   0.566 -0.7304  0.4851 -0.9379
   59MOL0     C 7677  -0.813  10.445   0.518 -0.3261 -0.6264  0.6403
   59MOL0     C 7678  -0.906  10.380   0.618 -0.6382 -0.2934  0.8586
   59MOL0     C 7679  -1.049  10.415   0.586  0.4748  0.1858  0.4905
   59MOL0     O 7680  -1.109  10.335   0.483 -0.4930 -0.1483  0.2091
   59MOL0     C 7681  -1.244  10.343   0.450  0.7938 -0.9919 -0.1881
   59MOL0     C 7682  -1.323  10.451   0.494 -0.9350  0.2301  0.8173
   59MOL0     C 7683  -1.459  10.463   0.464 -0.3284  0.1098  0.2771
   59MOL0     C 7684  -1.522  10.362   0.385 -0.1504  0.3028 -1.2743
   59MOL0     C 7685  -1.672  10.363   0.347 -1.3670 -0.0458 -0.2566
   59MOL0     O 7686  -1.718  10.268   0.253  0.3870 -0.5142 -0.2163
   59MOL0     C 7687  -1.850  10.259   0.227  0.3620 -0.2892 -0.1277
   59MOL0     C 7688  -1.962  10.330   0.283 -0.2449 -0.0829 -0.0668
   59MOL0     C 7689  -2.092  10.299   0.236  0.4654  0.1596  0.9625
   59MOL0     C 7690  -2.112  10.207   0.132  0.0533  0.6104 -0.0599
   59MOL0     O 7691  -2.243  10.181   0.099  0.4500  0.0324 -0.4686
   59MOL0     C 7692  -2.282  10.156  -0.037 -0.8182  0.1371 -0.1740
   59MOL0     C 7693  -2.333  10.262  -0.120 -1.2008 -0.5139  0.6313
   59MOL0     C 7694  -2.228  10.363  -0.170 -0.3307  0.0531 -0.1595
   59MOL0     C 7695  -2.290  10.492  -0.224  0.2401  0.3556 -0.0483
   59MOL0     C 7696  -2.176  10.581  -0.266  0.3715  0.2763  0.4033
   59MOL0     C 7697  -2.225  10.701  -0.341  0.3083  0.6387  0.4441
   59MOL0     C 7698  -2.284  10.796  -0.239  0.2560  0.3020  1.3618
   59MOL0     C 7699  -2.344  10.929  -0.300  0.9602 -0.1183 -0.2912
   59MOL0    Cl 7700  -2.208  11.029  -0.335  0.0627 -0.3431 -0.2560
   59MOL0     C 7701  -2.001  10.143   0.081 -0.7337 -0.1818  0.2195
   59MOL0     C 7702  -1.874  10.167   0.127 -0.0190  0.2973  0.2951
   59MOL0     O 7703  -1.736  10.451   0.396 -0.0195  0.4514 -0.1793
   59MOL0     C 7704  -1.446  10.259   0.330 -0.4259 -0.3115  0.7287
   59MOL0     C 7705  -1.305  10.251   0.368  0.2123 -0.2160 -0.2361
   59MOL0     N 7706  -0.595  10.589   0.377  0.4853 -0.3343  0.8330
   59MOL0     N 7707  -0.497  10.622   0.309  0.1019  0.1044 -0.4407
   59MOL0     C 7708   0.376  10.652   1.137 -0.3524 -0.0917 -0.6846
   59MOL0     C 7709   0.350  10.691   1.269  0.2306 -0.2263 -0.8192
   59MOL0     C 7710   0.133  10.894   1.613 -0.0681  0.2348  0.5968
   59MOL0     C 7711   0.006  10.906   1.665 -0.0899 -0.3020  0.0512
   59MOL0     C 7712  -0.026  10.974   1.789  0.0057  1.1605  0.7556
   59MOL0     C 7713   0.084  11.026   1.863  0.8908 -0.3351 -0.1849
   59MOL0     O 7714   0.070  11.101   1.974  0.2892  0.3028 -0.2419
   59MOL0     C 7715  -0.000  11.232   1.963 -0.3740  0.3701  0.5031
   59MOL0     C 7716  -0.151  11.221   1.985 -0.5412  0.2621  0.8186
   59MOL0     C 7717  -0.185  11.149   2.110 -0.0003  0.1650 -0.6261
   59MOL0     C 7718  -0.342  11.126   2.121  0.0669 -0.9419  0.5866
   59MOL0     C 7719  -0.370  11.086   2.256  0.3521  0.9751 -0.0528
   59MOL0     C 7720  -0.390  11.042   2.364  0.2276  0.2957 -0.1203
   59MOL0     C 7721   0.216  11.006   1.818  0.6286  0.3956 -0.3820
   59MOL0     C 7722   0.239  10.942   1.695  0.4292  1.1534  0.2028
   59MOL0     H 7723   0.263  11.004   1.202 -2.4746 -0.4494  2.5466
   59MOL0     H 7724   0.309  10.938   0.964  0.8407  0.6467  0.7072
   59MOL0     H 7725   0.548  10.766   0.787 -0.0872 -0.1264  1.7680
   59MOL0     H 7726   0.404  10.865   0.814  1.8743  0.4345  3.5736
   59MOL0     H 7727   0.429  10.625   0.629 -0.3880  0.4804 -0.8246
   59MOL0     H 7728   0.439  10.789   0.575  0.7144 -1.0834 -0.5759
   59MOL0     H 7729   0.224  10.839   0.647 -2.6919 -0.4656 -0.0976
   59MOL0     H 7730   0.193  10.685   0.733 -2.4492  4.8513  1.5753
   59MOL0     H 7731   0.216  10.757   0.435  0.3763  0.5236 -0.3861
   59MOL0     H 7732   0.242  10.593   0.477 -0.6617  1.2939 -1.7642
   59MOL0     H 7733   0.002  10.728   0.602 -0.0582 -0.7311 -0.1848
   59MOL0     H 7734   0.016  10.561   0.578 -2.2547  0.5426  0.0253
   59MOL0     H 7735   0.007  10.551   0.345 -1.7010  0.9426 -1.5058
   59MOL0     H 7736  -0.003  10.723   0.325 -0.1331 -1.5577 -3.0912
   59MOL0     H 7737  -0.184  10.577   0.511  0.5871 -0.3231 -0.2593
   59MOL0     H 7738  -0.216  10.731   0.444 -2.2616 -0.6215  0.9307
   59MOL0     H 7739  -0.209  10.454   0.299  0.6572  0.5355  1.5343
   59MOL0     H 7740  -0.247  10.616   0.222 -2.2833 -2.1441 -1.8744
   59MOL0     H 7741  -0.380  10.421   0.541  0.2997  3.9197  2.3410
   59MOL0     H 7742  -0.659  10.459   0.670 -0.9810 -2.8859  0.1994
   59MOL0     H 7743  -0.625  10.328   0.566  1.4476  1.3556 -0.4422
   59MOL0     H 7744  -0.829  10.398   0.420 -0.2065  1.6164 -0.5070
   59MOL0     H 7745  -0.822  10.553   0.507  0.7107 -0.3938  1.8939
   59MOL0     H 7746  -0.892  10.272   0.613 -1.2916 -0.3826  0.8714
   59MOL0     H 7747  -0.883  10.414   0.720  2.3524  2.1078 -0.4595
   59MOL0     H 7748  -1.053  10.519   0.552 -1.4158 -0.3745 -1.1457
   59MOL0     H 7749  -1.106  10.395   0.677  0.3441 -1.4709  0.0611
   59MOL0     H 7750  -1.283  10.526   0.562 -1.8936  0.3639  1.2573
   59MOL0     H 7751  -1.523  10.533   0.517 -2.2004  1.0694 -2.9264
   59MOL0     H 7752  -1.960  10.403   0.363 -1.6755  2.2081 -1.9643
   59MOL0     H 7753  -2.177  10.353   0.277  0.5772  2.1477 -1.1813
   59MOL0     H 7754  -2.355  10.074  -0.043 -1.4845  0.7637 -0.7835
   59MOL0     H 7755  -2.194  10.114  -0.087 -1.8213  0.9397 -2.7699
   59MOL0     H 7756  -2.412  10.309  -0.062 -1.6855 -0.7072  0.1341
   59MOL0     H 7757  -2.391  10.224  -0.204 -1.1385 -0.9542  0.7842
   59MOL0     H 7758  -2.185  10.318  -0.260 -0.1951 -0.6393  0.2462
   59MOL0     H 7759  -2.139  10.389  -0.112 -0.2672  0.7061 -0.5411
   59MOL0     H 7760  -2.365  10.473  -0.301  0.4909 -0.2851 -0.1444
   59MOL0     H 7761  -2.352  10.533  -0.144 -1.4292 -0.4667 -0.8805
   59MOL0     H 7762  -2.109  10.517  -0.324 -2.6093 -1.4793 -1.3640
   59MOL0     H 7763  -2.116  10.611  -0.180  1.3667 -1.3095  0.2986
   59MOL0     H 7764  -2.302  10.667  -0.411 -0.3028  0.6463  1.1087
   59MOL0     H 7765  -2.151  10.756  -0.401  0.8796  0.0181  0.5706
   59MOL0     H 7766  -2.360  10.756  -0.171  1.2676 -3.4344  0.5096
   59MOL0     H 7767  -2.202  10.823  -0.172  1.5916 -1.6556  0.5834
   59MOL0     H 7768  -2.405  10.979  -0.224  0.2978 -3.6910  1.7677
   59MOL0     H 7769  -2.393  10.913  -0.397  0.1694 -0.6332  0.1774
   59MOL0     H 7770  -2.007  10.066   0.005  5.4868 -0.4244 -0.5215
   59MOL0     H 7771  -1.794  10.112   0.078 -0.5513 -0.8284  0.6581
   59MOL0     H 7772  -1.496  10.194   0.260 -1.1868  0.8448  0.1564
   59MOL0     H 7773  -1.251  10.168   0.325  1.1340 -0.3722  1.1650
   59MOL0     H 7774   0.411  10.550   1.129  1.0840  0.4198 -1.1598
   59MOL0     H 7775   0.362  10.618   1.349 -4.5572  0.1902  0.5973
   59MOL0     H 7776  -0.083  10.874   1.612 -0.0465  0.4692 -0.4946
   59MOL0     H 7777  -0.126  10.978   1.830 -0.6432  1.2362 -0.7582
   59MOL0     H 7778   0.018  11.266   1.861  0.6361 -1.3558  0.0661
   59MOL0     H 7779   0.037  11.294   2.045 -0.0814 -0.0650  0.7031
   59MOL0     H 7780  -0.190  11.323   1.986  0.1895  0.5695 -0.3889
   59MOL0     H 7781  -0.197  11.180   1.894 -0.7408  0.6903  0.7248
   59MOL0     H 7782  -0.147  11.214   2.190 -0.2277 -2.8914  2.2120
   59MOL0     H 7783  -0.128  11.056   2.118  2.4616  1.6697  0.3527
   59MOL0     H 7784  -0.393  11.220   2.101 -0.3379 -1.3097 -0.1314
   59MOL0     H 7785  -0.373  11.055   2.044  1.5044 -1.7780  0.7462
   59MOL0     H 7786  -0.424  10.998   2.456  0.6503  2.3650  1.0856
   59MOL0     H 7787   0.302  11.047   1.870  0.6146 -2.7941  2.5397
   59MOL0     H 7788   0.343  10.936   1.664  0.5002  0.8242  0.4952
   60MOL0     O 7789   1.657   8.225   8.009 -0.1845 -0.4720 -0.2800
   60MOL0     C 7790   1.742   8.172   7.948 -0.1167  0.5204  0.7632
   60MOL0     O 7791   1.729   8.128   7.815 -0.1629 -0.3442 -0.1719
   60MOL0     C 7792   1.605   8.156   7.755  0.3205  0.0078  0.6755
   60MOL0     C 7793   1.579   8.289   7.711 -0.8637  0.2749  0.6701
   60MOL0     C 7794   1.460   8.316   7.638  0.1380  0.3602  0.2342
   60MOL0     C 7795   1.361   8.214   7.612 -0.6316 -0.2230 -0.4335
   60MOL0     O 7796   1.246   8.241   7.540  0.3501 -0.2532  0.4549
   60MOL0     C 7797   1.238   8.338   7.439  0.8495 -0.0411 -0.7293
   60MOL0     C 7798   1.331   8.309   7.322  0.1079 -0.3630 -0.1732
   60MOL0     C 7799   1.311   8.402   7.204  0.0141 -0.0138 -0.6969
   60MOL0     C 7800   1.417   8.396   7.093  0.2950  1.1506  0.3491
   60MOL0     C 7801   1.367   8.450   6.960  0.2121 -0.4948 -0.0274
   60MOL0     C 7802   1.326   8.598   6.975  0.1741 -0.4396  0.4166
   60MOL0     C 7803   1.299   8.671   6.843  0.2821  0.2743  0.1403
   60MOL0     C 7804   1.192   8.604   6.746  0.4257  0.2449  0.0008
   60MOL0     N 7805   1.054   8.622   6.808 -0.3174  0.2651 -0.1532
   60MOL0     C 7806   0.937   8.603   6.738  0.0196  0.1772 -0.1715
   60MOL0     C 7807   0.835   8.670   6.793  0.0890 -1.1118 -0.6006
   60MOL0     C 7808   0.691   8.693   6.758 -0.8782 -0.1245 -0.4848
   60MOL0     C 7809   0.654   8.659   6.612 -0.4850  0.3625  0.3098
   60MOL0     C 7810   0.517   8.730   6.582  0.0300  0.7336 -0.6180
   60MOL0     C 7811   0.547   8.875   6.543 -0.6096 -0.6464 -0.0027
   60MOL0     O 7812   0.462   8.928   6.444 -0.4615  0.3697 -1.2430
   60MOL0     C 7813   0.360   9.012   6.489  0.9331 -0.3572  0.0354
   60MOL0     C 7814   0.227   8.960   6.493 -0.4076 -0.4159 -1.0688
   60MOL0     C 7815   0.117   9.039   6.525 -0.6475  0.3121 -0.3636
   60MOL0     C 7816   0.138   9.182   6.545 -0.4642  0.4203 -0.1757
   60MOL0     C 7817   0.030   9.285   6.575 -0.5728  0.4744 -0.0867
   60MOL0     O 7818  -0.088   9.255   6.511 -0.2940 -0.2592  0.2487
   60MOL0     C 7819  -0.194   9.340   6.506 -0.3588 -0.1196  0.0476
   60MOL0     C 7820  -0.313   9.284   6.542 -0.5028  0.0392 -0.2846
   60MOL0     C 7821  -0.437   9.350   6.532 -0.9675  0.5432 -0.1791
   60MOL0     C 7822  -0.436   9.491   6.492 -0.3514 -0.1111  0.4973
   60MOL0     O 7823  -0.564   9.545   6.479  0.0883  0.2325  0.1397
   60MOL0     C 7824  -0.579   9.689   6.457  0.2989 -0.2121 -0.2305
   60MOL0     C 7825  -0.728   9.722   6.466 -0.2511 -0.4479 -0.0787
   60MOL0     C 7826  -0.754   9.864   6.520  0.4184  1.3256  0.1699
   60MOL0     C 7827  -0.897   9.897   6.542  0.3985  0.1967  0.7951
   60MOL0     C 7828  -0.945   9.838   6.670 -0.1638 -0.3089  0.1246
   60MOL0     C 7829  -1.090   9.887   6.695 -0.6408 -0.5612 -1.3617
   60MOL0     C 7830  -1.192   9.820   6.618 -0.3429 -0.4480  0.4558
   60MOL0     C 7831  -1.335   9.867   6.649  1.1590 -0.5794  0.6077
   60MOL0    Cl 7832  -1.392   9.787   6.799  0.0183  0.1382  0.0982
   60MOL0     C 7833  -0.308   9.558   6.475 -0.0974  0.2921 -0.2406
   60MOL0     C 7834  -0.189   9.478   6.486  0.4141 -0.1419  0.4842
   60MOL0     O 7835   0.053   9.390   6.639 -0.1273  0.1952 -0.1399
   60MOL0     C 7836   0.270   9.239   6.544 -0.2312  0.4702 -0.7495
   60MOL0     C 7837   0.381   9.152   6.521  0.9562 -0.6180  0.2575
   60MOL0     N 7838   0.893   8.725   6.906  0.1720  0.2274  0.1796
   60MOL0     N 7839   1.013   8.697   6.917 -0.3653 -0.0397  0.3915
   60MOL0     C 7840   1.383   8.088   7.676  0.7003  0.4044 -0.3810
   60MOL0     C 7841   1.504   8.066   7.746  0.2416  0.3924 -0.1049
   60MOL0     C 7842   1.855   8.122   8.032  0.2210  0.3472 -0.3557
   60MOL0     C 7843   1.875   8.184   8.163 -0.7510  0.5157 -0.5343
   60MOL0     C 7844   1.980   8.141   8.252 -0.1439 -0.4778  0.3559
   60MOL0     C 7845   2.079   8.051   8.193  0.4619  1.2798  0.5873
   60MOL0     O 7846   2.194   8.006   8.255 -0.0710  0.2078 -0.4035
   60MOL0     C 7847   2.212   8.043   8.395  0.3869  0.4843 -0.1824
   60MOL0     C 7848   2.320   7.950   8.450 -1.1794  0.7300 -0.3845
   60MOL0     C 7849   2.329   7.984   8.604  0.0073  0.9995  1.2186
   60MOL0     C 7850   2.373   8.134   8.634  1.0954  0.2294  0.2677
   60MOL0     C 7851   2.440   8.116   8.763  0.0201 -0.3369 -0.4538
   60MOL0     C 7852   2.499   8.094   8.870  0.5826  0.8584 -0.0734
   60MOL0     C 7853   2.067   8.002   8.055  0.6849 -0.3975 -0.2882
   60MOL0     C 7854   1.955   8.045   7.979  0.7978 -1.2378  0.0864
   60MOL0     H 7855   1.663   8.357   7.721  0.7771 -1.6890  0.8717
   60MOL0     H 7856   1.455   8.422   7.614 -0.9242  0.1162 -0.6863
   60MOL0     H 7857   1.260   8.433   7.489  1.5713 -0.3895 -0.3713
   60MOL0     H 7858   1.134   8.351   7.407 -0.3881 -0.2421  2.7090
   60MOL0     H 7859   1.315   8.207   7.287 -5.3543 -0.6587  2.1457
   60MOL0     H 7860   1.437   8.323   7.344  0.1730  0.4744 -0.9640
   60MOL0     H 7861   1.291   8.504   7.240 -0.4584  0.0389 -1.0962
   60MOL0     H 7862   1.217   8.366   7.161  0.7183 -0.4514 -1.8964
   60MOL0     H 7863   1.510   8.440   7.128 -0.0215  0.2578  2.4735
   60MOL0     H 7864   1.435   8.289   7.077 -0.7685  0.5635  2.6449
   60MOL0     H 7865   1.286   8.387   6.924  2.3988 -1.5810 -3.4328
   60MOL0     H 7866   1.440   8.438   6.880  0.7319 -3.4202  0.7757
   60MOL0     H 7867   1.404   8.643   7.037 -0.5143  0.3761  0.7150
   60MOL0     H 7868   1.235   8.602   7.035  0.3731 -1.9543  0.8482
   60MOL0     H 7869   1.288   8.778   6.864  1.5095  0.3852  0.3041
   60MOL0     H 7870   1.390   8.673   6.783 -0.2291 -0.2648 -0.6763
   60MOL0     H 7871   1.222   8.498   6.743 -0.0636  0.1017  0.0227
   60MOL0     H 7872   1.204   8.633   6.641 -1.8687  5.4666  0.8672
   60MOL0     H 7873   0.931   8.553   6.642 -2.2185  0.6924 -0.3748
   60MOL0     H 7874   0.674   8.798   6.784  0.5603 -0.2838  1.3672
   60MOL0     H 7875   0.625   8.643   6.829 -0.1620  3.2130  2.8730
   60MOL0     H 7876   0.635   8.554   6.587  0.0781  0.6930 -1.7301
   60MOL0     H 7877   0.740   8.687   6.550  0.9633  0.6755  2.3344
   60MOL0     H 7878   0.465   8.677   6.502 -1.2163  2.3445 -0.9384
   60MOL0     H 7879   0.444   8.728   6.664  0.7516 -2.2522  0.0671
   60MOL0     H 7880   0.639   8.871   6.484  0.3796 -0.4195  1.4839
   60MOL0     H 7881   0.561   8.937   6.632  2.5049  0.0540 -0.8548
   60MOL0     H 7882   0.223   8.855   6.463  3.9122 -2.7915  4.6640
   60MOL0     H 7883   0.016   9.002   6.516  0.5082 -3.3604  0.1121
   60MOL0     H 7884  -0.300   9.184   6.581  2.3827 -0.3792 -2.0212
   60MOL0     H 7885  -0.529   9.302   6.564 -1.0873  0.2340 -0.9570
   60MOL0     H 7886  -0.541   9.720   6.359 -1.5253  0.8708 -0.6458
   60MOL0     H 7887  -0.519   9.748   6.527  1.7385 -1.7467 -0.1219
   60MOL0     H 7888  -0.773   9.650   6.535  0.2427 -1.5330 -0.8677
   60MOL0     H 7889  -0.772   9.711   6.366 -0.4949 -3.1214  0.2571
   60MOL0     H 7890  -0.716   9.937   6.448  0.8677 -0.6195 -1.6351
   60MOL0     H 7891  -0.692   9.882   6.609  1.9836 -0.9654 -0.3745
   60MOL0     H 7892  -0.907  10.006   6.534 -1.3732  0.0325  0.4979
   60MOL0     H 7893  -0.947   9.859   6.453 -1.0189  0.5534  1.4080
   60MOL0     H 7894  -0.877   9.865   6.751  0.2810 -0.4921 -0.1867
   60MOL0     H 7895  -0.938   9.729   6.666  0.0034 -0.2785 -0.4230
   60MOL0     H 7896  -1.094   9.995   6.678  0.4372 -0.2985 -0.1202
   60MOL0     H 7897  -1.116   9.872   6.800 -0.3047 -2.4852 -1.5018
   60MOL0     H 7898  -1.166   9.825   6.511  0.9928 -2.9986  0.5779
   60MOL0     H 7899  -1.183   9.711   6.625  2.8850 -0.2519  1.0491
   60MOL0     H 7900  -1.385   9.839   6.556  4.6286  1.3440 -2.0993
   60MOL0     H 7901  -1.346   9.976   6.658  0.7105 -0.5742 -0.0126
   60MOL0     H 7902  -0.310   9.666   6.464 -2.3161  0.4467  1.1020
   60MOL0     H 7903  -0.095   9.530   6.476  0.0164  0.4695 -0.2759
   60MOL0     H 7904   0.293   9.339   6.578  1.2458 -0.7089  2.0747
   60MOL0     H 7905   0.481   9.195   6.522  1.1778 -1.1315  1.7327
   60MOL0     H 7906   1.319   8.002   7.664  1.1249  0.1401 -0.7917
   60MOL0     H 7907   1.505   7.969   7.794  0.3419  0.5650  0.2423
   60MOL0     H 7908   1.810   8.255   8.212  1.3861  0.4119  2.7919
   60MOL0     H 7909   1.987   8.180   8.353 -4.9266  1.5062  0.1696
   60MOL0     H 7910   2.119   8.015   8.446  1.8530 -2.6811  1.0236
   60MOL0     H 7911   2.237   8.149   8.401  1.3902  0.5739 -3.7572
   60MOL0     H 7912   2.298   7.843   8.437 -0.8993  0.7236 -0.8144
   60MOL0     H 7913   2.419   7.962   8.404 -1.2118  2.5083 -0.0428
   60MOL0     H 7914   2.396   7.911   8.650  1.7531  0.4600 -1.9162
   60MOL0     H 7915   2.229   7.960   8.641  0.2710 -1.0928  0.7276
   60MOL0     H 7916   2.444   8.178   8.563  1.6597  0.1261  0.7609
   60MOL0     H 7917   2.292   8.205   8.653  1.2877  0.9662 -1.5242
   60MOL0     H 7918   2.559   8.075   8.956  1.0325 -2.7755 -1.0233
   60MOL0     H 7919   2.138   7.939   8.002 -1.1037 -2.1514 -0.7383
   60MOL0     H 7920   1.954   8.025   7.872 -0.3361  0.4725 -0.2621
   61MOL0     O 7921   8.273   6.206   6.421  0.5207  0.3383 -0.1201
   61MOL0     C 7922   8.365   6.188   6.504 -0.5623 -0.3419  0.0520
   61MOL0     O 7923   8.365   6.204   6.639  0.2889  0.3825 -0.4268
   61MOL0     C 7924   8.247   6.248   6.695  0.7298 -0.6103  0.4961
   61MOL0     C 7925   8.172   6.159   6.774 -1.1375 -0.3115  0.7944
   61MOL0     C 7926   8.047   6.201   6.818 -0.1473  0.3697 -0.5212
   61MOL0     C 7927   8.002   6.334   6.795 -0.8791 -0.7880 -0.1157
   61MOL0     O 7928   7.866   6.360   6.824 -0.4258  0.5572  0.3852
   61MOL0     C 7929   7.796   6.473   6.776 -1.0171 -0.8691 -0.4484
   61MOL0     C 7930   7.766   6.569   6.900 -0.8945  0.1086  0.7717
   61MOL0     C 7931   7.724   6.713   6.848  0.3001 -0.3465 -0.7438
   61MOL0     C 7932   7.625   6.711   6.730 -0.9715  0.0235  0.2619
   61MOL0     C 7933   7.556   6.834   6.696  0.4381 -0.0953  0.3753
   61MOL0     C 7934   7.454   6.869   6.812  0.0241  0.7794 -0.5953
   61MOL0     C 7935   7.383   7.003   6.775  0.0557  0.4974 -0.4937
   61MOL0     C 7936   7.334   7.019   6.625  0.3875 -0.4688  0.6018
   61MOL0     N 7937   7.242   7.141   6.607 -0.2961 -0.1300  1.4364
   61MOL0     C 7938   7.102   7.142   6.594  0.5737 -0.5207 -1.0553
   61MOL0     C 7939   7.071   7.280   6.585  0.7230  0.5971 -0.2505
   61MOL0     C 7940   6.939   7.348   6.559  0.2782 -1.0705 -0.1659
   61MOL0     C 7941   6.960   7.495   6.530  0.2662  0.2631 -0.2008
   61MOL0     C 7942   6.836   7.580   6.497 -0.2745  0.5427  0.6135
   61MOL0     C 7943   6.745   7.601   6.621 -0.8132 -0.1030  0.2803
   61MOL0     O 7944   6.645   7.701   6.597 -0.0799  0.4137 -0.5826
   61MOL0     C 7945   6.546   7.725   6.696 -0.7569 -1.2261  0.1599
   61MOL0     C 7946   6.454   7.825   6.667 -0.0772  1.1057  0.0229
   61MOL0     C 7947   6.358   7.868   6.754  0.3033  0.5303  0.5198
   61MOL0     C 7948   6.348   7.808   6.885  0.3397  0.0784  0.2719
   61MOL0     C 7949   6.253   7.864   6.986  0.4002 -0.2312  0.2654
   61MOL0     O 7950   6.201   7.989   6.965  0.4650 -0.1792 -0.3031
   61MOL0     C 7951   6.125   8.033   7.071 -0.2005 -0.7432  0.3272
   61MOL0     C 7952   5.996   8.000   7.077 -0.0432 -0.1395  0.9154
   61MOL0     C 7953   5.927   8.043   7.191  0.6389 -0.2495 -0.2439
   61MOL0     C 7954   5.979   8.133   7.287  0.3161 -0.3994  1.3232
   61MOL0     O 7955   5.917   8.174   7.397  0.7611  0.1034  0.1781
   61MOL0     C 7956   5.794   8.116   7.444  0.5738  0.5912  0.6061
   61MOL0     C 7957   5.671   8.160   7.358  0.3369 -0.8497  0.0841
   61MOL0     C 7958   5.535   8.106   7.398 -0.3446  0.1239 -0.1967
   61MOL0     C 7959   5.412   8.154   7.319 -0.5561 -0.1285  0.1586
   61MOL0     C 7960   5.275   8.122   7.380 -0.7762  0.5725  0.2936
   61MOL0     C 7961   5.163   8.173   7.283  0.0307  0.1783 -0.0370
   61MOL0     C 7962   5.021   8.125   7.306  0.5099 -0.2749  1.0865
   61MOL0     C 7963   4.956   8.199   7.425  0.5413 -0.8051 -0.1258
   61MOL0    Cl 7964   4.786   8.134   7.447 -0.1394 -0.2627  0.3921
   61MOL0     C 7965   6.114   8.187   7.262 -0.2077  0.1783 -0.5389
   61MOL0     C 7966   6.180   8.127   7.156 -0.5861 -0.3536  0.9784
   61MOL0     O 7967   6.231   7.795   7.089 -0.0340  0.5162 -0.0099
   61MOL0     C 7968   6.422   7.701   6.908  0.2136 -0.6235 -0.2508
   61MOL0     C 7969   6.528   7.661   6.820  0.6437  0.5667  0.2650
   61MOL0     N 7970   7.195   7.348   6.592  0.5788  0.0578 -0.3527
   61MOL0     N 7971   7.290   7.261   6.593  0.2452 -1.2120 -0.2814
   61MOL0     C 7972   8.091   6.426   6.742  1.0709  0.3125  0.1467
   61MOL0     C 7973   8.206   6.383   6.688  0.6663  0.3158 -0.3799
   61MOL0     C 7974   8.502   6.147   6.450  0.6949  0.2704 -0.0647
   61MOL0     C 7975   8.593   6.088   6.542  0.2632 -0.9458  0.6468
   61MOL0     C 7976   8.717   6.048   6.492  1.5384 -0.5156 -0.2139
   61MOL0     C 7977   8.742   6.060   6.350  0.4226 -0.4736  0.4866
   61MOL0     O 7978   8.870   6.030   6.307 -0.0135  0.0901 -0.0170
   61MOL0     C 7979   8.915   6.039   6.173  0.6403  0.8294  0.7819
   61MOL0     C 7980   9.058   5.976   6.164  0.6398 -0.1014  1.2361
   61MOL0     C 7981   9.171   6.035   6.250 -0.0406 -0.3035  0.1637
   61MOL0     C 7982   9.297   6.059   6.163  0.7214 -1.2676  0.8757
   61MOL0     C 7983   9.404   6.106   6.240 -0.0804 -0.5651 -0.3553
   61MOL0     C 7984   9.504   6.137   6.300  0.4587  0.3899 -0.2370
   61MOL0     C 7985   8.645   6.104   6.258 -0.0197  1.3306 -0.3676
   61MOL0     C 7986   8.522   6.144   6.313  0.0668 -0.4427 -0.3682
   61MOL0     H 7987   8.195   6.053   6.780 -1.4326 -0.3491  1.4483
   61MOL0     H 7988   7.988   6.141   6.887 -0.7166  0.8897 -0.5445
   61MOL0     H 7989   7.699   6.438   6.738 -1.2479 -0.8012  0.0646
   61MOL0     H 7990   7.844   6.530   6.696 -2.4766  1.9223  0.5228
   61MOL0     H 7991   7.845   6.596   6.971 -0.8611 -0.2034  0.8543
   61MOL0     H 7992   7.684   6.532   6.962  0.1771  0.3660  2.4246
   61MOL0     H 7993   7.812   6.767   6.812 -1.0482  2.8886  0.3873
   61MOL0     H 7994   7.695   6.782   6.928 -0.8374 -0.1861 -1.2640
   61MOL0     H 7995   7.681   6.700   6.637 -0.2929  2.8252  0.2660
   61MOL0     H 7996   7.561   6.622   6.734  0.0039 -0.7258 -0.3441
   61MOL0     H 7997   7.495   6.815   6.608  2.7121  0.8499 -1.5022
   61MOL0     H 7998   7.629   6.914   6.678 -0.5939  0.9553  0.7691
   61MOL0     H 7999   7.495   6.885   6.912 -0.3982  0.9875 -0.4542
   61MOL0     H 8000   7.375   6.794   6.814 -1.3906  2.2171  0.3088
   61MOL0     H 8001   7.304   7.029   6.846 -0.6449 -4.2728  0.8173
   61MOL0     H 8002   7.459   7.082   6.778  3.6053 -2.6246 -1.7950
   61MOL0     H 8003   7.275   6.929   6.604  0.2120 -0.3938  0.7684
   61MOL0     H 8004   7.414   7.032   6.553 -0.1018 -0.9137 -0.0350
   61MOL0     H 8005   7.027   7.065   6.612  1.8217 -1.5260  0.1315
   61MOL0     H 8006   6.855   7.342   6.629 -1.5047  4.5181 -1.3192
   61MOL0     H 8007   6.900   7.311   6.464  2.8174 -1.2805 -1.2039
   61MOL0     H 8008   7.031   7.491   6.447  0.6595 -1.2013  0.1764
   61MOL0     H 8009   7.016   7.548   6.608 -1.4120  0.0431  1.2100
   61MOL0     H 8010   6.863   7.681   6.465  0.6727  0.1751  0.2177
   61MOL0     H 8011   6.772   7.534   6.421  0.5951 -1.5079  1.0440
   61MOL0     H 8012   6.805   7.647   6.700 -0.8838  1.7539 -0.6882
   61MOL0     H 8013   6.693   7.512   6.656 -0.8315 -0.3548 -0.3864
   61MOL0     H 8014   6.466   7.868   6.569  1.9507 -1.6303 -1.0790
   61MOL0     H 8015   6.300   7.955   6.725 -0.5169  0.0388  0.6295
   61MOL0     H 8016   5.959   7.920   7.013  2.2254 -0.9709  0.5480
   61MOL0     H 8017   5.823   8.016   7.204  0.3019  0.5794 -1.1134
   61MOL0     H 8018   5.769   8.136   7.549  3.3673 -0.4920  1.5538
   61MOL0     H 8019   5.803   8.008   7.427  1.1906  0.8711 -1.0883
   61MOL0     H 8020   5.671   8.134   7.251  0.2652  2.5846 -0.8838
   61MOL0     H 8021   5.681   8.269   7.353 -2.5764 -0.5528 -2.7732
   61MOL0     H 8022   5.513   8.115   7.504 -4.3138 -1.1978 -0.7311
   61MOL0     H 8023   5.542   7.998   7.385  0.1177 -0.4804  3.9993
   61MOL0     H 8024   5.427   8.262   7.313  3.1993 -0.6102 -4.0582
   61MOL0     H 8025   5.423   8.114   7.218  1.9226 -1.2374  0.7779
   61MOL0     H 8026   5.260   8.171   7.477  0.4374  0.8248  0.3675
   61MOL0     H 8027   5.268   8.013   7.393 -1.7941  0.5295 -0.5185
   61MOL0     H 8028   5.199   8.157   7.181  0.6368 -0.2037  0.2264
   61MOL0     H 8029   5.161   8.281   7.296 -1.5236 -0.0422  2.0399
   61MOL0     H 8030   4.977   8.142   7.207  1.9698 -0.9978  0.2784
   61MOL0     H 8031   5.015   8.018   7.328 -0.5609 -0.8994 -1.7162
   61MOL0     H 8032   4.956   8.306   7.402 -0.2286  0.2523  3.9315
   61MOL0     H 8033   5.015   8.192   7.517  0.4008 -1.1963 -0.0607
   61MOL0     H 8034   6.157   8.255   7.335 -1.0413  0.8900 -0.6923
   61MOL0     H 8035   6.281   8.143   7.121 -2.0283  0.4211 -3.5477
   61MOL0     H 8036   6.416   7.641   6.998  0.0123  0.0775  0.2153
   61MOL0     H 8037   6.602   7.588   6.851  0.8706 -0.1932 -1.8999
   61MOL0     H 8038   8.072   6.533   6.740 -0.1437  0.1193  0.2452
   61MOL0     H 8039   8.265   6.453   6.628  2.5384 -1.1913 -0.3809
   61MOL0     H 8040   8.567   6.079   6.647  0.3712 -0.5570  0.7068
   61MOL0     H 8041   8.794   6.009   6.558  0.4303 -2.5432 -0.0499
   61MOL0     H 8042   8.914   6.141   6.135 -0.6464  1.1316  1.5718
   61MOL0     H 8043   8.848   5.983   6.107 -0.6553  0.5085  2.3133
   61MOL0     H 8044   9.044   5.874   6.200 -0.3845 -0.3132  0.2640
   61MOL0     H 8045   9.091   5.967   6.060 -0.4217  3.5181  0.4260
   61MOL0     H 8046   9.206   5.966   6.326  0.7786  0.2300  0.2828
   61MOL0     H 8047   9.140   6.131   6.293  1.7488 -0.0664  1.0173
   61MOL0     H 8048   9.342   5.966   6.126  2.7661  0.1425 -0.3954
   61MOL0     H 8049   9.280   6.125   6.078  0.9854  1.1414  2.5973
   61MOL0     H 8050   9.580   6.182   6.361 -0.7936  1.3138  0.7036
   61MOL0     H 8051   8.651   6.111   6.150 -1.4515  2.0527 -0.4350
   61MOL0     H 8052   8.447   6.180   6.244  0.0073  2.3086  0.9583
   62MOL0     O 8053   5.370   1.133   5.283 -0.9253  0.0303 -0.3458
   62MOL0     C 8054   5.448   1.234   5.286  0.0613  0.1934  0.1635
   62MOL0     O 8055   5.439   1.340   5.201 -0.1311 -0.2522 -0.6434
   62MOL0     C 8056   5.338   1.336   5.111  0.4149  0.1956  0.3034
   62MOL0     C 8057   5.361   1.293   4.980 -0.2894  0.7044 -0.8728
   62MOL0     C 8058   5.264   1.278   4.882  0.3874  0.0426  0.0685
   62MOL0     C 8059   5.137   1.329   4.921 -0.1846  0.4674 -0.1754
   62MOL0     O 8060   5.029   1.327   4.841  0.5599 -0.7015  0.3596
   62MOL0     C 8061   4.992   1.207   4.781  1.1600 -0.3266 -0.6606
   62MOL0     C 8062   4.889   1.138   4.865  0.5772 -0.9138 -0.2467
   62MOL0     C 8063   4.743   1.210   4.867  0.5053  0.0147  0.4889
   62MOL0     C 8064   4.695   1.210   5.013 -0.0051  0.7296 -0.4271
   62MOL0     C 8065   4.600   1.327   5.029  0.5865  0.4191 -0.4567
   62MOL0     C 8066   4.490   1.318   4.928 -0.5544  0.2086  0.1240
   62MOL0     C 8067   4.383   1.426   4.962  0.7040  0.5523  0.3340
   62MOL0     C 8068   4.328   1.416   5.104 -0.4504  0.3973  0.5198
   62MOL0     N 8069   4.201   1.478   5.127  0.1068 -0.2273 -0.3814
   62MOL0     C 8070   4.171   1.609   5.109 -0.0925 -0.2994 -1.5007
   62MOL0     C 8071   4.042   1.618   5.148 -0.3639 -0.1276  0.2657
   62MOL0     C 8072   3.971   1.753   5.141 -0.6439  0.4024 -0.1282
   62MOL0     C 8073   3.926   1.807   5.004  1.3913 -0.4724 -0.2900
   62MOL0     C 8074   3.846   1.715   4.918  0.0202 -0.3619 -0.7966
   62MOL0     C 8075   3.739   1.640   4.996 -1.0209  0.0776 -0.1029
   62MOL0     O 8076   3.659   1.739   5.073  0.4657  0.0644 -0.1180
   62MOL0     C 8077   3.543   1.775   5.004  0.2399 -0.0573  0.5191
   62MOL0     C 8078   3.425   1.708   5.023  0.4617  0.6171 -0.3258
   62MOL0     C 8079   3.313   1.709   4.926 -1.2717 -0.8552  0.0604
   62MOL0     C 8080   3.321   1.797   4.817  0.2372 -0.4382  0.0115
   62MOL0     C 8081   3.214   1.807   4.718  0.0403 -0.1694  0.2352
   62MOL0     O 8082   3.119   1.711   4.728  0.3663  0.5587  0.7532
   62MOL0     C 8083   3.025   1.699   4.631 -0.6943 -0.7478  0.3451
   62MOL0     C 8084   3.059   1.699   4.494  1.1288 -0.1409  0.0257
   62MOL0     C 8085   2.956   1.677   4.398  0.8223  0.4640  0.3402
   62MOL0     C 8086   2.827   1.642   4.448 -0.3573 -0.1287  1.0965
   62MOL0     O 8087   2.740   1.594   4.357  0.1176 -0.7630  0.1911
   62MOL0     C 8088   2.618   1.674   4.326 -0.9770 -0.5400 -0.2634
   62MOL0     C 8089   2.623   1.714   4.176 -0.3181 -0.0687 -0.0927
   62MOL0     C 8090   2.494   1.777   4.125 -0.6951 -0.2807 -0.4675
   62MOL0     C 8091   2.507   1.783   3.971  0.0078  0.4608  0.2813
   62MOL0     C 8092   2.407   1.886   3.926 -0.3753 -0.0324 -0.1009
   62MOL0     C 8093   2.387   1.881   3.773  1.1891  0.5064 -0.7168
   62MOL0     C 8094   2.261   1.963   3.743  1.2512  0.1304  0.1521
   62MOL0     C 8095   2.259   2.006   3.594 -0.0370  0.4318 -0.4574
   62MOL0    Cl 8096   2.106   2.072   3.544 -0.2163  0.3235  0.4409
   62MOL0     C 8097   2.801   1.639   4.581 -0.0552  0.8408 -0.3479
   62MOL0     C 8098   2.899   1.668   4.666  0.0675  0.8499 -0.8051
   62MOL0     O 8099   3.210   1.909   4.642  0.3014 -0.5111 -0.7779
   62MOL0     C 8100   3.444   1.865   4.791 -0.0919  0.7807  0.0246
   62MOL0     C 8101   3.550   1.851   4.881  0.4010  0.5621 -0.1767
   62MOL0     N 8102   3.996   1.501   5.188  0.6402  0.0311  0.0401
   62MOL0     N 8103   4.093   1.417   5.191 -0.0651 -0.1347 -0.2039
   62MOL0     C 8104   5.108   1.377   5.051 -0.1345 -0.6129 -0.1873
   62MOL0     C 8105   5.209   1.377   5.150  0.0265 -0.9599 -0.3065
   62MOL0     C 8106   5.561   1.231   5.384  0.5070  1.1913  1.3522
   62MOL0     C 8107   5.576   1.120   5.465  0.7249  0.0336 -0.9009
   62MOL0     C 8108   5.690   1.120   5.550 -0.2219 -0.7729 -0.4928
   62MOL0     C 8109   5.783   1.219   5.553 -0.1629 -0.5685 -0.2389
   62MOL0     O 8110   5.902   1.203   5.626 -0.1914 -0.0908 -0.0941
   62MOL0     C 8111   5.930   1.078   5.687 -0.0672  1.0828  0.0179
   62MOL0     C 8112   6.065   1.081   5.769 -0.0862  0.0474  0.2636
   62MOL0     C 8113   6.195   1.104   5.687  0.1632 -0.2311  0.3989
   62MOL0     C 8114   6.240   1.249   5.701  0.5622 -0.5615 -0.2964
   62MOL0     C 8115   6.278   1.278   5.846  0.2060  0.4523 -0.6402
   62MOL0     C 8116   6.307   1.294   5.962 -1.4012  0.3506  1.0444
   62MOL0     C 8117   5.769   1.334   5.470 -0.6930  0.3642 -0.6849
   62MOL0     C 8118   5.660   1.327   5.379 -0.0794 -0.1723  0.2933
   62MOL0     H 8119   5.466   1.274   4.960  0.2784  0.4187  1.9095
   62MOL0     H 8120   5.289   1.242   4.783 -1.2336  0.1931 -0.4113
   62MOL0     H 8121   5.076   1.138   4.766 -1.2790 -3.0650 -3.1740
   62MOL0     H 8122   4.943   1.226   4.685  0.8611  1.5124 -0.1738
   62MOL0     H 8123   4.921   1.129   4.969 -0.4384 -1.7073  0.0140
   62MOL0     H 8124   4.880   1.034   4.831 -0.2959  0.0415 -3.2457
   62MOL0     H 8125   4.676   1.156   4.800  1.5639 -1.2954  0.4410
   62MOL0     H 8126   4.754   1.313   4.831 -3.0852 -0.3446 -2.1309
   62MOL0     H 8127   4.646   1.112   5.013  0.7293  0.3490 -1.1725
   62MOL0     H 8128   4.768   1.221   5.094  0.1857  1.1190 -0.6503
   62MOL0     H 8129   4.650   1.424   5.027  0.3713  0.5423 -2.4295
   62MOL0     H 8130   4.552   1.318   5.127  2.7525  1.2771  0.7420
   62MOL0     H 8131   4.443   1.219   4.935  1.2881 -0.6833  0.3364
   62MOL0     H 8132   4.522   1.339   4.826  1.7878  3.1667  1.3212
   62MOL0     H 8133   4.421   1.528   4.948 -1.8356  1.6377  0.9129
   62MOL0     H 8134   4.302   1.408   4.891  1.1403  0.3620 -0.1282
   62MOL0     H 8135   4.403   1.450   5.175  0.1826  1.7705 -0.7469
   62MOL0     H 8136   4.319   1.307   5.108  2.3688 -0.2051 -3.4054
   62MOL0     H 8137   4.242   1.689   5.093  2.9773 -2.3141  0.8936
   62MOL0     H 8138   4.041   1.831   5.174 -1.8989  0.8910  1.5315
   62MOL0     H 8139   3.887   1.742   5.211  0.2036  1.2074  1.0566
   62MOL0     H 8140   4.021   1.835   4.957  1.4399  1.0493  0.6256
   62MOL0     H 8141   3.867   1.899   5.016 -2.0759 -2.8168  3.1147
   62MOL0     H 8142   3.809   1.779   4.837  1.7547  2.8411  0.7599
   62MOL0     H 8143   3.918   1.650   4.868 -0.6887  0.1938 -2.6218
   62MOL0     H 8144   3.789   1.580   5.073  0.7868 -0.3768 -1.5505
   62MOL0     H 8145   3.681   1.570   4.935 -1.4500 -1.0974  1.5654
   62MOL0     H 8146   3.430   1.631   5.099  1.8293 -0.3745 -1.3656
   62MOL0     H 8147   3.221   1.652   4.940 -3.5015  2.5345  0.3553
   62MOL0     H 8148   3.161   1.713   4.461  1.9047 -2.2196  1.3567
   62MOL0     H 8149   2.986   1.654   4.296 -0.5828  2.5282 -0.6092
   62MOL0     H 8150   2.598   1.756   4.396 -0.5913 -1.0591  0.4723
   62MOL0     H 8151   2.529   1.612   4.342 -1.2424 -0.0526  0.1749
   62MOL0     H 8152   2.648   1.627   4.115 -1.0384 -0.1288 -0.3133
   62MOL0     H 8153   2.703   1.788   4.166  0.6200 -0.9143  0.9650
   62MOL0     H 8154   2.475   1.874   4.172 -0.8504  0.2278 -1.5341
   62MOL0     H 8155   2.406   1.717   4.147  1.2712 -1.5182  5.8926
   62MOL0     H 8156   2.604   1.827   3.948  0.2369 -1.5647 -3.4330
   62MOL0     H 8157   2.478   1.684   3.934  2.0351  0.1016 -0.4363
   62MOL0     H 8158   2.435   1.990   3.949  2.4343 -0.3283 -1.6848
   62MOL0     H 8159   2.313   1.870   3.979  0.3227 -3.1835  0.3809
   62MOL0     H 8160   2.377   1.785   3.722 -0.3582 -0.3944  1.1747
   62MOL0     H 8161   2.468   1.940   3.728  2.9349 -0.8993  0.4078
   62MOL0     H 8162   2.169   1.906   3.757  1.7070 -0.5251  0.5777
   62MOL0     H 8163   2.253   2.054   3.803 -1.4646 -0.3261  0.5923
   62MOL0     H 8164   2.296   1.923   3.533  0.0465 -0.1948  0.4283
   62MOL0     H 8165   2.327   2.090   3.575 -0.4166  0.9900  0.5439
   62MOL0     H 8166   2.705   1.628   4.630  0.9060  0.0332  1.4203
   62MOL0     H 8167   2.879   1.672   4.773  0.9375 -3.0163 -0.3582
   62MOL0     H 8168   3.468   1.927   4.705 -0.5795  0.7736 -0.1190
   62MOL0     H 8169   3.639   1.911   4.861  0.7455  0.1000 -0.0539
   62MOL0     H 8170   5.015   1.431   5.065  2.0134  2.8860  2.6974
   62MOL0     H 8171   5.199   1.404   5.255 -0.1938  0.3372 -0.6473
   62MOL0     H 8172   5.502   1.042   5.467 -2.1854  2.6106  1.5145
   62MOL0     H 8173   5.708   1.036   5.616  0.2322 -0.7411 -0.5681
   62MOL0     H 8174   5.936   1.013   5.599 -0.1207  0.2524  0.6205
   62MOL0     H 8175   5.849   1.035   5.747  2.2253 -0.3640  2.2424
   62MOL0     H 8176   6.041   1.167   5.832 -3.7437  0.8779 -1.9922
   62MOL0     H 8177   6.074   0.992   5.833  1.9059  0.8865  1.2261
   62MOL0     H 8178   6.180   1.080   5.582 -0.4881  2.4938 -0.1940
   62MOL0     H 8179   6.274   1.042   5.730 -0.7129 -0.6953  1.3929
   62MOL0     H 8180   6.327   1.265   5.637  0.5547 -0.2742 -0.2393
   62MOL0     H 8181   6.172   1.325   5.662  0.9823 -0.1045 -0.1487
   62MOL0     H 8182   6.349   1.311   6.059  3.2662 -0.6195 -0.5322
   62MOL0     H 8183   5.833   1.421   5.457  1.9701 -1.2272  0.6921
   62MOL0     H 8184   5.638   1.411   5.313  1.3446 -0.5319 -0.6898
   63MOL0     O 8185  10.157   1.405   6.526  0.6424 -0.0777  0.1297
   63MOL0     C 8186  10.237   1.429   6.610  0.0142 -0.0013  0.3389
   63MOL0     O 8187  10.214   1.497   6.728  0.1658  0.8389  0.7269
   63MOL0     C 8188  10.099   1.549   6.754  0.3513 -0.2060 -0.6687
   63MOL0     C 8189  10.105   1.679   6.803  0.0577 -0.0448  0.0107
   63MOL0     C 8190   9.991   1.747   6.841  0.5272 -0.1437 -0.1027
   63MOL0     C 8191   9.869   1.679   6.828 -0.1224 -0.5887 -0.0574
   63MOL0     O 8192   9.739   1.728   6.857 -0.1757  0.3030  0.1229
   63MOL0     C 8193   9.719   1.858   6.918  0.4829  0.6689  0.8369
   63MOL0     C 8194   9.724   1.957   6.804 -0.1609 -0.7234  1.1213
   63MOL0     C 8195   9.619   1.942   6.696  0.5821 -0.7235  0.5330
   63MOL0     C 8196   9.476   1.972   6.743 -0.4698  0.3841  0.0301
   63MOL0     C 8197   9.380   2.003   6.631  0.3221 -0.9283 -0.0656
   63MOL0     C 8198   9.231   2.004   6.663 -0.1895 -0.6199  0.6847
   63MOL0     C 8199   9.179   2.137   6.719  0.6474 -0.8403  0.7217
   63MOL0     C 8200   9.024   2.144   6.694 -1.1738 -0.4552 -0.1263
   63MOL0     N 8201   8.955   2.038   6.757  0.3107 -0.1867  0.0406
   63MOL0     C 8202   8.889   1.936   6.698 -0.3658 -0.3029  0.6989
   63MOL0     C 8203   8.821   1.877   6.793  0.0856 -0.8205 -0.2767
   63MOL0     C 8204   8.746   1.742   6.775 -0.1244 -0.5386 -0.2399
   63MOL0     C 8205   8.599   1.759   6.795 -0.4593 -0.0528 -0.7479
   63MOL0     C 8206   8.521   1.825   6.675  0.3003 -0.7007 -0.5029
   63MOL0     C 8207   8.371   1.847   6.709 -0.7845 -0.0944 -0.0212
   63MOL0     O 8208   8.301   1.726   6.716  0.1432  1.0181 -0.1804
   63MOL0     C 8209   8.172   1.723   6.683  1.2918  0.1348 -0.4511
   63MOL0     C 8210   8.072   1.735   6.786 -0.6660  0.1773 -0.3049
   63MOL0     C 8211   7.935   1.714   6.766  0.3300 -0.3035  0.1857
   63MOL0     C 8212   7.887   1.666   6.636  0.6666 -0.1669  0.0016
   63MOL0     C 8213   7.746   1.622   6.615  1.3102 -0.0001  0.5858
   63MOL0     O 8214   7.652   1.670   6.703  0.3885  0.5645  0.2681
   63MOL0     C 8215   7.519   1.652   6.677 -0.6865 -0.9049 -0.2486
   63MOL0     C 8216   7.460   1.534   6.723 -0.2162 -0.0438  0.0225
   63MOL0     C 8217   7.333   1.504   6.689  0.8627 -0.9357  0.2175
   63MOL0     C 8218   7.250   1.607   6.623  1.0132 -1.1388 -0.3480
   63MOL0     O 8219   7.120   1.580   6.592 -0.3545 -0.0981 -0.1800
   63MOL0     C 8220   7.094   1.449   6.535 -0.1288 -0.9213 -0.4974
   63MOL0     C 8221   7.006   1.366   6.628 -0.8153 -0.1166  0.3619
   63MOL0     C 8222   6.862   1.369   6.576 -0.3834  0.5091 -0.1715
   63MOL0     C 8223   6.767   1.285   6.668 -0.0965 -1.1949  0.4593
   63MOL0     C 8224   6.642   1.212   6.603 -0.5950  0.8828 -0.2324
   63MOL0     C 8225   6.681   1.088   6.520 -1.0937  0.3244 -0.0673
   63MOL0     C 8226   6.583   0.973   6.504 -0.0033 -0.2489  0.1726
   63MOL0     C 8227   6.436   1.024   6.488 -0.0535  0.8612  1.0711
   63MOL0    Cl 8228   6.419   1.090   6.320 -0.3740  0.0625  0.2246
   63MOL0     C 8229   7.306   1.734   6.598 -0.3389  0.1291  0.6401
   63MOL0     C 8230   7.443   1.754   6.619 -0.4295  0.1680  0.6837
   63MOL0     O 8231   7.718   1.555   6.512 -0.1277  0.5305  0.0961
   63MOL0     C 8232   7.980   1.674   6.535 -0.8656 -0.4574 -0.2343
   63MOL0     C 8233   8.122   1.692   6.555 -0.0366  0.4721  0.2105
   63MOL0     N 8234   8.854   1.947   6.913 -0.6255 -0.4759  0.2163
   63MOL0     N 8235   8.933   2.038   6.891 -0.1874 -0.3614 -0.4297
   63MOL0     C 8236   9.865   1.550   6.778  0.4920 -0.7792  0.5061
   63MOL0     C 8237   9.979   1.477   6.748  0.4791  0.2557  0.0919
   63MOL0     C 8238  10.364   1.357   6.585 -0.0571  0.3361  0.1304
   63MOL0     C 8239  10.473   1.366   6.679  1.1155  0.0572 -0.6281
   63MOL0     C 8240  10.595   1.301   6.662 -0.1640 -0.5625  0.0655
   63MOL0     C 8241  10.613   1.230   6.540  0.0873 -0.3306 -0.3938
   63MOL0     O 8242  10.734   1.168   6.534  0.2869 -0.1610  0.0904
   63MOL0     C 8243  10.783   1.104   6.416  0.1003  0.8265 -0.2924
   63MOL0     C 8244  10.906   1.029   6.462  0.2535  0.4041 -0.4464
   63MOL0     C 8245  10.954   0.908   6.370  0.3103 -0.4935 -0.0932
   63MOL0     C 8246  11.100   0.875   6.413 -0.0667 -0.3037 -0.5631
   63MOL0     C 8247  11.209   0.958   6.363  0.9310  0.5250 -0.0718
   63MOL0     C 8248  11.282   1.048   6.328 -0.7389 -0.0946  0.8361
   63MOL0     C 8249  10.506   1.219   6.444  0.2083  0.0263  0.3609
   63MOL0     C 8250  10.385   1.282   6.468 -0.2674  0.3144 -0.0223
   63MOL0     H 8251  10.199   1.718   6.842  0.3013 -2.8676  2.6350
   63MOL0     H 8252   9.985   1.849   6.878 -0.7839 -1.1283  2.6078
   63MOL0     H 8253   9.784   1.871   7.005  1.2257 -0.7272  0.5215
   63MOL0     H 8254   9.621   1.857   6.967  0.6063 -1.2866  1.1069
   63MOL0     H 8255   9.819   1.949   6.751  0.4260 -2.7300  2.3776
   63MOL0     H 8256   9.706   2.058   6.843  1.1509 -0.9951  2.5326
   63MOL0     H 8257   9.618   1.840   6.658  2.3338  0.5356 -3.4374
   63MOL0     H 8258   9.649   2.006   6.612  4.1191  0.6948  2.6326
   63MOL0     H 8259   9.434   1.890   6.802  0.0455 -0.2285 -0.4408
   63MOL0     H 8260   9.474   2.060   6.808 -0.4829  1.7399 -1.7283
   63MOL0     H 8261   9.403   1.924   6.559  2.3167 -0.5715  0.1062
   63MOL0     H 8262   9.395   2.101   6.584 -2.6285  2.1013  4.4985
   63MOL0     H 8263   9.204   1.917   6.724  1.2924 -2.0861 -0.6743
   63MOL0     H 8264   9.185   1.978   6.567 -1.9317  0.2684  1.2422
   63MOL0     H 8265   9.198   2.133   6.827 -0.2691 -0.9115  0.8929
   63MOL0     H 8266   9.244   2.217   6.682 -0.0271 -1.2655 -1.5293
   63MOL0     H 8267   9.005   2.138   6.586 -0.9214 -1.7096 -0.1212
   63MOL0     H 8268   9.001   2.241   6.739  0.2202 -1.1297  2.2276
   63MOL0     H 8269   8.908   1.897   6.598  0.6847 -1.8092  1.4312
   63MOL0     H 8270   8.784   1.671   6.849  1.4759 -0.9320 -1.3752
   63MOL0     H 8271   8.768   1.698   6.677 -3.0675  1.2368 -1.8367
   63MOL0     H 8272   8.567   1.828   6.874 -2.8227  2.3836 -3.5676
   63MOL0     H 8273   8.556   1.666   6.832  0.9641 -0.3481  0.2586
   63MOL0     H 8274   8.564   1.925   6.663  1.1424 -1.2407 -2.3891
   63MOL0     H 8275   8.536   1.777   6.578  1.8216  1.1464 -1.2662
   63MOL0     H 8276   8.322   1.920   6.644  1.3502  1.8021  0.3797
   63MOL0     H 8277   8.362   1.895   6.807 -0.1621 -0.1652  0.0705
   63MOL0     H 8278   8.107   1.771   6.882 -0.0309 -2.0762  0.3707
   63MOL0     H 8279   7.879   1.713   6.858 -2.1294 -0.3799 -1.2378
   63MOL0     H 8280   7.525   1.473   6.785  2.7788  0.2288 -2.6002
   63MOL0     H 8281   7.289   1.410   6.720 -2.0503  1.1727  3.2035
   63MOL0     H 8282   7.188   1.399   6.509 -0.4021 -0.8927 -1.6103
   63MOL0     H 8283   7.051   1.470   6.436  2.6774  1.5456 -1.3589
   63MOL0     H 8284   6.994   1.397   6.733 -0.0926 -1.1326  0.7558
   63MOL0     H 8285   7.047   1.265   6.636  1.1718  0.6059 -0.2557
   63MOL0     H 8286   6.864   1.324   6.476 -0.6133 -1.1573  0.5522
   63MOL0     H 8287   6.836   1.475   6.583 -0.3196  0.4641  0.9860
   63MOL0     H 8288   6.827   1.213   6.724 -1.0886 -1.9709  0.5666
   63MOL0     H 8289   6.730   1.351   6.747  3.3348 -0.4386  1.6014
   63MOL0     H 8290   6.575   1.267   6.536 -0.9804 -1.6435 -2.0999
   63MOL0     H 8291   6.569   1.177   6.676 -0.7661 -0.1909 -0.8814
   63MOL0     H 8292   6.775   1.054   6.562 -0.5946 -1.2862 -2.2785
   63MOL0     H 8293   6.708   1.126   6.421  0.1004  1.1292  0.5576
   63MOL0     H 8294   6.607   0.907   6.421  1.3055  2.8109 -2.0997
   63MOL0     H 8295   6.591   0.924   6.601  0.9950  0.9240  0.7209
   63MOL0     H 8296   6.401   1.085   6.572 -0.2521  0.6665  1.1315
   63MOL0     H 8297   6.366   0.940   6.481 -2.0387  2.4514  0.6707
   63MOL0     H 8298   7.235   1.812   6.573  0.9964  1.6560  1.4735
   63MOL0     H 8299   7.482   1.852   6.595 -1.2365  0.7016  1.4805
   63MOL0     H 8300   7.954   1.636   6.437 -0.1187 -0.4351 -0.4438
   63MOL0     H 8301   8.185   1.675   6.469  0.2660  4.0292 -0.4133
   63MOL0     H 8302   9.770   1.498   6.767  1.0724 -1.3387 -2.6462
   63MOL0     H 8303   9.970   1.376   6.709  1.5348 -0.5236  1.7668
   63MOL0     H 8304  10.447   1.430   6.763  0.5895  1.9566 -2.1539
   63MOL0     H 8305  10.659   1.295   6.749  0.4375  1.2531 -0.2037
   63MOL0     H 8306  10.809   1.176   6.338 -0.0799 -0.3964 -1.5186
   63MOL0     H 8307  10.703   1.040   6.377 -0.4710  2.5456 -2.1213
   63MOL0     H 8308  10.984   1.105   6.456  0.3789  0.3390  0.2683
   63MOL0     H 8309  10.891   0.987   6.562 -2.1608 -0.5241 -1.1173
   63MOL0     H 8310  10.965   0.949   6.269  1.8177 -0.6152 -0.0031
   63MOL0     H 8311  10.873   0.837   6.389 -2.8252  2.3718 -1.5961
   63MOL0     H 8312  11.102   0.883   6.522  0.4544  1.1503 -0.6574
   63MOL0     H 8313  11.125   0.770   6.397 -1.5694 -1.2300  2.5358
   63MOL0     H 8314  11.346   1.128   6.295  2.2302 -1.7264  2.2068
   63MOL0     H 8315  10.514   1.153   6.359  0.4910  1.2590 -0.6048
   63MOL0     H 8316  10.302   1.271   6.398  0.0819 -0.6459 -0.3025
   64MOL0     O 8317   5.056   3.096   5.177 -0.6060 -0.5236  0.7460
   64MOL0     C 8318   5.033   3.154   5.073  0.1311  0.1988  0.4610
   64MOL0     O 8319   4.909   3.159   5.008 -0.0033  0.3559  0.4056
   64MOL0     C 8320   4.791   3.151   5.075 -0.6029  0.1648  0.8356
   64MOL0     C 8321   4.679   3.133   4.995  0.5483  0.6920 -0.3528
   64MOL0     C 8322   4.550   3.146   5.047  1.0531  0.1016  0.3674
   64MOL0     C 8323   4.538   3.168   5.189  0.3721 -0.4621 -0.3682
   64MOL0     O 8324   4.410   3.163   5.243 -0.4113 -0.5663  0.0798
   64MOL0     C 8325   4.393   3.059   5.338 -0.4225  0.1283  0.1876
   64MOL0     C 8326   4.254   2.998   5.308  0.0267 -0.3105 -0.4696
   64MOL0     C 8327   4.142   3.083   5.364  0.5126 -0.5438 -0.8139
   64MOL0     C 8328   4.145   3.116   5.516  0.0242 -0.4029  0.3449
   64MOL0     C 8329   4.007   3.163   5.559  0.8092 -0.4933  0.2755
   64MOL0     C 8330   3.972   3.302   5.509 -0.3558  0.0593 -0.4898
   64MOL0     C 8331   3.836   3.344   5.572  1.3773  0.6640 -0.4917
   64MOL0     C 8332   3.770   3.455   5.486  0.4253 -0.0628 -0.2464
   64MOL0     N 8333   3.628   3.472   5.534 -0.2582 -0.0668 -0.5723
   64MOL0     C 8334   3.520   3.394   5.522 -0.1043  0.7403  0.1422
   64MOL0     C 8335   3.408   3.469   5.543  0.1756  0.1737 -0.1477
   64MOL0     C 8336   3.270   3.409   5.539  0.7938  1.2688  0.2291
   64MOL0     C 8337   3.188   3.449   5.408 -0.3130  0.2962 -0.0656
   64MOL0     C 8338   3.097   3.337   5.351  0.3815  0.2552 -0.1696
   64MOL0     C 8339   3.005   3.394   5.245 -0.2651 -0.1983  0.2009
   64MOL0     O 8340   2.913   3.488   5.306  0.0535 -0.1002 -0.1553
   64MOL0     C 8341   2.813   3.538   5.225  0.1282  0.1810 -0.6690
   64MOL0     C 8342   2.724   3.629   5.291  0.4013 -0.5055  0.3991
   64MOL0     C 8343   2.631   3.707   5.220 -0.5174 -0.2570  0.1518
   64MOL0     C 8344   2.623   3.701   5.080 -0.3908  0.3187 -0.6505
   64MOL0     C 8345   2.533   3.791   5.013  0.4313 -0.0120  0.1241
   64MOL0     O 8346   2.475   3.895   5.088 -0.2741 -0.3368  0.0135
   64MOL0     C 8347   2.371   3.966   5.025 -0.0668  0.0637  0.5631
   64MOL0     C 8348   2.368   4.101   5.046 -0.0149 -0.4984 -0.8026
   64MOL0     C 8349   2.267   4.189   4.998  0.6189 -0.4380  0.0720
   64MOL0     C 8350   2.172   4.135   4.911  0.4183  0.6869  0.7325
   64MOL0     O 8351   2.070   4.219   4.869  0.1146 -0.1162  0.1999
   64MOL0     C 8352   1.965   4.159   4.806 -0.4851  0.4528  0.1871
   64MOL0     C 8353   1.865   4.255   4.761 -1.2939  0.0998 -0.0426
   64MOL0     C 8354   1.743   4.175   4.717  0.6450 -0.6375 -0.6265
   64MOL0     C 8355   1.637   4.282   4.721 -0.5171 -0.3921 -0.0461
   64MOL0     C 8356   1.514   4.227   4.671  0.3320 -0.1040 -0.0930
   64MOL0     C 8357   1.391   4.287   4.740  0.2917  0.7088 -0.5725
   64MOL0     C 8358   1.259   4.212   4.721 -0.6503  0.1382 -0.3372
   64MOL0     C 8359   1.152   4.273   4.804  0.2701 -0.0784  0.1752
   64MOL0    Cl 8360   0.995   4.187   4.787  0.1856 -0.1178  0.4250
   64MOL0     C 8361   2.178   3.996   4.874 -0.2876 -0.2737  0.6443
   64MOL0     C 8362   2.275   3.914   4.929  0.6816 -0.1694 -0.4317
   64MOL0     O 8363   2.526   3.775   4.892 -0.3196 -0.1104 -0.3484
   64MOL0     C 8364   2.712   3.612   5.016  0.5923 -0.4378  0.9355
   64MOL0     C 8365   2.805   3.537   5.087  0.5938 -0.5759  0.2203
   64MOL0     N 8366   3.454   3.595   5.572 -0.1232 -0.1825 -0.1840
   64MOL0     N 8367   3.586   3.597   5.551 -0.1828  0.5062  0.1879
   64MOL0     C 8368   4.649   3.198   5.266  1.0339 -0.1738  1.0737
   64MOL0     C 8369   4.780   3.184   5.212 -0.5720 -0.4685  0.1639
   64MOL0     C 8370   5.164   3.206   5.012  0.3868  0.5799 -0.2477
   64MOL0     C 8371   5.286   3.194   5.085  0.8221 -0.1053 -0.1354
   64MOL0     C 8372   5.400   3.252   5.024  0.6125 -0.0915 -0.4426
   64MOL0     C 8373   5.396   3.327   4.902 -0.1124  0.6348 -0.2461
   64MOL0     O 8374   5.505   3.375   4.825  0.3896  0.2504  1.1545
   64MOL0     C 8375   5.646   3.344   4.851 -0.2770  0.1802 -0.3841
   64MOL0     C 8376   5.703   3.469   4.918  0.0902  0.3198 -0.0893
   64MOL0     C 8377   5.845   3.446   4.952  0.8521  0.4501  0.0273
   64MOL0     C 8378   5.905   3.569   5.007 -0.5671  0.2450 -0.1803
   64MOL0     C 8379   6.052   3.538   5.018  0.9532 -0.0266 -0.4259
   64MOL0     C 8380   6.162   3.525   5.056 -0.9277 -1.0552  0.2068
   64MOL0     C 8381   5.280   3.328   4.837  0.4425  0.6393  0.5451
   64MOL0     C 8382   5.162   3.278   4.889  0.3253 -0.0262 -0.1248
   64MOL0     H 8383   4.690   3.106   4.890  0.7972 -0.0128 -0.1534
   64MOL0     H 8384   4.467   3.121   4.982  1.4171 -1.7136  0.5363
   64MOL0     H 8385   4.408   3.099   5.438  1.6645 -0.9437  0.3559
   64MOL0     H 8386   4.458   2.973   5.319  0.5486  0.7045  0.8220
   64MOL0     H 8387   4.255   2.905   5.365  2.0133  0.5288  0.9976
   64MOL0     H 8388   4.240   2.966   5.205 -0.4782 -1.4282 -0.0693
   64MOL0     H 8389   4.044   3.040   5.344 -0.1048  0.9109 -1.0742
   64MOL0     H 8390   4.135   3.182   5.318 -2.8798 -2.0080 -4.0074
   64MOL0     H 8391   4.185   3.024   5.559  3.0873  0.4960 -0.3217
   64MOL0     H 8392   4.211   3.202   5.531 -1.5476  1.1867 -1.3044
   64MOL0     H 8393   4.007   3.162   5.668  0.5338 -3.9287  0.3523
   64MOL0     H 8394   3.926   3.100   5.523  0.2879 -0.4147  1.2641
   64MOL0     H 8395   3.983   3.314   5.401 -1.3660  1.8198 -0.4335
   64MOL0     H 8396   4.048   3.363   5.560  0.9503 -1.4313 -0.5789
   64MOL0     H 8397   3.772   3.256   5.562  1.5589  0.7071 -2.2570
   64MOL0     H 8398   3.841   3.367   5.679 -2.0024  0.3490 -0.1437
   64MOL0     H 8399   3.772   3.421   5.382  1.3476 -3.1999  0.6860
   64MOL0     H 8400   3.837   3.541   5.495  2.2524 -1.5007  0.4672
   64MOL0     H 8401   3.519   3.290   5.491 -0.2797  0.3729  1.3535
   64MOL0     H 8402   3.209   3.453   5.618  0.7357 -1.2700  1.6965
   64MOL0     H 8403   3.273   3.301   5.553 -1.9044  1.2318  1.0759
   64MOL0     H 8404   3.258   3.474   5.327 -3.1215  3.7022 -1.7663
   64MOL0     H 8405   3.132   3.541   5.426 -0.8201  0.0846 -0.5123
   64MOL0     H 8406   3.160   3.260   5.307 -2.7126 -0.8939 -2.9628
   64MOL0     H 8407   3.043   3.291   5.434  3.3788 -2.8260  0.2942
   64MOL0     H 8408   2.953   3.304   5.209 -1.3745 -0.7155  2.8888
   64MOL0     H 8409   3.048   3.443   5.157  0.4192  3.5406  2.4377
   64MOL0     H 8410   2.734   3.637   5.399 -0.5321 -1.1736  0.5558
   64MOL0     H 8411   2.576   3.766   5.292 -0.5003 -0.8450  0.6599
   64MOL0     H 8412   2.436   4.131   5.125 -0.8273 -2.8541  0.9159
   64MOL0     H 8413   2.259   4.294   5.023  1.4971 -0.0742 -1.1223
   64MOL0     H 8414   1.918   4.081   4.866 -0.0322  0.9831  1.2594
   64MOL0     H 8415   1.995   4.113   4.712 -1.3337  0.5836 -0.1554
   64MOL0     H 8416   1.913   4.306   4.678  4.4525 -0.4398  2.5118
   64MOL0     H 8417   1.845   4.330   4.838 -0.7659  0.1106  0.0881
   64MOL0     H 8418   1.715   4.096   4.788 -0.9383 -0.7014 -1.3001
   64MOL0     H 8419   1.768   4.133   4.619  3.5462 -0.1044 -0.2123
   64MOL0     H 8420   1.631   4.314   4.826  2.1214 -1.4135  0.4945
   64MOL0     H 8421   1.670   4.362   4.655  3.0129 -0.4777  1.3913
   64MOL0     H 8422   1.507   4.120   4.692 -1.5626  0.1958  1.0256
   64MOL0     H 8423   1.503   4.239   4.563 -3.4111 -2.9354 -0.2204
   64MOL0     H 8424   1.383   4.388   4.700 -0.6077  0.8201 -0.1274
   64MOL0     H 8425   1.396   4.293   4.849 -1.7827  3.8077 -0.5188
   64MOL0     H 8426   1.216   4.226   4.622 -0.1997  2.7773 -0.2524
   64MOL0     H 8427   1.271   4.107   4.749  2.3298  0.7209  0.9879
   64MOL0     H 8428   1.133   4.378   4.784 -0.5418 -0.1510  0.5208
   64MOL0     H 8429   1.184   4.275   4.909  2.2153  0.1611 -0.3840
   64MOL0     H 8430   2.108   3.952   4.804  0.8818  1.6941 -1.9135
   64MOL0     H 8431   2.272   3.809   4.903  4.5967 -0.6177  0.3698
   64MOL0     H 8432   2.726   3.623   4.909  0.3064  4.2458  1.2054
   64MOL0     H 8433   2.869   3.478   5.023 -0.9104 -3.7769  1.4675
   64MOL0     H 8434   4.613   3.220   5.366 -3.5009  0.3829 -0.4451
   64MOL0     H 8435   4.866   3.193   5.277  0.6114 -1.6131 -1.1673
   64MOL0     H 8436   5.304   3.140   5.178  0.0256  3.5386  2.3432
   64MOL0     H 8437   5.497   3.237   5.070  0.3403  0.9298  0.4966
   64MOL0     H 8438   5.699   3.326   4.757  1.4217 -0.5961  0.6871
   64MOL0     H 8439   5.647   3.256   4.916 -2.2856  0.5474  0.2278
   64MOL0     H 8440   5.696   3.548   4.842 -1.4686  1.0770  0.7901
   64MOL0     H 8441   5.640   3.489   5.005 -1.1235  2.4228 -1.3488
   64MOL0     H 8442   5.909   3.411   4.870  3.1278 -1.0118  2.2898
   64MOL0     H 8443   5.838   3.360   5.019 -3.1509 -0.7296 -1.6163
   64MOL0     H 8444   5.880   3.653   4.942  0.6430  0.4137 -0.4459
   64MOL0     H 8445   5.854   3.574   5.104  0.4669  0.4525  0.3716
   64MOL0     H 8446   6.263   3.516   5.090 -0.3773 -0.9750 -1.3487
   64MOL0     H 8447   5.286   3.370   4.737  0.6200 -0.8349 -0.0901
   64MOL0     H 8448   5.063   3.285   4.844  0.4997  1.2896 -0.3396
   65MOL0     O 8449   1.172   1.583   4.263  0.5604  1.1183 -0.7465
   65MOL0     C 8450   1.202   1.558   4.378 -0.0467 -1.2079 -0.3354
   65MOL0     O 8451   1.126   1.579   4.485 -0.3752  0.2463  0.0664
   65MOL0     C 8452   1.012   1.659   4.494 -0.2040  0.7656  0.5266
   65MOL0     C 8453   0.946   1.736   4.396 -0.5921  0.5509  0.2664
   65MOL0     C 8454   0.836   1.820   4.424 -0.2043  0.0107  0.8670
   65MOL0     C 8455   0.796   1.834   4.558  0.1390 -0.4228  0.5951
   65MOL0     O 8456   0.690   1.913   4.605 -0.1527  0.0837 -0.2320
   65MOL0     C 8457   0.580   1.928   4.516 -0.8994 -0.4549  0.1437
   65MOL0     C 8458   0.454   1.950   4.595  0.3077  0.6130 -0.1944
   65MOL0     C 8459   0.320   1.939   4.517 -0.1192 -0.3728  0.2430
   65MOL0     C 8460   0.189   1.997   4.568 -0.9837  0.4208  0.2755
   65MOL0     C 8461   0.083   1.957   4.471 -0.4217  0.4563  0.4008
   65MOL0     C 8462  -0.043   2.034   4.485 -0.1632  0.6209  0.8720
   65MOL0     C 8463  -0.123   1.991   4.598 -0.6653 -0.2575  0.4885
   65MOL0     C 8464  -0.268   2.035   4.595  0.4569 -0.5139  1.1096
   65MOL0     N 8465  -0.279   2.168   4.660 -0.2776  0.0794  0.7033
   65MOL0     C 8466  -0.233   2.296   4.613  0.1526  0.4315  0.6289
   65MOL0     C 8467  -0.273   2.382   4.715  0.3062  0.0344  0.1014
   65MOL0     C 8468  -0.268   2.531   4.710  0.8994 -0.4913  0.5621
   65MOL0     C 8469  -0.154   2.590   4.801  0.9796  0.7965  0.0419
   65MOL0     C 8470  -0.008   2.523   4.795 -0.5670  0.0057 -1.0971
   65MOL0     C 8471   0.036   2.431   4.913 -1.1717  0.5271 -0.1968
   65MOL0     O 8472   0.169   2.391   4.880 -0.8509 -0.1409 -0.4639
   65MOL0     C 8473   0.216   2.266   4.920 -0.6464 -0.7799 -0.0276
   65MOL0     C 8474   0.332   2.223   4.855 -1.1458  0.6447  0.1119
   65MOL0     C 8475   0.398   2.108   4.896 -0.7862  0.0269 -1.7614
   65MOL0     C 8476   0.353   2.036   5.011 -0.5079  0.5779 -0.6887
   65MOL0     C 8477   0.412   1.914   5.061  0.1589  0.5434 -0.7726
   65MOL0     O 8478   0.549   1.902   5.040  0.5613 -0.1042  0.5279
   65MOL0     C 8479   0.614   1.793   5.100 -1.2666  0.0668  0.0759
   65MOL0     C 8480   0.643   1.784   5.234  0.2327  0.4993  0.9821
   65MOL0     C 8481   0.722   1.675   5.281  0.3040  0.5938 -0.4316
   65MOL0     C 8482   0.765   1.569   5.200  0.3257 -0.4553  0.0737
   65MOL0     O 8483   0.822   1.472   5.272 -0.7352  0.1765  0.3700
   65MOL0     C 8484   0.863   1.360   5.192  0.5081 -0.0556  0.0822
   65MOL0     C 8485   0.754   1.266   5.167  0.0374 -0.2288  0.6024
   65MOL0     C 8486   0.796   1.137   5.087  0.5413  0.0883 -0.0541
   65MOL0     C 8487   0.857   1.042   5.191 -0.6079  0.4107  1.0096
   65MOL0     C 8488   0.923   0.931   5.120  0.4696  0.9954  0.4625
   65MOL0     C 8489   0.827   0.832   5.043 -0.4588  0.1366 -0.7179
   65MOL0     C 8490   0.772   0.718   5.131  0.5687 -0.6841  0.0105
   65MOL0     C 8491   0.876   0.619   5.180 -0.7068  0.0053  0.2046
   65MOL0    Cl 8492   1.021   0.611   5.075 -0.4199  0.1206 -0.3272
   65MOL0     C 8493   0.710   1.573   5.068 -0.2968  0.0827 -0.9411
   65MOL0     C 8494   0.637   1.683   5.026  0.1580 -0.5725 -0.1581
   65MOL0     O 8495   0.340   1.820   5.105 -0.3130 -0.3794 -0.1617
   65MOL0     C 8496   0.238   2.083   5.082  0.2067 -0.1234  0.5904
   65MOL0     C 8497   0.171   2.199   5.037  0.3439 -0.2561 -0.4847
   65MOL0     N 8498  -0.332   2.303   4.813  0.2078 -0.5564 -0.6823
   65MOL0     N 8499  -0.330   2.177   4.785  0.3066  0.4767  0.3391
   65MOL0     C 8500   0.856   1.753   4.656  0.6348  0.3380 -0.3800
   65MOL0     C 8501   0.959   1.670   4.623  1.6491 -0.3208 -1.1730
   65MOL0     C 8502   1.328   1.488   4.402 -0.0080  0.9193  0.0461
   65MOL0     C 8503   1.346   1.431   4.526 -0.6988  0.6996 -0.7676
   65MOL0     C 8504   1.461   1.366   4.558  0.2032 -0.1003  0.3875
   65MOL0     C 8505   1.569   1.368   4.472 -0.8785  0.1235  0.0876
   65MOL0     O 8506   1.689   1.308   4.507 -0.8648  0.8130 -0.1385
   65MOL0     C 8507   1.809   1.382   4.472  0.2425  1.0662 -0.7843
   65MOL0     C 8508   1.935   1.317   4.552  0.7499  0.1671  0.7219
   65MOL0     C 8509   2.052   1.263   4.466 -1.0765  0.0170  0.3881
   65MOL0     C 8510   2.015   1.170   4.350  0.1696 -1.3530 -1.1298
   65MOL0     C 8511   2.130   1.119   4.268 -0.2459  0.7975 -0.2088
   65MOL0     C 8512   2.213   1.051   4.208 -0.8074 -0.1274  0.4186
   65MOL0     C 8513   1.561   1.441   4.350  0.6263 -0.1725 -0.4256
   65MOL0     C 8514   1.435   1.501   4.316  0.6632 -0.8594  0.7046
   65MOL0     H 8515   0.991   1.727   4.297  0.2388  1.2411  0.5671
   65MOL0     H 8516   0.798   1.867   4.334  0.8708 -1.5409 -0.4477
   65MOL0     H 8517   0.573   1.834   4.461 -0.4327 -1.5627  1.8736
   65MOL0     H 8518   0.603   2.012   4.449  0.9380 -1.1281 -0.1293
   65MOL0     H 8519   0.461   2.057   4.618  2.1294  0.3123  0.7629
   65MOL0     H 8520   0.450   1.882   4.681 -1.4934 -0.1002 -0.7900
   65MOL0     H 8521   0.307   1.831   4.514 -2.9734 -0.1033 -0.2776
   65MOL0     H 8522   0.335   1.969   4.413 -0.1111 -2.2378 -0.3132
   65MOL0     H 8523   0.159   1.958   4.666 -0.7806 -1.3191 -0.3219
   65MOL0     H 8524   0.208   2.105   4.564 -1.4033  0.5186  0.7491
   65MOL0     H 8525   0.061   1.850   4.478  0.9630 -0.2092 -3.1825
   65MOL0     H 8526   0.132   1.980   4.376  3.9856 -0.9273  2.0978
   65MOL0     H 8527  -0.103   2.018   4.394  1.8911  2.9111 -1.0509
   65MOL0     H 8528  -0.020   2.141   4.491 -1.8744  1.2071 -1.4270
   65MOL0     H 8529  -0.123   1.881   4.594 -0.5361 -0.2772 -3.4436
   65MOL0     H 8530  -0.078   2.038   4.686 -2.0707 -0.7876  1.5320
   65MOL0     H 8531  -0.329   1.970   4.658 -0.8498 -0.2575  0.1432
   65MOL0     H 8532  -0.296   2.017   4.491  4.2854 -0.5215 -0.1012
   65MOL0     H 8533  -0.208   2.327   4.513 -1.9104  2.1053  0.5533
   65MOL0     H 8534  -0.369   2.560   4.740  1.4669 -0.0458  2.1714
   65MOL0     H 8535  -0.245   2.552   4.606  0.5132 -5.8556 -0.8849
   65MOL0     H 8536  -0.182   2.586   4.907  2.3276  0.5031  0.4139
   65MOL0     H 8537  -0.140   2.696   4.778  1.2910  0.4259 -1.5461
   65MOL0     H 8538   0.007   2.464   4.704  1.1665 -0.5410 -0.5025
   65MOL0     H 8539   0.059   2.609   4.794 -0.2443  0.1704  4.6356
   65MOL0     H 8540  -0.022   2.339   4.897 -1.5975  0.9356 -1.0923
   65MOL0     H 8541   0.036   2.474   5.013 -3.0479  0.7872 -0.2701
   65MOL0     H 8542   0.367   2.286   4.773 -0.9990  0.7002  0.2163
   65MOL0     H 8543   0.498   2.081   4.867  0.6862  0.7231  2.1034
   65MOL0     H 8544   0.617   1.862   5.305  1.4562  1.6266  0.2429
   65MOL0     H 8545   0.759   1.667   5.382 -1.4833 -0.9785  0.1612
   65MOL0     H 8546   0.947   1.308   5.238  1.0965  1.7767  1.1834
   65MOL0     H 8547   0.913   1.395   5.102  1.9104 -2.5967 -0.2371
   65MOL0     H 8548   0.672   1.324   5.124  0.9682  1.7208  1.3719
   65MOL0     H 8549   0.723   1.234   5.267 -0.4521  2.6868  1.4615
   65MOL0     H 8550   0.857   1.156   4.998 -1.6557 -0.4052 -1.7380
   65MOL0     H 8551   0.712   1.081   5.047  0.8472  0.0742 -0.6983
   65MOL0     H 8552   0.936   1.094   5.247  1.1857  0.2379 -1.2245
   65MOL0     H 8553   0.774   1.009   5.254  0.3338 -4.3380  0.1690
   65MOL0     H 8554   0.974   0.879   5.202 -0.3086  0.7133  0.7795
   65MOL0     H 8555   1.002   0.970   5.055  0.0728  1.9068  0.5061
   65MOL0     H 8556   0.885   0.798   4.956 -1.2249 -0.4558 -1.0084
   65MOL0     H 8557   0.732   0.878   5.015 -2.5036 -1.9879  2.1459
   65MOL0     H 8558   0.712   0.763   5.211 -2.3565 -1.0548 -1.8383
   65MOL0     H 8559   0.710   0.650   5.071  0.4929 -1.6298  1.1092
   65MOL0     H 8560   0.840   0.519   5.206  1.2776 -1.5080 -2.3968
   65MOL0     H 8561   0.924   0.652   5.273  0.6895 -2.2545  0.3849
   65MOL0     H 8562   0.727   1.496   4.993  0.1682 -1.0417  0.2733
   65MOL0     H 8563   0.591   1.689   4.928 -2.6957  2.0724  1.1615
   65MOL0     H 8564   0.212   2.037   5.176  2.3118  1.0861  1.8384
   65MOL0     H 8565   0.092   2.244   5.095 -2.3003 -3.5183 -1.2187
   65MOL0     H 8566   0.817   1.759   4.757  0.6766 -0.2281 -0.3287
   65MOL0     H 8567   1.009   1.610   4.698  1.7826 -0.3821 -1.3105
   65MOL0     H 8568   1.272   1.431   4.606 -0.6220 -2.9288 -0.5097
   65MOL0     H 8569   1.472   1.320   4.656 -0.9557 -1.7689 -0.2124
   65MOL0     H 8570   1.806   1.483   4.513 -1.1226 -0.0632  2.2913
   65MOL0     H 8571   1.826   1.372   4.365  1.8122 -1.4778 -0.3936
   65MOL0     H 8572   1.970   1.397   4.616  0.7838 -0.7183  1.8402
   65MOL0     H 8573   1.892   1.237   4.613 -2.5019  0.7434 -0.6025
   65MOL0     H 8574   2.112   1.196   4.527 -1.0992 -0.5056 -0.1551
   65MOL0     H 8575   2.094   1.355   4.423 -1.9034 -0.2883 -1.1530
   65MOL0     H 8576   1.965   1.087   4.400 -1.6855  1.3722  2.0158
   65MOL0     H 8577   1.936   1.212   4.288 -2.9842 -1.5838  2.3460
   65MOL0     H 8578   2.296   0.994   4.170 -2.4018 -2.8642  0.8241
   65MOL0     H 8579   1.639   1.461   4.278  0.3472 -2.6023 -1.5016
   65MOL0     H 8580   1.412   1.560   4.228 -4.7996 -0.2923  2.1369
   66MOL0     O 8581   3.201  10.158   1.760  0.7473 -0.6637  0.4774
   66MOL0     C 8582   3.169  10.099   1.656  0.0431  0.3532 -0.2190
   66MOL0     O 8583   3.043  10.099   1.607 -0.3782  0.2991 -0.8279
   66MOL0     C 8584   2.936  10.136   1.691 -0.2015 -0.2204  0.6706
   66MOL0     C 8585   2.842  10.226   1.642 -0.0826  0.7851  0.3215
   66MOL0     C 8586   2.727  10.240   1.716  0.5155 -0.1691  0.3418
   66MOL0     C 8587   2.702  10.169   1.832 -0.0522 -0.5047 -0.2995
   66MOL0     O 8588   2.582  10.201   1.899  0.0069  0.1115  0.6915
   66MOL0     C 8589   2.590  10.226   2.040  0.0733 -0.9157 -0.2268
   66MOL0     C 8590   2.477  10.333   2.067 -0.2350  0.6162 -0.3157
   66MOL0     C 8591   2.341  10.317   2.006  0.1064 -0.4754 -0.0969
   66MOL0     C 8592   2.275  10.181   2.046  1.0002 -0.5897 -0.2702
   66MOL0     C 8593   2.146  10.142   1.966  0.2228  0.1516  0.0613
   66MOL0     C 8594   2.038  10.236   1.978 -0.1340 -0.0823  0.1583
   66MOL0     C 8595   1.973  10.242   2.120  0.4087 -0.4195  0.5030
   66MOL0     C 8596   1.838  10.320   2.113 -0.7245  0.1293  0.4038
   66MOL0     N 8597   1.782  10.323   2.245  0.0302 -1.3811 -0.0181
   66MOL0     C 8598   1.647  10.356   2.269 -0.6916  1.1651 -0.0769
   66MOL0     C 8599   1.638  10.362   2.401  0.6148  0.1144  0.8092
   66MOL0     C 8600   1.526  10.390   2.500  0.1118  0.5651  1.6314
   66MOL0     C 8601   1.520  10.543   2.520 -0.3002 -1.4716  0.1570
   66MOL0     C 8602   1.419  10.584   2.623  1.1526 -0.6443  0.4945
   66MOL0     C 8603   1.281  10.524   2.598 -0.4198 -0.5941 -0.1515
   66MOL0     O 8604   1.197  10.579   2.701 -0.2943  0.4883 -0.1503
   66MOL0     C 8605   1.074  10.531   2.731 -0.7865  0.3295 -0.2895
   66MOL0     C 8606   1.008  10.598   2.829  0.5075 -0.4068  0.3692
   66MOL0     C 8607   0.884  10.556   2.864 -0.8440 -0.3035  0.4084
   66MOL0     C 8608   0.817  10.438   2.811  0.4818 -0.1727 -0.3186
   66MOL0     C 8609   0.679  10.399   2.859 -0.1416  1.0482 -0.8751
   66MOL0     O 8610   0.600  10.492   2.919  0.5450 -0.1621 -0.3524
   66MOL0     C 8611   0.484  10.455   2.984  0.1410  0.7252 -0.0374
   66MOL0     C 8612   0.361  10.518   2.955  0.0369  0.6143  0.0398
   66MOL0     C 8613   0.242  10.491   3.024 -0.0719  0.4554  0.3004
   66MOL0     C 8614   0.248  10.403   3.132  0.3797  0.7103 -0.1182
   66MOL0     O 8615   0.121  10.378   3.189  0.0047 -0.7977  0.1101
   66MOL0     C 8616   0.120  10.295   3.307 -0.4934 -0.5916  0.0231
   66MOL0     C 8617  -0.016  10.272   3.372 -0.2477 -0.6668 -0.8916
   66MOL0     C 8618  -0.064  10.394   3.468 -0.2003  0.5050 -0.5103
   66MOL0     C 8619  -0.217  10.382   3.492 -0.5401 -0.0308  0.5107
   66MOL0     C 8620  -0.258  10.496   3.591 -0.0944  0.6480 -0.3285
   66MOL0     C 8621  -0.417  10.510   3.585 -0.5619  0.1126 -0.0164
   66MOL0     C 8622  -0.460  10.627   3.681  0.4524  0.0563 -0.8992
   66MOL0     C 8623  -0.614  10.638   3.699 -0.6068  0.0270  0.7267
   66MOL0    Cl 8624  -0.675  10.786   3.775  0.2191  0.1586  0.1261
   66MOL0     C 8625   0.368  10.348   3.174  0.3513  0.2913 -0.3527
   66MOL0     C 8626   0.485  10.368   3.101  0.8721  0.0616 -0.5732
   66MOL0     O 8627   0.651  10.276   2.850  0.1099 -0.7259  0.1952
   66MOL0     C 8628   0.874  10.375   2.700 -0.2981  0.2021 -0.1722
   66MOL0     C 8629   1.005  10.423   2.662 -0.8881 -1.0676  0.1332
   66MOL0     N 8630   1.763  10.334   2.452  0.2602  0.0242 -0.0724
   66MOL0     N 8631   1.844  10.306   2.365 -0.0888 -0.3484 -0.3868
   66MOL0     C 8632   2.804  10.086   1.881  0.7452 -0.4607  0.4297
   66MOL0     C 8633   2.922  10.063   1.809  0.1753  0.8779  0.2035
   66MOL0     C 8634   3.269  10.031   1.564  0.4440  0.2973 -0.2552
   66MOL0     C 8635   3.396  10.003   1.603  0.6632  0.0275 -0.4414
   66MOL0     C 8636   3.491   9.944   1.526 -1.2254 -0.1787  0.8010
   66MOL0     C 8637   3.450   9.891   1.401 -0.4806  0.3978  0.4212
   66MOL0     O 8638   3.554   9.826   1.329 -0.7443 -0.2434  0.0675
   66MOL0     C 8639   3.540   9.800   1.191 -0.1416 -0.3260 -0.4811
   66MOL0     C 8640   3.582   9.919   1.095  0.1310  0.1936  0.0054
   66MOL0     C 8641   3.537   9.895   0.945  0.0592  0.0387  1.1763
   66MOL0     C 8642   3.537   9.748   0.885  0.1136  0.2632 -0.7748
   66MOL0     C 8643   3.659   9.677   0.922 -0.4250  0.3729  0.7045
   66MOL0     C 8644   3.762   9.640   0.970 -0.2118 -0.1128 -1.0183
   66MOL0     C 8645   3.313   9.901   1.370  0.6147  0.9379  0.4157
   66MOL0     C 8646   3.228   9.976   1.446 -1.2242 -0.2778  0.2850
   66MOL0     H 8647   2.845  10.271   1.544 -0.7133 -1.5157 -0.8181
   66MOL0     H 8648   2.650  10.302   1.670  2.3287 -0.2272 -3.0431
   66MOL0     H 8649   2.692  10.262   2.060 -0.0565 -0.1769 -0.8500
   66MOL0     H 8650   2.582  10.128   2.089  2.3575 -0.9651  0.1916
   66MOL0     H 8651   2.529  10.420   2.027  0.5372  0.9036  1.2585
   66MOL0     H 8652   2.478  10.347   2.175 -2.1281  0.8661 -0.2917
   66MOL0     H 8653   2.350  10.329   1.898 -0.1192 -2.9138 -0.4519
   66MOL0     H 8654   2.274  10.400   2.029  1.2108  1.1423 -2.3349
   66MOL0     H 8655   2.351  10.103   2.043  1.8704  0.2551 -1.0831
   66MOL0     H 8656   2.242  10.185   2.150  2.4943  2.1421  0.1762
   66MOL0     H 8657   2.116  10.044   2.005 -0.2765  0.2911  0.0391
   66MOL0     H 8658   2.182  10.135   1.863  0.9765  1.6574  0.2071
   66MOL0     H 8659   1.958  10.200   1.912  0.9127 -1.1422 -0.5561
   66MOL0     H 8660   2.070  10.338   1.953  4.7708 -1.1047  1.3831
   66MOL0     H 8661   1.944  10.139   2.145 -2.8345 -0.2965 -1.9838
   66MOL0     H 8662   2.039  10.279   2.198  1.0325 -1.7678  0.6368
   66MOL0     H 8663   1.775  10.267   2.041  1.1794 -0.3410 -0.9896
   66MOL0     H 8664   1.849  10.427   2.090 -1.8842  0.0842 -0.4427
   66MOL0     H 8665   1.563  10.357   2.201  0.1748 -1.1299 -1.2816
   66MOL0     H 8666   1.548  10.344   2.596  0.1063  2.6701  2.7058
   66MOL0     H 8667   1.436  10.347   2.454  0.9371  0.4836  0.0239
   66MOL0     H 8668   1.491  10.580   2.422  0.2828  0.0122  0.5263
   66MOL0     H 8669   1.618  10.577   2.555 -1.0913 -1.5322  2.6487
   66MOL0     H 8670   1.444  10.555   2.725 -2.7425  0.7983  2.0591
   66MOL0     H 8671   1.406  10.693   2.630  1.8618 -0.5598  0.5807
   66MOL0     H 8672   1.281  10.415   2.603  1.4598 -0.6898 -1.2477
   66MOL0     H 8673   1.253  10.560   2.498  0.6292  0.6691 -0.0242
   66MOL0     H 8674   1.057  10.675   2.888 -1.1202  1.3881 -0.5237
   66MOL0     H 8675   0.845  10.617   2.945  0.7482  0.7520  0.4110
   66MOL0     H 8676   0.350  10.582   2.867 -1.8085 -0.1154 -0.3185
   66MOL0     H 8677   0.143  10.525   2.994 -0.4689  0.2275  1.3014
   66MOL0     H 8678   0.190  10.343   3.376 -0.0106  1.2912 -1.6735
   66MOL0     H 8679   0.156  10.193   3.292 -0.3774 -0.5811  0.2224
   66MOL0     H 8680  -0.013  10.174   3.420 -2.7690 -0.2764  0.2051
   66MOL0     H 8681  -0.083  10.269   3.286 -3.4156  0.6458  1.3467
   66MOL0     H 8682  -0.047  10.493   3.425 -0.6234  2.6032  3.6563
   66MOL0     H 8683  -0.011  10.382   3.563 -0.1963  1.5722 -0.3666
   66MOL0     H 8684  -0.262  10.403   3.395  0.3789  2.9612  0.6239
   66MOL0     H 8685  -0.244  10.285   3.533  1.9160 -1.2880 -0.6061
   66MOL0     H 8686  -0.221  10.594   3.561 -0.5395  0.4526 -1.5897
   66MOL0     H 8687  -0.215  10.478   3.690  3.0998  0.7257 -1.5764
   66MOL0     H 8688  -0.465  10.413   3.604  1.3665 -0.9427 -0.2303
   66MOL0     H 8689  -0.442  10.548   3.485  3.2316  0.1644 -1.0924
   66MOL0     H 8690  -0.414  10.612   3.779  0.4118 -0.9164 -1.0199
   66MOL0     H 8691  -0.427  10.723   3.642  0.8733 -0.3440 -1.5537
   66MOL0     H 8692  -0.645  10.555   3.763 -1.2385 -0.9174 -0.7535
   66MOL0     H 8693  -0.662  10.632   3.601  2.8130  2.2160 -1.3063
   66MOL0     H 8694   0.361  10.273   3.253  0.0812  1.5818  0.8883
   66MOL0     H 8695   0.579  10.321   3.129  0.9900 -1.4569 -3.1371
   66MOL0     H 8696   0.819  10.297   2.648  0.0621  0.6637 -1.2756
   66MOL0     H 8697   1.061  10.373   2.584 -2.8293 -2.1560 -0.6274
   66MOL0     H 8698   2.787  10.033   1.975  0.0580  1.5574  1.4974
   66MOL0     H 8699   3.004  10.003   1.849  2.6554  4.8994  1.7530
   66MOL0     H 8700   3.431  10.024   1.704  3.0885 -1.1779 -0.9726
   66MOL0     H 8701   3.592   9.921   1.557 -1.2692 -5.0874 -1.7743
   66MOL0     H 8702   3.437   9.771   1.165 -0.8294  1.4378  0.1389
   66MOL0     H 8703   3.607   9.716   1.171  0.4781  0.5532 -2.3895
   66MOL0     H 8704   3.532  10.007   1.138 -0.4491 -0.4369  0.6507
   66MOL0     H 8705   3.686   9.952   1.092  0.1945 -0.1142 -1.9267
   66MOL0     H 8706   3.593   9.965   0.882 -1.4565  0.7537  0.5662
   66MOL0     H 8707   3.436   9.928   0.919  0.9027  0.0510 -2.7179
   66MOL0     H 8708   3.453   9.695   0.930 -1.4931  2.7120 -0.7211
   66MOL0     H 8709   3.534   9.745   0.776  0.2772 -0.9968 -0.7555
   66MOL0     H 8710   3.850   9.623   1.028 -1.4334  1.3448  1.4145
   66MOL0     H 8711   3.268   9.850   1.285 -0.0383  1.0289  0.6965
   66MOL0     H 8712   3.128   9.981   1.403 -1.8754  1.4056  1.8724
   67MOL0     O 8713  11.205  10.223   6.571 -0.2214 -0.4219  0.1069
   67MOL0     C 8714  11.173  10.113   6.617  0.9241  0.2378  0.3719
   67MOL0     O 8715  11.045  10.068   6.636 -0.4246 -0.3370 -0.7852
   67MOL0     C 8716  10.935  10.147   6.626  0.0806 -0.5928  1.2287
   67MOL0     C 8717  10.819  10.082   6.599  0.4885 -0.0175 -0.0197
   67MOL0     C 8718  10.699  10.157   6.598 -0.0783  1.0803  0.5864
   67MOL0     C 8719  10.692  10.290   6.636  0.7271 -0.1255 -0.6639
   67MOL0     O 8720  10.567  10.345   6.648 -0.3527 -0.7861 -0.3634
   67MOL0     C 8721  10.553  10.488   6.659  0.4599 -1.1193 -0.6173
   67MOL0     C 8722  10.533  10.549   6.520 -0.6937  0.4339 -0.5681
   67MOL0     C 8723  10.524  10.700   6.514 -0.3503 -0.7063 -0.4724
   67MOL0     C 8724  10.454  10.750   6.385 -0.2493  0.4226  0.1291
   67MOL0     C 8725  10.461  10.906   6.371 -0.6721 -0.2709  0.0938
   67MOL0     C 8726  10.387  10.949   6.250 -0.3705  0.1582  0.1332
   67MOL0     C 8727  10.412  11.102   6.219  1.4026  0.9524 -0.5392
   67MOL0     C 8728  10.316  11.161   6.112 -0.2667  0.5608 -0.3248
   67MOL0     N 8729  10.330  11.303   6.103 -0.6543 -0.3202  0.4571
   67MOL0     C 8730  10.297  11.395   6.196 -0.0488 -1.2966 -0.6363
   67MOL0     C 8731  10.326  11.520   6.138  0.2147  0.4936  0.3045
   67MOL0     C 8732  10.315  11.662   6.197 -0.6031  0.0831  0.4152
   67MOL0     C 8733  10.166  11.696   6.206 -0.4202 -0.0097 -0.0635
   67MOL0     C 8734  10.143  11.839   6.251  0.6162  0.2651  0.6683
   67MOL0     C 8735   9.991  11.851   6.283  0.2424  0.5543 -0.3196
   67MOL0     O 8736   9.900  11.813   6.179  0.0778  0.1806 -0.1290
   67MOL0     C 8737   9.763  11.818   6.206 -0.0865 -0.8204 -0.0460
   67MOL0     C 8738   9.678  11.800   6.100 -0.6510 -0.1987  0.7529
   67MOL0     C 8739   9.541  11.807   6.108  0.1983  0.3252  0.1202
   67MOL0     C 8740   9.479  11.839   6.233 -0.1977  0.2234 -0.1012
   67MOL0     C 8741   9.327  11.854   6.235  0.1368 -0.2788 -0.9777
   67MOL0     O 8742   9.260  11.901   6.354  0.0046 -0.0257  0.1941
   67MOL0     C 8743   9.130  11.871   6.358  0.5943 -0.0174  0.4027
   67MOL0     C 8744   9.042  11.974   6.345 -1.0579  0.2913  0.0560
   67MOL0     C 8745   8.907  11.961   6.353  0.8517 -0.3779  1.0007
   67MOL0     C 8746   8.848  11.831   6.376 -0.1002 -0.0288  0.2115
   67MOL0     O 8747   8.718  11.808   6.379  0.6051  0.2272  0.0644
   67MOL0     C 8748   8.625  11.916   6.404 -0.3455 -0.5323  0.0974
   67MOL0     C 8749   8.485  11.852   6.442 -0.8320 -1.1330 -0.2585
   67MOL0     C 8750   8.431  11.763   6.343 -0.1809  0.0152 -0.1799
   67MOL0     C 8751   8.292  11.706   6.379  0.0596  0.3816 -0.0055
   67MOL0     C 8752   8.234  11.599   6.282  0.6960 -0.2403  0.5922
   67MOL0     C 8753   8.103  11.556   6.350 -0.3625  0.0895 -0.1076
   67MOL0     C 8754   8.009  11.484   6.251 -0.4502 -0.2488  0.5274
   67MOL0     C 8755   7.865  11.465   6.322  0.0602 -0.1174  0.5723
   67MOL0    Cl 8756   7.745  11.555   6.233  0.4560 -0.1351 -0.0544
   67MOL0     C 8757   8.936  11.721   6.389 -0.7856 -0.8312  0.1409
   67MOL0     C 8758   9.078  11.743   6.391  0.9747 -0.6197 -0.7873
   67MOL0     O 8759   9.276  11.800   6.137 -0.6462  0.0242 -0.3744
   67MOL0     C 8760   9.559  11.863   6.343 -0.6022 -0.3046  0.3265
   67MOL0     C 8761   9.703  11.855   6.329 -0.4052  0.2543  0.7925
   67MOL0     N 8762  10.385  11.498   6.015 -0.0439  0.5371  0.0572
   67MOL0     N 8763  10.401  11.369   6.005  0.3367 -0.2341  0.2125
   67MOL0     C 8764  10.812  10.357   6.674 -0.1899 -0.3303  0.0725
   67MOL0     C 8765  10.934  10.281   6.664 -0.2515  0.0115 -0.5136
   67MOL0     C 8766  11.277  10.014   6.653  0.4925  0.1723  0.2980
   67MOL0     C 8767  11.270   9.875   6.635 -0.2356  0.3662 -0.2253
   67MOL0     C 8768  11.379   9.792   6.663  0.3535  0.5157 -0.0602
   67MOL0     C 8769  11.501   9.844   6.713  1.0132 -0.8929  1.2431
   67MOL0     O 8770  11.605   9.764   6.750  0.0439 -0.4426  0.6150
   67MOL0     C 8771  11.634   9.663   6.648 -0.4379  0.1525 -0.0373
   67MOL0     C 8772  11.782   9.633   6.647 -1.0277 -0.9868 -0.5930
   67MOL0     C 8773  11.842   9.548   6.528 -0.0162 -0.0822 -0.2292
   67MOL0     C 8774  12.003   9.553   6.517  0.6395  0.1597  1.3335
   67MOL0     C 8775  12.060   9.691   6.486  0.3902 -0.2994  0.4399
   67MOL0     C 8776  12.073   9.810   6.463 -0.4485  0.3802 -0.7074
   67MOL0     C 8777  11.503   9.980   6.750  0.7376  0.4874 -0.6900
   67MOL0     C 8778  11.392  10.068   6.721 -0.9786  0.9710  0.6479
   67MOL0     H 8779  10.817   9.976   6.580  2.3552 -0.1104  0.1150
   67MOL0     H 8780  10.599  10.121   6.575 -0.4868  3.1577 -1.3049
   67MOL0     H 8781  10.634  10.544   6.706 -0.9201 -1.1161  1.9410
   67MOL0     H 8782  10.463  10.513   6.717  1.2692  0.1997  0.1260
   67MOL0     H 8783  10.452  10.494   6.471  1.0486 -0.4959 -2.5700
   67MOL0     H 8784  10.618  10.532   6.454 -0.3937 -0.0960 -0.0475
   67MOL0     H 8785  10.620  10.750   6.529 -1.0651  0.8484 -0.8300
   67MOL0     H 8786  10.469  10.738   6.601  0.0896 -1.5864  0.2059
   67MOL0     H 8787  10.500  10.704   6.297  0.4832  1.3542  0.0135
   67MOL0     H 8788  10.350  10.717   6.386  0.2298 -1.2990  2.0257
   67MOL0     H 8789  10.567  10.927   6.353 -1.1161 -0.4734 -3.6570
   67MOL0     H 8790  10.427  10.961   6.459  0.0827  2.0551 -0.9849
   67MOL0     H 8791  10.283  10.928   6.279  0.0410  0.0719  1.6328
   67MOL0     H 8792  10.419  10.887   6.166  0.8222 -3.2385  2.8417
   67MOL0     H 8793  10.389  11.165   6.306 -0.6654 -1.2219  0.6086
   67MOL0     H 8794  10.516  11.099   6.185  1.8661 -0.0307  0.8728
   67MOL0     H 8795  10.219  11.140   6.157 -0.4070 -0.7834 -1.1834
   67MOL0     H 8796  10.322  11.120   6.010  0.4596  1.6354 -0.7434
   67MOL0     H 8797  10.260  11.367   6.295  3.7010  0.7128  1.5729
   67MOL0     H 8798  10.363  11.739   6.137 -0.1814 -0.2795  0.2812
   67MOL0     H 8799  10.362  11.660   6.296  2.0750 -3.2594 -0.7078
   67MOL0     H 8800  10.122  11.628   6.279  0.4398 -0.5196 -0.0088
   67MOL0     H 8801  10.113  11.669   6.114 -2.0252 -0.2006  0.8965
   67MOL0     H 8802  10.197  11.859   6.344  0.1067  0.8768  0.8416
   67MOL0     H 8803  10.157  11.911   6.169 -2.0298 -0.3959 -0.4707
   67MOL0     H 8804   9.975  11.952   6.320  3.0351  1.1949 -0.5951
   67MOL0     H 8805   9.987  11.774   6.362  2.0129  0.7755  0.0338
   67MOL0     H 8806   9.716  11.782   5.999 -1.6266 -2.1053  0.6746
   67MOL0     H 8807   9.496  11.786   6.011  2.0352  1.1253 -0.9609
   67MOL0     H 8808   9.089  12.064   6.307  0.3805 -0.0114  1.0308
   67MOL0     H 8809   8.835  12.039   6.330 -1.5323 -2.5216  0.8533
   67MOL0     H 8810   8.611  11.986   6.321 -0.1696  1.1493  1.4139
   67MOL0     H 8811   8.664  11.970   6.491  2.5884 -2.6405  0.2168
   67MOL0     H 8812   8.403  11.923   6.458 -1.3119 -1.2382 -2.0862
   67MOL0     H 8813   8.491  11.802   6.539 -2.4277 -2.3631 -0.7442
   67MOL0     H 8814   8.497  11.678   6.325 -2.0690 -1.3020 -1.2230
   67MOL0     H 8815   8.418  11.819   6.251 -0.3332  0.8801  0.3571
   67MOL0     H 8816   8.310  11.667   6.479  0.6320  1.6853  0.4160
   67MOL0     H 8817   8.227  11.793   6.382  0.0230  0.3218  1.6388
   67MOL0     H 8818   8.297  11.512   6.261  1.2484  0.5643 -1.2734
   67MOL0     H 8819   8.224  11.655   6.188  0.6807 -0.8758  0.2068
   67MOL0     H 8820   8.049  11.643   6.389 -1.7947 -0.3877 -0.9470
   67MOL0     H 8821   8.136  11.487   6.428  0.4383  0.5260 -0.0448
   67MOL0     H 8822   8.000  11.546   6.161 -0.0290 -0.9027  0.0296
   67MOL0     H 8823   8.063  11.393   6.222  0.3025  0.6472 -1.0374
   67MOL0     H 8824   7.844  11.491   6.426 -2.6579 -3.7508  1.1281
   67MOL0     H 8825   7.833  11.360   6.311 -1.7302  0.5366 -0.9840
   67MOL0     H 8826   8.908  11.616   6.396 -3.7055 -0.2432 -1.0912
   67MOL0     H 8827   9.140  11.663   6.430 -0.5342 -0.6466  1.7509
   67MOL0     H 8828   9.523  11.886   6.442  2.5864  1.9951  1.1235
   67MOL0     H 8829   9.762  11.877   6.418  0.6033 -0.5550  0.3352
   67MOL0     H 8830  10.821  10.460   6.708  2.1926  0.3107 -2.1935
   67MOL0     H 8831  11.024  10.335   6.688 -0.5831 -0.2023  1.3287
   67MOL0     H 8832  11.179   9.824   6.605  0.2833 -1.5452  1.2383
   67MOL0     H 8833  11.364   9.685   6.652 -0.9745  0.9158 -3.2973
   67MOL0     H 8834  11.599   9.688   6.548 -0.3158 -1.3151 -0.4645
   67MOL0     H 8835  11.580   9.570   6.669 -1.3160 -0.1139 -3.0869
   67MOL0     H 8836  11.832   9.729   6.657  0.1147 -1.5018 -1.0993
   67MOL0     H 8837  11.801   9.581   6.741 -0.0463  0.0558 -0.2064
   67MOL0     H 8838  11.813   9.581   6.428  0.9673 -0.8120 -0.7799
   67MOL0     H 8839  11.803   9.446   6.534 -1.3561  0.4758  1.1416
   67MOL0     H 8840  12.045   9.518   6.611  1.9758 -0.8679  0.3959
   67MOL0     H 8841  12.031   9.488   6.433  4.3721 -0.3834  2.8138
   67MOL0     H 8842  12.094   9.913   6.440 -1.5066  0.6015 -0.7520
   67MOL0     H 8843  11.585  10.029   6.801  0.9344 -1.1342  0.6563
   67MOL0     H 8844  11.411  10.169   6.756  0.0258 -0.0798  3.4060
   68MOL0     O 8845   6.434   0.458   0.939 -0.0109  0.4340  0.0242
   68MOL0     C 8846   6.421   0.416   1.051 -0.1444 -0.2428 -0.7993
   68MOL0     O 8847   6.526   0.369   1.133 -0.1451 -0.1327  0.3409
   68MOL0     C 8848   6.651   0.376   1.090 -1.2263 -0.1879  0.3173
   68MOL0     C 8849   6.715   0.469   0.997  0.6947 -0.3097  0.9195
   68MOL0     C 8850   6.849   0.457   0.960  0.3701 -0.3183 -0.4275
   68MOL0     C 8851   6.931   0.354   1.016  0.9524  0.1015  0.3893
   68MOL0     O 8852   7.064   0.324   0.985  0.2095  0.6111 -0.4727
   68MOL0     C 8853   7.128   0.422   0.907 -0.2765  0.1617 -0.1853
   68MOL0     C 8854   7.271   0.372   0.895  0.1173 -0.4485  0.4197
   68MOL0     C 8855   7.363   0.458   0.807 -0.5118  0.3464  0.2300
   68MOL0     C 8856   7.499   0.407   0.798  0.2842  0.3836 -0.8525
   68MOL0     C 8857   7.592   0.509   0.741 -0.2062 -1.1297 -0.2022
   68MOL0     C 8858   7.627   0.628   0.841 -1.0152  0.1829  1.0463
   68MOL0     C 8859   7.719   0.742   0.775 -0.0830  0.8055  0.0473
   68MOL0     C 8860   7.863   0.686   0.782 -0.2141 -0.4132 -0.5644
   68MOL0     N 8861   7.957   0.793   0.732 -1.2308 -0.1355 -0.0635
   68MOL0     C 8862   8.094   0.809   0.741 -0.4979 -0.2390  0.3869
   68MOL0     C 8863   8.117   0.926   0.677  0.8495 -0.0566  0.3674
   68MOL0     C 8864   8.241   1.009   0.684 -0.2974  0.0858 -0.1808
   68MOL0     C 8865   8.308   1.023   0.824 -0.4360 -0.8520 -0.3427
   68MOL0     C 8866   8.443   1.094   0.825 -0.6163 -0.7936  0.3505
   68MOL0     C 8867   8.554   1.000   0.794  0.0759  0.2061 -0.0918
   68MOL0     O 8868   8.667   1.031   0.872 -0.7009 -0.5406 -0.8824
   68MOL0     C 8869   8.762   1.109   0.818  0.0489  0.5306 -0.5376
   68MOL0     C 8870   8.753   1.186   0.700  1.0029 -0.1233 -0.7974
   68MOL0     C 8871   8.865   1.258   0.651  0.1604  0.0306 -0.3094
   68MOL0     C 8872   8.987   1.251   0.717 -0.1739  0.5175  0.9171
   68MOL0     C 8873   9.109   1.310   0.660 -0.0085  0.3954 -0.6166
   68MOL0     O 8874   9.091   1.400   0.555 -0.8139  0.0466 -0.3553
   68MOL0     C 8875   9.204   1.450   0.505  1.5069 -0.0094  1.2247
   68MOL0     C 8876   9.302   1.514   0.573 -0.5192  0.0656  0.0915
   68MOL0     C 8877   9.418   1.555   0.505 -0.2213  0.9782 -0.0019
   68MOL0     C 8878   9.428   1.549   0.367  1.1565  0.6448 -0.3250
   68MOL0     O 8879   9.542   1.595   0.314 -0.2265 -0.3248  0.3039
   68MOL0     C 8880   9.559   1.738   0.316  0.3413 -0.2549  0.0379
   68MOL0     C 8881   9.706   1.776   0.324  0.7683 -0.2685  0.1243
   68MOL0     C 8882   9.786   1.746   0.195 -0.2984  0.4248 -0.0933
   68MOL0     C 8883   9.808   1.867   0.113 -0.6498  0.7996  0.9670
   68MOL0     C 8884   9.890   1.830  -0.009 -0.4827 -0.0678  0.5265
   68MOL0     C 8885   9.934   1.959  -0.086 -0.3233 -0.3495 -0.2879
   68MOL0     C 8886  10.005   1.914  -0.214 -0.8989 -0.2945 -0.1378
   68MOL0     C 8887  10.093   2.024  -0.273 -0.3670  0.6294  0.0080
   68MOL0    Cl 8888   9.976   2.137  -0.343 -0.3936  0.0713 -0.1386
   68MOL0     C 8889   9.323   1.492   0.290  0.5096  0.6416  0.0071
   68MOL0     C 8890   9.214   1.445   0.360  0.2734 -0.2281 -0.1180
   68MOL0     O 8891   9.217   1.269   0.696  0.1666  0.2412 -0.6376
   68MOL0     C 8892   8.998   1.181   0.841 -0.1380 -0.4875  0.0728
   68MOL0     C 8893   8.886   1.118   0.890  0.0208 -0.3809 -0.4811
   68MOL0     N 8894   8.000   0.966   0.619  0.3839  0.5746  0.1842
   68MOL0     N 8895   7.903   0.888   0.648  0.5901 -0.0173  0.2406
   68MOL0     C 8896   6.867   0.259   1.098 -0.5844  0.1508 -1.2475
   68MOL0     C 8897   6.737   0.275   1.140  0.7240  0.2496 -0.3978
   68MOL0     C 8898   6.284   0.411   1.103  0.2726  0.2342  0.1137
   68MOL0     C 8899   6.173   0.397   1.017  0.5082  0.2709 -0.1877
   68MOL0     C 8900   6.047   0.372   1.065 -0.1197  0.9531  0.6782
   68MOL0     C 8901   6.018   0.367   1.205 -1.4779  0.1018 -0.1250
   68MOL0     O 8902   5.893   0.332   1.253  0.1216 -0.2604  0.3249
   68MOL0     C 8903   5.878   0.274   1.382 -0.0143 -0.7652 -0.2519
   68MOL0     C 8904   5.739   0.239   1.429  0.3457 -0.4567  0.6247
   68MOL0     C 8905   5.639   0.356   1.462  0.1170  0.2555  0.5864
   68MOL0     C 8906   5.523   0.303   1.549  0.9637  0.5829 -0.3318
   68MOL0     C 8907   5.443   0.422   1.569  0.5814 -0.5194  0.2851
   68MOL0     C 8908   5.380   0.525   1.587  0.3191 -0.8753  1.5618
   68MOL0     C 8909   6.133   0.380   1.292  0.0319  0.8930 -1.3222
   68MOL0     C 8910   6.267   0.395   1.241  0.0574  0.2799 -0.0827
   68MOL0     H 8911   6.643   0.539   0.958  0.4818  0.6672  2.9156
   68MOL0     H 8912   6.882   0.517   0.876 -2.4921 -0.1161 -1.5018
   68MOL0     H 8913   7.128   0.521   0.953  0.1100 -0.1530  0.5089
   68MOL0     H 8914   7.080   0.420   0.809 -0.9683  1.5749  0.0904
   68MOL0     H 8915   7.277   0.270   0.856 -0.0081 -1.5715  3.0804
   68MOL0     H 8916   7.323   0.371   0.992 -0.2098  0.9020  0.6288
   68MOL0     H 8917   7.369   0.555   0.857 -0.1433  0.2097  0.4575
   68MOL0     H 8918   7.321   0.468   0.707 -3.4756  1.6503  1.5008
   68MOL0     H 8919   7.528   0.387   0.902 -0.0927 -1.7791 -1.1170
   68MOL0     H 8920   7.490   0.311   0.746 -1.5935  0.7135 -1.1936
   68MOL0     H 8921   7.562   0.549   0.643  1.6262 -0.8280 -0.6878
   68MOL0     H 8922   7.686   0.458   0.715 -0.4541 -1.0456 -1.3378
   68MOL0     H 8923   7.667   0.587   0.935  0.9575 -1.9251 -0.5925
   68MOL0     H 8924   7.538   0.685   0.868 -0.6928  0.7348  0.9639
   68MOL0     H 8925   7.682   0.781   0.679 -0.7315  2.4898  0.9322
   68MOL0     H 8926   7.706   0.827   0.843 -2.0950  1.2688 -0.8216
   68MOL0     H 8927   7.885   0.607   0.709 -1.1087 -0.5578 -0.6993
   68MOL0     H 8928   7.897   0.661   0.882  2.2561  3.1451 -0.3427
   68MOL0     H 8929   8.172   0.749   0.787  0.0480 -3.6363 -4.2909
   68MOL0     H 8930   8.219   1.111   0.651  0.5162  0.8172  1.3931
   68MOL0     H 8931   8.313   0.970   0.611  0.8010  0.3877  0.6996
   68MOL0     H 8932   8.313   0.926   0.875  0.5496  0.2073  1.7302
   68MOL0     H 8933   8.235   1.082   0.880  0.1453 -0.0256 -0.4334
   68MOL0     H 8934   8.446   1.179   0.756  2.8351  1.2836  2.7025
   68MOL0     H 8935   8.462   1.137   0.924 -0.8756 -1.6704  0.7932
   68MOL0     H 8936   8.573   0.997   0.687  4.5241 -0.7331  0.5437
   68MOL0     H 8937   8.516   0.904   0.831 -2.5553  1.2776  0.2145
   68MOL0     H 8938   8.655   1.193   0.653 -0.1317  1.1598  1.5872
   68MOL0     H 8939   8.862   1.304   0.553 -0.0304  1.9118  0.5201
   68MOL0     H 8940   9.293   1.515   0.682  0.2805 -2.5535  0.2632
   68MOL0     H 8941   9.507   1.585   0.560  0.4177 -0.2680 -0.3046
   68MOL0     H 8942   9.505   1.778   0.402  0.7889 -0.4796  0.4308
   68MOL0     H 8943   9.510   1.780   0.228 -0.8999 -2.3741 -0.3619
   68MOL0     H 8944   9.752   1.723   0.408  0.3389  1.0477  1.2343
   68MOL0     H 8945   9.709   1.881   0.354  1.3642 -0.0881 -0.5408
   68MOL0     H 8946   9.736   1.666   0.140 -2.5128  2.3889 -1.0800
   68MOL0     H 8947   9.885   1.720   0.234 -0.8703 -1.7509  0.0278
   68MOL0     H 8948   9.712   1.905   0.079  0.5229  0.2468 -3.6511
   68MOL0     H 8949   9.844   1.945   0.182 -1.0763  1.2941  0.6362
   68MOL0     H 8950   9.820   1.777  -0.074 -0.6756 -0.1650  0.8101
   68MOL0     H 8951   9.980   1.774   0.016  1.8477  2.4376 -1.5832
   68MOL0     H 8952  10.006   2.022  -0.033 -0.8719 -0.1465  0.2250
   68MOL0     H 8953   9.854   2.032  -0.102 -0.8680  0.0028  3.2227
   68MOL0     H 8954  10.070   1.832  -0.182  0.4378  0.7834  0.0057
   68MOL0     H 8955   9.933   1.871  -0.284  0.3505 -0.7759 -1.1617
   68MOL0     H 8956  10.153   1.985  -0.356 -2.6684 -2.5788 -0.2962
   68MOL0     H 8957  10.156   2.061  -0.191 -0.4511 -0.6419  0.6666
   68MOL0     H 8958   9.348   1.471   0.186 -0.7154  0.8038 -0.3355
   68MOL0     H 8959   9.136   1.405   0.296  1.1000 -0.5556 -0.9420
   68MOL0     H 8960   9.093   1.179   0.894 -0.0114  0.4099 -0.0934
   68MOL0     H 8961   8.884   1.062   0.983 -1.2114 -0.7828 -0.7336
   68MOL0     H 8962   6.929   0.183   1.143 -0.9995  0.2948 -0.3981
   68MOL0     H 8963   6.678   0.200   1.192 -2.8374  1.4561 -2.3339
   68MOL0     H 8964   6.185   0.400   0.909  1.9404  3.4522 -0.0479
   68MOL0     H 8965   5.960   0.357   1.002 -0.2626  3.5407  0.1391
   68MOL0     H 8966   5.917   0.346   1.454 -0.6454  2.1787 -2.6371
   68MOL0     H 8967   5.944   0.188   1.388  0.3326 -0.6953 -2.4112
   68MOL0     H 8968   5.696   0.169   1.357  0.0030 -0.3659  0.7396
   68MOL0     H 8969   5.761   0.175   1.515  0.3909  0.1519  1.0735
   68MOL0     H 8970   5.592   0.395   1.372  1.9971  3.5300  0.8647
   68MOL0     H 8971   5.698   0.434   1.512  4.2036 -0.1070 -3.0978
   68MOL0     H 8972   5.460   0.223   1.509  1.5336 -1.4337  2.5094
   68MOL0     H 8973   5.557   0.274   1.649  1.6619  0.2752 -0.6574
   68MOL0     H 8974   5.320   0.614   1.595 -1.9746 -1.6647 -3.3341
   68MOL0     H 8975   6.114   0.384   1.399  0.9007  2.5824 -1.1859
   68MOL0     H 8976   6.351   0.399   1.310 -0.7118  0.1043  0.8858
   69MOL0     O 8977   7.713   6.926   9.688 -0.6191  0.0162 -0.0527
   69MOL0     C 8978   7.616   6.985   9.744 -0.1309 -0.2668 -0.0754
   69MOL0     O 8979   7.634   7.070   9.853  0.2172  0.2126  0.3654
   69MOL0     C 8980   7.766   7.095   9.888  0.1755 -0.0046  0.1028
   69MOL0     C 8981   7.868   7.000   9.904 -0.1682  0.2647  0.6844
   69MOL0     C 8982   8.005   7.045   9.928 -0.1050 -0.2642 -0.2673
   69MOL0     C 8983   8.037   7.186   9.925  0.7848  0.4086  0.0102
   69MOL0     O 8984   8.161   7.237   9.923  0.3333  0.0714  0.0161
   69MOL0     C 8985   8.271   7.161   9.875 -0.3844  0.6641  0.1457
   69MOL0     C 8986   8.343   7.105   9.994  0.5266 -0.0270  0.3329
   69MOL0     C 8987   8.434   7.205  10.051 -0.5153 -0.2773 -0.4789
   69MOL0     C 8988   8.505   7.148  10.174 -0.0988 -0.0100 -0.7564
   69MOL0     C 8989   8.613   7.243  10.214  0.0219 -0.3777 -0.1450
   69MOL0     C 8990   8.658   7.196  10.353 -0.8414  0.3405 -0.0159
   69MOL0     C 8991   8.775   7.280  10.411 -0.3077 -0.4551 -0.0128
   69MOL0     C 8992   8.704   7.392  10.489 -0.3330  0.2745 -0.9616
   69MOL0     N 8993   8.804   7.479  10.562 -0.0423  1.0292  0.8425
   69MOL0     C 8994   8.864   7.581  10.498  0.4157  0.4264 -0.1565
   69MOL0     C 8995   8.957   7.630  10.591  0.5069 -0.2279  0.6271
   69MOL0     C 8996   9.061   7.732  10.589  0.1331  1.2045 -0.1137
   69MOL0     C 8997   9.011   7.854  10.673 -0.1203 -0.1224  0.1811
   69MOL0     C 8998   9.080   7.987  10.670  0.0905 -0.0415 -0.1358
   69MOL0     C 8999   8.987   8.088  10.741 -0.1213 -0.2257 -0.5408
   69MOL0     O 9000   8.863   8.098  10.675  0.0635 -0.6256 -0.8820
   69MOL0     C 9001   8.753   8.145  10.742 -0.4851  0.0262 -0.1074
   69MOL0     C 9002   8.775   8.215  10.865  0.1862  0.5089  0.4359
   69MOL0     C 9003   8.669   8.261  10.943 -0.1706  0.1487  0.3148
   69MOL0     C 9004   8.536   8.252  10.894 -0.3527 -0.2093  0.4849
   69MOL0     C 9005   8.429   8.304  10.968  0.5269 -0.5246  0.2920
   69MOL0     O 9006   8.449   8.362  11.084  0.1768  0.6496  0.0075
   69MOL0     C 9007   8.339   8.410  11.151 -0.0591 -0.4929  0.1447
   69MOL0     C 9008   8.297   8.545  11.132 -0.0716  0.0697  0.6261
   69MOL0     C 9009   8.191   8.596  11.205 -0.2192  0.0460 -0.0776
   69MOL0     C 9010   8.122   8.516  11.288 -0.0107  0.8445 -0.8301
   69MOL0     O 9011   8.017   8.582  11.354  0.3478  0.6180  0.6333
   69MOL0     C 9012   7.898   8.511  11.350 -0.0102 -0.8509 -1.0400
   69MOL0     C 9013   7.775   8.575  11.414 -0.4710  0.2844  0.0778
   69MOL0     C 9014   7.694   8.677  11.325 -0.6300 -0.4728  0.7536
   69MOL0     C 9015   7.572   8.728  11.387  0.2681  0.2393  0.5145
   69MOL0     C 9016   7.507   8.835  11.306  0.2744  0.4268  0.5061
   69MOL0     C 9017   7.412   8.922  11.391 -0.4875 -0.3160  0.0173
   69MOL0     C 9018   7.319   8.985  11.287 -1.0507  0.0494 -0.1580
   69MOL0     C 9019   7.222   9.076  11.356 -0.5292 -0.7757 -0.0323
   69MOL0    Cl 9020   7.093   8.972  11.435 -0.3064  0.2557  0.2958
   69MOL0     C 9021   8.167   8.382  11.307  0.8507 -0.1003  0.1847
   69MOL0     C 9022   8.272   8.327  11.240  0.7027 -0.1606 -0.5115
   69MOL0     O 9023   8.316   8.304  10.910 -0.2073 -0.2491 -0.7024
   69MOL0     C 9024   8.519   8.171  10.780 -0.5309 -0.0776  0.3000
   69MOL0     C 9025   8.625   8.122  10.707  0.0148  0.2717  0.1398
   69MOL0     N 9026   8.951   7.543  10.701 -0.1111  0.0773 -0.2672
   69MOL0     N 9027   8.854   7.460  10.681  0.9649 -0.2510 -0.0856
   69MOL0     C 9028   7.931   7.276   9.923 -0.8001 -0.2720  0.1644
   69MOL0     C 9029   7.799   7.231   9.893  0.6436  0.7060 -0.3036
   69MOL0     C 9030   7.479   6.949   9.700 -0.3440  0.5605  0.9314
   69MOL0     C 9031   7.450   6.855   9.594 -0.7359  0.1395  0.5334
   69MOL0     C 9032   7.320   6.825   9.551 -0.0295 -0.1754 -0.3633
   69MOL0     C 9033   7.213   6.889   9.609 -0.1163  0.1452  0.1626
   69MOL0     O 9034   7.082   6.861   9.572  0.0844  0.4478  0.2785
   69MOL0     C 9035   7.061   6.812   9.435 -0.2835 -0.1440  0.8548
   69MOL0     C 9036   6.916   6.828   9.394  1.0394  0.6568  0.8962
   69MOL0     C 9037   6.875   6.973   9.419  0.2575  0.8221  1.2771
   69MOL0     C 9038   6.743   6.991   9.349  0.6646  0.5551  0.0604
   69MOL0     C 9039   6.717   7.139   9.358  0.5766  0.3351  0.2818
   69MOL0     C 9040   6.678   7.254   9.338  0.8797  0.4550 -0.4997
   69MOL0     C 9041   7.237   6.981   9.708 -0.5510 -0.4003 -0.7112
   69MOL0     C 9042   7.364   7.015   9.751 -0.2057 -0.2713  0.0830
   69MOL0     H 9043   7.830   6.898   9.905 -0.9496  0.4720  4.1552
   69MOL0     H 9044   8.095   6.984   9.934  0.4877  0.2426 -2.8773
   69MOL0     H 9045   8.336   7.227   9.817  2.6684 -3.9900 -2.3827
   69MOL0     H 9046   8.238   7.086   9.802 -0.1305  2.0211 -1.4202
   69MOL0     H 9047   8.395   7.019   9.951  3.1693  2.1060 -1.0454
   69MOL0     H 9048   8.260   7.084  10.062  0.5595 -0.9034  0.1097
   69MOL0     H 9049   8.394   7.302  10.083  1.3133  0.9994 -1.9033
   69MOL0     H 9050   8.515   7.226   9.981  0.5386  3.6610  1.5888
   69MOL0     H 9051   8.438   7.143  10.261 -0.0817 -1.9416 -0.8154
   69MOL0     H 9052   8.538   7.044  10.166 -1.9023 -0.7369  0.3975
   69MOL0     H 9053   8.566   7.341  10.214  0.7750 -0.0057  0.1492
   69MOL0     H 9054   8.696   7.235  10.143  1.7022 -5.1288  1.9109
   69MOL0     H 9055   8.705   7.099  10.334 -1.4166 -0.1739  1.0534
   69MOL0     H 9056   8.568   7.172  10.412 -1.7945 -2.4699 -2.3713
   69MOL0     H 9057   8.840   7.221  10.476  1.4899 -0.7536 -1.9796
   69MOL0     H 9058   8.832   7.334  10.334  0.6503  0.1218  1.0792
   69MOL0     H 9059   8.640   7.333  10.556  0.2924  1.3147  0.6132
   69MOL0     H 9060   8.653   7.458  10.418  0.8961  1.4191 -0.8260
   69MOL0     H 9061   8.830   7.610  10.399 -0.1150  0.8555  0.1413
   69MOL0     H 9062   9.071   7.751  10.482 -2.1451  1.5383 -0.3183
   69MOL0     H 9063   9.148   7.686  10.636 -0.1477 -0.5415 -1.2039
   69MOL0     H 9064   9.019   7.832  10.780  1.4366  0.4725  0.2168
   69MOL0     H 9065   8.907   7.869  10.643  0.1499 -2.0980 -2.0293
   69MOL0     H 9066   9.181   7.987  10.713  1.0960 -1.3858 -2.3365
   69MOL0     H 9067   9.096   8.020  10.567  1.0822 -1.4766 -0.4697
   69MOL0     H 9068   9.030   8.188  10.750 -0.1918 -0.1800 -0.7037
   69MOL0     H 9069   8.978   8.050  10.843 -3.4440 -1.9308 -1.3371
   69MOL0     H 9070   8.877   8.241  10.893  0.4581  0.8442 -0.8144
   69MOL0     H 9071   8.694   8.327  11.026 -1.3322 -0.6948  1.3638
   69MOL0     H 9072   8.346   8.621  11.072 -0.2140 -0.7599 -0.5742
   69MOL0     H 9073   8.166   8.701  11.193  3.0725  1.0443  0.6528
   69MOL0     H 9074   7.906   8.412  11.397  2.9344 -1.2262 -2.1366
   69MOL0     H 9075   7.873   8.499  11.244 -0.3708  1.1422 -1.2122
   69MOL0     H 9076   7.811   8.627  11.503  0.0762  0.3056 -0.1507
   69MOL0     H 9077   7.704   8.499  11.447 -0.2551  0.3302  0.6517
   69MOL0     H 9078   7.676   8.637  11.225 -0.6195  0.6826  0.2831
   69MOL0     H 9079   7.766   8.757  11.307  0.2622 -0.8272  2.5212
   69MOL0     H 9080   7.500   8.647  11.403  2.3644 -1.9326 -0.3725
   69MOL0     H 9081   7.594   8.760  11.489  0.6936  1.5169  0.0368
   69MOL0     H 9082   7.446   8.781  11.232 -1.1154  1.0668  1.1447
   69MOL0     H 9083   7.573   8.899  11.247  1.0116  2.1822  3.0998
   69MOL0     H 9084   7.448   9.001  11.458 -0.0282 -3.5995  4.0075
   69MOL0     H 9085   7.352   8.854  11.452 -2.6947 -0.2514 -1.9124
   69MOL0     H 9086   7.381   9.056  11.231 -0.7716  0.7517  0.9925
   69MOL0     H 9087   7.260   8.920  11.222 -2.0988  1.9474 -1.1900
   69MOL0     H 9088   7.166   9.131  11.280 -1.7442  2.7980  3.1542
   69MOL0     H 9089   7.273   9.147  11.421  1.0109 -1.4177 -0.4887
   69MOL0     H 9090   8.099   8.324  11.369  0.9187  0.0773  0.4279
   69MOL0     H 9091   8.299   8.222  11.241 -1.7733 -0.9093 -2.4564
   69MOL0     H 9092   8.421   8.149  10.739 -0.2436  1.9042 -1.6213
   69MOL0     H 9093   8.609   8.069  10.614 -0.0116  0.8937 -0.2155
   69MOL0     H 9094   7.941   7.384   9.921  0.3456 -0.3835 -0.6356
   69MOL0     H 9095   7.712   7.296   9.889 -1.6035 -2.1132 -0.9040
   69MOL0     H 9096   7.522   6.806   9.529 -1.2646  1.9599 -1.5581
   69MOL0     H 9097   7.306   6.753   9.471  1.2265  0.6518 -1.3706
   69MOL0     H 9098   7.093   6.710   9.414  1.0626  0.9837 -3.7968
   69MOL0     H 9099   7.112   6.864   9.353 -2.8350  2.3147  0.6329
   69MOL0     H 9100   6.908   6.793   9.291 -0.1114 -3.6683  2.2365
   69MOL0     H 9101   6.860   6.755   9.454  2.3490 -1.0317  0.1387
   69MOL0     H 9102   6.954   7.038   9.380 -0.6412  0.6794 -0.9621
   69MOL0     H 9103   6.864   6.993   9.526 -1.3382  2.6274  0.8312
   69MOL0     H 9104   6.744   6.971   9.241 -1.6326 -0.4217  0.1475
   69MOL0     H 9105   6.667   6.933   9.402  1.6740  1.1942  2.3188
   69MOL0     H 9106   6.626   7.346   9.325 -3.3816 -1.2846  2.0004
   69MOL0     H 9107   7.151   7.022   9.760  0.3369 -3.1006  3.4092
   69MOL0     H 9108   7.366   7.090   9.828 -0.9195  0.5811 -0.7000
   70MOL0     O 9109   0.111   5.771   3.871 -1.1793 -0.3472 -0.5642
   70MOL0     C 9110   0.190   5.683   3.829 -0.0903  0.8145  0.2164
   70MOL0     O 9111   0.173   5.543   3.842 -0.0759 -1.1238 -0.7399
   70MOL0     C 9112   0.056   5.502   3.897 -0.0659 -0.3742 -0.8343
   70MOL0     C 9113  -0.016   5.416   3.814 -0.4801 -0.2111  0.3016
   70MOL0     C 9114  -0.131   5.358   3.863 -0.3746  0.9317  0.2709
   70MOL0     C 9115  -0.169   5.382   3.993  0.3911 -0.6342 -0.4850
   70MOL0     O 9116  -0.283   5.324   4.045  0.3656 -0.4076  0.9603
   70MOL0     C 9117  -0.402   5.373   3.983  1.3465 -0.1632 -0.6120
   70MOL0     C 9118  -0.449   5.487   4.076 -0.5537  0.0974  0.2221
   70MOL0     C 9119  -0.589   5.517   4.034  0.4643  0.5773 -0.6816
   70MOL0     C 9120  -0.638   5.643   4.088  0.2671 -0.3339 -0.5702
   70MOL0     C 9121  -0.628   5.649   4.235  0.3210 -0.4358 -0.5051
   70MOL0     C 9122  -0.701   5.542   4.313 -0.6485 -0.0002 -0.0245
   70MOL0     C 9123  -0.854   5.548   4.302 -0.4626 -0.1646  0.5171
   70MOL0     C 9124  -0.917   5.686   4.319  0.1651 -0.3093 -0.9192
   70MOL0     N 9125  -1.060   5.671   4.295  0.0910  0.5359  0.3237
   70MOL0     C 9126  -1.141   5.568   4.362  0.1820 -0.0162 -0.2545
   70MOL0     C 9127  -1.261   5.587   4.303  0.4765 -0.2415  0.3442
   70MOL0     C 9128  -1.393   5.519   4.346 -0.2661  0.4704 -0.3406
   70MOL0     C 9129  -1.448   5.421   4.231 -0.7084  0.5954 -0.3402
   70MOL0     C 9130  -1.364   5.289   4.230 -0.4845 -0.1522 -0.1475
   70MOL0     C 9131  -1.411   5.187   4.133 -0.2332  0.5143 -0.0675
   70MOL0     O 9132  -1.552   5.179   4.158 -0.4139 -0.5470 -0.7854
   70MOL0     C 9133  -1.619   5.082   4.096  0.5247  0.4042  0.5503
   70MOL0     C 9134  -1.716   5.129   4.006 -0.2515 -0.0926  0.3149
   70MOL0     C 9135  -1.817   5.046   3.952  0.3270  0.5335  0.9207
   70MOL0     C 9136  -1.825   4.909   3.996  0.6588  0.3450  0.4933
   70MOL0     C 9137  -1.926   4.820   3.934  0.0833  0.6655 -0.6235
   70MOL0     O 9138  -2.009   4.872   3.842 -0.1755 -0.0685 -0.1484
   70MOL0     C 9139  -2.090   4.787   3.768 -0.8043  0.2852 -0.4501
   70MOL0     C 9140  -2.025   4.704   3.671  0.4369  0.5707 -0.9363
   70MOL0     C 9141  -2.096   4.600   3.611 -0.3071 -0.3213 -0.7348
   70MOL0     C 9142  -2.225   4.569   3.642 -0.4107  0.2769  0.6535
   70MOL0     O 9143  -2.272   4.444   3.596 -0.1507  0.1094  0.4307
   70MOL0     C 9144  -2.394   4.387   3.653  0.2141  0.1497  0.6247
   70MOL0     C 9145  -2.379   4.330   3.795  0.0536 -1.2597  0.3753
   70MOL0     C 9146  -2.515   4.256   3.830 -0.3446 -0.9623  0.4381
   70MOL0     C 9147  -2.553   4.139   3.747 -1.2485 -0.4843 -0.0427
   70MOL0     C 9148  -2.681   4.086   3.808  0.6582  0.4639 -0.4330
   70MOL0     C 9149  -2.799   4.163   3.771 -1.0727  0.2890  0.4242
   70MOL0     C 9150  -2.923   4.083   3.815 -1.2424 -0.4788  0.4676
   70MOL0     C 9151  -3.049   4.179   3.817  0.2974 -0.7882 -0.5969
   70MOL0    Cl 9152  -3.067   4.263   3.657 -0.0834  0.4769 -0.5838
   70MOL0     C 9153  -2.300   4.654   3.723 -0.5062  0.7106 -0.7311
   70MOL0     C 9154  -2.223   4.766   3.786  0.1595  0.8173  0.0396
   70MOL0     O 9155  -1.940   4.709   3.988 -0.3723  0.3678 -0.3055
   70MOL0     C 9156  -1.723   4.865   4.088  0.0112  0.3871  0.0920
   70MOL0     C 9157  -1.626   4.949   4.136 -0.2116 -0.4391  0.2112
   70MOL0     N 9158  -1.258   5.689   4.211 -0.4060 -0.0161  0.3060
   70MOL0     N 9159  -1.133   5.743   4.212 -0.1451 -0.0900  0.7563
   70MOL0     C 9160  -0.100   5.476   4.073  0.0386 -0.1758  0.3034
   70MOL0     C 9161   0.019   5.528   4.030 -0.6832 -0.5210  0.3608
   70MOL0     C 9162   0.315   5.719   3.752  0.0503  0.1806 -0.7652
   70MOL0     C 9163   0.407   5.622   3.698  0.2831 -0.8217  0.1862
   70MOL0     C 9164   0.531   5.656   3.641 -0.6212 -0.1413 -0.6011
   70MOL0     C 9165   0.566   5.797   3.641  0.2677  0.2937  0.2026
   70MOL0     O 9166   0.692   5.825   3.597  0.0808 -0.1039 -0.6410
   70MOL0     C 9167   0.734   5.954   3.591  0.6856  0.6038  0.6070
   70MOL0     C 9168   0.788   6.003   3.726  0.1925 -0.4855  0.4809
   70MOL0     C 9169   0.909   5.920   3.769 -0.4709  0.4709  0.0641
   70MOL0     C 9170   1.036   5.926   3.679 -0.2637  0.0161  0.4744
   70MOL0     C 9171   1.096   6.053   3.685 -0.3973 -0.0687 -0.7480
   70MOL0     C 9172   1.154   6.162   3.686  0.6106  0.2072  0.2395
   70MOL0     C 9173   0.475   5.884   3.687  0.5186  0.0024 -0.9406
   70MOL0     C 9174   0.356   5.852   3.743  0.2125  0.8776  0.8790
   70MOL0     H 9175   0.006   5.392   3.710  1.3475  1.2384  0.3095
   70MOL0     H 9176  -0.193   5.295   3.799  1.7054  1.3095 -2.3104
   70MOL0     H 9177  -0.477   5.293   3.978 -0.1056  1.1404 -0.5545
   70MOL0     H 9178  -0.396   5.409   3.880 -2.8687 -0.4531 -1.1270
   70MOL0     H 9179  -0.383   5.572   4.057 -1.7369  0.7004 -1.4319
   70MOL0     H 9180  -0.435   5.448   4.177  0.3634 -3.2176 -1.0113
   70MOL0     H 9181  -0.653   5.436   4.068 -3.5596  2.9710 -1.8525
   70MOL0     H 9182  -0.587   5.528   3.926 -2.7100  1.0952 -0.7920
   70MOL0     H 9183  -0.590   5.735   4.053  3.0080 -1.5050 -0.1359
   70MOL0     H 9184  -0.746   5.648   4.076  0.2195 -1.9478 -0.9707
   70MOL0     H 9185  -0.663   5.749   4.262  2.4892  0.9501 -2.4134
   70MOL0     H 9186  -0.522   5.648   4.264  0.0904 -1.1550  0.3830
   70MOL0     H 9187  -0.677   5.567   4.417 -1.4949 -1.0455  0.4414
   70MOL0     H 9188  -0.662   5.440   4.306 -0.5027  0.0364  0.2361
   70MOL0     H 9189  -0.881   5.507   4.204 -0.5968  1.0405  0.0421
   70MOL0     H 9190  -0.893   5.480   4.379 -0.3403 -0.3444  0.4203
   70MOL0     H 9191  -0.883   5.757   4.243  0.5735 -1.3650 -1.7351
   70MOL0     H 9192  -0.900   5.735   4.416  0.3665  1.0640 -1.6144
   70MOL0     H 9193  -1.109   5.498   4.438  0.0433 -1.4420 -1.4594
   70MOL0     H 9194  -1.476   5.588   4.360 -2.1388 -2.0839  2.6635
   70MOL0     H 9195  -1.388   5.460   4.439  0.2923 -1.4387 -1.5117
   70MOL0     H 9196  -1.455   5.469   4.133 -2.2934  2.8287  0.7767
   70MOL0     H 9197  -1.547   5.387   4.265 -0.6966 -0.4672 -1.3128
   70MOL0     H 9198  -1.258   5.313   4.218 -0.2981 -0.3407  0.9640
   70MOL0     H 9199  -1.364   5.243   4.330 -0.7218  0.1183 -0.0223
   70MOL0     H 9200  -1.356   5.099   4.167 -2.6169  0.5766  4.8457
   70MOL0     H 9201  -1.376   5.220   4.035  1.1578 -0.3322  0.1171
   70MOL0     H 9202  -1.710   5.237   4.002 -0.7221 -0.0955 -1.2581
   70MOL0     H 9203  -1.886   5.082   3.876  0.6632 -1.1782 -0.2527
   70MOL0     H 9204  -1.919   4.720   3.657  0.9978 -0.9550  1.0720
   70MOL0     H 9205  -2.053   4.540   3.532 -1.0489 -0.1349 -1.2790
   70MOL0     H 9206  -2.414   4.298   3.593  1.0727 -0.1467  0.7576
   70MOL0     H 9207  -2.480   4.454   3.642 -1.7984 -2.2268  0.8723
   70MOL0     H 9208  -2.356   4.405   3.871 -0.5216 -0.2135 -0.4575
   70MOL0     H 9209  -2.291   4.265   3.791  0.0628 -1.1949 -1.6738
   70MOL0     H 9210  -2.589   4.336   3.835  1.6299  0.9516  1.0106
   70MOL0     H 9211  -2.496   4.219   3.931 -1.3448  1.5869  1.6683
   70MOL0     H 9212  -2.566   4.165   3.641 -0.2237  1.5406  0.2843
   70MOL0     H 9213  -2.475   4.063   3.751 -1.2084 -0.3876  1.3797
   70MOL0     H 9214  -2.674   4.066   3.916 -3.0055  0.7057 -0.0033
   70MOL0     H 9215  -2.685   3.984   3.769  0.8031 -0.0045  0.7219
   70MOL0     H 9216  -2.794   4.186   3.664  0.9181 -0.7633  0.2424
   70MOL0     H 9217  -2.805   4.261   3.819  2.9840  1.5912 -1.3035
   70MOL0     H 9218  -2.957   3.995   3.758 -0.0572 -0.1403 -0.8202
   70MOL0     H 9219  -2.909   4.047   3.917  3.0523 -0.6116  0.0283
   70MOL0     H 9220  -3.029   4.259   3.889 -1.4777  1.1358 -2.1160
   70MOL0     H 9221  -3.136   4.117   3.840  3.4345 -4.4743  3.0611
   70MOL0     H 9222  -2.404   4.626   3.739  0.3653 -2.5055  0.0632
   70MOL0     H 9223  -2.285   4.818   3.858 -2.0061 -1.9184  0.3668
   70MOL0     H 9224  -1.720   4.760   4.115 -3.0767  0.3134  0.3968
   70MOL0     H 9225  -1.552   4.918   4.210  0.9774  1.8429  0.0753
   70MOL0     H 9226  -0.137   5.495   4.173 -0.0626 -1.1338  0.4543
   70MOL0     H 9227   0.086   5.590   4.089  0.5553 -0.5359 -0.9732
   70MOL0     H 9228   0.379   5.517   3.706 -0.0622 -0.7211  0.2969
   70MOL0     H 9229   0.590   5.580   3.590 -1.2009  0.1843 -1.7843
   70MOL0     H 9230   0.649   6.016   3.561  0.0440 -0.8501 -0.7339
   70MOL0     H 9231   0.811   5.963   3.514  0.8373  0.5963  0.7558
   70MOL0     H 9232   0.828   6.103   3.709 -1.5836  0.7906  3.0155
   70MOL0     H 9233   0.711   6.016   3.803 -0.6141 -2.1001 -0.0068
   70MOL0     H 9234   0.880   5.815   3.762 -1.4650  0.7233  0.2989
   70MOL0     H 9235   0.919   5.948   3.875  0.6977  2.0587 -0.4268
   70MOL0     H 9236   1.105   5.848   3.712 -1.6781 -2.3044 -1.6893
   70MOL0     H 9237   1.000   5.898   3.579  1.1573  2.8394 -0.9662
   70MOL0     H 9238   1.211   6.253   3.685  2.9624 -1.1692 -2.1511
   70MOL0     H 9239   0.500   5.990   3.690  0.3640  0.0495  2.3874
   70MOL0     H 9240   0.299   5.936   3.781 -1.2369 -0.8417  2.6406
   71MOL0     O 9241   5.549   9.018   7.311 -0.4836 -0.0288 -0.8806
   71MOL0     C 9242   5.584   8.907   7.336 -0.3451  0.1471  0.3519
   71MOL0     O 9243   5.507   8.819   7.398  1.0263 -0.6156 -0.3916
   71MOL0     C 9244   5.387   8.870   7.448  1.0867  0.4598  0.6924
   71MOL0     C 9245   5.272   8.786   7.434  0.2368 -0.1382  0.3375
   71MOL0     C 9246   5.146   8.815   7.492 -0.0468  0.0977  0.2833
   71MOL0     C 9247   5.137   8.931   7.563 -0.0016  0.4279  0.2098
   71MOL0     O 9248   5.027   8.942   7.647  0.0899 -0.2359  0.2076
   71MOL0     C 9249   4.900   8.885   7.614  0.3107  0.9552  0.4390
   71MOL0     C 9250   4.797   8.972   7.686  0.7946 -0.1642  0.4591
   71MOL0     C 9251   4.662   8.968   7.606  0.3397  0.4050 -0.7558
   71MOL0     C 9252   4.541   8.984   7.702  0.2838 -0.3210  0.2312
   71MOL0     C 9253   4.420   9.006   7.614  0.7098  0.2369  0.4713
   71MOL0     C 9254   4.280   8.973   7.678 -1.1826 -0.0620 -0.1114
   71MOL0     C 9255   4.160   8.981   7.575  0.0915  0.0777 -0.4066
   71MOL0     C 9256   4.029   8.916   7.638 -0.9774  0.3993  0.7215
   71MOL0     N 9257   3.914   8.939   7.550 -0.6351 -0.8491  0.3605
   71MOL0     C 9258   3.796   8.871   7.557  0.3524 -0.0137  0.1249
   71MOL0     C 9259   3.713   8.918   7.461 -0.7472 -0.3871 -0.1034
   71MOL0     C 9260   3.567   8.888   7.441 -0.1563  0.8946  0.0988
   71MOL0     C 9261   3.522   8.912   7.304 -0.0104  0.0999  0.1282
   71MOL0     C 9262   3.397   8.824   7.286  0.5083  0.3102  0.1245
   71MOL0     C 9263   3.306   8.882   7.177 -0.0759  0.7182  0.1779
   71MOL0     O 9264   3.169   8.826   7.166  0.4780 -0.3160 -0.1849
   71MOL0     C 9265   3.086   8.879   7.065  0.2640  0.1562 -0.0873
   71MOL0     C 9266   3.123   8.996   6.998  0.8665 -0.0067  0.1246
   71MOL0     C 9267   3.038   9.043   6.894 -0.8906  0.2557 -0.8326
   71MOL0     C 9268   2.913   8.979   6.873  0.4531 -0.6754  0.1626
   71MOL0     C 9269   2.815   9.040   6.778  0.8940  0.1588  0.3797
   71MOL0     O 9270   2.700   8.973   6.753  0.1055  0.3169  0.8024
   71MOL0     C 9271   2.595   9.020   6.669  0.4165 -0.8500 -0.5140
   71MOL0     C 9272   2.572   9.147   6.611 -0.3392 -0.4651  0.6823
   71MOL0     C 9273   2.461   9.177   6.528 -0.6242  0.9180 -0.0716
   71MOL0     C 9274   2.373   9.074   6.506 -0.4051 -0.1167 -0.3112
   71MOL0     O 9275   2.250   9.107   6.455  0.3560  0.7059 -0.5403
   71MOL0     C 9276   2.251   9.137   6.312  0.7517 -0.1694 -0.6408
   71MOL0     C 9277   2.115   9.152   6.243  0.1506  0.3478  0.2689
   71MOL0     C 9278   2.010   9.042   6.291 -0.0300  0.2111  0.2052
   71MOL0     C 9279   1.877   9.055   6.210  0.0845  0.0350 -0.7516
   71MOL0     C 9280   1.771   8.952   6.256  0.1891 -0.3952 -0.4099
   71MOL0     C 9281   1.659   8.937   6.150 -0.1792 -0.3366 -0.5765
   71MOL0     C 9282   1.560   8.828   6.182 -0.6330  0.5373  0.2611
   71MOL0     C 9283   1.450   8.794   6.088 -0.4945  0.5416  0.1897
   71MOL0    Cl 9284   1.381   8.945   6.013  0.2981  0.0415  0.1103
   71MOL0     C 9285   2.392   8.948   6.562 -0.9808  1.0845 -0.0509
   71MOL0     C 9286   2.505   8.916   6.644  1.3439 -0.4527 -0.0007
   71MOL0     O 9287   2.855   9.140   6.716  0.5305  0.8352  0.0207
   71MOL0     C 9288   2.875   8.876   6.953  0.2246  0.3728  0.2834
   71MOL0     C 9289   2.953   8.822   7.049 -0.1521 -0.6880 -0.5513
   71MOL0     N 9290   3.792   9.014   7.400  0.7555 -0.1327 -0.5930
   71MOL0     N 9291   3.902   9.043   7.462 -0.3323  0.5245  0.2692
   71MOL0     C 9292   5.238   9.022   7.580 -0.4116 -0.1847  0.0064
   71MOL0     C 9293   5.368   8.977   7.535  0.5794 -0.0107 -0.0417
   71MOL0     C 9294   5.724   8.859   7.294  0.1873  0.1303 -1.4526
   71MOL0     C 9295   5.748   8.722   7.296  0.0820  0.6324  1.1299
   71MOL0     C 9296   5.868   8.670   7.243 -0.0372  0.4773 -0.8057
   71MOL0     C 9297   5.968   8.756   7.182 -0.2883  0.1863 -0.2138
   71MOL0     O 9298   6.100   8.730   7.161 -0.5251  0.3786  0.7953
   71MOL0     C 9299   6.152   8.609   7.217  0.5787  0.2442  0.5022
   71MOL0     C 9300   6.292   8.593   7.141  0.3460  1.2121 -0.1357
   71MOL0     C 9301   6.398   8.698   7.186 -0.6524  0.0562  0.2506
   71MOL0     C 9302   6.520   8.698   7.102 -0.4153  0.3395  0.5310
   71MOL0     C 9303   6.620   8.789   7.158  0.4443 -0.1224  0.0735
   71MOL0     C 9304   6.716   8.851   7.199  0.2607 -0.7431  0.0366
   71MOL0     C 9305   5.940   8.890   7.184 -0.3331  0.8023 -0.4608
   71MOL0     C 9306   5.821   8.947   7.238  0.8453  0.1118  0.5454
   71MOL0     H 9307   5.276   8.696   7.373 -4.1033  0.1203 -0.6542
   71MOL0     H 9308   5.065   8.744   7.483  2.1440 -2.3365 -2.0010
   71MOL0     H 9309   4.905   8.778   7.637  1.2168  0.4123 -1.9837
   71MOL0     H 9310   4.868   8.888   7.509 -0.5366  1.7851  0.7081
   71MOL0     H 9311   4.834   9.075   7.697 -0.5375  0.2238  1.5848
   71MOL0     H 9312   4.785   8.931   7.787  0.1505  0.1096  0.4939
   71MOL0     H 9313   4.647   8.871   7.557  0.9491 -0.2163  0.2487
   71MOL0     H 9314   4.650   9.048   7.533  0.0079  0.9243 -0.1384
   71MOL0     H 9315   4.542   8.891   7.760 -0.2863  0.4724  1.5805
   71MOL0     H 9316   4.551   9.062   7.778 -0.8896  0.9194 -0.8426
   71MOL0     H 9317   4.433   8.937   7.530 -0.5561  1.6438 -0.9623
   71MOL0     H 9318   4.419   9.110   7.581 -1.9143  0.0943 -0.1692
   71MOL0     H 9319   4.267   9.037   7.766  1.9842  0.9567 -0.2504
   71MOL0     H 9320   4.282   8.867   7.703 -1.5936  0.3420  1.7883
   71MOL0     H 9321   4.150   9.083   7.537  5.4886  0.0981 -2.6416
   71MOL0     H 9322   4.193   8.916   7.494  2.0694 -1.2205  1.3576
   71MOL0     H 9323   4.011   8.970   7.731 -1.0583  0.0150  0.9328
   71MOL0     H 9324   4.040   8.808   7.655 -2.1529  0.7605  4.8165
   71MOL0     H 9325   3.761   8.801   7.632 -1.2285  2.0480  1.4399
   71MOL0     H 9326   3.509   8.947   7.513  3.0905  5.5160 -0.6766
   71MOL0     H 9327   3.562   8.782   7.466  1.1375  0.9401  0.6048
   71MOL0     H 9328   3.596   8.880   7.230 -2.3854 -2.2019 -1.4013
   71MOL0     H 9329   3.502   9.018   7.286 -0.6107  0.1634  1.1231
   71MOL0     H 9330   3.426   8.721   7.263 -1.2046 -0.5741  1.6874
   71MOL0     H 9331   3.344   8.822   7.381  1.5391 -1.7114  0.7188
   71MOL0     H 9332   3.343   8.879   7.075 -3.7041  1.8127 -1.3310
   71MOL0     H 9333   3.295   8.982   7.220 -0.3924  0.0392  1.7401
   71MOL0     H 9334   3.217   9.049   7.011 -0.2451  1.6357  2.1854
   71MOL0     H 9335   3.078   9.131   6.846 -1.5332  0.0218 -1.8201
   71MOL0     H 9336   2.652   9.219   6.612 -0.5987 -0.1656  0.3193
   71MOL0     H 9337   2.436   9.275   6.488  1.6448  0.5369 -2.7486
   71MOL0     H 9338   2.312   9.066   6.255  0.8510 -1.5242  1.0635
   71MOL0     H 9339   2.291   9.238   6.298 -2.4635  1.5432  1.3746
   71MOL0     H 9340   2.134   9.133   6.137 -0.6802 -2.2003  0.4960
   71MOL0     H 9341   2.083   9.255   6.257  0.9402  0.6781 -0.2904
   71MOL0     H 9342   2.002   9.051   6.399 -0.6635 -2.2021  0.4183
   71MOL0     H 9343   2.058   8.944   6.280 -3.4894 -1.4018 -2.5766
   71MOL0     H 9344   1.829   9.153   6.218  0.5439  0.3103 -1.2750
   71MOL0     H 9345   1.884   9.043   6.102  1.6073  3.0699 -1.0890
   71MOL0     H 9346   1.725   8.978   6.351 -0.8557 -0.1242 -0.9768
   71MOL0     H 9347   1.821   8.856   6.276  2.5656  1.2278  2.1234
   71MOL0     H 9348   1.698   8.924   6.049  1.0097 -1.9854  0.0551
   71MOL0     H 9349   1.605   9.032   6.162  0.4951 -0.2153  2.1909
   71MOL0     H 9350   1.612   8.733   6.198 -0.6076  0.4206 -0.4498
   71MOL0     H 9351   1.516   8.851   6.279 -1.0549  2.9773 -0.4445
   71MOL0     H 9352   1.371   8.741   6.141  1.7177 -2.4687  0.7445
   71MOL0     H 9353   1.506   8.739   6.011 -0.8155  0.7333 -0.1878
   71MOL0     H 9354   2.310   8.877   6.558  0.6693 -0.9293  0.0001
   71MOL0     H 9355   2.518   8.824   6.700  1.1314 -2.3840 -2.9047
   71MOL0     H 9356   2.776   8.831   6.944  0.7632 -2.0281  4.0329
   71MOL0     H 9357   2.934   8.735   7.110  2.9362 -0.2628  1.2244
   71MOL0     H 9358   5.225   9.112   7.639  1.0988  2.2680 -3.1135
   71MOL0     H 9359   5.454   9.028   7.576 -0.8040  2.9422 -0.4821
   71MOL0     H 9360   5.683   8.643   7.334 -2.1252  2.1688  0.7116
   71MOL0     H 9361   5.872   8.563   7.265 -1.9032  0.2277 -1.4749
   71MOL0     H 9362   6.077   8.530   7.201 -1.3463  1.5356  2.6367
   71MOL0     H 9363   6.165   8.615   7.325  2.6051  3.1497  0.2164
   71MOL0     H 9364   6.332   8.491   7.134  0.8271  1.3767  0.1395
   71MOL0     H 9365   6.268   8.627   7.040  0.0231  2.1571  0.2557
   71MOL0     H 9366   6.428   8.676   7.289  1.0609 -6.3064 -1.1781
   71MOL0     H 9367   6.357   8.799   7.190  0.5520  0.5759 -0.0761
   71MOL0     H 9368   6.563   8.597   7.100 -1.0263  0.0834 -0.8320
   71MOL0     H 9369   6.510   8.726   6.997  1.6219  1.9452  0.7062
   71MOL0     H 9370   6.801   8.909   7.228 -0.9670  1.7953 -1.1840
   71MOL0     H 9371   6.024   8.958   7.169 -0.2972  1.0521  0.7601
   71MOL0     H 9372   5.793   9.052   7.243 -0.0897  0.1155 -2.6453
   72MOL0     O 9373   6.581   0.444   9.896  0.2333  0.5122  0.3393
   72MOL0     C 9374   6.578   0.378  10.002 -0.2112  0.0576  0.1984
   72MOL0     O 9375   6.463   0.338  10.071 -0.0469 -0.7938  0.6632
   72MOL0     C 9376   6.341   0.365  10.013 -0.0210 -0.3235 -0.3298
   72MOL0     C 9377   6.258   0.263   9.979 -0.1226  0.5478  0.2713
   72MOL0     C 9378   6.142   0.291   9.908  0.0874 -1.1103  0.3274
   72MOL0     C 9379   6.085   0.418   9.919 -1.1784  0.2452  0.9436
   72MOL0     O 9380   5.950   0.437   9.903 -0.6394  0.1131 -0.0665
   72MOL0     C 9381   5.886   0.354   9.819  0.7578  1.2696 -0.8525
   72MOL0     C 9382   5.743   0.400   9.799  0.7485  0.7386 -0.1243
   72MOL0     C 9383   5.640   0.289   9.803  0.4041 -0.1896 -0.4690
   72MOL0     C 9384   5.486   0.340   9.797  0.1435  0.6020 -0.3394
   72MOL0     C 9385   5.399   0.207   9.777  0.5649  0.0421 -0.3825
   72MOL0     C 9386   5.343   0.170   9.911  0.4626 -0.1538 -0.3439
   72MOL0     C 9387   5.254   0.046   9.916  0.2005  0.1036 -0.5166
   72MOL0     C 9388   5.197   0.013  10.057 -0.1168  0.5152 -0.2481
   72MOL0     N 9389   5.103   0.117  10.084  0.3234 -0.0165 -0.4949
   72MOL0     C 9390   4.996   0.162  10.011  0.0398 -0.0769  0.7055
   72MOL0     C 9391   4.918   0.230  10.094 -0.3892  0.0277 -0.7206
   72MOL0     C 9392   4.790   0.302  10.053 -0.1574 -0.3791  0.2644
   72MOL0     C 9393   4.672   0.206  10.057 -1.6762 -1.3718 -0.9093
   72MOL0     C 9394   4.620   0.203  10.202 -0.8908 -0.0602 -0.1172
   72MOL0     C 9395   4.508   0.092  10.222 -0.4316  1.0021 -0.0894
   72MOL0     O 9396   4.386   0.119  10.154  0.9167 -0.2457  0.6173
   72MOL0     C 9397   4.291   0.015  10.150  0.9703 -0.0015  0.4854
   72MOL0     C 9398   4.172   0.044  10.092  0.0362 -0.4630  0.1106
   72MOL0     C 9399   4.065  -0.045  10.090 -0.1766  0.9510  0.5120
   72MOL0     C 9400   4.085  -0.176  10.140  0.3307  0.1464 -0.6510
   72MOL0     C 9401   3.977  -0.278  10.122  0.0672 -0.3024  0.7804
   72MOL0     O 9402   3.857  -0.231  10.073  0.1502  0.6790  0.6792
   72MOL0     C 9403   3.756  -0.321  10.060 -0.1443  0.3553  0.4331
   72MOL0     C 9404   3.632  -0.263  10.080 -0.1908  0.9575 -1.2082
   72MOL0     C 9405   3.516  -0.337  10.061 -0.5199 -0.3947  0.1698
   72MOL0     C 9406   3.526  -0.470  10.030  0.2441  0.5351  0.8881
   72MOL0     O 9407   3.401  -0.536  10.029 -0.1055  0.5462  0.0875
   72MOL0     C 9408   3.407  -0.679   9.993 -0.1858  0.3498  0.0816
   72MOL0     C 9409   3.263  -0.741  10.022  0.0219  0.0060 -0.3928
   72MOL0     C 9410   3.214  -0.705  10.169  0.2477  0.0313 -0.2111
   72MOL0     C 9411   3.100  -0.801  10.221  0.4464  0.8159  0.2450
   72MOL0     C 9412   2.968  -0.770  10.142  0.7128  0.4090  0.3877
   72MOL0     C 9413   2.848  -0.822  10.229 -0.2787  0.8294  0.3441
   72MOL0     C 9414   2.717  -0.818  10.131  0.6793 -0.4440  0.5513
   72MOL0     C 9415   2.596  -0.863  10.204  0.0396 -0.2682  1.0370
   72MOL0    Cl 9416   2.446  -0.791  10.135  0.0334 -0.5755 -0.2478
   72MOL0     C 9417   3.653  -0.530  10.010  0.7968  0.2020  0.4135
   72MOL0     C 9418   3.769  -0.453  10.021  0.7786  0.3162 -0.3279
   72MOL0     O 9419   4.005  -0.391  10.161 -0.3438  0.3906 -0.2969
   72MOL0     C 9420   4.207  -0.208  10.210 -0.2588 -0.5419  0.3145
   72MOL0     C 9421   4.304  -0.104  10.214  0.1908  0.2612 -0.2395
   72MOL0     N 9422   4.977   0.223  10.214 -0.5624 -0.1327 -0.9737
   72MOL0     N 9423   5.094   0.174  10.208  0.3101 -0.2576  0.2377
   72MOL0     C 9424   6.164   0.525   9.966 -0.0130  0.2847 -0.4134
   72MOL0     C 9425   6.299   0.495  10.008 -0.4967 -0.0418  0.6882
   72MOL0     C 9426   6.714   0.365  10.072  0.7702 -0.0234  0.6019
   72MOL0     C 9427   6.831   0.395  10.000  0.1569 -0.0202 -0.2980
   72MOL0     C 9428   6.955   0.375  10.069  0.6172  0.2694 -0.4492
   72MOL0     C 9429   6.953   0.343  10.209  0.6340 -0.6408 -0.0492
   72MOL0     O 9430   7.064   0.322  10.294  0.2204  0.1929 -0.3424
   72MOL0     C 9431   7.196   0.345  10.241  0.1364 -0.8044  0.1001
   72MOL0     C 9432   7.291   0.283  10.344  0.0994 -0.6695 -0.5675
   72MOL0     C 9433   7.306   0.373  10.464  0.3569 -0.1624 -0.4424
   72MOL0     C 9434   7.394   0.326  10.581 -0.2824 -0.2680  0.2723
   72MOL0     C 9435   7.512   0.242  10.545  0.0024  0.1442 -0.4639
   72MOL0     C 9436   7.614   0.188  10.508  0.1915 -0.0409 -0.2251
   72MOL0     C 9437   6.835   0.327  10.273 -0.3084  0.8677  0.8405
   72MOL0     C 9438   6.716   0.344  10.210 -0.8702 -0.2377 -0.7417
   72MOL0     H 9439   6.293   0.160   9.982  1.1793  0.9946  0.9316
   72MOL0     H 9440   6.103   0.205   9.854  2.7674 -1.1922 -1.6561
   72MOL0     H 9441   5.879   0.252   9.856  1.1741  0.7229 -2.2246
   72MOL0     H 9442   5.935   0.347   9.721 -0.4051 -0.3216 -1.3493
   72MOL0     H 9443   5.733   0.457   9.706  0.7792  1.7179  0.4589
   72MOL0     H 9444   5.712   0.464   9.882 -0.5788  0.1818 -0.1666
   72MOL0     H 9445   5.646   0.223   9.890 -0.0098  1.7647  1.1288
   72MOL0     H 9446   5.664   0.230   9.714  1.6540 -2.8704  1.5009
   72MOL0     H 9447   5.448   0.392   9.885  0.2790  1.2719 -0.6746
   72MOL0     H 9448   5.476   0.417   9.720 -1.9687  1.6533  0.8877
   72MOL0     H 9449   5.459   0.120   9.750 -2.1995 -1.8430 -0.8376
   72MOL0     H 9450   5.321   0.220   9.702  0.6950 -0.5944 -0.6309
   72MOL0     H 9451   5.284   0.251   9.956  0.7899 -0.6587  1.0470
   72MOL0     H 9452   5.423   0.143   9.981 -3.0381 -3.6066  2.8253
   72MOL0     H 9453   5.178   0.059   9.839 -0.9234 -1.4416  0.2638
   72MOL0     H 9454   5.304  -0.049   9.895 -1.6242 -0.7776 -1.0790
   72MOL0     H 9455   5.268   0.019  10.141 -2.8342 -1.1728  2.3703
   72MOL0     H 9456   5.156  -0.088  10.067 -0.8352  0.9987  2.6542
   72MOL0     H 9457   4.981   0.148   9.905 -2.5178 -2.7196  1.2804
   72MOL0     H 9458   4.802   0.336   9.949 -2.4726  3.3886  1.0148
   72MOL0     H 9459   4.777   0.395  10.109  2.9454  0.6723 -0.5257
   72MOL0     H 9460   4.694   0.101  10.033 -0.8141 -2.7471  4.5695
   72MOL0     H 9461   4.582   0.233  10.001 -2.5310 -1.6262  0.3076
   72MOL0     H 9462   4.706   0.190  10.268 -1.0932 -2.8596 -0.2597
   72MOL0     H 9463   4.569   0.295  10.232  0.4665  0.4915  0.5358
   72MOL0     H 9464   4.494   0.071  10.328  1.3351 -1.8594 -0.3307
   72MOL0     H 9465   4.553  -0.002  10.189 -0.4839  0.2508  1.8476
   72MOL0     H 9466   4.159   0.146  10.059 -0.3973  0.3734  2.6536
   72MOL0     H 9467   3.972  -0.007  10.050 -0.2739 -1.6480 -2.0564
   72MOL0     H 9468   3.626  -0.157  10.102 -0.8519  0.2537  2.8427
   72MOL0     H 9469   3.418  -0.290  10.063  0.3705  1.5088  1.0413
   72MOL0     H 9470   3.481  -0.731  10.055 -0.5790  1.8994  1.9813
   72MOL0     H 9471   3.430  -0.693   9.887 -1.3147  5.4190 -1.1149
   72MOL0     H 9472   3.270  -0.850  10.011 -0.9093 -0.6488  3.7674
   72MOL0     H 9473   3.189  -0.697   9.956 -0.7556  0.5191  0.7798
   72MOL0     H 9474   3.185  -0.600  10.170 -0.1748 -0.0331 -1.7357
   72MOL0     H 9475   3.301  -0.709  10.235 -1.3307  0.1282  1.9915
   72MOL0     H 9476   3.133  -0.905  10.219 -1.3214  0.2057  1.1677
   72MOL0     H 9477   3.076  -0.790  10.327 -1.9662 -2.5554  0.2201
   72MOL0     H 9478   2.971  -0.822  10.047 -1.1801 -0.7800  0.9289
   72MOL0     H 9479   2.957  -0.663  10.120  2.5592  0.0925 -2.4870
   72MOL0     H 9480   2.848  -0.762  10.321 -0.2426 -2.3783  2.6209
   72MOL0     H 9481   2.854  -0.927  10.261 -1.4105 -0.0321 -2.0267
   72MOL0     H 9482   2.694  -0.715  10.102  3.0780  0.6900  2.3153
   72MOL0     H 9483   2.734  -0.877  10.040 -0.0439  2.1884 -1.4256
   72MOL0     H 9484   2.601  -0.827  10.307  1.2607  1.8273  0.3294
   72MOL0     H 9485   2.587  -0.970  10.186 -0.6336  0.2546 -2.4255
   72MOL0     H 9486   3.650  -0.638  10.001  0.1340 -0.0876  3.1961
   72MOL0     H 9487   3.862  -0.500   9.991 -1.1906 -3.6436 -0.8717
   72MOL0     H 9488   4.232  -0.307  10.247 -1.8156 -0.5671  1.3664
   72MOL0     H 9489   4.397  -0.130  10.263  0.0861  1.7499  0.8580
   72MOL0     H 9490   6.120   0.623   9.954  1.5706  0.9683 -0.8627
   72MOL0     H 9491   6.375   0.566  10.036 -2.0203  2.3731 -0.9396
   72MOL0     H 9492   6.830   0.428   9.896  1.3642 -1.8823 -0.9634
   72MOL0     H 9493   7.049   0.412  10.031  0.9755 -0.2094 -0.0389
   72MOL0     H 9494   7.213   0.453  10.235  2.0891 -0.8822  2.6600
   72MOL0     H 9495   7.216   0.298  10.144 -0.2289 -3.4200  1.2110
   72MOL0     H 9496   7.256   0.181  10.365  0.9195 -1.0994 -1.2044
   72MOL0     H 9497   7.391   0.285  10.299  1.9802  0.7920  3.3068
   72MOL0     H 9498   7.209   0.407  10.502  1.0101  1.3288 -0.0700
   72MOL0     H 9499   7.351   0.468  10.433 -1.6995  1.6717  1.8148
   72MOL0     H 9500   7.431   0.411  10.639  0.4959  0.3080 -1.0098
   72MOL0     H 9501   7.336   0.285  10.664 -1.8301  1.4511  0.1133
   72MOL0     H 9502   7.712   0.155  10.477  0.0173 -0.5187 -0.2726
   72MOL0     H 9503   6.825   0.301  10.378 -3.7805  1.0654  0.6706
   72MOL0     H 9504   6.630   0.321  10.272 -0.7682  1.7082  0.1929
   73MOL0     O 9505  10.281   8.254   6.018 -0.2735  0.3958 -0.1590
   73MOL0     C 9506  10.369   8.173   6.060 -0.2650 -0.7675  0.4498
   73MOL0     O 9507  10.350   8.070   6.154 -0.8813 -0.5399 -0.3033
   73MOL0     C 9508  10.238   8.022   6.210 -0.4016 -0.0129 -0.2361
   73MOL0     C 9509  10.125   8.104   6.260 -0.4261  1.1663  0.1881
   73MOL0     C 9510  10.009   8.048   6.311  0.0756 -0.4252 -0.5735
   73MOL0     C 9511  10.001   7.909   6.318 -0.7611 -0.8769  0.3345
   73MOL0     O 9512   9.899   7.847   6.377  0.5718  0.7488 -0.1529
   73MOL0     C 9513   9.831   7.753   6.292 -0.9034  0.1204  0.4691
   73MOL0     C 9514   9.712   7.702   6.375  0.1735 -0.8730 -0.1656
   73MOL0     C 9515   9.627   7.822   6.423  0.4163 -0.0818  0.8153
   73MOL0     C 9516   9.479   7.778   6.457  0.0163 -0.0783  0.1579
   73MOL0     C 9517   9.387   7.883   6.515  0.5649  0.3460 -0.7527
   73MOL0     C 9518   9.237   7.840   6.488 -0.4405  0.1349 -0.4980
   73MOL0     C 9519   9.138   7.936   6.569 -0.1113  0.4903  0.1424
   73MOL0     C 9520   8.985   7.901   6.572 -0.8251 -0.5157 -0.0779
   73MOL0     N 9521   8.926   7.958   6.447  0.5068  0.1578 -0.2160
   73MOL0     C 9522   8.875   7.874   6.357 -0.1753  0.1685  1.1390
   73MOL0     C 9523   8.857   7.950   6.249 -0.6207 -0.8581  0.2939
   73MOL0     C 9524   8.809   7.893   6.124 -0.1053  0.4765  0.3199
   73MOL0     C 9525   8.659   7.859   6.121 -1.3877 -0.5425 -0.4822
   73MOL0     C 9526   8.576   7.981   6.085 -0.6266 -0.5398  1.0704
   73MOL0     C 9527   8.427   7.943   6.088 -0.3231  1.0895  0.1312
   73MOL0     O 9528   8.399   7.847   5.980  0.2912  0.1837 -0.5102
   73MOL0     C 9529   8.267   7.799   5.980  0.1458 -0.6057  0.0746
   73MOL0     C 9530   8.245   7.689   5.899 -0.1771 -0.5492 -0.7046
   73MOL0     C 9531   8.120   7.642   5.892 -0.1836  0.8344 -0.4090
   73MOL0     C 9532   8.005   7.700   5.945 -0.6376  0.4533  0.6461
   73MOL0     C 9533   7.873   7.641   5.938  0.4381 -0.3760  0.6162
   73MOL0     O 9534   7.863   7.545   5.856  0.3744 -0.0080  0.8965
   73MOL0     C 9535   7.733   7.497   5.826  0.5824  0.0911 -0.9741
   73MOL0     C 9536   7.698   7.368   5.859 -0.1815 -0.5851  0.2265
   73MOL0     C 9537   7.579   7.311   5.809  0.1972 -0.1652  0.3582
   73MOL0     C 9538   7.494   7.385   5.728 -0.5018 -0.4918  0.1783
   73MOL0     O 9539   7.380   7.341   5.671 -0.0321 -0.5769 -0.1468
   73MOL0     C 9540   7.300   7.236   5.742  0.5162  0.0562  0.8899
   73MOL0     C 9541   7.156   7.269   5.715 -0.5643 -0.5003  0.0484
   73MOL0     C 9542   7.090   7.143   5.662 -0.8597  0.6226  0.3989
   73MOL0     C 9543   6.959   7.201   5.599  0.3695  0.7105  0.0722
   73MOL0     C 9544   6.871   7.095   5.523 -0.5450 -0.5987 -0.6209
   73MOL0     C 9545   6.765   7.168   5.446  0.6381  0.6612  0.7315
   73MOL0     C 9546   6.656   7.231   5.531 -0.3498  0.2014 -1.0054
   73MOL0     C 9547   6.552   7.300   5.446  0.6876  0.2430 -0.2944
   73MOL0    Cl 9548   6.423   7.361   5.544  0.1177 -0.1145  0.3803
   73MOL0     C 9549   7.524   7.516   5.692  0.5631 -1.0241 -0.2380
   73MOL0     C 9550   7.637   7.580   5.760  0.2021 -0.0634 -0.2008
   73MOL0     O 9551   7.778   7.691   5.998  0.2760 -0.3519 -0.0472
   73MOL0     C 9552   8.027   7.813   6.014  0.9147 -0.3733  0.9685
   73MOL0     C 9553   8.150   7.867   6.030 -0.4120 -0.6253 -0.1259
   73MOL0     N 9554   8.898   8.082   6.280  0.0277  0.3550 -0.3071
   73MOL0     N 9555   8.949   8.080   6.398  0.7253  0.1004  0.0541
   73MOL0     C 9556  10.103   7.831   6.269 -0.5752 -0.1662 -0.9446
   73MOL0     C 9557  10.220   7.882   6.206  0.4164 -0.0508 -0.3477
   73MOL0     C 9558  10.506   8.181   6.001  0.9159  0.2811 -0.1771
   73MOL0     C 9559  10.609   8.096   6.037  0.3828 -0.8177  0.1826
   73MOL0     C 9560  10.733   8.113   5.989  0.0397  0.4859 -0.2641
   73MOL0     C 9561  10.758   8.211   5.899 -0.7311 -0.5234  0.6191
   73MOL0     O 9562  10.884   8.243   5.850  0.5411 -0.2448 -0.3344
   73MOL0     C 9563  10.955   8.142   5.785 -0.2252 -0.0174 -0.4055
   73MOL0     C 9564  11.088   8.100   5.854 -0.0115  0.1219 -0.0230
   73MOL0     C 9565  11.163   8.209   5.935  0.3649 -0.5761  0.5497
   73MOL0     C 9566  11.204   8.342   5.851  0.7179  0.0485  0.3706
   73MOL0     C 9567  11.264   8.325   5.720 -1.4838 -0.3900 -0.3645
   73MOL0     C 9568  11.319   8.301   5.614 -0.4530  0.0322  0.2432
   73MOL0     C 9569  10.664   8.307   5.863  0.2578  0.2390 -0.4735
   73MOL0     C 9570  10.529   8.288   5.911 -0.4190  0.2493 -0.2440
   73MOL0     H 9571  10.145   8.211   6.258 -0.2544  1.2284  2.6418
   73MOL0     H 9572   9.934   8.117   6.348  0.6940 -0.1722  0.2424
   73MOL0     H 9573   9.899   7.669   6.272  0.5065  0.8263  1.9805
   73MOL0     H 9574   9.793   7.801   6.201 -0.4694 -1.2193 -0.4482
   73MOL0     H 9575   9.748   7.643   6.460  3.0425  0.1207 -0.6081
   73MOL0     H 9576   9.650   7.634   6.315  1.6602 -2.7008  0.2588
   73MOL0     H 9577   9.636   7.902   6.349  1.7241 -1.9919 -1.2197
   73MOL0     H 9578   9.683   7.844   6.515  2.0139 -1.2879  0.1865
   73MOL0     H 9579   9.433   7.740   6.365 -0.6394 -0.8192  0.7793
   73MOL0     H 9580   9.488   7.687   6.518 -0.4113 -0.8875 -0.9400
   73MOL0     H 9581   9.388   7.978   6.461  0.7679  0.1558 -1.0820
   73MOL0     H 9582   9.420   7.890   6.620  0.0660  1.0180 -0.6298
   73MOL0     H 9583   9.220   7.741   6.531 -2.7841  0.8376  0.3405
   73MOL0     H 9584   9.209   7.844   6.382  3.1112  2.8918 -1.5840
   73MOL0     H 9585   9.178   7.937   6.670 -3.8898  1.5334  1.8324
   73MOL0     H 9586   9.150   8.037   6.529 -2.7399  0.7290 -0.2104
   73MOL0     H 9587   8.940   7.956   6.656 -0.2880 -0.7500  0.3705
   73MOL0     H 9588   8.966   7.794   6.583 -2.0847 -0.3913 -0.8856
   73MOL0     H 9589   8.858   7.768   6.371 -0.4056  0.3145  2.0116
   73MOL0     H 9590   8.865   7.802   6.102  1.5848  1.4281  0.5087
   73MOL0     H 9591   8.835   7.953   6.036  3.2977 -1.4725 -0.1709
   73MOL0     H 9592   8.632   7.830   6.222 -0.8123  1.5066  0.3211
   73MOL0     H 9593   8.641   7.780   6.048 -2.6995 -2.3018  1.6269
   73MOL0     H 9594   8.591   8.054   6.166 -0.4685  0.9040 -0.2109
   73MOL0     H 9595   8.603   8.024   5.988 -2.6983  1.6972  1.3853
   73MOL0     H 9596   8.369   8.031   6.059  2.0319  3.4521  2.1137
   73MOL0     H 9597   8.391   7.913   6.187 -0.3152  1.3068  0.1982
   73MOL0     H 9598   8.320   7.637   5.840 -3.4313 -0.6180 -5.3208
   73MOL0     H 9599   8.108   7.540   5.857 -1.2085 -0.7660  3.9247
   73MOL0     H 9600   7.762   7.323   5.935  1.0130  1.6225  0.6249
   73MOL0     H 9601   7.549   7.214   5.847 -0.7903  0.0125  0.0506
   73MOL0     H 9602   7.312   7.230   5.850 -1.6154 -0.4154  1.1475
   73MOL0     H 9603   7.328   7.137   5.703  0.9302  0.5117  0.0081
   73MOL0     H 9604   7.153   7.340   5.632  0.7242 -3.1939 -2.4757
   73MOL0     H 9605   7.111   7.304   5.809 -0.1546  1.0244 -0.2889
   73MOL0     H 9606   7.063   7.070   5.738 -2.0070 -0.6500 -1.1483
   73MOL0     H 9607   7.152   7.105   5.580  0.5547 -1.4647  2.3344
   73MOL0     H 9608   6.905   7.233   5.689 -3.1188 -0.9977 -1.2271
   73MOL0     H 9609   6.991   7.286   5.538  0.7895  1.6148  1.5077
   73MOL0     H 9610   6.834   7.031   5.604  0.8620  1.2091  1.6057
   73MOL0     H 9611   6.933   7.045   5.449  0.8769  1.0029 -0.5961
   73MOL0     H 9612   6.716   7.092   5.384  2.4299 -0.3350  0.4615
   73MOL0     H 9613   6.812   7.248   5.387 -1.9897  2.0669  0.4024
   73MOL0     H 9614   6.621   7.158   5.603  2.1075 -0.1910 -0.1112
   73MOL0     H 9615   6.702   7.297   5.605 -1.2653  0.3840 -0.5931
   73MOL0     H 9616   6.510   7.234   5.370 -0.4728  1.5927 -0.8805
   73MOL0     H 9617   6.589   7.379   5.380 -1.3835  0.5273 -1.2239
   73MOL0     H 9618   7.451   7.576   5.638 -1.2505 -1.3799  1.6953
   73MOL0     H 9619   7.649   7.688   5.750  1.5704 -0.2127 -0.3888
   73MOL0     H 9620   7.944   7.868   6.056 -2.0817 -1.7265 -2.7026
   73MOL0     H 9621   8.155   7.949   6.102  1.2135  0.0192 -0.9427
   73MOL0     H 9622  10.085   7.725   6.270  2.6870 -0.8441  0.1251
   73MOL0     H 9623  10.282   7.809   6.155 -1.4669 -0.8170 -1.6529
   73MOL0     H 9624  10.597   8.022   6.116  1.3085  0.9402  2.0524
   73MOL0     H 9625  10.815   8.047   6.015  0.1162  0.9432  0.6774
   73MOL0     H 9626  10.981   8.192   5.691  0.7294  0.7910  0.2726
   73MOL0     H 9627  10.895   8.051   5.773  0.9168 -0.7498 -0.8243
   73MOL0     H 9628  11.064   8.017   5.921  4.3255 -1.5390 -0.2244
   73MOL0     H 9629  11.166   8.077   5.781  0.5429  0.5955  0.4026
   73MOL0     H 9630  11.250   8.163   5.983  0.1859  1.1302  2.6553
   73MOL0     H 9631  11.091   8.226   6.016 -0.9382 -2.9131 -0.0117
   73MOL0     H 9632  11.117   8.407   5.844  0.8530  0.5100  2.3012
   73MOL0     H 9633  11.278   8.398   5.910 -0.2864  0.1385  1.5854
   73MOL0     H 9634  11.359   8.281   5.517 -1.4920 -0.9050 -0.0191
   73MOL0     H 9635  10.699   8.387   5.798  1.2700  0.7569  0.6755
   73MOL0     H 9636  10.457   8.364   5.884 -1.4382 -0.3900  0.5828
   74MOL0     O 9637   8.057   7.103   4.497  0.2297 -0.5169  0.1182
   74MOL0     C 9638   8.125   7.163   4.411  0.1084  0.4538  0.7181
   74MOL0     O 9639   8.083   7.186   4.283  0.3889  0.5548  0.0773
   74MOL0     C 9640   7.961   7.119   4.261 -0.5385 -1.1224 -0.1000
   74MOL0     C 9641   7.959   7.001   4.189 -0.4090  0.3711  0.2314
   74MOL0     C 9642   7.841   6.929   4.175  0.9333  0.0530 -0.0995
   74MOL0     C 9643   7.720   6.982   4.231 -0.4477 -0.7383  0.5750
   74MOL0     O 9644   7.600   6.915   4.223 -0.4796 -0.3957 -0.4622
   74MOL0     C 9645   7.603   6.781   4.259 -0.0656  0.2273  0.6137
   74MOL0     C 9646   7.585   6.695   4.131 -0.3657 -0.1737 -0.6226
   74MOL0     C 9647   7.439   6.684   4.097  0.2013 -0.1832  0.4371
   74MOL0     C 9648   7.434   6.581   3.982  0.0320 -0.5432  0.2285
   74MOL0     C 9649   7.289   6.576   3.925  0.2902  0.4936 -0.5932
   74MOL0     C 9650   7.277   6.511   3.785 -0.1947  1.0794  1.4391
   74MOL0     C 9651   7.129   6.489   3.757 -0.4053  0.1708  0.0680
   74MOL0     C 9652   7.106   6.429   3.615 -0.4870 -0.3157 -0.4907
   74MOL0     N 9653   6.962   6.430   3.582  0.1588 -0.6492 -0.7494
   74MOL0     C 9654   6.853   6.455   3.668  0.5293  0.2808 -1.3257
   74MOL0     C 9655   6.755   6.456   3.577 -0.0260 -0.2428  0.3352
   74MOL0     C 9656   6.609   6.495   3.610  0.4470 -0.0319  0.0278
   74MOL0     C 9657   6.513   6.416   3.532  0.3676 -1.1002 -0.4876
   74MOL0     C 9658   6.487   6.472   3.392  0.6223  0.9287 -0.5277
   74MOL0     C 9659   6.358   6.409   3.334  0.0222  1.0892 -0.1578
   74MOL0     O 9660   6.245   6.429   3.418  0.9272  0.0825 -0.2358
   74MOL0     C 9661   6.124   6.378   3.376  0.3527  0.6136  0.0253
   74MOL0     C 9662   6.005   6.404   3.449  0.5659  0.8124  0.3373
   74MOL0     C 9663   5.877   6.377   3.393  0.0631  0.3271 -0.2823
   74MOL0     C 9664   5.862   6.297   3.277  0.4646 -0.1846  0.2625
   74MOL0     C 9665   5.735   6.257   3.238  0.6952  1.4945 -0.0304
   74MOL0     O 9666   5.726   6.204   3.113  0.1167  0.4169  0.6561
   74MOL0     C 9667   5.606   6.224   3.043 -0.1123  0.2216  0.1431
   74MOL0     C 9668   5.558   6.123   2.957  0.1197  0.4114  0.1050
   74MOL0     C 9669   5.445   6.146   2.875  0.2751  0.5370 -0.7071
   74MOL0     C 9670   5.377   6.269   2.888 -0.7993  0.0665  0.0795
   74MOL0     O 9671   5.260   6.302   2.829  0.0761 -0.0296  0.7986
   74MOL0     C 9672   5.182   6.184   2.785  0.3269 -0.1466 -0.3290
   74MOL0     C 9673   5.032   6.240   2.790 -0.0424  0.3590  0.1978
   74MOL0     C 9674   4.933   6.151   2.717  0.4270 -0.2346  0.2875
   74MOL0     C 9675   4.806   6.227   2.693  0.1497  0.2195  0.2169
   74MOL0     C 9676   4.680   6.125   2.669 -1.0099  0.1180  0.2349
   74MOL0     C 9677   4.694   6.029   2.556 -0.2057  1.6784 -0.0240
   74MOL0     C 9678   4.567   5.935   2.524 -0.2951 -0.1415 -0.5466
   74MOL0     C 9679   4.462   6.012   2.440 -0.2077  0.2072  0.0879
   74MOL0    Cl 9680   4.513   5.993   2.273 -0.6698 -0.1593  0.3787
   74MOL0     C 9681   5.425   6.371   2.972 -0.1108 -0.8732 -0.1914
   74MOL0     C 9682   5.545   6.350   3.039  0.1818 -0.1668  1.1778
   74MOL0     O 9683   5.640   6.276   3.310  0.4075  0.2312 -0.2297
   74MOL0     C 9684   5.980   6.259   3.215  0.6124 -0.5849  0.7960
   74MOL0     C 9685   6.108   6.300   3.255  1.3388  0.5280 -0.6754
   74MOL0     N 9686   6.803   6.445   3.450  0.2479 -0.2320 -0.3117
   74MOL0     N 9687   6.931   6.431   3.454  0.0858  0.5925  0.0192
   74MOL0     C 9688   7.729   7.109   4.303  0.3482 -0.3351  0.4267
   74MOL0     C 9689   7.844   7.174   4.316 -0.3531  0.0956 -1.0553
   74MOL0     C 9690   8.249   7.234   4.444  0.7658 -0.0783 -0.1083
   74MOL0     C 9691   8.293   7.230   4.578 -0.3087  0.8389  0.1170
   74MOL0     C 9692   8.419   7.278   4.613  0.0624 -0.1083 -0.3783
   74MOL0     C 9693   8.506   7.333   4.518  0.7403 -0.1009  0.1513
   74MOL0     O 9694   8.629   7.376   4.560 -0.2209  0.6005 -0.0792
   74MOL0     C 9695   8.729   7.432   4.467  0.3163  0.7172 -0.8684
   74MOL0     C 9696   8.854   7.449   4.551  0.2158  0.2561 -0.2073
   74MOL0     C 9697   8.975   7.516   4.478  0.0242  0.0806  0.0796
   74MOL0     C 9698   9.101   7.516   4.571  0.2339 -0.1328  0.1987
   74MOL0     C 9699   9.107   7.640   4.653  0.0031  0.5666  0.7031
   74MOL0     C 9700   9.110   7.742   4.721 -0.0034 -0.5619  0.7641
   74MOL0     C 9701   8.458   7.348   4.383 -1.1925 -0.0921 -0.5791
   74MOL0     C 9702   8.329   7.306   4.353  0.0923  0.0036 -0.0459
   74MOL0     H 9703   8.049   6.954   4.149 -1.5142  0.3166 -2.4390
   74MOL0     H 9704   7.847   6.835   4.121  1.1715  0.3669 -0.6300
   74MOL0     H 9705   7.523   6.750   4.327 -2.0253 -0.1128 -1.6933
   74MOL0     H 9706   7.698   6.765   4.311 -0.4908 -0.2800  1.2478
   74MOL0     H 9707   7.627   6.593   4.138 -3.6636 -1.6697 -0.9283
   74MOL0     H 9708   7.648   6.733   4.050  1.7811 -1.1825  0.4594
   74MOL0     H 9709   7.401   6.783   4.069  2.3698  0.4107 -0.6763
   74MOL0     H 9710   7.379   6.657   4.184  1.2646 -0.4243  1.1169
   74MOL0     H 9711   7.496   6.616   3.899 -1.3879 -0.5921 -0.8788
   74MOL0     H 9712   7.462   6.480   4.014 -1.9950 -1.4659 -0.7516
   74MOL0     H 9713   7.241   6.675   3.927  1.9238  1.3086  0.6150
   74MOL0     H 9714   7.223   6.518   3.990 -0.8986  0.6385 -1.6313
   74MOL0     H 9715   7.322   6.411   3.794  1.9209  1.7693 -0.4238
   74MOL0     H 9716   7.324   6.572   3.708 -0.8764 -0.4228 -0.2362
   74MOL0     H 9717   7.082   6.422   3.829 -1.1645  0.8648  0.2234
   74MOL0     H 9718   7.080   6.587   3.756 -0.5505  0.1037 -0.6504
   74MOL0     H 9719   7.149   6.328   3.616  0.9830  0.2899  0.1809
   74MOL0     H 9720   7.159   6.476   3.531 -2.5743  2.0042 -0.6169
   74MOL0     H 9721   6.851   6.473   3.774 -1.1440  0.8039 -1.4282
   74MOL0     H 9722   6.595   6.600   3.582 -3.2634 -0.9362 -2.3714
   74MOL0     H 9723   6.591   6.489   3.718  0.1642 -1.1637 -0.0723
   74MOL0     H 9724   6.421   6.435   3.589  0.3974  1.1924 -1.1037
   74MOL0     H 9725   6.547   6.312   3.528  0.4650 -1.0864 -0.0960
   74MOL0     H 9726   6.470   6.580   3.390 -3.1697  0.4731 -1.1112
   74MOL0     H 9727   6.563   6.452   3.316 -2.1151  2.6654 -4.0142
   74MOL0     H 9728   6.374   6.302   3.317 -1.6813  1.2350 -3.3260
   74MOL0     H 9729   6.339   6.436   3.230  0.4650 -0.8007 -0.7750
   74MOL0     H 9730   6.009   6.451   3.546  3.0821 -0.9488  1.1824
   74MOL0     H 9731   5.793   6.406   3.456  1.0622  2.4655  0.1514
   74MOL0     H 9732   5.622   6.035   2.952 -0.2905  0.0403  1.0503
   74MOL0     H 9733   5.414   6.068   2.806 -0.3592 -0.3106  0.4943
   74MOL0     H 9734   5.180   6.113   2.867 -0.8295 -1.9518 -1.8478
   74MOL0     H 9735   5.212   6.142   2.689  1.1735 -2.5737  0.9270
   74MOL0     H 9736   5.029   6.338   2.742 -0.5606 -0.0159 -0.5398
   74MOL0     H 9737   5.002   6.247   2.895 -0.7319  2.1647 -0.0871
   74MOL0     H 9738   4.910   6.053   2.761 -0.3614  0.1074  0.6705
   74MOL0     H 9739   4.966   6.121   2.618 -2.6065  2.1984 -1.6513
   74MOL0     H 9740   4.776   6.289   2.777 -1.6942 -1.4171  0.8400
   74MOL0     H 9741   4.829   6.285   2.603  0.6124  1.6911  1.2513
   74MOL0     H 9742   4.584   6.177   2.667 -1.0125  0.0923 -0.4093
   74MOL0     H 9743   4.686   6.052   2.751  3.8603 -0.5657 -0.4049
   74MOL0     H 9744   4.772   5.955   2.579 -2.7259 -0.7516  1.2732
   74MOL0     H 9745   4.737   6.075   2.466  0.3079  1.6935  0.2278
   74MOL0     H 9746   4.610   5.843   2.484  2.0178  0.7496 -0.2443
   74MOL0     H 9747   4.519   5.901   2.616  1.7952 -4.2819 -0.7828
   74MOL0     H 9748   4.463   6.119   2.461  3.3795  0.9458 -2.8317
   74MOL0     H 9749   4.363   5.969   2.455 -0.4014 -0.2708 -2.2104
   74MOL0     H 9750   5.362   6.459   2.972 -2.0235 -2.1638  0.7118
   74MOL0     H 9751   5.586   6.428   3.102 -1.5107  1.2932  0.5408
   74MOL0     H 9752   5.967   6.215   3.117 -1.2983 -0.6433  1.0382
   74MOL0     H 9753   6.177   6.267   3.179  0.3354 -1.2583 -0.8578
   74MOL0     H 9754   7.635   7.151   4.339  0.6344  0.5525  0.1655
   74MOL0     H 9755   7.858   7.269   4.368 -0.6070  0.5199 -1.7495
   74MOL0     H 9756   8.229   7.190   4.656 -3.3639  2.5058 -1.3510
   74MOL0     H 9757   8.447   7.256   4.715 -1.9135 -1.0106  0.0103
   74MOL0     H 9758   8.694   7.523   4.419 -1.6404 -0.4120 -1.7006
   74MOL0     H 9759   8.746   7.362   4.384 -0.5309 -2.0675  1.1322
   74MOL0     H 9760   8.830   7.508   4.640 -2.7465 -1.7750  0.4740
   74MOL0     H 9761   8.877   7.350   4.590  1.2276  0.1182 -1.0932
   74MOL0     H 9762   8.948   7.617   4.446 -0.4131  0.2342  0.8907
   74MOL0     H 9763   9.003   7.459   4.389  0.2064 -1.6421  1.1849
   74MOL0     H 9764   9.100   7.435   4.644 -2.2643  1.9773  2.7576
   74MOL0     H 9765   9.193   7.522   4.512  0.8626  1.9286  1.2887
   74MOL0     H 9766   9.109   7.828   4.785 -1.5439 -0.7925  1.0775
   74MOL0     H 9767   8.523   7.386   4.305 -1.3577 -0.7730 -1.0526
   74MOL0     H 9768   8.304   7.306   4.248 -2.3614 -2.6673  0.3975
   75MOL0     O 9769   7.425   8.617   7.392  0.1249 -0.4302 -0.0933
   75MOL0     C 9770   7.502   8.585   7.487  0.8479  0.5977  0.0886
   75MOL0     O 9771   7.644   8.605   7.499 -0.0657 -0.2870  0.2805
   75MOL0     C 9772   7.714   8.638   7.383 -0.5228  0.5891 -0.1477
   75MOL0     C 9773   7.798   8.747   7.377  0.6398  0.6563  0.1466
   75MOL0     C 9774   7.867   8.773   7.259  1.2608 -0.2372 -0.8030
   75MOL0     C 9775   7.859   8.684   7.149  0.8632  0.3819 -0.9134
   75MOL0     O 9776   7.930   8.713   7.038  0.6782 -0.7667 -0.1740
   75MOL0     C 9777   7.986   8.612   6.955  0.5569  0.3038 -0.4952
   75MOL0     C 9778   8.088   8.670   6.862 -0.4795  0.1116  1.0565
   75MOL0     C 9779   8.232   8.710   6.926  0.2256 -0.2567  0.1930
   75MOL0     C 9780   8.339   8.706   6.824 -0.2476  0.1727  0.3027
   75MOL0     C 9781   8.483   8.730   6.879  1.1948 -0.0711  0.6302
   75MOL0     C 9782   8.583   8.706   6.758  0.7624 -0.1968 -0.6180
   75MOL0     C 9783   8.728   8.720   6.799 -0.1221 -1.0571 -0.7847
   75MOL0     C 9784   8.829   8.679   6.692  0.8873  0.1877  0.1742
   75MOL0     N 9785   8.975   8.718   6.717  0.0749 -0.7465  0.0819
   75MOL0     C 9786   9.023   8.832   6.785  0.1808  0.0791  0.7606
   75MOL0     C 9787   9.161   8.825   6.770 -0.3556 -0.2555 -1.1609
   75MOL0     C 9788   9.250   8.922   6.853  0.0569  0.7276  0.3465
   75MOL0     C 9789   9.322   9.019   6.763 -0.8648  0.7187 -0.1845
   75MOL0     C 9790   9.236   9.144   6.702 -0.6590  0.1100 -0.3463
   75MOL0     C 9791   9.219   9.263   6.794  0.2505 -0.0773 -0.3968
   75MOL0     O 9792   9.158   9.236   6.916 -0.1723  0.3372  0.2880
   75MOL0     C 9793   9.026   9.209   6.908 -0.0913  0.3603 -0.0670
   75MOL0     C 9794   8.945   9.233   6.799 -0.2761  1.3443  0.0371
   75MOL0     C 9795   8.807   9.208   6.809 -1.1331 -0.9200  0.5813
   75MOL0     C 9796   8.752   9.166   6.931  0.5222 -0.2620 -0.1148
   75MOL0     C 9797   8.609   9.178   6.939  0.0627 -1.0501 -0.2338
   75MOL0     O 9798   8.566   9.213   7.066  0.0762  0.2684  0.4055
   75MOL0     C 9799   8.432   9.188   7.102 -0.0265 -0.3121 -0.8091
   75MOL0     C 9800   8.379   9.276   7.191  0.1442  0.5747  0.4916
   75MOL0     C 9801   8.253   9.252   7.252 -0.8346  0.5096  0.3237
   75MOL0     C 9802   8.174   9.131   7.221 -0.0313 -0.0441  0.3691
   75MOL0     O 9803   8.055   9.101   7.279  0.5594 -0.0251 -1.1523
   75MOL0     C 9804   8.006   9.199   7.374 -0.0967 -0.1788 -0.0471
   75MOL0     C 9805   7.868   9.168   7.427  0.0305  0.3623 -0.0425
   75MOL0     C 9806   7.764   9.169   7.314  0.2711  0.5253 -0.6511
   75MOL0     C 9807   7.629   9.128   7.373  0.0789 -1.0362 -0.4027
   75MOL0     C 9808   7.521   9.215   7.291 -0.1860 -0.1635  1.0090
   75MOL0     C 9809   7.372   9.197   7.323  0.6390 -0.5167  0.5213
   75MOL0     C 9810   7.305   9.069   7.273 -1.0630  0.1329 -0.0785
   75MOL0     C 9811   7.155   9.077   7.265  0.2541 -0.5149  0.3049
   75MOL0    Cl 9812   7.105   8.927   7.190  0.1177 -0.3775  0.2803
   75MOL0     C 9813   8.240   9.046   7.132 -0.1183  0.1860  0.0475
   75MOL0     C 9814   8.363   9.077   7.067 -0.6175  0.7438 -0.4602
   75MOL0     O 9815   8.534   9.159   6.839  0.5029  0.4763 -0.6191
   75MOL0     C 9816   8.829   9.126   7.037  0.1055  0.3509 -0.9353
   75MOL0     C 9817   8.965   9.152   7.027 -0.8551  0.1410  0.0194
   75MOL0     N 9818   9.189   8.721   6.680  0.1734  0.2070 -0.4858
   75MOL0     N 9819   9.082   8.665   6.650  0.4769 -0.4220  0.4871
   75MOL0     C 9820   7.768   8.577   7.148  0.2633 -1.1188 -0.9381
   75MOL0     C 9821   7.700   8.558   7.272 -0.3372  0.4738 -0.8505
   75MOL0     C 9822   7.427   8.534   7.606 -0.0289  0.4641 -0.4962
   75MOL0     C 9823   7.288   8.542   7.611  0.1233  0.1023 -0.1959
   75MOL0     C 9824   7.223   8.487   7.723 -0.1824  0.7822 -0.1767
   75MOL0     C 9825   7.300   8.430   7.832 -0.7586 -0.6450 -0.5568
   75MOL0     O 9826   7.249   8.374   7.945 -0.3022 -0.4363 -0.5227
   75MOL0     C 9827   7.106   8.361   7.960  0.4508 -0.0719  0.2008
   75MOL0     C 9828   7.070   8.322   8.108 -0.6906  0.4134  0.1975
   75MOL0     C 9829   6.916   8.317   8.123 -0.0086 -0.2110 -0.0892
   75MOL0     C 9830   6.840   8.456   8.104  0.0169  0.2664 -0.4570
   75MOL0     C 9831   6.696   8.425   8.096  0.1816 -0.4050 -0.5813
   75MOL0     C 9832   6.579   8.398   8.088 -0.4621  0.3379 -0.4749
   75MOL0     C 9833   7.435   8.429   7.829 -1.3569 -0.2538 -0.5305
   75MOL0     C 9834   7.504   8.492   7.721  0.5511 -1.1624 -0.1307
   75MOL0     H 9835   7.811   8.823   7.454 -0.5009  5.2071 -3.7231
   75MOL0     H 9836   7.929   8.859   7.237 -0.6081  1.2914 -0.4005
   75MOL0     H 9837   7.905   8.571   6.893 -2.2172  0.9397  2.4560
   75MOL0     H 9838   8.031   8.531   7.013  0.4731  0.4604 -0.2148
   75MOL0     H 9839   8.036   8.754   6.813 -1.9025 -2.3792 -2.1280
   75MOL0     H 9840   8.108   8.590   6.789  2.4828  1.3884  0.3219
   75MOL0     H 9841   8.255   8.630   6.997 -1.1197 -0.7206  0.1308
   75MOL0     H 9842   8.219   8.808   6.974  0.7195 -1.3773  2.7976
   75MOL0     H 9843   8.323   8.619   6.760 -2.7253  2.2531 -2.1483
   75MOL0     H 9844   8.327   8.791   6.756 -2.6102 -0.1415  0.2416
   75MOL0     H 9845   8.500   8.663   6.964 -0.2039 -1.4580 -0.1283
   75MOL0     H 9846   8.477   8.834   6.915 -0.6027  1.5724 -3.6926
   75MOL0     H 9847   8.556   8.774   6.676 -0.3556 -0.3030 -0.3658
   75MOL0     H 9848   8.563   8.604   6.726  2.7658 -2.0204  3.2491
   75MOL0     H 9849   8.743   8.823   6.831 -3.5923 -1.4534  2.8487
   75MOL0     H 9850   8.745   8.662   6.891 -0.0625  1.7329  1.0676
   75MOL0     H 9851   8.787   8.721   6.600 -2.9091 -0.1734  1.5618
   75MOL0     H 9852   8.823   8.570   6.690  2.8822  0.0486  0.1093
   75MOL0     H 9853   8.968   8.908   6.839  1.2366  0.7372  0.9329
   75MOL0     H 9854   9.312   8.857   6.915  0.8370  1.7443  0.6377
   75MOL0     H 9855   9.182   8.971   6.922 -1.5070 -1.0061  0.1330
   75MOL0     H 9856   9.353   8.955   6.680  0.6293 -0.1051  0.9538
   75MOL0     H 9857   9.411   9.053   6.817 -2.3366  1.8370  1.6329
   75MOL0     H 9858   9.275   9.179   6.607  2.2368 -2.0872 -0.1138
   75MOL0     H 9859   9.139   9.101   6.675 -1.8546  1.7124  1.1417
   75MOL0     H 9860   9.164   9.347   6.751  0.0386 -1.0091 -1.9848
   75MOL0     H 9861   9.323   9.295   6.807  0.6548  0.0107 -3.2279
   75MOL0     H 9862   8.980   9.287   6.712  0.2405  0.5617 -0.2530
   75MOL0     H 9863   8.751   9.239   6.721 -1.3769  1.6285  1.5689
   75MOL0     H 9864   8.432   9.360   7.235  4.6382 -1.8278  0.2075
   75MOL0     H 9865   8.229   9.313   7.339  1.4868  0.6692  0.9209
   75MOL0     H 9866   8.002   9.295   7.322 -1.5178  0.3047  0.9020
   75MOL0     H 9867   8.076   9.211   7.457 -0.8153  2.9605  0.2085
   75MOL0     H 9868   7.835   9.241   7.502 -0.0693  0.1763  0.0968
   75MOL0     H 9869   7.877   9.071   7.477  0.8882  1.3456  1.8255
   75MOL0     H 9870   7.775   9.097   7.232 -0.3003 -2.4715  1.6872
   75MOL0     H 9871   7.772   9.272   7.279 -1.5233  0.8191 -0.3094
   75MOL0     H 9872   7.619   9.020   7.363 -1.8157 -1.2005  2.1886
   75MOL0     H 9873   7.636   9.157   7.478  5.3540  0.8110 -0.9875
   75MOL0     H 9874   7.534   9.192   7.185 -1.0357 -3.0105  1.4465
   75MOL0     H 9875   7.541   9.320   7.314 -0.2523  0.1257 -0.1856
   75MOL0     H 9876   7.315   9.278   7.276  1.7255  0.2417  0.4653
   75MOL0     H 9877   7.374   9.211   7.431  1.5898 -5.6922  1.4322
   75MOL0     H 9878   7.338   9.050   7.170 -0.7266  0.0377  0.0433
   75MOL0     H 9879   7.317   8.976   7.330 -2.2707 -1.0163 -1.6118
   75MOL0     H 9880   7.131   9.166   7.206  1.0712  0.0258  0.7635
   75MOL0     H 9881   7.107   9.088   7.363  0.3123  1.1056  0.1769
   75MOL0     H 9882   8.183   8.959   7.100 -0.3268  0.6235 -0.7878
   75MOL0     H 9883   8.397   9.003   6.995  0.8148  1.5684 -0.6756
   75MOL0     H 9884   8.789   9.096   7.134  0.0694  0.4974 -0.9055
   75MOL0     H 9885   9.030   9.120   7.108  1.4297 -0.3399 -1.8744
   75MOL0     H 9886   7.741   8.513   7.065  0.0491  0.5551 -2.2098
   75MOL0     H 9887   7.635   8.474   7.290  0.6041 -0.0399  0.2958
   75MOL0     H 9888   7.228   8.576   7.528 -0.1073 -0.8791 -0.4457
   75MOL0     H 9889   7.115   8.488   7.719 -0.6539 -3.7079  3.4408
   75MOL0     H 9890   7.074   8.283   7.890  1.9553  0.8119 -1.5711
   75MOL0     H 9891   7.060   8.456   7.933  0.1950 -0.6655 -1.5606
   75MOL0     H 9892   7.123   8.232   8.141 -0.2311  0.3259 -0.7478
   75MOL0     H 9893   7.104   8.404   8.172 -1.2087  1.0269 -0.3024
   75MOL0     H 9894   6.884   8.276   8.219 -1.1167  1.2636  0.1966
   75MOL0     H 9895   6.892   8.253   8.038  1.3300  0.4684 -1.0186
   75MOL0     H 9896   6.852   8.508   8.199 -0.2974 -0.8775  0.2251
   75MOL0     H 9897   6.878   8.511   8.017  1.2359 -1.1570 -0.8690
   75MOL0     H 9898   6.473   8.386   8.081 -0.6937  1.0605  1.1735
   75MOL0     H 9899   7.499   8.396   7.910 -0.6934  0.9026 -0.5647
   75MOL0     H 9900   7.610   8.514   7.715 -0.1685  3.4790  0.5208
   76MOL0     O 9901   5.690   8.045   4.957 -0.2334  0.5886 -0.3209
   76MOL0     C 9902   5.775   7.960   4.932  0.1521  0.4103 -0.4026
   76MOL0     O 9903   5.748   7.836   4.885  0.8902  0.4180 -0.4691
   76MOL0     C 9904   5.615   7.797   4.857 -0.8170 -0.2027 -0.5630
   76MOL0     C 9905   5.504   7.827   4.939 -0.1067 -0.6427  1.2445
   76MOL0     C 9906   5.374   7.780   4.904  0.9141 -0.7530 -0.0306
   76MOL0     C 9907   5.359   7.710   4.780 -0.2043  0.4785  0.1653
   76MOL0     O 9908   5.245   7.643   4.743 -0.2094  0.7327  0.8089
   76MOL0     C 9909   5.125   7.694   4.787 -0.5102 -0.0384 -0.4289
   76MOL0     C 9910   5.010   7.649   4.695  0.0646 -0.0672  0.1212
   76MOL0     C 9911   4.868   7.628   4.771  0.6773 -0.3167 -0.9631
   76MOL0     C 9912   4.873   7.506   4.867 -0.2363  0.2000  0.3245
   76MOL0     C 9913   4.739   7.445   4.900  0.5047  0.4872 -0.1138
   76MOL0     C 9914   4.757   7.314   4.976 -0.3262 -0.0387  0.0385
   76MOL0     C 9915   4.643   7.215   4.941 -0.6906 -0.3997  0.2628
   76MOL0     C 9916   4.680   7.078   4.987  0.1447 -0.2573  0.7459
   76MOL0     N 9917   4.677   7.072   5.126  0.1574 -1.1554 -0.6895
   76MOL0     C 9918   4.560   7.073   5.199 -0.1698 -1.1395  0.1165
   76MOL0     C 9919   4.602   7.037   5.326  0.9832 -0.8585  0.5454
   76MOL0     C 9920   4.515   7.033   5.449  0.3662  0.1349  0.6608
   76MOL0     C 9921   4.368   7.002   5.419 -0.0181  0.0357 -0.3991
   76MOL0     C 9922   4.338   6.870   5.353  0.4161 -0.3627  0.2698
   76MOL0     C 9923   4.203   6.884   5.271  0.7382 -0.2288 -0.4689
   76MOL0     O 9924   4.100   6.872   5.364 -0.3784 -0.0091 -0.2949
   76MOL0     C 9925   3.987   6.806   5.305  0.0964 -0.0816  0.1297
   76MOL0     C 9926   3.894   6.752   5.393 -0.0575 -0.2666 -0.1353
   76MOL0     C 9927   3.790   6.675   5.342  0.3929  0.1764  0.2906
   76MOL0     C 9928   3.761   6.664   5.200 -0.1353 -0.0789 -0.7381
   76MOL0     C 9929   3.631   6.622   5.147  0.5217  1.2589  0.6628
   76MOL0     O 9930   3.608   6.631   5.013 -0.1295 -0.2066  0.0473
   76MOL0     C 9931   3.489   6.610   4.961 -0.4481  0.1732  0.2813
   76MOL0     C 9932   3.419   6.701   4.887 -0.1219  0.1101 -0.0306
   76MOL0     C 9933   3.306   6.665   4.815 -0.2848 -0.3667  0.4201
   76MOL0     C 9934   3.241   6.545   4.844 -0.2179 -0.0300 -0.0116
   76MOL0     O 9935   3.120   6.521   4.778 -0.4557 -0.5914 -0.1076
   76MOL0     C 9936   3.015   6.596   4.843  0.4008  0.0017 -0.2207
   76MOL0     C 9937   2.966   6.504   4.950 -0.4759  0.2675 -0.3962
   76MOL0     C 9938   2.845   6.551   5.029  0.6143 -0.5004  0.0353
   76MOL0     C 9939   2.884   6.610   5.169  0.4073 -1.1031  0.5495
   76MOL0     C 9940   2.761   6.706   5.224 -0.1566  0.8405  0.1372
   76MOL0     C 9941   2.647   6.620   5.288  0.8400  0.1829  0.5381
   76MOL0     C 9942   2.519   6.704   5.297 -0.1318 -0.2073  0.1877
   76MOL0     C 9943   2.447   6.711   5.161  0.4911 -0.3554  0.1620
   76MOL0    Cl 9944   2.276   6.781   5.181 -0.3211 -0.0614  0.5857
   76MOL0     C 9945   3.313   6.441   4.907 -0.1173  1.1987 -0.4169
   76MOL0     C 9946   3.442   6.473   4.965  1.0688 -0.6734 -0.5790
   76MOL0     O 9947   3.551   6.586   5.226  0.2788  0.2169 -0.5555
   76MOL0     C 9948   3.855   6.722   5.113  0.0123  1.0832  0.2271
   76MOL0     C 9949   3.966   6.791   5.170  0.0470  0.7158  0.4215
   76MOL0     N 9950   4.735   7.004   5.317 -0.1010  0.5225 -0.0191
   76MOL0     N 9951   4.778   7.019   5.199  0.5964 -0.1947  0.6403
   76MOL0     C 9952   5.473   7.686   4.703  0.0912  0.7202  0.4337
   76MOL0     C 9953   5.599   7.743   4.728 -0.3797  0.3910 -0.1806
   76MOL0     C 9954   5.913   7.992   4.968 -0.4615  0.0187  0.1121
   76MOL0     C 9955   5.999   7.885   5.008 -0.4508 -0.1454 -0.2131
   76MOL0     C 9956   6.137   7.906   5.047  0.0078  1.4328 -0.2143
   76MOL0     C 9957   6.183   8.040   5.024 -0.2230  0.0594 -0.1575
   76MOL0     O 9958   6.316   8.084   5.034 -0.3571 -0.4323  0.0884
   76MOL0     C 9959   6.419   7.992   5.003 -0.3829  0.4393 -0.5877
   76MOL0     C 9960   6.553   8.047   5.032  0.1891  0.3167  0.0684
   76MOL0     C 9961   6.585   8.150   4.929 -0.4439 -0.1357  0.5457
   76MOL0     C 9962   6.658   8.278   4.976  0.4966  0.6170 -0.6456
   76MOL0     C 9963   6.746   8.334   4.874 -0.1186 -0.5264  0.2128
   76MOL0     C 9964   6.813   8.382   4.786 -0.1607  1.0056  0.4461
   76MOL0     C 9965   6.100   8.143   4.993  0.3124 -0.1702  0.0111
   76MOL0     C 9966   5.967   8.121   4.971  0.0102  0.5784 -0.3916
   76MOL0     H 9967   5.514   7.888   5.029 -2.5274  1.2639  0.3492
   76MOL0     H 9968   5.278   7.789   4.954  0.7509 -1.6075 -0.1668
   76MOL0     H 9969   5.121   7.803   4.795 -1.2542 -0.1909  2.0804
   76MOL0     H 9970   5.122   7.643   4.884 -1.8046  0.2949 -0.2779
   76MOL0     H 9971   5.022   7.552   4.645 -1.7207 -1.5785  2.4248
   76MOL0     H 9972   4.993   7.729   4.623  2.0310  0.7827  0.5300
   76MOL0     H 9973   4.791   7.619   4.694 -1.6255 -0.2366  1.1887
   76MOL0     H 9974   4.853   7.721   4.826  0.1576  0.3099 -2.1383
   76MOL0     H 9975   4.939   7.429   4.827  0.3021  0.1082  1.3569
   76MOL0     H 9976   4.913   7.540   4.963  2.2315 -1.4647 -0.0191
   76MOL0     H 9977   4.690   7.432   4.803  0.8213  0.2977 -0.2502
   76MOL0     H 9978   4.678   7.522   4.949  0.8968  1.0711 -0.5237
   76MOL0     H 9979   4.764   7.341   5.082  2.3037  0.8203 -0.2695
   76MOL0     H 9980   4.847   7.257   4.950 -0.6906  0.2919 -2.1697
   76MOL0     H 9981   4.558   7.263   4.990 -0.7507 -0.0424 -0.1879
   76MOL0     H 9982   4.608   7.216   4.837 -4.7712 -0.2386  1.4730
   76MOL0     H 9983   4.777   7.054   4.943  0.3279 -1.0725  1.5687
   76MOL0     H 9984   4.602   7.011   4.949 -0.3085  0.9859 -0.6120
   76MOL0     H 9985   4.463   7.105   5.163  0.1523  1.0455  1.0180
   76MOL0     H 9986   4.532   7.122   5.509  1.7118  0.0184  0.4741
   76MOL0     H 9987   4.549   6.949   5.511  0.6944 -1.5946 -1.7010
   76MOL0     H 9988   4.334   7.078   5.347  0.0392 -1.8106 -2.4681
   76MOL0     H 9989   4.309   7.011   5.511  0.0282  0.0735 -0.3728
   76MOL0     H 9990   4.419   6.840   5.286  0.1379  0.6225 -0.5349
   76MOL0     H 9991   4.331   6.792   5.430  1.4977  3.3779  4.5907
   76MOL0     H 9992   4.200   6.798   5.204  0.0228 -1.6755  1.3227
   76MOL0     H 9993   4.201   6.976   5.212  2.3500 -0.1879 -0.5065
   76MOL0     H 9994   3.898   6.758   5.501 -1.1168  0.7579 -0.1332
   76MOL0     H 9995   3.707   6.639   5.403 -0.7218  0.7107 -0.8710
   76MOL0     H 9996   3.463   6.800   4.880  0.1983  0.0755  1.3203
   76MOL0     H 9997   3.268   6.746   4.754  3.2111  0.8167 -0.4228
   76MOL0     H 9998   2.931   6.607   4.774 -0.8126 -3.3612  0.5418
   76MOL0     H 9999   3.040   6.691   4.891  4.2504  0.5826 -2.9033
   76MOL0     H10000   3.044   6.459   5.012 -0.5040  2.0748  1.0044
   76MOL0     H10001   2.934   6.414   4.895  0.0741  1.3895 -2.7002
   76MOL0     H10002   2.771   6.471   5.033 -0.8589  0.7603 -0.7348
   76MOL0     H10003   2.795   6.632   4.975 -2.0751 -1.9110  0.2210
   76MOL0     H10004   2.908   6.535   5.245  1.6791  0.2920  1.5938
   76MOL0     H10005   2.975   6.665   5.144 -0.9502  0.3413 -1.4752
   76MOL0     H10006   2.717   6.762   5.141 -0.4752 -2.7145 -2.3391
   76MOL0     H10007   2.786   6.782   5.299  1.6590 -0.8858  1.3723
   76MOL0     H10008   2.668   6.589   5.391  2.1016  2.4233  1.0367
   76MOL0     H10009   2.633   6.534   5.221 -2.4177  1.1510 -0.2011
   76MOL0     H10010   2.457   6.659   5.374  2.8001  0.6662  3.2782
   76MOL0     H10011   2.544   6.803   5.335  1.8789 -1.5252  2.5482
   76MOL0     H10012   2.440   6.617   5.105  0.6942 -0.1675 -0.1817
   76MOL0     H10013   2.496   6.787   5.100  0.1263 -0.0706  0.2187
   76MOL0     H10014   3.277   6.339   4.918 -1.2409  1.4017 -1.9805
   76MOL0     H10015   3.507   6.396   5.004  1.9953 -0.3660 -1.4561
   76MOL0     H10016   3.848   6.725   5.005 -0.4134  0.4208  0.2238
   76MOL0     H10017   4.030   6.841   5.098  1.8826 -0.9983  0.7874
   76MOL0     H10018   5.463   7.617   4.619  0.4961  0.9816  0.1648
   76MOL0     H10019   5.674   7.709   4.657 -2.6600 -3.8098 -0.9401
   76MOL0     H10020   5.959   7.785   4.993 -2.8364  0.8126 -0.5941
   76MOL0     H10021   6.207   7.829   5.080 -0.4598  1.4665  0.9023
   76MOL0     H10022   6.412   7.968   4.896  3.3979  0.5263 -1.0037
   76MOL0     H10023   6.398   7.904   5.065 -1.3956  0.4213 -0.9414
   76MOL0     H10024   6.554   8.084   5.135  0.2785  1.3107 -0.2849
   76MOL0     H10025   6.630   7.969   5.028 -1.8232 -1.7613 -0.1804
   76MOL0     H10026   6.493   8.198   4.892 -0.2046  0.6558  0.9516
   76MOL0     H10027   6.636   8.095   4.850  0.9513  3.1462 -1.0321
   76MOL0     H10028   6.583   8.356   4.991  0.3194  0.6750 -1.7154
   76MOL0     H10029   6.716   8.246   5.063  0.0084 -0.9359 -0.8546
   76MOL0     H10030   6.882   8.414   4.710 -1.5303  1.2172 -0.7566
   76MOL0     H10031   6.129   8.247   4.983 -2.4272  0.8640  1.6616
   76MOL0     H10032   5.901   8.206   4.959 -2.8930 -0.9229  2.9996
   77MOL0     O10033   0.311   3.777   6.038 -0.1061 -0.0824  0.1811
   77MOL0     C10034   0.411   3.845   6.061 -0.6940  0.3830  0.0019
   77MOL0     O10035   0.411   3.984   6.069 -0.5595  0.7420 -0.0580
   77MOL0     C10036   0.303   4.060   6.056  1.1391  0.9535  0.1113
   77MOL0     C10037   0.298   4.160   6.145  0.9295  0.0367  0.0654
   77MOL0     C10038   0.184   4.247   6.147 -0.1164 -0.0162  0.3100
   77MOL0     C10039   0.083   4.225   6.051 -0.6149  0.3267 -0.5884
   77MOL0     O10040  -0.022   4.313   6.062 -0.4506 -0.5954 -0.5518
   77MOL0     C10041  -0.133   4.321   5.965 -0.2445 -0.1687  0.3868
   77MOL0     C10042  -0.201   4.448   5.996  0.0761 -0.2819 -0.8556
   77MOL0     C10043  -0.306   4.488   5.893  0.0051 -0.3969  0.3881
   77MOL0     C10044  -0.443   4.425   5.933 -0.0379 -0.2766  0.8617
   77MOL0     C10045  -0.559   4.454   5.824 -0.2138  0.4768 -0.3132
   77MOL0     C10046  -0.592   4.596   5.782  0.0635  0.2120  0.1865
   77MOL0     C10047  -0.692   4.673   5.863  0.0670 -0.0683 -0.2379
   77MOL0     C10048  -0.830   4.605   5.857  0.4688 -0.0138 -0.1414
   77MOL0     N10049  -0.932   4.700   5.906  0.2142  0.3868  0.8276
   77MOL0     C10050  -0.955   4.726   6.037 -0.4564  1.3888 -0.4225
   77MOL0     C10051  -1.067   4.804   6.038  0.2131 -0.0010  0.4733
   77MOL0     C10052  -1.134   4.865   6.159 -0.8568  0.3068 -0.1952
   77MOL0     C10053  -1.120   4.796   6.295  0.4859 -0.0374  1.3349
   77MOL0     C10054  -1.241   4.709   6.321 -0.2419  0.2590  0.5031
   77MOL0     C10055  -1.243   4.659   6.466  0.1125 -0.7761 -0.1168
   77MOL0     O10056  -1.249   4.780   6.551  0.8294  0.1474 -0.7840
   77MOL0     C10057  -1.372   4.830   6.585  0.2284  0.3530 -0.3615
   77MOL0     C10058  -1.498   4.792   6.547  0.1513  1.0034 -0.6585
   77MOL0     C10059  -1.604   4.872   6.571 -0.6629  0.6543  0.3671
   77MOL0     C10060  -1.592   4.981   6.655 -0.6629 -0.9847  0.5609
   77MOL0     C10061  -1.712   5.050   6.708 -0.0711  0.3866 -0.2415
   77MOL0     O10062  -1.681   5.153   6.801 -0.2480  1.1054 -0.1792
   77MOL0     C10063  -1.788   5.229   6.828  0.1962 -0.6494  0.0519
   77MOL0     C10064  -1.795   5.347   6.764  0.2162 -1.1022  0.0700
   77MOL0     C10065  -1.912   5.429   6.779 -0.0894  0.5929 -0.6574
   77MOL0     C10066  -2.010   5.395   6.877  0.3481 -0.8586  0.7206
   77MOL0     O10067  -2.122   5.469   6.885  0.1269  1.0450  0.0631
   77MOL0     C10068  -2.233   5.423   6.966 -0.5785 -0.0779 -0.3084
   77MOL0     C10069  -2.363   5.500   6.948  0.5324  0.1096  0.0317
   77MOL0     C10070  -2.477   5.414   7.009 -0.2073 -0.4695 -0.1113
   77MOL0     C10071  -2.609   5.455   6.949 -0.2158  0.1641 -0.2320
   77MOL0     C10072  -2.729   5.398   7.035  0.1090  0.0417  0.7160
   77MOL0     C10073  -2.865   5.442   6.966 -0.3148 -0.6439  1.5751
   77MOL0     C10074  -2.989   5.376   7.027  0.1777 -0.1295 -0.8125
   77MOL0     C10075  -3.118   5.420   6.970  0.3684 -0.8179  0.7790
   77MOL0    Cl10076  -3.152   5.581   7.036  0.0598 -0.1573  0.0471
   77MOL0     C10077  -1.994   5.283   6.946 -0.8972  0.5131  0.1237
   77MOL0     C10078  -1.878   5.199   6.929  0.5563 -0.2868  0.2670
   77MOL0     O10079  -1.820   5.028   6.660  0.2119  0.0234 -0.8697
   77MOL0     C10080  -1.469   5.021   6.703  0.2453 -0.2716  0.5579
   77MOL0     C10081  -1.363   4.949   6.660  0.3844  0.0522  0.0551
   77MOL0     N10082  -1.093   4.846   5.907 -0.4733 -0.9542  0.2852
   77MOL0     N10083  -1.011   4.775   5.825  0.4984 -0.2624  0.0498
   77MOL0     C10084   0.095   4.123   5.956 -0.0778  0.6898  0.1871
   77MOL0     C10085   0.203   4.031   5.966 -0.0522 -0.6123  1.4816
   77MOL0     C10086   0.545   3.795   6.071  0.0871  0.8584 -0.3895
   77MOL0     C10087   0.570   3.661   6.033  0.1067  0.3401 -0.5654
   77MOL0     C10088   0.695   3.617   6.028  0.9995 -0.5006 -0.1190
   77MOL0     C10089   0.807   3.690   6.070  0.6961 -0.5281 -0.7035
   77MOL0     O10090   0.933   3.639   6.052  0.8465 -0.6787 -0.1992
   77MOL0     C10091   0.970   3.537   5.959  0.2673  0.8928  0.4917
   77MOL0     C10092   1.126   3.541   5.929  0.4019 -0.4908 -1.0492
   77MOL0     C10093   1.178   3.414   5.869  0.3608 -0.3058  0.5337
   77MOL0     C10094   1.331   3.425   5.834 -0.6295 -0.8006  0.3253
   77MOL0     C10095   1.394   3.294   5.836  0.2626 -0.2958  0.2660
   77MOL0     C10096   1.465   3.191   5.827  0.8662  0.1776  0.1982
   77MOL0     C10097   0.783   3.817   6.122 -0.3291 -0.7488  0.1461
   77MOL0     C10098   0.656   3.871   6.124  0.1659  0.8759  0.0933
   77MOL0     H10099   0.387   4.175   6.206  0.2510 -1.8290  1.6025
   77MOL0     H10100   0.180   4.327   6.220 -0.1093 -1.2993  1.7520
   77MOL0     H10101  -0.206   4.242   5.985 -1.9634  1.5372  1.1509
   77MOL0     H10102  -0.094   4.316   5.863 -1.5337  1.5639 -0.2296
   77MOL0     H10103  -0.140   4.538   6.004 -2.0877  1.7900 -4.6209
   77MOL0     H10104  -0.247   4.419   6.091 -1.3664 -4.1084 -2.5101
   77MOL0     H10105  -0.273   4.443   5.798  0.9073 -0.2287  0.6157
   77MOL0     H10106  -0.309   4.597   5.887 -0.0003 -0.4362 -0.6449
   77MOL0     H10107  -0.427   4.318   5.947  5.1010 -0.2249 -2.1639
   77MOL0     H10108  -0.476   4.475   6.025  0.7749 -0.2200  1.1275
   77MOL0     H10109  -0.654   4.405   5.847 -0.4079  0.4792 -1.0680
   77MOL0     H10110  -0.521   4.400   5.736 -1.2375 -3.1246  1.2421
   77MOL0     H10111  -0.638   4.592   5.682  0.5371  0.5086 -0.0494
   77MOL0     H10112  -0.500   4.652   5.760  1.0377 -1.7133 -0.9540
   77MOL0     H10113  -0.665   4.694   5.967 -0.4920 -1.3354  0.1827
   77MOL0     H10114  -0.696   4.772   5.817  0.3259 -0.8242 -1.9406
   77MOL0     H10115  -0.841   4.517   5.921 -0.8038  0.0699 -0.2089
   77MOL0     H10116  -0.846   4.577   5.752  1.0281  0.8448 -0.4655
   77MOL0     H10117  -0.900   4.674   6.115  0.8066  4.1011  0.6374
   77MOL0     H10118  -1.239   4.875   6.131 -0.5844 -0.2176 -1.5222
   77MOL0     H10119  -1.090   4.965   6.164 -0.3000  0.1132 -0.9049
   77MOL0     H10120  -1.127   4.871   6.374  0.3727  0.4579  0.8621
   77MOL0     H10121  -1.028   4.739   6.306  0.4043 -0.0289  2.1608
   77MOL0     H10122  -1.331   4.769   6.305  0.4478  1.4421  0.9344
   77MOL0     H10123  -1.244   4.626   6.249 -0.9758  0.1253  0.6742
   77MOL0     H10124  -1.152   4.599   6.482  1.1846  0.6239 -0.7447
   77MOL0     H10125  -1.330   4.594   6.473 -0.6603  0.4444  3.4337
   77MOL0     H10126  -1.512   4.697   6.496  1.2443  0.8384 -0.6784
   77MOL0     H10127  -1.698   4.840   6.526  0.9217  0.3100 -2.9758
   77MOL0     H10128  -1.725   5.361   6.682 -1.4757 -1.3536 -1.4968
   77MOL0     H10129  -1.935   5.523   6.730 -1.0368 -0.7388 -2.8801
   77MOL0     H10130  -2.204   5.441   7.070  0.3625  1.4109 -0.8013
   77MOL0     H10131  -2.250   5.317   6.943 -1.8986  0.5665 -2.5944
   77MOL0     H10132  -2.386   5.503   6.841 -1.1681 -0.0724  0.3684
   77MOL0     H10133  -2.369   5.600   6.991 -0.4656  1.3507 -2.7240
   77MOL0     H10134  -2.474   5.443   7.115 -0.1495  0.6032 -0.3862
   77MOL0     H10135  -2.455   5.307   7.011 -0.6817 -0.5615  0.8619
   77MOL0     H10136  -2.616   5.562   6.929 -4.4116  0.1985  0.4884
   77MOL0     H10137  -2.611   5.404   6.853 -0.4004 -1.9048  0.8050
   77MOL0     H10138  -2.729   5.431   7.139 -0.3501  2.1547  0.1007
   77MOL0     H10139  -2.726   5.290   7.018  0.0677  0.3219 -1.3554
   77MOL0     H10140  -2.868   5.403   6.864  0.9751 -0.8849  1.6127
   77MOL0     H10141  -2.874   5.551   6.965  0.2596 -0.5530 -1.0664
   77MOL0     H10142  -2.977   5.269   7.012  1.9891  0.0867 -1.1046
   77MOL0     H10143  -2.995   5.403   7.133  0.2641  1.3730 -1.1564
   77MOL0     H10144  -3.191   5.348   7.007  1.1737 -2.0468  0.0688
   77MOL0     H10145  -3.132   5.424   6.862 -2.9295 -0.4151  1.1292
   77MOL0     H10146  -2.058   5.242   7.023 -0.0550 -0.7183  0.1897
   77MOL0     H10147  -1.870   5.101   6.975  0.3020 -1.3736 -1.8857
   77MOL0     H10148  -1.454   5.099   6.777 -0.8808  1.7113 -1.2098
   77MOL0     H10149  -1.271   4.993   6.697  0.3060  0.0740  0.2223
   77MOL0     H10150   0.022   4.107   5.877 -1.3553 -0.5702  1.5763
   77MOL0     H10151   0.205   3.945   5.900 -0.0494 -0.0460  0.7281
   77MOL0     H10152   0.490   3.603   5.990  0.8033 -0.7065 -0.4892
   77MOL0     H10153   0.708   3.519   5.983 -0.9470 -0.5491 -0.6985
   77MOL0     H10154   0.920   3.537   5.861  0.3902  0.6066  0.4287
   77MOL0     H10155   0.959   3.446   6.017  1.9348 -0.4568 -1.1789
   77MOL0     H10156   1.145   3.625   5.861  0.8735  0.1636 -0.1263
   77MOL0     H10157   1.171   3.560   6.027 -1.4237  0.6604 -0.3853
   77MOL0     H10158   1.124   3.394   5.777 -0.1098 -0.9218  0.9379
   77MOL0     H10159   1.165   3.331   5.939 -0.7923 -0.6517 -0.0806
   77MOL0     H10160   1.346   3.465   5.733  3.8837 -1.3925  0.5413
   77MOL0     H10161   1.383   3.488   5.906  0.9621  1.5900 -2.6675
   77MOL0     H10162   1.523   3.101   5.821 -1.1237 -1.1577 -0.0178
   77MOL0     H10163   0.864   3.870   6.171  0.2595 -0.0535 -1.4980
   77MOL0     H10164   0.643   3.977   6.139  0.4249  1.1555 -1.5403
   78MOL0     O10165   3.139   8.851   7.714  0.5200  0.3904 -0.7392
   78MOL0     C10166   3.168   8.760   7.635  1.0595  0.5763  0.1095
   78MOL0     O10167   3.087   8.703   7.536 -0.2858 -0.5888  0.0568
   78MOL0     C10168   2.956   8.727   7.509  0.2066 -0.9083 -0.8678
   78MOL0     C10169   2.857   8.788   7.597  0.0567 -0.5797  1.0316
   78MOL0     C10170   2.729   8.827   7.547  0.0986  0.6379  0.2240
   78MOL0     C10171   2.689   8.794   7.414 -0.5203  0.3134 -0.6867
   78MOL0     O10172   2.562   8.814   7.360  0.0080  0.8284  0.7407
   78MOL0     C10173   2.454   8.846   7.456 -0.5756 -0.9265  0.2652
   78MOL0     C10174   2.325   8.883   7.376 -0.1494  0.1150  0.3142
   78MOL0     C10175   2.254   8.755   7.331 -0.8194 -0.3348 -0.2499
   78MOL0     C10176   2.143   8.770   7.221  1.0447 -0.1906  0.2150
   78MOL0     C10177   2.065   8.636   7.209  0.0096 -0.0601 -0.0622
   78MOL0     C10178   1.981   8.635   7.081  0.3784 -0.5827  0.1134
   78MOL0     C10179   1.851   8.545   7.091  0.5603 -0.2710  0.6280
   78MOL0     C10180   1.800   8.510   6.954  1.1606 -0.1951  0.2068
   78MOL0     N10181   1.786   8.624   6.863 -0.2809 -0.7957  0.1679
   78MOL0     C10182   1.874   8.686   6.780 -0.4032  0.4261  0.6920
   78MOL0     C10183   1.814   8.808   6.753 -0.1425 -0.6556  1.1149
   78MOL0     C10184   1.897   8.906   6.654 -0.4487 -0.4386 -0.1665
   78MOL0     C10185   1.988   9.013   6.713  0.7446 -0.3921 -0.1157
   78MOL0     C10186   2.107   8.952   6.785 -0.1377  1.7335  0.1715
   78MOL0     C10187   2.197   9.049   6.849 -0.0225 -1.1012 -0.5570
   78MOL0     O10188   2.292   8.976   6.923  0.3100  0.3173  0.3906
   78MOL0     C10189   2.400   9.040   6.970  0.1460 -1.1111  0.1718
   78MOL0     C10190   2.415   9.182   6.951 -0.7180  0.6110  0.5417
   78MOL0     C10191   2.525   9.246   7.006 -0.1671 -0.6420 -0.0385
   78MOL0     C10192   2.628   9.173   7.076  0.6439 -0.3317  0.1501
   78MOL0     C10193   2.742   9.250   7.127  0.3076  0.3269 -0.5410
   78MOL0     O10194   2.829   9.173   7.187  0.5697  0.0063 -0.2204
   78MOL0     C10195   2.941   9.208   7.242 -0.6814 -0.2488 -0.0514
   78MOL0     C10196   2.999   9.114   7.331 -0.2119 -0.6687 -0.2767
   78MOL0     C10197   3.117   9.149   7.399 -0.1276  0.2575  0.5236
   78MOL0     C10198   3.185   9.264   7.381  0.3108  0.0026 -0.1810
   78MOL0     O10199   3.302   9.276   7.443 -0.4954 -0.7298 -0.7625
   78MOL0     C10200   3.399   9.383   7.404  0.6548 -1.2900 -0.4598
   78MOL0     C10201   3.538   9.350   7.456  0.0003 -0.3806  0.1976
   78MOL0     C10202   3.652   9.451   7.418  0.3172  0.8972 -0.3044
   78MOL0     C10203   3.625   9.607   7.420 -0.2349  0.7230 -0.2995
   78MOL0     C10204   3.743   9.689   7.368  0.4997 -0.2924 -0.2182
   78MOL0     C10205   3.876   9.665   7.436  0.0161  0.0299  0.0795
   78MOL0     C10206   3.984   9.772   7.379 -0.6111 -0.4361  0.0930
   78MOL0     C10207   4.123   9.739   7.417 -0.7957  0.3620 -0.2260
   78MOL0    Cl10208   4.244   9.865   7.372 -0.1325  0.3750 -0.3528
   78MOL0     C10209   3.126   9.359   7.296 -0.2027  0.5733  0.0838
   78MOL0     C10210   3.009   9.333   7.235  0.6607  0.4905  1.2770
   78MOL0     O10211   2.748   9.371   7.111 -0.1582 -0.0781  0.5778
   78MOL0     C10212   2.610   9.037   7.097 -0.5551 -0.1311 -0.1202
   78MOL0     C10213   2.496   8.972   7.043 -0.2148 -0.2503  1.0874
   78MOL0     N10214   1.683   8.800   6.803  0.0042 -0.8620 -0.0134
   78MOL0     N10215   1.670   8.692   6.858 -0.0281  0.1500 -0.6745
   78MOL0     C10216   2.779   8.727   7.330  0.0995  0.4195 -0.4749
   78MOL0     C10217   2.906   8.691   7.375  0.5928  0.1698 -0.6890
   78MOL0     C10218   3.295   8.698   7.660 -0.7851  0.3832  0.5945
   78MOL0     C10219   3.388   8.759   7.760 -0.2035  0.4780 -0.0601
   78MOL0     C10220   3.519   8.702   7.770  0.2385  0.0051  0.0759
   78MOL0     C10221   3.560   8.603   7.688  0.7121 -0.5429 -0.8447
   78MOL0     O10222   3.685   8.554   7.708 -0.1077  0.3596  0.1407
   78MOL0     C10223   3.772   8.508   7.599  0.3274 -0.3511 -1.1148
   78MOL0     C10224   3.919   8.518   7.658  0.1111  0.1221  0.0148
   78MOL0     C10225   4.008   8.409   7.594  0.2061 -0.0175  0.3312
   78MOL0     C10226   4.115   8.364   7.689 -0.1533  0.3247 -0.3586
   78MOL0     C10227   4.206   8.476   7.722  0.1522  0.4970 -0.3821
   78MOL0     C10228   4.278   8.558   7.745 -0.6907 -0.8015 -0.6500
   78MOL0     C10229   3.467   8.535   7.610  0.1280 -0.4164 -0.2182
   78MOL0     C10230   3.339   8.582   7.585  0.5181  0.4892  0.3184
   78MOL0     H10231   2.895   8.822   7.693 -1.5303 -0.0434  1.4957
   78MOL0     H10232   2.663   8.874   7.619 -0.5545  1.0597 -0.6302
   78MOL0     H10233   2.489   8.934   7.510  1.9680 -1.1519 -0.8470
   78MOL0     H10234   2.434   8.760   7.521 -1.4322 -1.0051 -0.0969
   78MOL0     H10235   2.370   8.930   7.288  1.7308 -2.6047 -0.3244
   78MOL0     H10236   2.268   8.950   7.442  0.8818  0.3963  0.9498
   78MOL0     H10237   2.206   8.715   7.421 -2.9677  0.1795 -1.0973
   78MOL0     H10238   2.326   8.681   7.295 -0.0744  1.2443 -2.2097
   78MOL0     H10239   2.070   8.847   7.247  2.1765  1.1028 -0.3089
   78MOL0     H10240   2.181   8.797   7.122 -1.3070  1.3176 -0.3689
   78MOL0     H10241   2.003   8.621   7.298 -0.1725  0.0467 -0.1704
   78MOL0     H10242   2.128   8.547   7.219 -0.9790 -0.7251  0.5255
   78MOL0     H10243   2.036   8.599   6.994  0.4447  3.1311 -1.6090
   78MOL0     H10244   1.949   8.736   7.053 -2.2248 -1.8707 -1.9217
   78MOL0     H10245   1.849   8.452   7.149 -2.8038 -1.5401 -1.2284
   78MOL0     H10246   1.767   8.600   7.136 -0.9571 -2.3468  0.4658
   78MOL0     H10247   1.701   8.466   6.972  0.8449  1.5533  3.4226
   78MOL0     H10248   1.863   8.436   6.904 -0.2705 -2.1380  1.1111
   78MOL0     H10249   1.974   8.650   6.760  0.0178 -0.0342  3.2640
   78MOL0     H10250   1.823   8.954   6.590  0.7663  0.6076 -0.8251
   78MOL0     H10251   1.962   8.844   6.591 -0.2480  1.2546 -1.6716
   78MOL0     H10252   1.938   9.082   6.782  2.5650  0.7620  0.0894
   78MOL0     H10253   2.022   9.077   6.632 -1.7440 -1.5377 -2.2308
   78MOL0     H10254   2.073   8.885   6.865  1.6620 -2.0449 -1.9380
   78MOL0     H10255   2.166   8.895   6.713  0.3841  2.1553  0.2624
   78MOL0     H10256   2.141   9.123   6.907 -1.3740 -3.9377  2.0369
   78MOL0     H10257   2.261   9.091   6.771  1.2881 -2.4896 -0.2773
   78MOL0     H10258   2.359   9.255   6.893  1.8396  0.9814 -1.6624
   78MOL0     H10259   2.531   9.354   6.998 -1.2983 -0.5615 -0.0695
   78MOL0     H10260   2.944   9.022   7.349 -0.2811 -0.8928 -1.5715
   78MOL0     H10261   3.160   9.076   7.467  1.8046  0.1465 -0.7480
   78MOL0     H10262   3.355   9.482   7.413  0.7768 -1.1782 -1.0701
   78MOL0     H10263   3.413   9.375   7.296 -2.6074  0.3541 -1.1243
   78MOL0     H10264   3.565   9.248   7.428  2.1153 -0.1969  1.3285
   78MOL0     H10265   3.529   9.361   7.565 -1.1169  1.2866 -0.0200
   78MOL0     H10266   3.671   9.435   7.311  0.0404  2.7953 -0.6648
   78MOL0     H10267   3.728   9.427   7.492 -0.8861 -0.1263  0.6466
   78MOL0     H10268   3.545   9.637   7.351  0.9230  2.8953 -0.8016
   78MOL0     H10269   3.593   9.644   7.518 -3.1403  2.8333 -1.8844
   78MOL0     H10270   3.709   9.788   7.401 -0.0497 -0.9523  1.2836
   78MOL0     H10271   3.743   9.685   7.259  1.7126 -1.0740 -0.1993
   78MOL0     H10272   3.907   9.561   7.420  2.8616  0.9839 -1.3337
   78MOL0     H10273   3.862   9.686   7.543  2.5576 -0.9869  0.6796
   78MOL0     H10274   3.989   9.780   7.270 -1.4805  2.1264  0.1641
   78MOL0     H10275   3.954   9.870   7.417  1.6599  0.0628  0.7456
   78MOL0     H10276   4.163   9.652   7.365  2.7755  3.3176 -2.9648
   78MOL0     H10277   4.144   9.710   7.521 -1.0387 -1.4007 -0.6364
   78MOL0     H10278   3.161   9.462   7.291  0.7278  0.6302  4.2102
   78MOL0     H10279   2.968   9.413   7.173  0.2551  0.4353  1.4692
   78MOL0     H10280   2.678   8.975   7.155  1.1142 -1.0965 -2.9207
   78MOL0     H10281   2.491   8.864   7.047 -0.5167 -0.4405 -1.9562
   78MOL0     H10282   2.737   8.692   7.236 -0.9314 -3.9045  1.3695
   78MOL0     H10283   2.972   8.625   7.318  1.1379 -1.4495  1.6675
   78MOL0     H10284   3.363   8.838   7.829 -1.8997 -0.4641  0.4821
   78MOL0     H10285   3.586   8.745   7.844 -2.0676 -0.9178  2.8425
   78MOL0     H10286   3.757   8.562   7.505 -3.8992 -0.7035 -0.8671
   78MOL0     H10287   3.735   8.408   7.574  0.8381 -1.2134  1.3051
   78MOL0     H10288   3.950   8.618   7.625 -3.1221  2.3996  3.1364
   78MOL0     H10289   3.924   8.519   7.767 -0.3977 -0.3414  0.0458
   78MOL0     H10290   4.047   8.461   7.505  0.0488  0.0172  0.2819
   78MOL0     H10291   3.950   8.319   7.572  1.5649 -0.4528 -1.8151
   78MOL0     H10292   4.090   8.320   7.786  2.1774 -0.0936  0.1089
   78MOL0     H10293   4.184   8.299   7.635 -1.3219 -0.9617 -0.3575
   78MOL0     H10294   4.349   8.635   7.768  0.5857 -2.2963  0.6241
   78MOL0     H10295   3.496   8.449   7.549 -2.9122 -2.5056  1.0037
   78MOL0     H10296   3.280   8.535   7.507  2.3932 -2.4787  0.5180
   79MOL0     O10297   4.160   8.091   5.087 -0.3750 -0.3050 -0.2915
   79MOL0     C10298   4.257   8.119   5.155  0.8075 -0.6327  0.7650
   79MOL0     O10299   4.253   8.208   5.263  0.2028 -0.1296 -0.2868
   79MOL0     C10300   4.151   8.301   5.276  0.4998  0.6088 -0.0724
   79MOL0     C10301   4.053   8.308   5.383 -0.4210 -0.0281  0.0927
   79MOL0     C10302   3.947   8.407   5.389 -0.4908  0.3575  0.3804
   79MOL0     C10303   3.936   8.500   5.283  0.8092 -0.0065  0.2678
   79MOL0     O10304   3.828   8.589   5.284  0.1630 -0.5080  0.6243
   79MOL0     C10305   3.738   8.577   5.172  0.6864  0.1096  0.1084
   79MOL0     C10306   3.609   8.507   5.214 -0.4876  0.4524 -0.2681
   79MOL0     C10307   3.497   8.524   5.106 -0.9327  0.4943  0.0184
   79MOL0     C10308   3.514   8.427   4.994 -0.4997 -1.2675  0.1609
   79MOL0     C10309   3.385   8.396   4.909  0.4014  0.3720  0.2074
   79MOL0     C10310   3.345   8.527   4.836  0.3804  0.4534  0.3755
   79MOL0     C10311   3.229   8.503   4.747  0.2793  0.6724 -0.0891
   79MOL0     C10312   3.185   8.630   4.669  0.9712 -0.0471  0.8411
   79MOL0     N10313   3.053   8.610   4.593 -0.4387 -0.1381  0.6173
   79MOL0     C10314   2.933   8.598   4.662 -0.3613  0.7111  0.0221
   79MOL0     C10315   2.840   8.583   4.560 -0.0315 -0.6677 -0.8963
   79MOL0     C10316   2.693   8.557   4.570  0.0353  0.3352  0.4753
   79MOL0     C10317   2.645   8.441   4.476 -0.1223  0.6161 -0.0535
   79MOL0     C10318   2.501   8.413   4.505 -0.2113 -0.3492  0.2287
   79MOL0     C10319   2.418   8.515   4.428  0.4281  0.0701  0.7609
   79MOL0     O10320   2.303   8.541   4.517 -0.9701  0.6718 -0.0620
   79MOL0     C10321   2.202   8.594   4.452  0.3065  0.4089 -0.4858
   79MOL0     C10322   2.203   8.696   4.355 -0.0639 -0.1814 -0.4651
   79MOL0     C10323   2.085   8.746   4.307 -0.4142 -0.0543  0.0638
   79MOL0     C10324   1.958   8.697   4.338  0.2339 -0.0505 -0.4543
   79MOL0     C10325   1.832   8.731   4.260  0.6087 -0.4267 -0.7069
   79MOL0     O10326   1.843   8.815   4.165  0.2923  0.1122  0.0482
   79MOL0     C10327   1.742   8.862   4.087  1.0006  0.7725 -0.2086
   79MOL0     C10328   1.786   8.922   3.972  0.0683 -0.4385 -0.1871
   79MOL0     C10329   1.686   8.986   3.890  0.1964 -0.5722 -0.3848
   79MOL0     C10330   1.547   8.974   3.906  0.4158  0.5963 -0.8228
   79MOL0     O10331   1.457   9.026   3.811  0.0394  0.3154 -0.0162
   79MOL0     C10332   1.322   9.004   3.830  0.2252  0.6895 -0.1161
   79MOL0     C10333   1.247   9.041   3.708  0.0910 -0.6174 -0.2458
   79MOL0     C10334   1.104   8.981   3.722  0.6967 -0.1815  0.5880
   79MOL0     C10335   0.989   9.066   3.639 -0.6466 -0.1402  0.2939
   79MOL0     C10336   1.018   9.065   3.490 -0.3057  0.2038  0.3670
   79MOL0     C10337   0.907   9.141   3.408  0.6223 -0.6251  0.0415
   79MOL0     C10338   0.948   9.189   3.268  0.4828  0.5508 -0.6709
   79MOL0     C10339   0.831   9.259   3.190 -0.4309 -0.2908 -0.0384
   79MOL0    Cl10340   0.923   9.329   3.046  0.3783 -0.5546  0.4199
   79MOL0     C10341   1.502   8.906   4.026 -0.1539  0.8966  0.1163
   79MOL0     C10342   1.599   8.848   4.112 -0.7827  0.1601  0.0684
   79MOL0     O10343   1.732   8.680   4.301 -0.4971  0.4618 -0.1276
   79MOL0     C10344   1.960   8.599   4.448  0.1163 -0.0750 -0.5449
   79MOL0     C10345   2.080   8.544   4.497  0.4202 -0.4686  0.1314
   79MOL0     N10346   2.907   8.593   4.438 -0.4457  0.2120  0.8240
   79MOL0     N10347   3.031   8.602   4.462 -0.5414  0.8744 -0.1784
   79MOL0     C10348   4.025   8.483   5.169 -0.1875 -0.2679 -0.5487
   79MOL0     C10349   4.130   8.390   5.177  0.7413  1.2988  1.1908
   79MOL0     C10350   4.380   8.043   5.141 -0.2414 -1.1194  0.4666
   79MOL0     C10351   4.421   8.000   5.018  0.8351 -0.5628  0.7751
   79MOL0     C10352   4.536   7.925   5.008 -0.7217 -0.0681  0.0033
   79MOL0     C10353   4.613   7.883   5.124  0.0840  0.3764  0.5993
   79MOL0     O10354   4.707   7.796   5.090  0.1974 -0.1780 -0.3963
   79MOL0     C10355   4.839   7.838   5.109  0.0573 -0.9811 -0.1758
   79MOL0     C10356   4.920   7.753   5.212 -0.0341  0.6272  0.5631
   79MOL0     C10357   5.053   7.833   5.247 -0.0512 -0.0470 -0.4920
   79MOL0     C10358   5.025   7.910   5.372  0.2264  0.0988  0.4186
   79MOL0     C10359   5.127   8.014   5.378  0.3553  0.6026 -0.4662
   79MOL0     C10360   5.220   8.096   5.382 -0.6458  0.6313 -0.0553
   79MOL0     C10361   4.575   7.924   5.248  1.4513 -0.1847  0.3447
   79MOL0     C10362   4.462   8.011   5.252  1.0358  0.4003  0.3442
   79MOL0     H10363   4.070   8.240   5.466  0.2848  1.2720  1.0692
   79MOL0     H10364   3.874   8.398   5.468 -3.7769 -0.7445 -2.5265
   79MOL0     H10365   3.790   8.542   5.083  0.2409  1.2727 -0.6362
   79MOL0     H10366   3.712   8.682   5.157  1.6024  0.3748  0.2744
   79MOL0     H10367   3.578   8.572   5.296  1.2870 -1.3918  2.0156
   79MOL0     H10368   3.626   8.405   5.251  2.3965  1.6274  2.0970
   79MOL0     H10369   3.503   8.626   5.068 -1.6965  0.8231  0.7417
   79MOL0     H10370   3.399   8.515   5.155  0.4279 -0.4776  2.8100
   79MOL0     H10371   3.587   8.457   4.917 -0.1560 -1.6104  0.3475
   79MOL0     H10372   3.547   8.334   5.041  1.6699 -0.4312  0.4100
   79MOL0     H10373   3.312   8.362   4.983  2.7484 -2.4485  1.4054
   79MOL0     H10374   3.400   8.326   4.826 -1.1166 -1.0675  1.0947
   79MOL0     H10375   3.432   8.559   4.778 -0.7007  0.8747 -1.1024
   79MOL0     H10376   3.320   8.608   4.905 -2.6611 -0.8443  0.9649
   79MOL0     H10377   3.255   8.437   4.664 -1.2108 -2.8870  2.0456
   79MOL0     H10378   3.143   8.457   4.797 -0.0222  1.5902  0.2635
   79MOL0     H10379   3.263   8.674   4.607 -0.7380 -1.2873 -2.4021
   79MOL0     H10380   3.161   8.712   4.738  0.1978 -1.5362  2.4332
   79MOL0     H10381   2.919   8.600   4.770 -0.5120  0.4169  0.0110
   79MOL0     H10382   2.647   8.656   4.556  0.3568  0.4484  0.2127
   79MOL0     H10383   2.668   8.523   4.670 -0.2435 -3.0251 -0.6206
   79MOL0     H10384   2.710   8.354   4.488  0.6833  0.6401 -3.3718
   79MOL0     H10385   2.652   8.457   4.368 -1.8582 -1.1555 -0.4991
   79MOL0     H10386   2.482   8.315   4.462  0.1801  0.4406 -1.8535
   79MOL0     H10387   2.494   8.414   4.614 -0.9364 -0.0791  0.1848
   79MOL0     H10388   2.373   8.476   4.337 -1.0257  1.3661  0.8733
   79MOL0     H10389   2.473   8.609   4.418  0.7200  0.0602  2.1056
   79MOL0     H10390   2.292   8.748   4.322  0.5602 -1.1668 -0.3697
   79MOL0     H10391   2.091   8.824   4.232 -2.5949 -0.4609 -0.6269
   79MOL0     H10392   1.891   8.927   3.945  0.5622 -1.0865  1.5029
   79MOL0     H10393   1.704   9.021   3.789 -1.4218 -1.4996 -1.0413
   79MOL0     H10394   1.288   9.066   3.914  3.6885 -0.1167  2.0619
   79MOL0     H10395   1.302   8.900   3.856  2.0554  1.2567  4.5674
   79MOL0     H10396   1.297   8.998   3.621  0.1653 -0.5920 -0.2156
   79MOL0     H10397   1.241   9.150   3.703 -1.9509 -0.6107  1.2069
   79MOL0     H10398   1.070   8.993   3.825 -0.6280 -0.1601  0.1661
   79MOL0     H10399   1.096   8.876   3.690 -1.1247  0.4097 -1.1220
   79MOL0     H10400   0.901   9.007   3.665  1.2314 -2.4251  1.8274
   79MOL0     H10401   0.962   9.170   3.662 -2.9661 -0.7069  0.3956
   79MOL0     H10402   1.034   8.965   3.448 -1.6411 -1.6643  3.8861
   79MOL0     H10403   1.115   9.115   3.487  0.7436 -1.7567 -0.8271
   79MOL0     H10404   0.888   9.230   3.469 -2.4947  0.3578 -2.0824
   79MOL0     H10405   0.815   9.082   3.399 -0.3611  0.6920  0.9349
   79MOL0     H10406   1.030   9.261   3.271  1.1406 -0.1199 -1.8678
   79MOL0     H10407   0.976   9.100   3.212 -1.9013 -0.5103 -0.2834
   79MOL0     H10408   0.785   9.333   3.256  0.1129  0.5305 -0.5555
   79MOL0     H10409   0.764   9.178   3.161 -0.9674 -0.0408  0.4847
   79MOL0     H10410   1.402   8.904   4.070  0.0538  0.6438  0.5774
   79MOL0     H10411   1.568   8.802   4.205 -2.7988  1.3262  0.0530
   79MOL0     H10412   1.868   8.548   4.473  0.1580 -1.9785 -3.7450
   79MOL0     H10413   2.073   8.466   4.572  0.6912 -2.2818 -1.6164
   79MOL0     H10414   4.021   8.548   5.083  0.7285 -1.3847 -1.4626
   79MOL0     H10415   4.201   8.381   5.096  0.9156 -3.4842  1.6050
   79MOL0     H10416   4.357   8.042   4.940 -2.1970  0.2604  3.5082
   79MOL0     H10417   4.573   7.882   4.916  1.2807 -1.2378  1.2763
   79MOL0     H10418   4.847   7.945   5.128 -0.4803 -0.3246 -3.1676
   79MOL0     H10419   4.890   7.814   5.015  1.1977 -2.2772  0.7206
   79MOL0     H10420   4.857   7.729   5.298 -1.2105  1.1598 -0.1092
   79MOL0     H10421   4.941   7.658   5.163 -0.6699 -0.8681  3.0474
   79MOL0     H10422   5.095   7.894   5.166 -0.0663  0.4063 -0.1652
   79MOL0     H10423   5.136   7.766   5.268  0.0084 -0.0865 -0.8548
   79MOL0     H10424   4.922   7.947   5.373 -0.1187 -0.8331  1.0878
   79MOL0     H10425   5.049   7.851   5.461 -0.0275 -0.4854  0.1051
   79MOL0     H10426   5.295   8.164   5.416  0.6634 -0.3415 -0.9058
   79MOL0     H10427   4.619   7.892   5.342  1.6711 -2.0063 -0.3416
   79MOL0     H10428   4.428   8.054   5.346  2.7196  5.9817 -1.2052
   80MOL0     O10429  10.593   1.409   0.334 -0.5726  1.0263  0.5561
   80MOL0     C10430  10.693   1.335   0.340 -0.4619 -0.2727  0.4970
   80MOL0     O10431  10.696   1.202   0.338  0.4319 -0.1290  0.7324
   80MOL0     C10432  10.584   1.130   0.308 -0.1920 -0.4878  0.4622
   80MOL0     C10433  10.567   1.015   0.388  0.5014 -0.4965 -0.5550
   80MOL0     C10434  10.462   0.925   0.364  0.4066 -0.0530 -0.5770
   80MOL0     C10435  10.359   0.960   0.265 -0.6239 -0.2975  0.3488
   80MOL0     O10436  10.250   0.878   0.257  0.0148 -0.1854 -0.4366
   80MOL0     C10437  10.146   0.896   0.162 -0.0661  0.5731  1.0506
   80MOL0     C10438  10.073   0.769   0.151 -0.2869  0.6272 -0.0690
   80MOL0     C10439  10.134   0.665   0.061  0.0793  0.4437  0.1204
   80MOL0     C10440  10.080   0.516   0.076  0.4992 -0.2281 -0.2628
   80MOL0     C10441  10.186   0.438  -0.000  0.2646  0.0069  0.6523
   80MOL0     C10442  10.154   0.286  -0.006 -0.9511 -0.4310 -1.0899
   80MOL0     C10443  10.249   0.213  -0.111  0.3147 -0.2675  0.1412
   80MOL0     C10444  10.253   0.061  -0.096 -0.4313 -0.2375  0.1833
   80MOL0     N10445  10.171  -0.020  -0.186  0.8482  0.7645 -0.1676
   80MOL0     C10446  10.029  -0.018  -0.169  0.1775  0.4329 -0.5285
   80MOL0     C10447   9.990  -0.074  -0.285 -0.2972 -0.5198 -0.7110
   80MOL0     C10448   9.852  -0.084  -0.344  0.8358  0.3219 -0.4543
   80MOL0     C10449   9.765  -0.199  -0.283 -0.5919  0.9707  0.0644
   80MOL0     C10450   9.825  -0.339  -0.295  0.5244  0.5787 -0.5648
   80MOL0     C10451   9.859  -0.384  -0.432  0.4473  0.0044 -0.2339
   80MOL0     O10452   9.751  -0.400  -0.525 -0.3572 -0.3347  0.8655
   80MOL0     C10453   9.664  -0.508  -0.506  1.2092 -0.3467 -0.5878
   80MOL0     C10454   9.684  -0.628  -0.429  0.1340 -0.6127  0.3308
   80MOL0     C10455   9.585  -0.727  -0.424  0.4502  0.5759  0.0362
   80MOL0     C10456   9.464  -0.715  -0.500  0.0634 -0.2385 -0.2441
   80MOL0     C10457   9.374  -0.829  -0.507 -0.5336 -0.4413 -0.0110
   80MOL0     O10458   9.254  -0.816  -0.564  0.0381  0.6671  0.1417
   80MOL0     C10459   9.166  -0.924  -0.569  0.3660 -0.6619  0.6693
   80MOL0     C10460   9.029  -0.892  -0.579 -0.3558  0.1588 -0.2689
   80MOL0     C10461   8.930  -0.985  -0.598 -0.0232  0.4677  0.2793
   80MOL0     C10462   8.962  -1.123  -0.595  0.1552 -0.0954  0.1718
   80MOL0     O10463   8.858  -1.216  -0.606 -0.0851  0.4440  0.0675
   80MOL0     C10464   8.893  -1.351  -0.649 -0.9407 -0.0727  0.3277
   80MOL0     C10465   8.785  -1.434  -0.705  0.2140  0.1911  0.1806
   80MOL0     C10466   8.657  -1.423  -0.629 -0.2929 -0.1070  0.1082
   80MOL0     C10467   8.546  -1.508  -0.686  0.6570 -0.6120  0.1467
   80MOL0     C10468   8.417  -1.498  -0.596 -0.4887  0.1102  0.1100
   80MOL0     C10469   8.290  -1.574  -0.650 -0.7152  0.4483 -0.7547
   80MOL0     C10470   8.192  -1.585  -0.535  0.2011 -0.7027  0.4066
   80MOL0     C10471   8.077  -1.685  -0.577  0.0556 -0.3006  0.4832
   80MOL0    Cl10472   8.001  -1.625  -0.736 -0.2764 -0.4042  0.0110
   80MOL0     C10473   9.089  -1.159  -0.562 -0.1189 -0.1843  0.2380
   80MOL0     C10474   9.195  -1.064  -0.563 -0.3369  0.8928 -0.7774
   80MOL0     O10475   9.417  -0.934  -0.449  0.6641  0.3405  0.2048
   80MOL0     C10476   9.440  -0.593  -0.567 -0.5950  0.1457 -0.2376
   80MOL0     C10477   9.541  -0.497  -0.580  0.1709  0.1708  0.4797
   80MOL0     N10478  10.100  -0.106  -0.368 -0.7309 -0.8768  0.4527
   80MOL0     N10479  10.207  -0.070  -0.305  0.3501  0.1183  0.4789
   80MOL0     C10480  10.376   1.084   0.190 -0.2499 -0.1069 -0.0615
   80MOL0     C10481  10.484   1.166   0.208 -0.8549  0.0203 -0.2123
   80MOL0     C10482  10.823   1.396   0.363 -0.5751  0.0908  0.4231
   80MOL0     C10483  10.942   1.323   0.374  0.7467 -0.6741  1.0344
   80MOL0     C10484  11.064   1.377   0.409  0.2129  0.5496  0.4884
   80MOL0     C10485  11.080   1.513   0.435 -0.2810  0.5819 -0.5498
   80MOL0     O10486  11.204   1.567   0.474  0.0856 -0.2556 -0.5206
   80MOL0     C10487  11.331   1.529   0.409 -0.0940 -0.0616 -0.2524
   80MOL0     C10488  11.446   1.622   0.441 -0.7829 -0.1410  0.0961
   80MOL0     C10489  11.585   1.569   0.421 -0.9450  0.9779 -0.0447
   80MOL0     C10490  11.689   1.677   0.445  0.2546  0.3013  0.0500
   80MOL0     C10491  11.819   1.632   0.496  0.1986 -0.2340 -0.3334
   80MOL0     C10492  11.920   1.581   0.547 -0.3360 -0.1586 -0.5560
   80MOL0     C10493  10.965   1.585   0.426 -0.8652  0.0215 -0.3532
   80MOL0     C10494  10.837   1.533   0.385 -1.2313  0.4215 -0.1814
   80MOL0     H10495  10.633   1.010   0.473 -0.2928 -0.3500  0.0780
   80MOL0     H10496  10.444   0.838   0.427  1.9576  0.5865  0.8045
   80MOL0     H10497  10.187   0.933   0.067 -2.9225  3.4534  0.7555
   80MOL0     H10498  10.072   0.965   0.204 -1.8570  0.7487 -2.1581
   80MOL0     H10499   9.968   0.782   0.120  0.1537  0.1138 -1.8813
   80MOL0     H10500  10.076   0.723   0.250  1.4029 -0.4340 -0.5805
   80MOL0     H10501  10.239   0.660   0.093 -0.4106 -1.3787  1.5941
   80MOL0     H10502  10.130   0.698  -0.043 -0.7040 -4.2031 -1.5413
   80MOL0     H10503  10.086   0.488   0.181  1.4125  2.8202  0.6108
   80MOL0     H10504   9.984   0.492   0.029 -0.5927  2.1893  0.5875
   80MOL0     H10505  10.285   0.454   0.042  1.5303  2.6830 -2.8078
   80MOL0     H10506  10.207   0.485  -0.097  4.5319  1.6760  2.1362
   80MOL0     H10507  10.056   0.255  -0.042 -0.8545 -0.8864 -0.9559
   80MOL0     H10508  10.170   0.239   0.092 -1.1176 -0.9300 -1.3002
   80MOL0     H10509  10.220   0.235  -0.214  0.9389 -1.4830 -0.3177
   80MOL0     H10510  10.346   0.262  -0.095  1.0203 -1.6585  0.2213
   80MOL0     H10511  10.211   0.026  -0.001  0.4042  0.7784  0.9479
   80MOL0     H10512  10.356   0.026  -0.109  0.2927  2.1689 -1.2918
   80MOL0     H10513   9.971   0.030  -0.091 -1.2922 -0.0202 -1.3130
   80MOL0     H10514   9.861  -0.101  -0.452 -4.2160  2.2161 -1.4369
   80MOL0     H10515   9.793   0.008  -0.339 -0.5739 -0.5866  0.3465
   80MOL0     H10516   9.669  -0.198  -0.336  0.3565  0.1711 -1.7687
   80MOL0     H10517   9.733  -0.185  -0.180 -2.0976  1.8004 -0.4863
   80MOL0     H10518   9.920  -0.335  -0.241  0.7382  2.3531 -1.0116
   80MOL0     H10519   9.757  -0.404  -0.240 -0.2463  1.6613 -0.2125
   80MOL0     H10520   9.928  -0.470  -0.431  0.0152 -0.3428  0.1057
   80MOL0     H10521   9.922  -0.307  -0.478  0.1077 -0.0850 -0.8528
   80MOL0     H10522   9.768  -0.637  -0.362 -0.4247  3.5024  1.8523
   80MOL0     H10523   9.602  -0.814  -0.361 -0.4654  0.5226  0.2238
   80MOL0     H10524   9.005  -0.786  -0.579  2.0477  0.7759 -1.4643
   80MOL0     H10525   8.829  -0.948  -0.615 -1.2265 -2.4787  0.4886
   80MOL0     H10526   8.942  -1.410  -0.571 -1.9746 -1.7906 -0.2641
   80MOL0     H10527   8.972  -1.344  -0.724  3.0276 -2.7131  3.8574
   80MOL0     H10528   8.813  -1.540  -0.708 -0.2969  0.0601  0.0440
   80MOL0     H10529   8.757  -1.409  -0.808 -1.3137  0.1577  0.5745
   80MOL0     H10530   8.628  -1.318  -0.638  1.4430  0.4446  0.6088
   80MOL0     H10531   8.664  -1.450  -0.524  0.7465  1.4890  0.4851
   80MOL0     H10532   8.512  -1.475  -0.785 -1.4197  2.0901  1.6494
   80MOL0     H10533   8.582  -1.612  -0.690 -0.4517 -0.9821 -1.7741
   80MOL0     H10534   8.392  -1.394  -0.574  1.6907  0.2872  2.2398
   80MOL0     H10535   8.442  -1.544  -0.500  2.0136 -1.0913 -1.0110
   80MOL0     H10536   8.333  -1.671  -0.676 -0.7332 -0.2916  1.7247
   80MOL0     H10537   8.259  -1.519  -0.739 -1.3116  0.6427 -0.4307
   80MOL0     H10538   8.241  -1.636  -0.452  3.6809 -1.1185 -1.6968
   80MOL0     H10539   8.163  -1.485  -0.501  2.1136 -0.1446  0.4841
   80MOL0     H10540   7.995  -1.685  -0.504 -0.5168  0.1200 -0.1434
   80MOL0     H10541   8.118  -1.786  -0.584  1.5349  0.3820 -2.8133
   80MOL0     H10542   9.114  -1.263  -0.582  2.2122  0.5125 -0.8292
   80MOL0     H10543   9.297  -1.100  -0.565 -0.3237  0.9569 -2.4172
   80MOL0     H10544   9.349  -0.569  -0.620 -0.7309 -0.4321 -0.2824
   80MOL0     H10545   9.532  -0.397  -0.623 -0.8672  0.1252  0.5684
   80MOL0     H10546  10.313   1.106   0.104 -0.6075  0.2689  0.2919
   80MOL0     H10547  10.508   1.257   0.153  1.8550 -1.1322 -1.0847
   80MOL0     H10548  10.933   1.217   0.352 -0.5394 -0.3966  0.1170
   80MOL0     H10549  11.142   1.302   0.422 -2.3612 -2.6455 -0.9033
   80MOL0     H10550  11.312   1.532   0.301  2.0268  0.9724 -0.6511
   80MOL0     H10551  11.353   1.424   0.432 -0.8076 -1.0538 -3.5156
   80MOL0     H10552  11.421   1.710   0.380 -0.9406 -0.1301  0.1768
   80MOL0     H10553  11.440   1.635   0.549 -0.5957 -1.0928  0.2309
   80MOL0     H10554  11.607   1.531   0.320  1.2342  2.3216 -0.1417
   80MOL0     H10555  11.604   1.490   0.494  1.3908  1.7943  0.3351
   80MOL0     H10556  11.708   1.732   0.353 -1.2458  0.6689 -0.0684
   80MOL0     H10557  11.651   1.758   0.507  1.1289 -0.8342  2.1751
   80MOL0     H10558  12.016   1.545   0.580 -0.6345 -1.6511 -1.2605
   80MOL0     H10559  10.975   1.687   0.463  0.7651 -0.6155  1.0898
   80MOL0     H10560  10.742   1.584   0.390 -1.0417  0.7795 -0.1692
   81MOL0     O10561   2.869   9.436   2.963  0.1086 -0.0213  0.0959
   81MOL0     C10562   2.917   9.534   3.008 -0.2706 -0.2348 -0.2625
   81MOL0     O10563   3.046   9.563   3.010 -0.0770  0.6939 -0.6268
   81MOL0     C10564   3.128   9.486   2.927 -0.9392 -0.8075 -0.6462
   81MOL0     C10565   3.121   9.475   2.788  0.5329 -0.2884 -0.6347
   81MOL0     C10566   3.201   9.391   2.714  0.2161 -0.0048  0.0581
   81MOL0     C10567   3.299   9.316   2.773 -0.2833 -0.5847 -0.6903
   81MOL0     O10568   3.383   9.249   2.685 -0.0815  0.4241  0.0009
   81MOL0     C10569   3.465   9.146   2.735  0.0256  0.3330 -0.2597
   81MOL0     C10570   3.473   9.023   2.640 -0.3303 -0.4815  0.0665
   81MOL0     C10571   3.354   9.007   2.542  0.2815  0.4741  0.6793
   81MOL0     C10572   3.358   8.871   2.454 -0.4021  0.3407 -0.0938
   81MOL0     C10573   3.327   8.744   2.530  0.4543 -0.0815  0.8206
   81MOL0     C10574   3.263   8.641   2.431 -0.8133  0.4448 -0.9799
   81MOL0     C10575   3.295   8.494   2.478  0.5557  0.0656 -0.3941
   81MOL0     C10576   3.210   8.454   2.606 -0.4587  0.6483  0.0328
   81MOL0     N10577   3.258   8.363   2.707 -0.2435 -0.5871  0.4309
   81MOL0     C10578   3.382   8.365   2.762  0.5901 -0.4880 -0.0558
   81MOL0     C10579   3.396   8.251   2.832  0.4815  0.7490 -0.3724
   81MOL0     C10580   3.518   8.224   2.919  0.2731  0.3033 -0.3948
   81MOL0     C10581   3.646   8.199   2.840 -0.1203 -0.2963 -0.0397
   81MOL0     C10582   3.715   8.064   2.872  0.3220 -1.4774 -0.0709
   81MOL0     C10583   3.870   8.074   2.863  0.6502  0.3099  0.2451
   81MOL0     O10584   3.944   8.159   2.963 -0.1676  0.2857 -0.7350
   81MOL0     C10585   4.073   8.115   2.979  0.9886  0.1313 -1.0007
   81MOL0     C10586   4.135   8.152   3.098 -0.4375 -0.0322 -0.2277
   81MOL0     C10587   4.267   8.120   3.129 -0.3636 -0.8345  0.4551
   81MOL0     C10588   4.351   8.051   3.034 -0.2734  0.5104 -0.3110
   81MOL0     C10589   4.489   8.019   3.070 -0.3274 -0.5373 -0.1563
   81MOL0     O10590   4.552   7.921   3.001 -0.1290  0.3610  0.3719
   81MOL0     C10591   4.686   7.903   3.008 -0.3281  0.2755 -0.5084
   81MOL0     C10592   4.742   7.773   3.033  0.4110  0.5993 -0.2712
   81MOL0     C10593   4.884   7.755   3.026 -0.2433  0.1805 -0.0282
   81MOL0     C10594   4.968   7.861   3.020 -0.0806 -0.7394 -0.6228
   81MOL0     O10595   5.106   7.846   3.020  0.1131  0.6948  1.0664
   81MOL0     C10596   5.158   7.766   2.904 -0.3198 -1.0915 -0.2588
   81MOL0     C10597   5.300   7.812   2.890 -0.4765 -0.0808 -0.3995
   81MOL0     C10598   5.310   7.966   2.850 -0.2731 -0.0329 -0.7898
   81MOL0     C10599   5.228   7.982   2.718 -0.6209  0.0562  0.4994
   81MOL0     C10600   5.263   8.115   2.638  0.7257  0.7019  0.4929
   81MOL0     C10601   5.233   8.234   2.729 -0.5554 -0.5780  0.3460
   81MOL0     C10602   5.218   8.354   2.643  0.1645 -0.3376  0.2966
   81MOL0     C10603   5.187   8.474   2.725 -0.0908 -0.4793  1.2240
   81MOL0    Cl10604   5.137   8.610   2.604 -0.0466  0.0822  0.1929
   81MOL0     C10605   4.919   7.982   3.025  0.2233 -0.2870 -0.1476
   81MOL0     C10606   4.781   8.003   3.013 -0.8003  0.4276 -0.6633
   81MOL0     O10607   4.543   8.099   3.144 -0.1124  0.6321  0.4077
   81MOL0     C10608   4.296   8.021   2.913 -0.2386 -0.1933  0.4373
   81MOL0     C10609   4.155   8.045   2.889 -0.7679 -0.0825  0.4520
   81MOL0     N10610   3.285   8.177   2.794  0.1098  0.2891 -0.1294
   81MOL0     N10611   3.192   8.247   2.734 -0.4541  0.2588 -0.1952
   81MOL0     C10612   3.305   9.318   2.915 -0.9467 -0.3579  0.5293
   81MOL0     C10613   3.230   9.406   2.984  0.4045  0.2276 -0.3664
   81MOL0     C10614   2.841   9.633   3.086 -0.1518  0.2291  0.1888
   81MOL0     C10615   2.885   9.768   3.110  0.1484 -0.3364 -0.2660
   81MOL0     C10616   2.809   9.863   3.177 -0.2683 -0.0741 -1.1027
   81MOL0     C10617   2.681   9.840   3.224 -0.3778 -0.7653  0.1603
   81MOL0     O10618   2.591   9.917   3.289 -0.0041 -0.6970 -0.8655
   81MOL0     C10619   2.644  10.034   3.360  0.9969 -0.2475  0.1023
   81MOL0     C10620   2.521  10.085   3.439 -0.1599 -0.4873  0.5814
   81MOL0     C10621   2.567  10.190   3.542  0.1762  0.0444 -0.1263
   81MOL0     C10622   2.457  10.298   3.566  0.3805  0.0110  0.0863
   81MOL0     C10623   2.501  10.419   3.633 -0.2098  0.4340  0.5640
   81MOL0     C10624   2.543  10.527   3.673 -0.4037 -0.2653 -0.3699
   81MOL0     C10625   2.638   9.711   3.197 -0.0218 -0.1187 -0.6638
   81MOL0     C10626   2.710   9.610   3.124  0.4639 -0.1453 -0.0271
   81MOL0     H10627   3.050   9.538   2.734 -0.1520 -0.6975 -0.2232
   81MOL0     H10628   3.198   9.381   2.606  1.2301 -0.0387  0.0224
   81MOL0     H10629   3.434   9.100   2.829  0.2355  0.0565 -0.3240
   81MOL0     H10630   3.568   9.180   2.752 -0.4652  0.5910  2.8398
   81MOL0     H10631   3.495   8.930   2.693  2.8016  0.1592  0.0930
   81MOL0     H10632   3.562   9.051   2.583 -0.7601 -0.4651 -0.5993
   81MOL0     H10633   3.356   9.086   2.467 -2.5894 -1.1278 -1.2995
   81MOL0     H10634   3.256   9.019   2.591  1.1272  0.7673  2.3919
   81MOL0     H10635   3.290   8.879   2.368  2.7410 -1.1894 -2.9663
   81MOL0     H10636   3.459   8.857   2.414  0.2782  1.3155  1.2200
   81MOL0     H10637   3.253   8.769   2.607  2.9009 -1.1789  3.7389
   81MOL0     H10638   3.411   8.692   2.577 -1.4273 -2.6721  1.5651
   81MOL0     H10639   3.291   8.655   2.326 -1.4567  0.1082 -1.2058
   81MOL0     H10640   3.157   8.666   2.425 -0.8172  1.5676  1.9849
   81MOL0     H10641   3.272   8.426   2.395  1.8895  1.7086 -2.1901
   81MOL0     H10642   3.400   8.488   2.509  0.4547 -1.7032 -0.2744
   81MOL0     H10643   3.113   8.417   2.569  0.7795 -0.4121 -2.3895
   81MOL0     H10644   3.190   8.551   2.652 -1.5471 -0.1970  1.4296
   81MOL0     H10645   3.452   8.447   2.748  0.5124 -0.6529 -1.4992
   81MOL0     H10646   3.506   8.133   2.979  0.9948 -0.3506 -1.2224
   81MOL0     H10647   3.529   8.303   2.993  1.0529 -2.1855  2.3623
   81MOL0     H10648   3.712   8.285   2.858  1.1201 -0.6471 -2.4596
   81MOL0     H10649   3.616   8.204   2.735 -2.6845 -0.4044  0.6294
   81MOL0     H10650   3.687   8.025   2.970  0.6003 -0.2532  0.5171
   81MOL0     H10651   3.671   7.991   2.804 -2.3714  1.0861 -1.3509
   81MOL0     H10652   3.895   8.127   2.771 -1.6730  0.9401 -0.0691
   81MOL0     H10653   3.904   7.970   2.859 -1.5784 -0.5037  1.0923
   81MOL0     H10654   4.076   8.199   3.175 -1.1185 -0.0141 -0.7504
   81MOL0     H10655   4.305   8.138   3.228  0.2673  0.2839  0.0207
   81MOL0     H10656   4.682   7.684   3.049  1.0415 -0.0057 -1.1805
   81MOL0     H10657   4.929   7.658   3.046  2.0097  1.0302 -0.6139
   81MOL0     H10658   5.100   7.776   2.811  1.8870 -3.1742 -1.9817
   81MOL0     H10659   5.150   7.659   2.925 -2.4484 -0.9665 -0.2037
   81MOL0     H10660   5.345   7.747   2.814 -1.5207 -2.5411  0.9852
   81MOL0     H10661   5.366   7.798   2.976  1.1088  1.8575 -1.1871
   81MOL0     H10662   5.416   7.987   2.832 -0.0727 -1.1732 -0.9667
   81MOL0     H10663   5.276   8.041   2.922  0.9399  3.0415 -3.1431
   81MOL0     H10664   5.250   7.897   2.653 -0.6414  1.2951 -1.2248
   81MOL0     H10665   5.120   7.979   2.734 -0.7367  0.3570 -0.1600
   81MOL0     H10666   5.226   8.119   2.536 -0.5874  0.1225  0.9311
   81MOL0     H10667   5.370   8.101   2.623  0.8316 -0.8680  2.2948
   81MOL0     H10668   5.313   8.235   2.804 -2.3487 -2.2657  2.4617
   81MOL0     H10669   5.139   8.215   2.783 -1.3548  0.5129 -0.6197
   81MOL0     H10670   5.314   8.364   2.592  1.1262  0.5614  2.1931
   81MOL0     H10671   5.137   8.349   2.570 -0.3638 -1.6784  0.9471
   81MOL0     H10672   5.262   8.509   2.796 -0.4766  4.4533 -0.4505
   81MOL0     H10673   5.099   8.450   2.786 -0.6759  1.9792  1.4715
   81MOL0     H10674   4.990   8.065   3.030  0.1111 -0.1811 -0.3043
   81MOL0     H10675   4.763   8.109   2.999 -1.2321  0.5633  0.7184
   81MOL0     H10676   4.367   7.986   2.839  1.9093  0.9960  1.8385
   81MOL0     H10677   4.113   8.026   2.791 -1.2180 -0.7063  0.7616
   81MOL0     H10678   3.391   9.286   2.973  2.8015  2.0627 -3.0904
   81MOL0     H10679   3.238   9.401   3.092 -0.0851 -1.1813 -0.3683
   81MOL0     H10680   2.984   9.788   3.070 -0.6096  0.7229 -1.7048
   81MOL0     H10681   2.849   9.961   3.201 -0.6688 -0.2431  0.3518
   81MOL0     H10682   2.678  10.102   3.281 -1.0271 -0.0779 -0.7003
   81MOL0     H10683   2.729  10.006   3.422  0.5448  0.3097  1.0034
   81MOL0     H10684   2.452  10.131   3.368 -1.0392 -3.2416 -0.4571
   81MOL0     H10685   2.476   9.999   3.489  0.5198  0.9385  3.9713
   81MOL0     H10686   2.666  10.230   3.515  0.9114 -2.9475 -2.4187
   81MOL0     H10687   2.571  10.137   3.637 -1.5797  0.8728  0.4349
   81MOL0     H10688   2.409  10.333   3.475  1.4161  3.1259  0.6310
   81MOL0     H10689   2.376  10.251   3.623  0.9581 -3.1489 -1.4913
   81MOL0     H10690   2.565  10.630   3.695  0.1099 -0.4557  0.0308
   81MOL0     H10691   2.542   9.687   3.242 -0.0012  4.8039  2.7877
   81MOL0     H10692   2.662   9.514   3.106 -1.5705  1.1182 -1.8561
   82MOL0     O10693   7.671   6.906   6.384  0.1224 -0.4090  0.3029
   82MOL0     C10694   7.697   7.003   6.306  0.3972  0.2545  0.1577
   82MOL0     O10695   7.617   7.040   6.205 -0.3042 -0.1611 -0.3640
   82MOL0     C10696   7.496   6.981   6.188  0.0330  0.0353 -0.3320
   82MOL0     C10697   7.483   6.887   6.089  0.5193  0.1812 -0.4045
   82MOL0     C10698   7.352   6.841   6.040  0.6456 -0.3634  0.4005
   82MOL0     C10699   7.242   6.900   6.104  0.8125 -0.1892 -0.3694
   82MOL0     O10700   7.116   6.866   6.062 -0.1383  0.2461 -0.6876
   82MOL0     C10701   7.022   6.970   6.062 -0.1260  0.1240  0.0357
   82MOL0     C10702   6.898   6.922   5.991  0.8675 -0.5067  0.2417
   82MOL0     C10703   6.792   7.033   5.980 -0.4755 -0.2179 -1.0246
   82MOL0     C10704   6.666   6.966   5.938 -0.1867 -0.2470 -0.6837
   82MOL0     C10705   6.556   7.060   5.901  0.8046  0.1704  0.4911
   82MOL0     C10706   6.426   6.986   5.889  0.9072 -0.4314  0.1339
   82MOL0     C10707   6.312   7.074   5.842  0.3475 -0.8640  0.1126
   82MOL0     C10708   6.182   7.021   5.906  0.1824 -0.9379 -0.2632
   82MOL0     N10709   6.077   7.127   5.909 -0.4873 -0.0469 -0.3752
   82MOL0     C10710   5.997   7.140   6.015 -0.0480 -0.4642  0.2037
   82MOL0     C10711   5.909   7.235   5.985  0.1908  0.4286 -0.6929
   82MOL0     C10712   5.807   7.298   6.080  0.0898  0.2460  0.6638
   82MOL0     C10713   5.705   7.196   6.130 -0.0428  0.2388 -0.3427
   82MOL0     C10714   5.595   7.262   6.223 -0.9867 -0.4699  0.4052
   82MOL0     C10715   5.453   7.256   6.153  0.1699  0.2430  0.6611
   82MOL0     O10716   5.459   7.359   6.049 -0.2256 -0.1938  0.0041
   82MOL0     C10717   5.355   7.365   5.968  0.0692 -0.0570  0.4091
   82MOL0     C10718   5.228   7.304   5.979 -0.5495  0.1717  0.0290
   82MOL0     C10719   5.121   7.335   5.897  0.0281 -0.3819  0.3354
   82MOL0     C10720   5.141   7.425   5.789  0.5966  0.5704  0.3865
   82MOL0     C10721   5.038   7.445   5.681  0.5059 -0.0128  0.5171
   82MOL0     O10722   4.909   7.393   5.700 -0.5447 -0.3178  0.3202
   82MOL0     C10723   4.807   7.424   5.606  0.3284 -0.2647  0.6673
   82MOL0     C10724   4.810   7.362   5.480  0.2819  0.2798 -0.5955
   82MOL0     C10725   4.699   7.374   5.386 -0.9475 -0.3291  0.0116
   82MOL0     C10726   4.593   7.454   5.420 -0.4346 -0.7372 -0.7730
   82MOL0     O10727   4.490   7.464   5.337  0.1539  0.0802  0.1766
   82MOL0     C10728   4.445   7.600   5.305 -0.5905  0.0851 -0.2584
   82MOL0     C10729   4.331   7.605   5.208 -0.2326  0.9663 -0.6932
   82MOL0     C10730   4.219   7.500   5.228 -0.0246  0.1563 -0.1111
   82MOL0     C10731   4.245   7.355   5.178  0.7670 -0.7874  0.0783
   82MOL0     C10732   4.123   7.278   5.180 -0.0996 -0.6528 -0.4227
   82MOL0     C10733   4.052   7.253   5.316 -0.4242  0.1001 -0.1702
   82MOL0     C10734   3.918   7.185   5.304  0.3058 -0.2219 -0.6893
   82MOL0     C10735   3.872   7.134   5.440 -0.6234 -0.1316  0.2295
   82MOL0    Cl10736   3.846   7.272   5.546 -0.8719 -0.0613  0.2738
   82MOL0     C10737   4.595   7.510   5.543  0.3546 -1.3462  0.1798
   82MOL0     C10738   4.694   7.499   5.641  1.1361 -0.3938  0.1579
   82MOL0     O10739   5.067   7.510   5.574  0.1743 -0.8258  0.1977
   82MOL0     C10740   5.269   7.479   5.773 -0.5192  0.0156  0.1277
   82MOL0     C10741   5.381   7.451   5.858  0.2472  1.0180  0.0775
   82MOL0     N10742   5.944   7.277   5.857  0.3655  0.2884  0.2444
   82MOL0     N10743   6.041   7.213   5.808  0.7406 -0.6614  0.1071
   82MOL0     C10744   7.262   6.971   6.228 -0.3474 -0.3740  0.7009
   82MOL0     C10745   7.388   7.013   6.270  0.4677  0.5089 -0.5032
   82MOL0     C10746   7.833   7.079   6.313 -0.3118 -0.0008 -0.0441
   82MOL0     C10747   7.877   7.176   6.219  1.0566 -0.2748 -0.4953
   82MOL0     C10748   7.991   7.251   6.247  0.3395 -0.4331  0.0319
   82MOL0     C10749   8.073   7.226   6.358 -0.9840  0.2498 -0.2675
   82MOL0     O10750   8.195   7.282   6.389  0.0101  0.3104  0.0739
   82MOL0     C10751   8.269   7.355   6.293 -0.5616  0.1150  0.2170
   82MOL0     C10752   8.255   7.504   6.317  1.0773  0.0142  0.3100
   82MOL0     C10753   8.121   7.572   6.291  0.4835  0.4229  0.3167
   82MOL0     C10754   8.084   7.691   6.365  0.2553  0.0018 -0.9377
   82MOL0     C10755   7.951   7.738   6.326 -0.0736  0.2586 -0.2663
   82MOL0     C10756   7.838   7.773   6.316  0.5708 -0.0626 -0.7685
   82MOL0     C10757   8.025   7.132   6.447  0.6309  0.1529  0.5634
   82MOL0     C10758   7.908   7.066   6.428  0.7212  0.6379  0.2301
   82MOL0     H10759   7.577   6.850   6.049  1.1293 -0.4454  1.5160
   82MOL0     H10760   7.349   6.772   5.956  4.5987 -0.1993 -0.0763
   82MOL0     H10761   7.066   7.056   6.011 -2.8138  1.6534  0.0707
   82MOL0     H10762   6.995   6.992   6.166 -0.6841  0.2333 -0.1237
   82MOL0     H10763   6.852   6.835   6.038 -0.4675  1.5944  3.1290
   82MOL0     H10764   6.910   6.893   5.886 -2.5213 -2.5545  0.2908
   82MOL0     H10765   6.830   7.100   5.902  1.0158  1.8545  1.2875
   82MOL0     H10766   6.782   7.101   6.065 -3.2034 -0.0652 -1.3883
   82MOL0     H10767   6.691   6.905   5.851 -0.5707 -0.5613 -0.5798
   82MOL0     H10768   6.625   6.903   6.019 -2.1096  0.3339 -1.1536
   82MOL0     H10769   6.580   7.093   5.800  1.0108 -3.0878 -0.6282
   82MOL0     H10770   6.544   7.144   5.971 -3.7154  1.6542 -1.6849
   82MOL0     H10771   6.395   6.937   5.982 -1.7625  1.7440  0.5316
   82MOL0     H10772   6.433   6.906   5.814  0.7035 -1.4073  1.1208
   82MOL0     H10773   6.323   7.181   5.864 -2.8141 -0.0787 -1.4758
   82MOL0     H10774   6.307   7.052   5.735 -0.1408 -4.3257  0.7251
   82MOL0     H10775   6.192   7.009   6.014 -1.5892 -0.1113  0.0333
   82MOL0     H10776   6.146   6.929   5.858 -3.1521 -0.8487  1.7339
   82MOL0     H10777   5.997   7.072   6.100 -3.0140 -0.1357  0.5511
   82MOL0     H10778   5.747   7.368   6.022  0.8009 -1.1300 -1.8868
   82MOL0     H10779   5.858   7.334   6.170 -0.9603 -0.8685  1.7560
   82MOL0     H10780   5.755   7.123   6.193  0.5805  1.1277  0.2093
   82MOL0     H10781   5.657   7.151   6.043  2.2512 -0.0589 -1.5226
   82MOL0     H10782   5.576   7.211   6.318 -2.6400  2.0538  1.5360
   82MOL0     H10783   5.640   7.353   6.262 -0.4167 -1.4688  2.1844
   82MOL0     H10784   5.370   7.287   6.216 -1.4155  2.4961 -2.2848
   82MOL0     H10785   5.430   7.159   6.107 -2.4485  1.7642 -1.4769
   82MOL0     H10786   5.209   7.232   6.058  1.5574 -2.5755 -1.7748
   82MOL0     H10787   5.019   7.296   5.897 -0.4144  0.3665 -3.7417
   82MOL0     H10788   4.882   7.281   5.466  0.8269  0.7671 -0.6741
   82MOL0     H10789   4.691   7.314   5.296  2.2399  0.6967 -1.0942
   82MOL0     H10790   4.535   7.652   5.268  1.7843 -3.5883 -0.1661
   82MOL0     H10791   4.417   7.654   5.396 -1.8773  0.3701 -0.7949
   82MOL0     H10792   4.379   7.591   5.110  1.3809 -2.1171  0.3885
   82MOL0     H10793   4.285   7.704   5.206 -3.1127 -0.2550  0.4159
   82MOL0     H10794   4.125   7.524   5.178 -1.3723 -0.2153  2.0898
   82MOL0     H10795   4.196   7.498   5.335 -1.3410  1.3385 -0.3417
   82MOL0     H10796   4.289   7.349   5.078 -1.3104  1.4574 -1.0718
   82MOL0     H10797   4.325   7.308   5.237  0.8616 -1.8955 -0.9097
   82MOL0     H10798   4.128   7.183   5.124 -0.7167 -0.3387 -1.0289
   82MOL0     H10799   4.049   7.335   5.123  0.5064  0.2650 -0.2932
   82MOL0     H10800   4.034   7.348   5.367  1.7393  0.8269 -0.6161
   82MOL0     H10801   4.123   7.202   5.382 -1.3866 -0.9785  0.0592
   82MOL0     H10802   3.846   7.257   5.264  1.2193  0.9004 -0.3711
   82MOL0     H10803   3.931   7.107   5.229 -1.3115  0.2863 -1.5344
   82MOL0     H10804   3.951   7.075   5.486 -3.0743 -1.0664  3.5907
   82MOL0     H10805   3.779   7.076   5.431  0.2233 -1.5835  0.5483
   82MOL0     H10806   4.508   7.564   5.579 -1.2911 -2.8957 -1.2711
   82MOL0     H10807   4.678   7.538   5.740  3.1976 -0.0231  0.3845
   82MOL0     H10808   5.288   7.546   5.689 -3.8695  0.7223 -0.2134
   82MOL0     H10809   5.473   7.503   5.831  0.6102 -0.9103 -2.8514
   82MOL0     H10810   7.180   7.017   6.282  0.8693  2.9805 -0.0963
   82MOL0     H10811   7.389   7.090   6.346  0.3807 -0.7364  0.8068
   82MOL0     H10812   7.823   7.191   6.126  0.5381  0.7865 -0.0324
   82MOL0     H10813   8.020   7.334   6.184  2.0228 -0.8769  0.1722
   82MOL0     H10814   8.256   7.342   6.185  2.0136  2.1204 -0.4435
   82MOL0     H10815   8.371   7.322   6.314 -1.7224 -2.5989  2.2362
   82MOL0     H10816   8.272   7.533   6.421 -1.7298  1.2591  0.5337
   82MOL0     H10817   8.329   7.537   6.244  1.2110  0.5298  0.6715
   82MOL0     H10818   8.053   7.491   6.320  1.0891 -0.7292 -1.3131
   82MOL0     H10819   8.116   7.596   6.185 -3.2033  2.4962  0.7844
   82MOL0     H10820   8.083   7.660   6.470  2.3097  0.6309 -0.6985
   82MOL0     H10821   8.170   7.757   6.351  3.1532 -3.4452 -1.0734
   82MOL0     H10822   7.737   7.809   6.324  1.3390  2.3876 -1.3475
   82MOL0     H10823   8.089   7.118   6.534 -2.9788 -0.9428  3.2834
   82MOL0     H10824   7.871   6.998   6.505 -1.3141  1.3920 -0.0053
   83MOL0     O10825  10.656  10.192   2.712 -0.3254 -1.1627 -0.0489
   83MOL0     C10826  10.752  10.123   2.697 -0.3369  0.3375  0.2435
   83MOL0     O10827  10.772  10.002   2.762  0.5791 -0.1665 -0.7871
   83MOL0     C10828  10.686   9.953   2.861 -0.4561 -0.4734 -0.0058
   83MOL0     C10829  10.752   9.887   2.966  0.9764  0.3829  0.7742
   83MOL0     C10830  10.677   9.838   3.075  0.0974 -0.4225  0.2986
   83MOL0     C10831  10.536   9.870   3.085  0.1843 -0.8362 -0.1284
   83MOL0     O10832  10.463   9.830   3.189  0.0508  0.7456 -0.1266
   83MOL0     C10833  10.506   9.860   3.322 -0.0078  0.8195  0.2124
   83MOL0     C10834  10.472  10.005   3.342  0.3864  1.4787 -0.7193
   83MOL0     C10835  10.523  10.045   3.480  0.2844  1.4402  0.1778
   83MOL0     C10836  10.480  10.195   3.505  0.1844 -0.8265 -1.2949
   83MOL0     C10837  10.328  10.190   3.543 -0.5513 -0.7024 -0.4152
   83MOL0     C10838  10.280  10.336   3.572  0.0347  0.2544 -0.4359
   83MOL0     C10839  10.126  10.361   3.574 -0.1692  0.4647  0.2327
   83MOL0     C10840  10.105  10.495   3.634 -0.2237  0.0617  0.3255
   83MOL0     N10841   9.964  10.518   3.615  0.3742 -1.2106  0.0057
   83MOL0     C10842   9.898  10.552   3.495 -0.3211  0.2264  1.0054
   83MOL0     C10843   9.764  10.539   3.519  0.4152 -0.7346  0.1902
   83MOL0     C10844   9.660  10.575   3.419 -0.8497  0.8169  0.2502
   83MOL0     C10845   9.536  10.476   3.416  0.0576 -0.5952  0.2893
   83MOL0     C10846   9.447  10.515   3.539 -0.8528 -0.5020 -0.1806
   83MOL0     C10847   9.325  10.430   3.551 -0.5298  0.6973  0.3940
   83MOL0     O10848   9.233  10.474   3.449  0.0594 -1.1282 -0.1392
   83MOL0     C10849   9.111  10.411   3.429  0.1815 -0.1880 -0.4529
   83MOL0     C10850   9.065  10.316   3.523 -0.1603  0.6306  0.3313
   83MOL0     C10851   8.937  10.293   3.542  0.0743  0.1325 -0.1372
   83MOL0     C10852   8.841  10.337   3.448 -0.6526 -0.1904  0.6207
   83MOL0     C10853   8.692  10.309   3.461 -0.3004 -0.0764  0.2460
   83MOL0     O10854   8.618  10.338   3.353 -0.2835 -0.3630  0.1943
   83MOL0     C10855   8.482  10.364   3.363 -0.5134 -0.3952 -0.0356
   83MOL0     C10856   8.387  10.314   3.455  0.1863  0.2305 -0.4279
   83MOL0     C10857   8.246  10.342   3.450 -1.2124 -0.3049  0.5538
   83MOL0     C10858   8.199  10.411   3.331 -0.1256  0.4008  0.4880
   83MOL0     O10859   8.071  10.454   3.317  0.9452  0.4585  0.6262
   83MOL0     C10860   7.979  10.438   3.428  0.4731 -0.6879 -0.3903
   83MOL0     C10861   7.843  10.506   3.409  0.2039  0.1491 -0.0293
   83MOL0     C10862   7.777  10.464   3.265 -0.6623 -0.0212 -0.3343
   83MOL0     C10863   7.767  10.311   3.243  0.1208 -0.4138  0.0270
   83MOL0     C10864   7.714  10.258   3.110  0.5237 -0.4682 -0.1875
   83MOL0     C10865   7.557  10.277   3.086 -0.1135  0.2154  0.1308
   83MOL0     C10866   7.525  10.248   2.943  0.6494  0.4344 -0.0464
   83MOL0     C10867   7.375  10.228   2.918 -0.5846 -0.1875 -0.2419
   83MOL0    Cl10868   7.301  10.107   3.029  0.5030 -0.1478  0.2033
   83MOL0     C10869   8.289  10.467   3.240 -0.0504  0.2848 -0.0688
   83MOL0     C10870   8.427  10.450   3.260  0.2009 -0.3998  0.4596
   83MOL0     O10871   8.645  10.277   3.570  0.3984 -0.0763 -0.0346
   83MOL0     C10872   8.879  10.428   3.351 -0.5147 -0.0035 -0.3484
   83MOL0     C10873   9.016  10.466   3.337  0.5475  0.8335  0.2203
   83MOL0     N10874   9.750  10.494   3.649 -0.0170 -0.1588 -0.9106
   83MOL0     N10875   9.872  10.473   3.703  0.2822 -0.2299 -0.1010
   83MOL0     C10876  10.477   9.936   2.979 -0.5114 -0.2085 -0.5903
   83MOL0     C10877  10.549   9.977   2.872 -0.2569  0.1830 -0.0924
   83MOL0     C10878  10.842  10.165   2.596  1.2023 -0.5862  0.3827
   83MOL0     C10879  10.855  10.298   2.548  0.4870 -0.5770 -0.2443
   83MOL0     C10880  10.963  10.333   2.460 -0.3085  0.7083  0.8263
   83MOL0     C10881  11.058  10.232   2.418  0.3532  0.6636 -0.5375
   83MOL0     O10882  11.155  10.281   2.334 -0.2660 -0.0696 -0.1087
   83MOL0     C10883  11.270  10.200   2.301 -0.3046  0.3778 -1.0542
   83MOL0     C10884  11.386  10.192   2.405  0.7018 -0.3101 -0.6089
   83MOL0     C10885  11.408  10.342   2.453 -0.6037 -0.4701 -0.4645
   83MOL0     C10886  11.525  10.365   2.549 -1.0792 -0.1903 -0.0739
   83MOL0     C10887  11.652  10.306   2.486 -0.3009  0.4382 -1.0737
   83MOL0     C10888  11.762  10.255   2.453 -0.9432 -0.6366 -0.8346
   83MOL0     C10889  11.053  10.104   2.467  0.1513 -0.1246 -0.2308
   83MOL0     C10890  10.943  10.074   2.558 -0.7770 -0.2481 -0.2594
   83MOL0     H10891  10.857   9.868   2.947  0.8347 -1.8766  1.8928
   83MOL0     H10892  10.725   9.784   3.156 -1.4927 -0.6219  1.1332
   83MOL0     H10893  10.615   9.854   3.332  0.1346  1.1158 -1.0492
   83MOL0     H10894  10.467   9.793   3.399  2.6189 -1.5960 -0.3530
   83MOL0     H10895  10.363  10.010   3.335  0.2918 -0.1897 -0.7643
   83MOL0     H10896  10.506  10.076   3.265 -2.0027  3.1441 -0.3280
   83MOL0     H10897  10.630  10.033   3.496  0.0676 -0.8546  0.2778
   83MOL0     H10898  10.482   9.981   3.558 -1.9074  1.0853 -1.1698
   83MOL0     H10899  10.539  10.245   3.582 -0.0012 -1.0457 -1.0103
   83MOL0     H10900  10.499  10.247   3.411  0.2716 -2.3741 -2.1742
   83MOL0     H10901  10.318  10.129   3.634 -0.0191 -1.9930 -1.2023
   83MOL0     H10902  10.268  10.150   3.461 -2.5800  1.8172 -0.2917
   83MOL0     H10903  10.326  10.388   3.488  0.7594 -0.4702 -0.4989
   83MOL0     H10904  10.331  10.374   3.661 -1.2391  1.3635 -0.1479
   83MOL0     H10905  10.087  10.346   3.473 -3.1107 -0.9732  1.4652
   83MOL0     H10906  10.074  10.298   3.647 -2.0238  0.4060 -1.0613
   83MOL0     H10907  10.169  10.570   3.588  1.3884 -0.4900  1.5913
   83MOL0     H10908  10.128  10.491   3.741  2.1556 -0.0950 -0.1497
   83MOL0     H10909   9.929  10.565   3.392 -1.6485  1.2282  0.6988
   83MOL0     H10910   9.703  10.570   3.319 -1.3083 -2.6312  0.1301
   83MOL0     H10911   9.639  10.681   3.438 -0.4582  1.4343 -2.3959
   83MOL0     H10912   9.567  10.371   3.421  1.5480 -0.0940  2.8885
   83MOL0     H10913   9.480  10.497   3.324 -1.0718  1.0874  1.3173
   83MOL0     H10914   9.500  10.514   3.635  0.0543 -1.0622 -0.6788
   83MOL0     H10915   9.428  10.622   3.532  0.8984 -0.2052 -0.8680
   83MOL0     H10916   9.285  10.444   3.652 -1.2402  3.8500 -0.2140
   83MOL0     H10917   9.352  10.325   3.538 -0.4216  0.8834 -1.0421
   83MOL0     H10918   9.142  10.271   3.584 -1.1420 -1.1298  0.3535
   83MOL0     H10919   8.921  10.241   3.636  1.2182 -1.1063 -0.6011
   83MOL0     H10920   8.416  10.244   3.532  2.0444 -1.3745 -2.4817
   83MOL0     H10921   8.170  10.315   3.523 -2.3741  1.0798 -0.0931
   83MOL0     H10922   8.020  10.480   3.520 -3.1183 -2.1918  2.1474
   83MOL0     H10923   7.968  10.331   3.448  1.2935 -0.8011 -0.4989
   83MOL0     H10924   7.852  10.614   3.420  0.7207  0.3933 -2.2358
   83MOL0     H10925   7.781  10.471   3.492  2.4117 -0.9135  1.2777
   83MOL0     H10926   7.823  10.516   3.180  1.8464 -1.3826  0.0783
   83MOL0     H10927   7.674  10.500   3.269 -0.7561 -0.2961 -0.2805
   83MOL0     H10928   7.866  10.264   3.247  0.1287 -1.0576 -3.7709
   83MOL0     H10929   7.706  10.270   3.325 -0.3157  2.2524  1.1272
   83MOL0     H10930   7.739  10.152   3.104  1.5879 -0.1398 -2.4022
   83MOL0     H10931   7.764  10.302   3.024  0.0225 -1.8124 -1.2007
   83MOL0     H10932   7.534  10.378   3.122  2.9667  0.3664  1.9907
   83MOL0     H10933   7.512  10.207   3.157  0.3927 -1.3903 -1.0768
   83MOL0     H10934   7.547  10.346   2.901 -2.5104  1.4865  0.5113
   83MOL0     H10935   7.579  10.161   2.904 -1.2674 -2.4399  3.1054
   83MOL0     H10936   7.355  10.189   2.818  0.0105 -0.7532 -0.1509
   83MOL0     H10937   7.314  10.317   2.929  0.5650  0.5273  0.5589
   83MOL0     H10938   8.247  10.526   3.159 -0.1123  0.1333 -0.1464
   83MOL0     H10939   8.494  10.511   3.201 -2.6235  2.5430 -0.0201
   83MOL0     H10940   8.808  10.465   3.278  0.8235  1.2855 -1.0463
   83MOL0     H10941   9.053  10.540   3.267  3.4718  0.4376  1.2168
   83MOL0     H10942  10.375   9.972   2.990 -0.2926  0.2858 -0.1389
   83MOL0     H10943  10.503  10.023   2.785 -0.0017 -0.2602 -0.4653
   83MOL0     H10944  10.775  10.370   2.562  0.3476 -0.4200 -1.6950
   83MOL0     H10945  10.969  10.432   2.415  0.2592  1.0514  1.6218
   83MOL0     H10946  11.307  10.250   2.210  0.9783  1.7360  0.1608
   83MOL0     H10947  11.239  10.102   2.264 -0.2066 -0.6558  1.4132
   83MOL0     H10948  11.348  10.124   2.482 -1.0986 -0.3424 -1.4692
   83MOL0     H10949  11.477  10.157   2.356  1.9050  0.4691  0.9840
   83MOL0     H10950  11.322  10.393   2.498 -0.5961  2.0159 -2.9610
   83MOL0     H10951  11.417  10.409   2.367  2.9133  2.5208  1.8790
   83MOL0     H10952  11.529  10.473   2.563 -5.0573  0.1044 -0.0960
   83MOL0     H10953  11.501  10.305   2.638  0.4510 -3.8879 -1.9589
   83MOL0     H10954  11.854  10.209   2.420 -1.0823 -0.8377 -0.9441
   83MOL0     H10955  11.133  10.033   2.452  1.0789  1.0524 -1.0468
   83MOL0     H10956  10.937   9.971   2.592 -1.9815 -0.5295 -1.2616
   84MOL0     O10957   3.930   3.452   3.500  0.6781  0.2284 -0.6555
   84MOL0     C10958   3.961   3.435   3.382  0.4591 -0.5543  0.7853
   84MOL0     O10959   3.877   3.384   3.283 -0.3711 -0.0197  0.3454
   84MOL0     C10960   3.752   3.347   3.318  0.4244 -0.1220  0.5019
   84MOL0     C10961   3.649   3.432   3.283 -0.5352  0.0761  0.0518
   84MOL0     C10962   3.514   3.415   3.320  0.4720 -0.1898  0.0362
   84MOL0     C10963   3.481   3.302   3.403  0.6339 -0.2718  0.4725
   84MOL0     O10964   3.356   3.286   3.449  0.1908 -0.5778  0.3303
   84MOL0     C10965   3.283   3.179   3.383  0.6892 -0.0524 -0.3829
   84MOL0     C10966   3.230   3.203   3.242 -0.3528  0.4665  0.2743
   84MOL0     C10967   3.116   3.104   3.210  0.1099 -0.0467  0.6132
   84MOL0     C10968   3.181   2.974   3.177 -0.3626  0.3947  0.0342
   84MOL0     C10969   3.085   2.876   3.104  0.1047  0.7555 -1.0728
   84MOL0     C10970   2.977   2.812   3.195  0.5638  0.6521 -0.1200
   84MOL0     C10971   2.903   2.705   3.119 -0.3170 -0.3314  0.0113
   84MOL0     C10972   2.784   2.656   3.199 -0.7740  0.9790 -0.4499
   84MOL0     N10973   2.702   2.568   3.119  0.3974 -0.0378  0.4303
   84MOL0     C10974   2.616   2.608   3.027  0.1611 -0.0057  0.0586
   84MOL0     C10975   2.557   2.499   2.972  0.0174  0.1077 -0.3404
   84MOL0     C10976   2.442   2.487   2.869  0.1034 -0.6922  0.1478
   84MOL0     C10977   2.307   2.473   2.940 -0.7156  0.0570  0.0383
   84MOL0     C10978   2.196   2.503   2.840  0.4772 -0.4268  0.1718
   84MOL0     C10979   2.057   2.513   2.896  0.1352 -0.3945  0.8245
   84MOL0     O10980   1.970   2.516   2.786 -0.5466 -0.1065 -0.3971
   84MOL0     C10981   1.838   2.527   2.824  0.4106 -0.5335 -0.5559
   84MOL0     C10982   1.741   2.541   2.729  0.0734  0.2366 -0.1916
   84MOL0     C10983   1.600   2.544   2.766 -1.2806 -0.7004  0.6582
   84MOL0     C10984   1.547   2.523   2.893  0.1031  0.6273 -0.1901
   84MOL0     C10985   1.395   2.528   2.932  1.1506 -0.0117 -0.0055
   84MOL0     O10986   1.359   2.502   3.069  0.4788 -0.0871  0.0517
   84MOL0     C10987   1.224   2.473   3.079 -0.2487  0.2427 -0.3908
   84MOL0     C10988   1.165   2.353   3.029 -0.3172 -0.0679  0.1226
   84MOL0     C10989   1.026   2.328   3.045  0.0336  0.0448  0.4997
   84MOL0     C10990   0.943   2.419   3.105  0.2599 -0.4801 -0.4956
   84MOL0     O10991   0.815   2.394   3.151 -0.3914 -0.2846 -0.1915
   84MOL0     C10992   0.772   2.256   3.158 -0.8522  0.3940  1.1053
   84MOL0     C10993   0.632   2.231   3.194  0.2935  0.3128 -0.1354
   84MOL0     C10994   0.611   2.275   3.341  0.4751  0.8269 -0.4455
   84MOL0     C10995   0.462   2.264   3.388 -0.0935 -1.0980 -0.3820
   84MOL0     C10996   0.446   2.320   3.528  0.3832  0.7168 -0.0567
   84MOL0     C10997   0.439   2.472   3.515 -0.1181 -0.2190  0.0100
   84MOL0     C10998   0.429   2.534   3.653  0.5041 -0.3715 -0.3839
   84MOL0     C10999   0.434   2.689   3.648 -0.8026  0.8965  0.2968
   84MOL0    Cl11000   0.388   2.762   3.802  0.2537 -0.5346 -0.0014
   84MOL0     C11001   1.002   2.530   3.161 -0.8336  0.2231  0.0900
   84MOL0     C11002   1.138   2.559   3.152  0.2345 -0.1117 -0.5013
   84MOL0     O11003   1.311   2.552   2.845 -0.4580 -0.7958  0.2060
   84MOL0     C11004   1.649   2.505   2.989  0.3487 -0.8113 -0.1910
   84MOL0     C11005   1.791   2.517   2.957 -0.1582  0.7644 -0.4065
   84MOL0     N11006   2.616   2.393   3.044  1.3202 -0.0937 -0.8293
   84MOL0     N11007   2.704   2.427   3.134 -0.4566 -0.9150 -0.0854
   84MOL0     C11008   3.584   3.211   3.432 -0.4285  0.0145  0.2876
   84MOL0     C11009   3.716   3.237   3.394  0.7062  0.3922 -0.4772
   84MOL0     C11010   4.104   3.464   3.340  0.9489 -0.2180 -0.4992
   84MOL0     C11011   4.186   3.541   3.425  0.0906 -0.0508 -0.0431
   84MOL0     C11012   4.314   3.569   3.388  0.0432  0.1645 -1.5892
   84MOL0     C11013   4.370   3.512   3.276  0.7928  0.3743  0.0030
   84MOL0     O11014   4.490   3.558   3.240  0.1521 -0.2480 -1.0760
   84MOL0     C11015   4.520   3.589   3.100  0.6721  0.1394  0.0208
   84MOL0     C11016   4.635   3.688   3.082 -0.0646  0.5283  0.0847
   84MOL0     C11017   4.674   3.731   2.945 -0.0888 -0.6988  0.3715
   84MOL0     C11018   4.566   3.798   2.860  0.2455  0.3273 -0.4972
   84MOL0     C11019   4.531   3.933   2.906  0.2069  0.2228  0.6163
   84MOL0     C11020   4.496   4.041   2.944 -0.2936 -0.2281  0.3506
   84MOL0     C11021   4.284   3.440   3.182  0.0258  0.7433  0.1101
   84MOL0     C11022   4.150   3.415   3.224  0.4398  0.5518  0.8301
   84MOL0     H11023   3.678   3.517   3.222 -1.6272 -0.4367 -1.2298
   84MOL0     H11024   3.446   3.492   3.288 -1.1224 -1.6969 -0.3808
   84MOL0     H11025   3.197   3.161   3.448  2.1809 -3.2716  0.9136
   84MOL0     H11026   3.340   3.086   3.379  3.1807  1.4034 -1.3168
   84MOL0     H11027   3.310   3.201   3.167 -0.5802  0.8980  0.0113
   84MOL0     H11028   3.178   3.299   3.232 -2.0178 -0.4351 -0.0633
   84MOL0     H11029   3.061   3.131   3.119 -1.3233 -0.6891  1.2554
   84MOL0     H11030   3.044   3.091   3.291 -0.5612  1.6630  0.3277
   84MOL0     H11031   3.266   2.981   3.109  0.3802  0.9539  1.0029
   84MOL0     H11032   3.214   2.919   3.266 -0.2732  1.1950  0.5037
   84MOL0     H11033   3.144   2.796   3.058 -3.0445 -0.2047 -3.8286
   84MOL0     H11034   3.030   2.924   3.023 -2.6171  0.6078  0.5481
   84MOL0     H11035   2.898   2.885   3.215  1.1301  0.6373  2.5528
   84MOL0     H11036   3.014   2.768   3.288  2.4002  1.8692 -0.2084
   84MOL0     H11037   2.882   2.749   3.021  4.1585 -1.7580 -1.8779
   84MOL0     H11038   2.972   2.621   3.106 -0.1608 -0.3060  0.6494
   84MOL0     H11039   2.711   2.733   3.224 -1.5706  0.8920 -2.3182
   84MOL0     H11040   2.821   2.605   3.288 -1.1752  0.5331 -0.5322
   84MOL0     H11041   2.599   2.714   3.010 -0.6764  0.0714  1.2113
   84MOL0     H11042   2.460   2.398   2.809  0.6136  0.1809 -1.0537
   84MOL0     H11043   2.458   2.580   2.812  0.0210  0.5464  2.0582
   84MOL0     H11044   2.298   2.563   3.002 -0.8808  1.8113 -2.3728
   84MOL0     H11045   2.297   2.378   2.994  1.7326 -1.3491 -1.7696
   84MOL0     H11046   2.210   2.594   2.781 -1.5454 -0.9425 -1.2250
   84MOL0     H11047   2.210   2.430   2.759  1.1711  2.4419 -2.4717
   84MOL0     H11048   2.043   2.597   2.965 -2.8444 -0.8155  0.8637
   84MOL0     H11049   2.035   2.426   2.958  1.6758 -0.4791  1.3019
   84MOL0     H11050   1.774   2.554   2.626  4.7351  0.5006  1.1317
   84MOL0     H11051   1.533   2.554   2.681  2.6486  1.7590 -2.5293
   84MOL0     H11052   1.230   2.293   2.966 -0.0003  3.3999 -3.1856
   84MOL0     H11053   0.987   2.233   3.009 -2.6137  1.9307 -2.0985
   84MOL0     H11054   0.847   2.203   3.218  1.2131 -1.8686 -3.0134
   84MOL0     H11055   0.778   2.212   3.058 -1.2652  1.8483  0.4074
   84MOL0     H11056   0.602   2.126   3.190 -1.7223  0.8112  0.6449
   84MOL0     H11057   0.555   2.272   3.129 -0.9829  1.4986  2.0217
   84MOL0     H11058   0.661   2.371   3.352  2.4990 -0.0157 -1.6531
   84MOL0     H11059   0.671   2.206   3.402  1.2552  0.9651 -1.0373
   84MOL0     H11060   0.411   2.324   3.313 -1.1431  0.1024  1.2244
   84MOL0     H11061   0.423   2.161   3.388 -1.0820 -0.7356 -0.9682
   84MOL0     H11062   0.522   2.277   3.594 -0.1298 -1.1503 -0.6166
   84MOL0     H11063   0.351   2.283   3.567 -0.6158 -0.0531 -2.9658
   84MOL0     H11064   0.351   2.506   3.460  0.6291 -3.1684 -3.3905
   84MOL0     H11065   0.534   2.512   3.478  1.7980 -4.4054 -0.2388
   84MOL0     H11066   0.333   2.501   3.694  0.4516  2.3236  1.9817
   84MOL0     H11067   0.497   2.492   3.727  2.0789  1.8111 -0.4864
   84MOL0     H11068   0.374   2.718   3.561 -1.4804  3.0289  1.4044
   84MOL0     H11069   0.541   2.706   3.634  0.0229 -1.1840  3.1898
   84MOL0     H11070   0.931   2.597   3.208 -2.2053 -1.2284  0.1662
   84MOL0     H11071   1.182   2.647   3.197  0.0832 -0.7394  0.9306
   84MOL0     H11072   1.625   2.506   3.095  1.7194  1.8036  0.1802
   84MOL0     H11073   1.861   2.526   3.039 -1.8071  0.8372  1.0597
   84MOL0     H11074   3.547   3.125   3.488 -1.2968 -1.2305 -2.0671
   84MOL0     H11075   3.795   3.166   3.419  0.0632  0.4316  1.9385
   84MOL0     H11076   4.146   3.586   3.515  3.3590 -0.1908  1.6549
   84MOL0     H11077   4.366   3.643   3.448 -1.1671 -0.1118 -0.1225
   84MOL0     H11078   4.437   3.648   3.060  2.3466  1.5728 -1.5267
   84MOL0     H11079   4.529   3.494   3.046 -0.0460  0.2907 -0.3823
   84MOL0     H11080   4.608   3.778   3.137 -0.9920  0.6529 -0.5526
   84MOL0     H11081   4.728   3.642   3.118  1.0150  2.1440 -0.5366
   84MOL0     H11082   4.701   3.642   2.888 -0.1854 -1.5122  1.5537
   84MOL0     H11083   4.758   3.800   2.939 -4.0374  4.6371 -2.1631
   84MOL0     H11084   4.607   3.811   2.760  0.0701  2.2188 -0.3569
   84MOL0     H11085   4.483   3.727   2.854  1.3765 -0.9431 -1.9771
   84MOL0     H11086   4.490   4.138   2.990  0.4293  0.2360 -0.5045
   84MOL0     H11087   4.313   3.404   3.084 -0.9931  3.4896 -1.3263
   84MOL0     H11088   4.082   3.353   3.166  1.7435  0.7899 -1.0597
   85MOL0     O11089   5.961   9.230   7.152 -0.4973 -0.1254  0.9300
   85MOL0     C11090   5.940   9.300   7.059  0.0099  0.1741 -0.5530
   85MOL0     O11091   6.028   9.330   6.965 -0.4529 -0.0583  0.5893
   85MOL0     C11092   6.162   9.278   6.971  0.2118 -0.1765 -0.7891
   85MOL0     C11093   6.258   9.355   6.902 -0.2905  0.2224  0.2013
   85MOL0     C11094   6.395   9.320   6.898 -0.1468 -0.2074 -0.3398
   85MOL0     C11095   6.446   9.214   6.982  0.4605 -0.2170 -0.6356
   85MOL0     O11096   6.577   9.177   6.993  0.0564  0.0063  0.3590
   85MOL0     C11097   6.666   9.223   6.892  0.6394  0.1686  0.6017
   85MOL0     C11098   6.776   9.115   6.872 -0.2212  0.1030 -0.1914
   85MOL0     C11099   6.888   9.154   6.777  0.0746 -0.4617 -1.5447
   85MOL0     C11100   6.836   9.161   6.632  0.3902  0.5055 -1.3076
   85MOL0     C11101   6.948   9.201   6.540  0.3932 -0.2796  0.1477
   85MOL0     C11102   6.917   9.143   6.391 -0.4724  0.3623 -0.6104
   85MOL0     C11103   6.774   9.190   6.347 -0.1495  0.0307  0.3484
   85MOL0     C11104   6.748   9.131   6.211 -0.4232  0.1545  0.2290
   85MOL0     N11105   6.630   9.198   6.151  0.2040  0.3004 -0.1579
   85MOL0     C11106   6.503   9.149   6.155  0.0890  0.7628 -0.1461
   85MOL0     C11107   6.427   9.224   6.079 -0.1086 -0.9296  0.3535
   85MOL0     C11108   6.294   9.193   6.015 -0.7404  0.4594 -0.6230
   85MOL0     C11109   6.179   9.224   6.102 -0.7685 -0.0560  0.4776
   85MOL0     C11110   6.074   9.125   6.072 -0.5083  0.2038 -0.4267
   85MOL0     C11111   5.950   9.173   6.141  0.5297 -0.0404 -0.4362
   85MOL0     O11112   5.876   9.260   6.052  0.1918  0.3096 -0.2554
   85MOL0     C11113   5.752   9.296   6.091  0.5278 -1.0521  0.9497
   85MOL0     C11114   5.693   9.305   6.215 -0.7355 -0.1903 -0.0911
   85MOL0     C11115   5.559   9.327   6.230 -1.0644 -0.5168 -1.0849
   85MOL0     C11116   5.473   9.352   6.126 -0.3259  0.5028  0.7721
   85MOL0     C11117   5.325   9.368   6.146 -0.9315  0.6338  0.3048
   85MOL0     O11118   5.278   9.289   6.250  0.3462  0.7729 -0.3170
   85MOL0     C11119   5.148   9.288   6.286  0.0340  0.2563 -0.8885
   85MOL0     C11120   5.079   9.397   6.341  1.0765 -0.2285 -0.1777
   85MOL0     C11121   4.954   9.383   6.411  0.0654 -1.0124  0.5128
   85MOL0     C11122   4.875   9.271   6.395  0.8209  0.6496 -0.0430
   85MOL0     O11123   4.757   9.255   6.464 -0.0564 -0.1742  0.6043
   85MOL0     C11124   4.662   9.164   6.403  0.7586  0.2957 -0.4218
   85MOL0     C11125   4.516   9.191   6.464  0.2392  0.0998  1.1826
   85MOL0     C11126   4.474   9.329   6.452  0.0917 -0.1303  0.5733
   85MOL0     C11127   4.324   9.342   6.443 -0.0682 -0.2324  1.1008
   85MOL0     C11128   4.249   9.266   6.556  0.3544 -0.1300 -0.3646
   85MOL0     C11129   4.107   9.311   6.553  0.6561  0.3397 -0.0734
   85MOL0     C11130   4.025   9.252   6.666  0.3147  0.0114 -0.5692
   85MOL0     C11131   3.998   9.102   6.660  0.0456  0.1560 -0.5455
   85MOL0    Cl11132   3.890   9.068   6.518  0.3665  0.4216 -0.5881
   85MOL0     C11133   4.938   9.165   6.322  0.3805  0.7614 -0.4238
   85MOL0     C11134   5.073   9.168   6.267 -0.1188  0.4802  0.3057
   85MOL0     O11135   5.266   9.441   6.076  0.0493 -0.3343  0.2250
   85MOL0     C11136   5.538   9.380   6.002  0.4932  0.4117 -0.3493
   85MOL0     C11137   5.672   9.336   5.981  0.8620 -0.0987 -0.9372
   85MOL0     N11138   6.506   9.330   6.036 -0.5352 -0.2787  0.1393
   85MOL0     N11139   6.630   9.304   6.069 -0.4350 -0.1210 -0.8626
   85MOL0     C11140   6.354   9.143   7.055  0.2933 -0.5157 -0.3532
   85MOL0     C11141   6.217   9.171   7.048 -0.7336  0.1458 -0.3519
   85MOL0     C11142   5.805   9.347   7.050 -0.1807  0.7306  0.4924
   85MOL0     C11143   5.786   9.447   6.957  0.2627 -0.6025 -0.3092
   85MOL0     C11144   5.668   9.512   6.954 -0.1895 -0.4707  1.0586
   85MOL0     C11145   5.556   9.482   7.033 -0.2221  0.3112 -0.0595
   85MOL0     O11146   5.438   9.554   7.013  0.0272  0.2954  0.4918
   85MOL0     C11147   5.307   9.503   7.053  1.3415 -0.8327 -0.9316
   85MOL0     C11148   5.288   9.534   7.198  0.3095  0.6171  0.1762
   85MOL0     C11149   5.206   9.430   7.269 -0.0453  0.5279 -0.3604
   85MOL0     C11150   5.193   9.446   7.418  0.4092 -0.5263 -0.3498
   85MOL0     C11151   5.321   9.410   7.485 -0.1594  0.8405  0.4026
   85MOL0     C11152   5.428   9.365   7.531  0.6348  0.3647 -0.5736
   85MOL0     C11153   5.568   9.376   7.122 -0.7513 -0.5753 -0.5888
   85MOL0     C11154   5.699   9.315   7.141  0.3154 -0.2620  0.4140
   85MOL0     H11155   6.236   9.446   6.847 -0.8292  0.4750  0.8306
   85MOL0     H11156   6.474   9.367   6.841  3.3124 -3.0728  1.6953
   85MOL0     H11157   6.716   9.316   6.920 -0.3136  1.1954 -0.9725
   85MOL0     H11158   6.620   9.237   6.794  3.2871  0.8665 -0.6447
   85MOL0     H11159   6.739   9.015   6.847  1.9929 -1.2225  1.5073
   85MOL0     H11160   6.818   9.100   6.971 -2.7398  1.1530  1.1499
   85MOL0     H11161   6.975   9.090   6.790 -0.0841 -0.5098 -0.6563
   85MOL0     H11162   6.924   9.255   6.800 -1.5624 -0.0399 -0.6201
   85MOL0     H11163   6.795   9.061   6.613 -0.6468  0.9764 -1.5953
   85MOL0     H11164   6.762   9.241   6.626  1.8232  1.9387 -0.6699
   85MOL0     H11165   7.042   9.157   6.572  1.7443  1.7746 -0.8230
   85MOL0     H11166   6.973   9.307   6.534 -0.6115  0.1366  2.2116
   85MOL0     H11167   6.908   9.034   6.394 -2.5588  0.5061  2.3983
   85MOL0     H11168   6.996   9.184   6.328  0.0807  0.9808  0.4601
   85MOL0     H11169   6.697   9.160   6.418 -2.0666 -2.9458 -2.6967
   85MOL0     H11170   6.777   9.298   6.330  0.5657  0.3639  2.3489
   85MOL0     H11171   6.727   9.024   6.210 -0.9148  0.1933  2.2898
   85MOL0     H11172   6.830   9.150   6.142  0.9405  1.1495  2.0366
   85MOL0     H11173   6.470   9.049   6.180 -1.4194  1.3265  0.2234
   85MOL0     H11174   6.297   9.089   5.982 -2.3186  0.9493 -2.5373
   85MOL0     H11175   6.279   9.236   5.915 -2.9374  0.0206 -0.5296
   85MOL0     H11176   6.151   9.327   6.080  1.8603  1.0679  1.9088
   85MOL0     H11177   6.212   9.231   6.206  1.9311  0.7718 -0.3554
   85MOL0     H11178   6.052   9.112   5.965  0.2477  0.4255 -0.6120
   85MOL0     H11179   6.114   9.033   6.115  0.7088 -0.1441 -2.1896
   85MOL0     H11180   5.981   9.229   6.229  1.3670  1.7391 -1.7930
   85MOL0     H11181   5.890   9.090   6.179  5.4780 -3.5399  0.8200
   85MOL0     H11182   5.748   9.283   6.306 -0.7623 -0.3354 -0.1100
   85MOL0     H11183   5.525   9.308   6.331  0.6904  0.6413 -0.2243
   85MOL0     H11184   5.130   9.492   6.356  2.0576 -0.2975 -2.5393
   85MOL0     H11185   4.910   9.464   6.468 -0.0720 -0.6589 -0.0835
   85MOL0     H11186   4.684   9.062   6.436 -2.4198 -0.4948 -0.4534
   85MOL0     H11187   4.658   9.166   6.294 -0.0865 -1.9222 -0.4879
   85MOL0     H11188   4.518   9.166   6.570 -1.6900  1.5450  1.6131
   85MOL0     H11189   4.443   9.119   6.427 -0.7027  1.2988  0.6046
   85MOL0     H11190   4.506   9.369   6.355 -1.9175 -2.1925 -1.0581
   85MOL0     H11191   4.517   9.393   6.529 -1.0639 -1.4840  2.4330
   85MOL0     H11192   4.297   9.447   6.453 -3.3103 -0.9720  1.0095
   85MOL0     H11193   4.283   9.303   6.349 -1.2057  1.7285  0.7404
   85MOL0     H11194   4.294   9.276   6.655  0.2572 -1.6082 -0.1499
   85MOL0     H11195   4.250   9.158   6.541 -1.3625 -0.5284  1.8641
   85MOL0     H11196   4.056   9.274   6.464 -0.6593 -3.1299  1.9077
   85MOL0     H11197   4.108   9.420   6.558 -3.3228  0.7812 -3.6315
   85MOL0     H11198   4.082   9.267   6.758  2.3516 -1.3947 -1.5177
   85MOL0     H11199   3.925   9.295   6.678 -0.4855 -0.2329 -4.8719
   85MOL0     H11200   3.956   9.067   6.755  2.7546 -1.1173  0.2776
   85MOL0     H11201   4.096   9.055   6.656 -0.0017  0.0322 -0.2428
   85MOL0     H11202   4.875   9.077   6.317 -1.1719  1.1988  4.9453
   85MOL0     H11203   5.116   9.086   6.211  0.9733  0.3916  1.2295
   85MOL0     H11204   5.480   9.404   5.914  0.9910 -0.3558 -0.9016
   85MOL0     H11205   5.705   9.321   5.879 -1.7040 -1.0212 -1.7074
   85MOL0     H11206   6.396   9.056   7.105 -0.8573 -2.4571 -2.5412
   85MOL0     H11207   6.154   9.099   7.098 -0.0527  1.0307  1.8929
   85MOL0     H11208   5.865   9.473   6.887  0.3368  0.8266  0.2888
   85MOL0     H11209   5.654   9.590   6.879 -0.3874 -1.1332  0.3926
   85MOL0     H11210   5.316   9.395   7.036 -1.2030 -1.1539 -0.6578
   85MOL0     H11211   5.225   9.548   6.996  1.4727  4.2309  2.2427
   85MOL0     H11212   5.381   9.535   7.255 -0.1398 -3.2129  1.2813
   85MOL0     H11213   5.247   9.633   7.219  0.7859  0.6939  0.7558
   85MOL0     H11214   5.241   9.330   7.242 -0.6322 -0.0012  0.7592
   85MOL0     H11215   5.103   9.447   7.235  0.4729  1.1019 -1.7237
   85MOL0     H11216   5.140   9.538   7.444  0.1695 -0.9240  0.6035
   85MOL0     H11217   5.139   9.354   7.442 -1.0314  0.3024 -0.2976
   85MOL0     H11218   5.520   9.340   7.578 -0.1580  1.2320  1.5510
   85MOL0     H11219   5.490   9.353   7.193 -0.1934  1.6222  0.8309
   85MOL0     H11220   5.709   9.229   7.207 -0.7691 -1.7848 -1.3134
   86MOL0     O11221   1.989   1.321   6.257  0.3691  1.4120 -0.3348
   86MOL0     C11222   2.052   1.214   6.285  0.6006  0.2110  0.0724
   86MOL0     O11223   2.011   1.111   6.357  0.2112 -0.7566  0.0086
   86MOL0     C11224   1.880   1.098   6.392  0.0276 -0.3251  0.1877
   86MOL0     C11225   1.785   1.194   6.434 -0.7376 -0.0451  0.0283
   86MOL0     C11226   1.654   1.160   6.450  0.2084  0.0697 -1.1642
   86MOL0     C11227   1.605   1.025   6.429  0.0226 -1.0481  0.5089
   86MOL0     O11228   1.472   0.996   6.441 -0.1781 -0.1148 -0.5906
   86MOL0     C11229   1.374   1.093   6.392 -0.1642  0.0823 -1.4910
   86MOL0     C11230   1.241   1.017   6.381  0.1496 -0.4529  0.4769
   86MOL0     C11231   1.163   0.996   6.515  0.5505 -0.5977  0.2871
   86MOL0     C11232   1.047   0.908   6.476  0.0172  0.0993 -0.1557
   86MOL0     C11233   0.932   0.894   6.576  0.3130 -0.3905  0.1100
   86MOL0     C11234   0.800   0.837   6.518 -0.0714 -0.1063  0.7457
   86MOL0     C11235   0.671   0.893   6.575 -0.2800 -0.0777  0.0648
   86MOL0     C11236   0.629   1.015   6.498 -0.1544 -1.4842  0.7974
   86MOL0     N11237   0.703   1.133   6.539  0.2847  0.1306  0.5022
   86MOL0     C11238   0.815   1.180   6.473  0.2416  0.0544  0.4313
   86MOL0     C11239   0.827   1.302   6.527  0.5741 -0.4155 -0.1648
   86MOL0     C11240   0.956   1.392   6.525  0.0848  0.5507  0.3564
   86MOL0     C11241   1.020   1.393   6.665 -0.6442  1.2036  0.3152
   86MOL0     C11242   1.108   1.518   6.688 -0.3609  0.0409 -1.0855
   86MOL0     C11243   1.258   1.480   6.695  0.8002 -0.2206  0.5772
   86MOL0     O11244   1.336   1.602   6.702  0.3735  0.2298  0.1419
   86MOL0     C11245   1.473   1.591   6.690  0.2456 -0.4720  0.2347
   86MOL0     C11246   1.548   1.476   6.707 -0.4399  0.5552  0.3319
   86MOL0     C11247   1.687   1.468   6.694  0.6560  0.6264 -0.1209
   86MOL0     C11248   1.760   1.580   6.654 -0.4981  0.5749  0.7064
   86MOL0     C11249   1.899   1.566   6.621 -0.3754 -0.2820  0.3717
   86MOL0     O11250   1.962   1.680   6.581 -0.2315 -0.0498  0.0449
   86MOL0     C11251   2.094   1.677   6.540  0.7051  1.2710 -0.5838
   86MOL0     C11252   2.193   1.745   6.616 -0.3050 -0.5867 -0.8332
   86MOL0     C11253   2.330   1.751   6.576 -0.2077  0.5671 -0.6381
   86MOL0     C11254   2.369   1.685   6.457  1.0977  0.2522 -0.1527
   86MOL0     O11255   2.496   1.674   6.407  0.5515 -0.3639 -0.0364
   86MOL0     C11256   2.601   1.768   6.451 -0.5596  0.0892 -0.4889
   86MOL0     C11257   2.663   1.700   6.574 -1.3162  0.0013  0.9959
   86MOL0     C11258   2.779   1.792   6.627 -0.7460 -0.1028  0.5872
   86MOL0     C11259   2.865   1.719   6.740  0.2245 -0.1886 -0.0953
   86MOL0     C11260   3.007   1.754   6.713 -0.3239  0.0137  0.8490
   86MOL0     C11261   3.109   1.727   6.821  0.7286  0.5857 -0.6830
   86MOL0     C11262   3.251   1.792   6.813  0.2240  0.1418  0.0135
   86MOL0     C11263   3.319   1.776   6.953 -0.6992  0.7096 -0.2017
   86MOL0    Cl11264   3.367   1.599   6.974  0.3944  0.3245 -0.2436
   86MOL0     C11265   2.278   1.611   6.390 -0.3583  0.3009  0.1710
   86MOL0     C11266   2.139   1.606   6.419  0.2288 -0.8213 -0.6940
   86MOL0     O11267   1.951   1.458   6.630  0.1646 -0.0958  0.1038
   86MOL0     C11268   1.684   1.703   6.645 -0.0135  0.7358 -0.2768
   86MOL0     C11269   1.542   1.707   6.657 -0.6106  0.2452 -0.3762
   86MOL0     N11270   0.728   1.322   6.616  1.0343 -0.1525  0.0430
   86MOL0     N11271   0.647   1.222   6.620 -0.1952 -0.1222  0.1080
   86MOL0     C11272   1.704   0.928   6.404 -0.1393 -0.3193 -0.8520
   86MOL0     C11273   1.838   0.959   6.390  0.0744 -0.2316  0.0367
   86MOL0     C11274   2.183   1.197   6.233  0.1167  0.0016 -1.1659
   86MOL0     C11275   2.247   1.289   6.146 -0.6607 -0.4703 -0.3620
   86MOL0     C11276   2.383   1.287   6.130 -0.5805  0.1458 -0.8076
   86MOL0     C11277   2.461   1.195   6.196  0.2690  0.1855  0.0990
   86MOL0     O11278   2.600   1.194   6.171  0.0639 -0.2481 -0.4686
   86MOL0     C11279   2.677   1.107   6.248  0.9774 -0.1858 -0.5759
   86MOL0     C11280   2.828   1.128   6.223 -0.4496 -0.0931 -1.0699
   86MOL0     C11281   2.867   1.277   6.254  0.3105 -0.0032 -0.2822
   86MOL0     C11282   3.024   1.290   6.266  0.7388  0.3884 -0.8103
   86MOL0     C11283   3.084   1.275   6.133 -0.8690 -1.0792  0.2348
   86MOL0     C11284   3.120   1.255   6.015 -0.2124 -0.3386 -0.8586
   86MOL0     C11285   2.396   1.099   6.277 -0.0348  0.1679  0.5908
   86MOL0     C11286   2.257   1.093   6.290 -0.4018 -0.6807  0.1947
   86MOL0     H11287   1.823   1.290   6.466  4.5726 -0.9980 -2.2578
   86MOL0     H11288   1.586   1.241   6.476 -1.2144 -1.6985  1.0254
   86MOL0     H11289   1.403   1.139   6.297  1.1066 -1.1637 -1.7469
   86MOL0     H11290   1.360   1.170   6.468  3.7354 -0.7595  0.3124
   86MOL0     H11291   1.244   0.920   6.330 -2.8406 -0.7689  0.7404
   86MOL0     H11292   1.182   1.079   6.314  0.8411 -0.2352  0.0680
   86MOL0     H11293   1.109   1.082   6.556 -2.1874 -2.5094  0.9910
   86MOL0     H11294   1.223   0.960   6.599 -0.1191 -0.0158  1.0378
   86MOL0     H11295   1.019   0.926   6.372  0.8586  1.4631 -0.1762
   86MOL0     H11296   1.085   0.806   6.461 -0.9736 -0.1998 -0.7241
   86MOL0     H11297   0.904   0.989   6.621  3.3357  0.5178  0.2996
   86MOL0     H11298   0.972   0.828   6.654  1.6277 -0.0691 -0.2668
   86MOL0     H11299   0.793   0.728   6.520 -1.5833 -0.0365  0.5229
   86MOL0     H11300   0.806   0.864   6.412  3.4484  2.6157  1.4364
   86MOL0     H11301   0.597   0.812   6.568 -0.1162 -0.1844 -0.5081
   86MOL0     H11302   0.685   0.913   6.682 -3.2631 -1.3953  0.8101
   86MOL0     H11303   0.522   1.036   6.508 -1.0295 -3.3531 -2.7220
   86MOL0     H11304   0.636   0.993   6.391 -5.2318 -0.3824 -0.0312
   86MOL0     H11305   0.886   1.135   6.405 -0.3793 -0.7688  0.3119
   86MOL0     H11306   0.912   1.490   6.507  0.7331  0.8279  0.2332
   86MOL0     H11307   1.032   1.369   6.449 -1.3852  1.3428 -1.4270
   86MOL0     H11308   1.079   1.301   6.673 -2.8063 -0.1196  2.1733
   86MOL0     H11309   0.948   1.386   6.746  0.7716  1.4762  1.6485
   86MOL0     H11310   1.101   1.588   6.605  1.3757  3.7862  1.6372
   86MOL0     H11311   1.080   1.565   6.783 -1.3504 -0.5610 -1.0637
   86MOL0     H11312   1.282   1.429   6.602  1.0808 -1.4716  1.3157
   86MOL0     H11313   1.272   1.407   6.775 -1.3114 -0.4042  0.8501
   86MOL0     H11314   1.485   1.398   6.749 -0.4138  1.1540  1.5120
   86MOL0     H11315   1.744   1.377   6.709 -1.2540 -0.3716  1.6737
   86MOL0     H11316   2.158   1.788   6.710  1.0475 -3.6120  1.2456
   86MOL0     H11317   2.404   1.796   6.643 -0.6468 -0.9515  0.9560
   86MOL0     H11318   2.544   1.858   6.478 -2.7765 -0.4975 -2.7566
   86MOL0     H11319   2.674   1.790   6.372 -1.5171  1.8905 -0.9421
   86MOL0     H11320   2.727   1.617   6.544  0.0360  1.5223 -0.4775
   86MOL0     H11321   2.591   1.671   6.651 -0.7259 -1.4398  1.0358
   86MOL0     H11322   2.749   1.888   6.668 -0.9564  0.8069 -1.5649
   86MOL0     H11323   2.845   1.822   6.545 -2.1959 -0.3326 -0.7053
   86MOL0     H11324   2.834   1.756   6.838 -0.4717 -2.2177  0.4834
   86MOL0     H11325   2.836   1.614   6.728 -1.9197  0.5660 -2.2843
   86MOL0     H11326   3.019   1.860   6.686 -1.2435 -0.1741 -0.3637
   86MOL0     H11327   3.031   1.703   6.620  0.3446  1.9251 -0.0803
   86MOL0     H11328   3.122   1.620   6.839  3.7416  0.9288 -0.3244
   86MOL0     H11329   3.071   1.766   6.916 -1.9961 -0.5781 -1.1792
   86MOL0     H11330   3.305   1.744   6.731  1.3711 -0.4073  1.0506
   86MOL0     H11331   3.240   1.898   6.788 -0.8121 -0.2704 -1.3453
   86MOL0     H11332   3.254   1.810   7.035 -0.3800  1.5385 -0.2861
   86MOL0     H11333   3.406   1.841   6.958  0.7479 -1.2156  2.1361
   86MOL0     H11334   2.308   1.559   6.300  0.1737  1.8411 -0.5825
   86MOL0     H11335   2.069   1.561   6.348 -1.5535  1.1544 -0.2947
   86MOL0     H11336   1.740   1.793   6.617  1.5147 -0.1271 -0.1324
   86MOL0     H11337   1.482   1.795   6.638 -0.3420  0.3033 -0.9759
   86MOL0     H11338   1.666   0.828   6.391 -3.6918  1.0434 -2.1102
   86MOL0     H11339   1.907   0.890   6.343  0.0710  1.2257 -2.2524
   86MOL0     H11340   2.188   1.370   6.103  0.1863  0.4831  0.2189
   86MOL0     H11341   2.433   1.359   6.066  0.9684  0.7503  0.9731
   86MOL0     H11342   2.653   1.010   6.204 -0.4986  0.1439 -0.5643
   86MOL0     H11343   2.654   1.112   6.355 -1.4594  2.5168 -1.0781
   86MOL0     H11344   2.889   1.056   6.278 -2.0205 -0.2116  0.6310
   86MOL0     H11345   2.848   1.113   6.117  1.4735  0.0566 -0.7631
   86MOL0     H11346   2.825   1.301   6.352  0.0425  1.4720 -0.7453
   86MOL0     H11347   2.840   1.348   6.176  0.2443 -2.0841 -2.2803
   86MOL0     H11348   3.050   1.389   6.304 -2.5812  2.5503 -3.5699
   86MOL0     H11349   3.068   1.217   6.335 -0.2894  0.7641  0.2683
   86MOL0     H11350   3.146   1.237   5.913 -0.4863 -1.1940 -0.7908
   86MOL0     H11351   2.450   1.013   6.314  0.8146  0.6801  0.5755
   86MOL0     H11352   2.219   1.010   6.349  0.6355 -1.8831 -0.7931
   87MOL0     O11353   7.695   6.879   0.224  0.7318  0.9668 -0.6212
   87MOL0     C11354   7.723   6.787   0.309  0.5167  0.4267  1.3606
   87MOL0     O11355   7.631   6.715   0.380 -0.1306 -0.8264  0.5349
   87MOL0     C11356   7.502   6.767   0.389 -0.2002 -0.2678 -0.4876
   87MOL0     C11357   7.455   6.903   0.374  0.1879  0.1373 -0.4322
   87MOL0     C11358   7.323   6.936   0.397 -0.4463  0.8260 -0.4821
   87MOL0     C11359   7.233   6.841   0.432 -0.2184  0.3234  0.1335
   87MOL0     O11360   7.100   6.883   0.463  0.0313 -0.0543 -0.4686
   87MOL0     C11361   6.998   6.858   0.373 -0.3983 -0.8195 -0.4976
   87MOL0     C11362   6.861   6.930   0.394 -0.1037 -0.0654 -0.2120
   87MOL0     C11363   6.753   6.903   0.288  0.1934  0.2734 -1.0343
   87MOL0     C11364   6.641   7.006   0.301  0.0404  0.2571  0.7444
   87MOL0     C11365   6.505   6.965   0.240  0.3345  0.2513  0.6462
   87MOL0     C11366   6.389   7.025   0.309  0.7663 -0.4660  0.7162
   87MOL0     C11367   6.269   6.975   0.231 -0.3431 -0.0322  0.2983
   87MOL0     C11368   6.137   7.004   0.304  0.2076  0.2501 -0.3187
   87MOL0     N11369   6.027   6.950   0.211  0.0234  1.0655  0.4737
   87MOL0     C11370   5.952   7.029   0.122 -0.2528  0.1320 -0.9587
   87MOL0     C11371   5.880   6.931   0.058  0.7999  0.1151 -0.6730
   87MOL0     C11372   5.778   6.966  -0.053 -0.1722  0.2560 -0.2506
   87MOL0     C11373   5.830   6.987  -0.191  0.2017  0.0553 -0.3794
   87MOL0     C11374   5.749   6.904  -0.295  0.2901 -0.4460  0.9672
   87MOL0     C11375   5.617   6.985  -0.333  0.7329 -0.3456 -0.7555
   87MOL0     O11376   5.553   6.923  -0.449 -0.8229 -0.5464  0.0997
   87MOL0     C11377   5.448   6.842  -0.429  0.2220 -0.4484  0.8634
   87MOL0     C11378   5.332   6.879  -0.494 -0.0239 -0.0596  0.4408
   87MOL0     C11379   5.223   6.799  -0.464  0.5710  0.9402 -0.6518
   87MOL0     C11380   5.227   6.679  -0.397 -0.5479 -0.0855  0.3612
   87MOL0     C11381   5.111   6.601  -0.367 -0.8684  0.0707 -0.4179
   87MOL0     O11382   5.000   6.667  -0.366  0.0156  0.4051  0.2015
   87MOL0     C11383   4.899   6.601  -0.299 -0.2685  0.9833 -0.2491
   87MOL0     C11384   4.833   6.494  -0.353 -0.5301 -0.2748  0.1845
   87MOL0     C11385   4.730   6.435  -0.272  0.6377 -0.8116  0.3277
   87MOL0     C11386   4.692   6.486  -0.149  0.5789  0.2028  0.1860
   87MOL0     O11387   4.608   6.417  -0.065  0.2728  1.1482  0.1359
   87MOL0     C11388   4.497   6.498  -0.019 -0.1659  0.1187  0.3716
   87MOL0     C11389   4.370   6.407   0.010  0.5148 -0.9724  0.0579
   87MOL0     C11390   4.302   6.337  -0.110  0.3421  0.3734 -0.0065
   87MOL0     C11391   4.203   6.222  -0.062 -0.0759 -0.0369  0.6795
   87MOL0     C11392   4.276   6.091  -0.045 -0.5482  0.3873 -0.5366
   87MOL0     C11393   4.189   5.975   0.012 -0.4635 -0.4053  0.9410
   87MOL0     C11394   4.286   5.850   0.038 -0.3954 -0.2815 -0.5633
   87MOL0     C11395   4.206   5.728   0.094 -0.2258  0.5209  0.3727
   87MOL0    Cl11396   4.081   5.771   0.235  0.2951  0.0447  0.0362
   87MOL0     C11397   4.749   6.606  -0.107  0.1682 -0.2773 -0.2245
   87MOL0     C11398   4.848   6.669  -0.181 -0.2296  0.5396  0.0923
   87MOL0     O11399   5.125   6.482  -0.334 -0.4960  0.2987  0.2238
   87MOL0     C11400   5.353   6.634  -0.352 -0.9312 -0.4868 -0.6393
   87MOL0     C11401   5.461   6.716  -0.362  0.4203  0.1214  0.3171
   87MOL0     N11402   5.903   6.801   0.108 -0.8731 -0.5539  0.0108
   87MOL0     N11403   5.996   6.824   0.199 -0.3587  0.2837 -0.6763
   87MOL0     C11404   7.272   6.703   0.426  0.3952  1.0444 -1.0677
   87MOL0     C11405   7.408   6.669   0.415 -0.5049  0.0017  0.5563
   87MOL0     C11406   7.860   6.767   0.342 -0.0869  0.1609 -0.0915
   87MOL0     C11407   7.964   6.792   0.258  0.2320 -0.5884 -0.2708
   87MOL0     C11408   8.100   6.787   0.297  0.6553  0.1125  0.3053
   87MOL0     C11409   8.135   6.738   0.427  0.0285  0.3430  0.0519
   87MOL0     O11410   8.259   6.706   0.470  0.2537  0.2977 -0.4617
   87MOL0     C11411   8.368   6.713   0.378  0.5197 -0.0134 -0.2665
   87MOL0     C11412   8.475   6.653   0.467 -0.6895  0.3160  0.1489
   87MOL0     C11413   8.618   6.704   0.447  0.9460 -0.2278  0.3468
   87MOL0     C11414   8.682   6.656   0.312  0.2730 -0.2493  1.2810
   87MOL0     C11415   8.660   6.511   0.287 -0.3796  0.3420  0.1532
   87MOL0     C11416   8.634   6.394   0.251  0.3447  0.4717 -0.4624
   87MOL0     C11417   8.028   6.709   0.510  0.6683 -0.7459 -0.5787
   87MOL0     C11418   7.902   6.734   0.469  0.6013  0.9760 -0.9221
   87MOL0     H11419   7.527   6.977   0.340  1.2361 -2.0799 -3.4916
   87MOL0     H11420   7.281   7.036   0.399 -0.9455  0.6199 -0.2939
   87MOL0     H11421   6.981   6.750   0.385 -0.7618 -0.6814  0.3245
   87MOL0     H11422   7.041   6.881   0.275  0.9812 -1.7783 -0.1534
   87MOL0     H11423   6.872   7.039   0.390 -3.7998  0.4746  0.6333
   87MOL0     H11424   6.825   6.918   0.496 -1.4278 -0.2772 -0.6767
   87MOL0     H11425   6.708   6.806   0.311 -1.9619  1.6803  1.2284
   87MOL0     H11426   6.799   6.896   0.189 -2.1423  0.1071 -2.1749
   87MOL0     H11427   6.627   7.031   0.407 -1.3167 -2.7724  1.3929
   87MOL0     H11428   6.681   7.085   0.237  0.0779  0.5196  1.0936
   87MOL0     H11429   6.483   6.858   0.249  0.0200  0.2232 -0.3359
   87MOL0     H11430   6.501   6.986   0.133 -0.9077  2.1172  1.0086
   87MOL0     H11431   6.391   7.134   0.310 -1.6937 -0.2941 -1.6205
   87MOL0     H11432   6.386   6.972   0.405 -1.7293  0.0171  0.9693
   87MOL0     H11433   6.279   7.017   0.130 -0.6386  2.2692  1.1626
   87MOL0     H11434   6.274   6.866   0.229  0.4540  0.0044 -0.4627
   87MOL0     H11435   6.121   7.111   0.316 -4.7110 -0.3202  0.3713
   87MOL0     H11436   6.136   6.961   0.405  0.1649  1.6145  0.2785
   87MOL0     H11437   5.955   7.135   0.101  0.5180 -0.2619 -3.1348
   87MOL0     H11438   5.735   7.066  -0.044  3.2981  1.8569  0.4449
   87MOL0     H11439   5.707   6.883  -0.061 -0.9530  0.9038 -0.0979
   87MOL0     H11440   5.934   6.954  -0.184 -0.3915 -1.6384  1.0457
   87MOL0     H11441   5.829   7.095  -0.213  0.2985  0.2194  0.3995
   87MOL0     H11442   5.820   6.891  -0.378 -1.5347 -2.8994 -0.3274
   87MOL0     H11443   5.729   6.800  -0.268 -1.1817 -0.6310 -0.6336
   87MOL0     H11444   5.635   7.089  -0.362 -4.0255  0.4957 -1.4206
   87MOL0     H11445   5.547   6.982  -0.249 -0.2903  0.5833 -1.5394
   87MOL0     H11446   5.324   6.971  -0.551 -0.9574 -0.0071  0.6296
   87MOL0     H11447   5.137   6.835  -0.518  0.8243 -0.8428 -2.3776
   87MOL0     H11448   4.874   6.449  -0.443  0.6063 -0.8700  0.9696
   87MOL0     H11449   4.686   6.338  -0.295  0.8421 -0.4769 -1.6019
   87MOL0     H11450   4.469   6.567  -0.099 -4.0623  0.7750  2.0758
   87MOL0     H11451   4.529   6.571   0.056  0.5089  0.0808  0.1280
   87MOL0     H11452   4.305   6.474   0.068  2.7069 -1.6732  3.6594
   87MOL0     H11453   4.406   6.330   0.079  0.6755 -1.4317 -0.5318
   87MOL0     H11454   4.379   6.283  -0.165 -0.8074 -2.1969  0.7562
   87MOL0     H11455   4.264   6.420  -0.171 -1.0563 -0.7288 -0.6769
   87MOL0     H11456   4.151   6.263   0.025 -1.5404  1.4592 -0.8247
   87MOL0     H11457   4.121   6.217  -0.135  0.6356 -0.2443 -0.1203
   87MOL0     H11458   4.350   6.108   0.034 -1.8534 -0.6211  0.9728
   87MOL0     H11459   4.334   6.057  -0.131  1.4649 -2.4002  1.7420
   87MOL0     H11460   4.120   5.946  -0.067  1.3550  1.4396 -1.4751
   87MOL0     H11461   4.120   5.998   0.093  0.0578  1.1216  0.9696
   87MOL0     H11462   4.344   5.830  -0.052 -0.2435  3.2542 -1.3878
   87MOL0     H11463   4.356   5.881   0.115 -2.3246 -0.4319  1.3532
   87MOL0     H11464   4.274   5.660   0.147 -1.6942  2.0045  4.5920
   87MOL0     H11465   4.152   5.680   0.012 -0.6570  0.8526  0.4613
   87MOL0     H11466   4.722   6.648  -0.010  0.2990  1.4081 -0.8956
   87MOL0     H11467   4.893   6.764  -0.154 -1.5665  0.8553  1.2690
   87MOL0     H11468   5.367   6.533  -0.315  2.8654  0.1079 -0.0489
   87MOL0     H11469   5.559   6.685  -0.326  0.0205 -0.8000  0.6463
   87MOL0     H11470   7.197   6.626   0.445  1.9563  0.0739  1.8620
   87MOL0     H11471   7.446   6.568   0.425 -2.6944 -1.3441 -2.8540
   87MOL0     H11472   7.944   6.805   0.152 -0.4559 -2.3555 -0.3894
   87MOL0     H11473   8.179   6.807   0.225 -0.5084 -1.1994 -1.4006
   87MOL0     H11474   8.393   6.819   0.364  1.3076  0.3290  2.8888
   87MOL0     H11475   8.361   6.658   0.284  0.5623 -0.6136  0.0724
   87MOL0     H11476   8.446   6.668   0.572  2.3011  1.4704  0.9211
   87MOL0     H11477   8.468   6.544   0.457 -0.3311  0.4449 -1.8323
   87MOL0     H11478   8.690   6.691   0.528  1.2891  3.7382  0.8633
   87MOL0     H11479   8.613   6.813   0.450 -0.9428 -0.3055  2.4571
   87MOL0     H11480   8.640   6.713   0.229 -0.8880  0.0703  2.0595
   87MOL0     H11481   8.790   6.675   0.310  0.0206  1.3080 -0.1053
   87MOL0     H11482   8.618   6.294   0.216  1.6644  0.2635 -0.5084
   87MOL0     H11483   8.037   6.679   0.614 -1.1157  1.7096  0.3999
   87MOL0     H11484   7.820   6.716   0.538 -0.1540 -1.4866 -2.3584
   88MOL0     O11485   6.029  10.252   9.848 -0.6464 -0.7703 -0.3446
   88MOL0     C11486   6.090  10.354   9.816 -0.1934 -0.0751 -0.3574
   88MOL0     O11487   6.035  10.453   9.743  0.2583 -0.2960 -0.0004
   88MOL0     C11488   5.903  10.451   9.710  0.6762  0.4450  0.2554
   88MOL0     C11489   5.800  10.440   9.803  0.5222  0.3964  0.2569
   88MOL0     C11490   5.664  10.453   9.770 -0.3864  0.7875  0.4062
   88MOL0     C11491   5.632  10.487   9.644 -0.2681  1.0992 -1.2274
   88MOL0     O11492   5.506  10.494   9.606  0.1283 -0.5695  0.0132
   88MOL0     C11493   5.402  10.402   9.628  0.2473 -0.1894 -0.4552
   88MOL0     C11494   5.422  10.264   9.580 -0.5323  0.1743  0.8415
   88MOL0     C11495   5.295  10.174   9.571  0.6168  0.5838 -0.1141
   88MOL0     C11496   5.306  10.074   9.689 -0.5590 -0.7514 -0.0416
   88MOL0     C11497   5.173   9.996   9.708  0.1825  0.4311  0.3708
   88MOL0     C11498   5.140   9.888   9.602  0.1968  0.4311  0.1097
   88MOL0     C11499   4.998   9.851   9.612  0.5735  0.2852 -0.1360
   88MOL0     C11500   4.980   9.739   9.499 -0.2758  0.2354 -1.1418
   88MOL0     N11501   4.858   9.658   9.513  0.3177  0.2462 -0.2225
   88MOL0     C11502   4.728   9.706   9.538  0.5005  0.0341  0.4160
   88MOL0     C11503   4.664   9.600   9.598  0.8392 -1.2207  0.7446
   88MOL0     C11504   4.530   9.622   9.668  0.5298 -0.4525 -0.5276
   88MOL0     C11505   4.411   9.612   9.564 -0.8636 -1.0465 -1.0671
   88MOL0     C11506   4.273   9.620   9.631 -0.3021  0.2598 -0.2455
   88MOL0     C11507   4.163   9.614   9.521 -0.1407  0.1102  0.6392
   88MOL0     O11508   4.049   9.593   9.594  0.1352  1.0516 -0.5416
   88MOL0     C11509   3.952   9.690   9.592 -0.0819  0.0358  0.3488
   88MOL0     C11510   3.988   9.826   9.603  0.3750 -0.3043 -0.8372
   88MOL0     C11511   3.891   9.931   9.611  0.2458 -0.4407 -0.7675
   88MOL0     C11512   3.754   9.894   9.595  0.1057  0.8582 -0.6162
   88MOL0     C11513   3.645   9.996   9.598 -0.2836 -0.5522  0.0317
   88MOL0     O11514   3.516   9.950   9.595  0.0915  0.4882  0.8889
   88MOL0     C11515   3.412  10.036   9.547 -0.2724  0.8212 -0.1916
   88MOL0     C11516   3.293  10.021   9.616 -0.1972 -0.6072  0.8733
   88MOL0     C11517   3.187  10.107   9.579 -0.1232 -0.1038 -0.6910
   88MOL0     C11518   3.205  10.204   9.483  0.5297 -0.0397  0.7103
   88MOL0     O11519   3.093  10.283   9.444 -0.1532 -0.4743  0.3883
   88MOL0     C11520   2.975  10.215   9.401  0.6848 -0.1464  0.3592
   88MOL0     C11521   2.848  10.289   9.443  0.2010  0.6475  0.3913
   88MOL0     C11522   2.714  10.222   9.389 -0.6650 -0.0387  0.0397
   88MOL0     C11523   2.610  10.330   9.377  0.0190 -0.1369 -0.6443
   88MOL0     C11524   2.477  10.279   9.323 -0.4560  0.6876 -0.4146
   88MOL0     C11525   2.355  10.368   9.332 -0.5824 -0.3453  0.4383
   88MOL0     C11526   2.386  10.521   9.339  0.7920 -0.6612 -0.3085
   88MOL0     C11527   2.387  10.569   9.199 -0.3303  0.5159 -0.9928
   88MOL0    Cl11528   2.220  10.574   9.113 -0.1075  0.6543  0.0235
   88MOL0     C11529   3.327  10.224   9.420  0.0059 -0.3861 -0.9717
   88MOL0     C11530   3.433  10.141   9.455  0.0927 -0.3814  0.0328
   88MOL0     O11531   3.681  10.117   9.598 -0.5279  0.5944 -0.1884
   88MOL0     C11532   3.722   9.753   9.602 -1.0013 -0.4725  0.7960
   88MOL0     C11533   3.818   9.659   9.594 -0.8957 -0.1956  1.0907
   88MOL0     N11534   4.749   9.488   9.587 -0.3255  0.4534  0.4853
   88MOL0     N11535   4.868   9.521   9.541  0.3286  0.4019  0.0175
   88MOL0     C11536   5.735  10.514   9.550  0.8366  0.3357 -0.2402
   88MOL0     C11537   5.867  10.490   9.583  0.2544  0.2584  0.1980
   88MOL0     C11538   6.238  10.354   9.842  0.8818 -0.4871  0.3543
   88MOL0     C11539   6.297  10.267   9.937 -0.2668 -0.4497 -0.4130
   88MOL0     C11540   6.438  10.263   9.949 -0.2953 -0.3111  0.7038
   88MOL0     C11541   6.527  10.343   9.869 -0.1051  0.1491  0.6455
   88MOL0     O11542   6.654  10.329   9.894 -0.4333  0.2708 -0.2011
   88MOL0     C11543   6.757  10.426   9.858  0.4215  0.7494  0.6334
   88MOL0     C11544   6.898  10.370   9.878 -1.7270 -0.0362  0.2958
   88MOL0     C11545   6.936  10.273   9.770 -0.3400 -0.4790  0.1936
   88MOL0     C11546   7.044  10.162   9.809  1.0325  0.3125 -0.5032
   88MOL0     C11547   7.170  10.226   9.829 -0.0067 -0.2129 -1.6620
   88MOL0     C11548   7.270  10.295   9.855 -0.9494 -0.0663  0.0195
   88MOL0     C11549   6.470  10.429   9.772 -0.0086 -0.2998  0.4608
   88MOL0     C11550   6.329  10.433   9.760  0.0215 -0.0499 -0.4193
   88MOL0     H11551   5.829  10.409   9.903  0.3433  1.3157  0.6013
   88MOL0     H11552   5.582  10.431   9.838  0.3808 -3.8959  0.1821
   88MOL0     H11553   5.309  10.431   9.578 -0.6968 -1.3149  0.5672
   88MOL0     H11554   5.374  10.409   9.734 -0.4583  0.7791 -0.6967
   88MOL0     H11555   5.492  10.221   9.653 -0.5942 -1.0196  0.2148
   88MOL0     H11556   5.473  10.267   9.483 -0.6029 -0.0571  0.7969
   88MOL0     H11557   5.288  10.112   9.481 -0.7043 -0.5250  0.7049
   88MOL0     H11558   5.201  10.230   9.562 -0.5729 -1.3616 -0.2933
   88MOL0     H11559   5.391  10.006   9.682  0.7420  0.7008  1.0844
   88MOL0     H11560   5.327  10.135   9.777  0.4041  0.9318 -1.3653
   88MOL0     H11561   5.095  10.071   9.722 -0.2251 -0.0158  0.5128
   88MOL0     H11562   5.185   9.941   9.802  0.5982  1.4300  0.9216
   88MOL0     H11563   5.201   9.801   9.628  2.3171  2.2825  1.7627
   88MOL0     H11564   5.155   9.920   9.498  0.9593  1.3995  0.5104
   88MOL0     H11565   4.976   9.807   9.709 -0.8701  0.6456 -0.2736
   88MOL0     H11566   4.927   9.934   9.601 -0.0087 -0.2438 -0.4046
   88MOL0     H11567   5.059   9.664   9.508 -1.0948 -0.6437 -1.2359
   88MOL0     H11568   4.998   9.782   9.399  0.5813  2.4087 -0.1235
   88MOL0     H11569   4.680   9.803   9.532 -1.1726 -0.7778 -0.0023
   88MOL0     H11570   4.526   9.712   9.731  1.7719 -0.0864 -0.9386
   88MOL0     H11571   4.526   9.535   9.733  2.1692 -0.9032 -0.9837
   88MOL0     H11572   4.429   9.522   9.504  0.3033 -0.6464 -1.3526
   88MOL0     H11573   4.426   9.691   9.489 -2.1866 -0.9159 -1.2159
   88MOL0     H11574   4.255   9.532   9.694 -1.2800 -0.5114 -1.5463
   88MOL0     H11575   4.277   9.713   9.688  2.2738 -0.4953  0.9540
   88MOL0     H11576   4.181   9.532   9.450 -2.2834 -1.7001  2.0254
   88MOL0     H11577   4.167   9.706   9.464  0.7517 -0.4363 -0.2032
   88MOL0     H11578   4.093   9.847   9.623  0.2493 -1.5751  1.5879
   88MOL0     H11579   3.921  10.036   9.607 -1.5878  0.1106 -0.6680
   88MOL0     H11580   3.271   9.942   9.687  4.1534 -1.8582  1.1370
   88MOL0     H11581   3.105  10.098   9.648  0.0715 -1.8849 -0.6328
   88MOL0     H11582   2.973  10.119   9.454  0.7067  2.0746  4.8008
   88MOL0     H11583   2.964  10.201   9.292 -2.3358 -1.6316  0.7356
   88MOL0     H11584   2.849  10.396   9.419  2.5728  1.0896  2.1333
   88MOL0     H11585   2.851  10.289   9.552 -3.9366  0.8578  0.6860
   88MOL0     H11586   2.683  10.142   9.458 -1.7949 -0.3261 -0.7704
   88MOL0     H11587   2.723  10.169   9.294 -2.3500 -0.3071 -0.0077
   88MOL0     H11588   2.586  10.360   9.479 -1.3442  1.6379 -1.4182
   88MOL0     H11589   2.648  10.415   9.319 -1.5487 -0.7480 -2.6973
   88MOL0     H11590   2.455  10.187   9.377  3.6571  0.7006  1.6671
   88MOL0     H11591   2.489  10.246   9.219  1.3894  1.7958 -0.6020
   88MOL0     H11592   2.298  10.341   9.421 -2.0383  1.0238 -0.0289
   88MOL0     H11593   2.299  10.344   9.241 -1.7993  0.1020  1.0402
   88MOL0     H11594   2.301  10.571   9.386 -1.7990 -1.1411 -4.0784
   88MOL0     H11595   2.469  10.542   9.407  0.0126 -0.1347  0.5106
   88MOL0     H11596   2.448  10.497   9.143  0.9289 -1.1729  2.2927
   88MOL0     H11597   2.436  10.667   9.203 -0.2942  0.4612  0.5461
   88MOL0     H11598   3.342  10.300   9.345 -0.1045  1.7231  1.0276
   88MOL0     H11599   3.530  10.166   9.413 -0.9067  0.7510 -1.7108
   88MOL0     H11600   3.622   9.709   9.599 -0.8365 -0.7927 -0.2201
   88MOL0     H11601   3.775   9.560   9.604 -1.6098  0.0436  0.4026
   88MOL0     H11602   5.710  10.549   9.451 -1.1312  1.3508  0.5465
   88MOL0     H11603   5.940  10.509   9.505 -0.4334  0.6065 -0.3620
   88MOL0     H11604   6.240  10.203  10.003  2.3147 -1.0244  1.4307
   88MOL0     H11605   6.464  10.191  10.026  1.8415 -1.1641 -0.7185
   88MOL0     H11606   6.735  10.519   9.912 -0.9928 -0.5391  2.4130
   88MOL0     H11607   6.753  10.457   9.753 -0.1729 -1.0905  0.0893
   88MOL0     H11608   6.971  10.451   9.866 -0.1228 -1.0898  2.3009
   88MOL0     H11609   6.909  10.328   9.978 -1.2804 -0.4399  0.0818
   88MOL0     H11610   6.974  10.332   9.686 -0.1503  0.6737  1.0686
   88MOL0     H11611   6.838  10.229   9.748 -1.0029 -0.3585  2.5859
   88MOL0     H11612   7.017  10.105   9.899  2.6134 -0.7973 -0.6764
   88MOL0     H11613   7.057  10.089   9.729 -0.9254 -1.6137  0.8326
   88MOL0     H11614   7.357  10.357   9.858 -0.0980 -0.8200 -3.5177
   88MOL0     H11615   6.526  10.498   9.708  0.6266 -0.8079  0.4572
   88MOL0     H11616   6.282  10.507   9.696  1.5262  0.0422 -1.4671
   89MOL0     O11617   7.404   1.351   1.011  0.2050 -0.1753 -0.1671
   89MOL0     C11618   7.477   1.389   1.100  0.1844 -0.1681  0.5416
   89MOL0     O11619   7.438   1.455   1.214 -0.1389  0.0118  0.3085
   89MOL0     C11620   7.309   1.480   1.213 -0.0082 -0.1355  0.1251
   89MOL0     C11621   7.215   1.381   1.245  0.1721 -0.0401 -0.0041
   89MOL0     C11622   7.077   1.406   1.239  0.8518  0.3082  0.3742
   89MOL0     C11623   7.026   1.529   1.185  0.4386  0.1733 -0.2616
   89MOL0     O11624   6.901   1.571   1.211 -0.8051 -0.1111  0.2020
   89MOL0     C11625   6.829   1.640   1.102 -1.3705  0.5831 -0.4195
   89MOL0     C11626   6.684   1.617   1.140  0.0287  0.0444  0.0330
   89MOL0     C11627   6.586   1.678   1.034 -0.6659  0.1783  0.1336
   89MOL0     C11628   6.449   1.619   1.055 -0.5660 -0.3053 -0.3914
   89MOL0     C11629   6.340   1.660   0.957  0.0100  0.0282  0.1208
   89MOL0     C11630   6.210   1.607   1.015 -0.2713 -0.8151 -0.6177
   89MOL0     C11631   6.086   1.663   0.928 -0.6464 -0.0909  0.1978
   89MOL0     C11632   6.050   1.810   0.959 -0.1272 -0.7994  1.4011
   89MOL0     N11633   6.030   1.839   1.099  0.7048 -0.0619  0.7281
   89MOL0     C11634   5.918   1.807   1.175 -0.2623  0.5782 -0.0421
   89MOL0     C11635   5.951   1.828   1.303 -1.2026  0.5841 -0.7061
   89MOL0     C11636   5.869   1.818   1.426  0.5559 -0.5929 -0.3505
   89MOL0     C11637   5.721   1.765   1.387  0.1142 -1.0143 -0.5332
   89MOL0     C11638   5.635   1.772   1.519 -0.3225 -0.1684  0.5890
   89MOL0     C11639   5.490   1.749   1.481 -0.7029 -0.4833  0.1228
   89MOL0     O11640   5.445   1.861   1.403 -0.6693 -0.6383 -0.3530
   89MOL0     C11641   5.312   1.867   1.368  1.1722  0.0527  0.1257
   89MOL0     C11642   5.268   1.969   1.282 -0.0238  0.7758  0.1704
   89MOL0     C11643   5.135   1.986   1.261  0.0085  0.1843  0.4332
   89MOL0     C11644   5.036   1.896   1.314  0.3729 -0.1794 -0.2309
   89MOL0     C11645   4.891   1.914   1.302  0.0510  0.8018 -0.2784
   89MOL0     O11646   4.812   1.818   1.358  0.7167 -0.1697 -0.1112
   89MOL0     C11647   4.678   1.824   1.347 -0.1731  0.1161 -0.4943
   89MOL0     C11648   4.612   1.700   1.317 -0.4127 -0.2790 -0.8270
   89MOL0     C11649   4.471   1.694   1.296 -0.0877 -0.8758  0.2048
   89MOL0     C11650   4.396   1.815   1.290  0.2939 -0.3294 -0.9763
   89MOL0     O11651   4.255   1.797   1.274 -0.0850  0.7464 -1.0743
   89MOL0     C11652   4.169   1.911   1.279 -0.6125 -1.3520  0.0816
   89MOL0     C11653   4.022   1.885   1.271  0.2651 -0.4264 -0.4594
   89MOL0     C11654   3.967   1.876   1.134  0.0750 -0.7271  0.8724
   89MOL0     C11655   3.828   1.815   1.125 -0.8194  0.1127 -0.9164
   89MOL0     C11656   3.772   1.819   0.988 -1.0400  1.2494 -0.9725
   89MOL0     C11657   3.645   1.738   0.967  0.0616 -0.2635 -0.0165
   89MOL0     C11658   3.625   1.724   0.815 -0.6781  0.7052 -0.3604
   89MOL0     C11659   3.519   1.620   0.800  0.4572  0.4555 -0.7150
   89MOL0    Cl11660   3.386   1.675   0.895 -0.2308  0.1489  0.2754
   89MOL0     C11661   4.455   1.939   1.316 -1.0989 -0.2375  0.7586
   89MOL0     C11662   4.596   1.946   1.353  0.7379  0.2496  0.2961
   89MOL0     O11663   4.853   2.023   1.257 -0.4019 -0.3375  0.5406
   89MOL0     C11664   5.087   1.786   1.387  0.3579 -0.1511 -0.9710
   89MOL0     C11665   5.216   1.775   1.416 -0.0844 -0.2407 -0.3470
   89MOL0     N11666   6.066   1.910   1.298 -0.2564 -0.7482  0.3178
   89MOL0     N11667   6.109   1.920   1.172  0.6778 -0.2326  0.1805
   89MOL0     C11668   7.117   1.619   1.141 -0.9117  0.3768  1.1016
   89MOL0     C11669   7.257   1.602   1.155 -0.1153 -0.2086  0.3969
   89MOL0     C11670   7.621   1.344   1.094 -0.4786 -0.4522 -0.2630
   89MOL0     C11671   7.697   1.347   1.208 -0.6294 -0.3378  0.7290
   89MOL0     C11672   7.823   1.295   1.221  0.0431  0.0559  0.4772
   89MOL0     C11673   7.883   1.234   1.107 -0.0696  0.8776 -0.4485
   89MOL0     O11674   8.000   1.168   1.110 -0.2816  0.1345 -0.0234
   89MOL0     C11675   8.099   1.186   1.222 -0.8327  0.5366  0.1256
   89MOL0     C11676   8.213   1.087   1.200  0.6610 -0.2172  0.9382
   89MOL0     C11677   8.319   1.093   1.307 -0.2916 -0.1032  0.3329
   89MOL0     C11678   8.388   0.958   1.324 -0.0266  0.3268  0.9999
   89MOL0     C11679   8.498   0.938   1.234 -0.3454  0.2089  0.0210
   89MOL0     C11680   8.604   0.918   1.176  0.0366  0.0736  0.0729
   89MOL0     C11681   7.815   1.234   0.991  0.2533  0.3166  0.3487
   89MOL0     C11682   7.686   1.286   0.981  0.6125  0.6548 -0.3820
   89MOL0     H11683   7.250   1.283   1.275 -2.8638 -0.7318  1.7128
   89MOL0     H11684   7.009   1.331   1.279 -0.5101  1.9401  1.2555
   89MOL0     H11685   6.848   1.585   1.009  2.5478 -2.2872  1.7284
   89MOL0     H11686   6.849   1.748   1.103  1.6611  0.1505  1.9225
   89MOL0     H11687   6.673   1.652   1.242  0.8681 -2.5919  1.1155
   89MOL0     H11688   6.664   1.510   1.145 -1.5588  0.3771  1.5200
   89MOL0     H11689   6.621   1.647   0.935  1.3226 -1.3749  1.2419
   89MOL0     H11690   6.586   1.786   1.049 -1.7874  0.8316 -3.4678
   89MOL0     H11691   6.454   1.510   1.067 -2.1671 -0.3744 -0.1452
   89MOL0     H11692   6.420   1.662   1.152  3.2423 -1.3065  1.4211
   89MOL0     H11693   6.368   1.621   0.858  5.0927  1.9893  0.5087
   89MOL0     H11694   6.336   1.769   0.956  0.3907  0.1290  2.7005
   89MOL0     H11695   6.195   1.634   1.120 -3.4034  0.4828 -1.2879
   89MOL0     H11696   6.211   1.498   1.019  2.6723 -0.9622 -2.1227
   89MOL0     H11697   6.102   1.631   0.825  1.6939 -0.8092  0.7078
   89MOL0     H11698   5.999   1.602   0.954 -2.3442  1.6428 -1.1347
   89MOL0     H11699   5.958   1.840   0.908  1.4267  0.4148 -0.7923
   89MOL0     H11700   6.131   1.876   0.926 -0.8570 -0.3321  0.5151
   89MOL0     H11701   5.829   1.758   1.138 -2.1468  3.9704 -0.4049
   89MOL0     H11702   5.861   1.913   1.479  1.2925  0.0907 -1.4347
   89MOL0     H11703   5.911   1.749   1.499  0.1871  1.6007  2.0321
   89MOL0     H11704   5.721   1.666   1.340  1.6660 -1.1930 -0.2186
   89MOL0     H11705   5.681   1.828   1.307 -1.0293  1.4335  1.7965
   89MOL0     H11706   5.663   1.695   1.591 -1.1638 -1.3492 -0.3016
   89MOL0     H11707   5.662   1.869   1.563 -1.1265  1.1139 -1.5439
   89MOL0     H11708   5.442   1.743   1.579  1.7766  0.2077  1.4730
   89MOL0     H11709   5.480   1.654   1.428 -3.0825 -0.0478 -0.3176
   89MOL0     H11710   5.350   2.028   1.243 -0.0190  0.7859  0.1951
   89MOL0     H11711   5.095   2.064   1.196 -1.2693 -1.9802 -1.5638
   89MOL0     H11712   4.668   1.608   1.310 -0.8171 -0.5117 -1.0145
   89MOL0     H11713   4.421   1.600   1.276 -0.2335 -0.0624 -4.2469
   89MOL0     H11714   4.201   1.984   1.204 -0.5241  0.3945  1.7488
   89MOL0     H11715   4.186   1.956   1.377  0.8089 -3.0512  0.6566
   89MOL0     H11716   3.962   1.960   1.323 -1.2477 -0.7360 -1.7248
   89MOL0     H11717   4.008   1.787   1.318 -0.4515  0.3513  1.0201
   89MOL0     H11718   4.033   1.815   1.073  1.0975  0.4436  0.7772
   89MOL0     H11719   3.962   1.979   1.096 -1.2914  0.7608  4.5660
   89MOL0     H11720   3.824   1.711   1.158 -0.1282  0.7691  1.3867
   89MOL0     H11721   3.755   1.867   1.188  1.9759  1.3065  1.5678
   89MOL0     H11722   3.847   1.786   0.916 -0.4636  1.1487 -0.3313
   89MOL0     H11723   3.749   1.921   0.955  0.3473  0.7445 -3.8461
   89MOL0     H11724   3.564   1.790   1.018  0.0140 -0.9933  0.6817
   89MOL0     H11725   3.659   1.634   1.000  0.8289  0.1370  0.9825
   89MOL0     H11726   3.594   1.822   0.778  2.9424  1.6560 -1.2271
   89MOL0     H11727   3.713   1.687   0.761 -0.4852  2.1655 -1.0915
   89MOL0     H11728   3.549   1.522   0.838 -0.2173  0.7117  0.5118
   89MOL0     H11729   3.482   1.605   0.698  1.1610 -3.5147 -0.5323
   89MOL0     H11730   4.393   2.028   1.305 -3.4192 -2.0315 -1.9825
   89MOL0     H11731   4.647   2.039   1.377  0.1667  0.5971  0.1847
   89MOL0     H11732   5.014   1.727   1.441 -2.5773  2.0357 -2.2279
   89MOL0     H11733   5.240   1.703   1.494 -2.6155 -1.1355 -0.3185
   89MOL0     H11734   7.091   1.708   1.085  0.1100 -0.7128 -1.2434
   89MOL0     H11735   7.337   1.669   1.127 -1.1300  1.2530  0.8682
   89MOL0     H11736   7.663   1.390   1.302 -0.2158 -0.7009  1.0496
   89MOL0     H11737   7.886   1.301   1.309 -0.7139  1.1787  0.9691
   89MOL0     H11738   8.054   1.167   1.319  1.1835 -1.7158  0.6868
   89MOL0     H11739   8.148   1.284   1.219  3.2837 -1.2976 -2.2302
   89MOL0     H11740   8.176   0.984   1.199 -0.4505  0.1665  1.0823
   89MOL0     H11741   8.251   1.098   1.098 -0.7007 -0.8442  0.3330
   89MOL0     H11742   8.269   1.127   1.399  0.6643  1.8400  0.1762
   89MOL0     H11743   8.394   1.165   1.273 -0.9012 -0.0999 -1.0853
   89MOL0     H11744   8.434   0.944   1.422  1.2521 -0.9914  0.2442
   89MOL0     H11745   8.326   0.868   1.315  1.8219 -0.7443 -2.7715
   89MOL0     H11746   8.696   0.919   1.121  0.2208  1.4333  0.3541
   89MOL0     H11747   7.866   1.189   0.906 -1.6167 -0.7603 -0.2703
   89MOL0     H11748   7.641   1.292   0.882  0.2007  0.0689 -0.2333
   90MOL0     O11749   4.646   9.900  10.003  0.3450  0.9215  0.3051
   90MOL0     C11750   4.677   9.782   9.993  0.3248  1.1048 -0.2843
   90MOL0     O11751   4.593   9.672   9.997 -0.5530 -0.2962  0.7560
   90MOL0     C11752   4.460   9.678  10.035 -0.4371 -0.9864  0.3252
   90MOL0     C11753   4.379   9.578   9.988 -0.1305  0.5099  0.2286
   90MOL0     C11754   4.245   9.577  10.003 -0.5496  0.1504 -1.0412
   90MOL0     C11755   4.178   9.685  10.063 -0.0485 -0.3682  0.4482
   90MOL0     O11756   4.044   9.685  10.094 -0.5450 -0.7402 -0.2874
   90MOL0     C11757   3.959   9.622  10.002 -0.3020  0.4061  0.1966
   90MOL0     C11758   3.831   9.699   9.998  0.3592  0.5320 -0.1773
   90MOL0     C11759   3.714   9.608   9.955  0.4725 -0.6258 -0.3430
   90MOL0     C11760   3.576   9.676   9.971  0.0696  0.2489 -0.1296
   90MOL0     C11761   3.450   9.601   9.943  0.9012  0.5055 -0.4617
   90MOL0     C11762   3.324   9.687   9.971  0.8033 -0.8534 -0.0059
   90MOL0     C11763   3.229   9.701   9.854 -0.7272  0.1404  0.1828
   90MOL0     C11764   3.105   9.781   9.898  0.3148  0.2999  0.5114
   90MOL0     N11765   3.007   9.717   9.984  0.4401 -0.4099 -0.8222
   90MOL0     C11766   2.954   9.762  10.098  0.2261  0.0228 -0.1408
   90MOL0     C11767   2.860   9.670  10.144 -0.1086 -0.2099  0.6170
   90MOL0     C11768   2.782   9.679  10.268 -0.7413 -0.2701 -0.7091
   90MOL0     C11769   2.634   9.650  10.242 -0.2519  1.1043 -0.5286
   90MOL0     C11770   2.542   9.646  10.361 -0.3907 -0.6855  0.1242
   90MOL0     C11771   2.406   9.586  10.335  0.0513 -0.3779  0.3671
   90MOL0     O11772   2.313   9.648  10.420 -0.2742  0.0773  0.3502
   90MOL0     C11773   2.182   9.645  10.393  0.4221  0.6295  0.0911
   90MOL0     C11774   2.109   9.705  10.492  0.1515 -0.3654  0.2963
   90MOL0     C11775   1.966   9.710  10.490 -0.8167  0.4298 -0.3667
   90MOL0     C11776   1.900   9.636  10.383 -0.6713 -0.2107 -0.3226
   90MOL0     C11777   1.756   9.625  10.383 -0.1665  0.3859  1.0588
   90MOL0     O11778   1.708   9.539  10.294  0.2157  0.8055 -0.2900
   90MOL0     C11779   1.573   9.513  10.285 -0.1517  0.4438  1.1754
   90MOL0     C11780   1.471   9.533  10.382 -0.4293  0.3401  0.4029
   90MOL0     C11781   1.336   9.508  10.347  0.0572  0.8563  0.1707
   90MOL0     C11782   1.305   9.470  10.215  0.3873 -0.3095 -0.4483
   90MOL0     O11783   1.181   9.438  10.170 -0.0127 -0.1911  0.6511
   90MOL0     C11784   1.062   9.447  10.250 -0.3955  0.2722 -0.0110
   90MOL0     C11785   0.934   9.394  10.179  0.5021 -1.2641 -0.4238
   90MOL0     C11786   0.939   9.250  10.133 -0.3477 -0.5547 -0.5162
   90MOL0     C11787   1.037   9.205  10.025  0.0231  0.5158 -0.2861
   90MOL0     C11788   1.018   9.054   9.992 -0.1233  0.6910 -0.3029
   90MOL0     C11789   1.143   8.982   9.952 -0.5214  0.0126 -0.1400
   90MOL0     C11790   1.135   8.827   9.986 -0.3527  0.7241  0.5935
   90MOL0     C11791   1.247   8.751   9.909 -0.3250 -0.4114 -0.5661
   90MOL0    Cl11792   1.182   8.668   9.767  0.0655 -0.3637  0.4440
   90MOL0     C11793   1.410   9.442  10.126 -0.5284 -0.2895  0.3039
   90MOL0     C11794   1.537   9.458  10.152  0.4481 -0.1620 -1.0831
   90MOL0     O11795   1.696   9.687  10.468 -0.1143  0.1551 -0.1250
   90MOL0     C11796   1.972   9.580  10.286  0.2092  0.2335  0.4113
   90MOL0     C11797   2.117   9.578  10.288  0.4728 -0.3675  0.4888
   90MOL0     N11798   2.855   9.567  10.050  0.9427 -0.6453 -0.2667
   90MOL0     N11799   2.951   9.594   9.963  0.2465  0.0553  0.4334
   90MOL0     C11800   4.255   9.774  10.136 -0.4561 -0.1463 -0.5666
   90MOL0     C11801   4.397   9.772  10.125  0.0150 -0.1732  0.5176
   90MOL0     C11802   4.823   9.753   9.977 -0.0601  0.7508 -0.5479
   90MOL0     C11803   4.908   9.842  10.028  0.1663  0.1633  0.2676
   90MOL0     C11804   5.047   9.809  10.018  0.4091 -0.2893  0.0992
   90MOL0     C11805   5.099   9.693   9.958  0.2970 -0.0763  0.2023
   90MOL0     O11806   5.234   9.678   9.954 -0.1927 -0.1684 -0.2379
   90MOL0     C11807   5.303   9.589   9.865  0.2538  0.0865  0.3357
   90MOL0     C11808   5.461   9.603   9.848  0.6848  0.6062 -0.9233
   90MOL0     C11809   5.491   9.750   9.849  0.1277 -0.3609  0.4051
   90MOL0     C11810   5.643   9.765   9.843 -0.6030  0.7580  0.6635
   90MOL0     C11811   5.692   9.902   9.812 -0.3732 -0.0646 -0.2300
   90MOL0     C11812   5.738  10.010   9.767 -0.4934  0.2558 -1.3720
   90MOL0     C11813   5.006   9.603   9.902 -0.1864 -0.1935  0.0153
   90MOL0     C11814   4.869   9.636   9.913  0.5233  0.7296 -0.5034
   90MOL0     H11815   4.427   9.501   9.930  0.9098 -0.4296  2.2223
   90MOL0     H11816   4.189   9.499   9.953 -1.0170 -0.5774  0.5418
   90MOL0     H11817   3.942   9.520  10.036  0.6912 -0.2533 -1.1823
   90MOL0     H11818   3.999   9.626   9.900 -0.9563 -0.4168 -0.1107
   90MOL0     H11819   3.837   9.798   9.952 -0.3273 -0.5663 -2.8090
   90MOL0     H11820   3.799   9.713  10.101  2.1670  0.9974  0.3528
   90MOL0     H11821   3.712   9.527  10.027  0.0481 -0.6344 -0.3637
   90MOL0     H11822   3.726   9.569   9.853 -2.6482  0.7062 -1.3638
   90MOL0     H11823   3.563   9.701  10.077 -1.1304 -0.0766 -0.1789
   90MOL0     H11824   3.584   9.769   9.914  1.0449 -0.1364 -0.6480
   90MOL0     H11825   3.442   9.515  10.011  1.8362  1.4508  0.9055
   90MOL0     H11826   3.444   9.574   9.837 -4.3873 -0.7478 -0.1052
   90MOL0     H11827   3.354   9.786  10.006  1.1111 -1.1517  0.5824
   90MOL0     H11828   3.263   9.642  10.050 -3.1502  0.9773 -1.7190
   90MOL0     H11829   3.285   9.738   9.768  1.1773 -0.6522  1.0252
   90MOL0     H11830   3.199   9.600   9.823 -1.1152  1.0391 -2.6334
   90MOL0     H11831   3.045   9.805   9.809  0.2009  1.0271  0.7800
   90MOL0     H11832   3.135   9.879   9.937  0.1313  1.0987 -1.2383
   90MOL0     H11833   2.971   9.864  10.134 -2.5601  0.5118  0.0020
   90MOL0     H11834   2.796   9.779  10.310  1.2924 -0.8578  0.1157
   90MOL0     H11835   2.819   9.608  10.342  0.6516  1.4485  0.3448
   90MOL0     H11836   2.633   9.548  10.203 -0.0156  0.6739  0.5761
   90MOL0     H11837   2.588   9.715  10.166  0.2785 -0.5987 -2.3942
   90MOL0     H11838   2.583   9.590  10.446  0.8095 -2.5770 -1.5954
   90MOL0     H11839   2.537   9.749  10.396  1.9280 -0.3716 -0.3439
   90MOL0     H11840   2.399   9.477  10.341  0.8868 -0.5680 -1.4407
   90MOL0     H11841   2.380   9.627  10.237  0.5710  0.8153  0.7071
   90MOL0     H11842   2.153   9.759  10.574 -2.5600  2.7113 -0.0512
   90MOL0     H11843   1.910   9.755  10.570  0.3537  0.8854  0.2162
   90MOL0     H11844   1.483   9.586  10.476 -0.2696  0.5880  0.2452
   90MOL0     H11845   1.253   9.521  10.416 -0.6902 -3.1166  0.2249
   90MOL0     H11846   1.063   9.550  10.288  1.9398 -0.9908  3.9576
   90MOL0     H11847   1.070   9.375  10.332 -1.5273  0.0851 -0.0480
   90MOL0     H11848   0.933   9.463  10.094  2.0250  0.8176  1.1246
   90MOL0     H11849   0.859   9.420  10.254  1.1154  0.9989 -0.5161
   90MOL0     H11850   0.840   9.229  10.092 -1.0251  1.4837 -0.0330
   90MOL0     H11851   0.940   9.186  10.222 -1.5202  0.1363  0.0115
   90MOL0     H11852   1.022   9.263   9.934  1.0885  0.4403 -0.5244
   90MOL0     H11853   1.140   9.225  10.058  0.2102  1.3015 -1.2869
   90MOL0     H11854   0.942   9.051   9.914  0.1568 -0.9319 -0.5452
   90MOL0     H11855   0.969   9.003  10.075  1.7266 -2.3344 -0.9060
   90MOL0     H11856   1.234   9.022   9.998  0.9327  0.4989 -3.1962
   90MOL0     H11857   1.155   8.976   9.843 -1.3118 -5.6197 -0.1938
   90MOL0     H11858   1.152   8.811  10.093  0.2128 -2.3413  0.1308
   90MOL0     H11859   1.046   8.776   9.949  1.7207 -1.3570 -1.9887
   90MOL0     H11860   1.297   8.692   9.987 -1.8031  2.5510  2.9597
   90MOL0     H11861   1.321   8.824   9.877 -1.3728  0.4331 -1.1353
   90MOL0     H11862   1.386   9.425  10.022  2.2834 -0.1410 -0.4568
   90MOL0     H11863   1.619   9.440  10.083  1.2016 -2.7951  0.3740
   90MOL0     H11864   1.921   9.532  10.204  2.4099  1.8737 -2.0917
   90MOL0     H11865   2.174   9.534  10.207 -0.0956  2.1941 -1.4403
   90MOL0     H11866   4.200   9.843  10.200  0.0309  1.5762 -1.9172
   90MOL0     H11867   4.458   9.845  10.177  4.0283 -2.9080  0.0870
   90MOL0     H11868   4.865   9.926  10.080 -0.9529 -0.8096  0.9600
   90MOL0     H11869   5.122   9.873  10.064  0.6219 -1.3260  1.2113
   90MOL0     H11870   5.256   9.592   9.766 -0.5947 -0.1705  0.7248
   90MOL0     H11871   5.285   9.486   9.898  0.7178  0.5637  2.1978
   90MOL0     H11872   5.516   9.565   9.934 -1.3511  1.4387  0.8468
   90MOL0     H11873   5.493   9.549   9.758  2.1658 -0.3488  0.1325
   90MOL0     H11874   5.457   9.801   9.940  0.6370  0.2401  0.2743
   90MOL0     H11875   5.436   9.788   9.763 -0.9964 -2.0531  0.3439
   90MOL0     H11876   5.675   9.737   9.944 -2.3368 -1.0315  0.7802
   90MOL0     H11877   5.674   9.697   9.763 -0.8022  0.8699  0.4898
   90MOL0     H11878   5.798  10.084   9.718  4.0036 -3.0837 -1.5512
   90MOL0     H11879   5.036   9.515   9.846 -2.3152  0.3687 -2.2203
   90MOL0     H11880   4.807   9.555   9.876  1.5470 -0.5371  0.4960
   91MOL0     O11881   2.907   3.426   4.608  0.6349 -0.1287  0.0988
   91MOL0     C11882   2.898   3.541   4.647  0.2553  0.2585  0.3648
   91MOL0     O11883   2.797   3.621   4.610 -0.4410 -0.0793 -0.9896
   91MOL0     C11884   2.706   3.594   4.514  1.3432  0.2360 -0.5268
   91MOL0     C11885   2.714   3.493   4.419  0.4492  0.3464  0.2099
   91MOL0     C11886   2.605   3.464   4.330 -0.5457 -0.6248  0.3046
   91MOL0     C11887   2.487   3.534   4.345  0.8173 -0.7332  0.6521
   91MOL0     O11888   2.375   3.521   4.266  0.9791  0.2301 -0.0213
   91MOL0     C11889   2.359   3.408   4.173 -1.0563 -0.1055 -0.3488
   91MOL0     C11890   2.217   3.403   4.135 -0.3153 -0.2196 -0.8874
   91MOL0     C11891   2.130   3.329   4.244 -0.0749 -0.6446  0.0183
   91MOL0     C11892   2.042   3.423   4.331  0.5533 -0.5859 -0.0816
   91MOL0     C11893   1.908   3.463   4.255  0.2622  0.5087  0.3937
   91MOL0     C11894   1.837   3.587   4.319 -0.0082  0.0821 -0.1506
   91MOL0     C11895   1.705   3.621   4.244 -0.0420 -0.0896 -0.5248
   91MOL0     C11896   1.577   3.552   4.298  0.1902 -0.6329  0.2218
   91MOL0     N11897   1.451   3.636   4.292  0.4808  0.7211  0.8557
   91MOL0     C11898   1.441   3.771   4.316  0.0953 -0.3841  0.3307
   91MOL0     C11899   1.314   3.807   4.264 -0.2485  0.3984 -0.2333
   91MOL0     C11900   1.246   3.937   4.262  0.3441 -0.2171 -0.5960
   91MOL0     C11901   1.119   3.926   4.350  0.7258  0.2356  0.7326
   91MOL0     C11902   1.025   4.050   4.336  0.0332  0.0334  0.6928
   91MOL0     C11903   0.887   4.020   4.387 -0.3229  0.8944 -1.1954
   91MOL0     O11904   0.802   4.136   4.385  0.7754 -0.3136 -0.2796
   91MOL0     C11905   0.662   4.116   4.406  0.9113  0.6077 -0.2694
   91MOL0     C11906   0.622   4.041   4.514 -0.2620  0.2013  0.0372
   91MOL0     C11907   0.498   3.990   4.519  0.8166 -0.6449 -0.5815
   91MOL0     C11908   0.404   4.047   4.429 -0.0203 -0.6555  0.2037
   91MOL0     C11909   0.262   4.005   4.432 -0.1916 -0.0241  0.1792
   91MOL0     O11910   0.170   4.056   4.335  0.1258 -0.1481  0.3821
   91MOL0     C11911   0.058   3.979   4.316 -1.3662 -0.4639 -0.1173
   91MOL0     C11912  -0.061   4.007   4.380  0.1296 -0.1446  0.4828
   91MOL0     C11913  -0.179   3.935   4.345 -0.4714  0.3819 -0.4552
   91MOL0     C11914  -0.180   3.827   4.251  1.0931 -0.8387  0.0444
   91MOL0     O11915  -0.299   3.774   4.220  0.1972 -0.9102 -0.3266
   91MOL0     C11916  -0.303   3.632   4.230 -0.7534 -0.2277 -0.2300
   91MOL0     C11917  -0.442   3.577   4.219  0.4177 -0.9387 -0.6917
   91MOL0     C11918  -0.532   3.653   4.118 -0.4950 -0.3431  0.9078
   91MOL0     C11919  -0.654   3.562   4.096  0.9243 -0.4017  0.3716
   91MOL0     C11920  -0.757   3.637   4.013 -0.0380 -0.1500 -0.3455
   91MOL0     C11921  -0.865   3.550   3.953  0.3154  0.7083  0.3949
   91MOL0     C11922  -0.922   3.453   4.051 -0.1867  0.2294 -0.3327
   91MOL0     C11923  -1.061   3.405   4.006  1.0807  0.0642  0.1902
   91MOL0    Cl11924  -1.110   3.258   4.104 -0.1924  0.2841 -0.1409
   91MOL0     C11925  -0.056   3.794   4.200  0.1891  0.1376 -0.4033
   91MOL0     C11926   0.057   3.869   4.220  0.2036  0.4578  0.0730
   91MOL0     O11927   0.235   3.920   4.514 -0.1783  0.0360  0.5357
   91MOL0     C11928   0.440   4.142   4.339 -0.0175  0.0667 -0.1142
   91MOL0     C11929   0.563   4.171   4.327 -0.2663  0.1725  0.7332
   91MOL0     N11930   1.256   3.688   4.223 -0.0343 -0.1438  1.1205
   91MOL0     N11931   1.338   3.592   4.234  1.1201  0.0759 -0.2539
   91MOL0     C11932   2.480   3.640   4.428 -0.2092 -0.2722  0.4039
   91MOL0     C11933   2.587   3.661   4.521 -0.3688  0.0015  0.3384
   91MOL0     C11934   2.998   3.597   4.731 -0.3557 -0.3061 -0.6898
   91MOL0     C11935   2.967   3.712   4.810 -0.5816  0.7145 -0.1300
   91MOL0     C11936   3.050   3.761   4.913  0.0104 -0.4998  0.6255
   91MOL0     C11937   3.173   3.701   4.933 -0.6263 -0.1427  0.1066
   91MOL0     O11938   3.256   3.769   5.023  0.2653  0.6639  0.5176
   91MOL0     C11939   3.354   3.690   5.096  0.4514  0.1035  0.4556
   91MOL0     C11940   3.479   3.767   5.104 -1.0261 -0.5128  0.5101
   91MOL0     C11941   3.589   3.671   5.159 -0.3845  0.4539 -0.6489
   91MOL0     C11942   3.722   3.753   5.180 -0.5073  0.6967  0.0854
   91MOL0     C11943   3.836   3.657   5.202 -0.6869 -0.4488  0.6445
   91MOL0     C11944   3.932   3.586   5.220 -1.0222  0.8242  0.5480
   91MOL0     C11945   3.208   3.593   4.850  0.1349 -0.3617  0.2460
   91MOL0     C11946   3.121   3.542   4.751 -0.3239 -0.4829  0.6228
   91MOL0     H11947   2.798   3.429   4.396 -0.5308 -1.2266  0.7918
   91MOL0     H11948   2.615   3.401   4.243  0.9880 -0.9507  0.6743
   91MOL0     H11949   2.401   3.310   4.200  1.5856  1.1530  0.5205
   91MOL0     H11950   2.415   3.435   4.083 -3.0468 -0.9614 -1.9123
   91MOL0     H11951   2.214   3.345   4.043  0.0787 -1.3014 -0.2431
   91MOL0     H11952   2.194   3.509   4.118  1.9469  0.4738 -0.0771
   91MOL0     H11953   2.189   3.260   4.305 -0.4470 -0.0895  1.0362
   91MOL0     H11954   2.064   3.273   4.178  1.5721 -0.8422 -1.5506
   91MOL0     H11955   2.011   3.368   4.421 -3.3938  0.1858 -0.7803
   91MOL0     H11956   2.088   3.515   4.367 -1.6549 -0.2513  2.2300
   91MOL0     H11957   1.844   3.376   4.273  0.2722  0.4229  0.0327
   91MOL0     H11958   1.925   3.474   4.148  0.5383  2.1653  0.5881
   91MOL0     H11959   1.909   3.669   4.313 -0.1365  0.4732  2.4898
   91MOL0     H11960   1.808   3.572   4.423  0.6971 -3.4554 -0.3484
   91MOL0     H11961   1.692   3.729   4.251  1.6516  0.0287  1.9587
   91MOL0     H11962   1.698   3.594   4.138 -3.0989 -4.4497  0.4862
   91MOL0     H11963   1.585   3.540   4.407 -2.4247  4.5653  1.3262
   91MOL0     H11964   1.561   3.453   4.255 -1.2802 -0.3143 -0.0081
   91MOL0     H11965   1.521   3.842   4.335 -0.3462  0.0688  0.5244
   91MOL0     H11966   1.233   3.967   4.158  3.2497 -1.3675 -1.3700
   91MOL0     H11967   1.311   4.010   4.311 -1.8107 -0.2678  2.6653
   91MOL0     H11968   1.134   3.905   4.457 -2.0566  1.0517  1.3821
   91MOL0     H11969   1.064   3.834   4.327  2.3399  0.1373 -3.5010
   91MOL0     H11970   1.079   4.125   4.394 -0.5083  0.0657  1.1676
   91MOL0     H11971   1.022   4.093   4.236  0.4313 -2.8835 -0.6706
   91MOL0     H11972   0.892   3.970   4.484  0.9039  0.5047 -1.4371
   91MOL0     H11973   0.848   3.949   4.313 -1.9621  1.6262 -1.0830
   91MOL0     H11974   0.690   4.003   4.590 -2.0046 -0.5139  1.3093
   91MOL0     H11975   0.464   3.920   4.595 -0.6653  1.4840  0.8236
   91MOL0     H11976  -0.059   4.095   4.442 -2.2879  1.1966 -1.1734
   91MOL0     H11977  -0.272   3.961   4.395 -0.4210  1.6281 -0.9757
   91MOL0     H11978  -0.264   3.608   4.330 -0.1255 -1.2578 -0.7038
   91MOL0     H11979  -0.233   3.590   4.157 -1.2833 -1.6909  0.0679
   91MOL0     H11980  -0.485   3.577   4.320  3.4120 -1.5709  0.7048
   91MOL0     H11981  -0.438   3.469   4.204 -2.8018 -2.1385  4.4728
   91MOL0     H11982  -0.480   3.671   4.023 -1.0542  2.0039  0.9764
   91MOL0     H11983  -0.556   3.756   4.148  0.2282  1.0424 -2.7242
   91MOL0     H11984  -0.629   3.473   4.038 -2.4527 -0.2008 -1.6952
   91MOL0     H11985  -0.698   3.542   4.194  1.9416  4.5818  2.1770
   91MOL0     H11986  -0.700   3.691   3.936  1.5342 -1.6945 -0.3134
   91MOL0     H11987  -0.801   3.719   4.071 -1.7460 -1.1828 -0.1091
   91MOL0     H11988  -0.841   3.499   3.860  1.4830  2.4810 -0.3349
   91MOL0     H11989  -0.946   3.619   3.928 -2.9631 -2.8408  0.1827
   91MOL0     H11990  -0.867   3.360   4.069 -2.7368 -1.3250 -0.0192
   91MOL0     H11991  -0.928   3.507   4.146 -0.3449 -1.4623  0.6751
   91MOL0     H11992  -1.051   3.379   3.901  1.1718 -1.6417  0.5912
   91MOL0     H11993  -1.135   3.481   4.033 -1.1496 -2.1113  0.5271
   91MOL0     H11994  -0.056   3.716   4.125  1.2238 -0.1110 -0.1573
   91MOL0     H11995   0.145   3.843   4.162  2.4201  2.6709  2.2038
   91MOL0     H11996   0.364   4.184   4.275 -0.0900  2.4487  1.4217
   91MOL0     H11997   0.597   4.240   4.250 -1.4953 -0.2306 -0.2096
   91MOL0     H11998   2.384   3.691   4.434  0.2470  0.5142  1.3466
   91MOL0     H11999   2.579   3.737   4.598 -2.3342 -0.5324  0.7219
   91MOL0     H12000   2.869   3.753   4.788 -0.7621  0.6251  0.5006
   91MOL0     H12001   3.010   3.836   4.980  2.1537  2.2036 -0.9289
   91MOL0     H12002   3.378   3.591   5.058 -0.4672 -0.7861  2.1100
   91MOL0     H12003   3.315   3.657   5.192 -0.4739 -1.5578 -0.4485
   91MOL0     H12004   3.516   3.809   5.010  2.9602  1.0185  2.5239
   91MOL0     H12005   3.467   3.856   5.167  1.9269 -1.2203  2.2594
   91MOL0     H12006   3.591   3.595   5.081 -1.3503 -0.2343 -0.0337
   91MOL0     H12007   3.544   3.615   5.242 -0.2285 -1.5646 -1.8627
   91MOL0     H12008   3.742   3.799   5.083 -1.3125 -1.8755 -1.3848
   91MOL0     H12009   3.698   3.823   5.261 -3.3627 -0.9001  0.7528
   91MOL0     H12010   4.023   3.529   5.228 -2.1620 -1.0838  0.5907
   91MOL0     H12011   3.300   3.541   4.877  2.4757  3.1656 -0.3329
   91MOL0     H12012   3.150   3.467   4.677 -1.4715  1.5835 -2.0823
   92MOL0     O12013   0.926   4.633   5.130 -0.7922 -0.2299 -0.0330
   92MOL0     C12014   1.010   4.634   5.040  0.8206  0.3460  0.7380
   92MOL0     O12015   0.993   4.688   4.915 -0.1491  0.1121  0.2196
   92MOL0     C12016   0.875   4.762   4.892  0.0591 -0.1594 -0.5954
   92MOL0     C12017   0.895   4.880   4.821  0.4975 -0.6933 -0.1039
   92MOL0     C12018   0.782   4.939   4.763  0.3242  1.2860  0.0609
   92MOL0     C12019   0.656   4.883   4.781  0.1216  0.4449  0.3316
   92MOL0     O12020   0.549   4.948   4.727 -0.5216 -0.0666 -0.0420
   92MOL0     C12021   0.472   4.872   4.630  0.2718  0.2245  0.2249
   92MOL0     C12022   0.385   4.964   4.537  0.2754  1.0197  0.6735
   92MOL0     C12023   0.324   4.880   4.421  0.1564  0.7986  0.4981
   92MOL0     C12024   0.222   4.781   4.477 -1.2140 -0.0086  0.5579
   92MOL0     C12025   0.140   4.720   4.364 -0.6881  0.8991 -0.6796
   92MOL0     C12026  -0.001   4.727   4.400 -0.6460 -0.1827 -0.2700
   92MOL0     C12027  -0.076   4.614   4.324  0.2975 -0.0983 -0.0836
   92MOL0     C12028  -0.031   4.467   4.363 -0.6933 -1.1960  0.2137
   92MOL0     N12029  -0.150   4.398   4.397 -0.8832  0.0321 -0.1992
   92MOL0     C12030  -0.197   4.353   4.519 -0.0640 -0.3957  0.3395
   92MOL0     C12031  -0.308   4.289   4.499 -0.3919  0.1826 -0.1666
   92MOL0     C12032  -0.352   4.187   4.595 -0.0556  0.1798  0.4619
   92MOL0     C12033  -0.431   4.249   4.712  0.2695  0.6478  0.2995
   92MOL0     C12034  -0.540   4.347   4.665  0.2706 -0.3409  0.1161
   92MOL0     C12035  -0.674   4.281   4.631  0.3189  0.2499  0.3383
   92MOL0     O12036  -0.761   4.385   4.591 -0.2068 -0.0627 -0.9291
   92MOL0     C12037  -0.873   4.367   4.518  0.3526 -0.5157  0.0911
   92MOL0     C12038  -0.906   4.252   4.453 -0.6559 -0.2327 -1.1102
   92MOL0     C12039  -1.020   4.240   4.379  0.7906  0.7152 -0.2264
   92MOL0     C12040  -1.129   4.329   4.384 -0.2799 -0.8894  0.0731
   92MOL0     C12041  -1.263   4.305   4.320 -0.0762  0.3367  0.5936
   92MOL0     O12042  -1.287   4.180   4.264 -0.4169 -0.4864 -0.0220
   92MOL0     C12043  -1.410   4.157   4.192 -0.8784 -0.6755  0.0850
   92MOL0     C12044  -1.499   4.063   4.247  0.1550 -1.1440 -0.4137
   92MOL0     C12045  -1.607   4.015   4.182  0.1361 -0.2738  1.0738
   92MOL0     C12046  -1.633   4.062   4.054 -1.3623  0.1372 -0.4893
   92MOL0     O12047  -1.743   4.031   3.977 -0.2334 -0.3385 -0.4777
   92MOL0     C12048  -1.779   3.893   3.969 -0.5156  0.0720 -0.5529
   92MOL0     C12049  -1.900   3.868   3.874  0.5706 -0.4470  0.0057
   92MOL0     C12050  -1.937   3.721   3.877  0.0724 -0.1704 -0.1340
   92MOL0     C12051  -2.074   3.701   3.802  0.7791  0.9088 -0.0649
   92MOL0     C12052  -2.107   3.550   3.786  0.3779 -0.5221 -0.9906
   92MOL0     C12053  -2.144   3.466   3.909  0.3853 -0.0725 -0.0415
   92MOL0     C12054  -2.193   3.323   3.875 -0.1310 -0.6733  0.5043
   92MOL0     C12055  -2.256   3.257   3.998 -0.1215  0.1151 -0.5611
   92MOL0    Cl12056  -2.263   3.078   3.967  0.3273  0.4196 -0.2139
   92MOL0     C12057  -1.543   4.152   3.996  0.6686 -1.1880 -0.2890
   92MOL0     C12058  -1.427   4.201   4.058 -0.0663  0.0223  0.0800
   92MOL0     O12059  -1.332   4.407   4.297 -0.6119  0.1155  0.0210
   92MOL0     C12060  -1.095   4.454   4.447 -0.0027 -0.8282  0.5755
   92MOL0     C12061  -0.969   4.468   4.516  0.1099  0.4362  0.2815
   92MOL0     N12062  -0.323   4.278   4.360  0.0840  0.4698  0.1768
   92MOL0     N12063  -0.225   4.343   4.301  0.4014 -0.2503  0.0273
   92MOL0     C12064   0.639   4.780   4.873 -0.6882 -0.1235 -1.4899
   92MOL0     C12065   0.749   4.718   4.930 -0.1825  0.2871 -0.3074
   92MOL0     C12066   1.144   4.569   5.067  0.5237  0.1112 -0.7957
   92MOL0     C12067   1.167   4.491   5.184  0.1943 -0.5023 -0.3651
   92MOL0     C12068   1.296   4.447   5.218 -0.0040 -0.8340 -0.8280
   92MOL0     C12069   1.403   4.482   5.129  0.1638  0.0983 -0.9919
   92MOL0     O12070   1.538   4.446   5.158  0.1094  0.8625  0.0980
   92MOL0     C12071   1.558   4.359   5.268 -0.1130 -0.4038  0.1837
   92MOL0     C12072   1.686   4.282   5.257 -0.2010 -0.3960  0.5328
   92MOL0     C12073   1.799   4.393   5.239 -0.4997  0.1454 -0.7953
   92MOL0     C12074   1.945   4.348   5.257 -1.1116  0.5305  0.3125
   92MOL0     C12075   2.038   4.460   5.285  0.0576  0.1243 -0.3622
   92MOL0     C12076   2.126   4.540   5.311 -0.2448  0.2514  0.2695
   92MOL0     C12077   1.373   4.565   5.016 -0.0469  0.1309  0.2388
   92MOL0     C12078   1.249   4.607   4.983  0.0887  0.5121  0.2750
   92MOL0     H12079   0.987   4.931   4.797  0.8268  0.0732  2.4937
   92MOL0     H12080   0.787   5.030   4.704  1.7066  0.5864 -0.9585
   92MOL0     H12081   0.400   4.821   4.694 -2.1095 -0.4638 -2.7710
   92MOL0     H12082   0.533   4.796   4.580 -0.4788  0.1924 -0.6735
   92MOL0     H12083   0.445   5.042   4.489 -1.5766  1.4733 -1.0546
   92MOL0     H12084   0.314   5.026   4.593 -0.1743  0.4480  0.7451
   92MOL0     H12085   0.397   4.817   4.369 -0.6530 -1.0197  1.4604
   92MOL0     H12086   0.284   4.950   4.348 -1.4302  0.6146  1.1618
   92MOL0     H12087   0.270   4.707   4.542  1.3937 -0.7087 -1.9746
   92MOL0     H12088   0.161   4.832   4.553  0.4612 -1.7611  3.2470
   92MOL0     H12089   0.176   4.620   4.335 -2.8788  0.8216 -3.6187
   92MOL0     H12090   0.148   4.781   4.274 -0.8480  0.7127 -0.8218
   92MOL0     H12091  -0.044   4.826   4.381  2.1827  1.0349 -0.8932
   92MOL0     H12092  -0.016   4.706   4.506  4.1686  0.7186  0.8346
   92MOL0     H12093  -0.182   4.631   4.343  0.3549  0.9313 -0.6279
   92MOL0     H12094  -0.056   4.620   4.217 -2.1525  2.1698 -0.5160
   92MOL0     H12095   0.029   4.482   4.453 -5.2071 -0.4054  3.4136
   92MOL0     H12096   0.026   4.429   4.277 -3.1595  3.5543 -4.0319
   92MOL0     H12097  -0.152   4.371   4.616 -1.0715  1.0381  0.5827
   92MOL0     H12098  -0.263   4.136   4.634  0.1028  0.1783  0.0985
   92MOL0     H12099  -0.412   4.111   4.546  0.9741  1.2418 -2.6718
   92MOL0     H12100  -0.361   4.297   4.781  1.7285  2.9457 -2.5315
   92MOL0     H12101  -0.472   4.164   4.768 -0.8477 -0.9656 -2.7343
   92MOL0     H12102  -0.560   4.421   4.742 -3.8820 -2.2424  1.1545
   92MOL0     H12103  -0.507   4.413   4.584  2.1537 -0.3437  0.8498
   92MOL0     H12104  -0.705   4.216   4.713  3.6380  0.9381  2.3396
   92MOL0     H12105  -0.653   4.207   4.553 -0.1631 -1.8069  2.0875
   92MOL0     H12106  -0.835   4.171   4.441  0.9999  0.8254  0.8861
   92MOL0     H12107  -1.030   4.142   4.335  3.3122  1.5909 -3.0972
   92MOL0     H12108  -1.483   4.023   4.347 -1.9964 -2.2560 -0.4632
   92MOL0     H12109  -1.665   3.937   4.231 -2.1155 -1.0377 -2.4764
   92MOL0     H12110  -1.806   3.861   4.070 -0.8641  1.7046 -0.0960
   92MOL0     H12111  -1.692   3.831   3.948  1.9020  3.0650 -0.0695
   92MOL0     H12112  -1.882   3.914   3.776  2.4382 -0.4891  0.2777
   92MOL0     H12113  -1.978   3.927   3.922 -0.8565 -2.1925 -0.1059
   92MOL0     H12114  -1.946   3.693   3.982 -1.0911 -0.4052 -0.2779
   92MOL0     H12115  -1.862   3.659   3.828 -0.8052 -1.3689  0.0106
   92MOL0     H12116  -2.151   3.761   3.852  0.5723  0.2264  0.4575
   92MOL0     H12117  -2.065   3.741   3.701  2.5665  0.1060 -0.2714
   92MOL0     H12118  -2.024   3.503   3.733  0.0559 -2.5702  0.1774
   92MOL0     H12119  -2.193   3.550   3.719  1.0974 -1.9679 -1.9631
   92MOL0     H12120  -2.217   3.520   3.970  1.5179  0.4857  0.8643
   92MOL0     H12121  -2.057   3.445   3.973  0.3604  1.3132  0.4723
   92MOL0     H12122  -2.269   3.315   3.796 -0.3678 -0.1479  0.6733
   92MOL0     H12123  -2.114   3.258   3.837 -1.6379 -1.4565 -1.5259
   92MOL0     H12124  -2.350   3.300   4.034  0.3957  1.0578 -0.3133
   92MOL0     H12125  -2.187   3.261   4.082  2.8510 -0.4490 -2.8332
   92MOL0     H12126  -1.575   4.181   3.897  0.8095  2.7884  0.6599
   92MOL0     H12127  -1.352   4.262   4.009  1.6831 -0.2380  2.2471
   92MOL0     H12128  -1.174   4.529   4.451 -0.2994 -1.1375  0.5329
   92MOL0     H12129  -0.956   4.563   4.567 -0.7163  0.3366  0.7066
   92MOL0     H12130   0.538   4.749   4.896 -0.0714 -2.2341 -1.4539
   92MOL0     H12131   0.730   4.635   4.997  1.8919 -0.0833 -0.0850
   92MOL0     H12132   1.088   4.480   5.258  0.5001 -0.7845 -0.0723
   92MOL0     H12133   1.307   4.381   5.303 -0.4008 -2.3227 -1.9118
   92MOL0     H12134   1.480   4.286   5.289  0.7106 -1.1384  0.7969
   92MOL0     H12135   1.565   4.419   5.360  1.3072 -0.4291  0.1177
   92MOL0     H12136   1.708   4.225   5.347 -1.0356 -2.8686 -0.7326
   92MOL0     H12137   1.675   4.208   5.177 -0.0088 -0.6557  0.7433
   92MOL0     H12138   1.772   4.475   5.308 -1.5859 -1.2806  0.5609
   92MOL0     H12139   1.791   4.436   5.139 -0.0112  0.3735 -0.7368
   92MOL0     H12140   1.943   4.283   5.345  1.5708  0.3202  0.3005
   92MOL0     H12141   1.976   4.295   5.167 -0.2418 -0.5458  1.2099
   92MOL0     H12142   2.199   4.618   5.323 -1.2928  0.8307  4.9410
   92MOL0     H12143   1.455   4.593   4.951  0.6858 -1.3545  0.4965
   92MOL0     H12144   1.233   4.674   4.898 -2.2735  0.0420  0.2837
   93MOL0     O12145  10.185   5.835  11.190  0.4070  0.6379  0.4328
   93MOL0     C12146  10.235   5.882  11.090 -0.9271  0.4752  0.6615
   93MOL0     O12147  10.246   5.820  10.965 -0.0283  0.6362 -0.5430
   93MOL0     C12148  10.196   5.684  10.957 -0.1302 -0.3115 -0.9624
   93MOL0     C12149  10.281   5.572  10.980  0.3889 -0.1006 -0.3639
   93MOL0     C12150  10.217   5.446  10.990 -0.0777 -0.2754 -0.4182
   93MOL0     C12151  10.082   5.428  10.994 -0.4350 -1.3091 -0.7685
   93MOL0     O12152  10.023   5.309  11.034  0.0332 -0.3804  0.5959
   93MOL0     C12153   9.925   5.333  11.132  0.5903 -0.1388 -0.6092
   93MOL0     C12154   9.817   5.229  11.090  0.0110 -0.2946 -0.9057
   93MOL0     C12155   9.693   5.262  11.167  0.3320  0.7790  0.7205
   93MOL0     C12156   9.566   5.192  11.101  0.5978 -0.3648 -0.6938
   93MOL0     C12157   9.435   5.224  11.182  0.1350 -0.2515  0.5248
   93MOL0     C12158   9.330   5.111  11.146 -0.1571 -0.1404 -0.1701
   93MOL0     C12159   9.271   5.129  11.005  0.0533 -0.9840 -0.0949
   93MOL0     C12160   9.173   5.020  10.962 -0.7161  0.4204 -0.5829
   93MOL0     N12161   9.044   5.024  11.038  0.1830  0.5753 -0.5942
   93MOL0     C12162   8.951   5.123  11.014 -0.0153  0.2475 -1.0258
   93MOL0     C12163   8.859   5.095  11.113  0.1635  0.8269 -0.0636
   93MOL0     C12164   8.729   5.163  11.118  0.9979 -0.4696  0.6670
   93MOL0     C12165   8.621   5.104  11.032 -0.0942  0.5805 -0.3622
   93MOL0     C12166   8.507   5.189  10.990  0.0766  0.0006  0.8514
   93MOL0     C12167   8.388   5.183  11.080  0.0639  0.1699 -0.0142
   93MOL0     O12168   8.323   5.054  11.060  0.4442 -0.1375 -0.9327
   93MOL0     C12169   8.204   5.032  11.128  0.1367  0.3427  0.0186
   93MOL0     C12170   8.135   4.921  11.085  0.0486  0.1126  0.3543
   93MOL0     C12171   8.009   4.898  11.135 -0.5785 -0.1537  0.5292
   93MOL0     C12172   7.963   4.971  11.250  0.2314 -0.1729  0.1716
   93MOL0     C12173   7.840   4.939  11.307  0.5103  0.4273 -0.0878
   93MOL0     O12174   7.772   4.839  11.249  0.7466  0.7476  0.1149
   93MOL0     C12175   7.662   4.790  11.327  1.1613 -0.6132  0.5482
   93MOL0     C12176   7.680   4.683  11.407  0.1673 -0.5663  0.1613
   93MOL0     C12177   7.573   4.621  11.471 -0.2854 -0.3466  0.5442
   93MOL0     C12178   7.440   4.670  11.457 -0.8085 -0.3557 -0.0043
   93MOL0     O12179   7.317   4.622  11.501  0.4290  0.1276 -0.3290
   93MOL0     C12180   7.318   4.479  11.531 -0.1618  0.5422 -0.0135
   93MOL0     C12181   7.173   4.447  11.531  0.8921  0.7638  0.7341
   93MOL0     C12182   7.153   4.297  11.553  0.2750  1.1938 -0.2159
   93MOL0     C12183   7.008   4.249  11.549  0.3693  0.7374  0.2079
   93MOL0     C12184   6.984   4.091  11.570 -0.3073 -0.1963  0.8892
   93MOL0     C12185   7.015   4.011  11.442 -0.3629 -0.1869  0.0641
   93MOL0     C12186   6.965   3.869  11.459  0.3041 -0.0997  0.5655
   93MOL0     C12187   7.020   3.778  11.346 -0.3465 -0.3264  0.3488
   93MOL0    Cl12188   7.185   3.744  11.382  0.0871  0.0466 -0.0934
   93MOL0     C12189   7.423   4.783  11.368 -0.1737 -0.2878 -1.1791
   93MOL0     C12190   7.534   4.844  11.307 -0.1522  0.7257 -0.4072
   93MOL0     O12191   7.803   5.004  11.408  0.0453  0.7761  0.6275
   93MOL0     C12192   8.035   5.074  11.299  0.2879  0.2525 -0.4611
   93MOL0     C12193   8.167   5.100  11.250 -0.7661 -0.1806 -0.8823
   93MOL0     N12194   8.894   4.975  11.178  0.1774 -0.4410 -0.1709
   93MOL0     N12195   9.002   4.936  11.132 -0.2583  0.1487  0.0487
   93MOL0     C12196  10.006   5.534  10.950  0.5005  0.0782  0.0449
   93MOL0     C12197  10.058   5.670  10.942 -0.3004  0.6145 -0.3015
   93MOL0     C12198  10.268   6.023  11.106 -0.3243  0.1045  1.1979
   93MOL0     C12199  10.337   6.095  11.013 -0.6014  0.4708  1.0226
   93MOL0     C12200  10.376   6.226  11.031 -0.0429  0.2255 -0.4058
   93MOL0     C12201  10.341   6.291  11.149 -0.3825 -0.6321  1.0276
   93MOL0     O12202  10.407   6.409  11.189  0.1446 -0.2139  0.0994
   93MOL0     C12203  10.489   6.487  11.100  0.7037 -0.6004 -0.4529
   93MOL0     C12204  10.443   6.630  11.111  0.0641  0.5367  0.0752
   93MOL0     C12205  10.562   6.715  11.068 -0.2621 -0.1989 -0.2383
   93MOL0     C12206  10.549   6.863  11.112 -0.0546  0.2522  0.3151
   93MOL0     C12207  10.568   6.873  11.260 -0.7284 -0.6298 -1.1440
   93MOL0     C12208  10.589   6.904  11.388 -0.2682 -0.5938  0.1317
   93MOL0     C12209  10.255   6.232  11.243  0.3511  0.9879  0.1513
   93MOL0     C12210  10.231   6.095  11.224  0.1577  0.3542  0.2823
   93MOL0     H12211  10.389   5.573  10.981  0.4389  2.8794  0.2923
   93MOL0     H12212  10.283   5.360  10.999 -1.1974 -1.5779 -3.2839
   93MOL0     H12213   9.889   5.437  11.133 -2.7658 -1.1751 -0.3810
   93MOL0     H12214   9.951   5.297  11.233  0.2541 -1.4577 -0.9743
   93MOL0     H12215   9.845   5.128  11.121  0.0006  0.4485  1.7395
   93MOL0     H12216   9.800   5.232  10.982  0.7196  2.3327 -1.0101
   93MOL0     H12217   9.679   5.368  11.143 -3.0358  0.5010  1.0733
   93MOL0     H12218   9.701   5.246  11.275  3.4850 -4.2247  0.1025
   93MOL0     H12219   9.549   5.228  10.999 -3.4624 -0.5571 -0.2442
   93MOL0     H12220   9.576   5.083  11.098  0.4647 -0.4773 -5.7157
   93MOL0     H12221   9.403   5.321  11.143 -2.2740 -2.0822 -2.5946
   93MOL0     H12222   9.453   5.215  11.289  2.5509 -0.7464  0.1275
   93MOL0     H12223   9.253   5.118  11.224  0.9826 -3.5929  1.5000
   93MOL0     H12224   9.375   5.012  11.158  0.4301  0.1023 -0.3306
   93MOL0     H12225   9.230   5.230  11.002  2.8851  0.3025  1.1715
   93MOL0     H12226   9.354   5.136  10.933  2.1251  1.2325  2.3020
   93MOL0     H12227   9.224   4.926  10.985  0.3344  1.2009  0.3856
   93MOL0     H12228   9.150   5.021  10.855 -1.1552  3.2833 -0.5539
   93MOL0     H12229   8.942   5.205  10.944  1.5908  0.1083 -1.4438
   93MOL0     H12230   8.745   5.268  11.089 -0.8614 -0.7758 -1.7782
   93MOL0     H12231   8.675   5.155  11.213 -1.0657 -1.1470 -0.4990
   93MOL0     H12232   8.588   5.020  11.093  1.9818  0.8317  1.2257
   93MOL0     H12233   8.670   5.055  10.947 -0.3024 -1.8574  0.8465
   93MOL0     H12234   8.546   5.290  10.980  4.2850 -1.6265 -1.3537
   93MOL0     H12235   8.481   5.156  10.889  1.8015  1.7545 -0.2357
   93MOL0     H12236   8.312   5.258  11.053 -0.1165 -0.9585 -2.9581
   93MOL0     H12237   8.420   5.188  11.184 -1.7426 -1.2976  0.6662
   93MOL0     H12238   8.182   4.859  11.010 -1.1923 -2.6582  1.7060
   93MOL0     H12239   7.944   4.821  11.094 -1.4389 -0.3392  2.1749
   93MOL0     H12240   7.781   4.650  11.428  0.4316  0.9741  1.5390
   93MOL0     H12241   7.600   4.526  11.516 -0.2319 -0.2769  0.6572
   93MOL0     H12242   7.361   4.451  11.628  2.6744 -1.2530 -1.6280
   93MOL0     H12243   7.371   4.417  11.459 -0.8805  1.3569 -1.2801
   93MOL0     H12244   7.126   4.471  11.434  0.1133 -0.3296  0.8207
   93MOL0     H12245   7.133   4.507  11.613  0.8173  1.0110  0.5190
   93MOL0     H12246   7.197   4.289  11.653 -0.6255  3.9808  0.4771
   93MOL0     H12247   7.220   4.231  11.497 -2.7262 -3.6952  1.2953
   93MOL0     H12248   6.948   4.318  11.608  1.1875  3.3733 -1.8578
   93MOL0     H12249   6.969   4.266  11.448  0.2854 -1.6609 -0.2417
   93MOL0     H12250   6.878   4.070  11.587 -0.6514  1.5324  1.0462
   93MOL0     H12251   7.049   4.050  11.649  5.2222  4.2550 -0.6775
   93MOL0     H12252   7.122   4.007  11.422 -0.7226 -1.6323 -1.8152
   93MOL0     H12253   6.960   4.057  11.360 -2.9941 -4.4879 -0.8723
   93MOL0     H12254   6.994   3.823  11.554 -1.5276  0.3097  1.3633
   93MOL0     H12255   6.857   3.859  11.450  0.5105 -1.7178 -0.4881
   93MOL0     H12256   7.009   3.823  11.247 -2.0450 -1.5426 -0.0555
   93MOL0     H12257   6.965   3.684  11.344  2.3351 -1.9860 -0.3167
   93MOL0     H12258   7.320   4.818  11.362 -0.7013 -1.5127  0.1059
   93MOL0     H12259   7.528   4.927  11.237  1.0703  1.1328 -0.0502
   93MOL0     H12260   7.999   5.134  11.382  1.7204 -2.6124  2.4204
   93MOL0     H12261   8.228   5.172  11.304 -2.5044 -0.4766  1.6362
   93MOL0     H12262   9.898   5.537  10.937  0.2542 -3.8346  0.1020
   93MOL0     H12263   9.984   5.746  10.922  0.6363  1.5449 -0.3313
   93MOL0     H12264  10.361   6.056  10.914 -2.4739  1.7752 -0.0131
   93MOL0     H12265  10.455   6.268  10.969  0.0813  0.2012 -0.2625
   93MOL0     H12266  10.496   6.460  10.994 -1.1195  1.2248 -1.1188
   93MOL0     H12267  10.587   6.493  11.148  0.3187 -1.7642  0.5295
   93MOL0     H12268  10.353   6.650  11.052 -2.3041  1.4187  3.6396
   93MOL0     H12269  10.418   6.650  11.216 -2.8333 -3.2121  0.3031
   93MOL0     H12270  10.581   6.714  10.960 -0.0746  0.8545 -0.2229
   93MOL0     H12271  10.656   6.682  11.113  0.2281  3.5034  1.8622
   93MOL0     H12272  10.625   6.920  11.058 -0.1340  0.1148  0.0577
   93MOL0     H12273  10.455   6.910  11.080  1.3699  3.2069  0.1582
   93MOL0     H12274  10.605   6.933  11.489  1.1496  0.5748 -0.3879
   93MOL0     H12275  10.238   6.275  11.341 -4.2467  2.4590 -1.0487
   93MOL0     H12276  10.179   6.044  11.304 -1.1707  1.5170  0.2018
   94MOL0     O12277  11.032   4.443   5.168 -0.2221 -0.4173  0.0018
   94MOL0     C12278  11.113   4.520   5.226 -0.4577  0.3809  0.1259
   94MOL0     O12279  11.080   4.638   5.292 -0.1252 -0.8932 -0.2164
   94MOL0     C12280  10.947   4.653   5.298  0.2266  0.3476  1.1441
   94MOL0     C12281  10.893   4.762   5.229 -0.2034  0.1558  0.7998
   94MOL0     C12282  10.762   4.797   5.244  0.5127  0.2845 -0.7141
   94MOL0     C12283  10.666   4.720   5.317  0.5574 -0.0036  0.4716
   94MOL0     O12284  10.549   4.765   5.294 -0.2276 -0.1985  0.4262
   94MOL0     C12285  10.486   4.804   5.419 -0.3640  0.6732 -0.1384
   94MOL0     C12286  10.341   4.854   5.380 -0.3115  0.2992 -0.5652
   94MOL0     C12287  10.263   4.862   5.509  0.6968  0.1193  0.2463
   94MOL0     C12288  10.123   4.911   5.469 -0.1573 -0.1756  0.1156
   94MOL0     C12289  10.027   4.910   5.588  0.0688 -0.0378 -0.3322
   94MOL0     C12290   9.882   4.965   5.562  0.6279  0.9503 -0.0697
   94MOL0     C12291   9.875   5.101   5.498 -0.4538 -1.3384 -0.7947
   94MOL0     C12292   9.747   5.162   5.527 -0.6868 -0.2634 -0.5096
   94MOL0     N12293   9.720   5.269   5.423 -0.4182 -0.2887  0.5566
   94MOL0     C12294   9.803   5.371   5.392 -0.9619  0.9144 -0.3960
   94MOL0     C12295   9.726   5.443   5.312 -0.4587  0.5111  0.3100
   94MOL0     C12296   9.765   5.590   5.279  0.4176 -0.1575  0.5786
   94MOL0     C12297   9.899   5.606   5.194 -0.2495  0.2929  0.0420
   94MOL0     C12298  10.030   5.603   5.283 -0.2315  0.4968  0.7383
   94MOL0     C12299  10.153   5.654   5.211 -1.1997 -0.4241 -0.0359
   94MOL0     O12300  10.257   5.641   5.309  0.3237  0.7818 -0.2818
   94MOL0     C12301  10.381   5.656   5.270 -0.3560 -0.3804 -0.6943
   94MOL0     C12302  10.476   5.590   5.339  0.2738 -0.7276  0.2134
   94MOL0     C12303  10.610   5.610   5.309 -0.2999  0.1108 -0.1837
   94MOL0     C12304  10.659   5.697   5.206 -0.3985 -0.4726 -0.3377
   94MOL0     C12305  10.795   5.690   5.160 -0.1000 -0.1990 -0.1020
   94MOL0     O12306  10.828   5.753   5.046  0.6208 -0.1511 -0.4753
   94MOL0     C12307  10.940   5.712   4.984  0.4272  0.4585  0.7219
   94MOL0     C12308  11.042   5.811   4.965 -0.4598  0.3458 -0.3932
   94MOL0     C12309  11.161   5.780   4.898 -0.9219  0.7685  0.4481
   94MOL0     C12310  11.173   5.647   4.838  0.6652 -0.3871  0.1433
   94MOL0     O12311  11.296   5.630   4.772  0.5638  0.5592 -0.0741
   94MOL0     C12312  11.331   5.494   4.719  0.0913  0.0956  0.9670
   94MOL0     C12313  11.467   5.499   4.658  0.2675 -0.6565  0.1135
   94MOL0     C12314  11.466   5.594   4.536  0.0769 -0.9688  0.7534
   94MOL0     C12315  11.599   5.601   4.459 -0.0101 -0.3377  0.2393
   94MOL0     C12316  11.611   5.723   4.363 -0.9565  0.1889 -0.8979
   94MOL0     C12317  11.748   5.755   4.306 -0.1927  0.4126  0.7633
   94MOL0     C12318  11.778   5.669   4.174  0.1280 -0.1158 -0.3256
   94MOL0     C12319  11.924   5.666   4.153  0.8291  0.1892 -0.5259
   94MOL0    Cl12320  11.984   5.821   4.068  0.1458  0.2528 -0.1150
   94MOL0     C12321  11.072   5.552   4.860 -0.3472 -0.4618 -0.6323
   94MOL0     C12322  10.955   5.580   4.939 -0.3963 -0.2261  0.0139
   94MOL0     O12323  10.879   5.636   5.232 -0.1205 -0.6398 -0.3221
   94MOL0     C12324  10.560   5.755   5.126  0.6032  0.5259 -0.1649
   94MOL0     C12325  10.419   5.724   5.153  0.2720  0.3117  1.3264
   94MOL0     N12326   9.610   5.385   5.280 -0.2870 -0.6351 -1.4148
   94MOL0     N12327   9.609   5.271   5.348  0.1447 -0.4402  0.2920
   94MOL0     C12328  10.711   4.604   5.384  0.4306 -0.3859 -0.6927
   94MOL0     C12329  10.848   4.570   5.370 -0.9728 -0.3593 -0.1540
   94MOL0     C12330  11.256   4.477   5.236  0.1962 -0.4018 -0.3621
   94MOL0     C12331  11.343   4.535   5.330  0.1560  0.1425  0.9066
   94MOL0     C12332  11.480   4.515   5.329 -0.6471  0.1328  0.5168
   94MOL0     C12333  11.535   4.418   5.239  0.0037  0.3268 -0.2593
   94MOL0     O12334  11.670   4.390   5.219 -0.0972  0.8690  0.0376
   94MOL0     C12335  11.753   4.487   5.262  0.1336 -0.0815  0.5444
   94MOL0     C12336  11.895   4.454   5.233 -0.4843  0.8427 -0.2530
   94MOL0     C12337  11.920   4.311   5.300 -0.3048 -0.6712 -0.5031
   94MOL0     C12338  12.069   4.272   5.301 -0.3043  0.4348 -0.3402
   94MOL0     C12339  12.140   4.293   5.174  1.2332  0.2707 -0.4210
   94MOL0     C12340  12.169   4.336   5.065  0.4599  0.2600  0.5071
   94MOL0     C12341  11.445   4.352   5.156  0.4916 -0.1407  0.9732
   94MOL0     C12342  11.306   4.374   5.158 -0.5899 -0.8586 -0.4362
   94MOL0     H12343  10.962   4.810   5.161 -1.2938 -1.9092 -1.9331
   94MOL0     H12344  10.724   4.887   5.197  1.7501  1.9888  1.3422
   94MOL0     H12345  10.548   4.876   5.473 -0.5659  1.9980 -1.5922
   94MOL0     H12346  10.469   4.719   5.486 -0.9881  0.8541 -0.0522
   94MOL0     H12347  10.286   4.789   5.312  1.0901 -1.3766 -0.1700
   94MOL0     H12348  10.364   4.954   5.344  2.6737 -0.2708 -0.4720
   94MOL0     H12349  10.312   4.934   5.576  1.2907  0.7819 -0.8637
   94MOL0     H12350  10.248   4.764   5.554 -0.4585  0.2225  0.1265
   94MOL0     H12351  10.130   5.013   5.430  1.4983  0.8497  2.8224
   94MOL0     H12352  10.081   4.849   5.389 -1.5161  1.3011 -0.3535
   94MOL0     H12353  10.065   4.963   5.676 -0.5282  2.6238 -1.5872
   94MOL0     H12354  10.018   4.803   5.613  1.2161 -0.3216 -1.0312
   94MOL0     H12355   9.832   4.958   5.659  1.4316  0.2987  0.3164
   94MOL0     H12356   9.841   4.895   5.489  2.2582 -0.2140  0.0678
   94MOL0     H12357   9.954   5.164   5.540  1.5711 -4.6202  0.6721
   94MOL0     H12358   9.892   5.089   5.390 -0.6475 -0.5256 -0.9233
   94MOL0     H12359   9.729   5.208   5.625  1.0149  1.9471 -1.1648
   94MOL0     H12360   9.667   5.088   5.517 -2.4697  1.6692 -1.0554
   94MOL0     H12361   9.904   5.386   5.431 -0.8787  2.2676 -1.1012
   94MOL0     H12362   9.756   5.647   5.372 -0.4840 -3.7978  2.9279
   94MOL0     H12363   9.691   5.630   5.209  1.9338  0.0453 -0.9870
   94MOL0     H12364   9.882   5.704   5.148 -1.2286  1.1119  2.0060
   94MOL0     H12365   9.896   5.531   5.115  0.7346  2.9598 -2.6996
   94MOL0     H12366  10.012   5.661   5.374  2.7486  0.9009  1.1949
   94MOL0     H12367  10.059   5.499   5.303 -0.7866  0.4000  1.0556
   94MOL0     H12368  10.133   5.757   5.179 -1.1428 -0.4594 -0.1907
   94MOL0     H12369  10.174   5.586   5.127  0.8795  3.1205 -2.7058
   94MOL0     H12370  10.443   5.526   5.420 -2.3750 -2.5422 -2.1149
   94MOL0     H12371  10.674   5.550   5.373 -1.9755 -2.3041 -0.6105
   94MOL0     H12372  11.020   5.916   4.982 -3.0569 -0.0933 -0.5263
   94MOL0     H12373  11.241   5.851   4.877  3.5335 -2.9761  2.9391
   94MOL0     H12374  11.262   5.464   4.640 -0.5235 -0.0528  1.5473
   94MOL0     H12375  11.319   5.424   4.803 -1.6836 -1.0013 -0.1247
   94MOL0     H12376  11.496   5.397   4.633  0.5752  0.1656 -3.5301
   94MOL0     H12377  11.530   5.537   4.738  1.0020  0.3189 -0.8913
   94MOL0     H12378  11.438   5.694   4.571  0.6896 -0.4589 -0.1778
   94MOL0     H12379  11.381   5.561   4.476 -1.5284  0.5399  2.0666
   94MOL0     H12380  11.682   5.598   4.530 -0.5439  0.2695  0.8957
   94MOL0     H12381  11.601   5.508   4.400 -1.9567 -0.0041 -0.4306
   94MOL0     H12382  11.579   5.815   4.412  2.0320  0.2040  1.2732
   94MOL0     H12383  11.529   5.696   4.296 -1.6019 -2.6356  0.8597
   94MOL0     H12384  11.820   5.724   4.383 -0.9523 -2.2730  0.5088
   94MOL0     H12385  11.753   5.863   4.289 -2.8227  0.6740  1.2108
   94MOL0     H12386  11.742   5.568   4.197  1.7011 -0.6881 -0.2407
   94MOL0     H12387  11.738   5.714   4.083  1.7533 -0.9720 -1.5136
   94MOL0     H12388  11.948   5.577   4.095 -3.0802 -2.6479  1.6830
   94MOL0     H12389  11.967   5.652   4.253 -2.5806 -1.2154  0.9048
   94MOL0     H12390  11.083   5.455   4.813  0.5610 -1.8147  2.1703
   94MOL0     H12391  10.874   5.507   4.939  1.1831 -2.0901 -0.8114
   94MOL0     H12392  10.583   5.809   5.035  1.0455  0.4143 -0.1222
   94MOL0     H12393  10.351   5.779   5.089  1.2290  1.9576  1.6548
   94MOL0     H12394  10.638   4.546   5.440 -0.7285  0.0803 -1.6561
   94MOL0     H12395  10.881   4.476   5.414 -1.5832 -0.9332 -0.8931
   94MOL0     H12396  11.297   4.610   5.394  0.0677 -1.1750  2.4518
   94MOL0     H12397  11.549   4.567   5.395  1.1813 -0.5588 -0.7708
   94MOL0     H12398  11.749   4.495   5.371  1.8998 -1.5185  0.7416
   94MOL0     H12399  11.715   4.572   5.203  0.4308 -1.4705 -1.7503
   94MOL0     H12400  11.913   4.448   5.125  1.6642  0.4333  0.0832
   94MOL0     H12401  11.964   4.524   5.281  2.5442 -3.6329  2.6601
   94MOL0     H12402  11.876   4.233   5.237  0.4334 -2.3638  1.0037
   94MOL0     H12403  11.881   4.304   5.402  0.6462 -4.1967 -0.2571
   94MOL0     H12404  12.128   4.333   5.370  2.1142  1.1766 -2.8375
   94MOL0     H12405  12.075   4.170   5.340 -0.6470 -0.6724 -2.9204
   94MOL0     H12406  12.190   4.385   4.971  0.3806  0.1529  0.4324
   94MOL0     H12407  11.496   4.276   5.097  1.4878  1.5344 -0.3852
   94MOL0     H12408  11.228   4.340   5.090 -2.7795  1.5673  0.6536
   95MOL0     O12409   9.090   0.772   4.182 -0.3963 -0.6937  0.3556
   95MOL0     C12410   9.128   0.710   4.279  0.2026 -0.5536  0.0946
   95MOL0     O12411   9.048   0.657   4.380  0.3908  0.3187 -0.1760
   95MOL0     C12412   8.920   0.693   4.388  0.0890 -0.1766 -0.0703
   95MOL0     C12413   8.885   0.762   4.504 -0.5446  0.7208  0.7657
   95MOL0     C12414   8.748   0.804   4.525  0.2971  0.4486 -0.4791
   95MOL0     C12415   8.654   0.774   4.424 -0.5017  0.3794  0.4422
   95MOL0     O12416   8.522   0.804   4.442 -0.3714  0.8271  0.2993
   95MOL0     C12417   8.460   0.744   4.567  0.0119 -0.2609 -0.0909
   95MOL0     C12418   8.306   0.773   4.568  0.6529 -0.1689  0.2915
   95MOL0     C12419   8.242   0.703   4.691 -0.7364  0.2057  0.3397
   95MOL0     C12420   8.089   0.688   4.682  0.7035  0.0503 -0.0352
   95MOL0     C12421   8.035   0.592   4.799  0.6113 -1.2743  0.3410
   95MOL0     C12422   7.985   0.668   4.921 -0.0506  0.4259 -0.1036
   95MOL0     C12423   7.863   0.760   4.907  0.4533 -0.7903  0.4532
   95MOL0     C12424   7.729   0.690   4.878 -0.1977  0.0923  0.2374
   95MOL0     N12425   7.715   0.575   4.966 -0.1632  0.2999 -0.1114
   95MOL0     C12426   7.688   0.588   5.100 -0.5301  0.5307 -0.3129
   95MOL0     C12427   7.726   0.466   5.154 -0.8549  0.1354  0.9232
   95MOL0     C12428   7.703   0.438   5.299  0.3566  0.2488 -0.1283
   95MOL0     C12429   7.562   0.368   5.310 -0.0732  0.3901  0.0695
   95MOL0     C12430   7.538   0.225   5.259 -0.2456  0.0505  0.1056
   95MOL0     C12431   7.650   0.132   5.306  0.2536 -0.6752  0.6390
   95MOL0     O12432   7.663   0.132   5.449 -0.2708 -0.4844  0.7481
   95MOL0     C12433   7.561   0.063   5.511 -0.6833  0.1300  0.9597
   95MOL0     C12434   7.546  -0.071   5.490  0.3295  0.8430 -0.1856
   95MOL0     C12435   7.453  -0.147   5.566  0.3938  0.2039 -0.0007
   95MOL0     C12436   7.373  -0.083   5.665  0.4970 -0.0488  0.8554
   95MOL0     C12437   7.258  -0.152   5.722 -0.3944  0.7140 -0.6199
   95MOL0     O12438   7.174  -0.083   5.808 -0.6375 -0.2595 -0.1526
   95MOL0     C12439   7.068  -0.144   5.867  0.1092  0.3273  0.1512
   95MOL0     C12440   6.942  -0.145   5.805 -0.2835  0.7756  0.1711
   95MOL0     C12441   6.832  -0.191   5.870 -0.2383  0.0933  0.4184
   95MOL0     C12442   6.848  -0.250   5.995  0.1899 -0.1286  0.6003
   95MOL0     O12443   6.734  -0.290   6.054 -0.7500  0.0136  0.3637
   95MOL0     C12444   6.744  -0.412   6.133 -0.0918 -0.4324  0.5395
   95MOL0     C12445   6.602  -0.476   6.139  0.6455 -0.1691  0.5281
   95MOL0     C12446   6.509  -0.403   6.236 -0.1493 -0.1604  0.6151
   95MOL0     C12447   6.542  -0.389   6.380 -1.1100 -0.4780 -0.0905
   95MOL0     C12448   6.424  -0.412   6.479 -0.0919 -0.4820  0.4135
   95MOL0     C12449   6.322  -0.303   6.499 -1.3162  0.3419  0.5471
   95MOL0     C12450   6.201  -0.361   6.576 -0.3528  0.8186 -0.2210
   95MOL0     C12451   6.104  -0.251   6.623 -1.4732  0.5287  0.2715
   95MOL0    Cl12452   6.109  -0.232   6.800 -0.2596  0.3347 -0.3290
   95MOL0     C12453   6.970  -0.255   6.063 -0.2378  0.2072  1.3248
   95MOL0     C12454   7.076  -0.198   5.995 -0.3948  0.4441 -0.4279
   95MOL0     O12455   7.254  -0.271   5.698 -0.0114 -0.2984 -0.6275
   95MOL0     C12456   7.400   0.055   5.689  0.3154 -0.3784  0.6100
   95MOL0     C12457   7.497   0.119   5.618  0.7969 -0.0438  0.7261
   95MOL0     N12458   7.777   0.386   5.049  1.2488 -0.0247  0.9861
   95MOL0     N12459   7.750   0.444   4.938  0.4739 -0.3780  0.4955
   95MOL0     C12460   8.689   0.708   4.304 -0.1060 -0.0437  0.3842
   95MOL0     C12461   8.828   0.662   4.290 -0.4369  0.0940  0.2158
   95MOL0     C12462   9.278   0.716   4.306 -0.5459  0.4700  0.1377
   95MOL0     C12463   9.356   0.820   4.254  0.2838  0.5341  0.4128
   95MOL0     C12464   9.493   0.844   4.286 -0.0328 -1.0389  0.0661
   95MOL0     C12465   9.560   0.743   4.351 -1.2289  0.6683  1.0954
   95MOL0     O12466   9.698   0.749   4.336 -0.6026 -0.5863  0.6831
   95MOL0     C12467   9.778   0.653   4.398 -0.3046  0.0040 -0.2929
   95MOL0     C12468   9.914   0.710   4.434  0.5750  0.9078 -0.0155
   95MOL0     C12469   9.985   0.605   4.515 -0.2044  1.3041 -0.8684
   95MOL0     C12470  10.059   0.493   4.437  1.0624 -0.6714 -0.9491
   95MOL0     C12471  10.161   0.544   4.350  0.2094  0.1635  0.1020
   95MOL0     C12472  10.240   0.587   4.266  0.3958 -0.2813  0.9638
   95MOL0     C12473   9.487   0.638   4.409  0.8507  0.3152 -0.1484
   95MOL0     C12474   9.348   0.627   4.389 -0.0024  0.0707 -1.0658
   95MOL0     H12475   8.961   0.784   4.579 -0.5856  2.1722  0.4152
   95MOL0     H12476   8.718   0.848   4.619 -0.1774  0.3273 -0.5668
   95MOL0     H12477   8.513   0.791   4.650  2.5747 -1.9008 -0.6555
   95MOL0     H12478   8.483   0.637   4.575  2.8424  0.3593  1.6539
   95MOL0     H12479   8.268   0.739   4.471  0.8443  0.2865  0.0550
   95MOL0     H12480   8.286   0.880   4.577 -1.1761 -0.2336 -2.0803
   95MOL0     H12481   8.265   0.770   4.774 -0.1919 -1.9444  2.0216
   95MOL0     H12482   8.290   0.606   4.703  1.1550  1.1684  0.9623
   95MOL0     H12483   8.044   0.788   4.685 -0.5063 -0.3810 -2.0650
   95MOL0     H12484   8.061   0.648   4.584 -1.4626 -1.0712  0.9983
   95MOL0     H12485   8.113   0.522   4.828 -0.6704 -0.7123  6.7013
   95MOL0     H12486   7.954   0.531   4.757  0.1200 -1.5111  1.5924
   95MOL0     H12487   8.066   0.732   4.957  0.6242 -0.5820  0.2134
   95MOL0     H12488   7.955   0.600   5.002 -3.3013  0.9853 -0.6866
   95MOL0     H12489   7.841   0.813   5.000 -1.9368 -1.2867  0.2471
   95MOL0     H12490   7.886   0.832   4.829 -0.8680 -0.3523  0.4397
   95MOL0     H12491   7.716   0.662   4.773 -0.3178  0.6022  0.1146
   95MOL0     H12492   7.654   0.768   4.893  0.5545  0.9071 -0.1739
   95MOL0     H12493   7.658   0.676   5.156  1.5360  0.1853  1.4960
   95MOL0     H12494   7.697   0.532   5.354  0.6999 -0.8921  1.9814
   95MOL0     H12495   7.780   0.374   5.343  0.9730  0.6681 -0.5916
   95MOL0     H12496   7.477   0.421   5.267 -1.1951 -1.3752  0.0004
   95MOL0     H12497   7.540   0.356   5.416  0.5571 -3.1975 -0.0923
   95MOL0     H12498   7.435   0.196   5.283 -0.9273  2.5366  0.4304
   95MOL0     H12499   7.545   0.238   5.151  0.4125  0.1628  0.1559
   95MOL0     H12500   7.745   0.168   5.267  0.4396 -2.2781 -0.4779
   95MOL0     H12501   7.645   0.028   5.274  3.3601 -1.5956  2.7787
   95MOL0     H12502   7.604  -0.124   5.415  0.3041 -1.2007  1.1725
   95MOL0     H12503   7.433  -0.248   5.533  5.4918 -1.0522 -0.0739
   95MOL0     H12504   6.919  -0.101   5.708 -3.7231  0.2152  0.6046
   95MOL0     H12505   6.732  -0.183   5.828 -0.7114  0.2541  1.5493
   95MOL0     H12506   6.789  -0.386   6.230  1.5440  1.0244 -0.5557
   95MOL0     H12507   6.800  -0.487   6.077 -0.8412  0.4685 -1.5031
   95MOL0     H12508   6.618  -0.573   6.186 -0.2758 -0.0241  1.1675
   95MOL0     H12509   6.550  -0.492   6.044  0.7640 -1.4769  0.6688
   95MOL0     H12510   6.410  -0.448   6.228 -1.7493  3.1274 -0.0974
   95MOL0     H12511   6.487  -0.302   6.199 -2.7424 -0.9673 -0.2201
   95MOL0     H12512   6.625  -0.458   6.396  1.7840  2.2956 -1.7610
   95MOL0     H12513   6.573  -0.289   6.411 -2.4917 -0.7033  2.2340
   95MOL0     H12514   6.472  -0.428   6.576  4.1827  3.0365 -0.7915
   95MOL0     H12515   6.358  -0.489   6.439 -3.2286  2.9208 -1.5671
   95MOL0     H12516   6.280  -0.268   6.405 -0.0416  1.6816  0.4493
   95MOL0     H12517   6.366  -0.216   6.549  1.8107 -1.1406  0.6683
   95MOL0     H12518   6.156  -0.425   6.499 -1.2172  0.5958  0.4649
   95MOL0     H12519   6.243  -0.420   6.658  2.1088 -0.3922 -2.2062
   95MOL0     H12520   6.001  -0.274   6.595 -2.1789  1.4348  1.9824
   95MOL0     H12521   6.122  -0.160   6.566  2.5119  0.2135  0.7521
   95MOL0     H12522   6.988  -0.287   6.165  2.5437  0.6922  1.0441
   95MOL0     H12523   7.170  -0.207   6.050 -0.0755  0.3301 -0.9903
   95MOL0     H12524   7.337   0.108   5.760  0.0913  1.7686 -1.0892
   95MOL0     H12525   7.513   0.226   5.630 -1.7327  0.4669  0.1104
   95MOL0     H12526   8.623   0.684   4.222  1.7471 -0.9982 -0.8992
   95MOL0     H12527   8.847   0.597   4.205 -1.2359  2.9315 -2.2894
   95MOL0     H12528   9.313   0.885   4.178 -1.4420 -0.1722  0.7563
   95MOL0     H12529   9.537   0.933   4.244 -1.1761 -0.7674 -0.6067
   95MOL0     H12530   9.790   0.569   4.328  0.7076  0.4176 -0.6353
   95MOL0     H12531   9.726   0.609   4.483  0.2723 -0.2380 -0.0646
   95MOL0     H12532   9.962   0.745   4.342  1.6214 -1.2330 -0.3291
   95MOL0     H12533   9.913   0.804   4.490  0.6875  0.5589  0.5719
   95MOL0     H12534   9.921   0.561   4.592  2.8134 -0.5499  0.8051
   95MOL0     H12535  10.064   0.651   4.575 -0.2224 -0.9051  1.0135
   95MOL0     H12536  10.094   0.424   4.514 -3.2328 -2.9330 -0.7345
   95MOL0     H12537   9.994   0.430   4.376  0.0353 -1.1583  0.5867
   95MOL0     H12538  10.327   0.609   4.207  0.1318 -0.3590  0.5471
   95MOL0     H12539   9.521   0.547   4.456 -0.9837  0.0699  0.8014
   95MOL0     H12540   9.309   0.535   4.432  0.5963  0.4588  0.3879
   96MOL0     O12541   3.592   0.891   9.158 -0.0844 -0.0053 -0.6321
   96MOL0     C12542   3.584   0.793   9.081  0.2483  0.4225  0.0667
   96MOL0     O12543   3.468   0.727   9.037  0.9945 -0.7893  0.4019
   96MOL0     C12544   3.353   0.798   9.082  0.5141  0.1313  0.0503
   96MOL0     C12545   3.254   0.751   9.164 -0.2893  0.9911 -0.0783
   96MOL0     C12546   3.140   0.823   9.198 -0.7143 -1.0027 -0.0296
   96MOL0     C12547   3.119   0.946   9.134 -0.0657  0.3032  0.4336
   96MOL0     O12548   2.999   0.996   9.158  0.3596 -0.1316  0.3851
   96MOL0     C12549   2.955   1.095   9.062 -0.1733 -0.2589 -0.3081
   96MOL0     C12550   2.816   1.153   9.106 -0.0822  0.5874  0.1480
   96MOL0     C12551   2.695   1.063   9.077  0.5116  0.5103  0.8572
   96MOL0     C12552   2.561   1.150   9.074 -0.5872  0.3325  0.8648
   96MOL0     C12553   2.437   1.071   9.032  0.2252  0.0662  0.0463
   96MOL0     C12554   2.314   1.169   9.054  0.4683 -0.2559  0.2604
   96MOL0     C12555   2.299   1.296   8.957 -0.5483  0.6886  0.3780
   96MOL0     C12556   2.180   1.391   8.974 -0.2633 -0.2133  0.4013
   96MOL0     N12557   2.197   1.514   8.901 -0.6857 -0.1861  0.6405
   96MOL0     C12558   2.261   1.533   8.775  1.1593  0.4971 -0.0965
   96MOL0     C12559   2.276   1.665   8.761  0.3734  0.0202  0.1869
   96MOL0     C12560   2.343   1.739   8.653  0.1569 -0.2532 -0.0494
   96MOL0     C12561   2.255   1.793   8.548  0.2564 -0.2079  0.0572
   96MOL0     C12562   2.135   1.879   8.596 -0.4375 -0.2823 -0.1352
   96MOL0     C12563   2.168   2.023   8.631 -0.2033 -0.3999  0.0544
   96MOL0     O12564   2.221   2.101   8.518 -0.2961  0.0743  0.3981
   96MOL0     C12565   2.354   2.113   8.484  0.2435 -0.3364  0.5390
   96MOL0     C12566   2.386   2.112   8.350  0.7057  0.0527 -0.0453
   96MOL0     C12567   2.518   2.134   8.303 -0.3379  0.3024 -0.1711
   96MOL0     C12568   2.624   2.142   8.394 -0.3143 -0.9368  0.0113
   96MOL0     C12569   2.766   2.178   8.348 -0.4048 -0.3398 -0.4457
   96MOL0     O12570   2.859   2.213   8.443 -0.6796 -0.0281 -0.2467
   96MOL0     C12571   2.985   2.258   8.406  0.4822  0.2164 -0.0724
   96MOL0     C12572   3.009   2.392   8.411 -0.9636  0.1276 -0.4331
   96MOL0     C12573   3.139   2.435   8.383  0.5238  0.0113  1.0313
   96MOL0     C12574   3.251   2.351   8.352  0.6972 -0.4917 -0.4079
   96MOL0     O12575   3.382   2.391   8.326 -0.7000  0.5515 -0.1772
   96MOL0     C12576   3.425   2.530   8.339  0.1015 -0.0072  0.1637
   96MOL0     C12577   3.576   2.536   8.332  0.1582 -0.5897  0.1837
   96MOL0     C12578   3.651   2.455   8.447 -0.1089 -0.5128  0.9333
   96MOL0     C12579   3.792   2.509   8.438  0.7532  0.0425  0.3889
   96MOL0     C12580   3.881   2.436   8.536 -0.4988  0.2556  0.5105
   96MOL0     C12581   4.035   2.453   8.517 -0.7156 -0.2679 -0.4756
   96MOL0     C12582   4.076   2.599   8.511  0.3075 -0.2730  0.5666
   96MOL0     C12583   4.225   2.616   8.501  0.2794 -0.2766  0.3328
   96MOL0    Cl12584   4.294   2.535   8.353 -0.1206 -0.3138  0.1838
   96MOL0     C12585   3.222   2.213   8.342 -0.6171  0.1987 -0.1142
   96MOL0     C12586   3.092   2.164   8.371  0.1183 -0.2984 -0.2654
   96MOL0     O12587   2.794   2.175   8.233 -0.0852 -0.0188 -0.2694
   96MOL0     C12588   2.594   2.138   8.537  0.3492  0.5720 -0.1883
   96MOL0     C12589   2.457   2.123   8.577  0.2186  0.4145 -0.7404
   96MOL0     N12590   2.216   1.728   8.871  0.3725  0.3029 -0.3133
   96MOL0     N12591   2.189   1.636   8.961 -0.9834  0.0086 -0.0231
   96MOL0     C12592   3.216   0.990   9.043  0.5727 -0.1782  0.0346
   96MOL0     C12593   3.337   0.925   9.028  0.4171 -0.5460  1.6154
   96MOL0     C12594   3.704   0.727   9.030 -0.1970 -0.2054 -0.2131
   96MOL0     C12595   3.829   0.778   9.081  0.1024 -0.6657  0.8536
   96MOL0     C12596   3.946   0.723   9.028 -0.2305  0.1646 -0.0820
   96MOL0     C12597   3.948   0.618   8.934 -0.1184 -0.2186  0.4343
   96MOL0     O12598   4.070   0.560   8.919  0.8348 -0.0990  0.4267
   96MOL0     C12599   4.082   0.430   8.842 -0.7825  0.1180 -0.1281
   96MOL0     C12600   4.233   0.408   8.869 -0.1977 -0.5023 -0.3016
   96MOL0     C12601   4.269   0.266   8.801  0.7232  0.6413  0.0563
   96MOL0     C12602   4.348   0.280   8.674 -0.3712  0.7530  0.4009
   96MOL0     C12603   4.288   0.341   8.556  0.0127 -0.0681 -0.1244
   96MOL0     C12604   4.239   0.410   8.464 -0.0941 -1.2581 -0.5191
   96MOL0     C12605   3.821   0.573   8.886 -0.0321  0.3648 -0.8969
   96MOL0     C12606   3.705   0.619   8.939  0.2195 -0.3257  0.7829
   96MOL0     H12607   3.274   0.655   9.211  0.9986 -0.6742 -3.6064
   96MOL0     H12608   3.069   0.780   9.268 -0.9573  0.1207  0.4418
   96MOL0     H12609   2.955   1.050   8.963  1.7448 -2.0590  0.4357
   96MOL0     H12610   3.028   1.178   9.061 -2.4165  1.8410 -2.4928
   96MOL0     H12611   2.801   1.243   9.045  0.7646 -0.1165 -1.1513
   96MOL0     H12612   2.815   1.185   9.210 -2.7240  2.3049 -0.2948
   96MOL0     H12613   2.688   0.986   9.154  0.2910  0.0665  0.4055
   96MOL0     H12614   2.702   1.009   8.982 -1.6244 -1.3065  1.6206
   96MOL0     H12615   2.555   1.191   9.176  1.9852  0.0211  1.2165
   96MOL0     H12616   2.580   1.232   9.004  0.3483 -1.1332 -0.6648
   96MOL0     H12617   2.426   0.972   9.078 -2.6856 -0.1896 -0.9797
   96MOL0     H12618   2.446   1.045   8.927  3.3495  1.9674 -0.2987
   96MOL0     H12619   2.323   1.204   9.158  2.7954 -1.0134  0.3869
   96MOL0     H12620   2.229   1.101   9.042 -0.1236  0.3352  1.0441
   96MOL0     H12621   2.394   1.351   8.962  0.8053 -1.1285 -2.6756
   96MOL0     H12622   2.303   1.252   8.857  3.7817 -2.1044  1.5039
   96MOL0     H12623   2.174   1.414   9.081 -1.4452 -0.2029  0.3507
   96MOL0     H12624   2.087   1.351   8.931  0.6115  0.4575 -2.2665
   96MOL0     H12625   2.296   1.456   8.708  1.5013 -0.7822  1.4757
   96MOL0     H12626   2.426   1.680   8.613  1.4043  0.1417  1.8267
   96MOL0     H12627   2.384   1.827   8.704  1.3549 -0.1662 -1.1066
   96MOL0     H12628   2.208   1.707   8.500 -2.2533  0.3078  1.4290
   96MOL0     H12629   2.326   1.838   8.479  1.1340 -3.8334 -1.6515
   96MOL0     H12630   2.065   1.882   8.512 -1.7757 -1.7598  0.8604
   96MOL0     H12631   2.076   1.831   8.675 -1.2060 -0.5814 -0.8769
   96MOL0     H12632   2.226   2.022   8.724 -1.2090  0.4001  0.7056
   96MOL0     H12633   2.076   2.072   8.662  1.2871  0.7394  3.1257
   96MOL0     H12634   2.298   2.114   8.287  1.4965  1.8671 -1.1752
   96MOL0     H12635   2.540   2.143   8.197 -0.6620  0.9726 -0.1822
   96MOL0     H12636   2.926   2.454   8.444 -0.9283 -0.2661  0.4118
   96MOL0     H12637   3.157   2.542   8.386  1.6864  0.0235 -2.3912
   96MOL0     H12638   3.398   2.582   8.432  2.2219  0.8982  0.3246
   96MOL0     H12639   3.382   2.584   8.255  0.1099 -3.0720 -1.9801
   96MOL0     H12640   3.603   2.642   8.334  2.3023 -1.0817 -0.2275
   96MOL0     H12641   3.603   2.489   8.237 -1.6403  0.6754 -1.0151
   96MOL0     H12642   3.653   2.348   8.426  1.2190 -0.4511  0.6629
   96MOL0     H12643   3.605   2.472   8.545 -2.4967 -2.9137  0.3374
   96MOL0     H12644   3.831   2.493   8.337 -2.9195 -1.2327 -0.9917
   96MOL0     H12645   3.776   2.612   8.468 -2.1520 -0.5568  1.1734
   96MOL0     H12646   3.848   2.332   8.533 -2.0259  0.7474 -0.8394
   96MOL0     H12647   3.854   2.476   8.635 -0.8060 -0.3715  0.6850
   96MOL0     H12648   4.057   2.394   8.428  1.7864  0.8204 -0.6804
   96MOL0     H12649   4.085   2.404   8.602  0.3165  0.1615 -0.8209
   96MOL0     H12650   4.016   2.639   8.429 -1.0203 -3.9764 -0.4462
   96MOL0     H12651   4.045   2.639   8.608 -1.3552 -2.8392  1.1826
   96MOL0     H12652   4.265   2.562   8.587 -1.5616 -2.1257  0.0919
   96MOL0     H12653   4.255   2.720   8.515  0.7637 -0.5026  1.0005
   96MOL0     H12654   3.310   2.158   8.309  0.6918  2.5870 -0.8593
   96MOL0     H12655   3.082   2.056   8.367 -1.6813 -0.1549 -0.2317
   96MOL0     H12656   2.663   2.132   8.621 -1.6289 -4.3944  1.4530
   96MOL0     H12657   2.434   2.124   8.683  2.9329  1.1684 -0.0750
   96MOL0     H12658   3.195   1.083   8.990  1.1539  2.3000  3.7344
   96MOL0     H12659   3.418   0.944   8.958 -0.1341 -0.5326  0.9702
   96MOL0     H12660   3.848   0.862   9.149  0.6832  1.1176 -1.3775
   96MOL0     H12661   4.037   0.772   9.061 -1.6643  2.3089  0.8649
   96MOL0     H12662   4.067   0.448   8.735  2.9366  3.7872 -0.3015
   96MOL0     H12663   4.010   0.354   8.872  0.4951 -1.3769 -0.7274
   96MOL0     H12664   4.292   0.487   8.823 -0.6635  0.7419  1.1604
   96MOL0     H12665   4.256   0.413   8.975 -0.1457  3.3857 -0.3512
   96MOL0     H12666   4.181   0.206   8.778  1.7725 -0.6013 -0.9086
   96MOL0     H12667   4.324   0.207   8.875 -1.0671  0.5236  1.3622
   96MOL0     H12668   4.431   0.346   8.700 -0.0401  0.1094  0.9741
   96MOL0     H12669   4.397   0.187   8.645  1.7643  1.7746  0.4941
   96MOL0     H12670   4.191   0.470   8.390  0.7715  1.0466  0.6814
   96MOL0     H12671   3.820   0.506   8.801 -0.3644 -1.7021  0.6473
   96MOL0     H12672   3.609   0.580   8.907  1.3457 -0.2377 -3.3348
   97MOL0     O12673   0.498   7.707   7.993  0.0773 -1.0282  0.2826
   97MOL0     C12674   0.489   7.611   7.920  0.2771  0.5739 -0.7963
   97MOL0     O12675   0.371   7.551   7.875 -0.9331 -0.3576  0.9142
   97MOL0     C12676   0.248   7.583   7.917 -0.0562  0.3090  0.5804
   97MOL0     C12677   0.141   7.536   7.834 -0.2679 -0.1754  0.6139
   97MOL0     C12678   0.014   7.578   7.856  0.6320  0.3865  0.7121
   97MOL0     C12679  -0.014   7.662   7.965 -0.5174 -0.1624 -0.0440
   97MOL0     O12680  -0.131   7.726   7.956 -0.0426 -0.3031  0.0784
   97MOL0     C12681  -0.163   7.834   8.053  0.0862  0.0093  0.6809
   97MOL0     C12682  -0.313   7.864   8.053  0.4885 -0.3708 -0.3025
   97MOL0     C12683  -0.404   7.747   8.076  0.1150  0.1885  1.0907
   97MOL0     C12684  -0.534   7.781   8.147 -0.0041 -0.3133  0.1108
   97MOL0     C12685  -0.631   7.665   8.138 -0.1100 -0.1810  0.7869
   97MOL0     C12686  -0.774   7.697   8.189  0.2747  0.6324  0.2184
   97MOL0     C12687  -0.871   7.575   8.174 -0.1801 -0.3717 -0.2188
   97MOL0     C12688  -0.968   7.578   8.296  0.1129  0.2080  1.1748
   97MOL0     N12689  -1.069   7.470   8.297 -0.3320  0.2358 -0.9925
   97MOL0     C12690  -1.195   7.479   8.231 -0.2220  0.1536 -0.6652
   97MOL0     C12691  -1.262   7.364   8.272 -1.0185 -0.5020  0.4250
   97MOL0     C12692  -1.394   7.336   8.224  0.5113 -0.6615 -0.2082
   97MOL0     C12693  -1.491   7.410   8.318 -0.0652 -0.8407  0.1455
   97MOL0     C12694  -1.637   7.343   8.322 -0.7687  0.3079 -0.0274
   97MOL0     C12695  -1.681   7.286   8.187  0.2540 -0.0388  0.1079
   97MOL0     O12696  -1.828   7.267   8.184  0.2088  0.2815  0.9326
   97MOL0     C12697  -1.903   7.351   8.114  1.0367  0.3830  0.9530
   97MOL0     C12698  -2.005   7.304   8.032  0.2558  0.5251 -0.7585
   97MOL0     C12699  -2.092   7.391   7.968  0.3734  0.1047  0.3702
   97MOL0     C12700  -2.080   7.530   7.988 -0.7608  0.2725 -0.0625
   97MOL0     C12701  -2.173   7.618   7.912  0.0297 -0.1486 -0.0240
   97MOL0     O12702  -2.155   7.753   7.891  0.0721  0.9359  0.1230
   97MOL0     C12703  -2.255   7.825   7.834  0.4755 -0.6864  0.7071
   97MOL0     C12704  -2.379   7.843   7.908 -0.0931  1.0493  0.5096
   97MOL0     C12705  -2.481   7.920   7.849 -0.6398  0.7275 -0.2545
   97MOL0     C12706  -2.472   7.973   7.722 -0.7209 -0.6348 -0.5383
   97MOL0     O12707  -2.581   8.042   7.677 -0.3645 -0.4160  0.3650
   97MOL0     C12708  -2.588   8.042   7.536  0.1425  0.4691  0.4522
   97MOL0     C12709  -2.720   8.100   7.504  0.3094  0.2392 -0.2186
   97MOL0     C12710  -2.832   8.014   7.545 -0.1795  0.6068  0.2126
   97MOL0     C12711  -2.974   8.059   7.514  0.3092  0.0602 -0.1077
   97MOL0     C12712  -3.069   7.947   7.541  0.2190  0.3942  0.2920
   97MOL0     C12713  -3.216   8.001   7.536  0.0388 -0.6464 -0.2146
   97MOL0     C12714  -3.318   7.898   7.591  0.2078  0.2532  0.2878
   97MOL0     C12715  -3.443   7.909   7.498  0.3423  0.5095  0.4180
   97MOL0    Cl12716  -3.597   7.876   7.591  0.1440  0.5446 -0.4575
   97MOL0     C12717  -2.344   7.965   7.663 -0.1265  0.0037 -0.0070
   97MOL0     C12718  -2.239   7.887   7.713 -0.7461 -0.7149 -0.4745
   97MOL0     O12719  -2.262   7.555   7.863  0.8285 -0.3407  0.4851
   97MOL0     C12720  -1.982   7.579   8.081 -0.0959  0.0078  0.8265
   97MOL0     C12721  -1.899   7.491   8.137 -0.1159  0.7762 -0.5958
   97MOL0     N12722  -1.174   7.298   8.356 -0.3079 -0.5867 -0.9269
   97MOL0     N12723  -1.060   7.360   8.369  0.8795 -0.0487  0.0029
   97MOL0     C12724   0.089   7.701   8.053 -0.1585  0.0967 -0.4334
   97MOL0     C12725   0.220   7.661   8.033  0.1362  0.0624  0.5012
   97MOL0     C12726   0.623   7.551   7.881  0.0379 -0.0068  0.0778
   97MOL0     C12727   0.746   7.623   7.897  0.4214 -0.3102  1.0245
   97MOL0     C12728   0.868   7.561   7.872  0.2467 -0.7216  0.4851
   97MOL0     C12729   0.878   7.435   7.822  0.1456  0.0458 -0.3762
   97MOL0     O12730   1.006   7.382   7.794  0.0217 -0.0083 -0.1803
   97MOL0     C12731   1.027   7.243   7.781 -0.2977  0.4109  0.5281
   97MOL0     C12732   1.175   7.229   7.759 -0.2416 -0.5647  0.9222
   97MOL0     C12733   1.235   7.098   7.809  0.2777 -0.5937  0.4071
   97MOL0     C12734   1.387   7.095   7.764  0.7297  0.5713 -0.2534
   97MOL0     C12735   1.455   6.975   7.814 -0.2708  0.8291 -0.1007
   97MOL0     C12736   1.517   6.874   7.836 -0.2728 -0.0604  0.1597
   97MOL0     C12737   0.752   7.368   7.791 -0.0980 -0.4023 -0.1945
   97MOL0     C12738   0.627   7.425   7.818 -0.2269 -0.4470  0.6366
   97MOL0     H12739   0.160   7.472   7.748  2.2873  0.0956  0.8855
   97MOL0     H12740  -0.069   7.535   7.802 -0.2289 -1.0841  3.0638
   97MOL0     H12741  -0.123   7.930   8.021 -2.2254  1.0698  0.7588
   97MOL0     H12742  -0.125   7.804   8.151 -0.8077  0.2978  1.1297
   97MOL0     H12743  -0.342   7.913   7.960 -1.6997  0.5802  0.8187
   97MOL0     H12744  -0.327   7.941   8.130  0.1243  1.9720 -2.5594
   97MOL0     H12745  -0.347   7.670   8.128  0.4099 -0.2393  0.1638
   97MOL0     H12746  -0.424   7.703   7.977  0.1656  2.4699 -0.0052
   97MOL0     H12747  -0.514   7.796   8.254 -1.7225  1.6356  0.2404
   97MOL0     H12748  -0.588   7.868   8.107  0.7637 -0.9416 -2.4806
   97MOL0     H12749  -0.583   7.587   8.199  1.0252  1.3715  1.9667
   97MOL0     H12750  -0.638   7.635   8.033  1.0296  2.3812 -0.0866
   97MOL0     H12751  -0.815   7.784   8.137 -2.6253 -1.7683 -1.9193
   97MOL0     H12752  -0.756   7.740   8.287  3.8675  2.3450 -1.0294
   97MOL0     H12753  -0.916   7.574   8.074 -1.1102  0.3475  0.1766
   97MOL0     H12754  -0.814   7.483   8.185 -1.5802 -1.2182  0.3012
   97MOL0     H12755  -1.024   7.670   8.275  0.1839 -0.1562 -0.7545
   97MOL0     H12756  -0.903   7.571   8.384  0.2356 -0.9150  1.0041
   97MOL0     H12757  -1.223   7.561   8.166  0.7506  2.1636  1.3307
   97MOL0     H12758  -1.404   7.228   8.231  1.5156 -0.7114  0.5048
   97MOL0     H12759  -1.419   7.363   8.121  0.7633 -1.7279 -0.5568
   97MOL0     H12760  -1.495   7.516   8.290  1.4533 -1.2665 -1.8567
   97MOL0     H12761  -1.457   7.408   8.422 -0.7005 -2.1215  0.3462
   97MOL0     H12762  -1.632   7.260   8.393  3.0567  1.8899  1.8143
   97MOL0     H12763  -1.706   7.422   8.353  0.2377  1.0698  0.3355
   97MOL0     H12764  -1.638   7.187   8.172 -0.7897 -0.1959 -2.3509
   97MOL0     H12765  -1.644   7.355   8.110  4.7628 -2.3848 -0.1564
   97MOL0     H12766  -1.994   7.197   8.019  0.9392  0.1164  2.4008
   97MOL0     H12767  -2.150   7.347   7.887  1.0684 -0.8794  0.3863
   97MOL0     H12768  -2.405   7.807   8.007 -0.1996 -1.7445 -0.4432
   97MOL0     H12769  -2.579   7.915   7.895 -1.5652 -1.5164 -2.2524
   97MOL0     H12770  -2.580   7.945   7.486  0.0337  0.4911  0.3928
   97MOL0     H12771  -2.512   8.110   7.495  1.4664 -0.4639  1.2519
   97MOL0     H12772  -2.724   8.117   7.396 -0.5835 -1.2964 -0.4412
   97MOL0     H12773  -2.722   8.200   7.550  1.8201 -0.0079  0.4578
   97MOL0     H12774  -2.827   7.980   7.648  2.5700 -1.2218 -0.3903
   97MOL0     H12775  -2.818   7.921   7.488  1.0555  2.4414 -2.7027
   97MOL0     H12776  -3.012   8.144   7.571 -0.5227  1.5861 -2.7609
   97MOL0     H12777  -2.990   8.086   7.410 -0.0857 -1.2790 -0.4118
   97MOL0     H12778  -3.051   7.905   7.640  0.0449  0.2598  0.2666
   97MOL0     H12779  -3.049   7.860   7.478  2.4569  1.4463 -0.5758
   97MOL0     H12780  -3.245   8.035   7.437 -0.5115  0.8713  0.4438
   97MOL0     H12781  -3.223   8.087   7.603 -1.1260 -0.0569 -1.0682
   97MOL0     H12782  -3.260   7.806   7.575  3.4617  2.0895  0.6252
   97MOL0     H12783  -3.343   7.899   7.697 -3.0872 -1.9708 -0.3313
   97MOL0     H12784  -3.439   7.848   7.408  0.8453  1.0625  0.0555
   97MOL0     H12785  -3.460   8.010   7.459 -1.6970 -0.9362 -2.8684
   97MOL0     H12786  -2.335   8.003   7.561 -0.0887  1.2957  0.4688
   97MOL0     H12787  -2.141   7.885   7.666  0.8218  1.2056  2.4640
   97MOL0     H12788  -1.970   7.686   8.097  0.1553  0.4706 -1.8429
   97MOL0     H12789  -1.817   7.515   8.202  0.1089 -1.8300  0.1956
   97MOL0     H12790   0.075   7.758   8.145  1.3474 -2.2984  1.3918
   97MOL0     H12791   0.294   7.694   8.105  0.5134 -0.1259  0.2036
   97MOL0     H12792   0.745   7.720   7.945  1.5812  0.2886 -0.1023
   97MOL0     H12793   0.954   7.627   7.877 -1.2614  1.5487 -1.4464
   97MOL0     H12794   0.979   7.205   7.690 -1.1904  1.8042  0.3905
   97MOL0     H12795   0.988   7.191   7.869 -2.6934 -1.6457 -1.5700
   97MOL0     H12796   1.197   7.228   7.652  1.8270 -1.8312  1.3028
   97MOL0     H12797   1.222   7.315   7.806  2.4242 -0.0625 -2.3247
   97MOL0     H12798   1.185   7.008   7.773 -0.3313  0.2283 -0.8780
   97MOL0     H12799   1.248   7.106   7.918  3.2320  0.1785  0.0680
   97MOL0     H12800   1.389   7.113   7.656  1.0860  1.7923 -0.0582
   97MOL0     H12801   1.430   7.189   7.799 -0.4117  0.2232  2.3900
   97MOL0     H12802   1.568   6.783   7.860  0.3479  0.3673  0.4773
   97MOL0     H12803   0.755   7.272   7.741  3.9604  0.0851 -1.2690
   97MOL0     H12804   0.534   7.373   7.795  0.2958 -1.9490  1.8243
   98MOL0     O12805   3.183   0.023   5.828  0.0853  0.1158 -0.6012
   98MOL0     C12806   3.209  -0.090   5.786  0.5829  0.1508  0.4852
   98MOL0     O12807   3.125  -0.187   5.763 -0.2868 -0.3343  0.0018
   98MOL0     C12808   2.991  -0.159   5.769 -0.0369  1.3728 -0.0884
   98MOL0     C12809   2.921  -0.259   5.842 -0.0400  0.6498 -0.7927
   98MOL0     C12810   2.790  -0.241   5.880 -1.1493  0.4660  0.6382
   98MOL0     C12811   2.715  -0.123   5.832 -1.3321  1.0738 -0.1272
   98MOL0     O12812   2.587  -0.118   5.852  0.2499 -0.1457 -0.2256
   98MOL0     C12813   2.518  -0.236   5.888  0.2754 -0.0132 -0.3723
   98MOL0     C12814   2.374  -0.204   5.844  0.0475  0.3718 -0.0447
   98MOL0     C12815   2.356  -0.202   5.696  1.1555  0.4138  0.0603
   98MOL0     C12816   2.207  -0.213   5.683  0.5410  0.5564  0.3969
   98MOL0     C12817   2.170  -0.225   5.538  0.2300  0.6054  0.5010
   98MOL0     C12818   2.053  -0.132   5.489  0.7464  0.8155  0.4507
   98MOL0     C12819   2.082   0.011   5.508  0.2206  0.4338  0.1343
   98MOL0     C12820   2.022   0.098   5.400  0.1088  0.1963 -0.2827
   98MOL0     N12821   1.873   0.108   5.412 -0.0638  0.0419 -0.4625
   98MOL0     C12822   1.808   0.190   5.507 -0.0258 -0.4139  0.2467
   98MOL0     C12823   1.683   0.172   5.461  0.5674  0.6869  0.0932
   98MOL0     C12824   1.567   0.241   5.533 -0.7583  1.3940  0.0315
   98MOL0     C12825   1.422   0.209   5.478 -0.9200  0.2055  0.2430
   98MOL0     C12826   1.311   0.301   5.541  0.2488  0.8860  0.0149
   98MOL0     C12827   1.303   0.277   5.692  0.9069  0.2728 -0.0417
   98MOL0     O12828   1.282   0.138   5.702 -0.5881  0.8325  0.3201
   98MOL0     C12829   1.173   0.092   5.768  1.2185 -0.7615 -0.9990
   98MOL0     C12830   1.144   0.125   5.902  0.6088 -0.6066  0.0223
   98MOL0     C12831   1.028   0.084   5.962  0.2112  0.2041 -0.9759
   98MOL0     C12832   0.941   0.001   5.893 -0.0952 -0.6289  0.1539
   98MOL0     C12833   0.816  -0.051   5.959 -0.4860 -0.3558 -0.3997
   98MOL0     O12834   0.752  -0.144   5.879  0.1205 -0.2920 -0.1528
   98MOL0     C12835   0.623  -0.186   5.923 -0.1939 -0.2156 -0.5880
   98MOL0     C12836   0.503  -0.137   5.856  0.6196  0.3500 -0.1077
   98MOL0     C12837   0.378  -0.187   5.889  0.5324 -0.5095  0.4144
   98MOL0     C12838   0.363  -0.272   5.999 -0.3712 -0.0547 -0.5609
   98MOL0     O12839   0.235  -0.310   6.024  0.7142 -0.2662 -0.2959
   98MOL0     C12840   0.216  -0.423   6.114  0.0958 -0.7509 -0.0827
   98MOL0     C12841   0.227  -0.376   6.260 -0.3956  0.4584  0.0131
   98MOL0     C12842   0.175  -0.474   6.364  0.0394  0.3330  0.1239
   98MOL0     C12843   0.241  -0.496   6.497  0.0260 -0.3912  0.1343
   98MOL0     C12844   0.154  -0.574   6.596 -0.6354  0.0676 -0.2850
   98MOL0     C12845   0.162  -0.730   6.571 -0.1135  0.1754 -0.1665
   98MOL0     C12846   0.125  -0.821   6.694  1.4140 -0.3242  0.2982
   98MOL0     C12847  -0.018  -0.792   6.741 -0.7950 -0.0313  0.4779
   98MOL0    Cl12848  -0.060  -0.899   6.871 -0.1695  0.1830  0.1708
   98MOL0     C12849   0.476  -0.324   6.060 -0.1600 -0.5206  0.2488
   98MOL0     C12850   0.604  -0.279   6.028 -0.4678 -0.9818  0.6487
   98MOL0     O12851   0.788  -0.012   6.071  0.5457  0.4848  0.1811
   98MOL0     C12852   0.969  -0.038   5.763 -0.1179  0.5653  0.5114
   98MOL0     C12853   1.082   0.005   5.708 -0.7768  0.4954  0.7844
   98MOL0     N12854   1.673   0.073   5.354  0.3254 -0.6087  0.3006
   98MOL0     N12855   1.792   0.031   5.331  0.0083  0.5340  0.9169
   98MOL0     C12856   2.789  -0.030   5.766 -0.3621 -0.5954  0.2823
   98MOL0     C12857   2.922  -0.049   5.730 -0.4056 -0.0277 -0.9826
   98MOL0     C12858   3.350  -0.122   5.762 -0.1869 -0.1253 -0.2205
   98MOL0     C12859   3.454  -0.022   5.793  0.9763 -0.1740  0.9052
   98MOL0     C12860   3.581  -0.055   5.782 -0.1473  0.1254  0.3674
   98MOL0     C12861   3.620  -0.183   5.740 -0.5299  0.5406  0.0946
   98MOL0     O12862   3.751  -0.200   5.733  0.1975 -0.2602  0.8592
   98MOL0     C12863   3.808  -0.324   5.683  0.1201  0.3696  0.2628
   98MOL0     C12864   3.933  -0.338   5.757  0.2743  0.7382  0.4944
   98MOL0     C12865   4.008  -0.460   5.685 -0.3262  0.2193 -0.6194
   98MOL0     C12866   4.136  -0.498   5.757 -0.5871  0.1293 -0.7375
   98MOL0     C12867   4.252  -0.413   5.721 -1.5319  1.1970  0.4336
   98MOL0     C12868   4.350  -0.337   5.704  0.9887 -0.0146  0.5062
   98MOL0     C12869   3.520  -0.274   5.699 -0.3582 -0.5742  0.0596
   98MOL0     C12870   3.389  -0.246   5.706  0.1899 -0.3724  0.6681
   98MOL0     H12871   2.976  -0.346   5.877  1.6687  1.5057 -1.2059
   98MOL0     H12872   2.745  -0.330   5.923 -1.4098 -0.8573 -2.1521
   98MOL0     H12873   2.536  -0.243   5.995  3.2023  2.8593 -0.5163
   98MOL0     H12874   2.556  -0.316   5.823 -0.4611  0.4728 -1.4320
   98MOL0     H12875   2.341  -0.112   5.893  0.5002  0.3125  0.3907
   98MOL0     H12876   2.324  -0.286   5.895  0.0780  1.2718  1.5082
   98MOL0     H12877   2.404  -0.291   5.653 -1.5562 -0.5946 -1.0960
   98MOL0     H12878   2.398  -0.117   5.643  1.4680  0.8275  0.9552
   98MOL0     H12879   2.177  -0.306   5.732 -0.3565  0.3809 -0.4521
   98MOL0     H12880   2.157  -0.129   5.733  1.3765  2.1722 -1.3833
   98MOL0     H12881   2.138  -0.328   5.521 -0.3540  0.9390 -0.5071
   98MOL0     H12882   2.250  -0.198   5.468 -0.6387  0.2358 -0.6584
   98MOL0     H12883   1.966  -0.151   5.553  2.9682  2.1998  4.2429
   98MOL0     H12884   2.028  -0.153   5.385 -2.4882  0.5826  1.1541
   98MOL0     H12885   2.039   0.064   5.594  1.7993  1.1195  0.5477
   98MOL0     H12886   2.187   0.041   5.520 -0.6067  3.0169  1.8432
   98MOL0     H12887   2.049   0.056   5.303  1.2300 -1.0486  0.5363
   98MOL0     H12888   2.073   0.195   5.404 -2.0995  1.3878  1.3909
   98MOL0     H12889   1.849   0.261   5.579  2.0861 -0.1708 -1.1031
   98MOL0     H12890   1.566   0.350   5.534 -0.8458  1.4938  3.6350
   98MOL0     H12891   1.565   0.205   5.637  2.3271  1.5198  0.2367
   98MOL0     H12892   1.409   0.100   5.484  2.5831 -0.2884  1.0965
   98MOL0     H12893   1.425   0.244   5.375  2.2310 -1.1172 -0.2522
   98MOL0     H12894   1.322   0.407   5.513 -0.2111  0.7550 -0.7117
   98MOL0     H12895   1.221   0.278   5.482  2.7242 -2.3025 -2.9522
   98MOL0     H12896   1.214   0.329   5.730 -2.3654 -3.3198 -2.0733
   98MOL0     H12897   1.391   0.317   5.743 -0.1853  1.4888  0.9674
   98MOL0     H12898   1.215   0.181   5.963 -2.0047  0.8763  1.8956
   98MOL0     H12899   1.014   0.116   6.065  1.9987 -1.1120 -0.2840
   98MOL0     H12900   0.513  -0.058   5.782  0.6788  2.0264  1.5922
   98MOL0     H12901   0.288  -0.153   5.839 -0.5650 -0.9557  1.9971
   98MOL0     H12902   0.291  -0.501   6.096  0.8491 -0.2103  0.6148
   98MOL0     H12903   0.117  -0.467   6.100 -1.1475 -0.1326  4.7371
   98MOL0     H12904   0.177  -0.280   6.279  2.0787  1.4648  1.9592
   98MOL0     H12905   0.331  -0.353   6.282 -0.3237 -0.0410  0.2058
   98MOL0     H12906   0.162  -0.573   6.318 -2.2911  0.2005  0.9461
   98MOL0     H12907   0.073  -0.435   6.371 -1.6540 -3.3556 -1.1891
   98MOL0     H12908   0.344  -0.535   6.491  0.2274  0.2618 -0.8467
   98MOL0     H12909   0.256  -0.398   6.544  3.2812 -0.6018 -0.2214
   98MOL0     H12910   0.050  -0.542   6.580 -0.3431  1.2543  0.1108
   98MOL0     H12911   0.182  -0.557   6.701 -1.9957 -2.3197  0.5470
   98MOL0     H12912   0.265  -0.760   6.548  1.3246  0.6569  4.4765
   98MOL0     H12913   0.098  -0.751   6.485  1.1295  0.4916 -1.2059
   98MOL0     H12914   0.128  -0.929   6.675  0.4465 -0.4286  0.6791
   98MOL0     H12915   0.191  -0.806   6.781 -1.2761  0.0430  2.3912
   98MOL0     H12916  -0.093  -0.808   6.663  0.9655 -2.6776 -0.8114
   98MOL0     H12917  -0.031  -0.692   6.784 -2.0726 -0.3931  0.9628
   98MOL0     H12918   0.473  -0.398   6.139 -2.6756  1.6419  2.3714
   98MOL0     H12919   0.691  -0.324   6.074 -0.8186 -1.3608  0.9487
   98MOL0     H12920   0.916  -0.113   5.706  0.3011  0.6349  0.0208
   98MOL0     H12921   1.107  -0.034   5.610 -2.4762 -1.9185  1.2315
   98MOL0     H12922   2.731   0.059   5.744 -0.3554 -0.3812  1.0922
   98MOL0     H12923   2.968   0.041   5.690 -1.4363  0.9705  0.0168
   98MOL0     H12924   3.419   0.073   5.832 -0.1150 -1.2161  2.6198
   98MOL0     H12925   3.661   0.016   5.800  0.0875  0.0374 -0.2793
   98MOL0     H12926   3.833  -0.319   5.576  3.0778  0.5980  0.8636
   98MOL0     H12927   3.746  -0.412   5.696  1.3183 -0.9960 -2.4305
   98MOL0     H12928   3.990  -0.246   5.741 -0.7183  0.8467 -3.5736
   98MOL0     H12929   3.915  -0.353   5.864  0.5959 -0.4655  0.3971
   98MOL0     H12930   4.032  -0.434   5.581  0.8567 -3.5901 -1.4814
   98MOL0     H12931   3.939  -0.545   5.684  1.2656 -1.1741  1.0885
   98MOL0     H12932   4.124  -0.477   5.864  1.1278  2.7900 -0.9699
   98MOL0     H12933   4.167  -0.601   5.741  0.2457  0.3674 -0.7349
   98MOL0     H12934   4.442  -0.282   5.698  1.3441 -0.7279 -1.4165
   98MOL0     H12935   3.552  -0.363   5.647  3.7443  1.2474 -0.9057
   98MOL0     H12936   3.318  -0.319   5.667  0.3473  0.0296 -0.3821
   99MOL0     O12937   8.064   7.097   1.386 -0.1722 -0.6973 -1.4825
   99MOL0     C12938   8.130   7.072   1.284  0.7191  0.2369 -0.1821
   99MOL0     O12939   8.094   6.983   1.190 -0.7857 -0.0578  0.0616
   99MOL0     C12940   7.971   6.916   1.206 -0.2826  0.1166 -0.8124
   99MOL0     C12941   7.969   6.773   1.198 -0.4640  0.3215  0.6532
   99MOL0     C12942   7.864   6.696   1.237  0.5794 -0.2813 -0.4046
   99MOL0     C12943   7.738   6.756   1.260  0.7623  0.5638  0.6690
   99MOL0     O12944   7.624   6.683   1.292  0.1047  0.0626 -0.3014
   99MOL0     C12945   7.633   6.545   1.336  0.4610 -0.1367 -0.8720
   99MOL0     C12946   7.506   6.492   1.405  0.4058 -0.3090  0.6037
   99MOL0     C12947   7.406   6.417   1.317 -1.3619  0.5504  0.0604
   99MOL0     C12948   7.368   6.480   1.182 -0.4633  0.3908  0.3888
   99MOL0     C12949   7.265   6.391   1.108 -0.3417  0.0643  0.5667
   99MOL0     C12950   7.121   6.421   1.146  0.2091  0.2359 -0.4231
   99MOL0     C12951   7.018   6.315   1.103 -0.5419 -0.1979 -0.6223
   99MOL0     C12952   6.885   6.338   1.179  0.5040 -0.5778  0.2962
   99MOL0     N12953   6.786   6.237   1.133 -0.6738  0.0721  0.4355
   99MOL0     C12954   6.675   6.276   1.073 -0.0414  0.2810 -0.0634
   99MOL0     C12955   6.596   6.171   1.055  0.3312 -0.7859 -1.0191
   99MOL0     C12956   6.458   6.163   1.008 -0.4408 -0.1990  0.0210
   99MOL0     C12957   6.412   6.287   0.928 -0.2257 -0.7592  0.2046
   99MOL0     C12958   6.283   6.250   0.845 -0.4334 -0.5646  0.6341
   99MOL0     C12959   6.159   6.215   0.924 -0.0190 -0.2479 -0.3049
   99MOL0     O12960   6.175   6.092   0.998 -0.8544  0.7451 -0.6402
   99MOL0     C12961   6.108   5.978   0.952 -1.0953 -0.1770 -0.3272
   99MOL0     C12962   6.181   5.859   0.960 -0.3264 -0.2424  0.6353
   99MOL0     C12963   6.111   5.737   0.932 -1.3747 -0.0634 -0.8479
   99MOL0     C12964   5.975   5.730   0.915  0.2230 -0.0369  0.3191
   99MOL0     C12965   5.915   5.597   0.907  0.6657  0.5271 -0.5543
   99MOL0     O12966   5.783   5.594   0.887 -0.0784 -0.3097  0.3113
   99MOL0     C12967   5.702   5.484   0.910 -0.3981  0.1517 -0.1034
   99MOL0     C12968   5.733   5.346   0.894 -0.4598  0.3609  0.2730
   99MOL0     C12969   5.630   5.250   0.903 -0.7605  0.0484 -0.6117
   99MOL0     C12970   5.499   5.289   0.944  0.1197 -1.0931 -0.0683
   99MOL0     O12971   5.388   5.209   0.951  0.1719 -0.3123 -0.1520
   99MOL0     C12972   5.403   5.068   0.910  0.0774 -0.4546 -0.6535
   99MOL0     C12973   5.280   4.983   0.966 -0.6221 -0.5595 -0.3781
   99MOL0     C12974   5.176   4.967   0.863 -0.4793 -0.2232 -0.2073
   99MOL0     C12975   5.091   4.842   0.873  0.1844  0.3091  0.2402
   99MOL0     C12976   4.973   4.844   0.782 -0.4320  0.6928  0.1288
   99MOL0     C12977   4.889   4.723   0.789  0.2154  0.6582 -0.5980
   99MOL0     C12978   4.820   4.700   0.921 -0.3386  0.4770  0.0005
   99MOL0     C12979   4.690   4.634   0.907  0.2562 -0.2467  0.2411
   99MOL0    Cl12980   4.722   4.463   0.866 -0.1152  0.1994 -0.0618
   99MOL0     C12981   5.476   5.425   0.973 -0.0383  0.4675  0.2426
   99MOL0     C12982   5.572   5.519   0.951  0.0798  0.3574 -0.9510
   99MOL0     O12983   5.980   5.502   0.953 -0.4647  0.0321  0.0450
   99MOL0     C12984   5.909   5.851   0.901 -0.0373 -1.3137 -0.2024
   99MOL0     C12985   5.975   5.975   0.911 -0.7096  0.6091  1.0498
   99MOL0     N12986   6.667   6.064   1.114 -0.1992 -0.5432 -0.2014
   99MOL0     N12987   6.780   6.101   1.158 -0.2949  0.0405  0.1069
   99MOL0     C12988   7.730   6.894   1.253 -0.1727  0.1131 -0.7007
   99MOL0     C12989   7.844   6.973   1.234  0.2421 -0.0217 -0.1530
   99MOL0     C12990   8.267   7.142   1.270 -0.0156  0.3142 -0.5793
   99MOL0     C12991   8.325   7.136   1.151 -0.1967  1.3378 -0.3144
   99MOL0     C12992   8.440   7.212   1.118 -0.2401  0.5942  0.8577
   99MOL0     C12993   8.494   7.299   1.213  0.2694  0.0042  0.5992
   99MOL0     O12994   8.600   7.381   1.171  0.0773  0.3620  0.5964
   99MOL0     C12995   8.608   7.520   1.190 -0.5705 -0.9369 -1.2970
   99MOL0     C12996   8.508   7.597   1.108 -0.2982  1.0001 -0.2798
   99MOL0     C12997   8.524   7.577   0.956  0.3642 -0.1698 -0.4332
   99MOL0     C12998   8.627   7.671   0.886  0.5058  0.6142  0.1486
   99MOL0     C12999   8.559   7.793   0.852 -0.0622  0.0294  0.2060
   99MOL0     C13000   8.511   7.899   0.827  0.1494 -0.0390  0.4072
   99MOL0     C13001   8.422   7.312   1.334  0.6023  0.0775 -0.1557
   99MOL0     C13002   8.316   7.225   1.369  0.1851 -1.1167  0.1061
   99MOL0     H13003   8.066   6.729   1.179  0.3855  2.9333 -1.7935
   99MOL0     H13004   7.878   6.589   1.255 -0.1033 -0.7117 -2.2279
   99MOL0     H13005   7.718   6.519   1.399 -1.3991 -2.8079  0.7346
   99MOL0     H13006   7.642   6.482   1.247  3.0867 -0.0877 -0.7102
   99MOL0     H13007   7.461   6.585   1.443 -1.1063  0.2473 -2.2814
   99MOL0     H13008   7.531   6.422   1.485 -0.9710 -3.0182 -1.2024
   99MOL0     H13009   7.317   6.388   1.374 -0.5780 -0.8622  0.5894
   99MOL0     H13010   7.458   6.326   1.289 -0.3367  0.7777  1.1576
   99MOL0     H13011   7.332   6.583   1.193 -2.3941  0.0078 -1.7127
   99MOL0     H13012   7.459   6.486   1.122  0.5390 -1.2631  1.6677
   99MOL0     H13013   7.284   6.284   1.115  0.1510  0.1102 -0.0538
   99MOL0     H13014   7.284   6.431   1.008 -2.1229 -1.0086 -0.2324
   99MOL0     H13015   7.100   6.525   1.122  0.2894  0.8465  1.8692
   99MOL0     H13016   7.118   6.419   1.256 -3.0823 -1.1675 -0.4220
   99MOL0     H13017   7.011   6.318   0.994  0.8124 -2.1325 -0.8076
   99MOL0     H13018   7.066   6.220   1.128  0.8680  1.2537  2.7591
   99MOL0     H13019   6.857   6.442   1.158  0.6805 -0.7426 -0.8617
   99MOL0     H13020   6.898   6.323   1.286 -0.3256 -0.6641  0.3939
   99MOL0     H13021   6.640   6.375   1.046 -1.0306  0.0308  0.2482
   99MOL0     H13022   6.389   6.145   1.091  0.1139 -1.3791  0.2426
   99MOL0     H13023   6.445   6.079   0.939 -2.6406  2.1332 -2.6809
   99MOL0     H13024   6.484   6.332   0.859 -1.2594  0.5163 -0.0845
   99MOL0     H13025   6.402   6.371   0.997  2.2167 -1.6243  1.7408
   99MOL0     H13026   6.246   6.332   0.781  0.1608  1.4052  2.7007
   99MOL0     H13027   6.297   6.165   0.778 -2.0191  0.5268 -1.2142
   99MOL0     H13028   6.076   6.217   0.854  0.5718  1.1883 -1.0040
   99MOL0     H13029   6.141   6.293   0.998 -0.2225 -0.9720  0.4341
   99MOL0     H13030   6.286   5.853   0.988 -0.2220 -4.4806 -0.0130
   99MOL0     H13031   6.163   5.643   0.949 -0.7925  0.5708  1.2594
   99MOL0     H13032   5.834   5.319   0.866 -0.0299  1.0360  1.1225
   99MOL0     H13033   5.660   5.153   0.864 -0.5722  0.0159 -0.3839
   99MOL0     H13034   5.495   5.017   0.940  0.7827 -1.5219 -4.1458
   99MOL0     H13035   5.402   5.073   0.801  1.4070  0.1618 -0.6547
   99MOL0     H13036   5.244   5.013   1.065  3.3725  3.7790  0.0925
   99MOL0     H13037   5.329   4.885   0.971  1.7404  0.5975  1.3652
   99MOL0     H13038   5.215   4.966   0.761  0.3442 -0.8974  0.1065
   99MOL0     H13039   5.116   5.059   0.871  1.8445  1.2322  2.3848
   99MOL0     H13040   5.162   4.763   0.845  1.0151  0.9723  0.4504
   99MOL0     H13041   5.051   4.831   0.974  4.1401 -0.1790  1.9561
   99MOL0     H13042   4.995   4.856   0.676  1.0864  2.4943  0.5763
   99MOL0     H13043   4.917   4.935   0.806 -1.2750  0.3242 -0.4034
   99MOL0     H13044   4.958   4.641   0.769 -0.5746  0.0089 -0.6960
   99MOL0     H13045   4.817   4.732   0.707  0.6659  1.7010 -0.9076
   99MOL0     H13046   4.898   4.642   0.971  1.6277  2.6184 -0.3925
   99MOL0     H13047   4.798   4.786   0.985 -2.9950  2.1279 -2.8202
   99MOL0     H13048   4.640   4.686   0.825  1.7223  0.6788 -0.1038
   99MOL0     H13049   4.624   4.636   0.994 -1.4796 -3.0322 -0.8607
   99MOL0     H13050   5.381   5.464   1.005  0.0176 -0.4039  1.5284
   99MOL0     H13051   5.561   5.625   0.972  1.9043  0.2137  1.0876
   99MOL0     H13052   5.801   5.842   0.892 -0.2774  0.3201  0.8072
   99MOL0     H13053   5.915   6.065   0.915 -0.6411  0.6360  1.5171
   99MOL0     H13054   7.634   6.941   1.270 -0.1175  0.5826 -1.6192
   99MOL0     H13055   7.834   7.081   1.238  3.2958  0.4803 -2.5457
   99MOL0     H13056   8.279   7.068   1.081 -1.5847  1.6677  0.2566
   99MOL0     H13057   8.498   7.199   1.027  0.9366  0.1219  1.6506
   99MOL0     H13058   8.705   7.554   1.153 -0.6161  1.7178  0.7366
   99MOL0     H13059   8.599   7.551   1.295  0.8767  3.1672 -2.2008
   99MOL0     H13060   8.409   7.557   1.133  1.5459 -4.1386  0.0455
   99MOL0     H13061   8.516   7.703   1.136 -0.4936  0.8562  0.3545
   99MOL0     H13062   8.427   7.587   0.906  1.5146 -1.4873 -3.1729
   99MOL0     H13063   8.538   7.474   0.923 -1.4447 -0.2217 -1.1576
   99MOL0     H13064   8.717   7.691   0.945  1.1909  2.3345 -1.4155
   99MOL0     H13065   8.661   7.633   0.790 -0.1526  1.4967 -0.4441
   99MOL0     H13066   8.470   7.996   0.805  1.3531 -0.0596 -2.4531
   99MOL0     H13067   8.446   7.388   1.409 -0.6254 -1.5023  1.9653
   99MOL0     H13068   8.271   7.233   1.467 -0.6222  1.4755 -0.4110
  100MOL0     O13069   4.135   0.483   5.286  0.2358  0.0712 -1.1403
  100MOL0     C13070   4.147   0.450   5.173 -0.3882  0.4600 -0.5660
  100MOL0     O13071   4.049   0.435   5.087  0.0476  0.0153  0.5387
  100MOL0     C13072   3.923   0.459   5.131 -0.5980 -0.2899  0.2522
  100MOL0     C13073   3.884   0.591   5.172  0.9584 -0.1906  0.4520
  100MOL0     C13074   3.741   0.603   5.201 -0.7414 -0.4244 -0.6643
  100MOL0     C13075   3.645   0.503   5.180 -0.8592  1.6142  0.7043
  100MOL0     O13076   3.513   0.502   5.212 -0.8278  1.3306 -0.2430
  100MOL0     C13077   3.463   0.601   5.303 -0.3315  0.0960  0.4280
  100MOL0     C13078   3.305   0.576   5.313 -0.4452  0.4827  0.0705
  100MOL0     C13079   3.233   0.708   5.331  0.3934  0.5065 -0.5723
  100MOL0     C13080   3.086   0.691   5.357  0.3467 -0.1557 -0.2229
  100MOL0     C13081   3.030   0.830   5.381 -0.7698  0.3365 -0.5231
  100MOL0     C13082   2.893   0.817   5.426 -0.4268 -0.1621 -0.3071
  100MOL0     C13083   2.827   0.952   5.435  0.4033  0.0246 -0.9313
  100MOL0     C13084   2.670   0.956   5.401 -0.4097 -0.6106 -0.2121
  100MOL0     N13085   2.621   1.091   5.420  0.2067 -0.1055  0.3398
  100MOL0     C13086   2.552   1.145   5.525  1.1905  0.1188  0.2043
  100MOL0     C13087   2.509   1.265   5.485  0.6587  0.1996  1.2808
  100MOL0     C13088   2.403   1.355   5.539 -0.3714 -0.5103 -0.7038
  100MOL0     C13089   2.289   1.386   5.436 -0.0483  0.6805  0.4234
  100MOL0     C13090   2.204   1.495   5.496 -0.3521 -0.5615 -0.2050
  100MOL0     C13091   2.075   1.547   5.425 -0.2056 -0.0440 -0.9783
  100MOL0     O13092   2.002   1.651   5.494  0.5374 -0.4538 -0.5705
  100MOL0     C13093   1.885   1.616   5.549 -0.0285  0.2323  0.0196
  100MOL0     C13094   1.771   1.692   5.520 -0.1143 -0.0116 -0.2289
  100MOL0     C13095   1.647   1.661   5.569 -1.4924  0.4705 -0.2300
  100MOL0     C13096   1.629   1.564   5.668 -0.1929 -0.3395 -0.4982
  100MOL0     C13097   1.485   1.519   5.712 -0.4672  0.2907 -0.4647
  100MOL0     O13098   1.375   1.565   5.647  0.0779  0.9598 -0.4378
  100MOL0     C13099   1.251   1.513   5.670  0.0867  0.1312 -0.2202
  100MOL0     C13100   1.205   1.430   5.777  0.4551 -0.2101  0.0593
  100MOL0     C13101   1.081   1.382   5.781  0.1988 -0.1687  0.2036
  100MOL0     C13102   0.990   1.408   5.670 -1.3947  0.3027  0.2271
  100MOL0     O13103   0.864   1.367   5.673 -0.5294 -0.6517 -0.1325
  100MOL0     C13104   0.820   1.239   5.730  0.0368  0.5150 -0.3259
  100MOL0     C13105   0.838   1.124   5.637  0.1783  0.1580  0.8007
  100MOL0     C13106   0.776   1.002   5.682  0.3890  0.6268 -0.2031
  100MOL0     C13107   0.793   0.887   5.579  0.9103 -0.1860  0.5667
  100MOL0     C13108   0.732   0.769   5.648  0.0587 -0.9346  0.4018
  100MOL0     C13109   0.708   0.655   5.545 -0.0147 -1.2090 -0.5260
  100MOL0     C13110   0.661   0.527   5.610 -0.1009 -0.2398 -0.2090
  100MOL0     C13111   0.764   0.454   5.700 -0.2883 -0.1270 -0.2465
  100MOL0    Cl13112   0.918   0.406   5.627 -0.2934  0.3360 -0.0862
  100MOL0     C13113   1.043   1.486   5.561  0.5325 -0.0392 -0.0836
  100MOL0     C13114   1.163   1.543   5.565  0.0674  0.1839 -0.1422
  100MOL0     O13115   1.496   1.429   5.796 -0.2595 -0.0326 -0.0441
  100MOL0     C13116   1.749   1.498   5.718 -0.9781 -1.2034  0.3439
  100MOL0     C13117   1.874   1.527   5.659 -0.3238  0.1224  0.0042
  100MOL0     N13118   2.545   1.288   5.350 -0.3714  0.2605 -0.4698
  100MOL0     N13119   2.612   1.181   5.313  1.0760  0.2738 -0.4583
  100MOL0     C13120   3.689   0.386   5.129 -0.3623  0.6229 -0.0752
  100MOL0     C13121   3.825   0.354   5.115  0.7126 -0.6049  1.0273
  100MOL0     C13122   4.288   0.451   5.120  0.9469 -0.4044 -0.2135
  100MOL0     C13123   4.308   0.458   4.981  0.0589  0.3633  0.0269
  100MOL0     C13124   4.438   0.478   4.928 -0.2520  0.1325 -0.2299
  100MOL0     C13125   4.540   0.499   5.014 -0.3324 -0.3917  0.0249
  100MOL0     O13126   4.673   0.526   4.975  1.2217  1.2266  0.5164
  100MOL0     C13127   4.695   0.575   4.844  0.7719 -0.2249 -1.1968
  100MOL0     C13128   4.841   0.621   4.824 -0.6642  0.2736  0.1334
  100MOL0     C13129   4.881   0.719   4.931 -0.3329 -0.2350  0.0192
  100MOL0     C13130   5.029   0.752   4.914  0.1430  1.0550 -0.4449
  100MOL0     C13131   5.083   0.857   5.007  0.0220 -0.6390 -0.5454
  100MOL0     C13132   5.140   0.932   5.087  0.1864 -0.7696  0.3238
  100MOL0     C13133   4.521   0.483   5.150  0.2143 -0.1383 -1.0258
  100MOL0     C13134   4.395   0.459   5.212 -0.1694 -0.0513  0.4133
  100MOL0     H13135   3.951   0.671   5.200  0.7572 -0.4653  1.7646
  100MOL0     H13136   3.694   0.697   5.230  2.1918  0.3803  2.1528
  100MOL0     H13137   3.477   0.701   5.259  0.9575  0.2487  1.1148
  100MOL0     H13138   3.520   0.602   5.397 -0.2422  1.9588  0.3873
  100MOL0     H13139   3.286   0.511   5.399  0.0301 -1.2084 -1.0496
  100MOL0     H13140   3.267   0.532   5.220  1.6616  4.6074 -3.0414
  100MOL0     H13141   3.245   0.767   5.239 -0.9872  0.9573 -0.4776
  100MOL0     H13142   3.273   0.767   5.414 -0.1267 -1.7650  1.3804
  100MOL0     H13143   3.028   0.649   5.274  0.1659  1.2595 -0.8360
  100MOL0     H13144   3.078   0.632   5.449  1.2818 -0.7833 -0.5211
  100MOL0     H13145   3.031   0.872   5.280 -0.5502  2.3820  0.2894
  100MOL0     H13146   3.096   0.886   5.448  0.3529 -1.9761  0.4194
  100MOL0     H13147   2.876   0.769   5.523 -0.5297  1.2763  0.4066
  100MOL0     H13148   2.834   0.756   5.357 -1.3999  1.7330 -1.2282
  100MOL0     H13149   2.844   0.981   5.539 -0.3678 -0.0309 -0.7892
  100MOL0     H13150   2.877   1.026   5.371 -1.9931  0.3507 -2.5300
  100MOL0     H13151   2.639   0.881   5.475 -0.6871 -1.1962 -0.9072
  100MOL0     H13152   2.637   0.919   5.303  0.7382 -1.9049 -0.1345
  100MOL0     H13153   2.529   1.093   5.618 -1.0814 -2.0832 -1.4531
  100MOL0     H13154   2.444   1.452   5.568 -1.0210 -0.5782  0.5315
  100MOL0     H13155   2.356   1.311   5.628 -0.2902 -1.2751 -1.0320
  100MOL0     H13156   2.230   1.295   5.420  1.0997 -0.4470  2.1773
  100MOL0     H13157   2.322   1.416   5.336 -0.5130 -0.3022 -0.0426
  100MOL0     H13158   2.181   1.460   5.597  0.1400  2.3262  1.0133
  100MOL0     H13159   2.268   1.582   5.514 -0.5365 -0.1404 -1.5265
  100MOL0     H13160   2.005   1.469   5.391  1.6872 -1.5777 -1.5632
  100MOL0     H13161   2.110   1.591   5.331  1.4974 -1.0319 -0.8524
  100MOL0     H13162   1.775   1.785   5.463 -0.1953  1.0222  1.3659
  100MOL0     H13163   1.557   1.712   5.538 -1.3472 -0.3379 -2.0800
  100MOL0     H13164   1.274   1.406   5.858  1.4783  3.7017  0.5647
  100MOL0     H13165   1.047   1.323   5.865  0.8939  1.3305  1.6000
  100MOL0     H13166   0.712   1.254   5.741  0.1410 -0.0590  1.9069
  100MOL0     H13167   0.857   1.226   5.832 -3.0341  2.2828  1.1815
  100MOL0     H13168   0.942   1.095   5.618 -0.5527 -1.6114 -0.8811
  100MOL0     H13169   0.792   1.146   5.540  1.1761 -1.4662 -0.0985
  100MOL0     H13170   0.670   1.029   5.694 -0.5878 -0.2906 -4.7788
  100MOL0     H13171   0.827   0.975   5.775  1.4105 -0.3737 -1.0248
  100MOL0     H13172   0.743   0.921   5.487  4.4117  2.9225 -0.4369
  100MOL0     H13173   0.897   0.857   5.563  0.3039 -1.7718 -0.7292
  100MOL0     H13174   0.639   0.803   5.694  0.5786  1.5387 -0.2200
  100MOL0     H13175   0.799   0.747   5.732  0.1216  0.0302  0.6207
  100MOL0     H13176   0.800   0.636   5.489  1.3615 -3.7876  2.2521
  100MOL0     H13177   0.638   0.695   5.472 -0.6903  1.5617  1.4441
  100MOL0     H13178   0.575   0.555   5.673  0.9348  1.8809  0.3539
  100MOL0     H13179   0.632   0.452   5.536 -2.3005  1.1697 -0.8743
  100MOL0     H13180   0.722   0.365   5.748  0.5868  0.9863  2.8750
  100MOL0     H13181   0.781   0.518   5.787 -1.3315  1.0387 -0.8766
  100MOL0     H13182   0.981   1.503   5.473 -0.0774 -1.2413  0.0833
  100MOL0     H13183   1.200   1.618   5.496  1.7830 -0.1966  0.3367
  100MOL0     H13184   1.743   1.421   5.795 -0.6865 -1.5537  0.0227
  100MOL0     H13185   1.960   1.474   5.698 -0.2114  0.6688  0.5248
  100MOL0     H13186   3.610   0.311   5.120  0.1170 -0.1326  1.6086
  100MOL0     H13187   3.873   0.260   5.087  1.2537  0.5685 -2.3786
  100MOL0     H13188   4.225   0.449   4.912  0.5007 -2.1047 -0.2824
  100MOL0     H13189   4.464   0.485   4.823  1.0516  1.4002  0.1463
  100MOL0     H13190   4.623   0.655   4.825  0.3297  0.2213  1.8391
  100MOL0     H13191   4.680   0.494   4.772 -0.8557 -2.1826  1.1447
  100MOL0     H13192   4.908   0.535   4.834  0.1102  1.0433  1.9548
  100MOL0     H13193   4.853   0.672   4.728 -0.7990 -1.7959 -1.0420
  100MOL0     H13194   4.869   0.674   5.030 -0.9613 -1.2927 -0.5253
  100MOL0     H13195   4.821   0.810   4.920  1.2662  0.6872 -1.5737
  100MOL0     H13196   5.081   0.656   4.918 -1.0285  0.2284 -2.9682
  100MOL0     H13197   5.050   0.787   4.812  0.4778 -1.0226 -1.1497
  100MOL0     H13198   5.197   0.993   5.154  1.5683 -1.5556 -0.1091
  100MOL0     H13199   4.594   0.489   5.230 -0.7338  0.4748 -0.1791
  100MOL0     H13200   4.387   0.470   5.319  0.9392  3.6804  0.2543
  101MOL0     O13201   0.092  10.151   0.276 -0.1468 -0.2073 -0.3432
  101MOL0     C13202   0.183  10.093   0.331 -0.1973  0.8687  1.0095
  101MOL0     O13203   0.182   9.964   0.386  0.3076  0.5380  0.0535
  101MOL0     C13204   0.065   9.893   0.429 -0.5223 -0.7745  0.4664
  101MOL0     C13205   0.074   9.749   0.441  0.4495  0.5581  0.2576
  101MOL0     C13206  -0.037   9.675   0.489 -0.0468  0.1060 -0.2229
  101MOL0     C13207  -0.155   9.735   0.527  0.4158  0.7843  0.5150
  101MOL0     O13208  -0.264   9.668   0.577  0.2657  0.0528 -0.3859
  101MOL0     C13209  -0.252   9.550   0.661 -0.3122  0.6369  0.6067
  101MOL0     C13210  -0.364   9.528   0.762  0.3877  0.0965 -1.2253
  101MOL0     C13211  -0.498   9.496   0.698  0.1761  0.2246 -0.6072
  101MOL0     C13212  -0.606   9.500   0.804  0.3820  0.0779  0.5057
  101MOL0     C13213  -0.737   9.472   0.736  0.1254 -0.1438  1.2152
  101MOL0     C13214  -0.787   9.330   0.756  0.9576  0.5245  0.5962
  101MOL0     C13215  -0.918   9.314   0.676  0.3199  0.3411  0.2850
  101MOL0     C13216  -1.024   9.382   0.760  0.3208  0.0498  0.3572
  101MOL0     N13217  -1.155   9.317   0.747  0.2360  0.8423  0.1544
  101MOL0     C13218  -1.204   9.218   0.827  0.5784  0.4021  0.4106
  101MOL0     C13219  -1.326   9.200   0.787  0.6677 -0.3749 -0.1071
  101MOL0     C13220  -1.423   9.097   0.835 -0.3850 -0.3093  0.2142
  101MOL0     C13221  -1.442   8.967   0.759  0.1168 -0.4976  0.7253
  101MOL0     C13222  -1.561   8.881   0.804 -0.0920  0.4365 -0.4607
  101MOL0     C13223  -1.705   8.941   0.784  0.4993  0.4270 -0.2493
  101MOL0     O13224  -1.797   8.837   0.820 -0.3934  0.5651 -0.3294
  101MOL0     C13225  -1.931   8.858   0.815  0.7790  0.3805  0.4879
  101MOL0     C13226  -1.993   8.958   0.738  1.5035 -0.3871 -0.0951
  101MOL0     C13227  -2.139   8.979   0.744 -0.6661 -0.3088 -0.5407
  101MOL0     C13228  -2.218   8.899   0.834 -0.0156 -0.1873  0.0132
  101MOL0     C13229  -2.360   8.922   0.853  0.0922  0.3575 -0.6795
  101MOL0     O13230  -2.426   8.818   0.913 -0.3577  0.0315 -0.2398
  101MOL0     C13231  -2.552   8.842   0.958  0.0929  0.7611 -0.2633
  101MOL0     C13232  -2.579   8.832   1.097  0.2071  0.5695  1.0353
  101MOL0     C13233  -2.715   8.826   1.137 -0.2744  0.9712 -0.4708
  101MOL0     C13234  -2.815   8.826   1.045 -0.2288  1.1329  0.2142
  101MOL0     O13235  -2.947   8.807   1.088  0.3500 -0.4969 -1.1632
  101MOL0     C13236  -3.062   8.800   0.998  0.6232  0.0175  0.0925
  101MOL0     C13237  -3.169   8.747   1.091 -0.6988 -0.4296  0.6554
  101MOL0     C13238  -3.306   8.721   1.024  0.3712 -0.3004  0.0759
  101MOL0     C13239  -3.301   8.610   0.914  0.2860  0.4226  0.7606
  101MOL0     C13240  -3.440   8.571   0.863  0.3538 -0.5606 -0.1781
  101MOL0     C13241  -3.489   8.673   0.761  0.2548  0.4177  0.8866
  101MOL0     C13242  -3.634   8.629   0.713 -0.1167 -0.3524  0.4061
  101MOL0     C13243  -3.635   8.611   0.563 -0.6937  0.4763  1.3050
  101MOL0    Cl13244  -3.554   8.746   0.468 -0.0258 -0.0520 -0.3218
  101MOL0     C13245  -2.784   8.854   0.914  0.8772  0.8717 -0.7708
  101MOL0     C13246  -2.657   8.846   0.861  0.1322 -0.3555 -0.5129
  101MOL0     O13247  -2.414   9.029   0.812  0.7061  0.4344 -0.2556
  101MOL0     C13248  -2.151   8.803   0.916  0.2001 -1.2033  0.7866
  101MOL0     C13249  -2.014   8.784   0.905  0.8225 -0.5215  1.0242
  101MOL0     N13250  -1.356   9.285   0.685 -0.4753  0.3504  0.4272
  101MOL0     N13251  -1.254   9.357   0.656  0.1010 -0.3821 -0.2776
  101MOL0     C13252  -0.162   9.874   0.505  0.2802 -0.1403  0.4501
  101MOL0     C13253  -0.056   9.958   0.459 -0.1782  0.6326 -0.9575
  101MOL0     C13254   0.307  10.165   0.352 -0.3993 -0.1690  0.6810
  101MOL0     C13255   0.431  10.105   0.384  0.2762 -0.5517 -0.1181
  101MOL0     C13256   0.549  10.174   0.370 -0.2166 -0.1403 -0.0453
  101MOL0     C13257   0.550  10.312   0.334 -0.1062  0.1287 -0.4066
  101MOL0     O13258   0.672  10.366   0.327 -0.1616 -0.4616 -0.5278
  101MOL0     C13259   0.697  10.505   0.378 -0.0600 -0.1156 -0.7483
  101MOL0     C13260   0.695  10.513   0.540 -1.2815  0.1719  0.4151
  101MOL0     C13261   0.804  10.421   0.608  0.1988 -0.4584  0.8177
  101MOL0     C13262   0.948  10.482   0.573  0.8621 -0.0954  0.0205
  101MOL0     C13263   1.058  10.404   0.648 -0.5974 -0.4767 -0.1005
  101MOL0     C13264   1.153  10.347   0.696  0.0745 -0.3417  0.0708
  101MOL0     C13265   0.428  10.377   0.321  0.4601 -1.1556  0.8419
  101MOL0     C13266   0.309  10.302   0.324  0.1456  0.4374 -0.6747
  101MOL0     H13267   0.162   9.695   0.408 -0.6472 -0.1322 -1.7787
  101MOL0     H13268  -0.031   9.567   0.497  1.0345  0.2576  1.8162
  101MOL0     H13269  -0.160   9.546   0.721  0.3420 -1.1177 -0.4238
  101MOL0     H13270  -0.254   9.459   0.600  3.2057  1.0232 -0.2875
  101MOL0     H13271  -0.384   9.616   0.824  0.9102 -1.9173  2.0671
  101MOL0     H13272  -0.338   9.450   0.835  1.3031  1.2518 -0.2634
  101MOL0     H13273  -0.487   9.393   0.662  2.8907 -0.2420  1.2617
  101MOL0     H13274  -0.504   9.557   0.607 -2.0374  3.0339  1.2625
  101MOL0     H13275  -0.584   9.427   0.883 -1.4041 -2.3872 -1.1440
  101MOL0     H13276  -0.601   9.599   0.851 -1.3914 -1.2962  3.9500
  101MOL0     H13277  -0.720   9.478   0.629  1.6895  2.7285  1.5383
  101MOL0     H13278  -0.814   9.544   0.763  0.8320  2.3354 -2.6005
  101MOL0     H13279  -0.798   9.302   0.862  1.6923 -3.2431 -0.1668
  101MOL0     H13280  -0.712   9.262   0.714 -1.5559 -1.9244 -0.2514
  101MOL0     H13281  -0.915   9.342   0.570  3.0357  1.3784  0.5556
  101MOL0     H13282  -0.935   9.206   0.680  2.3777 -0.0628 -0.2742
  101MOL0     H13283  -1.026   9.488   0.735 -2.1841  0.1096  0.5661
  101MOL0     H13284  -0.989   9.369   0.863  1.8927 -1.8394 -0.3535
  101MOL0     H13285  -1.153   9.165   0.907  1.0246  0.0202 -0.1221
  101MOL0     H13286  -1.522   9.143   0.845 -1.4710 -2.5749  0.4162
  101MOL0     H13287  -1.380   9.080   0.934  0.0855  1.4283  0.3383
  101MOL0     H13288  -1.354   8.902   0.764 -1.1900 -2.2940  1.9600
  101MOL0     H13289  -1.454   8.990   0.653 -0.3208 -1.6902  0.5000
  101MOL0     H13290  -1.560   8.791   0.741 -0.8020  1.1721 -1.5455
  101MOL0     H13291  -1.564   8.847   0.908 -1.6421 -2.5805 -1.3738
  101MOL0     H13292  -1.707   8.961   0.676 -0.0429 -1.1678 -0.5542
  101MOL0     H13293  -1.719   9.024   0.854 -1.3255 -0.0707  0.0277
  101MOL0     H13294  -1.943   9.029   0.672 -1.7982 -0.2252 -2.7162
  101MOL0     H13295  -2.187   9.062   0.694  1.0454  0.6214 -0.6999
  101MOL0     H13296  -2.496   8.823   1.166  1.6332 -1.2350 -0.8060
  101MOL0     H13297  -2.739   8.816   1.243 -3.3246 -0.0446 -1.1356
  101MOL0     H13298  -3.049   8.739   0.908 -1.3372  0.0329 -0.2573
  101MOL0     H13299  -3.095   8.899   0.963 -2.6342 -0.4778  1.4177
  101MOL0     H13300  -3.182   8.828   1.163 -2.4077 -0.2874  0.2479
  101MOL0     H13301  -3.140   8.652   1.136  3.0807 -1.5273 -3.4339
  101MOL0     H13302  -3.337   8.820   0.990  1.6844  1.1846  2.8921
  101MOL0     H13303  -3.376   8.694   1.104  2.6214 -1.3265  1.8239
  101MOL0     H13304  -3.233   8.629   0.830 -2.2826 -1.2247 -1.8922
  101MOL0     H13305  -3.257   8.516   0.950  2.7409 -0.1759 -3.1786
  101MOL0     H13306  -3.512   8.561   0.944 -0.7093 -0.2216 -1.0468
  101MOL0     H13307  -3.433   8.471   0.818  2.7538 -0.5268 -0.0059
  101MOL0     H13308  -3.421   8.659   0.677 -1.0215 -0.3406 -0.0686
  101MOL0     H13309  -3.476   8.778   0.787  0.4459  0.3645  1.0028
  101MOL0     H13310  -3.666   8.540   0.767  2.5749 -1.2992  0.5824
  101MOL0     H13311  -3.694   8.714   0.747  1.1311  0.9429 -0.4813
  101MOL0     H13312  -3.741   8.602   0.538 -0.6597  2.8945  0.0912
  101MOL0     H13313  -3.583   8.519   0.535 -4.1549 -0.8078 -1.6162
  101MOL0     H13314  -2.865   8.875   0.844 -0.4904  4.4746  1.5979
  101MOL0     H13315  -2.651   8.849   0.753 -0.0508  1.3592 -0.5006
  101MOL0     H13316  -2.208   8.731   0.974 -3.4136 -0.2518 -1.2354
  101MOL0     H13317  -1.961   8.701   0.953 -1.8019 -2.0304  1.4916
  101MOL0     H13318  -0.253   9.914   0.549 -0.5021  1.3634 -2.2656
  101MOL0     H13319  -0.049  10.066   0.454  1.6201  1.1368  5.0358
  101MOL0     H13320   0.427   9.999   0.407 -1.9929 -0.6336 -0.5721
  101MOL0     H13321   0.646  10.125   0.370 -0.0054  0.2496  1.1240
  101MOL0     H13322   0.625  10.576   0.336  2.1192  1.6625 -1.6523
  101MOL0     H13323   0.792  10.542   0.339  0.6654 -2.5118 -1.4007
  101MOL0     H13324   0.710  10.616   0.574  0.3383  0.4698 -1.0576
  101MOL0     H13325   0.596  10.495   0.582  0.2550 -1.0309  3.9102
  101MOL0     H13326   0.797  10.320   0.565 -1.3432  1.1177 -3.1330
  101MOL0     H13327   0.793  10.415   0.716 -0.4253  3.3888  1.1025
  101MOL0     H13328   0.968  10.465   0.467  2.5837  3.0396 -0.2757
  101MOL0     H13329   0.955  10.590   0.587  0.3610 -0.1786  1.0636
  101MOL0     H13330   1.243  10.302   0.732 -1.2906 -3.8481 -0.4932
  101MOL0     H13331   0.426  10.479   0.285 -0.3019 -2.0099 -1.7549
  101MOL0     H13332   0.216  10.356   0.309 -0.7670 -0.7018  0.7048
  102MOL0     O13333   6.975   5.398   1.221  0.1765  0.5635 -1.0731
  102MOL0     C13334   7.038   5.498   1.255  0.1745  0.0675 -0.5079
  102MOL0     O13335   6.987   5.615   1.292 -0.4471  0.4986 -0.2508
  102MOL0     C13336   6.850   5.630   1.293 -0.4402  0.0732  0.2216
  102MOL0     C13337   6.757   5.540   1.355 -1.3884 -0.7108  0.5859
  102MOL0     C13338   6.618   5.558   1.340  0.3369  0.2314 -0.6138
  102MOL0     C13339   6.566   5.647   1.247 -0.4230 -0.0251  0.2665
  102MOL0     O13340   6.432   5.669   1.227  0.0251  0.6192  0.4922
  102MOL0     C13341   6.332   5.609   1.309  0.1046  0.3727  0.1912
  102MOL0     C13342   6.194   5.642   1.259  0.1169  0.7251  0.3151
  102MOL0     C13343   6.090   5.671   1.371  0.8082  0.1572 -0.8973
  102MOL0     C13344   5.952   5.686   1.303 -0.1453  0.0208  0.4747
  102MOL0     C13345   5.837   5.690   1.401  0.1204 -0.2626 -0.6164
  102MOL0     C13346   5.697   5.696   1.336  0.1805 -0.2934 -0.9277
  102MOL0     C13347   5.661   5.811   1.244 -0.0857 -0.2153  0.2012
  102MOL0     C13348   5.631   5.935   1.327 -0.3621  0.5495  0.6024
  102MOL0     N13349   5.519   5.921   1.421 -0.8855  0.3256  0.4142
  102MOL0     C13350   5.532   5.934   1.556 -0.4773 -0.8342 -0.5241
  102MOL0     C13351   5.423   5.892   1.614  0.1941  0.6797  0.5694
  102MOL0     C13352   5.420   5.888   1.763 -0.0831  0.4648  0.6243
  102MOL0     C13353   5.299   5.816   1.814 -0.8962  0.6070 -0.3388
  102MOL0     C13354   5.176   5.897   1.806  0.5901 -0.0517 -0.3912
  102MOL0     C13355   5.074   5.825   1.889 -0.2161  0.0242  0.6314
  102MOL0     O13356   4.937   5.865   1.882 -0.5169  0.1277 -0.5618
  102MOL0     C13357   4.844   5.824   1.798 -0.1975 -0.2015 -0.7913
  102MOL0     C13358   4.713   5.865   1.812 -0.2033 -0.5495  0.0526
  102MOL0     C13359   4.615   5.840   1.715  0.0979 -0.7313  0.0975
  102MOL0     C13360   4.643   5.764   1.598 -0.7029 -0.1523 -0.2963
  102MOL0     C13361   4.547   5.741   1.491 -0.5884  0.0467 -0.4396
  102MOL0     O13362   4.434   5.812   1.496  0.2377  0.7138  0.2828
  102MOL0     C13363   4.317   5.779   1.424 -0.5762 -0.1375  0.7608
  102MOL0     C13364   4.282   5.648   1.391  0.4259 -0.2253  0.3088
  102MOL0     C13365   4.160   5.619   1.332 -0.0932 -1.4523  0.2573
  102MOL0     C13366   4.074   5.727   1.295 -0.0615  0.3306  0.0693
  102MOL0     O13367   3.946   5.686   1.258 -0.1384  0.4415  0.3482
  102MOL0     C13368   3.859   5.786   1.189 -0.2329  1.2546 -0.6545
  102MOL0     C13369   3.755   5.715   1.099  0.5036 -0.0422  0.5128
  102MOL0     C13370   3.680   5.607   1.188 -0.7459  0.1977  0.0768
  102MOL0     C13371   3.586   5.527   1.086  0.3590  0.4181  0.0272
  102MOL0     C13372   3.493   5.426   1.151 -0.5878  0.2770  0.2535
  102MOL0     C13373   3.566   5.298   1.164  0.6522 -0.5749 -0.5045
  102MOL0     C13374   3.471   5.188   1.214 -0.1401  1.2599 -0.8067
  102MOL0     C13375   3.562   5.060   1.230  0.9031  0.6426 -0.2457
  102MOL0    Cl13376   3.672   5.077   1.383 -0.1821 -0.6430 -0.2627
  102MOL0     C13377   4.110   5.854   1.316  0.2345 -0.2030 -0.2857
  102MOL0     C13378   4.228   5.883   1.387 -0.5616  0.9969 -0.8299
  102MOL0     O13379   4.569   5.656   1.407 -0.0050 -0.2944 -0.1650
  102MOL0     C13380   4.777   5.714   1.584 -0.3562 -1.0566  0.1770
  102MOL0     C13381   4.870   5.743   1.680  0.0992  0.1929  0.7920
  102MOL0     N13382   5.343   5.852   1.511  0.1049 -0.6699  0.4564
  102MOL0     N13383   5.398   5.874   1.395  0.6879  0.4234 -0.3546
  102MOL0     C13384   6.662   5.734   1.172  0.5037 -0.4466  0.4413
  102MOL0     C13385   6.801   5.726   1.205 -0.3638  0.0946 -0.5588
  102MOL0     C13386   7.181   5.491   1.242 -0.5033  0.3022 -0.1340
  102MOL0     C13387   7.254   5.375   1.273 -0.6814 -0.6183 -0.8326
  102MOL0     C13388   7.397   5.373   1.270 -0.8984  0.0712  0.5009
  102MOL0     C13389   7.466   5.490   1.225  0.0873 -0.3176  0.3325
  102MOL0     O13390   7.599   5.475   1.206 -0.4919  0.3916  1.1055
  102MOL0     C13391   7.693   5.583   1.214 -0.0934 -0.7655  1.0102
  102MOL0     C13392   7.829   5.528   1.174 -0.1449 -0.1697 -0.8508
  102MOL0     C13393   7.936   5.629   1.159  0.2239 -0.5896  0.6364
  102MOL0     C13394   8.071   5.565   1.121  0.0192 -0.0777 -0.0488
  102MOL0     C13395   8.132   5.512   1.238 -0.8604  0.0032  0.3263
  102MOL0     C13396   8.183   5.463   1.339 -0.5248  0.0693  0.2173
  102MOL0     C13397   7.390   5.612   1.206 -0.1102 -0.9767 -0.3507
  102MOL0     C13398   7.251   5.614   1.210 -0.3516  0.5308 -0.3390
  102MOL0     H13399   6.804   5.462   1.414  0.9042  1.7166  2.2148
  102MOL0     H13400   6.558   5.482   1.387 -0.7081  0.5148 -1.4524
  102MOL0     H13401   6.344   5.642   1.412 -0.9599 -1.3345  0.8901
  102MOL0     H13402   6.339   5.500   1.305 -0.6846  0.2930  0.8540
  102MOL0     H13403   6.163   5.551   1.207  2.0246  0.2563 -0.0618
  102MOL0     H13404   6.193   5.721   1.183 -2.1721 -0.7649 -1.3281
  102MOL0     H13405   6.122   5.753   1.436  0.5795 -0.8962  0.6005
  102MOL0     H13406   6.078   5.578   1.428 -2.0608  0.6185 -0.6053
  102MOL0     H13407   5.948   5.771   1.234  1.2153 -0.5443 -0.3466
  102MOL0     H13408   5.925   5.596   1.248  1.0843  0.4450 -0.8838
  102MOL0     H13409   5.847   5.777   1.468 -4.2327 -0.2889  0.3477
  102MOL0     H13410   5.860   5.613   1.476  2.7016 -0.3398 -1.3665
  102MOL0     H13411   5.634   5.698   1.425  4.2593 -0.6327  2.2919
  102MOL0     H13412   5.678   5.604   1.280 -0.7079 -0.8022  0.1536
  102MOL0     H13413   5.749   5.828   1.182 -0.7387  0.5194 -0.5472
  102MOL0     H13414   5.571   5.796   1.183 -0.2098  0.3759  0.2315
  102MOL0     H13415   5.621   6.020   1.257 -0.8195  0.3372  0.4072
  102MOL0     H13416   5.713   5.965   1.393 -1.4527 -0.6018  2.5397
  102MOL0     H13417   5.624   5.940   1.614 -0.9256 -1.8272  0.3269
  102MOL0     H13418   5.433   5.985   1.812  0.8652 -0.9815  3.4639
  102MOL0     H13419   5.507   5.830   1.797  0.3690  1.0712  0.5242
  102MOL0     H13420   5.320   5.786   1.917 -2.5553 -0.4913 -0.2857
  102MOL0     H13421   5.282   5.723   1.760  0.9777 -0.6580  1.0843
  102MOL0     H13422   5.191   5.996   1.849  0.0426 -0.8622  1.7985
  102MOL0     H13423   5.132   5.894   1.706 -0.2909  1.9222 -0.1146
  102MOL0     H13424   5.111   5.819   1.992 -0.4364 -0.1367  0.7022
  102MOL0     H13425   5.072   5.720   1.859  0.3182  0.5887 -1.5964
  102MOL0     H13426   4.689   5.919   1.903  3.1928  1.0894  0.1551
  102MOL0     H13427   4.517   5.887   1.720  0.8861  0.7798  3.1496
  102MOL0     H13428   4.354   5.573   1.421  1.4302 -0.4435 -2.3669
  102MOL0     H13429   4.118   5.520   1.321  1.4969 -2.3295  1.6875
  102MOL0     H13430   3.913   5.867   1.140  3.0665  0.6872  1.7133
  102MOL0     H13431   3.802   5.823   1.275  0.1087  0.9982 -0.3133
  102MOL0     H13432   3.807   5.670   1.015  2.5762  1.8969  0.6667
  102MOL0     H13433   3.694   5.799   1.064  0.5557 -0.7548 -1.3629
  102MOL0     H13434   3.637   5.668   1.268  1.4005  3.0793 -0.7486
  102MOL0     H13435   3.745   5.531   1.231 -1.0726 -0.7529 -1.0761
  102MOL0     H13436   3.512   5.585   1.031  2.8312  2.4020 -1.4711
  102MOL0     H13437   3.650   5.487   1.006  1.0467  3.0621 -0.8832
  102MOL0     H13438   3.408   5.413   1.084 -1.8506  2.8049  1.2079
  102MOL0     H13439   3.455   5.460   1.248 -1.3243  0.4710 -0.0944
  102MOL0     H13440   3.650   5.306   1.234 -0.1458 -3.0543  0.8849
  102MOL0     H13441   3.604   5.264   1.067  0.7649 -0.3817 -0.5278
  102MOL0     H13442   3.421   5.207   1.309  0.4595 -0.1318 -0.1802
  102MOL0     H13443   3.388   5.174   1.145 -0.2351  2.1325 -0.8888
  102MOL0     H13444   3.619   5.034   1.140  2.3393  0.8750  0.5692
  102MOL0     H13445   3.490   4.979   1.242  0.3501  0.9688 -1.2615
  102MOL0     H13446   4.045   5.941   1.317  0.6226  0.1415 -2.2049
  102MOL0     H13447   4.253   5.984   1.420 -0.1877  0.3416  1.0002
  102MOL0     H13448   4.808   5.663   1.493 -0.2723  2.7263 -2.1146
  102MOL0     H13449   4.967   5.704   1.653  0.4779  2.0820 -0.7930
  102MOL0     H13450   6.624   5.823   1.122  1.6705  0.2091  0.6952
  102MOL0     H13451   6.878   5.790   1.164 -0.5793  0.5588 -0.2529
  102MOL0     H13452   7.195   5.290   1.307 -1.5751 -1.5064 -4.2465
  102MOL0     H13453   7.449   5.280   1.288  1.5709  1.6222  2.0007
  102MOL0     H13454   7.698   5.620   1.317 -0.8428 -0.7154  1.0309
  102MOL0     H13455   7.665   5.667   1.150 -0.5698 -0.5508  1.4893
  102MOL0     H13456   7.851   5.458   1.254 -1.3400 -0.4529 -0.7428
  102MOL0     H13457   7.827   5.469   1.082  1.1651 -0.9924 -0.3707
  102MOL0     H13458   7.954   5.695   1.244 -1.3325  1.3179 -0.4399
  102MOL0     H13459   7.902   5.694   1.078  1.3718  4.1458  3.6069
  102MOL0     H13460   8.065   5.484   1.048  3.4209 -0.9112  0.4234
  102MOL0     H13461   8.143   5.640   1.085  1.2393 -1.2386 -0.0877
  102MOL0     H13462   8.197   5.419   1.436 -1.4663  0.0069  0.3294
  102MOL0     H13463   7.452   5.700   1.189 -2.0039  0.6548  0.9276
  102MOL0     H13464   7.195   5.707   1.208  2.2747  2.2112 -0.6208
  103MOL0     O13465  10.277   8.247  10.371  0.1806  0.4761 -0.2872
  103MOL0     C13466  10.280   8.300  10.262 -0.5585  0.8639  0.7251
  103MOL0     O13467  10.174   8.330  10.187 -0.8828  0.7695 -0.1500
  103MOL0     C13468  10.050   8.302  10.231  0.5674 -1.0317 -0.2705
  103MOL0     C13469   9.976   8.404  10.299 -1.0253  0.1159  0.3825
  103MOL0     C13470   9.850   8.381  10.336  0.4444  0.3854 -0.0866
  103MOL0     C13471   9.778   8.268  10.298 -0.2405 -0.2211 -0.2900
  103MOL0     O13472   9.645   8.265  10.322 -0.2161  0.4770  0.6061
  103MOL0     C13473   9.559   8.343  10.233 -0.8222  0.4070  0.5337
  103MOL0     C13474   9.425   8.281  10.220 -0.3083  0.5951  0.1076
  103MOL0     C13475   9.353   8.319  10.092 -0.5009 -0.6219 -0.3131
  103MOL0     C13476   9.208   8.370  10.119  0.2546 -0.1363 -0.4153
  103MOL0     C13477   9.105   8.260  10.113  0.1919  0.6944 -0.3524
  103MOL0     C13478   9.117   8.167  10.239  0.4437  0.8649 -1.3218
  103MOL0     C13479   8.991   8.074  10.237  0.6876 -0.0409 -0.6611
  103MOL0     C13480   8.888   8.108  10.337  0.3345  0.5233  0.4479
  103MOL0     N13481   8.775   8.013  10.332 -0.0264 -0.8091 -0.3143
  103MOL0     C13482   8.646   8.031  10.324  0.4024  0.0008  0.2873
  103MOL0     C13483   8.591   7.903  10.331 -0.7497  0.2484 -0.3333
  103MOL0     C13484   8.445   7.851  10.329  0.6169  0.3418 -0.0008
  103MOL0     C13485   8.342   7.952  10.269  0.9261 -0.2205  0.5059
  103MOL0     C13486   8.210   7.965  10.348  1.0065  0.5010 -0.5758
  103MOL0     C13487   8.131   7.833  10.334  0.1782 -0.1613  0.5395
  103MOL0     O13488   8.035   7.832  10.433  0.4016  0.6757  0.2782
  103MOL0     C13489   7.901   7.840  10.404 -0.3565  0.2252 -1.2018
  103MOL0     C13490   7.841   7.872  10.281  0.1710 -0.3267 -0.4506
  103MOL0     C13491   7.705   7.884  10.276  0.7052  0.2658 -0.7496
  103MOL0     C13492   7.622   7.863  10.388  0.4159  1.4015 -0.7755
  103MOL0     C13493   7.476   7.880  10.375  0.3751 -0.1898 -0.7521
  103MOL0     O13494   7.424   7.904  10.245 -0.4227 -0.0158  0.0031
  103MOL0     C13495   7.290   7.876  10.242  0.6149 -0.4843 -0.1857
  103MOL0     C13496   7.202   7.992  10.238 -0.1835  0.6827  1.2329
  103MOL0     C13497   7.066   7.963  10.251 -0.1863  0.3161 -0.9150
  103MOL0     C13498   7.005   7.839  10.267  0.2882 -0.5936 -0.7754
  103MOL0     O13499   6.872   7.814  10.287  0.2997 -0.2288 -0.8487
  103MOL0     C13500   6.781   7.920  10.315 -0.4161 -0.1803  0.3428
  103MOL0     C13501   6.640   7.866  10.301 -0.1010 -0.4650 -0.0119
  103MOL0     C13502   6.583   7.869  10.161  0.3894 -0.5269 -0.5422
  103MOL0     C13503   6.527   8.013  10.130  0.1011 -0.2389  0.1350
  103MOL0     C13504   6.443   8.025  10.006  0.5387  0.6922  0.0326
  103MOL0     C13505   6.525   7.993   9.887 -0.1650  0.1971  0.0627
  103MOL0     C13506   6.473   8.051   9.749 -0.5007 -0.2593 -0.1289
  103MOL0     C13507   6.543   7.978   9.640  0.2439  0.1273  0.8898
  103MOL0    Cl13508   6.574   8.085   9.498  0.4659  0.1648 -0.0147
  103MOL0     C13509   7.092   7.734  10.246 -0.2657 -0.7597 -0.7486
  103MOL0     C13510   7.236   7.754  10.235 -0.3672 -0.0908 -0.4529
  103MOL0     O13511   7.409   7.873  10.476 -0.2151 -0.0738  0.0491
  103MOL0     C13512   7.681   7.832  10.516 -0.1840  0.5062  0.9619
  103MOL0     C13513   7.823   7.816  10.520 -0.3465 -0.7116  0.2071
  103MOL0     N13514   8.695   7.815  10.355  0.6380  0.5711 -0.3418
  103MOL0     N13515   8.804   7.882  10.349  0.5862  0.8238  0.0500
  103MOL0     C13516   9.845   8.179  10.212  0.6164  0.1148 -0.3653
  103MOL0     C13517   9.982   8.191  10.192  0.2153  0.4917 -0.1868
  103MOL0     C13518  10.418   8.334  10.208  1.3384 -0.2609 -0.6023
  103MOL0     C13519  10.424   8.364  10.073 -0.7206 -1.0239  0.0180
  103MOL0     C13520  10.555   8.386  10.017  0.6006  0.4561  0.0586
  103MOL0     C13521  10.672   8.365  10.091 -0.0565 -0.1919 -0.0835
  103MOL0     O13522  10.789   8.374  10.026 -0.2605 -0.0221  1.7477
  103MOL0     C13523  10.875   8.260  10.033  0.0923  1.0022  0.1418
  103MOL0     C13524  11.001   8.274   9.945 -0.7193  0.1201 -0.2244
  103MOL0     C13525  11.094   8.350  10.032  0.8007  0.5533  0.2230
  103MOL0     C13526  11.218   8.396   9.947 -0.1448  0.0397  0.1780
  103MOL0     C13527  11.194   8.530   9.891  0.0920 -0.4987  0.8380
  103MOL0     C13528  11.190   8.637   9.835  0.5008  1.0021  0.9478
  103MOL0     C13529  10.660   8.334  10.220  0.3678 -0.6607 -0.4574
  103MOL0     C13530  10.537   8.310  10.286  0.3393  0.8366 -0.2891
  103MOL0     H13531  10.027   8.491  10.341  1.4566 -2.5991  3.5931
  103MOL0     H13532   9.795   8.453  10.395 -0.0097  1.3027 -1.5801
  103MOL0     H13533   9.611   8.354  10.138 -1.1985  0.5654  0.3480
  103MOL0     H13534   9.537   8.443  10.272 -1.5848  0.3160  0.3559
  103MOL0     H13535   9.369   8.301  10.312 -2.7751 -2.2342 -0.6311
  103MOL0     H13536   9.440   8.173  10.215 -2.4406  0.0968  2.2282
  103MOL0     H13537   9.358   8.243  10.014  2.9678  0.4377 -1.3280
  103MOL0     H13538   9.403   8.400  10.038  1.8670 -1.9803 -0.3479
  103MOL0     H13539   9.201   8.415  10.219 -2.6110 -3.2411  1.0133
  103MOL0     H13540   9.184   8.454  10.054 -0.8405  0.8104  1.1310
  103MOL0     H13541   9.112   8.206  10.018  0.2268  0.5184 -0.2508
  103MOL0     H13542   9.010   8.315  10.114 -0.3840 -0.0234  4.2664
  103MOL0     H13543   9.125   8.223  10.332 -0.5644 -0.5107 -0.3645
  103MOL0     H13544   9.211   8.110  10.238 -0.2229 -0.4630  1.3147
  103MOL0     H13545   8.945   8.064  10.138  0.3490 -1.4371 -0.3830
  103MOL0     H13546   9.031   7.977  10.265 -0.3396 -0.1122  0.6160
  103MOL0     H13547   8.843   8.206  10.318  1.4021  0.9689  0.1719
  103MOL0     H13548   8.922   8.120  10.441 -0.6538  2.1931  0.6195
  103MOL0     H13549   8.583   8.118  10.311  1.5356  0.8460  0.2703
  103MOL0     H13550   8.423   7.846  10.436 -0.8128 -0.5227 -0.3183
  103MOL0     H13551   8.439   7.755  10.277 -2.9632  1.8776 -2.8391
  103MOL0     H13552   8.317   7.919  10.168 -0.4135  1.4769  0.2380
  103MOL0     H13553   8.391   8.047  10.244  0.2615 -0.0527 -0.1836
  103MOL0     H13554   8.227   7.999  10.450  1.5764 -0.9941 -0.1460
  103MOL0     H13555   8.148   8.038  10.296  0.7819  0.1374 -0.8274
  103MOL0     H13556   8.186   7.740  10.354 -3.6386 -3.0742 -1.2032
  103MOL0     H13557   8.095   7.821  10.231  1.8432 -1.0912  0.0205
  103MOL0     H13558   7.881   7.887  10.181 -2.1648 -0.5584 -1.4838
  103MOL0     H13559   7.661   7.894  10.177 -1.2783 -0.0277  0.0448
  103MOL0     H13560   7.249   8.088  10.224  0.4834  0.3077  0.8496
  103MOL0     H13561   7.008   8.055  10.249  1.0546  1.1469 -3.2011
  103MOL0     H13562   6.796   8.009  10.253 -2.4571 -0.2724 -0.3598
  103MOL0     H13563   6.785   7.954  10.419 -1.0984 -2.8738  1.3239
  103MOL0     H13564   6.587   7.923  10.378  2.4459 -0.7748  2.1041
  103MOL0     H13565   6.644   7.760  10.329 -0.4853 -0.8072 -1.1738
  103MOL0     H13566   6.501   7.797  10.156 -0.9894  1.0722 -2.5936
  103MOL0     H13567   6.661   7.846  10.088 -0.9142  0.2151 -2.2313
  103MOL0     H13568   6.454   8.029  10.210 -0.1678  1.6592 -0.4361
  103MOL0     H13569   6.613   8.080  10.123 -0.0079 -0.1099  0.0144
  103MOL0     H13570   6.404   8.126  10.021 -0.5635  0.5090 -1.3816
  103MOL0     H13571   6.356   7.959   9.996  0.9009 -0.0210  1.3206
  103MOL0     H13572   6.523   7.883   9.880  1.0850  0.1145  0.6891
  103MOL0     H13573   6.631   8.022   9.891 -0.2783  1.3301 -2.7504
  103MOL0     H13574   6.365   8.042   9.730 -0.4129 -2.7774  0.3228
  103MOL0     H13575   6.489   8.159   9.759 -0.8715 -0.2357  0.2118
  103MOL0     H13576   6.479   7.894   9.611 -1.1786  0.7115  2.1860
  103MOL0     H13577   6.631   7.933   9.686 -1.4869 -0.2312  4.1757
  103MOL0     H13578   7.037   7.641  10.240 -1.1491 -0.2099 -1.2764
  103MOL0     H13579   7.303   7.668  10.238  0.3434  0.4838  0.4471
  103MOL0     H13580   7.621   7.812  10.604  1.7082 -0.8581  2.0103
  103MOL0     H13581   7.888   7.801  10.606  2.3299 -0.6886 -1.6914
  103MOL0     H13582   9.791   8.104  10.155  3.4471 -1.0922 -1.6693
  103MOL0     H13583  10.043   8.112  10.150  1.1755  0.1102  1.8023
  103MOL0     H13584  10.330   8.380  10.021 -1.8148 -0.7809  1.9637
  103MOL0     H13585  10.561   8.423   9.915  1.1507  0.3059  0.0343
  103MOL0     H13586  10.831   8.167   9.997  2.1519 -0.3760  1.0014
  103MOL0     H13587  10.900   8.249  10.139  0.7865  1.7210  0.0677
  103MOL0     H13588  11.045   8.174   9.938  0.2232  0.4559  0.6639
  103MOL0     H13589  11.002   8.332   9.852  1.0555  0.9148  0.2364
  103MOL0     H13590  11.125   8.285  10.115  0.5256  1.2196  0.8583
  103MOL0     H13591  11.041   8.438  10.067 -2.4912 -1.7686  1.5916
  103MOL0     H13592  11.305   8.395  10.014 -1.3501  1.5774  1.8487
  103MOL0     H13593  11.230   8.329   9.862 -0.8965 -0.3425  0.3724
  103MOL0     H13594  11.186   8.739   9.802 -0.3714  1.0948  1.3301
  103MOL0     H13595  10.755   8.310  10.267 -0.0905 -0.1959  0.7477
  103MOL0     H13596  10.516   8.276  10.387 -2.9170 -1.7402 -1.6194
  104MOL0     O13597   3.419   6.329   5.767 -0.9149 -0.0490 -0.0824
  104MOL0     C13598   3.491   6.360   5.674  0.0423  0.8432 -0.3108
  104MOL0     O13599   3.445   6.363   5.546 -0.3925  0.1305  0.4577
  104MOL0     C13600   3.312   6.346   5.497  0.0342 -0.5581 -0.3016
  104MOL0     C13601   3.199   6.324   5.570 -0.1929  0.5843  0.0209
  104MOL0     C13602   3.073   6.310   5.502 -0.1939  0.7045  0.0692
  104MOL0     C13603   3.063   6.314   5.362  1.1961  1.0123  0.1999
  104MOL0     O13604   2.941   6.289   5.304 -0.1687 -0.1903 -0.1203
  104MOL0     C13605   2.829   6.261   5.393 -0.0122  0.1588  0.5233
  104MOL0     C13606   2.706   6.245   5.293 -0.1460 -0.1601  0.8806
  104MOL0     C13607   2.578   6.234   5.380  0.0581 -0.1332 -0.1218
  104MOL0     C13608   2.451   6.253   5.291  0.0130  0.6692  0.6912
  104MOL0     C13609   2.327   6.206   5.364 -0.1294 -0.4299 -0.2751
  104MOL0     C13610   2.195   6.178   5.282 -0.0483  0.0883  0.6900
  104MOL0     C13611   2.088   6.141   5.387  0.1604 -0.0548  0.0859
  104MOL0     C13612   1.964   6.137   5.294 -1.0881  0.3141 -0.6946
  104MOL0     N13613   1.828   6.102   5.347 -0.6708  0.1496 -0.0020
  104MOL0     C13614   1.751   6.000   5.314  0.1066  0.2998 -0.4688
  104MOL0     C13615   1.635   6.020   5.381  0.3964 -0.3394 -0.4968
  104MOL0     C13616   1.512   5.917   5.382  0.4171 -0.0208 -0.3944
  104MOL0     C13617   1.378   5.986   5.373 -0.5974 -0.0785  0.3245
  104MOL0     C13618   1.329   6.020   5.514  0.4660  0.0241  0.5464
  104MOL0     C13619   1.204   6.114   5.526  0.1168 -0.0490 -0.6278
  104MOL0     O13620   1.163   6.121   5.654  1.0083  0.3995  0.1642
  104MOL0     C13621   1.029   6.144   5.686 -0.7080 -0.1409  0.6173
  104MOL0     C13622   0.988   6.084   5.807 -0.4603  1.1973  0.5911
  104MOL0     C13623   0.857   6.102   5.859  0.1235 -0.2264  0.4632
  104MOL0     C13624   0.765   6.184   5.791 -0.4403  0.0665 -0.0205
  104MOL0     C13625   0.631   6.211   5.836  0.6184  0.5509 -0.1339
  104MOL0     O13626   0.559   6.312   5.765 -0.4848 -0.0839 -0.5257
  104MOL0     C13627   0.447   6.351   5.816 -0.1985 -0.1801  0.6856
  104MOL0     C13628   0.432   6.451   5.917 -0.4669 -0.0939 -0.4615
  104MOL0     C13629   0.308   6.488   5.958  0.6698 -0.3329 -0.1808
  104MOL0     C13630   0.191   6.435   5.900 -0.7872 -0.0131  0.0946
  104MOL0     O13631   0.064   6.470   5.943 -0.2699  0.0998  0.8570
  104MOL0     C13632   0.046   6.571   6.046 -0.8015 -0.2726 -0.3893
  104MOL0     C13633  -0.110   6.575   6.077 -0.0631  0.0169  0.6700
  104MOL0     C13634  -0.192   6.638   5.952  0.0377 -0.5664  1.1390
  104MOL0     C13635  -0.342   6.659   5.985 -0.2049  0.5159 -0.0168
  104MOL0     C13636  -0.353   6.773   6.077 -0.5177 -0.8630  0.9781
  104MOL0     C13637  -0.501   6.819   6.081 -0.1076 -0.4482 -0.1320
  104MOL0     C13638  -0.528   6.937   6.176  0.8203 -0.1346 -0.1093
  104MOL0     C13639  -0.676   6.969   6.190  0.2268 -0.1645  0.7119
  104MOL0    Cl13640  -0.683   7.129   6.267  0.2709 -0.0769 -0.3210
  104MOL0     C13641   0.199   6.334   5.802 -0.3611 -0.4820 -0.3062
  104MOL0     C13642   0.330   6.298   5.759  1.0937 -0.2471  0.1337
  104MOL0     O13643   0.576   6.136   5.921  0.2189  0.5025  0.7649
  104MOL0     C13644   0.807   6.251   5.673 -0.1941  0.0672  0.4402
  104MOL0     C13645   0.935   6.225   5.617  0.1849 -0.5821 -0.1090
  104MOL0     N13646   1.645   6.146   5.440  0.5047 -0.3250 -0.2842
  104MOL0     N13647   1.765   6.179   5.438  0.9252  0.6473 -0.0362
  104MOL0     C13648   3.176   6.327   5.288 -0.0732 -0.0040  1.3726
  104MOL0     C13649   3.301   6.341   5.357  0.5939  0.3973  0.3825
  104MOL0     C13650   3.631   6.399   5.698 -0.1234 -0.1339  0.1966
  104MOL0     C13651   3.680   6.415   5.827 -0.2422  1.0015  0.1052
  104MOL0     C13652   3.819   6.429   5.845  0.4045 -0.4552 -0.5733
  104MOL0     C13653   3.913   6.442   5.742 -0.4561  0.4613  0.3348
  104MOL0     O13654   4.045   6.471   5.756 -0.5959  0.6914 -0.5896
  104MOL0     C13655   4.071   6.574   5.850  0.5171  0.0966 -0.3127
  104MOL0     C13656   4.170   6.688   5.814 -0.0618  0.1261 -0.3732
  104MOL0     C13657   4.137   6.785   5.707 -0.7567  0.3170  0.4565
  104MOL0     C13658   4.052   6.900   5.768  0.9629 -0.1074 -0.1049
  104MOL0     C13659   4.140   6.989   5.849  0.1357 -0.0384 -0.1364
  104MOL0     C13660   4.205   7.060   5.925 -0.4308 -0.1888 -0.8077
  104MOL0     C13661   3.862   6.449   5.618  0.5690  0.0165  0.2734
  104MOL0     C13662   3.726   6.423   5.593  0.6534 -0.3840 -0.6178
  104MOL0     H13663   3.202   6.306   5.677  4.5084 -5.0632 -0.5598
  104MOL0     H13664   2.993   6.286   5.572 -0.4231 -0.7487 -0.6412
  104MOL0     H13665   2.817   6.343   5.465 -1.7438  0.3171  0.0842
  104MOL0     H13666   2.847   6.171   5.454 -0.0448  0.1364  0.4994
  104MOL0     H13667   2.722   6.160   5.227 -1.2684 -2.0741  2.9246
  104MOL0     H13668   2.713   6.336   5.233  1.3171 -1.2639 -0.7017
  104MOL0     H13669   2.568   6.293   5.471 -1.8575 -1.1499  0.3807
  104MOL0     H13670   2.584   6.127   5.405  0.0433 -0.3126 -0.8462
  104MOL0     H13671   2.431   6.350   5.244 -5.0698 -1.0849 -1.4219
  104MOL0     H13672   2.451   6.187   5.204 -0.9447  0.6335  0.7089
  104MOL0     H13673   2.302   6.287   5.433  2.1752 -0.4711  0.6858
  104MOL0     H13674   2.368   6.126   5.426  3.2882 -0.0358 -1.7559
  104MOL0     H13675   2.218   6.094   5.216 -1.5312 -0.3024  0.6326
  104MOL0     H13676   2.169   6.266   5.223  1.5778  0.4439  0.4487
  104MOL0     H13677   2.115   6.049   5.439 -0.7436 -0.0625  0.5609
  104MOL0     H13678   2.076   6.215   5.468 -0.5372  0.0188 -0.0779
  104MOL0     H13679   1.988   6.073   5.208  0.6984  1.3206 -0.9828
  104MOL0     H13680   1.943   6.238   5.258 -2.5741  0.8726  1.5209
  104MOL0     H13681   1.766   5.918   5.243  1.3259 -1.2085  1.4344
  104MOL0     H13682   1.508   5.844   5.464 -0.8109  0.1317 -0.3095
  104MOL0     H13683   1.534   5.853   5.296  2.7888  0.0667  0.0785
  104MOL0     H13684   1.314   5.909   5.327 -2.7381  1.0797  1.1985
  104MOL0     H13685   1.375   6.081   5.320 -1.7310  0.5463  1.4634
  104MOL0     H13686   1.301   5.922   5.554  2.0910 -1.3405 -1.4046
  104MOL0     H13687   1.410   6.060   5.576  2.3716 -2.8345  0.1272
  104MOL0     H13688   1.122   6.072   5.467 -0.9907  1.1723 -0.0300
  104MOL0     H13689   1.224   6.216   5.492  0.3624 -1.0183 -3.6974
  104MOL0     H13690   1.051   6.015   5.861 -2.4173 -1.5180 -0.3935
  104MOL0     H13691   0.829   6.052   5.952  2.0850 -1.9397  0.2288
  104MOL0     H13692   0.523   6.481   5.969  0.5718 -2.4846 -0.7639
  104MOL0     H13693   0.300   6.564   6.035 -1.5539 -0.1354 -0.5470
  104MOL0     H13694   0.078   6.666   6.004  1.5728 -1.3783 -1.2239
  104MOL0     H13695   0.096   6.545   6.140 -0.1533 -1.6554 -1.0933
  104MOL0     H13696  -0.124   6.653   6.153 -1.8203 -0.0724  0.4723
  104MOL0     H13697  -0.154   6.480   6.110  0.8406 -0.7806 -0.3650
  104MOL0     H13698  -0.176   6.566   5.871  0.2124 -0.0559  0.7091
  104MOL0     H13699  -0.159   6.738   5.920  3.3285 -1.4227  1.4582
  104MOL0     H13700  -0.400   6.679   5.894  0.6914  1.5318 -0.3862
  104MOL0     H13701  -0.376   6.567   6.033 -0.6852 -1.0224 -3.0197
  104MOL0     H13702  -0.289   6.854   6.040 -2.4396 -0.2010 -1.1677
  104MOL0     H13703  -0.314   6.753   6.177 -2.3709 -0.9327  1.7398
  104MOL0     H13704  -0.569   6.737   6.104 -0.0530 -0.5419 -0.2992
  104MOL0     H13705  -0.522   6.846   5.977  2.0501  0.1999 -0.4421
  104MOL0     H13706  -0.483   6.924   6.275 -0.1927 -1.7317  0.1760
  104MOL0     H13707  -0.478   7.024   6.132  1.2694 -1.1618 -1.7038
  104MOL0     H13708  -0.725   6.902   6.261  0.2160  0.9758  1.8169
  104MOL0     H13709  -0.724   6.981   6.093 -2.2921  1.4284  2.0646
  104MOL0     H13710   0.100   6.301   5.776 -0.7858 -0.9946  1.7474
  104MOL0     H13711   0.339   6.230   5.675  0.4789  0.5578 -0.5936
  104MOL0     H13712   0.737   6.317   5.623 -1.1808 -0.0847  1.5795
  104MOL0     H13713   0.953   6.263   5.517 -2.2366 -2.9949 -1.6201
  104MOL0     H13714   3.173   6.327   5.180 -3.0088  1.3216  1.3526
  104MOL0     H13715   3.398   6.339   5.310  0.5450  3.4121 -0.0578
  104MOL0     H13716   3.603   6.412   5.904 -1.2438  1.8759 -0.8213
  104MOL0     H13717   3.845   6.422   5.950 -3.2866  0.6014  0.5385
  104MOL0     H13718   4.119   6.522   5.933  2.0994  1.1770 -0.5107
  104MOL0     H13719   3.980   6.623   5.884 -0.4927 -0.3164 -2.2586
  104MOL0     H13720   4.181   6.748   5.905 -2.8953  0.0532  0.1020
  104MOL0     H13721   4.268   6.645   5.792  0.3001 -0.0602  1.4210
  104MOL0     H13722   4.098   6.738   5.616  0.7007  2.5739 -1.4427
  104MOL0     H13723   4.233   6.827   5.676 -0.4790 -0.4987  0.1909
  104MOL0     H13724   4.004   6.965   5.695  0.6004  2.1317  1.9782
  104MOL0     H13725   3.981   6.851   5.835  2.6524 -2.0672  0.3744
  104MOL0     H13726   4.255   7.137   5.979  0.4037 -0.5618 -1.0390
  104MOL0     H13727   3.925   6.444   5.529  0.8648 -2.9450  0.5480
  104MOL0     H13728   3.690   6.406   5.492 -1.4942 -0.7742  0.1472
  105MOL0     O13729  11.010   6.087   5.295 -0.4608  0.6149  0.0825
  105MOL0     C13730  11.046   5.972   5.334 -0.2811 -0.6807  0.8307
  105MOL0     O13731  10.984   5.909   5.444 -0.0645 -0.3309  0.1109
  105MOL0     C13732  10.848   5.922   5.471 -0.3795  0.0474 -0.3461
  105MOL0     C13733  10.818   5.886   5.604 -0.2218  0.1939  0.0114
  105MOL0     C13734  10.688   5.901   5.650 -0.4297  0.6059 -0.3856
  105MOL0     C13735  10.583   5.941   5.568 -0.3999 -0.3198 -0.5962
  105MOL0     O13736  10.465   5.961   5.632  0.5455  0.0417  0.1349
  105MOL0     C13737  10.352   5.904   5.565 -0.1819 -0.3867 -0.5764
  105MOL0     C13738  10.215   5.954   5.620 -0.4025  0.1552  0.0850
  105MOL0     C13739  10.097   5.861   5.598 -0.8096 -0.7027  0.1411
  105MOL0     C13740   9.960   5.925   5.626 -0.2631  0.8344 -0.4067
  105MOL0     C13741   9.848   5.819   5.624 -0.0971  1.3972 -0.1326
  105MOL0     C13742   9.706   5.865   5.664 -0.5308  0.2905  0.5289
  105MOL0     C13743   9.714   5.893   5.819 -0.1216  0.4209  0.1635
  105MOL0     C13744   9.578   5.954   5.885 -0.6245 -0.5151 -0.2150
  105MOL0     N13745   9.468   5.863   5.865  0.3607  0.1174 -0.7027
  105MOL0     C13746   9.429   5.770   5.956 -0.1520 -0.2934  0.5262
  105MOL0     C13747   9.340   5.689   5.894 -0.2844 -0.0230  0.6676
  105MOL0     C13748   9.253   5.580   5.955 -0.1245 -1.3261  0.9679
  105MOL0     C13749   9.303   5.511   6.084 -0.5600  0.0429  0.3247
  105MOL0     C13750   9.232   5.554   6.215 -0.5141  0.5934  0.0204
  105MOL0     C13751   9.300   5.495   6.337 -0.3239 -1.1909  0.0094
  105MOL0     O13752   9.269   5.576   6.442  0.2090 -0.3791 -0.1516
  105MOL0     C13753   9.130   5.580   6.481  0.1530 -0.1117  0.2941
  105MOL0     C13754   9.066   5.473   6.532 -0.4573  1.1574 -0.8351
  105MOL0     C13755   8.931   5.474   6.560 -1.1127 -0.0828 -0.6886
  105MOL0     C13756   8.857   5.601   6.545 -0.4026  0.1540 -0.4823
  105MOL0     C13757   8.713   5.612   6.561  0.9023  0.8055 -0.5682
  105MOL0     O13758   8.652   5.732   6.544  0.4339 -0.2478 -0.3689
  105MOL0     C13759   8.513   5.741   6.580 -0.5556  0.5284  0.1201
  105MOL0     C13760   8.426   5.810   6.491  0.0045 -0.1384 -0.7547
  105MOL0     C13761   8.290   5.832   6.518 -0.5499 -0.3219  0.6873
  105MOL0     C13762   8.238   5.778   6.639 -0.0564  0.1884  0.0506
  105MOL0     O13763   8.116   5.783   6.690 -0.0986  0.4282  0.0223
  105MOL0     C13764   8.045   5.869   6.605  0.4350  0.6897 -0.2045
  105MOL0     C13765   7.903   5.898   6.670 -0.4723 -0.1960 -0.5840
  105MOL0     C13766   7.834   6.005   6.578 -0.5745  0.1442 -0.1116
  105MOL0     C13767   7.695   6.061   6.630 -0.6262  0.5800 -0.0396
  105MOL0     C13768   7.620   6.126   6.515  0.6535  1.2587 -0.0754
  105MOL0     C13769   7.498   6.206   6.559  0.1305 -0.1364 -0.4150
  105MOL0     C13770   7.385   6.123   6.621  0.1151  0.7077  0.0169
  105MOL0     C13771   7.259   6.213   6.616  0.1676 -0.5920 -0.3445
  105MOL0    Cl13772   7.264   6.357   6.727 -0.2750 -0.1626  0.5486
  105MOL0     C13773   8.324   5.711   6.726  0.0300 -0.4618 -0.3588
  105MOL0     C13774   8.463   5.699   6.705 -0.0860 -0.0275  1.1106
  105MOL0     O13775   8.659   5.502   6.574  0.0907 -0.2100 -0.5097
  105MOL0     C13776   8.920   5.717   6.507  0.3038 -0.5875  1.0204
  105MOL0     C13777   9.059   5.703   6.473 -0.3107  0.5322 -0.8099
  105MOL0     N13778   9.333   5.739   5.766  0.5172  0.3748  0.3701
  105MOL0     N13779   9.402   5.843   5.758  0.0714  0.2035 -0.1077
  105MOL0     C13780  10.611   5.965   5.432  0.0258 -0.0441 -0.0788
  105MOL0     C13781  10.743   5.963   5.392 -0.1280  0.7951  1.1882
  105MOL0     C13782  11.177   5.914   5.283  0.2768 -1.1598 -0.2333
  105MOL0     C13783  11.228   5.792   5.325 -1.1499  0.9435 -0.6210
  105MOL0     C13784  11.360   5.754   5.285  0.3944  0.2716  0.0883
  105MOL0     C13785  11.433   5.825   5.185 -0.4990 -0.5452 -0.5096
  105MOL0     O13786  11.544   5.764   5.133 -0.5041  0.1853  1.0185
  105MOL0     C13787  11.562   5.768   4.991 -0.4418 -0.1086  0.4261
  105MOL0     C13788  11.694   5.699   4.956 -0.5550  0.9311  0.8293
  105MOL0     C13789  11.719   5.755   4.813  0.2753 -0.1816  0.5947
  105MOL0     C13790  11.845   5.684   4.759 -0.3113 -0.4286 -0.0908
  105MOL0     C13791  11.967   5.712   4.838 -0.7688 -0.3665 -0.6743
  105MOL0     C13792  12.066   5.741   4.902 -1.0103 -0.3467  0.6573
  105MOL0     C13793  11.380   5.944   5.136  1.1493 -0.5284 -0.6186
  105MOL0     C13794  11.255   5.987   5.192 -0.2403 -0.3319  0.2277
  105MOL0     H13795  10.898   5.849   5.668  0.5057 -1.8579 -1.9799
  105MOL0     H13796  10.669   5.869   5.752 -3.3213  0.8393 -0.7820
  105MOL0     H13797  10.369   5.797   5.582  1.8229 -0.1877 -1.0529
  105MOL0     H13798  10.350   5.924   5.458  0.4536  0.8333 -0.3878
  105MOL0     H13799  10.213   6.054   5.577 -0.0438  0.2608  0.3071
  105MOL0     H13800  10.220   5.961   5.729 -1.9680  0.4537  0.1510
  105MOL0     H13801  10.115   5.772   5.659 -2.5348  0.2884  2.2141
  105MOL0     H13802  10.106   5.827   5.494  2.0565 -1.1359  0.4425
  105MOL0     H13803   9.969   5.979   5.720  1.7328  1.3212 -0.8453
  105MOL0     H13804   9.951   5.998   5.544 -0.9735  1.0016 -0.1917
  105MOL0     H13805   9.878   5.732   5.683 -1.6660  0.0124 -1.2903
  105MOL0     H13806   9.837   5.777   5.524 -2.5203  1.7074 -0.0611
  105MOL0     H13807   9.623   5.801   5.630  0.4141 -1.0430  0.6496
  105MOL0     H13808   9.694   5.952   5.599 -0.2323 -0.3044 -0.3484
  105MOL0     H13809   9.733   5.797   5.870  1.5578  0.0508 -1.0611
  105MOL0     H13810   9.804   5.948   5.847  1.5275 -2.1006  0.1537
  105MOL0     H13811   9.560   6.058   5.857 -0.0732  0.5847  3.0345
  105MOL0     H13812   9.597   5.962   5.992 -0.1324 -4.8027  0.1921
  105MOL0     H13813   9.476   5.762   6.054  4.4831  0.9021 -1.3379
  105MOL0     H13814   9.242   5.509   5.873  1.0655 -0.2510 -0.1732
  105MOL0     H13815   9.160   5.630   5.986  0.5941 -0.1485  1.2870
  105MOL0     H13816   9.413   5.511   6.088 -0.5458 -2.0307  3.5771
  105MOL0     H13817   9.276   5.405   6.086 -0.4191 -0.0509 -1.2703
  105MOL0     H13818   9.240   5.662   6.225 -0.6959  0.5141  1.1816
  105MOL0     H13819   9.127   5.527   6.232  0.0292 -1.4431  0.5166
  105MOL0     H13820   9.408   5.495   6.318 -0.5290 -1.8907 -1.3571
  105MOL0     H13821   9.270   5.393   6.363  1.3184 -1.3554  1.4681
  105MOL0     H13822   9.129   5.386   6.539  2.2849  3.0302 -0.5976
  105MOL0     H13823   8.883   5.380   6.583  1.7241 -1.2094  1.0565
  105MOL0     H13824   8.471   5.862   6.407  0.3518  2.4544  0.9330
  105MOL0     H13825   8.234   5.883   6.441  2.4333  1.3958 -0.5002
  105MOL0     H13826   8.039   5.831   6.503  3.8916  4.9148 -2.2522
  105MOL0     H13827   8.096   5.964   6.594  1.1774  0.6330  2.1115
  105MOL0     H13828   7.907   5.930   6.775 -3.1028  0.5428 -0.6290
  105MOL0     H13829   7.838   5.810   6.667 -0.1280 -0.4331 -1.1231
  105MOL0     H13830   7.820   5.947   6.486 -0.3019 -2.2217  1.2620
  105MOL0     H13831   7.895   6.093   6.558 -1.5407  0.3045 -2.7266
  105MOL0     H13832   7.628   5.985   6.672 -1.4684  0.7141 -1.0712
  105MOL0     H13833   7.713   6.129   6.714  2.1707  0.0989 -0.1838
  105MOL0     H13834   7.586   6.048   6.446 -1.2873  1.2611  0.8088
  105MOL0     H13835   7.694   6.188   6.464  3.6644 -2.3594 -0.5800
  105MOL0     H13836   7.463   6.254   6.467 -0.8566 -1.0932 -0.5605
  105MOL0     H13837   7.530   6.284   6.630  3.2980 -2.7073  1.2356
  105MOL0     H13838   7.371   6.032   6.561  0.2612  0.2799  0.6289
  105MOL0     H13839   7.415   6.092   6.721 -3.0933 -0.2498  0.8026
  105MOL0     H13840   7.174   6.150   6.641 -1.5470  2.1456  1.3124
  105MOL0     H13841   7.245   6.252   6.515  0.0668  0.4642  0.0600
  105MOL0     H13842   8.271   5.667   6.810 -2.0445  1.2962 -0.6755
  105MOL0     H13843   8.525   5.648   6.778  0.4275 -1.0801 -0.0246
  105MOL0     H13844   8.881   5.818   6.504 -2.3924 -1.5422 -1.9219
  105MOL0     H13845   9.128   5.779   6.439  0.3788 -0.4096 -1.5650
  105MOL0     H13846  10.530   5.977   5.360  0.1470  3.4745  0.1839
  105MOL0     H13847  10.752   5.981   5.285 -0.1662 -1.6201  0.7321
  105MOL0     H13848  11.175   5.746   5.407  2.8248 -0.5394  1.3973
  105MOL0     H13849  11.388   5.658   5.327 -3.1652 -0.7845  0.3502
  105MOL0     H13850  11.573   5.874   4.964  2.4624 -1.1570 -3.3584
  105MOL0     H13851  11.484   5.723   4.929  1.4899 -1.3884 -1.1976
  105MOL0     H13852  11.766   5.742   5.027  0.1624  0.5378  0.3414
  105MOL0     H13853  11.704   5.591   4.967 -0.6086  0.6586 -1.4731
  105MOL0     H13854  11.728   5.863   4.822 -0.8738  0.0237 -0.5009
  105MOL0     H13855  11.635   5.734   4.746  1.5753  0.2172 -1.2520
  105MOL0     H13856  11.836   5.575   4.747  2.8245 -0.8399  0.4526
  105MOL0     H13857  11.853   5.731   4.661  2.6535  3.5213  1.7630
  105MOL0     H13858  12.147   5.768   4.966  0.7577  2.3068 -2.4100
  105MOL0     H13859  11.428   6.000   5.056  1.5164  0.6053  0.3614
  105MOL0     H13860  11.213   6.080   5.157  0.5863  0.3749  1.0521
  106MOL0     O13861   2.351   0.475  10.337 -0.3274 -1.4426  0.2946
  106MOL0     C13862   2.389   0.370  10.293  0.4513 -0.2272 -0.0413
  106MOL0     O13863   2.340   0.254  10.333  0.5422 -1.0378  0.2069
  106MOL0     C13864   2.274   0.257  10.453 -0.0006  0.0850 -0.7863
  106MOL0     C13865   2.137   0.251  10.445  0.5001 -0.4988 -0.0643
  106MOL0     C13866   2.063   0.271  10.565  0.2591  0.4463  0.8090
  106MOL0     C13867   2.130   0.297  10.690  1.0236  0.1674 -0.0765
  106MOL0     O13868   2.063   0.305  10.811  0.1252 -0.5526  0.0783
  106MOL0     C13869   1.953   0.396  10.808 -0.4241 -0.2748 -0.2581
  106MOL0     C13870   1.888   0.394  10.949  0.1713  0.4883  0.4366
  106MOL0     C13871   1.745   0.460  10.957 -0.8987  0.1549  0.5897
  106MOL0     C13872   1.694   0.478  11.106 -0.1835 -0.7250  0.2601
  106MOL0     C13873   1.552   0.540  11.125 -0.2054 -0.4135  0.5560
  106MOL0     C13874   1.566   0.661  11.226 -0.4813  0.5975  0.0977
  106MOL0     C13875   1.424   0.714  11.243  0.1549  0.0742  0.6287
  106MOL0     C13876   1.429   0.835  11.335  0.0519 -0.7776  1.0771
  106MOL0     N13877   1.299   0.907  11.322 -0.3503 -1.0334  0.7022
  106MOL0     C13878   1.189   0.889  11.402 -0.0972  0.4303  0.4223
  106MOL0     C13879   1.090   0.961  11.341 -1.1395 -0.2052  0.2508
  106MOL0     C13880   0.946   0.978  11.377 -0.3589  0.8283  0.4260
  106MOL0     C13881   0.855   0.896  11.273 -1.0522  0.9267 -0.1508
  106MOL0     C13882   0.705   0.901  11.304 -0.0912 -0.6361 -0.4611
  106MOL0     C13883   0.624   1.023  11.262 -0.0302  0.7109 -1.2862
  106MOL0     O13884   0.482   1.033  11.307  0.3148 -0.0470  1.0483
  106MOL0     C13885   0.388   0.959  11.240  0.5415 -0.2865 -0.6927
  106MOL0     C13886   0.396   0.887  11.118 -0.5584 -0.2457  0.5908
  106MOL0     C13887   0.290   0.827  11.057  0.1650  0.6877  0.0701
  106MOL0     C13888   0.162   0.838  11.123 -0.3120 -0.7250 -0.3846
  106MOL0     C13889   0.045   0.782  11.058  0.5111 -0.6971  0.4725
  106MOL0     O13890  -0.068   0.770  11.139  0.2469 -0.2997 -0.8255
  106MOL0     C13891  -0.196   0.748  11.090 -0.0239  0.0583  0.1791
  106MOL0     C13892  -0.284   0.675  11.158  0.1482  0.6408 -0.2071
  106MOL0     C13893  -0.406   0.630  11.107  0.2425 -0.1019 -0.0407
  106MOL0     C13894  -0.448   0.672  10.980 -0.8439  0.0851  0.3523
  106MOL0     O13895  -0.565   0.625  10.936  0.2304 -0.2898  0.8043
  106MOL0     C13896  -0.574   0.573  10.801 -0.0998 -0.3333 -0.8619
  106MOL0     C13897  -0.728   0.569  10.768  0.3328 -0.0840 -0.6602
  106MOL0     C13898  -0.802   0.446  10.826  0.1167 -0.3950  0.8190
  106MOL0     C13899  -0.752   0.318  10.745  0.9322 -0.0151 -0.3917
  106MOL0     C13900  -0.761   0.185  10.825 -0.4524 -0.5662 -0.7242
  106MOL0     C13901  -0.741   0.187  10.974  0.3393  0.0801  0.8175
  106MOL0     C13902  -0.597   0.223  11.009 -0.5088 -0.2020  0.9367
  106MOL0     C13903  -0.564   0.228  11.153 -0.3153  0.2352 -0.2057
  106MOL0    Cl13904  -0.667   0.361  11.215 -0.5448  0.0437  0.0654
  106MOL0     C13905  -0.364   0.754  10.904  0.0397  0.1757 -0.6822
  106MOL0     C13906  -0.231   0.787  10.958  0.0409 -0.1432 -0.0961
  106MOL0     O13907   0.055   0.735  10.944  0.1050  0.1550 -0.0839
  106MOL0     C13908   0.150   0.911  11.241  0.2948  0.3202  0.0022
  106MOL0     C13909   0.261   0.959  11.304  0.6294 -0.0671  0.4573
  106MOL0     N13910   1.137   1.002  11.219  0.0076  0.4297  0.2283
  106MOL0     N13911   1.260   0.960  11.202 -0.1784 -0.3769  0.7712
  106MOL0     C13912   2.266   0.293  10.687  0.1441  0.1169 -0.2630
  106MOL0     C13913   2.343   0.270  10.573  0.3546  0.0752  0.4363
  106MOL0     C13914   2.509   0.370  10.209  0.3524 -0.4271 -0.4477
  106MOL0     C13915   2.550   0.249  10.150 -0.0760 -0.5912 -0.3726
  106MOL0     C13916   2.658   0.243  10.065 -0.6280 -0.6662 -0.0660
  106MOL0     C13917   2.746   0.354  10.047 -0.2094 -0.3178 -0.2520
  106MOL0     O13918   2.866   0.340   9.992 -0.2708  0.2204  0.1305
  106MOL0     C13919   2.882   0.358   9.849 -0.3093  0.6006 -0.3332
  106MOL0     C13920   3.024   0.324   9.816 -0.0315 -0.2510  0.3743
  106MOL0     C13921   3.132   0.389   9.907  0.2930  0.5517 -0.5768
  106MOL0     C13922   3.265   0.370   9.840  0.5042  0.3182  1.0001
  106MOL0     C13923   3.368   0.383   9.941  0.5540  0.6229 -1.3257
  106MOL0     C13924   3.442   0.405  10.036 -0.0722  0.0518  0.0884
  106MOL0     C13925   2.701   0.479  10.103 -0.3184  0.0907 -0.6361
  106MOL0     C13926   2.583   0.490  10.181 -0.0521  0.3242  0.1021
  106MOL0     H13927   2.084   0.229  10.353  3.0360 -0.2727 -1.6800
  106MOL0     H13928   1.955   0.266  10.561  0.1149  2.2458 -4.2572
  106MOL0     H13929   1.875   0.360  10.740  0.0932 -2.0161  0.0311
  106MOL0     H13930   1.990   0.496  10.784 -2.0961  0.3251 -0.5465
  106MOL0     H13931   1.966   0.419  11.022 -1.0999  0.0444  2.0180
  106MOL0     H13932   1.863   0.289  10.970 -2.0346  1.1665  1.4756
  106MOL0     H13933   1.671   0.409  10.895 -0.1586  1.1158 -1.1454
  106MOL0     H13934   1.766   0.558  10.915  1.5575  0.1838  1.6745
  106MOL0     H13935   1.707   0.382  11.156  0.6351  0.0853  1.6460
  106MOL0     H13936   1.772   0.541  11.150  1.5727 -2.0818 -0.7484
  106MOL0     H13937   1.475   0.472  11.163 -1.9976  0.8454 -0.6642
  106MOL0     H13938   1.517   0.577  11.028  3.2390  2.4951  0.2519
  106MOL0     H13939   1.630   0.737  11.181  1.8304 -1.8399 -0.9814
  106MOL0     H13940   1.594   0.619  11.323 -1.9065  1.7559  1.0605
  106MOL0     H13941   1.390   0.750  11.145  0.7741  3.7117  1.6197
  106MOL0     H13942   1.344   0.644  11.265 -0.5796  0.9392  0.7613
  106MOL0     H13943   1.519   0.892  11.309 -1.0140  0.6177  0.2588
  106MOL0     H13944   1.439   0.815  11.442  0.1016 -0.8603  1.0568
  106MOL0     H13945   1.183   0.837  11.497  0.5447 -1.3637 -0.4804
  106MOL0     H13946   0.917   1.083  11.373  0.5987  1.3385  3.9642
  106MOL0     H13947   0.943   0.945  11.481 -1.1720 -0.2601  0.0744
  106MOL0     H13948   0.890   0.793  11.289  0.9418  1.1055 -2.6821
  106MOL0     H13949   0.886   0.922  11.172  3.7867  1.1689  1.1411
  106MOL0     H13950   0.668   0.821  11.239  1.7862 -0.3229 -2.0283
  106MOL0     H13951   0.689   0.873  11.408 -0.9906  1.4114  0.0008
  106MOL0     H13952   0.622   1.026  11.153 -2.0443  1.2953 -1.2751
  106MOL0     H13953   0.676   1.111  11.301  0.6113 -0.1549 -0.1033
  106MOL0     H13954   0.490   0.885  11.062 -0.0803  2.3952  1.1316
  106MOL0     H13955   0.317   0.781  10.962  3.3665 -2.7476  2.3143
  106MOL0     H13956  -0.260   0.648  11.260  1.1633 -3.5674 -1.3794
  106MOL0     H13957  -0.477   0.585  11.176 -0.2243 -0.0785 -0.5004
  106MOL0     H13958  -0.517   0.480  10.809  2.6154  1.1361 -1.8164
  106MOL0     H13959  -0.538   0.639  10.722  2.8362  0.4043  0.9473
  106MOL0     H13960  -0.746   0.567  10.661 -1.7936 -1.1754 -0.3191
  106MOL0     H13961  -0.780   0.650  10.819  0.2387 -0.1217 -0.6986
  106MOL0     H13962  -0.910   0.460  10.816  0.2650 -0.4448 -1.2809
  106MOL0     H13963  -0.770   0.452  10.930  0.7338  1.0432  0.5688
  106MOL0     H13964  -0.803   0.315  10.648 -0.3125 -0.2417  0.2386
  106MOL0     H13965  -0.648   0.332  10.716  0.8478  0.9256 -0.2824
  106MOL0     H13966  -0.689   0.110  10.791  0.0477 -1.1502  1.4530
  106MOL0     H13967  -0.863   0.146  10.817 -1.5188  2.1051 -1.1550
  106MOL0     H13968  -0.756   0.088  11.019 -1.2527 -0.0268  0.1160
  106MOL0     H13969  -0.819   0.242  11.029  0.6236  0.3452  0.9577
  106MOL0     H13970  -0.525   0.165  10.950 -0.3076  1.2913 -0.3663
  106MOL0     H13971  -0.583   0.327  10.978 -0.4881 -1.4881 -4.2987
  106MOL0     H13972  -0.462   0.263  11.174 -0.4079 -0.4225  1.4746
  106MOL0     H13973  -0.582   0.127  11.191 -0.0988 -0.5551 -2.1005
  106MOL0     H13974  -0.407   0.788  10.811 -2.5570 -1.3305 -0.1437
  106MOL0     H13975  -0.163   0.844  10.896  1.4738 -2.2340 -0.5077
  106MOL0     H13976   0.060   0.913  11.302 -0.8866  1.2813 -1.6929
  106MOL0     H13977   0.257   0.992  11.407 -1.4285  2.8608 -0.4503
  106MOL0     H13978   2.311   0.314  10.784  3.4554 -1.1230 -1.3975
  106MOL0     H13979   2.451   0.275  10.574  0.4152  0.4041 -1.9720
  106MOL0     H13980   2.491   0.159  10.167  0.1528 -0.3575  1.9391
  106MOL0     H13981   2.679   0.147  10.018 -0.9931 -0.9727  0.3788
  106MOL0     H13982   2.850   0.458   9.822 -0.0830  1.3886  2.0805
  106MOL0     H13983   2.807   0.294   9.803  0.3155 -1.2636  1.0642
  106MOL0     H13984   3.029   0.214   9.815 -3.1163 -0.4681 -0.5137
  106MOL0     H13985   3.044   0.340   9.709 -0.5358  3.9947  0.7594
  106MOL0     H13986   3.133   0.328   9.997 -1.0373  1.1633 -0.1100
  106MOL0     H13987   3.128   0.497   9.919 -2.4073  0.6989 -1.8641
  106MOL0     H13988   3.277   0.269   9.800  0.0586  0.9889 -0.9157
  106MOL0     H13989   3.274   0.434   9.752 -4.2469 -0.1548 -0.0710
  106MOL0     H13990   3.500   0.418  10.125 -1.0559 -1.3739  0.9803
  106MOL0     H13991   2.763   0.567  10.091  1.1775 -1.0519 -1.5868
  106MOL0     H13992   2.549   0.589  10.207  0.9236  1.1355 -1.5642
  107MOL0     O13993   4.752   4.249   1.526  0.1584 -0.4058 -0.9077
  107MOL0     C13994   4.740   4.377   1.532  0.4623  0.3212  0.0134
  107MOL0     O13995   4.779   4.457   1.636  0.2697 -0.7071  0.1729
  107MOL0     C13996   4.871   4.414   1.725 -0.5523 -0.2718  0.0140
  107MOL0     C13997   5.002   4.372   1.694  0.7967 -0.0534 -0.3537
  107MOL0     C13998   5.096   4.353   1.796  0.3352 -0.2874  0.1433
  107MOL0     C13999   5.057   4.379   1.934  0.5122  0.6447  0.4612
  107MOL0     O14000   5.138   4.340   2.038 -0.5807  0.8368 -0.4060
  107MOL0     C14001   5.114   4.195   2.079 -0.5489  0.0837  0.4977
  107MOL0     C14002   5.222   4.154   2.189 -0.2257  0.3842 -0.5243
  107MOL0     C14003   5.210   4.229   2.325 -0.1285 -0.3953 -1.0294
  107MOL0     C14004   5.319   4.199   2.425 -0.3405  0.7208  0.3313
  107MOL0     C14005   5.294   4.276   2.563 -0.0651  0.1782  0.5590
  107MOL0     C14006   5.385   4.226   2.676  0.7512 -0.3317  0.0930
  107MOL0     C14007   5.531   4.265   2.657  0.5931  0.9553 -0.3340
  107MOL0     C14008   5.613   4.209   2.780  2.1432 -0.9933  0.4022
  107MOL0     N14009   5.761   4.225   2.769  0.1794 -0.6427 -0.2084
  107MOL0     C14010   5.837   4.336   2.813 -1.0298  0.4183 -0.0678
  107MOL0     C14011   5.968   4.297   2.813  0.5844 -0.7009  0.4505
  107MOL0     C14012   6.093   4.377   2.830  0.2914  0.4942  0.9389
  107MOL0     C14013   6.099   4.470   2.955  0.2147 -0.4567  0.1764
  107MOL0     C14014   6.238   4.539   2.957  0.1092  0.9342  0.0690
  107MOL0     C14015   6.258   4.603   3.095 -0.2913 -0.7808  0.5263
  107MOL0     O14016   6.253   4.523   3.207  0.0219  0.9030  0.7457
  107MOL0     C14017   6.364   4.486   3.277 -0.0468 -0.3260  0.3219
  107MOL0     C14018   6.368   4.355   3.322 -0.9587  0.2480 -0.3350
  107MOL0     C14019   6.477   4.303   3.395 -0.0496  0.2152 -0.3085
  107MOL0     C14020   6.585   4.384   3.428 -0.7012 -0.2863  0.2973
  107MOL0     C14021   6.706   4.331   3.498 -0.0331  0.0161 -0.0624
  107MOL0     O14022   6.811   4.419   3.540  0.0059  0.4644 -0.2769
  107MOL0     C14023   6.924   4.371   3.600  0.8397 -0.3211  1.1976
  107MOL0     C14024   6.955   4.422   3.722 -0.6614  0.1255 -0.1923
  107MOL0     C14025   7.078   4.393   3.782  0.0568 -0.7144  0.1356
  107MOL0     C14026   7.164   4.299   3.719  0.1855 -0.6951  0.1443
  107MOL0     O14027   7.274   4.258   3.788 -0.2664 -0.0712 -0.1966
  107MOL0     C14028   7.354   4.350   3.867  0.2151  0.3159  0.1990
  107MOL0     C14029   7.328   4.326   4.020 -0.4158  0.1334  1.3461
  107MOL0     C14030   7.441   4.369   4.107 -0.2526 -0.6385  0.2418
  107MOL0     C14031   7.469   4.515   4.086 -0.0195  0.2280  0.2995
  107MOL0     C14032   7.607   4.545   4.134  0.4129  0.2874  0.6165
  107MOL0     C14033   7.646   4.691   4.121  0.3904  0.8186  0.2479
  107MOL0     C14034   7.794   4.716   4.136  1.3849 -0.9818  0.6194
  107MOL0     C14035   7.838   4.861   4.099  0.7476  0.3186 -0.3339
  107MOL0    Cl14036   8.012   4.870   4.111 -0.6106  0.4087  0.4273
  107MOL0     C14037   7.141   4.250   3.600 -0.5852 -0.7522  0.0254
  107MOL0     C14038   7.016   4.287   3.535  0.3363 -0.2606  0.1448
  107MOL0     O14039   6.713   4.211   3.498  0.9736  0.1935 -0.5227
  107MOL0     C14040   6.569   4.519   3.394 -0.0948  0.1408 -0.9752
  107MOL0     C14041   6.463   4.566   3.324  0.0116 -0.5335 -0.0166
  107MOL0     N14042   5.970   4.166   2.774 -0.2909 -0.1988 -0.4445
  107MOL0     N14043   5.851   4.124   2.741 -0.0270  0.5836  0.0839
  107MOL0     C14044   4.924   4.408   1.967 -0.1475 -0.1185  0.1390
  107MOL0     C14045   4.835   4.430   1.859  0.2509  0.2457 -0.3652
  107MOL0     C14046   4.639   4.431   1.433 -0.5781  0.1784  0.4976
  107MOL0     C14047   4.575   4.341   1.347 -0.6212 -0.4386  0.3446
  107MOL0     C14048   4.481   4.396   1.260 -0.2799  0.0279  0.6337
  107MOL0     C14049   4.455   4.538   1.255 -0.5469 -0.2304  0.7119
  107MOL0     O14050   4.357   4.592   1.173 -0.1367 -0.7733 -0.9181
  107MOL0     C14051   4.270   4.504   1.099 -0.0141 -0.0762  2.2053
  107MOL0     C14052   4.162   4.588   1.019 -0.6850 -0.1830 -0.3679
  107MOL0     C14053   4.071   4.657   1.127 -0.1011  0.5046 -0.0609
  107MOL0     C14054   3.947   4.720   1.078 -0.2362 -0.5061 -0.3608
  107MOL0     C14055   3.860   4.742   1.185  1.0075 -0.6428 -0.9147
  107MOL0     C14056   3.786   4.755   1.280  0.2976 -0.7902  0.2421
  107MOL0     C14057   4.520   4.621   1.338 -0.4398 -0.0329 -0.6950
  107MOL0     C14058   4.608   4.564   1.433  0.4624  1.1485 -0.1110
  107MOL0     H14059   5.039   4.368   1.592  2.1853  0.3827  0.1072
  107MOL0     H14060   5.201   4.332   1.778  1.0331 -0.4305  3.7652
  107MOL0     H14061   5.143   4.129   1.997 -2.5095  0.7064 -0.7689
  107MOL0     H14062   5.015   4.166   2.118  0.7204 -0.3015  3.7362
  107MOL0     H14063   5.320   4.166   2.143  0.1900 -1.3119 -0.1725
  107MOL0     H14064   5.209   4.048   2.213  1.6357  0.6998  2.4396
  107MOL0     H14065   5.115   4.206   2.374 -0.4176  2.0583 -0.2828
  107MOL0     H14066   5.200   4.337   2.309  1.7608 -0.1679 -0.8352
  107MOL0     H14067   5.324   4.092   2.447  3.8100  0.7291  0.3226
  107MOL0     H14068   5.413   4.237   2.383 -0.6535  3.6387  1.9748
  107MOL0     H14069   5.191   4.269   2.600  0.1369 -0.4210  1.0155
  107MOL0     H14070   5.307   4.383   2.542  3.1000  0.3523  2.6677
  107MOL0     H14071   5.367   4.119   2.688  1.0135 -0.3934 -0.0378
  107MOL0     H14072   5.345   4.274   2.766 -0.9789  2.0846 -1.8340
  107MOL0     H14073   5.578   4.216   2.572  2.3143  0.3001  0.9320
  107MOL0     H14074   5.542   4.373   2.640  0.3909  0.5347 -3.7280
  107MOL0     H14075   5.590   4.102   2.788  1.1771 -0.7803  0.6352
  107MOL0     H14076   5.576   4.271   2.862 -0.5525 -1.2707 -0.4843
  107MOL0     H14077   5.826   4.441   2.841  0.2058  0.0905  1.8028
  107MOL0     H14078   6.110   4.444   2.746 -0.5130  3.1283  2.7462
  107MOL0     H14079   6.179   4.310   2.837  0.5163  0.7884  1.0211
  107MOL0     H14080   6.070   4.401   3.035 -0.9334 -1.1761 -0.8157
  107MOL0     H14081   6.027   4.552   2.964  2.3859  1.3369  2.9628
  107MOL0     H14082   6.313   4.466   2.928  0.4479  1.7479 -1.1641
  107MOL0     H14083   6.239   4.629   2.895 -2.2353  2.6867  2.3144
  107MOL0     H14084   6.200   4.693   3.116 -0.0651 -0.6779  0.7117
  107MOL0     H14085   6.362   4.632   3.082 -0.2688 -0.2405  1.7921
  107MOL0     H14086   6.288   4.285   3.301 -1.7878  1.2354 -0.5779
  107MOL0     H14087   6.476   4.198   3.422  3.8572  0.8940  3.7984
  107MOL0     H14088   6.880   4.481   3.774  0.0809  1.4433 -0.5595
  107MOL0     H14089   7.094   4.432   3.883 -1.4114  2.4743 -0.7364
  107MOL0     H14090   7.326   4.455   3.856 -0.7692 -0.1261 -2.2570
  107MOL0     H14091   7.460   4.329   3.854  0.2729  0.4134  0.5010
  107MOL0     H14092   7.314   4.219   4.037  0.2198 -0.3242 -0.7277
  107MOL0     H14093   7.233   4.371   4.051 -1.3863 -0.0335 -1.1533
  107MOL0     H14094   7.529   4.313   4.075 -0.2650  0.1712 -1.3185
  107MOL0     H14095   7.405   4.366   4.210 -0.3016 -0.1977  0.2366
  107MOL0     H14096   7.459   4.549   3.982  0.7150  1.5224  0.6258
  107MOL0     H14097   7.391   4.574   4.135 -0.2666  0.4780 -0.3728
  107MOL0     H14098   7.676   4.476   4.085  0.3108  1.8033 -1.7975
  107MOL0     H14099   7.605   4.531   4.243  0.5450  4.5031  1.3463
  107MOL0     H14100   7.591   4.758   4.187 -0.1319 -1.0371  1.7743
  107MOL0     H14101   7.614   4.723   4.021 -1.6051 -1.3562  0.0979
  107MOL0     H14102   7.835   4.674   4.228 -0.1475  1.4697  2.5431
  107MOL0     H14103   7.842   4.658   4.057 -1.2867 -1.0718 -1.0465
  107MOL0     H14104   7.795   4.928   4.174  1.2474  2.7784 -2.1371
  107MOL0     H14105   7.799   4.883   3.999  0.0003  1.9126  0.2714
  107MOL0     H14106   7.211   4.181   3.555 -0.3333  0.1180 -0.9460
  107MOL0     H14107   6.995   4.258   3.433 -0.5104 -0.4410  0.3617
  107MOL0     H14108   6.651   4.584   3.424 -0.7253  0.8252 -0.7166
  107MOL0     H14109   6.452   4.674   3.313  0.2943 -0.5877 -0.9489
  107MOL0     H14110   4.893   4.430   2.069 -1.8261  2.6962 -0.8662
  107MOL0     H14111   4.732   4.457   1.881 -0.3346 -1.7248 -0.4827
  107MOL0     H14112   4.599   4.236   1.341  0.8841 -0.1292  0.5417
  107MOL0     H14113   4.442   4.327   1.187  2.3440 -0.5381 -0.3696
  107MOL0     H14114   4.210   4.437   1.162 -0.6120  1.2224  3.0464
  107MOL0     H14115   4.329   4.450   1.024  0.8793  0.6381  2.3779
  107MOL0     H14116   4.204   4.671   0.961  1.8381  0.4373  2.1199
  107MOL0     H14117   4.107   4.522   0.952  2.3151 -0.5701 -2.6688
  107MOL0     H14118   4.123   4.732   1.186 -1.1340  0.3989  1.0251
  107MOL0     H14119   4.039   4.585   1.203  2.0197 -1.3980 -0.8564
  107MOL0     H14120   3.979   4.820   1.045  3.3883 -1.1764  0.6233
  107MOL0     H14121   3.910   4.665   0.991  3.3145 -3.3994 -0.2969
  107MOL0     H14122   3.714   4.745   1.358 -0.5449 -3.2167 -0.7761
  107MOL0     H14123   4.512   4.729   1.332  5.3163  0.9081  1.8119
  107MOL0     H14124   4.647   4.637   1.504 -0.2576 -0.2439  1.8216
  108MOL0     O14125   8.023  10.780   4.940 -0.3117  0.2339  0.6775
  108MOL0     C14126   7.964  10.877   4.962 -0.0508 -0.6947  0.5341
  108MOL0     O14127   7.955  10.989   4.884  0.1438  0.4224 -0.5071
  108MOL0     C14128   8.031  11.002   4.774 -0.3314 -0.4387 -0.7012
  108MOL0     C14129   8.080  10.894   4.697  0.8026 -0.0302  0.3818
  108MOL0     C14130   8.181  10.910   4.602 -1.3381  0.6161 -0.6881
  108MOL0     C14131   8.232  11.033   4.585 -0.2437  0.3419  0.5496
  108MOL0     O14132   8.329  11.044   4.488 -0.5188  0.1335  0.2938
  108MOL0     C14133   8.459  11.056   4.539 -0.6446  0.7915 -0.5875
  108MOL0     C14134   8.510  11.175   4.474 -0.2047 -0.7425  0.1806
  108MOL0     C14135   8.658  11.178   4.415  0.8039 -0.6430 -0.2995
  108MOL0     C14136   8.760  11.172   4.525 -0.8352 -0.6083 -0.4164
  108MOL0     C14137   8.895  11.226   4.483 -0.2291 -0.7193 -0.2522
  108MOL0     C14138   8.981  11.247   4.604 -0.2360 -0.0875  0.1644
  108MOL0     C14139   9.107  11.321   4.581 -0.0964 -0.9075  0.0603
  108MOL0     C14140   9.141  11.401   4.708 -0.4862  0.1290  0.7169
  108MOL0     N14141   9.259  11.479   4.682  0.1746 -0.4905 -0.1900
  108MOL0     C14142   9.376  11.467   4.743 -0.2775 -0.6151 -0.6105
  108MOL0     C14143   9.451  11.573   4.692 -0.3834  0.3149 -0.3115
  108MOL0     C14144   9.598  11.593   4.719 -0.5408 -0.7272 -0.3471
  108MOL0     C14145   9.694  11.479   4.687  0.0718  0.0470 -0.4794
  108MOL0     C14146   9.669  11.425   4.545 -0.4099  0.3868 -0.1630
  108MOL0     C14147   9.748  11.296   4.529 -0.0780 -0.2735 -0.1227
  108MOL0     O14148   9.706  11.219   4.414  0.3551 -0.2645 -0.1311
  108MOL0     C14149   9.588  11.151   4.414 -0.7741  0.4027  0.5602
  108MOL0     C14150   9.525  11.101   4.528 -0.0470 -0.0247  0.0005
  108MOL0     C14151   9.410  11.015   4.508  0.1662 -0.4539 -0.4909
  108MOL0     C14152   9.373  10.985   4.376 -0.6515  0.1081  0.5923
  108MOL0     C14153   9.254  10.903   4.352 -0.9633  0.7455  0.5991
  108MOL0     O14154   9.197  10.845   4.459  0.2245  0.4351  0.6747
  108MOL0     C14155   9.074  10.788   4.447 -0.5457  0.2282  1.0424
  108MOL0     C14156   8.974  10.848   4.528  0.7285 -0.3269 -0.0351
  108MOL0     C14157   8.838  10.811   4.514  0.2826  0.8377  0.1253
  108MOL0     C14158   8.804  10.702   4.435  0.5200  0.2841 -0.3277
  108MOL0     O14159   8.674  10.651   4.435 -1.0664 -0.2387 -0.0698
  108MOL0     C14160   8.662  10.505   4.431 -0.7679 -0.2586 -0.3276
  108MOL0     C14161   8.515  10.486   4.482 -0.3640  0.1182 -0.8987
  108MOL0     C14162   8.404  10.539   4.398 -0.2153 -0.5237 -0.1352
  108MOL0     C14163   8.389  10.442   4.270  0.1783  0.5647 -0.1089
  108MOL0     C14164   8.291  10.499   4.165 -0.1319  1.0735  0.0092
  108MOL0     C14165   8.304  10.440   4.017 -0.2865  0.8491 -0.4931
  108MOL0     C14166   8.353  10.294   4.014 -0.4467 -0.2511  0.1478
  108MOL0     C14167   8.395  10.239   3.876  0.7503  0.0846 -0.0068
  108MOL0    Cl14168   8.370  10.065   3.857  0.6953  0.1892  0.0742
  108MOL0     C14169   8.911  10.638   4.369  0.3801  1.0947 -0.3351
  108MOL0     C14170   9.041  10.686   4.362  0.6313  0.6393  0.2613
  108MOL0     O14171   9.218  10.884   4.240 -0.0221  0.2524  0.7743
  108MOL0     C14172   9.441  11.036   4.263 -0.7549 -0.4413  0.3267
  108MOL0     C14173   9.547  11.127   4.280  0.1217 -0.2991 -0.5596
  108MOL0     N14174   9.367  11.644   4.609 -0.6359  0.7971 -0.5842
  108MOL0     N14175   9.251  11.591   4.609  0.3421  0.3667 -0.2545
  108MOL0     C14176   8.203  11.137   4.669 -0.4458  0.4662  0.4755
  108MOL0     C14177   8.088  11.128   4.754 -0.5358 -0.7940 -0.3000
  108MOL0     C14178   7.883  10.877   5.086 -0.6263  0.1281 -0.3810
  108MOL0     C14179   7.780  10.964   5.100  0.3327 -0.5752 -0.5003
  108MOL0     C14180   7.711  10.975   5.226 -0.2097 -0.2475  0.1773
  108MOL0     C14181   7.748  10.897   5.344 -0.3950 -0.0073  0.5459
  108MOL0     O14182   7.651  10.888   5.439  0.4719  0.0686 -0.8253
  108MOL0     C14183   7.650  10.756   5.492 -0.2976  0.7516  0.7451
  108MOL0     C14184   7.508  10.742   5.556 -1.0866 -0.2824 -0.8988
  108MOL0     C14185   7.486  10.617   5.636  0.5346  0.5297 -1.0434
  108MOL0     C14186   7.335  10.590   5.663 -0.4999  0.7145 -0.5088
  108MOL0     C14187   7.336  10.471   5.754 -0.0964  0.8772  0.3948
  108MOL0     C14188   7.327  10.400   5.856 -0.0509 -1.0490 -0.1976
  108MOL0     C14189   7.870  10.814   5.325  1.4399  0.5941  0.0857
  108MOL0     C14190   7.927  10.800   5.197 -0.8458  1.2424 -0.2000
  108MOL0     H14191   8.042  10.795   4.717  0.5844  0.2664  1.5327
  108MOL0     H14192   8.207  10.832   4.531 -2.4898 -0.2257 -0.2122
  108MOL0     H14193   8.526  10.975   4.507 -1.3861  0.8183 -2.3243
  108MOL0     H14194   8.463  11.064   4.648  0.7826 -3.5126 -0.1225
  108MOL0     H14195   8.478  11.259   4.537 -2.4456 -1.7617  0.4916
  108MOL0     H14196   8.455  11.198   4.381  0.5804 -0.6203 -0.2594
  108MOL0     H14197   8.660  11.277   4.367  0.4388  0.5142  1.9021
  108MOL0     H14198   8.675  11.098   4.343  1.8931 -0.0409 -0.7292
  108MOL0     H14199   8.728  11.244   4.601 -1.4943 -0.7135 -0.5942
  108MOL0     H14200   8.776  11.077   4.575  0.3133  0.6223  1.7072
  108MOL0     H14201   8.872  11.323   4.437 -1.3231 -0.5231  0.6616
  108MOL0     H14202   8.963  11.169   4.419  1.8474 -0.0747  1.2985
  108MOL0     H14203   8.999  11.152   4.655  1.2768  0.6206  1.0049
  108MOL0     H14204   8.928  11.304   4.682  0.1600 -1.0514  1.1566
  108MOL0     H14205   9.190  11.255   4.555  1.7164  0.9600  0.8120
  108MOL0     H14206   9.088  11.394   4.501 -0.9427 -1.4996 -0.2856
  108MOL0     H14207   9.134  11.333   4.793 -0.3148 -1.1010 -0.2228
  108MOL0     H14208   9.058  11.471   4.723  0.9228  1.8081  1.0466
  108MOL0     H14209   9.414  11.388   4.807 -1.4454 -1.5549 -1.0414
  108MOL0     H14210   9.613  11.599   4.828 -0.8028 -3.9049 -0.0507
  108MOL0     H14211   9.630  11.680   4.660  2.2509 -1.5699 -0.2123
  108MOL0     H14212   9.677  11.406   4.766 -0.6148  0.0627 -0.6073
  108MOL0     H14213   9.797  11.517   4.692  0.2707  0.1964 -3.5521
  108MOL0     H14214   9.563  11.400   4.528 -1.6240  0.8337  5.0543
  108MOL0     H14215   9.707  11.500   4.476  2.8499 -1.0308 -0.0757
  108MOL0     H14216   9.757  11.236   4.620  0.9191  0.0145 -0.0190
  108MOL0     H14217   9.853  11.317   4.505  0.8328 -1.5455  2.3676
  108MOL0     H14218   9.565  11.122   4.627  0.1978 -1.1337  0.1494
  108MOL0     H14219   9.356  10.982   4.596 -3.2141 -0.2901 -2.3499
  108MOL0     H14220   9.007  10.923   4.599  0.4584  3.0764 -3.1958
  108MOL0     H14221   8.765  10.850   4.584  1.4319 -0.9048  2.4600
  108MOL0     H14222   8.729  10.459   4.504 -2.4171  2.5176  3.2988
  108MOL0     H14223   8.679  10.471   4.329 -0.7796 -1.4472  0.0603
  108MOL0     H14224   8.498  10.528   4.581  0.4615 -1.4888 -0.0392
  108MOL0     H14225   8.493  10.380   4.499 -0.1107 -0.3425 -3.1379
  108MOL0     H14226   8.442  10.637   4.367  4.8156 -0.8972  3.5253
  108MOL0     H14227   8.315  10.565   4.455 -0.8554 -1.7437 -0.5395
  108MOL0     H14228   8.483  10.419   4.218  0.5334 -1.4930  1.3217
  108MOL0     H14229   8.348  10.345   4.298 -1.1218  0.6891 -1.4426
  108MOL0     H14230   8.301  10.608   4.162  3.7111  0.8662  0.5350
  108MOL0     H14231   8.192  10.480   4.209  0.3479 -1.1096  0.2886
  108MOL0     H14232   8.385  10.496   3.969  1.0466 -0.1419  0.5368
  108MOL0     H14233   8.208  10.462   3.968 -0.1485  3.1124  0.1124
  108MOL0     H14234   8.439  10.275   4.080  0.4138 -1.4157 -1.2600
  108MOL0     H14235   8.269  10.238   4.056 -1.4689  1.4685  0.5007
  108MOL0     H14236   8.499  10.271   3.866  0.8219  0.7802  2.4695
  108MOL0     H14237   8.336  10.295   3.802 -1.0338  4.4511  4.1948
  108MOL0     H14238   8.893  10.558   4.298 -2.0391 -0.0651  1.4496
  108MOL0     H14239   9.109  10.643   4.289  1.1075  4.1991 -1.6222
  108MOL0     H14240   9.404  11.014   4.163 -1.4270  0.2136  0.4284
  108MOL0     H14241   9.583  11.187   4.197 -2.8413  1.4104 -0.7236
  108MOL0     H14242   8.259  11.229   4.655  0.6621 -0.3155 -0.3574
  108MOL0     H14243   8.048  11.208   4.815 -0.4901 -0.6617 -0.4431
  108MOL0     H14244   7.736  11.014   5.014  0.6436 -2.6829 -1.9862
  108MOL0     H14245   7.626  11.043   5.230  0.8451  1.0508  2.5452
  108MOL0     H14246   7.718  10.731   5.575  0.2232  0.6257  0.2862
  108MOL0     H14247   7.663  10.696   5.402  0.8260  0.3025  1.1810
  108MOL0     H14248   7.501  10.835   5.613  2.8276  1.2986 -2.6067
  108MOL0     H14249   7.438  10.739   5.472 -1.5199  0.1753 -0.5583
  108MOL0     H14250   7.542  10.621   5.730  1.7383 -1.5271 -1.5986
  108MOL0     H14251   7.529  10.532   5.582  1.5780  1.0701 -1.0818
  108MOL0     H14252   7.271  10.666   5.707 -3.5612 -1.6996 -0.4473
  108MOL0     H14253   7.283  10.551   5.575 -0.3257 -0.4288 -0.1263
  108MOL0     H14254   7.303  10.349   5.947  3.2239  1.0335  2.0486
  108MOL0     H14255   7.891  10.746   5.406 -0.8505  0.2380  0.4664
  108MOL0     H14256   8.013  10.734   5.194 -1.6729  0.1458 -0.6052
  109MOL0     O14257   9.788   8.638   8.220 -0.3367  0.0323 -0.3764
  109MOL0     C14258   9.778   8.670   8.098 -1.2191 -0.2601  0.0529
  109MOL0     O14259   9.663   8.665   8.020  0.1725 -0.2533 -0.1200
  109MOL0     C14260   9.545   8.634   8.084  0.6840  0.1666  0.8657
  109MOL0     C14261   9.510   8.498   8.087  0.7846 -0.5654 -0.1542
  109MOL0     C14262   9.381   8.467   8.138 -0.3755  0.2867  0.3758
  109MOL0     C14263   9.281   8.562   8.180 -0.8302  0.4609  0.5935
  109MOL0     O14264   9.166   8.510   8.235 -1.4912 -0.2214  0.4780
  109MOL0     C14265   9.041   8.589   8.212 -1.1190  0.4502  0.3261
  109MOL0     C14266   9.030   8.682   8.339 -0.0504 -0.0043  0.6058
  109MOL0     C14267   8.954   8.818   8.320  0.3267  0.4857  0.2275
  109MOL0     C14268   9.033   8.925   8.252  0.6216 -0.1172  1.0235
  109MOL0     C14269   8.945   9.053   8.233  0.3649 -0.4858 -0.0602
  109MOL0     C14270   8.985   9.122   8.108  0.2270  0.9137 -0.0545
  109MOL0     C14271   8.923   9.251   8.073  0.0619 -0.6695 -0.4012
  109MOL0     C14272   8.767   9.237   8.044  0.0153 -0.2594 -0.2141
  109MOL0     N14273   8.697   9.369   8.034 -0.0275  0.2491 -0.0039
  109MOL0     C14274   8.588   9.405   8.108  0.4447 -1.0305  0.2348
  109MOL0     C14275   8.586   9.539   8.096 -0.5187 -0.3761  0.3686
  109MOL0     C14276   8.492   9.646   8.165 -0.0265  0.2034  0.0682
  109MOL0     C14277   8.392   9.693   8.067 -0.3475 -0.5315  0.0536
  109MOL0     C14278   8.289   9.795   8.100  0.7896 -0.9478  0.1104
  109MOL0     C14279   8.182   9.792   7.995  0.7375 -1.2083 -1.5560
  109MOL0     O14280   8.079   9.884   8.030  0.1282  0.2218 -0.7604
  109MOL0     C14281   7.974   9.836   8.103  0.4120  0.4802 -0.4594
  109MOL0     C14282   7.867   9.919   8.118 -0.0852  0.3833 -1.0856
  109MOL0     C14283   7.750   9.877   8.181 -0.2519  0.5904 -0.8611
  109MOL0     C14284   7.744   9.751   8.253 -0.1477  0.5792 -0.2010
  109MOL0     C14285   7.633   9.700   8.327 -0.4603  0.4541 -0.1980
  109MOL0     O14286   7.511   9.755   8.287 -0.0047  0.1582  0.7682
  109MOL0     C14287   7.401   9.696   8.340  0.1088 -0.7095 -0.3188
  109MOL0     C14288   7.334   9.767   8.447  0.0351 -0.3524 -0.1014
  109MOL0     C14289   7.238   9.694   8.522 -0.3531 -0.7457 -0.5302
  109MOL0     C14290   7.202   9.559   8.492 -0.3041 -1.0610  0.1727
  109MOL0     O14291   7.095   9.504   8.560  0.1915 -0.5244  0.2669
  109MOL0     C14292   7.061   9.361   8.524  0.3465 -0.0940 -1.1395
  109MOL0     C14293   6.945   9.316   8.615 -0.4475 -0.1852  0.0354
  109MOL0     C14294   6.806   9.353   8.554 -0.3170  0.0693  0.1341
  109MOL0     C14295   6.689   9.299   8.640 -0.2638 -0.6833  0.6457
  109MOL0     C14296   6.553   9.339   8.585 -0.8008  0.3548 -0.5232
  109MOL0     C14297   6.432   9.306   8.677 -0.1467  0.1038 -0.7462
  109MOL0     C14298   6.309   9.307   8.591 -1.0293 -0.2120  0.5448
  109MOL0     C14299   6.189   9.279   8.686 -0.0098 -0.2867 -0.0353
  109MOL0    Cl14300   6.214   9.122   8.770  0.2930 -0.7457 -0.3271
  109MOL0     C14301   7.274   9.497   8.395  0.0154  0.6943  0.1376
  109MOL0     C14302   7.371   9.559   8.318 -1.1017  0.9206  0.2460
  109MOL0     O14303   7.656   9.618   8.415 -0.2241 -0.7994  0.5408
  109MOL0     C14304   7.860   9.670   8.249 -0.0014  0.3696 -0.1252
  109MOL0     C14305   7.973   9.712   8.175  0.4022  0.1784  0.1667
  109MOL0     N14306   8.680   9.569   8.001 -0.2542  0.1006  0.0572
  109MOL0     N14307   8.748   9.478   7.970  0.1714  0.7547  0.2440
  109MOL0     C14308   9.307   8.696   8.145 -0.1028  0.6155  0.6375
  109MOL0     C14309   9.441   8.727   8.101 -0.7520  0.2939 -0.8541
  109MOL0     C14310   9.898   8.718   8.029  0.1304 -0.0407 -0.3705
  109MOL0     C14311  10.013   8.765   8.097  0.7575 -0.9267 -0.3278
  109MOL0     C14312  10.130   8.794   8.034 -0.5604 -0.5455  0.1229
  109MOL0     C14313  10.143   8.783   7.892 -0.1683 -0.3965  0.0928
  109MOL0     O14314  10.248   8.817   7.821 -0.3807 -0.0380  0.1830
  109MOL0     C14315  10.377   8.833   7.889  0.7242  0.2601 -0.7606
  109MOL0     C14316  10.505   8.825   7.799 -0.6813  0.6522 -0.3224
  109MOL0     C14317  10.533   8.691   7.717  0.9215 -0.3677  0.2405
  109MOL0     C14318  10.570   8.570   7.811 -0.1254  0.0379  0.5366
  109MOL0     C14319  10.460   8.492   7.864  0.9171 -0.1042 -0.3508
  109MOL0     C14320  10.368   8.425   7.906  0.2761  0.4452  0.0353
  109MOL0     C14321  10.023   8.753   7.824  0.6933 -0.6500  0.1515
  109MOL0     C14322   9.905   8.722   7.893  1.1357  0.3266  0.4180
  109MOL0     H14323   9.580   8.422   8.053  0.8442 -0.7448  0.3651
  109MOL0     H14324   9.346   8.365   8.129 -0.4199  0.4961 -3.2068
  109MOL0     H14325   8.951   8.527   8.217 -0.6582 -0.2521  0.0612
  109MOL0     H14326   9.044   8.649   8.121  1.1055  1.5930  1.0634
  109MOL0     H14327   9.126   8.710   8.384  2.3137 -1.8325 -2.7735
  109MOL0     H14328   8.982   8.625   8.419  0.1785 -0.3140  0.5269
  109MOL0     H14329   8.925   8.849   8.420  1.0469  0.5970  0.4009
  109MOL0     H14330   8.859   8.800   8.268 -0.9946  0.7129  2.4259
  109MOL0     H14331   9.118   8.961   8.310  0.9813  2.0028 -0.6803
  109MOL0     H14332   9.067   8.897   8.152  2.5575  0.5541  1.4557
  109MOL0     H14333   8.946   9.114   8.324  1.5047 -1.1300  0.3782
  109MOL0     H14334   8.842   9.019   8.220 -1.0760  2.1149  3.1157
  109MOL0     H14335   8.941   9.048   8.040 -0.8878 -0.1235  1.7107
  109MOL0     H14336   9.094   9.122   8.103  0.2179  0.7375 -0.3015
  109MOL0     H14337   8.941   9.317   8.158 -0.9336  0.4163 -1.0019
  109MOL0     H14338   8.967   9.286   7.979  2.8972 -0.9328  0.7232
  109MOL0     H14339   8.730   9.175   8.126  1.8297 -0.4198  0.5171
  109MOL0     H14340   8.751   9.193   7.945 -3.3747  0.9262 -0.3341
  109MOL0     H14341   8.532   9.344   8.177 -3.0357  1.3951 -0.2052
  109MOL0     H14342   8.549   9.734   8.197  1.0960 -0.4880  0.0294
  109MOL0     H14343   8.444   9.596   8.249  1.4434 -1.2466  0.1006
  109MOL0     H14344   8.349   9.601   8.026  0.7537 -1.3540  0.6977
  109MOL0     H14345   8.446   9.749   7.990 -0.1920 -1.4813 -0.5430
  109MOL0     H14346   8.255   9.787   8.204  1.3784  0.9798  0.5022
  109MOL0     H14347   8.338   9.893   8.092  1.2616 -1.2171 -0.4038
  109MOL0     H14348   8.134   9.694   7.982 -0.6473 -1.3777  2.9782
  109MOL0     H14349   8.227   9.838   7.907  0.1176  4.8098  0.8254
  109MOL0     H14350   7.860  10.012   8.062  0.0893  0.0425 -1.6720
  109MOL0     H14351   7.668   9.944   8.204 -0.7694 -1.1062  2.9149
  109MOL0     H14352   7.354   9.873   8.457  1.9241 -0.4669 -1.9360
  109MOL0     H14353   7.184   9.745   8.601 -0.8482  0.7392 -1.7659
  109MOL0     H14354   7.148   9.298   8.546 -1.1208 -1.3691  1.4679
  109MOL0     H14355   7.025   9.340   8.422  0.0304  0.9535 -1.2542
  109MOL0     H14356   6.958   9.353   8.717 -0.3189 -0.0593 -0.0272
  109MOL0     H14357   6.939   9.209   8.636  2.2824 -0.2974  0.5721
  109MOL0     H14358   6.787   9.304   8.458 -0.7154  1.7487 -0.6731
  109MOL0     H14359   6.792   9.461   8.541  0.5245  0.7914  3.9943
  109MOL0     H14360   6.710   9.192   8.646  1.3102 -0.4264  0.1865
  109MOL0     H14361   6.693   9.340   8.742  0.9874  0.3149  0.2263
  109MOL0     H14362   6.545   9.286   8.490  1.3948 -0.3880 -0.3438
  109MOL0     H14363   6.556   9.447   8.568  1.3788 -0.0057 -3.0386
  109MOL0     H14364   6.437   9.372   8.764 -2.0920 -1.3352  0.5602
  109MOL0     H14365   6.447   9.203   8.711  0.6922  0.1090 -1.0836
  109MOL0     H14366   6.307   9.392   8.521  1.1710 -0.8945 -0.4377
  109MOL0     H14367   6.318   9.212   8.537  0.3562  1.1137 -1.7779
  109MOL0     H14368   6.093   9.284   8.634 -1.4795 -3.2504  2.0624
  109MOL0     H14369   6.185   9.347   8.771 -0.4054 -0.5174  0.1335
  109MOL0     H14370   7.259   9.397   8.356  2.2069 -0.3817  1.8423
  109MOL0     H14371   7.408   9.511   8.228 -2.9501  0.8390 -0.5286
  109MOL0     H14372   7.870   9.575   8.301  0.7299  1.2274  1.3841
  109MOL0     H14373   8.066   9.657   8.168 -0.0223 -0.4244 -1.3536
  109MOL0     H14374   9.228   8.768   8.160 -2.1887 -1.4240 -0.0886
  109MOL0     H14375   9.477   8.827   8.081 -1.3022  0.0970 -3.1432
  109MOL0     H14376  10.010   8.763   8.205 -0.2811 -2.0661 -0.3501
  109MOL0     H14377  10.208   8.838   8.095 -0.5153 -0.8991  0.3186
  109MOL0     H14378  10.372   8.745   7.954  0.0686 -1.4392 -2.9959
  109MOL0     H14379  10.387   8.917   7.959 -2.7863  1.1133 -1.0896
  109MOL0     H14380  10.506   8.904   7.724  1.7689  1.4030  0.4115
  109MOL0     H14381  10.595   8.824   7.861 -0.7726 -1.5162 -0.1252
  109MOL0     H14382  10.614   8.714   7.647 -0.4114  2.6518 -0.4738
  109MOL0     H14383  10.452   8.662   7.648  0.1553 -2.2635  1.8486
  109MOL0     H14384  10.615   8.489   7.754 -2.2690 -0.3498 -0.7324
  109MOL0     H14385  10.644   8.606   7.882  0.2497  2.2782 -0.9206
  109MOL0     H14386  10.294   8.358   7.944 -0.8721  2.7886  2.2017
  109MOL0     H14387  10.038   8.732   7.719 -1.9294 -1.6392 -0.0978
  109MOL0     H14388   9.833   8.682   7.821 -0.1917  1.4114  1.1006
  110MOL0     O14389   8.115   6.128   6.054  0.8892 -0.0223  0.2160
  110MOL0     C14390   8.111   6.035   6.143 -0.0593 -0.9063  0.6298
  110MOL0     O14391   8.002   6.016   6.227  0.4336  0.3359  0.4723
  110MOL0     C14392   7.903   6.111   6.239 -0.2383 -0.3336  0.1757
  110MOL0     C14393   7.775   6.080   6.206 -0.2043 -0.1718  0.3393
  110MOL0     C14394   7.680   6.180   6.198 -0.2640 -0.2611  0.9247
  110MOL0     C14395   7.710   6.320   6.234  0.4617  1.0286 -0.1020
  110MOL0     O14396   7.599   6.409   6.250 -0.1970 -0.1191 -0.1740
  110MOL0     C14397   7.620   6.551   6.266 -0.3265  0.3372  0.0303
  110MOL0     C14398   7.510   6.617   6.350 -0.1454 -0.4776 -0.8894
  110MOL0     C14399   7.372   6.549   6.338  0.2315  0.1391  0.1045
  110MOL0     C14400   7.261   6.604   6.430 -0.1006 -0.3706  0.3251
  110MOL0     C14401   7.121   6.562   6.370  0.3717 -0.3395  0.8287
  110MOL0     C14402   7.016   6.663   6.416  0.2183 -0.1440 -0.9398
  110MOL0     C14403   6.878   6.629   6.362  1.2295  0.6521 -0.0049
  110MOL0     C14404   6.767   6.710   6.425  0.8592  0.0173  0.2976
  110MOL0     N14405   6.771   6.850   6.386 -0.7481  0.3831 -0.2568
  110MOL0     C14406   6.680   6.912   6.310  0.2738  0.1979 -0.1807
  110MOL0     C14407   6.703   7.044   6.340 -0.2009  0.0550  0.0058
  110MOL0     C14408   6.623   7.163   6.298  0.2312  0.4355 -0.2157
  110MOL0     C14409   6.540   7.234   6.410  0.3993 -0.1523 -1.0465
  110MOL0     C14410   6.454   7.352   6.361 -0.2477 -0.2938  0.1799
  110MOL0     C14411   6.347   7.311   6.253  0.7514 -0.1295 -0.5562
  110MOL0     O14412   6.252   7.223   6.335  0.3732 -0.0582  0.8523
  110MOL0     C14413   6.140   7.269   6.399 -0.6202 -0.1624 -0.3615
  110MOL0     C14414   6.104   7.411   6.389  0.2023  0.3203  0.3291
  110MOL0     C14415   5.984   7.455   6.433 -0.0446  0.0539  0.2969
  110MOL0     C14416   5.894   7.370   6.500  0.6276 -0.1091  0.1083
  110MOL0     C14417   5.776   7.415   6.584 -0.2674  0.2771  0.7358
  110MOL0     O14418   5.716   7.315   6.659  0.5129 -0.3277 -0.5735
  110MOL0     C14419   5.599   7.347   6.734 -0.7806  0.1302 -0.3924
  110MOL0     C14420   5.479   7.398   6.671 -0.2602 -0.9668 -0.6581
  110MOL0     C14421   5.361   7.413   6.746  0.5911  0.4368  0.7827
  110MOL0     C14422   5.348   7.358   6.879  0.5000  1.2141  0.4857
  110MOL0     O14423   5.232   7.360   6.951  0.5052 -0.0363 -0.8924
  110MOL0     C14424   5.122   7.450   6.928  0.2203 -0.2485  0.5164
  110MOL0     C14425   4.997   7.396   7.007 -0.4009 -0.4266 -0.0953
  110MOL0     C14426   4.871   7.481   6.996 -0.6429 -0.5595  0.2064
  110MOL0     C14427   4.799   7.481   6.857 -0.7895 -0.9223 -0.2578
  110MOL0     C14428   4.663   7.549   6.870 -0.5188  0.0716 -0.4515
  110MOL0     C14429   4.671   7.695   6.910  1.0119 -0.4218  0.3192
  110MOL0     C14430   4.550   7.778   6.870  0.1202  0.7355 -0.7410
  110MOL0     C14431   4.425   7.759   6.960 -1.1073 -0.8562 -0.4072
  110MOL0    Cl14432   4.272   7.821   6.890 -0.3361 -0.3255  0.4227
  110MOL0     C14433   5.462   7.297   6.936 -0.6341  0.9778 -0.4857
  110MOL0     C14434   5.585   7.290   6.860 -0.0192  0.9925 -0.4854
  110MOL0     O14435   5.747   7.532   6.584  0.2271 -0.0060 -0.1302
  110MOL0     C14436   5.941   7.233   6.516 -0.2344 -0.7162  0.0457
  110MOL0     C14437   6.061   7.187   6.468 -0.2656 -0.0584  0.0764
  110MOL0     N14438   6.812   7.058   6.422 -0.7528  0.6022  0.2238
  110MOL0     N14439   6.852   6.942   6.443  0.1255  0.1532  0.9764
  110MOL0     C14440   7.844   6.354   6.257  0.8625 -1.0475 -0.5811
  110MOL0     C14441   7.932   6.247   6.266 -0.4596 -0.6880 -0.0935
  110MOL0     C14442   8.230   5.944   6.133 -0.3205 -0.6382 -0.6561
  110MOL0     C14443   8.346   5.970   6.064  0.9517 -0.3417 -0.0677
  110MOL0     C14444   8.449   5.869   6.056 -0.1060  0.3744 -0.5309
  110MOL0     C14445   8.439   5.754   6.131  0.2688  0.4156  0.9753
  110MOL0     O14446   8.552   5.676   6.134 -0.1400  0.5202 -0.0145
  110MOL0     C14447   8.540   5.562   6.043  0.5510  0.5988 -0.0392
  110MOL0     C14448   8.635   5.444   6.101 -0.8761  0.3883  0.6186
  110MOL0     C14449   8.779   5.483   6.139  0.2905  0.2217  0.5340
  110MOL0     C14450   8.871   5.565   6.041  0.2360  0.7020 -0.5589
  110MOL0     C14451   8.895   5.480   5.925  0.1581 -0.3673  0.7873
  110MOL0     C14452   8.924   5.407   5.831 -0.1962 -0.3909 -0.1361
  110MOL0     C14453   8.313   5.723   6.195  0.8222 -1.0626 -1.1919
  110MOL0     C14454   8.212   5.820   6.197  0.0175 -0.7682  0.1439
  110MOL0     H14455   7.752   5.976   6.186 -0.1707 -0.5319  2.0308
  110MOL0     H14456   7.575   6.153   6.193 -0.7873  1.5295  1.2298
  110MOL0     H14457   7.638   6.594   6.167  0.9752 -1.2903 -0.4987
  110MOL0     H14458   7.713   6.570   6.321 -0.6055  1.8268  0.0088
  110MOL0     H14459   7.515   6.726   6.345 -1.5022 -0.0317  3.3526
  110MOL0     H14460   7.535   6.606   6.456  0.7817 -0.4956 -1.1027
  110MOL0     H14461   7.373   6.441   6.358 -0.8365  0.4301  1.9194
  110MOL0     H14462   7.339   6.562   6.235  3.1266  2.0887 -0.7049
  110MOL0     H14463   7.278   6.565   6.531  0.2444 -1.5078 -0.1557
  110MOL0     H14464   7.268   6.713   6.428 -0.3517 -0.3512 -2.4698
  110MOL0     H14465   7.099   6.458   6.396  0.4584 -0.3336  0.9302
  110MOL0     H14466   7.129   6.560   6.261  3.2305 -0.0792  0.9545
  110MOL0     H14467   7.043   6.758   6.367 -3.8466  0.5334 -2.3227
  110MOL0     H14468   7.021   6.681   6.523  2.6920 -0.5703 -0.9309
  110MOL0     H14469   6.884   6.649   6.255 -0.9293 -0.0664 -0.3307
  110MOL0     H14470   6.845   6.524   6.364 -0.3086  1.0043 -2.7708
  110MOL0     H14471   6.755   6.688   6.532 -0.6408 -2.0893 -0.2415
  110MOL0     H14472   6.682   6.663   6.376  2.2299 -1.2284 -0.9853
  110MOL0     H14473   6.598   6.864   6.258  0.1520  0.3577 -0.1338
  110MOL0     H14474   6.553   7.131   6.220  0.6424 -0.2659 -0.3075
  110MOL0     H14475   6.688   7.232   6.245 -1.8367  2.4416 -0.2888
  110MOL0     H14476   6.600   7.265   6.496 -0.0127 -2.1018 -0.0058
  110MOL0     H14477   6.474   7.159   6.455  0.3927  0.8386  0.7148
  110MOL0     H14478   6.417   7.410   6.446  1.2101  0.8122  0.0922
  110MOL0     H14479   6.514   7.416   6.296 -0.3080 -1.1694 -0.7618
  110MOL0     H14480   6.389   7.251   6.172 -1.8461 -0.9227 -1.4283
  110MOL0     H14481   6.297   7.395   6.205  0.2428 -0.2858 -0.3162
  110MOL0     H14482   6.172   7.472   6.330  0.2670 -1.6061 -1.7174
  110MOL0     H14483   5.959   7.560   6.425 -2.5323 -0.5373 -0.5588
  110MOL0     H14484   5.490   7.450   6.576  0.2157  0.5057  0.1831
  110MOL0     H14485   5.291   7.465   6.683 -2.5382 -1.5861  2.3310
  110MOL0     H14486   5.103   7.462   6.821 -1.8798  0.4142  0.9159
  110MOL0     H14487   5.147   7.546   6.975  0.2424  1.0072 -1.9068
  110MOL0     H14488   5.016   7.405   7.115 -0.7366  3.3168 -0.2259
  110MOL0     H14489   4.986   7.291   6.977  2.3037 -0.2182 -2.2237
  110MOL0     H14490   4.906   7.584   7.008 -3.4359  0.3144  1.5451
  110MOL0     H14491   4.811   7.463   7.085  1.4141 -4.1022  1.0942
  110MOL0     H14492   4.853   7.535   6.778  2.9897 -0.3615  2.4363
  110MOL0     H14493   4.780   7.377   6.828 -2.3193 -0.7122 -0.0544
  110MOL0     H14494   4.609   7.502   6.953 -0.1428  1.8334  0.8361
  110MOL0     H14495   4.613   7.525   6.775 -1.8829 -2.4970  0.8037
  110MOL0     H14496   4.757   7.731   6.852 -0.1560  1.1009 -0.5292
  110MOL0     H14497   4.690   7.716   7.016  0.7529  1.6933 -0.0116
  110MOL0     H14498   4.567   7.886   6.876  0.9091  0.5460  2.4565
  110MOL0     H14499   4.512   7.760   6.769 -2.6981 -1.5888  0.5780
  110MOL0     H14500   4.446   7.805   7.057 -0.2409  2.0075 -1.8384
  110MOL0     H14501   4.409   7.652   6.974  1.6412 -1.1499  1.1999
  110MOL0     H14502   5.469   7.247   7.031 -0.9988  0.5910 -0.6599
  110MOL0     H14503   5.661   7.222   6.896 -1.7548  0.9669  3.6160
  110MOL0     H14504   5.884   7.166   6.579  1.1515 -0.4731  1.6310
  110MOL0     H14505   6.083   7.083   6.492 -0.3955  0.4370  2.6450
  110MOL0     H14506   7.877   6.454   6.284  1.3327 -0.7886 -2.0496
  110MOL0     H14507   8.034   6.268   6.295 -1.3056  1.5296  1.5369
  110MOL0     H14508   8.357   6.064   6.010  1.5127 -0.3914 -0.0505
  110MOL0     H14509   8.539   5.892   6.002 -1.3613  2.2556 -1.9548
  110MOL0     H14510   8.577   5.604   5.949 -0.2998  0.9086 -0.2389
  110MOL0     H14511   8.440   5.521   6.028  0.6101  0.0407  0.9882
  110MOL0     H14512   8.585   5.411   6.193 -0.0117 -1.3710  0.4929
  110MOL0     H14513   8.633   5.367   6.024 -1.1304  2.1440 -1.2230
  110MOL0     H14514   8.836   5.392   6.158  0.0590 -0.7926 -2.9221
  110MOL0     H14515   8.781   5.542   6.231  2.4069  2.4907 -0.8375
  110MOL0     H14516   8.820   5.659   6.021 -0.5310  0.3123 -0.4504
  110MOL0     H14517   8.967   5.593   6.087  0.9767 -0.6710 -1.2021
  110MOL0     H14518   8.957   5.371   5.736 -2.0279 -1.0584 -0.5592
  110MOL0     H14519   8.293   5.631   6.249 -3.1661 -0.0581 -0.6110
  110MOL0     H14520   8.121   5.792   6.250 -0.3493 -1.8565 -1.0050
  111MOL0     O14521   7.835   7.059   5.709 -0.4715 -0.1059  0.3627
  111MOL0     C14522   7.881   7.100   5.601 -0.0130 -0.1072 -0.5846
  111MOL0     O14523   8.021   7.136   5.587  0.4213 -0.1094  0.3422
  111MOL0     C14524   8.101   7.088   5.681 -0.5509 -0.4078  0.0176
  111MOL0     C14525   8.106   7.141   5.813  0.5899 -0.9135 -0.6915
  111MOL0     C14526   8.180   7.085   5.923 -0.0790  0.1729  0.5030
  111MOL0     C14527   8.265   6.981   5.892 -0.6402 -0.1663 -0.1766
  111MOL0     O14528   8.345   6.940   5.997  0.1994 -0.2727 -0.1614
  111MOL0     C14529   8.489   6.933   5.969  0.2085 -0.0735 -0.0381
  111MOL0     C14530   8.576   6.970   6.091  0.0642 -0.2535 -0.8435
  111MOL0     C14531   8.715   6.912   6.077 -0.1628 -0.5912  0.0146
  111MOL0     C14532   8.798   6.929   6.205  1.2855 -1.2056 -0.7009
  111MOL0     C14533   8.945   6.901   6.182  0.0674  0.7055 -0.3471
  111MOL0     C14534   9.021   6.910   6.318  0.5992  0.9297  0.9684
  111MOL0     C14535   9.169   6.934   6.302  0.2319 -0.6522 -0.8664
  111MOL0     C14536   9.243   6.884   6.430  0.1914  0.3445  0.3073
  111MOL0     N14537   9.388   6.898   6.407  0.5656 -0.4649  0.0899
  111MOL0     C14538   9.480   6.916   6.507 -0.7158  1.3445 -0.4851
  111MOL0     C14539   9.598   6.872   6.464  0.0512 -0.5783 -0.4190
  111MOL0     C14540   9.730   6.862   6.525 -0.8208 -0.9074  0.4842
  111MOL0     C14541   9.746   6.785   6.655 -0.9738 -0.2283  0.1182
  111MOL0     C14542   9.699   6.640   6.656  0.0636  0.6376  0.7477
  111MOL0     C14543   9.682   6.581   6.796 -0.1305  0.1103  0.3534
  111MOL0     O14544   9.592   6.651   6.882 -0.2741 -0.4058 -0.1673
  111MOL0     C14545   9.459   6.676   6.850  0.0213 -0.8134  0.0872
  111MOL0     C14546   9.399   6.797   6.893  0.5148  1.4115  0.7034
  111MOL0     C14547   9.268   6.832   6.852  0.6181  0.8454 -0.2320
  111MOL0     C14548   9.201   6.744   6.762 -0.8098  0.7629  0.6906
  111MOL0     C14549   9.068   6.775   6.710 -0.4913  0.5164 -0.1878
  111MOL0     O14550   8.996   6.867   6.783 -0.5146 -0.6840 -0.9738
  111MOL0     C14551   8.880   6.898   6.723  0.7452 -0.3054  0.0119
  111MOL0     C14552   8.868   7.035   6.701 -0.3526  0.0217  0.5701
  111MOL0     C14553   8.751   7.083   6.643  0.2765 -0.7028 -0.3826
  111MOL0     C14554   8.648   7.008   6.609 -0.2407  0.2723  0.4413
  111MOL0     O14555   8.538   7.066   6.550  0.3361 -0.8677  0.6190
  111MOL0     C14556   8.481   6.991   6.442  0.6868 -0.4955 -0.5247
  111MOL0     C14557   8.357   6.909   6.468  0.4101  0.0492  0.3126
  111MOL0     C14558   8.302   6.840   6.337 -0.4478 -0.2933  0.7200
  111MOL0     C14559   8.187   6.754   6.376  0.7927  0.1568 -0.3569
  111MOL0     C14560   8.135   6.660   6.267 -0.2669  0.7954  1.0107
  111MOL0     C14561   8.100   6.732   6.140  0.3562  0.5373 -0.5054
  111MOL0     C14562   7.999   6.841   6.166 -0.3465  0.0575  1.0742
  111MOL0     C14563   7.948   6.887   6.029 -0.1259  0.8453  0.2191
  111MOL0    Cl14564   7.826   6.766   5.981  0.1321 -0.1794 -0.1372
  111MOL0     C14565   8.651   6.868   6.637 -0.0406  0.0286  0.7664
  111MOL0     C14566   8.769   6.820   6.688 -0.6478 -0.0167  0.2495
  111MOL0     O14567   9.027   6.710   6.616  0.5330 -0.1485  0.0248
  111MOL0     C14568   9.263   6.626   6.716 -0.3344  0.3128  0.1658
  111MOL0     C14569   9.388   6.593   6.767  0.2046 -0.8369 -0.2968
  111MOL0     N14570   9.575   6.848   6.331  0.6960 -0.6380 -0.2005
  111MOL0     N14571   9.451   6.870   6.295 -0.5421 -0.3791  0.1039
  111MOL0     C14572   8.276   6.930   5.759 -0.0434  0.0264  0.0375
  111MOL0     C14573   8.191   6.988   5.659 -0.3085 -0.2376 -0.4833
  111MOL0     C14574   7.789   7.112   5.475 -0.1560 -0.6418 -0.1028
  111MOL0     C14575   7.653   7.138   5.491 -0.6997 -0.2357  0.4092
  111MOL0     C14576   7.576   7.152   5.367 -0.5770  0.9514 -1.1748
  111MOL0     C14577   7.633   7.133   5.237  0.0383 -0.5822 -0.7860
  111MOL0     O14578   7.564   7.165   5.127 -0.1015 -1.4500 -0.7637
  111MOL0     C14579   7.435   7.212   5.130  0.0458 -0.2403  0.7316
  111MOL0     C14580   7.333   7.099   5.163  0.1341  0.7493 -0.7162
  111MOL0     C14581   7.188   7.142   5.165  0.4732 -0.0974 -0.6072
  111MOL0     C14582   7.098   7.020   5.202  0.2404 -0.6016  0.4273
  111MOL0     C14583   6.956   7.050   5.170  0.3828 -0.1511  0.1818
  111MOL0     C14584   6.843   7.068   5.142  0.3581  0.3875 -0.0770
  111MOL0     C14585   7.770   7.111   5.232  0.2813 -0.1230 -0.4972
  111MOL0     C14586   7.848   7.095   5.348 -0.2917  0.1773  0.7178
  111MOL0     H14587   8.043   7.225   5.842  0.7981 -0.5130 -1.3820
  111MOL0     H14588   8.202   7.131   6.019  0.2979  1.3065 -0.1088
  111MOL0     H14589   8.515   6.997   5.884  0.5186  2.7459  2.0685
  111MOL0     H14590   8.498   6.828   5.938 -0.7976  0.3193 -1.8457
  111MOL0     H14591   8.533   6.937   6.186  1.2891 -0.3948 -0.3259
  111MOL0     H14592   8.584   7.079   6.102  1.3320 -0.5835  2.3988
  111MOL0     H14593   8.760   6.964   5.992  0.0531  0.1159  0.5559
  111MOL0     H14594   8.711   6.809   6.040  1.3196 -0.8499  0.5363
  111MOL0     H14595   8.775   7.028   6.245  0.1723 -1.6472 -0.2068
  111MOL0     H14596   8.756   6.850   6.268  0.5209 -0.8040 -0.6980
  111MOL0     H14597   8.978   6.995   6.137  0.3637  2.9844  4.0933
  111MOL0     H14598   8.958   6.810   6.123 -0.4504 -0.2515  0.9700
  111MOL0     H14599   9.005   6.815   6.370 -2.8309  1.3706  0.9153
  111MOL0     H14600   8.976   6.985   6.383 -2.5805  0.1552 -0.1575
  111MOL0     H14601   9.188   6.858   6.225  0.9328 -0.2306 -1.1214
  111MOL0     H14602   9.210   7.030   6.270  0.8609 -0.2846  0.9609
  111MOL0     H14603   9.217   6.782   6.459  3.6445  0.0364  3.0274
  111MOL0     H14604   9.209   6.948   6.511 -0.8052  1.5733 -1.0386
  111MOL0     H14605   9.469   6.939   6.613 -0.8788 -2.7615  0.5721
  111MOL0     H14606   9.757   6.965   6.551 -2.6459  0.7846 -3.5178
  111MOL0     H14607   9.783   6.810   6.445  2.0022  1.3742  0.7110
  111MOL0     H14608   9.685   6.849   6.719 -0.5073  3.5943 -2.8237
  111MOL0     H14609   9.850   6.789   6.689 -1.0496 -3.2328  0.9897
  111MOL0     H14610   9.606   6.626   6.600  1.4432 -1.8826 -1.1202
  111MOL0     H14611   9.781   6.586   6.606 -1.1012  0.1371 -0.6891
  111MOL0     H14612   9.776   6.582   6.853 -0.2962  2.2150  0.6819
  111MOL0     H14613   9.660   6.474   6.787  2.2287 -0.3340 -0.9786
  111MOL0     H14614   9.459   6.866   6.951  3.5840  1.0364 -1.7281
  111MOL0     H14615   9.228   6.928   6.882 -0.3027  0.3500  0.1633
  111MOL0     H14616   8.953   7.098   6.724  1.6480 -0.9696 -3.2201
  111MOL0     H14617   8.750   7.191   6.634  0.2991 -0.8619 -2.8814
  111MOL0     H14618   8.558   6.929   6.395  0.9509  0.6968 -1.7332
  111MOL0     H14619   8.457   7.065   6.365  1.1177  0.3420  0.1355
  111MOL0     H14620   8.278   6.970   6.514 -0.4846 -1.0569  0.2830
  111MOL0     H14621   8.376   6.831   6.543 -2.7483  0.5820  1.8569
  111MOL0     H14622   8.381   6.773   6.301 -0.5417  0.0351 -0.1195
  111MOL0     H14623   8.271   6.911   6.259 -1.8401 -3.1597 -1.5445
  111MOL0     H14624   8.222   6.700   6.465  2.1566  1.0900 -0.2999
  111MOL0     H14625   8.108   6.821   6.413  2.0705  0.4623  2.0552
  111MOL0     H14626   8.048   6.604   6.301  1.0726 -2.1777 -0.0530
  111MOL0     H14627   8.216   6.588   6.252 -0.5937  0.4530  0.8779
  111MOL0     H14628   8.066   6.652   6.073  2.3001 -1.5053  0.8180
  111MOL0     H14629   8.188   6.770   6.087  1.7996 -2.8710 -0.8237
  111MOL0     H14630   7.916   6.831   6.237 -1.8873  4.8036  0.3597
  111MOL0     H14631   8.046   6.934   6.199 -0.8528  1.2982 -1.4405
  111MOL0     H14632   8.035   6.895   5.964  0.3516 -1.3305  0.5099
  111MOL0     H14633   7.907   6.989   6.026  0.6452  1.2222  1.5418
  111MOL0     H14634   8.577   6.798   6.601  0.8171  0.4043 -1.9779
  111MOL0     H14635   8.768   6.712   6.700  0.1814 -0.6487 -3.9048
  111MOL0     H14636   9.220   6.564   6.639 -0.3773  2.0805 -1.2918
  111MOL0     H14637   9.437   6.501   6.737  2.4138 -0.1705  1.0024
  111MOL0     H14638   8.344   6.851   5.728  1.9451  0.7050  2.3533
  111MOL0     H14639   8.173   6.942   5.562 -2.1264 -2.1285  0.6533
  111MOL0     H14640   7.604   7.143   5.588  1.1619 -1.4889  1.4703
  111MOL0     H14641   7.473   7.182   5.382 -0.1721  1.6131  0.6351
  111MOL0     H14642   7.413   7.245   5.028  1.1439 -2.6719 -0.3608
  111MOL0     H14643   7.419   7.296   5.198 -1.8142  0.7780 -0.8584
  111MOL0     H14644   7.346   7.010   5.101 -0.4561  0.4037 -0.3490
  111MOL0     H14645   7.353   7.063   5.265 -0.2502 -0.7730 -1.1533
  111MOL0     H14646   7.165   7.178   5.064  0.6787  5.0297  0.9053
  111MOL0     H14647   7.166   7.230   5.226 -1.1616 -0.2331 -0.9532
  111MOL0     H14648   7.130   6.928   5.153 -0.0292 -0.9189  0.8343
  111MOL0     H14649   7.104   6.996   5.308  0.4261  1.4567  0.9326
  111MOL0     H14650   6.743   7.093   5.110  0.7474  0.1795 -1.5441
  111MOL0     H14651   7.802   7.107   5.128 -2.6708 -2.6239 -1.4794
  111MOL0     H14652   7.954   7.074   5.343 -0.2183  0.1406  2.0101
  112MOL0     O14653   7.343   5.605   9.314  0.2697  0.2156 -0.2231
  112MOL0     C14654   7.390   5.670   9.218  0.4199  0.2332 -0.2336
  112MOL0     O14655   7.351   5.653   9.083  0.9395 -0.1772 -0.6003
  112MOL0     C14656   7.255   5.563   9.042 -0.7027  0.1241  0.3645
  112MOL0     C14657   7.205   5.450   9.109  0.3870 -0.0983 -0.0159
  112MOL0     C14658   7.098   5.376   9.058  0.2664  0.0866  0.5999
  112MOL0     C14659   7.038   5.407   8.939  0.5612  0.2810  0.4348
  112MOL0     O14660   6.937   5.320   8.903  0.0171 -0.0219  0.3720
  112MOL0     C14661   6.830   5.385   8.830  0.7868  0.0401 -0.3166
  112MOL0     C14662   6.734   5.279   8.786  0.4404  0.4235 -0.2430
  112MOL0     C14663   6.631   5.344   8.699  0.2529 -0.6237  0.3118
  112MOL0     C14664   6.541   5.252   8.627 -0.0590 -0.4618 -0.2105
  112MOL0     C14665   6.415   5.319   8.563  0.5761  0.4877  0.0572
  112MOL0     C14666   6.442   5.379   8.427  0.0205 -0.1308  0.2224
  112MOL0     C14667   6.311   5.434   8.355  0.2289  0.5340  1.0791
  112MOL0     C14668   6.283   5.585   8.377  0.7738  0.4968  0.3982
  112MOL0     N14669   6.283   5.634   8.514 -0.6033 -0.2590 -0.2725
  112MOL0     C14670   6.179   5.609   8.595 -0.3254  0.1935  0.4725
  112MOL0     C14671   6.192   5.704   8.700 -1.2925  0.2163  0.6246
  112MOL0     C14672   6.113   5.716   8.828 -1.5290  0.9810  0.2568
  112MOL0     C14673   5.964   5.708   8.820  0.6903  0.1093  0.5850
  112MOL0     C14674   5.889   5.596   8.749 -0.0681 -0.5949 -0.3301
  112MOL0     C14675   5.741   5.592   8.789 -1.0717 -0.4913  0.4048
  112MOL0     O14676   5.676   5.469   8.745 -0.8331 -0.4881 -0.3806
  112MOL0     C14677   5.540   5.476   8.730 -0.5062  0.8218  0.1688
  112MOL0     C14678   5.465   5.580   8.778  0.2618 -0.0136  0.2390
  112MOL0     C14679   5.327   5.586   8.742 -0.0019 -0.1739 -0.9948
  112MOL0     C14680   5.269   5.491   8.673  0.5583 -0.1280 -0.1023
  112MOL0     C14681   5.126   5.502   8.637 -0.6994 -0.2498  0.3462
  112MOL0     O14682   5.075   5.628   8.608  0.7339 -0.7740 -0.2843
  112MOL0     C14683   4.935   5.635   8.607  0.5652  0.5302  0.1208
  112MOL0     C14684   4.859   5.602   8.717 -0.6546 -0.0819 -0.2953
  112MOL0     C14685   4.720   5.624   8.723 -0.1814 -0.0875 -0.8149
  112MOL0     C14686   4.653   5.682   8.615  0.4651 -0.1927  0.7148
  112MOL0     O14687   4.522   5.700   8.612 -0.2461  0.3579 -0.3584
  112MOL0     C14688   4.481   5.812   8.692 -0.7436  0.3610  1.2455
  112MOL0     C14689   4.328   5.829   8.704  0.1656  0.0921  0.8007
  112MOL0     C14690   4.254   5.847   8.578 -0.3731 -0.7856  0.2445
  112MOL0     C14691   4.108   5.880   8.591 -0.3238  0.5361 -0.0106
  112MOL0     C14692   4.054   5.950   8.471  0.1661 -0.6479  0.2675
  112MOL0     C14693   3.904   5.977   8.489  0.8367 -0.1205  0.2753
  112MOL0     C14694   3.831   6.040   8.367  0.2219 -0.5311 -0.5219
  112MOL0     C14695   3.681   6.029   8.387  0.2358  0.2278 -0.8326
  112MOL0    Cl14696   3.586   6.079   8.250 -0.1251  0.0189 -0.4232
  112MOL0     C14697   4.735   5.718   8.503  0.7538 -0.4446  0.1419
  112MOL0     C14698   4.874   5.692   8.497  0.2384 -0.6080  0.6094
  112MOL0     O14699   5.065   5.395   8.627  0.3267 -1.3018  0.0372
  112MOL0     C14700   5.337   5.388   8.623  0.0057  0.7070  0.1342
  112MOL0     C14701   5.478   5.380   8.644  0.6863 -0.3145 -0.0303
  112MOL0     N14702   6.303   5.788   8.668 -0.3892 -0.2246 -0.4370
  112MOL0     N14703   6.357   5.741   8.559 -0.4128 -0.4353  0.4822
  112MOL0     C14704   7.078   5.524   8.870  0.5880  0.1684 -0.9573
  112MOL0     C14705   7.189   5.600   8.926  0.7335 -0.6690  0.1185
  112MOL0     C14706   7.492   5.782   9.235  0.3713  0.0697  0.5593
  112MOL0     C14707   7.567   5.794   9.351 -0.4436  0.3806  0.0139
  112MOL0     C14708   7.652   5.897   9.371  0.1957 -0.0580  0.5333
  112MOL0     C14709   7.682   5.986   9.265  0.5561 -0.3041 -0.1071
  112MOL0     O14710   7.777   6.084   9.287  0.0788 -0.1374 -0.8093
  112MOL0     C14711   7.827   6.162   9.178  0.7402  0.0358  0.4670
  112MOL0     C14712   7.960   6.223   9.220  0.7017  0.2855  0.8745
  112MOL0     C14713   8.000   6.334   9.132 -0.0954 -0.4391 -0.2640
  112MOL0     C14714   8.151   6.357   9.142  0.5663 -0.2101 -0.2846
  112MOL0     C14715   8.196   6.397   9.275 -0.3722  0.1978 -0.2495
  112MOL0     C14716   8.237   6.415   9.392 -0.7753 -0.2644 -0.7064
  112MOL0     C14717   7.612   5.969   9.145 -0.2660 -0.2506 -0.0273
  112MOL0     C14718   7.509   5.876   9.128  0.3728  0.7884 -0.0923
  112MOL0     H14719   7.268   5.422   9.193  1.0909 -0.7756 -0.7463
  112MOL0     H14720   7.067   5.278   9.095 -2.1243  0.9982  1.1622
  112MOL0     H14721   6.859   5.438   8.739 -1.0285 -3.1052 -2.9222
  112MOL0     H14722   6.783   5.458   8.897  1.4464  1.3516 -1.2314
  112MOL0     H14723   6.686   5.231   8.871 -0.5517  0.7174 -0.6257
  112MOL0     H14724   6.789   5.198   8.737  2.4682 -0.6414  3.4293
  112MOL0     H14725   6.694   5.396   8.626  1.7990 -1.1000  1.2489
  112MOL0     H14726   6.573   5.421   8.751 -1.8662 -0.6641 -1.8398
  112MOL0     H14727   6.602   5.204   8.550  1.6182 -1.2200  1.5057
  112MOL0     H14728   6.516   5.171   8.696  2.8933 -1.7851 -0.5394
  112MOL0     H14729   6.375   5.396   8.630  0.7942  0.0742  0.6739
  112MOL0     H14730   6.335   5.245   8.554  0.7892  0.4225 -1.5736
  112MOL0     H14731   6.465   5.302   8.352 -1.9281  1.4778 -2.1863
  112MOL0     H14732   6.524   5.450   8.425  2.6763 -2.9260  1.5858
  112MOL0     H14733   6.306   5.420   8.246  1.2894  1.5118  0.8831
  112MOL0     H14734   6.226   5.382   8.400 -0.7087  1.0838 -0.0066
  112MOL0     H14735   6.187   5.614   8.333  0.1495 -2.7898 -0.6679
  112MOL0     H14736   6.364   5.639   8.328  3.3210 -3.6188 -0.4168
  112MOL0     H14737   6.109   5.529   8.576 -1.1315  0.8998  0.3892
  112MOL0     H14738   6.143   5.816   8.861  1.7373  0.8330 -1.7808
  112MOL0     H14739   6.158   5.640   8.892 -3.1942  0.6591  1.0952
  112MOL0     H14740   5.942   5.803   8.771  1.2909  0.3247  0.7257
  112MOL0     H14741   5.922   5.712   8.921 -1.0428  0.5128 -0.1168
  112MOL0     H14742   5.905   5.589   8.641 -0.2888 -2.7334 -0.2729
  112MOL0     H14743   5.943   5.503   8.773  2.7561  0.7550 -1.0548
  112MOL0     H14744   5.701   5.686   8.750  2.8655  1.6037  0.8426
  112MOL0     H14745   5.736   5.594   8.898  0.2873 -0.8183  0.4893
  112MOL0     H14746   5.507   5.668   8.825 -0.3582  1.8234 -2.4522
  112MOL0     H14747   5.261   5.666   8.774 -3.0963 -3.0447  0.4625
  112MOL0     H14748   4.914   5.555   8.798 -0.3771  3.0187  1.4756
  112MOL0     H14749   4.668   5.594   8.813  1.1014  1.0754  0.3686
  112MOL0     H14750   4.521   5.903   8.647 -1.8823  1.8287  3.0352
  112MOL0     H14751   4.519   5.809   8.795  1.8860 -2.0760  0.3245
  112MOL0     H14752   4.308   5.910   8.775 -0.7284  1.2302 -0.6886
  112MOL0     H14753   4.299   5.732   8.746  0.3230 -0.4097 -0.2089
  112MOL0     H14754   4.262   5.761   8.511  1.4165  0.5751 -1.4206
  112MOL0     H14755   4.303   5.925   8.518 -2.2161 -1.4079 -2.2870
  112MOL0     H14756   4.054   5.792   8.625 -1.1249  1.8922  2.5232
  112MOL0     H14757   4.107   5.952   8.674  0.4865  0.4622  0.0816
  112MOL0     H14758   4.057   5.892   8.378 -2.1003 -1.1583  0.4509
  112MOL0     H14759   4.102   6.047   8.459 -2.0248  0.3054 -1.6502
  112MOL0     H14760   3.882   6.040   8.575 -1.6426 -0.6034  0.0755
  112MOL0     H14761   3.851   5.883   8.511 -0.7262  0.4940 -0.6842
  112MOL0     H14762   3.845   6.149   8.372  1.3576 -0.6838  0.0648
  112MOL0     H14763   3.859   5.991   8.274  0.7283 -1.8572  0.2982
  112MOL0     H14764   3.655   6.092   8.472  2.7373  1.0646 -0.5920
  112MOL0     H14765   3.652   5.928   8.417 -0.6854  0.3675 -1.2383
  112MOL0     H14766   4.695   5.769   8.416 -0.6136 -0.8417  0.5176
  112MOL0     H14767   4.927   5.724   8.408 -0.1671 -0.0213  0.5727
  112MOL0     H14768   5.286   5.311   8.566  0.0684  1.1732 -0.5552
  112MOL0     H14769   5.542   5.305   8.599  0.6859 -0.2381 -0.1599
  112MOL0     H14770   7.022   5.565   8.787 -0.3317 -0.6932 -0.7922
  112MOL0     H14771   7.212   5.695   8.879 -0.9608 -0.7329 -0.9217
  112MOL0     H14772   7.556   5.718   9.428  0.9007  1.0232  0.9014
  112MOL0     H14773   7.696   5.906   9.470 -3.2355  0.6462  2.1292
  112MOL0     H14774   7.753   6.242   9.164  1.0191  0.4984  1.5575
  112MOL0     H14775   7.842   6.097   9.092  1.0186 -0.3422  0.8022
  112MOL0     H14776   7.947   6.245   9.326  2.6287 -2.2947  1.7397
  112MOL0     H14777   8.034   6.142   9.213  0.3704  0.0644 -0.4187
  112MOL0     H14778   7.945   6.422   9.165  1.3179  0.4679 -0.2881
  112MOL0     H14779   7.971   6.315   9.028 -0.2258  1.5721 -0.6292
  112MOL0     H14780   8.205   6.269   9.104 -0.1568 -0.9360  0.3217
  112MOL0     H14781   8.189   6.433   9.072  4.0432  0.7642  2.3566
  112MOL0     H14782   8.267   6.448   9.489 -3.4525 -1.3948  0.6139
  112MOL0     H14783   7.638   6.035   9.063  2.0362 -0.7269  0.2602
  112MOL0     H14784   7.452   5.885   9.036 -1.1876  1.0757  0.8695
  113MOL0     O14785   9.990   0.221   6.434  0.0411  0.4803  0.3459
  113MOL0     C14786   9.967   0.268   6.545  0.7248 -0.6565 -0.2112
  113MOL0     O14787  10.055   0.338   6.629 -0.2316  0.0164  0.6547
  113MOL0     C14788  10.188   0.323   6.602 -0.0101  0.8772  0.1653
  113MOL0     C14789  10.240   0.196   6.564 -0.4841 -0.1560  0.8142
  113MOL0     C14790  10.373   0.174   6.549 -0.9971 -0.0321 -0.5645
  113MOL0     C14791  10.465   0.285   6.564 -0.8336  0.4635  0.2910
  113MOL0     O14792  10.603   0.263   6.546  0.3343  0.3900  0.7681
  113MOL0     C14793  10.648   0.157   6.463 -0.3311  0.7314  0.5677
  113MOL0     C14794  10.766   0.195   6.375  1.7109  0.8708  0.2972
  113MOL0     C14795  10.715   0.224   6.231 -0.1904  0.3091  0.0803
  113MOL0     C14796  10.820   0.295   6.145  0.3267  0.6037  0.8838
  113MOL0     C14797  10.773   0.322   5.999  0.4615 -1.4022 -0.6615
  113MOL0     C14798  10.744   0.197   5.912  0.0731 -0.5795  0.6188
  113MOL0     C14799  10.723   0.224   5.760 -0.1044  0.8012 -0.4143
  113MOL0     C14800  10.591   0.295   5.735  0.3085  0.7125  0.3031
  113MOL0     N14801  10.566   0.285   5.593 -0.0480  0.3269  0.4437
  113MOL0     C14802  10.517   0.183   5.518 -0.1223  0.0774 -0.7044
  113MOL0     C14803  10.519   0.230   5.390  0.3521  0.2312 -0.3491
  113MOL0     C14804  10.469   0.150   5.273 -0.2458  0.4891 -0.0718
  113MOL0     C14805  10.347   0.213   5.198  0.6107  0.5322 -0.1934
  113MOL0     C14806  10.217   0.234   5.282 -0.3400 -0.2643  0.3591
  113MOL0     C14807  10.161   0.095   5.313 -0.3391  0.1531 -0.6427
  113MOL0     O14808  10.031   0.124   5.348 -0.6145 -0.0173  0.0410
  113MOL0     C14809   9.955   0.015   5.385  0.0316 -1.2187 -0.8641
  113MOL0     C14810   9.821   0.028   5.414  0.2715 -0.0281  0.6322
  113MOL0     C14811   9.733  -0.082   5.426 -0.2049  0.0641  0.6871
  113MOL0     C14812   9.786  -0.215   5.412  0.2173  0.5656 -0.1194
  113MOL0     C14813   9.700  -0.327   5.451 -0.3719  0.2167 -0.4099
  113MOL0     O14814   9.565  -0.302   5.461  0.1394  0.6660 -0.1260
  113MOL0     C14815   9.484  -0.418   5.471 -0.3717 -0.6349  0.4104
  113MOL0     C14816   9.499  -0.532   5.396  0.2687  0.5735 -0.2413
  113MOL0     C14817   9.404  -0.637   5.405  0.7455 -0.2831  0.7158
  113MOL0     C14818   9.295  -0.631   5.490  0.6558 -0.6018 -0.4849
  113MOL0     O14819   9.190  -0.716   5.506 -0.4969  0.1279  0.1849
  113MOL0     C14820   9.180  -0.810   5.405  0.6320  0.6314 -0.0903
  113MOL0     C14821   9.089  -0.926   5.449 -0.0260 -1.0668 -0.1263
  113MOL0     C14822   8.939  -0.884   5.461  0.6505  0.5132  0.8278
  113MOL0     C14823   8.835  -0.990   5.457  0.0171  0.7828  0.7083
  113MOL0     C14824   8.878  -1.127   5.520 -0.5110 -0.9702  0.1721
  113MOL0     C14825   8.764  -1.223   5.553  0.1319 -0.9751 -0.3976
  113MOL0     C14826   8.673  -1.233   5.427  0.6141  1.6646  0.3004
  113MOL0     C14827   8.566  -1.348   5.442 -0.0328  0.9779 -0.6545
  113MOL0    Cl14828   8.424  -1.348   5.327 -0.1412  0.6374 -0.4544
  113MOL0     C14829   9.278  -0.511   5.568 -0.0116  0.8350 -0.3496
  113MOL0     C14830   9.372  -0.406   5.555 -0.5249  0.0020  0.6703
  113MOL0     O14831   9.752  -0.433   5.467 -0.0317  0.3449  0.0602
  113MOL0     C14832   9.921  -0.230   5.396 -0.5513  0.1912  0.7182
  113MOL0     C14833  10.000  -0.118   5.383 -0.4205 -0.5276 -0.5359
  113MOL0     N14834  10.575   0.354   5.381 -0.4101  0.0930  0.1871
  113MOL0     N14835  10.607   0.385   5.501  0.5606 -0.8247  0.0768
  113MOL0     C14836  10.416   0.406   6.610  1.4697  0.6982 -0.6880
  113MOL0     C14837  10.283   0.425   6.635 -0.2617  0.0365 -0.3800
  113MOL0     C14838   9.826   0.267   6.579 -0.0793 -1.5965 -0.8921
  113MOL0     C14839   9.733   0.191   6.502 -0.3472 -0.4040 -0.1204
  113MOL0     C14840   9.601   0.220   6.522  0.3499  0.0608 -0.6594
  113MOL0     C14841   9.561   0.297   6.630  0.3305  0.3548 -0.5765
  113MOL0     O14842   9.428   0.310   6.657 -0.3629 -0.2234 -0.7891
  113MOL0     C14843   9.340   0.198   6.635 -0.0501  0.5575 -1.1284
  113MOL0     C14844   9.225   0.214   6.738 -0.2165  0.5773  0.8431
  113MOL0     C14845   9.117   0.100   6.738  0.3826  0.6714 -0.9040
  113MOL0     C14846   9.168  -0.044   6.755 -0.5932 -0.4364  0.3250
  113MOL0     C14847   9.237  -0.047   6.889 -0.7209  0.1847  0.4235
  113MOL0     C14848   9.263  -0.036   7.006 -0.0801 -0.3872 -0.1368
  113MOL0     C14849   9.651   0.366   6.709  0.4304  0.4521  1.1756
  113MOL0     C14850   9.785   0.358   6.682 -0.1988  0.8962 -0.8027
  113MOL0     H14851  10.184   0.105   6.547 -1.6030  0.8656 -1.3018
  113MOL0     H14852  10.413   0.074   6.536 -2.2183 -0.9492  1.9987
  113MOL0     H14853  10.563   0.124   6.403  1.0673 -0.6378 -0.7565
  113MOL0     H14854  10.673   0.074   6.531  1.1047  0.0706 -0.7081
  113MOL0     H14855  10.821   0.103   6.353 -3.2609 -1.8461 -2.8659
  113MOL0     H14856  10.831   0.270   6.419  0.9757  1.9333 -0.3822
  113MOL0     H14857  10.646   0.308   6.243 -0.9330 -0.1306 -1.0162
  113MOL0     H14858  10.665   0.136   6.189  3.1648 -0.7543 -2.0817
  113MOL0     H14859  10.849   0.392   6.188  1.4753  1.1926 -1.0890
  113MOL0     H14860  10.908   0.229   6.141  1.2232  1.8088 -0.0273
  113MOL0     H14861  10.839   0.388   5.943  0.7561 -2.3721 -1.4972
  113MOL0     H14862  10.680   0.379   6.007  1.0340  0.2414 -4.1780
  113MOL0     H14863  10.659   0.140   5.951  1.7327 -2.0096  2.3477
  113MOL0     H14864  10.829   0.130   5.928  2.3264  1.6600 -1.0291
  113MOL0     H14865  10.808   0.281   5.722 -0.2912  2.4694  1.4740
  113MOL0     H14866  10.714   0.126   5.714 -2.0690  0.1790  1.1395
  113MOL0     H14867  10.597   0.394   5.781 -3.6327  0.0240  2.7286
  113MOL0     H14868  10.506   0.238   5.772 -1.2876  0.7252 -3.0655
  113MOL0     H14869  10.482   0.090   5.563  1.2396  0.7670  1.9855
  113MOL0     H14870  10.447   0.046   5.296  0.2944 -0.3273 -2.7886
  113MOL0     H14871  10.538   0.138   5.189 -2.0224  1.6101 -1.7963
  113MOL0     H14872  10.311   0.165   5.107 -5.4098 -0.4856  2.2849
  113MOL0     H14873  10.389   0.311   5.174  0.3617  0.5194 -0.6769
  113MOL0     H14874  10.232   0.288   5.377 -1.0597  2.2810 -0.8653
  113MOL0     H14875  10.148   0.297   5.224 -2.1649  0.4923  3.1189
  113MOL0     H14876  10.218   0.043   5.391  0.2500  0.4734 -0.8524
  113MOL0     H14877  10.144   0.032   5.225 -3.4432  0.7842 -0.6125
  113MOL0     H14878   9.775   0.124   5.431 -1.6900 -0.2382 -2.6825
  113MOL0     H14879   9.631  -0.067   5.460  0.6032  0.6411  3.0164
  113MOL0     H14880   9.582  -0.529   5.326 -0.3543  1.2378 -0.9640
  113MOL0     H14881   9.420  -0.725   5.344  2.1379  1.5147 -1.6881
  113MOL0     H14882   9.271  -0.869   5.387 -0.9104 -1.1383 -2.7233
  113MOL0     H14883   9.140  -0.763   5.315  1.2708  0.6524 -0.3699
  113MOL0     H14884   9.126  -0.968   5.543  0.8391 -0.2613 -0.0942
  113MOL0     H14885   9.110  -1.005   5.376 -0.7545 -0.6843 -0.7548
  113MOL0     H14886   8.914  -0.812   5.382  1.1632 -0.0184  0.1618
  113MOL0     H14887   8.920  -0.844   5.560 -1.2872 -1.4851  1.3571
  113MOL0     H14888   8.742  -0.952   5.499 -0.9459  0.5051 -1.0806
  113MOL0     H14889   8.820  -1.009   5.350 -0.7874  0.7288  0.8279
  113MOL0     H14890   8.913  -1.102   5.621  0.1114  0.7216 -0.4370
  113MOL0     H14891   8.954  -1.187   5.468  0.9723  1.2926 -0.4171
  113MOL0     H14892   8.700  -1.169   5.623  1.5295  1.4851 -0.8787
  113MOL0     H14893   8.792  -1.320   5.593 -1.0600 -1.0016  0.4044
  113MOL0     H14894   8.622  -1.136   5.421  1.6524  2.3330  1.7158
  113MOL0     H14895   8.727  -1.246   5.333  0.1051 -1.3974  0.3379
  113MOL0     H14896   8.516  -1.346   5.539 -1.9443 -1.0762 -1.5228
  113MOL0     H14897   8.618  -1.443   5.428  0.4440  1.1878 -0.3298
  113MOL0     H14898   9.193  -0.503   5.634 -0.4288 -3.3671 -0.1128
  113MOL0     H14899   9.360  -0.313   5.610  0.0903 -1.2055  2.9928
  113MOL0     H14900   9.965  -0.329   5.390  1.8283  1.1915  0.6597
  113MOL0     H14901  10.102  -0.150   5.363 -0.6407 -1.5734 -0.0201
  113MOL0     H14902  10.484   0.480   6.651  1.8201  0.1812 -0.3293
  113MOL0     H14903  10.269   0.526   6.671  2.2070  0.3504 -0.1416
  113MOL0     H14904   9.777   0.119   6.434 -1.4837  0.2976 -1.6820
  113MOL0     H14905   9.532   0.160   6.464 -0.0409  0.4309 -0.5790
  113MOL0     H14906   9.400   0.109   6.658 -1.7926  0.1553  2.9057
  113MOL0     H14907   9.300   0.194   6.533 -0.9538 -0.0105 -0.7725
  113MOL0     H14908   9.251   0.248   6.839 -1.0212  1.3280  0.8112
  113MOL0     H14909   9.171   0.305   6.709 -0.1348  0.8435  1.5014
  113MOL0     H14910   9.066   0.112   6.642 -1.4809 -0.3779 -0.0873
  113MOL0     H14911   9.042   0.109   6.817  0.3462  1.9611 -1.0639
  113MOL0     H14912   9.082  -0.111   6.752  0.2834 -1.5624 -0.7382
  113MOL0     H14913   9.243  -0.069   6.680 -0.7215  2.2912 -0.8345
  113MOL0     H14914   9.295  -0.014   7.106  0.6441 -1.0857 -0.2017
  113MOL0     H14915   9.611   0.425   6.791 -0.8555  1.9515 -0.4658
  113MOL0     H14916   9.851   0.423   6.739 -1.6569 -1.0108  3.4868
  114MOL0     O14917   8.830   0.036   9.341 -0.2188  0.1669  0.3867
  114MOL0     C14918   8.912   0.128   9.354  0.5559  0.1534  0.1199
  114MOL0     O14919   8.880   0.255   9.339 -0.2848  0.1474  0.4204
  114MOL0     C14920   8.747   0.273   9.306 -0.1642 -0.2867  0.4648
  114MOL0     C14921   8.701   0.303   9.183  0.1161  0.6219  0.9872
  114MOL0     C14922   8.571   0.320   9.157  0.2823  0.0254  0.7240
  114MOL0     C14923   8.473   0.324   9.261  1.2023  0.3940  0.4613
  114MOL0     O14924   8.335   0.359   9.250 -0.9157 -0.3890 -0.1109
  114MOL0     C14925   8.255   0.288   9.159  0.4730  0.0208 -1.1987
  114MOL0     C14926   8.190   0.361   9.038  0.0363  0.1086 -0.2982
  114MOL0     C14927   8.304   0.435   8.967 -0.5499 -0.1044  1.0982
  114MOL0     C14928   8.253   0.508   8.844 -0.7940 -0.1322  0.1144
  114MOL0     C14929   8.356   0.589   8.774  0.6720  0.0188 -0.0071
  114MOL0     C14930   8.301   0.664   8.643 -0.7589  0.8980  0.1898
  114MOL0     C14931   8.409   0.676   8.531 -0.2714  0.7389  0.3654
  114MOL0     C14932   8.431   0.552   8.445  0.2939 -0.7299  0.6254
  114MOL0     N14933   8.319   0.552   8.343  0.0634  0.2921  0.2802
  114MOL0     C14934   8.322   0.586   8.203  0.3202 -0.0468 -0.0392
  114MOL0     C14935   8.195   0.579   8.167  0.5893 -0.2530  0.2655
  114MOL0     C14936   8.150   0.596   8.025 -0.6433  0.0673 -0.5080
  114MOL0     C14937   8.176   0.731   7.976 -0.5128 -0.6411 -0.1243
  114MOL0     C14938   8.082   0.836   8.046  0.1511  0.9238 -0.2601
  114MOL0     C14939   8.079   0.978   7.987  0.2021 -0.6443  0.2302
  114MOL0     O14940   7.998   1.054   8.074  0.0691 -0.8605 -0.5722
  114MOL0     C14941   7.871   1.093   8.038 -0.1148  0.0137 -0.3011
  114MOL0     C14942   7.807   1.200   8.101 -0.7166  0.1505 -0.4261
  114MOL0     C14943   7.671   1.238   8.086  0.0516 -0.1787 -0.1573
  114MOL0     C14944   7.592   1.169   7.998 -0.0411 -0.0863  0.0925
  114MOL0     C14945   7.448   1.195   7.980  0.1835 -0.7400  0.0882
  114MOL0     O14946   7.385   1.142   7.871  0.0649 -0.0881  0.4857
  114MOL0     C14947   7.254   1.162   7.860  0.5143  0.2683  0.5686
  114MOL0     C14948   7.192   1.150   7.733 -0.0661  0.8023  0.4277
  114MOL0     C14949   7.055   1.154   7.692 -0.8819  0.2651  0.3773
  114MOL0     C14950   6.971   1.145   7.807 -0.6554  0.1877  0.0369
  114MOL0     O14951   6.835   1.137   7.799 -0.6992  0.0603  0.7303
  114MOL0     C14952   6.766   1.189   7.679  1.0750  0.7424  0.3350
  114MOL0     C14953   6.615   1.163   7.677  0.8347  0.9812 -0.5852
  114MOL0     C14954   6.556   1.227   7.801  0.1381 -0.0323 -0.0365
  114MOL0     C14955   6.405   1.214   7.812 -0.0778 -0.1486 -0.6257
  114MOL0     C14956   6.368   1.308   7.920  0.3638 -0.0008  0.6020
  114MOL0     C14957   6.214   1.319   7.923 -0.6015 -0.5424 -0.5096
  114MOL0     C14958   6.167   1.414   8.041 -0.4980  0.2811 -0.9080
  114MOL0     C14959   6.016   1.390   8.077 -0.1165 -0.3988  0.1756
  114MOL0    Cl14960   5.906   1.436   7.943 -0.1558  0.0534  0.0859
  114MOL0     C14961   7.021   1.140   7.942  0.4225 -0.4932  1.4562
  114MOL0     C14962   7.160   1.153   7.965  1.3736  0.9698  0.1583
  114MOL0     O14963   7.398   1.274   8.064 -0.6447 -0.4221 -0.4998
  114MOL0     C14964   7.653   1.054   7.930  0.4588 -1.3053  0.4218
  114MOL0     C14965   7.787   1.021   7.955  0.0124 -0.2747 -0.0597
  114MOL0     N14966   8.110   0.534   8.264  0.1791 -0.4289  0.2021
  114MOL0     N14967   8.181   0.506   8.368  0.2797 -0.8683  0.1717
  114MOL0     C14968   8.515   0.301   9.385 -0.8422  0.2368  0.0033
  114MOL0     C14969   8.648   0.262   9.399 -0.6914  0.3706  0.8226
  114MOL0     C14970   9.062   0.112   9.371  0.2562  0.3507 -0.0612
  114MOL0     C14971   9.111  -0.010   9.411  0.3755  0.2540  0.4918
  114MOL0     C14972   9.250  -0.021   9.433  0.0398 -1.1787 -1.0999
  114MOL0     C14973   9.346   0.083   9.418  0.5217 -0.1808  0.4230
  114MOL0     O14974   9.484   0.057   9.416  0.3633 -0.6504 -0.4525
  114MOL0     C14975   9.549   0.117   9.542  0.7021 -0.2489  0.2733
  114MOL0     C14976   9.689   0.068   9.541 -0.4492  0.1736 -0.0133
  114MOL0     C14977   9.798   0.142   9.639  0.3067 -0.1629 -0.1674
  114MOL0     C14978   9.943   0.107   9.619 -0.3279 -0.0094 -0.4344
  114MOL0     C14979  10.038   0.108   9.730  0.4430 -0.6390  0.0193
  114MOL0     C14980  10.087   0.127   9.836  0.2473  0.4738 -0.4692
  114MOL0     C14981   9.286   0.205   9.375 -1.9540  0.9559  0.5503
  114MOL0     C14982   9.148   0.214   9.353 -0.2046  0.0795 -0.2720
  114MOL0     H14983   8.775   0.311   9.103  0.2433  2.4324  1.2432
  114MOL0     H14984   8.526   0.334   9.059  0.0274 -0.7992  0.7128
  114MOL0     H14985   8.172   0.245   9.215  0.4006 -0.6570 -1.8139
  114MOL0     H14986   8.309   0.195   9.139 -0.2346 -0.5440 -0.5484
  114MOL0     H14987   8.111   0.431   9.066 -1.1461 -1.1034 -0.5574
  114MOL0     H14988   8.149   0.282   8.975 -0.3789  0.3096 -0.2801
  114MOL0     H14989   8.375   0.359   8.932 -1.3556 -0.5431  0.3582
  114MOL0     H14990   8.368   0.490   9.036  0.1840 -0.5098  0.7622
  114MOL0     H14991   8.213   0.442   8.766  0.7273  0.3795 -1.1691
  114MOL0     H14992   8.168   0.570   8.872 -2.2379 -1.9735  0.0479
  114MOL0     H14993   8.447   0.533   8.753  1.6528  2.0187 -1.4083
  114MOL0     H14994   8.390   0.669   8.841  2.2921 -1.7983  1.4476
  114MOL0     H14995   8.266   0.764   8.669  0.8045  1.1749  1.3728
  114MOL0     H14996   8.220   0.598   8.609  0.6915 -0.1220 -1.4998
  114MOL0     H14997   8.384   0.764   8.472 -0.0503  1.7593  1.7628
  114MOL0     H14998   8.505   0.693   8.582  0.4464  0.9438 -0.9936
  114MOL0     H14999   8.428   0.462   8.507  0.9107 -0.1933  1.4487
  114MOL0     H15000   8.526   0.557   8.390  0.5454  0.0911  1.1152
  114MOL0     H15001   8.414   0.615   8.155 -0.4892  1.2129 -0.8733
  114MOL0     H15002   8.044   0.572   8.017 -0.1895 -2.8757  1.1015
  114MOL0     H15003   8.217   0.534   7.964  3.1634  0.9809  2.3735
  114MOL0     H15004   8.149   0.729   7.870 -0.1726  0.7488 -0.2627
  114MOL0     H15005   8.280   0.756   8.002 -1.0185 -0.5162  2.0060
  114MOL0     H15006   7.976   0.812   8.028  0.7371 -0.5112 -2.0084
  114MOL0     H15007   8.095   0.840   8.154 -1.5502  3.0715 -0.0558
  114MOL0     H15008   8.059   0.978   7.879  0.5560  0.1163  0.1566
  114MOL0     H15009   8.177   1.024   7.998  0.4981 -1.3772  0.7371
  114MOL0     H15010   7.864   1.255   8.175  1.1670 -2.1348 -0.0845
  114MOL0     H15011   7.640   1.325   8.144  2.7640 -1.2714  3.3599
  114MOL0     H15012   7.253   1.128   7.645 -0.7209  0.0431  0.1476
  114MOL0     H15013   7.025   1.156   7.587  1.9225  1.2872 -0.4871
  114MOL0     H15014   6.804   1.138   7.590  2.8996 -3.9986  3.4257
  114MOL0     H15015   6.790   1.296   7.674 -2.1904  1.5812  0.1792
  114MOL0     H15016   6.587   1.058   7.667 -1.1761  0.7821  4.4009
  114MOL0     H15017   6.566   1.225   7.601 -3.8628 -1.5671 -0.0379
  114MOL0     H15018   6.596   1.329   7.800  0.5360 -0.1894 -0.7618
  114MOL0     H15019   6.606   1.183   7.887 -1.7252 -1.2263  0.4945
  114MOL0     H15020   6.352   1.250   7.724  1.4940 -0.6894 -1.8445
  114MOL0     H15021   6.385   1.111   7.843 -2.5450 -0.1952 -2.0765
  114MOL0     H15022   6.405   1.404   7.883 -0.9699  0.7275  1.0447
  114MOL0     H15023   6.404   1.281   8.020  2.5238  3.2382  0.8592
  114MOL0     H15024   6.172   1.224   7.957 -2.5177  0.6639  0.7287
  114MOL0     H15025   6.173   1.366   7.833  2.3628 -0.2276 -1.7965
  114MOL0     H15026   6.223   1.397   8.133  1.0581 -0.5681 -1.9646
  114MOL0     H15027   6.179   1.518   8.010  0.9693  0.7764  1.1530
  114MOL0     H15028   5.986   1.454   8.160  1.6747  1.9368 -0.8788
  114MOL0     H15029   6.006   1.283   8.098  2.1805 -0.7526 -0.1908
  114MOL0     H15030   6.947   1.126   8.020 -0.9750  2.2557  0.7214
  114MOL0     H15031   7.187   1.128   8.067  0.3332 -0.8735  0.0260
  114MOL0     H15032   7.583   0.999   7.869 -2.5110  1.1962  1.3338
  114MOL0     H15033   7.822   0.930   7.908  1.0823  0.4115 -0.6329
  114MOL0     H15034   8.441   0.307   9.464  0.0583 -0.3514  0.9252
  114MOL0     H15035   8.688   0.248   9.499  0.4073 -1.1868  0.2087
  114MOL0     H15036   9.048  -0.097   9.429  1.1950 -0.8677 -1.6808
  114MOL0     H15037   9.288  -0.120   9.459 -0.1314 -1.0353 -0.2982
  114MOL0     H15038   9.492   0.081   9.628  1.9482 -3.1969 -0.0145
  114MOL0     H15039   9.538   0.226   9.540 -0.7085 -0.3476  1.2297
  114MOL0     H15040   9.702  -0.040   9.550  1.2854  0.4950  2.1727
  114MOL0     H15041   9.728   0.091   9.441 -4.1927  1.1438 -1.4128
  114MOL0     H15042   9.779   0.134   9.747  1.9185  2.2405  0.3744
  114MOL0     H15043   9.788   0.249   9.618 -1.7580 -0.2753 -0.0255
  114MOL0     H15044   9.952   0.009   9.569  0.1150  0.9774 -2.3846
  114MOL0     H15045   9.988   0.171   9.543  0.5012  1.5027  1.2740
  114MOL0     H15046  10.114   0.132   9.939 -0.5983  0.3772 -0.2352
  114MOL0     H15047   9.348   0.285   9.337  0.6411 -1.6331 -1.0656
  114MOL0     H15048   9.113   0.311   9.319  2.3926  1.4005  0.5243
  115MOL0     O15049   6.253   7.349   8.397  0.3671 -0.7964 -0.2774
  115MOL0     C15050   6.356   7.358   8.329 -0.5418  0.7913  0.1491
  115MOL0     O15051   6.373   7.289   8.209  0.3837  0.2576 -0.0452
  115MOL0     C15052   6.272   7.216   8.161 -0.1741 -0.1437  0.0736
  115MOL0     C15053   6.254   7.074   8.181 -0.5323 -0.4382  0.2657
  115MOL0     C15054   6.166   6.997   8.105 -0.0326 -0.1933 -0.2544
  115MOL0     C15055   6.104   7.055   7.995  0.0542 -0.7806 -0.1632
  115MOL0     O15056   6.033   6.979   7.902  0.0064  0.1121  1.1622
  115MOL0     C15057   6.007   6.840   7.929  0.0657  0.3891 -0.2649
  115MOL0     C15058   5.945   6.769   7.815  0.0060  0.1264  0.2179
  115MOL0     C15059   5.852   6.647   7.852 -0.4119 -0.1778 -0.2668
  115MOL0     C15060   5.782   6.594   7.732  0.6349 -0.3283  1.1461
  115MOL0     C15061   5.694   6.466   7.758 -0.8443  1.1494 -0.0169
  115MOL0     C15062   5.618   6.393   7.639 -0.7600 -0.4473 -1.1997
  115MOL0     C15063   5.483   6.335   7.678  0.1279 -0.1309 -0.2922
  115MOL0     C15064   5.364   6.439   7.699  1.1846 -0.0998 -0.6274
  115MOL0     N15065   5.233   6.374   7.727 -0.3105 -0.8819  0.0678
  115MOL0     C15066   5.178   6.286   7.643 -0.4872  1.0618 -0.0173
  115MOL0     C15067   5.072   6.236   7.709 -0.4253  0.8523  0.6355
  115MOL0     C15068   4.983   6.120   7.659 -0.0024  0.5158 -0.4295
  115MOL0     C15069   4.839   6.143   7.695 -0.4960  0.1391 -1.2598
  115MOL0     C15070   4.787   6.265   7.611 -0.5762  0.0197  0.4893
  115MOL0     C15071   4.634   6.285   7.613 -0.7552  0.2611 -0.0797
  115MOL0     O15072   4.573   6.152   7.595 -0.3737  0.3844  0.0430
  115MOL0     C15073   4.447   6.157   7.549  0.8597 -0.2025 -0.8176
  115MOL0     C15074   4.365   6.262   7.512  0.0963 -0.4966 -0.7018
  115MOL0     C15075   4.230   6.243   7.473  0.4732 -0.2688 -0.5527
  115MOL0     C15076   4.183   6.118   7.454  0.4203  0.6530  0.1523
  115MOL0     C15077   4.048   6.091   7.401 -0.1187 -0.2171 -0.3294
  115MOL0     O15078   3.971   6.199   7.372 -0.0551 -0.0466  0.5729
  115MOL0     C15079   3.843   6.190   7.335  0.2675  0.4846 -0.7966
  115MOL0     C15080   3.808   6.252   7.219  0.0185 -0.2133  0.6076
  115MOL0     C15081   3.677   6.297   7.199  0.2379  0.5040  0.5339
  115MOL0     C15082   3.577   6.252   7.281  0.0257 -0.5800  0.3345
  115MOL0     O15083   3.445   6.293   7.270 -0.5268 -0.2103  0.6830
  115MOL0     C15084   3.422   6.406   7.178 -0.2601 -0.2898 -0.7289
  115MOL0     C15085   3.278   6.461   7.214 -0.1727  0.0508  0.2922
  115MOL0     C15086   3.241   6.600   7.153  0.1640  0.4342 -0.8086
  115MOL0     C15087   3.087   6.626   7.174 -0.5861 -0.0490  0.4923
  115MOL0     C15088   3.043   6.611   7.316  0.6366  0.4548  0.1174
  115MOL0     C15089   2.904   6.658   7.314  0.1427  0.7252  0.4463
  115MOL0     C15090   2.829   6.588   7.427  0.3108 -0.3881  0.5354
  115MOL0     C15091   2.685   6.629   7.428  0.4282 -1.5175  0.2173
  115MOL0    Cl15092   2.661   6.809   7.479 -0.1533  0.1282 -0.1021
  115MOL0     C15093   3.603   6.161   7.387 -0.3346 -0.5229 -0.4377
  115MOL0     C15094   3.737   6.135   7.421 -0.2363  0.7265  0.5786
  115MOL0     O15095   4.009   5.973   7.388  0.2312 -0.8605 -0.2180
  115MOL0     C15096   4.269   6.014   7.488 -0.0512 -0.2183 -0.4910
  115MOL0     C15097   4.398   6.030   7.526 -0.1133 -0.1381  0.6266
  115MOL0     N15098   5.072   6.280   7.839 -0.4490  0.5446 -0.6064
  115MOL0     N15099   5.163   6.372   7.848  0.3690 -0.2433  1.2727
  115MOL0     C15100   6.119   7.198   7.970  0.2241  0.7078  0.7759
  115MOL0     C15101   6.198   7.272   8.052 -0.0453 -0.3774  0.0537
  115MOL0     C15102   6.456   7.453   8.377 -0.4693 -0.0658 -0.3645
  115MOL0     C15103   6.589   7.464   8.313  0.7481 -0.1287  0.6292
  115MOL0     C15104   6.688   7.542   8.364 -0.6807 -0.5423 -0.8289
  115MOL0     C15105   6.672   7.604   8.492  0.2726  0.9064  0.6088
  115MOL0     O15106   6.782   7.683   8.539  0.3727  0.6048 -0.3190
  115MOL0     C15107   6.908   7.709   8.468  0.3223  0.0288  0.0609
  115MOL0     C15108   7.021   7.757   8.561  0.2620 -0.2995 -0.0816
  115MOL0     C15109   7.141   7.827   8.484  0.8729 -0.9376  0.8508
  115MOL0     C15110   7.107   7.977   8.458  0.0063  0.2399  0.1357
  115MOL0     C15111   7.221   8.035   8.381  0.3561 -0.8543 -0.0023
  115MOL0     C15112   7.314   8.060   8.308  0.0950  0.6856 -1.0944
  115MOL0     C15113   6.551   7.590   8.558 -1.3172  0.4773  0.1764
  115MOL0     C15114   6.443   7.520   8.504 -0.2569  0.0358 -0.5870
  115MOL0     H15115   6.322   7.019   8.246 -0.0713 -1.2600 -0.8880
  115MOL0     H15116   6.170   6.890   8.120  0.9443  0.0351  1.3483
  115MOL0     H15117   5.947   6.832   8.020  1.3657 -2.2454  0.4539
  115MOL0     H15118   6.092   6.777   7.958 -0.4951  1.2347  3.8526
  115MOL0     H15119   6.024   6.744   7.744 -0.7193 -0.2662 -0.4539
  115MOL0     H15120   5.884   6.838   7.756 -1.5494 -1.9569 -0.7443
  115MOL0     H15121   5.787   6.675   7.935  1.1335  3.0668  0.0186
  115MOL0     H15122   5.910   6.561   7.889 -1.3917 -0.4106  0.7686
  115MOL0     H15123   5.725   6.673   7.684 -1.1582 -2.1244  0.1726
  115MOL0     H15124   5.861   6.560   7.664 -0.9787  0.0389 -1.0107
  115MOL0     H15125   5.628   6.513   7.832  1.7484 -0.3092  3.5248
  115MOL0     H15126   5.742   6.384   7.812 -0.0264  1.5978 -0.0492
  115MOL0     H15127   5.684   6.312   7.607  1.4427  0.1029  1.4644
  115MOL0     H15128   5.605   6.468   7.560 -1.6134  0.0461 -0.6101
  115MOL0     H15129   5.452   6.262   7.602  2.8806 -0.3009 -1.3411
  115MOL0     H15130   5.491   6.282   7.774 -1.9849  1.1643  0.6711
  115MOL0     H15131   5.367   6.501   7.609 -2.2266 -0.0649 -0.8339
  115MOL0     H15132   5.387   6.512   7.778  1.0223 -0.4402 -0.2669
  115MOL0     H15133   5.211   6.258   7.543 -0.6344  1.6772 -0.2448
  115MOL0     H15134   5.031   6.041   7.717  0.1232  1.3739  0.6730
  115MOL0     H15135   4.999   6.122   7.550  0.0014  2.3936 -0.4233
  115MOL0     H15136   4.842   6.160   7.803  0.2831  2.2097 -1.5708
  115MOL0     H15137   4.786   6.048   7.682 -0.6549 -0.2872  1.6764
  115MOL0     H15138   4.834   6.356   7.649 -0.8246  0.3421  0.0379
  115MOL0     H15139   4.819   6.257   7.507 -1.0343  0.5541  0.2967
  115MOL0     H15140   4.602   6.375   7.560 -2.4212 -1.1870 -1.6384
  115MOL0     H15141   4.620   6.319   7.716  3.1369  1.0335  0.3528
  115MOL0     H15142   4.393   6.361   7.545  0.3521 -1.0251  0.7483
  115MOL0     H15143   4.160   6.325   7.466  3.5058  2.4265 -2.0734
  115MOL0     H15144   3.897   6.282   7.165  0.3078 -1.6707  0.2190
  115MOL0     H15145   3.648   6.358   7.114  2.5581 -1.0939 -1.5400
  115MOL0     H15146   3.418   6.369   7.075 -0.4968 -2.4895  0.0201
  115MOL0     H15147   3.496   6.485   7.186 -0.6478 -0.1617  3.0880
  115MOL0     H15148   3.283   6.485   7.321 -1.1348 -0.5318  0.4732
  115MOL0     H15149   3.207   6.379   7.201 -0.1767 -0.2470  1.8984
  115MOL0     H15150   3.264   6.610   7.046  3.9147  1.8458 -0.0286
  115MOL0     H15151   3.292   6.676   7.213  0.5603 -0.4819  0.0296
  115MOL0     H15152   3.054   6.723   7.137 -0.6106 -0.4673 -0.6499
  115MOL0     H15153   3.042   6.552   7.107 -0.2490 -0.4847  0.7355
  115MOL0     H15154   3.101   6.668   7.389 -0.8123  0.7705  1.0597
  115MOL0     H15155   3.036   6.507   7.349 -2.6178  0.7654  0.6616
  115MOL0     H15156   2.846   6.638   7.224 -2.7586  3.8132  1.4020
  115MOL0     H15157   2.898   6.767   7.327  2.9618  1.0622 -0.3941
  115MOL0     H15158   2.828   6.479   7.416 -2.0580 -0.1601 -3.2279
  115MOL0     H15159   2.862   6.614   7.528 -3.3508  0.8381  1.5714
  115MOL0     H15160   2.638   6.556   7.495 -2.4053  2.0222  2.4937
  115MOL0     H15161   2.644   6.616   7.328  1.9725 -1.6038 -0.4190
  115MOL0     H15162   3.535   6.112   7.456  0.6845  1.3239  2.0182
  115MOL0     H15163   3.761   6.088   7.516 -0.9199 -1.1571 -0.1371
  115MOL0     H15164   4.239   5.914   7.460 -0.9530  0.6319 -2.8289
  115MOL0     H15165   4.465   5.948   7.545  0.4650 -0.0613 -0.9457
  115MOL0     H15166   6.073   7.238   7.880 -0.2914  0.5388  0.9581
  115MOL0     H15167   6.223   7.369   8.009  2.5501 -1.6990 -1.6973
  115MOL0     H15168   6.615   7.406   8.225  0.9450 -0.3797  0.8513
  115MOL0     H15169   6.774   7.553   8.298 -1.9324 -1.1035 -2.6379
  115MOL0     H15170   6.891   7.769   8.378 -2.1549 -1.9659 -0.9183
  115MOL0     H15171   6.945   7.611   8.438  1.2048 -0.9039  3.7465
  115MOL0     H15172   6.974   7.827   8.631 -0.2688 -1.6266  0.9361
  115MOL0     H15173   7.058   7.671   8.617 -0.4203 -0.3724  0.2596
  115MOL0     H15174   7.150   7.779   8.386  0.8002 -2.5456  1.6049
  115MOL0     H15175   7.238   7.815   8.534  2.9525  2.5488 -1.8356
  115MOL0     H15176   7.013   7.985   8.401  0.1306 -1.2558 -0.3027
  115MOL0     H15177   7.104   8.031   8.553  0.6306  0.2602  0.1423
  115MOL0     H15178   7.401   8.090   8.253 -0.7791  1.9615 -1.8148
  115MOL0     H15179   6.540   7.639   8.654  0.3659 -0.1222  0.7070
  115MOL0     H15180   6.347   7.508   8.553 -2.2408  1.5174 -3.7843
  116MOL0     O15181   4.128   6.915   8.904  0.3565 -0.3108 -0.0386
  116MOL0     C15182   4.094   6.904   9.021 -1.1249  0.0400 -1.4467
  116MOL0     O15183   4.174   6.895   9.130 -0.0028 -0.7286  0.4243
  116MOL0     C15184   4.302   6.940   9.112  0.1955 -0.1497 -0.1721
  116MOL0     C15185   4.341   7.044   9.199 -0.4256  1.0808  0.6601
  116MOL0     C15186   4.473   7.092   9.188  0.0241  0.6947 -0.0258
  116MOL0     C15187   4.559   7.063   9.089  0.2747 -0.2219 -0.5170
  116MOL0     O15188   4.681   7.119   9.087  0.4191 -0.4182 -0.0465
  116MOL0     C15189   4.801   7.059   9.026  0.0250  0.0782 -1.2285
  116MOL0     C15190   4.919   7.097   9.119 -0.3683  0.5530  0.3864
  116MOL0     C15191   5.065   7.029   9.076  0.3503 -0.2297 -0.6184
  116MOL0     C15192   5.104   7.060   8.930 -0.8003 -0.5669  1.2504
  116MOL0     C15193   5.257   7.067   8.932  0.1903  0.4293 -0.0769
  116MOL0     C15194   5.322   7.077   8.786  0.2975 -0.4779 -0.9177
  116MOL0     C15195   5.472   7.059   8.782  0.6886 -0.2360  0.0766
  116MOL0     C15196   5.553   7.162   8.873  0.7689 -0.7130  0.9811
  116MOL0     N15197   5.526   7.303   8.830 -0.2366  0.4717  0.4416
  116MOL0     C15198   5.418   7.383   8.861 -0.6913  0.3819 -0.1068
  116MOL0     C15199   5.446   7.510   8.820 -0.4371  0.7921 -0.3049
  116MOL0     C15200   5.374   7.633   8.860 -0.4218  1.6292  0.9430
  116MOL0     C15201   5.340   7.722   8.737  0.0417 -1.4234  0.1288
  116MOL0     C15202   5.201   7.699   8.680  0.2252  0.0601  0.3742
  116MOL0     C15203   5.173   7.549   8.640 -0.5466 -0.8936  0.2156
  116MOL0     O15204   5.063   7.533   8.556  0.0542  0.0077  0.6412
  116MOL0     C15205   4.987   7.419   8.562 -0.2129  0.9379  0.1756
  116MOL0     C15206   5.007   7.300   8.639  0.0522  0.2244  0.8037
  116MOL0     C15207   4.910   7.196   8.648 -0.4067 -0.6258 -0.7816
  116MOL0     C15208   4.792   7.201   8.571 -0.6548 -0.2187  0.6131
  116MOL0     C15209   4.684   7.096   8.580  0.0180  0.8912  0.5784
  116MOL0     O15210   4.556   7.140   8.530 -0.6667 -1.2871 -0.5572
  116MOL0     C15211   4.441   7.069   8.535 -1.2274  0.7495 -0.7957
  116MOL0     C15212   4.414   6.964   8.624 -0.3059  1.3379  0.3135
  116MOL0     C15213   4.298   6.889   8.608  0.4598  0.2326 -0.8390
  116MOL0     C15214   4.217   6.904   8.497 -0.9344  0.5791  0.0932
  116MOL0     O15215   4.111   6.832   8.481 -0.4962  0.4926  0.0632
  116MOL0     C15216   4.002   6.898   8.535  1.1769  0.2892  0.9611
  116MOL0     C15217   3.884   6.794   8.523  0.4464 -0.7673 -0.0319
  116MOL0     C15218   3.747   6.841   8.579  0.4773 -1.4161  0.0605
  116MOL0     C15219   3.624   6.758   8.529 -0.1916 -0.2645 -0.2843
  116MOL0     C15220   3.506   6.813   8.610 -0.8105 -0.2005  0.6374
  116MOL0     C15221   3.364   6.754   8.571  0.5112 -0.0882 -0.0582
  116MOL0     C15222   3.254   6.811   8.656  0.5580 -0.5129 -0.0913
  116MOL0     C15223   3.109   6.760   8.638 -0.3617  0.4422 -0.3794
  116MOL0    Cl15224   2.990   6.803   8.761  0.2578  0.5760 -0.4799
  116MOL0     C15225   4.253   7.004   8.400 -0.4794  0.9519  0.0524
  116MOL0     C15226   4.355   7.091   8.426 -0.2377 -0.3843 -0.5418
  116MOL0     O15227   4.709   6.996   8.649  0.2255 -0.3425 -0.1663
  116MOL0     C15228   4.769   7.321   8.500  0.1358  0.5066 -0.2368
  116MOL0     C15229   4.864   7.426   8.489  0.6857  0.2090  0.2804
  116MOL0     N15230   5.567   7.506   8.756  0.8595 -0.2608 -0.0734
  116MOL0     N15231   5.618   7.386   8.772  0.4732  0.2334  0.0455
  116MOL0     C15232   4.513   6.963   8.999  0.3462  0.5692 -0.5261
  116MOL0     C15233   4.385   6.898   9.013 -0.4760  0.5745 -0.0967
  116MOL0     C15234   3.943   6.911   9.053 -0.0236  1.4660 -0.1980
  116MOL0     C15235   3.899   6.916   9.186  0.3196 -0.0186  0.6996
  116MOL0     C15236   3.760   6.924   9.208  1.1159  0.4045  0.1009
  116MOL0     C15237   3.661   6.935   9.110  0.3949 -0.1122 -1.1992
  116MOL0     O15238   3.522   6.933   9.132 -0.0108  0.6601 -0.6640
  116MOL0     C15239   3.467   6.970   9.258 -0.4683 -1.5209  0.4813
  116MOL0     C15240   3.485   7.119   9.276  0.0390  0.0956  0.0982
  116MOL0     C15241   3.412   7.170   9.397 -0.6905  0.2531 -0.5009
  116MOL0     C15242   3.262   7.210   9.373 -0.6951 -0.4409 -0.0806
  116MOL0     C15243   3.169   7.107   9.369  0.6242  0.8328 -0.1093
  116MOL0     C15244   3.102   7.012   9.347  1.1904 -0.0224 -1.0600
  116MOL0     C15245   3.708   6.918   8.976 -0.8968 -0.4398  0.3299
  116MOL0     C15246   3.846   6.903   8.949 -0.6851 -0.0136 -0.5311
  116MOL0     H15247   4.271   7.087   9.269 -1.1053  2.8705 -1.0137
  116MOL0     H15248   4.494   7.164   9.267  1.1395  1.6196 -1.1404
  116MOL0     H15249   4.806   7.093   8.922 -1.6792  0.6348 -1.1641
  116MOL0     H15250   4.788   6.950   9.033 -2.8720  0.3875 -0.0422
  116MOL0     H15251   4.894   7.061   9.219 -0.1730 -2.0140 -0.3990
  116MOL0     H15252   4.933   7.205   9.117  2.2619  0.2652 -0.6192
  116MOL0     H15253   5.070   6.921   9.093  2.5228 -0.3257 -1.5650
  116MOL0     H15254   5.136   7.076   9.144 -0.0954 -1.4189  0.7187
  116MOL0     H15255   5.063   6.983   8.864  0.6343  2.6728 -4.1021
  116MOL0     H15256   5.069   7.154   8.885  1.0328 -1.1511 -1.6990
  116MOL0     H15257   5.289   6.978   8.985  1.6099  1.2806  0.5604
  116MOL0     H15258   5.288   7.155   8.989 -2.4424  0.5571  1.3260
  116MOL0     H15259   5.293   7.170   8.737  2.2536 -0.3004 -1.8056
  116MOL0     H15260   5.276   6.999   8.725 -1.1191  1.2681 -2.1845
  116MOL0     H15261   5.481   6.959   8.826  0.4959  0.1302  0.9607
  116MOL0     H15262   5.512   7.061   8.680 -3.6611  3.5168 -1.8900
  116MOL0     H15263   5.658   7.130   8.872  1.4479  1.3556  0.7801
  116MOL0     H15264   5.513   7.155   8.974  0.9835  0.1010  1.1282
  116MOL0     H15265   5.334   7.355   8.923  0.3862 -0.1537  1.1638
  116MOL0     H15266   5.438   7.685   8.932 -0.8994 -0.8152  3.2865
  116MOL0     H15267   5.278   7.614   8.909 -1.0791 -0.4914 -1.0037
  116MOL0     H15268   5.422   7.720   8.665  0.7503 -0.4740  0.8990
  116MOL0     H15269   5.332   7.825   8.774 -1.8208 -1.9430  1.3684
  116MOL0     H15270   5.119   7.731   8.745 -2.6303 -2.3170 -1.7743
  116MOL0     H15271   5.190   7.757   8.588  0.2324  1.9309  1.4993
  116MOL0     H15272   5.158   7.502   8.738 -0.7205 -1.0525  0.1145
  116MOL0     H15273   5.262   7.506   8.594 -1.4679 -1.5548 -0.9912
  116MOL0     H15274   5.100   7.287   8.693  1.0536  0.0170 -0.9023
  116MOL0     H15275   4.929   7.114   8.716 -2.7511 -0.8539 -0.3237
  116MOL0     H15276   4.478   6.950   8.711 -0.2423  1.4200  0.2807
  116MOL0     H15277   4.279   6.811   8.681 -0.8500 -0.0264 -1.4288
  116MOL0     H15278   3.989   6.990   8.477  3.0130 -0.4508 -0.7470
  116MOL0     H15279   3.999   6.925   8.641 -2.4187  2.6946  0.4213
  116MOL0     H15280   3.897   6.701   8.579 -1.0521 -0.1624  1.4094
  116MOL0     H15281   3.854   6.768   8.421 -2.8533  2.7718 -0.2101
  116MOL0     H15282   3.726   6.946   8.553 -0.4919 -1.5987  0.0770
  116MOL0     H15283   3.751   6.843   8.689 -0.1804 -0.4757  0.0782
  116MOL0     H15284   3.615   6.778   8.421 -1.7656 -0.8458 -0.2923
  116MOL0     H15285   3.642   6.652   8.549  1.6349  0.2258  0.8401
  116MOL0     H15286   3.490   6.918   8.583  0.1268 -0.2218 -0.0191
  116MOL0     H15287   3.524   6.802   8.718 -1.3333 -0.4448  0.7017
  116MOL0     H15288   3.361   6.645   8.565  2.5777 -0.2145  0.4801
  116MOL0     H15289   3.337   6.792   8.472  1.3574  0.7557  0.0156
  116MOL0     H15290   3.283   6.789   8.759  3.5910  0.3476 -0.6884
  116MOL0     H15291   3.254   6.917   8.629  0.9814 -0.5963 -0.4273
  116MOL0     H15292   3.106   6.650   8.636  0.7070  0.2813  2.6364
  116MOL0     H15293   3.073   6.793   8.540 -1.4631  0.5979  0.0650
  116MOL0     H15294   4.196   7.002   8.308 -0.4610 -2.4803 -0.0307
  116MOL0     H15295   4.378   7.168   8.353 -3.1909  3.2524  1.9370
  116MOL0     H15296   4.671   7.331   8.453 -0.9990 -1.3991  1.5536
  116MOL0     H15297   4.841   7.519   8.437 -1.6539 -1.3131 -1.5993
  116MOL0     H15298   4.576   6.924   8.921  0.1068 -3.3347  1.0057
  116MOL0     H15299   4.346   6.819   8.950 -1.1824  0.2922  0.6769
  116MOL0     H15300   3.967   6.915   9.270 -0.7447 -3.2520  1.6510
  116MOL0     H15301   3.730   6.916   9.312 -1.3143  0.5300 -0.5238
  116MOL0     H15302   3.518   6.921   9.342 -1.0729  1.2192  2.5789
  116MOL0     H15303   3.361   6.942   9.251 -0.9140  0.2278 -0.1314
  116MOL0     H15304   3.593   7.136   9.276 -0.4828  5.4457 -2.5852
  116MOL0     H15305   3.453   7.169   9.184  1.9665 -1.2167 -1.3617
  116MOL0     H15306   3.473   7.253   9.433 -0.8487  0.2074 -0.1148
  116MOL0     H15307   3.414   7.095   9.477 -1.5399  1.0042  0.2515
  116MOL0     H15308   3.226   7.281   9.447 -0.5969 -0.1761 -0.2830
  116MOL0     H15309   3.255   7.267   9.280 -1.6552 -0.3899  0.0170
  116MOL0     H15310   3.039   6.932   9.314 -0.3213  0.8531 -0.4384
  116MOL0     H15311   3.636   6.913   8.895  0.2878  0.9606 -0.8584
  116MOL0     H15312   3.878   6.898   8.845  0.4737 -0.8252 -0.1432
  117MOL0     O15313   9.972  10.506   6.197 -0.0336  0.6194  0.4844
  117MOL0     C15314  10.006  10.590   6.121  0.7703 -0.2105 -0.4959
  117MOL0     O15315   9.924  10.698   6.088  0.2739  0.0310 -0.4597
  117MOL0     C15316   9.788  10.697   6.076  0.2587  0.2765 -0.4636
  117MOL0     C15317   9.700  10.670   6.177  0.1850 -0.0436  0.5101
  117MOL0     C15318   9.564  10.660   6.149 -0.3433  0.0767 -1.0371
  117MOL0     C15319   9.518  10.686   6.022  0.2115 -0.7513  0.3903
  117MOL0     O15320   9.375  10.672   6.004  0.1744 -0.0777 -0.5496
  117MOL0     C15321   9.342  10.582   5.896  0.6143 -0.4177  0.1361
  117MOL0     C15322   9.219  10.512   5.937 -0.3112 -0.5963 -0.2669
  117MOL0     C15323   9.182  10.406   5.835 -0.1986 -0.2044 -0.6144
  117MOL0     C15324   9.103  10.283   5.887 -0.1926 -0.1018  0.2035
  117MOL0     C15325   8.958  10.319   5.926  0.7358  0.5147 -0.0932
  117MOL0     C15326   8.884  10.195   5.950 -0.4426  0.1680 -0.0204
  117MOL0     C15327   8.737  10.214   5.934 -0.3911 -0.4800 -0.7568
  117MOL0     C15328   8.663  10.079   5.930  0.1605  0.2644 -0.3124
  117MOL0     N15329   8.655  10.002   6.051 -0.6344  0.9446 -0.0493
  117MOL0     C15330   8.641   9.864   6.059  0.9765 -1.4912  0.6907
  117MOL0     C15331   8.597   9.840   6.185  0.2672 -0.0686 -0.4074
  117MOL0     C15332   8.577   9.706   6.248 -0.4254 -0.1617  0.3889
  117MOL0     C15333   8.434   9.640   6.254 -0.1008 -0.6236 -0.8149
  117MOL0     C15334   8.322   9.728   6.313 -0.0253 -0.4227 -0.0635
  117MOL0     C15335   8.174   9.692   6.275  0.5938 -1.0551  0.7041
  117MOL0     O15336   8.087   9.767   6.354 -1.0059 -0.6880 -0.6583
  117MOL0     C15337   7.958   9.725   6.352 -0.4915 -1.1589  0.1563
  117MOL0     C15338   7.875   9.730   6.238 -0.7686 -0.1350  1.1195
  117MOL0     C15339   7.736   9.709   6.243 -0.2627 -0.2797 -0.2147
  117MOL0     C15340   7.677   9.681   6.373 -0.5784  0.1498  0.0013
  117MOL0     C15341   7.530   9.665   6.388  0.2306  0.3125 -0.7156
  117MOL0     O15342   7.453   9.611   6.281 -0.7660 -0.3877 -0.4583
  117MOL0     C15343   7.317   9.646   6.265  0.2359  0.1410 -1.0875
  117MOL0     C15344   7.268   9.779   6.267  0.2183  0.0460 -0.7293
  117MOL0     C15345   7.139   9.807   6.261 -0.5976 -0.2903  0.1037
  117MOL0     C15346   7.036   9.709   6.245  1.0486 -0.4176 -0.7794
  117MOL0     O15347   6.905   9.739   6.239 -0.4049  0.4027 -0.4774
  117MOL0     C15348   6.813   9.661   6.310  0.0670 -0.1612  0.1453
  117MOL0     C15349   6.690   9.740   6.347  0.1634 -0.2688 -0.1457
  117MOL0     C15350   6.597   9.674   6.455 -0.5095 -1.3167 -0.6461
  117MOL0     C15351   6.558   9.535   6.410  0.0974  0.4168  0.7112
  117MOL0     C15352   6.429   9.496   6.485 -0.3767  0.5709  0.6187
  117MOL0     C15353   6.374   9.361   6.426 -0.2145  0.3102 -0.6142
  117MOL0     C15354   6.278   9.306   6.523  0.1265 -0.1680  0.4715
  117MOL0     C15355   6.138   9.361   6.509 -0.7498 -0.5080  0.2226
  117MOL0    Cl15356   6.030   9.285   6.629  0.1985  0.0605 -0.2441
  117MOL0     C15357   7.083   9.578   6.244 -0.7000  0.5178  0.9038
  117MOL0     C15358   7.223   9.543   6.247  0.1320  0.4364 -0.2705
  117MOL0     O15359   7.484   9.685   6.504 -0.4290  0.3122  0.9157
  117MOL0     C15360   7.762   9.681   6.486  0.7660  1.0131 -0.1019
  117MOL0     C15361   7.895   9.699   6.475  0.0230  0.2599  0.3034
  117MOL0     N15362   8.578   9.962   6.248 -0.8618 -0.5764 -0.2108
  117MOL0     N15363   8.621  10.053   6.170  0.2605 -0.6960  0.8729
  117MOL0     C15364   9.606  10.722   5.918 -0.3831 -0.3732  0.4597
  117MOL0     C15365   9.744  10.725   5.944 -0.4677  0.3700  0.5202
  117MOL0     C15366  10.152  10.616   6.094 -1.2887  0.4932 -0.0835
  117MOL0     C15367  10.248  10.523   6.128  0.8856  0.6144  0.2360
  117MOL0     C15368  10.382  10.546   6.094  0.0249  0.3150  0.5699
  117MOL0     C15369  10.418  10.662   6.016  0.4536  0.0899  0.2247
  117MOL0     O15370  10.544  10.680   5.970 -1.0295 -0.0170  0.0174
  117MOL0     C15371  10.655  10.619   6.043 -0.8112 -0.1061  0.1329
  117MOL0     C15372  10.779  10.673   5.968 -0.7400  0.2944 -0.1462
  117MOL0     C15373  10.780  10.826   5.965 -0.1970 -0.9620 -0.6671
  117MOL0     C15374  10.818  10.889   6.100  0.4605 -0.6212 -0.3459
  117MOL0     C15375  10.800  11.035   6.097  0.2093 -0.7458 -0.6590
  117MOL0     C15376  10.781  11.156   6.112  0.0732  0.7977  0.2888
  117MOL0     C15377  10.319  10.750   5.981 -0.1179  0.6256  0.4117
  117MOL0     C15378  10.191  10.735   6.025  0.7533  0.7945 -0.1734
  117MOL0     H15379   9.740  10.654   6.276 -1.3092 -2.6271  0.7922
  117MOL0     H15380   9.503  10.637   6.236  0.0026  2.9321  0.0694
  117MOL0     H15381   9.423  10.513   5.873 -0.7912 -1.2547 -2.8434
  117MOL0     H15382   9.328  10.642   5.805  1.2495  0.4478  0.6026
  117MOL0     H15383   9.139  10.585   5.949 -2.1999 -2.6930  0.4846
  117MOL0     H15384   9.233  10.454   6.028  0.7546 -0.3438 -0.2574
  117MOL0     H15385   9.271  10.358   5.793 -0.7539 -4.0931  2.1198
  117MOL0     H15386   9.132  10.452   5.749  0.3250  0.2644 -0.6746
  117MOL0     H15387   9.104  10.221   5.796  1.7880  2.0653 -1.3574
  117MOL0     H15388   9.157  10.247   5.974 -0.8108 -0.0116  0.6291
  117MOL0     H15389   8.903  10.378   5.851  0.5579 -0.2056 -0.5360
  117MOL0     H15390   8.949  10.365   6.025  1.3622  0.3814  0.0351
  117MOL0     H15391   8.921  10.154   6.045  1.2815 -1.9707 -1.5128
  117MOL0     H15392   8.919  10.117   5.883 -0.8575 -0.0295 -0.0088
  117MOL0     H15393   8.697  10.277   6.014  0.9844 -1.6944  0.9341
  117MOL0     H15394   8.720  10.267   5.839 -0.8328  0.7533 -0.0095
  117MOL0     H15395   8.701  10.009   5.854  0.3591  1.3147 -1.2079
  117MOL0     H15396   8.556  10.089   5.911  0.0181 -0.6423 -0.0034
  117MOL0     H15397   8.672   9.796   5.980  3.7715  0.5690 -0.1535
  117MOL0     H15398   8.630   9.707   6.344 -2.1700 -2.2542  1.4688
  117MOL0     H15399   8.630   9.638   6.181 -1.2563  0.7677 -1.2595
  117MOL0     H15400   8.422   9.540   6.297  0.0814 -0.8554 -1.2947
  117MOL0     H15401   8.403   9.618   6.151 -0.5975 -1.2493 -0.5424
  117MOL0     H15402   8.330   9.723   6.422  1.6588  0.7497 -0.0880
  117MOL0     H15403   8.338   9.832   6.281 -1.4205 -0.7958 -2.1370
  117MOL0     H15404   8.159   9.588   6.306 -2.4637 -0.4790  1.5248
  117MOL0     H15405   8.162   9.703   6.167  3.6760 -2.1302  0.1512
  117MOL0     H15406   7.922   9.752   6.142  3.0659 -0.6075  2.7056
  117MOL0     H15407   7.671   9.718   6.156 -0.5391 -3.5911 -0.4816
  117MOL0     H15408   7.341   9.858   6.284  0.0313  0.1615 -0.4496
  117MOL0     H15409   7.101   9.908   6.253 -1.7051 -0.7388 -0.5725
  117MOL0     H15410   6.854   9.607   6.396  0.1292  0.4132  0.4783
  117MOL0     H15411   6.764   9.588   6.244 -1.5676 -0.9047  2.0558
  117MOL0     H15412   6.635   9.751   6.253 -1.2223 -3.6211  0.1208
  117MOL0     H15413   6.723   9.839   6.379  1.2230  0.2218 -2.5592
  117MOL0     H15414   6.503   9.725   6.476 -0.1242 -0.0225 -1.9564
  117MOL0     H15415   6.649   9.656   6.550  0.3073 -2.1785 -1.2341
  117MOL0     H15416   6.549   9.527   6.301  0.7720  3.6339  0.3274
  117MOL0     H15417   6.639   9.465   6.435  0.8771  0.9222 -0.3190
  117MOL0     H15418   6.353   9.574   6.473  0.0585  0.7659 -1.1608
  117MOL0     H15419   6.445   9.483   6.592 -2.5812  3.3600  1.4050
  117MOL0     H15420   6.453   9.285   6.434  0.6411  1.2841  0.6841
  117MOL0     H15421   6.334   9.364   6.324  2.3467 -1.8342 -1.7962
  117MOL0     H15422   6.259   9.206   6.482 -4.8899  0.6678  0.1528
  117MOL0     H15423   6.317   9.299   6.625  3.2473 -0.6827 -0.6493
  117MOL0     H15424   6.103   9.337   6.408 -1.6331 -0.7477  0.5693
  117MOL0     H15425   6.144   9.470   6.519  2.6997 -0.7712  2.6551
  117MOL0     H15426   7.010   9.500   6.225 -0.1662  0.2810 -0.2604
  117MOL0     H15427   7.265   9.443   6.249  1.8135  1.1169 -0.2508
  117MOL0     H15428   7.729   9.678   6.590  2.4529  1.5041  0.4785
  117MOL0     H15429   7.963   9.692   6.559 -0.4322 -0.8514  0.6008
  117MOL0     H15430   9.559  10.742   5.822 -0.5277 -1.2211  0.3480
  117MOL0     H15431   9.820  10.762   5.877  0.9496  1.2494  2.5145
  117MOL0     H15432  10.222  10.430   6.178 -4.4795  0.0377 -2.9047
  117MOL0     H15433  10.452  10.470   6.128 -0.5976 -0.3667  0.3689
  117MOL0     H15434  10.658  10.510   6.034 -0.8775 -0.1432  0.5813
  117MOL0     H15435  10.644  10.647   6.148 -0.2997  0.2696  0.0900
  117MOL0     H15436  10.873  10.636   6.011 -1.4080 -1.5392 -0.1845
  117MOL0     H15437  10.782  10.631   5.867 -2.6583 -3.6558  1.2629
  117MOL0     H15438  10.691  10.877   5.929 -0.4612 -1.1486 -0.2843
  117MOL0     H15439  10.867  10.859   5.908  2.1720 -1.5132  2.3663
  117MOL0     H15440  10.740  10.852   6.168  0.7596 -1.1817 -0.2956
  117MOL0     H15441  10.919  10.866   6.137  1.2123 -1.1768 -2.6095
  117MOL0     H15442  10.776  11.262   6.129 -3.6779  0.7047  0.6235
  117MOL0     H15443  10.335  10.841   5.924  1.4377  0.1272  0.0001
  117MOL0     H15444  10.111  10.796   5.986  2.7424  2.6274 -1.6962
  118MOL0     O15445   0.165   2.469   5.927  0.9453  1.1175  0.4954
  118MOL0     C15446   0.278   2.423   5.905  0.4430 -0.8446 -0.2553
  118MOL0     O15447   0.319   2.355   5.788 -0.1185  0.0762  0.5054
  118MOL0     C15448   0.234   2.335   5.680  0.1084  0.1208  0.3924
  118MOL0     C15449   0.115   2.402   5.644 -0.6912 -0.3884 -0.8469
  118MOL0     C15450   0.046   2.364   5.533 -0.2138 -0.1507 -0.0717
  118MOL0     C15451   0.086   2.259   5.450 -0.4080  0.2894  0.4029
  118MOL0     O15452   0.017   2.243   5.340 -0.3362  0.0053 -0.0354
  118MOL0     C15453  -0.120   2.215   5.358  0.4570  0.2815  0.2630
  118MOL0     C15454  -0.202   2.264   5.230 -0.0682  0.3463 -0.0962
  118MOL0     C15455  -0.200   2.416   5.221  0.5087  0.3081 -0.4799
  118MOL0     C15456  -0.313   2.478   5.299  0.1969 -0.8964 -0.1259
  118MOL0     C15457  -0.334   2.610   5.244 -0.1696 -0.0110 -0.2776
  118MOL0     C15458  -0.432   2.690   5.317  0.3493 -0.0150  0.5024
  118MOL0     C15459  -0.422   2.832   5.278 -0.4862  0.1860 -0.5229
  118MOL0     C15460  -0.528   2.928   5.342 -0.7562 -0.4293  0.5358
  118MOL0     N15461  -0.504   3.066   5.302  0.3147  0.3917  0.2949
  118MOL0     C15462  -0.548   3.116   5.183 -1.2016 -0.7330  0.4835
  118MOL0     C15463  -0.512   3.244   5.171 -0.0328 -0.8839 -0.3018
  118MOL0     C15464  -0.558   3.344   5.071 -0.2934  0.1544 -0.1485
  118MOL0     C15465  -0.710   3.357   5.073  0.4921 -0.9264 -0.6418
  118MOL0     C15466  -0.756   3.475   4.983 -0.0585 -0.1607 -0.4436
  118MOL0     C15467  -0.903   3.445   4.952 -0.0375  0.0410  0.6221
  118MOL0     O15468  -0.928   3.335   4.864 -0.2561  0.9405  0.7394
  118MOL0     C15469  -1.059   3.285   4.865  0.1807 -0.9545  0.3767
  118MOL0     C15470  -1.090   3.165   4.796  0.4480 -1.1592  0.1601
  118MOL0     C15471  -1.219   3.117   4.781 -0.2647  0.0781 -0.8021
  118MOL0     C15472  -1.327   3.182   4.836  0.0362 -0.0436  0.5455
  118MOL0     C15473  -1.463   3.113   4.835 -0.2403 -0.8422  1.1493
  118MOL0     O15474  -1.558   3.184   4.903  0.5309  0.1394 -1.0218
  118MOL0     C15475  -1.698   3.151   4.900  0.6091  0.2159 -0.1058
  118MOL0     C15476  -1.787   3.187   5.003 -0.7572 -0.4534  1.0260
  118MOL0     C15477  -1.920   3.163   5.005  0.4877 -0.0104 -0.2032
  118MOL0     C15478  -1.982   3.105   4.897  0.5497  0.2193  0.4785
  118MOL0     O15479  -2.110   3.057   4.906  0.1842  0.1586  0.1530
  118MOL0     C15480  -2.190   3.083   4.790 -0.2832 -0.9825  0.0156
  118MOL0     C15481  -2.322   3.007   4.805 -0.3178 -0.2479  0.3835
  118MOL0     C15482  -2.387   3.026   4.939  1.5180 -0.2589 -0.3794
  118MOL0     C15483  -2.521   2.948   4.949  0.6492 -0.3013 -0.1152
  118MOL0     C15484  -2.633   3.019   4.869 -0.1003 -0.3067 -0.6638
  118MOL0     C15485  -2.773   2.938   4.879 -1.2080  0.0348 -0.2573
  118MOL0     C15486  -2.885   3.012   4.796 -0.3980  0.2728 -0.6122
  118MOL0     C15487  -3.008   3.035   4.882 -0.4921  0.0860 -0.6356
  118MOL0    Cl15488  -3.140   3.092   4.755 -0.1584 -0.3508 -0.4458
  118MOL0     C15489  -1.899   3.061   4.789 -0.7668  0.1452 -0.6251
  118MOL0     C15490  -1.764   3.081   4.793  0.4165 -1.1085  0.2215
  118MOL0     O15491  -1.484   3.009   4.769 -0.2351  0.0356 -0.1084
  118MOL0     C15492  -1.299   3.296   4.910 -0.0840 -0.8210 -0.6036
  118MOL0     C15493  -1.171   3.357   4.916  0.4096  0.9165 -0.1183
  118MOL0     N15494  -0.439   3.271   5.292  0.1496  0.2015 -0.3149
  118MOL0     N15495  -0.430   3.161   5.354 -0.3391 -0.4272 -0.1611
  118MOL0     C15496   0.211   2.207   5.472 -0.4152  1.1607 -0.0236
  118MOL0     C15497   0.274   2.234   5.593 -0.9485 -0.5196  0.5070
  118MOL0     C15498   0.371   2.446   6.015 -0.1052  0.2583 -0.3130
  118MOL0     C15499   0.324   2.493   6.139 -0.0420 -0.0432  0.2667
  118MOL0     C15500   0.408   2.498   6.248 -0.4411  0.5814 -0.0842
  118MOL0     C15501   0.538   2.455   6.237 -0.0062 -0.3383 -0.3088
  118MOL0     O15502   0.632   2.464   6.335  0.8512 -0.2821 -0.0207
  118MOL0     C15503   0.595   2.497   6.468 -0.0672 -0.8620  0.2249
  118MOL0     C15504   0.716   2.466   6.559  0.2062 -0.2215  0.0051
  118MOL0     C15505   0.758   2.318   6.558 -0.8045 -0.0470  0.8027
  118MOL0     C15506   0.828   2.277   6.679  0.4210 -0.1672  0.6164
  118MOL0     C15507   0.961   2.339   6.665 -0.7118 -0.8515 -0.7968
  118MOL0     C15508   1.068   2.399   6.655 -0.4267  0.3396 -0.4405
  118MOL0     C15509   0.584   2.416   6.115 -0.7000 -0.9366  0.7773
  118MOL0     C15510   0.507   2.407   6.004 -0.3700  0.5516  0.0608
  118MOL0     H15511   0.076   2.484   5.702  1.2818 -1.0181  1.5582
  118MOL0     H15512  -0.034   2.428   5.497  0.3633 -0.6386 -2.3834
  118MOL0     H15513  -0.169   2.264   5.442 -0.8359 -1.3611  0.5179
  118MOL0     H15514  -0.125   2.107   5.375 -0.4387  0.4404  1.0713
  118MOL0     H15515  -0.302   2.221   5.235  1.1985 -2.7777  3.7223
  118MOL0     H15516  -0.150   2.225   5.141  0.9561  0.8196  0.2844
  118MOL0     H15517  -0.219   2.445   5.118 -2.2197  0.2686 -0.0619
  118MOL0     H15518  -0.102   2.455   5.251  1.1052 -0.6025 -1.2034
  118MOL0     H15519  -0.408   2.425   5.288 -0.7736  0.4628  1.2337
  118MOL0     H15520  -0.280   2.479   5.404 -0.7031  0.7452  0.1778
  118MOL0     H15521  -0.364   2.621   5.140  1.7093  2.0392 -0.6686
  118MOL0     H15522  -0.240   2.665   5.253  1.4981 -2.2644 -2.3733
  118MOL0     H15523  -0.414   2.684   5.424 -0.4696  3.8137  0.9846
  118MOL0     H15524  -0.527   2.645   5.286  0.3747  0.7292 -0.7279
  118MOL0     H15525  -0.328   2.870   5.320  0.9908 -2.1843 -1.4642
  118MOL0     H15526  -0.422   2.842   5.169 -0.3078  3.5472 -0.3419
  118MOL0     H15527  -0.527   2.920   5.451  0.2835  0.2632  0.5902
  118MOL0     H15528  -0.625   2.884   5.315  0.4337 -1.1429 -3.0647
  118MOL0     H15529  -0.607   3.067   5.106 -1.2207  4.4157 -3.3500
  118MOL0     H15530  -0.514   3.317   4.974  1.4225 -1.4616  0.9995
  118MOL0     H15531  -0.516   3.438   5.105  1.2269 -0.0718 -1.3185
  118MOL0     H15532  -0.735   3.368   5.179 -1.1278  0.2087 -1.1101
  118MOL0     H15533  -0.747   3.259   5.041  1.5889 -0.2440 -4.5054
  118MOL0     H15534  -0.742   3.573   5.029 -1.1204 -0.5400  0.7133
  118MOL0     H15535  -0.687   3.474   4.897  1.6744 -0.9009  0.8871
  118MOL0     H15536  -0.948   3.531   4.902 -0.5890 -0.4907  0.1831
  118MOL0     H15537  -0.960   3.422   5.043 -0.6945 -1.4343 -0.1167
  118MOL0     H15538  -1.003   3.115   4.755  0.0214 -0.6564 -1.4163
  118MOL0     H15539  -1.224   3.030   4.717 -3.1385  1.2488 -2.3491
  118MOL0     H15540  -1.733   3.254   5.069 -0.2177  2.6935 -2.2875
  118MOL0     H15541  -1.976   3.181   5.096  2.6244  0.8000  1.0313
  118MOL0     H15542  -2.141   3.052   4.697 -2.2101 -0.0806 -1.3509
  118MOL0     H15543  -2.215   3.190   4.796  1.7334 -0.3258 -2.0159
  118MOL0     H15544  -2.300   2.900   4.800  1.2434 -0.0020  1.3496
  118MOL0     H15545  -2.383   3.045   4.722  3.5702  2.0353 -1.7390
  118MOL0     H15546  -2.390   3.131   4.970  2.0497 -0.1980 -0.5099
  118MOL0     H15547  -2.320   2.979   5.012  0.0032  0.3805  1.4853
  118MOL0     H15548  -2.508   2.850   4.901  0.0002  0.7275 -2.5638
  118MOL0     H15549  -2.552   2.934   5.053  0.9868 -1.3442 -0.1442
  118MOL0     H15550  -2.595   3.023   4.767 -0.1727 -0.9103 -0.7153
  118MOL0     H15551  -2.646   3.117   4.917 -1.4248 -0.8293  0.0958
  118MOL0     H15552  -2.794   2.924   4.985  4.1378  0.5546  1.2014
  118MOL0     H15553  -2.756   2.839   4.835  0.9168  0.7541 -1.2048
  118MOL0     H15554  -2.845   3.111   4.769 -2.5138  1.2021 -0.5305
  118MOL0     H15555  -2.909   2.964   4.701 -3.3643 -2.4119  1.2798
  118MOL0     H15556  -2.993   3.109   4.961  0.2049  0.4508 -1.0927
  118MOL0     H15557  -3.038   2.946   4.938  1.8293  0.7442  1.8034
  118MOL0     H15558  -1.940   2.994   4.714 -3.6604  1.1435 -0.0705
  118MOL0     H15559  -1.704   3.049   4.707 -0.6756  0.8584 -1.3524
  118MOL0     H15560  -1.378   3.352   4.959  1.8891  0.0575  1.7756
  118MOL0     H15561  -1.165   3.452   4.968  1.9140  0.5644  0.3955
  118MOL0     H15562   0.277   2.145   5.411  2.0627  2.6035  1.0365
  118MOL0     H15563   0.370   2.186   5.612 -0.7451  0.4514  2.2204
  118MOL0     H15564   0.224   2.534   6.145 -0.0099  0.4315 -1.7343
  118MOL0     H15565   0.366   2.516   6.346  2.0377 -2.1408  1.6425
  118MOL0     H15566   0.503   2.443   6.494 -0.3234 -1.0838 -1.0888
  118MOL0     H15567   0.564   2.602   6.471 -0.4106 -0.8839 -1.4758
  118MOL0     H15568   0.798   2.529   6.523 -0.6492  0.0116 -1.6525
  118MOL0     H15569   0.704   2.496   6.664  1.7985  0.8655 -0.0868
  118MOL0     H15570   0.812   2.294   6.466  0.1457 -1.7267  1.7400
  118MOL0     H15571   0.663   2.263   6.564  0.5427 -2.5986  0.5324
  118MOL0     H15572   0.779   2.304   6.773  0.0838 -0.9159  0.6596
  118MOL0     H15573   0.840   2.169   6.672 -2.5728 -0.5992  1.1098
  118MOL0     H15574   1.162   2.448   6.639  0.3099 -0.7168  0.4611
  118MOL0     H15575   0.691   2.397   6.109  0.4647  4.2653 -1.3562
  118MOL0     H15576   0.546   2.372   5.908 -1.6128 -1.6943  0.3190
  119MOL0     O15577   9.374   5.505   0.211  0.4539 -0.4695 -0.4078
  119MOL0     C15578   9.433   5.420   0.264  1.1967  0.6976 -0.3066
  119MOL0     O15579   9.371   5.321   0.324 -0.3294 -0.4443 -0.1510
  119MOL0     C15580   9.231   5.306   0.318 -0.0833 -0.2888  0.1948
  119MOL0     C15581   9.192   5.221   0.213 -0.7607  0.7597 -0.6126
  119MOL0     C15582   9.067   5.175   0.202  0.1821 -0.3304 -0.6781
  119MOL0     C15583   8.968   5.214   0.306 -0.6253 -0.7587 -0.0647
  119MOL0     O15584   8.834   5.200   0.282 -0.8031 -0.0095  0.0329
  119MOL0     C15585   8.782   5.065   0.274 -0.4145 -0.6607 -0.9745
  119MOL0     C15586   8.639   5.081   0.227  0.8273 -0.3427  0.1134
  119MOL0     C15587   8.578   4.946   0.195 -0.8078  0.0838 -0.9232
  119MOL0     C15588   8.452   4.970   0.116  0.0755 -0.7046  0.0573
  119MOL0     C15589   8.367   4.850   0.108  0.1812 -0.3288  0.5256
  119MOL0     C15590   8.294   4.839   0.241  0.7033  0.4996  0.2992
  119MOL0     C15591   8.179   4.734   0.229 -0.0335  0.2952  0.4401
  119MOL0     C15592   8.111   4.705   0.370 -0.8211  0.7199  0.4346
  119MOL0     N15593   8.054   4.819   0.434 -0.4484 -0.2688  0.3174
  119MOL0     C15594   7.958   4.896   0.374  1.4130  0.2918  0.3121
  119MOL0     C15595   7.915   4.981   0.471  0.1798 -0.7660  0.6161
  119MOL0     C15596   7.799   5.068   0.447 -0.1203 -0.4607  0.2087
  119MOL0     C15597   7.666   4.990   0.484  0.1817 -0.0140  0.0146
  119MOL0     C15598   7.545   5.090   0.461 -0.2527 -0.4374  0.1927
  119MOL0     C15599   7.476   5.061   0.330  1.0057  0.4270 -0.1367
  119MOL0     O15600   7.363   5.156   0.331  0.3053 -0.3539 -0.6293
  119MOL0     C15601   7.234   5.108   0.350  1.3194  0.9403  0.4357
  119MOL0     C15602   7.138   5.193   0.394  0.2558  0.1446 -1.0245
  119MOL0     C15603   7.000   5.161   0.407  0.1008  0.0913 -0.0214
  119MOL0     C15604   6.960   5.036   0.364  0.0294  0.1058  0.7862
  119MOL0     C15605   6.821   4.993   0.385 -0.1253 -0.1788  0.5567
  119MOL0     O15606   6.792   4.871   0.331  0.2638  0.3673 -0.6180
  119MOL0     C15607   6.658   4.839   0.335  0.0865 -0.9591  0.3258
  119MOL0     C15608   6.609   4.743   0.424  0.5193 -0.2396  0.7252
  119MOL0     C15609   6.471   4.711   0.432 -0.2254  0.3472  0.0253
  119MOL0     C15610   6.381   4.772   0.351  0.8959  0.0285 -0.0119
  119MOL0     O15611   6.248   4.748   0.344  0.5246  0.2053  1.0079
  119MOL0     C15612   6.187   4.670   0.448 -0.0778  0.7261 -0.1853
  119MOL0     C15613   6.043   4.707   0.438  0.1593 -0.5999 -0.8623
  119MOL0     C15614   5.966   4.616   0.528  0.1457 -0.5185  0.0362
  119MOL0     C15615   5.824   4.673   0.548 -0.1904  0.6877 -0.3558
  119MOL0     C15616   5.764   4.590   0.661  0.4364  0.0890  0.9297
  119MOL0     C15617   5.618   4.620   0.643  0.1160  0.6032 -0.7370
  119MOL0     C15618   5.538   4.554   0.763 -0.4299 -0.5087  0.4733
  119MOL0     C15619   5.389   4.603   0.767 -0.7527  0.3903 -0.5481
  119MOL0    Cl15620   5.328   4.618   0.596  0.3875 -0.3491  0.0177
  119MOL0     C15621   6.423   4.868   0.263 -0.0849  0.0001 -1.0045
  119MOL0     C15622   6.560   4.905   0.258 -0.1797 -0.0062 -0.2613
  119MOL0     O15623   6.747   5.077   0.434 -0.0462 -0.0340  0.3891
  119MOL0     C15624   7.056   4.946   0.322 -0.3818  0.0820 -0.2384
  119MOL0     C15625   7.188   4.982   0.311 -0.0745 -0.2032  0.4287
  119MOL0     N15626   7.979   4.958   0.590  0.7057 -0.1373  0.9649
  119MOL0     N15627   8.066   4.860   0.561  0.2080  0.2257 -0.3373
  119MOL0     C15628   9.008   5.296   0.411  0.1505  0.3616 -0.4870
  119MOL0     C15629   9.145   5.342   0.421  0.5669  0.2057  0.4023
  119MOL0     C15630   9.576   5.415   0.231  0.3242 -0.1248 -0.1724
  119MOL0     C15631   9.641   5.292   0.223  0.1237  0.2373  0.3866
  119MOL0     C15632   9.780   5.296   0.213 -1.2154  0.2473 -0.3435
  119MOL0     C15633   9.852   5.413   0.190  0.0663 -0.4222 -0.3950
  119MOL0     O15634   9.981   5.385   0.163 -0.5853  0.6187 -0.0699
  119MOL0     C15635  10.071   5.487   0.111  0.2538 -0.8691 -0.7233
  119MOL0     C15636  10.214   5.438   0.094 -0.4935  0.5369  0.3455
  119MOL0     C15637  10.307   5.558   0.056  0.2896  0.9171  0.0753
  119MOL0     C15638  10.457   5.517   0.038  1.1042 -0.1353  0.1187
  119MOL0     C15639  10.527   5.627  -0.026 -0.0184  0.1830  0.0287
  119MOL0     C15640  10.583   5.726  -0.070 -0.8114 -0.1681  0.1589
  119MOL0     C15641   9.794   5.538   0.180  0.5083 -0.3160 -1.0038
  119MOL0     C15642   9.652   5.542   0.202  0.8152  0.5882 -0.2846
  119MOL0     H15643   9.267   5.204   0.137 -0.4622  2.7778 -0.8115
  119MOL0     H15644   9.031   5.113   0.120 -0.6382  1.9685 -2.1465
  119MOL0     H15645   8.790   5.019   0.373  0.9257  0.7269 -0.3926
  119MOL0     H15646   8.846   5.004   0.209  0.2583 -1.1976  0.1677
  119MOL0     H15647   8.641   5.143   0.137  0.9320  1.3201  1.2107
  119MOL0     H15648   8.576   5.129   0.303  0.7599 -2.3703  1.3851
  119MOL0     H15649   8.542   4.911   0.292 -2.0526  0.9049 -1.0734
  119MOL0     H15650   8.651   4.881   0.145 -1.9133 -2.5992  0.7469
  119MOL0     H15651   8.401   5.059   0.154  0.1825 -1.2821  1.5919
  119MOL0     H15652   8.486   4.982   0.012  0.6297 -3.6420 -0.1944
  119MOL0     H15653   8.423   4.758   0.089  1.7660  1.0625 -2.4106
  119MOL0     H15654   8.292   4.861   0.028 -0.8049  0.8590  1.5706
  119MOL0     H15655   8.258   4.937   0.274 -1.5061 -1.1193  3.1650
  119MOL0     H15656   8.364   4.797   0.313  2.5246 -0.4049 -1.8657
  119MOL0     H15657   8.103   4.757   0.155 -1.3065 -0.9293  1.3046
  119MOL0     H15658   8.229   4.639   0.207 -1.0514  0.1410 -1.3044
  119MOL0     H15659   8.177   4.655   0.441 -1.0488  2.0189  1.6094
  119MOL0     H15660   8.035   4.629   0.347  2.3404 -1.6580 -3.3022
  119MOL0     H15661   7.906   4.891   0.279 -1.0676  2.7703  1.4253
  119MOL0     H15662   7.794   5.118   0.350 -0.7467 -1.5754 -0.3588
  119MOL0     H15663   7.807   5.146   0.524  0.9509  0.5001 -0.8420
  119MOL0     H15664   7.667   4.964   0.591  1.6403 -0.1267 -0.0057
  119MOL0     H15665   7.656   4.900   0.424  0.9602 -1.8996  2.5312
  119MOL0     H15666   7.480   5.076   0.548 -0.1441 -0.8529  0.2122
  119MOL0     H15667   7.572   5.195   0.452  0.5985 -0.8395 -3.2551
  119MOL0     H15668   7.439   4.958   0.317  1.3862  0.1436  0.9212
  119MOL0     H15669   7.551   5.086   0.255 -0.0093  2.6923 -0.4626
  119MOL0     H15670   7.179   5.290   0.421  1.1798  0.2688 -2.7116
  119MOL0     H15671   6.937   5.241   0.444  0.4082  0.9765 -1.3357
  119MOL0     H15672   6.674   4.694   0.495 -0.2292 -1.1052  0.8363
  119MOL0     H15673   6.428   4.633   0.495  0.2423  0.7280  0.8344
  119MOL0     H15674   6.222   4.709   0.544 -3.2576  2.6171  0.3769
  119MOL0     H15675   6.204   4.563   0.432 -0.9815  0.5073  0.2271
  119MOL0     H15676   6.003   4.689   0.338 -0.9062  2.7283 -1.1544
  119MOL0     H15677   6.030   4.811   0.468 -0.3667 -0.8632 -0.1586
  119MOL0     H15678   6.026   4.615   0.620  1.6920  0.4287 -0.9254
  119MOL0     H15679   5.959   4.513   0.494 -0.2985 -0.6541  0.5141
  119MOL0     H15680   5.818   4.778   0.578  0.0049  0.5149  0.2999
  119MOL0     H15681   5.771   4.653   0.454  1.4751 -1.3641 -0.9302
  119MOL0     H15682   5.802   4.613   0.760  4.0213 -0.9720 -0.0340
  119MOL0     H15683   5.783   4.482   0.651  0.7732  0.2339 -0.2087
  119MOL0     H15684   5.583   4.590   0.544 -0.8120  0.5005 -0.3903
  119MOL0     H15685   5.607   4.728   0.651  0.2566  0.5088  1.9687
  119MOL0     H15686   5.547   4.446   0.777 -2.6783 -0.5300  2.2582
  119MOL0     H15687   5.576   4.607   0.851  1.3189 -2.1500  0.7607
  119MOL0     H15688   5.394   4.695   0.827 -1.4689  0.5684 -0.7516
  119MOL0     H15689   5.322   4.532   0.816  2.3417 -2.2045  0.2818
  119MOL0     H15690   6.347   4.917   0.204  0.2147  0.4471 -1.0241
  119MOL0     H15691   6.593   4.992   0.202 -2.1436  1.8990  1.3498
  119MOL0     H15692   7.013   4.856   0.279 -1.3484 -1.0188  2.8304
  119MOL0     H15693   7.257   4.911   0.268 -2.7902 -0.6465 -3.8785
  119MOL0     H15694   8.937   5.319   0.489 -1.0518  1.9939 -1.9799
  119MOL0     H15695   9.192   5.405   0.495  2.7198  0.0798 -0.7623
  119MOL0     H15696   9.601   5.191   0.236  0.6718 -0.0824 -0.3482
  119MOL0     H15697   9.840   5.206   0.218 -1.8209 -0.2770 -1.9192
  119MOL0     H15698  10.067   5.577   0.172  0.8166 -1.5772  0.3943
  119MOL0     H15699  10.033   5.534   0.019  2.1252  3.1166  0.3098
  119MOL0     H15700  10.241   5.393   0.190 -0.0509  1.0869  0.4817
  119MOL0     H15701  10.213   5.352   0.026 -2.3969  1.1037 -0.3970
  119MOL0     H15702  10.298   5.636   0.131 -0.3814 -0.6262  1.6669
  119MOL0     H15703  10.263   5.595  -0.037 -0.0263  2.0106  0.6468
  119MOL0     H15704  10.491   5.499   0.140  0.1012  0.7211  0.6266
  119MOL0     H15705  10.453   5.430  -0.028 -2.3164 -1.6076  1.9975
  119MOL0     H15706  10.645   5.791  -0.130  0.5156 -0.8935  0.7060
  119MOL0     H15707   9.855   5.626   0.164 -0.3968  0.4011 -0.5321
  119MOL0     H15708   9.594   5.634   0.200 -2.2607 -1.1779 -2.9150
  120MOL0     O15709   1.126   2.407   8.727  0.0901  0.7438  0.8262
  120MOL0     C15710   1.121   2.285   8.734  0.1137 -0.4212 -0.1424
  120MOL0     O15711   1.008   2.209   8.708 -0.5977 -0.2409 -0.7825
  120MOL0     C15712   0.890   2.274   8.710 -0.1086  0.3706 -0.7143
  120MOL0     C15713   0.849   2.302   8.844 -0.3985  0.1943  0.3585
  120MOL0     C15714   0.728   2.370   8.860 -0.4149  0.3666  0.0316
  120MOL0     C15715   0.645   2.399   8.762  0.7970  0.2216  1.1871
  120MOL0     O15716   0.515   2.427   8.799 -0.0312  0.1324  0.3503
  120MOL0     C15717   0.447   2.520   8.707 -0.4239 -0.0514  0.3555
  120MOL0     C15718   0.336   2.594   8.777  0.1854 -0.1830  0.4668
  120MOL0     C15719   0.385   2.679   8.894 -0.0414  0.4295 -0.0404
  120MOL0     C15720   0.264   2.750   8.960 -0.1870  0.2687  0.2064
  120MOL0     C15721   0.314   2.820   9.087  0.4442 -0.3080 -0.2218
  120MOL0     C15722   0.204   2.911   9.134  0.5683 -0.6843 -0.0679
  120MOL0     C15723   0.225   2.952   9.288  0.5657 -0.1374 -0.0983
  120MOL0     C15724   0.097   3.019   9.345  0.1182  0.0315  0.1739
  120MOL0     N15725   0.064   3.147   9.276 -0.1815  0.1673  0.8461
  120MOL0     C15726   0.100   3.276   9.310 -0.3163 -0.1437  0.3001
  120MOL0     C15727   0.047   3.361   9.216 -0.7196  0.7343 -0.2866
  120MOL0     C15728   0.078   3.498   9.212 -0.1103 -0.4297 -0.7770
  120MOL0     C15729   0.030   3.573   9.339  0.3658  0.6430  0.5868
  120MOL0     C15730  -0.125   3.594   9.342  0.3163 -0.4093 -0.2973
  120MOL0     C15731  -0.155   3.708   9.433 -0.0662 -0.1180  0.1752
  120MOL0     O15732  -0.293   3.739   9.427  0.4585  0.0746 -0.7168
  120MOL0     C15733  -0.341   3.810   9.315  0.6661  0.3939  0.1843
  120MOL0     C15734  -0.265   3.864   9.206 -0.1756  0.2144 -0.4089
  120MOL0     C15735  -0.328   3.939   9.107  0.5789  0.2649  0.8334
  120MOL0     C15736  -0.471   3.960   9.116 -0.3391  1.5836  1.0665
  120MOL0     C15737  -0.540   4.054   9.025 -0.3927  0.5173 -0.0435
  120MOL0     O15738  -0.669   4.086   9.058  0.1021  0.3667 -0.9203
  120MOL0     C15739  -0.753   4.170   8.995 -0.2292 -0.1007 -0.6896
  120MOL0     C15740  -0.740   4.225   8.866 -0.2815  0.4548 -0.2868
  120MOL0     C15741  -0.846   4.304   8.817  0.1941 -0.5651 -0.0445
  120MOL0     C15742  -0.968   4.324   8.893  0.1121 -0.5986  0.2662
  120MOL0     O15743  -1.061   4.415   8.841  0.1308 -0.6643  0.8800
  120MOL0     C15744  -1.196   4.403   8.871 -0.1680  0.6155 -0.0146
  120MOL0     C15745  -1.264   4.474   8.763  0.1338 -0.7293 -0.3332
  120MOL0     C15746  -1.407   4.510   8.804 -0.2608  0.0402 -0.6469
  120MOL0     C15747  -1.475   4.616   8.720 -0.4105 -0.1530  0.8225
  120MOL0     C15748  -1.598   4.681   8.788 -0.0924  0.3692 -0.0983
  120MOL0     C15749  -1.706   4.562   8.790 -0.5389  0.4997  0.5472
  120MOL0     C15750  -1.840   4.622   8.812 -0.3916  0.3059  0.2464
  120MOL0     C15751  -1.964   4.538   8.783  0.0326  0.9168 -0.2869
  120MOL0    Cl15752  -2.100   4.660   8.807  0.2519 -0.6365  0.5252
  120MOL0     C15753  -0.989   4.258   9.013 -0.5851 -0.1567 -0.1435
  120MOL0     C15754  -0.876   4.187   9.066 -0.1690 -0.2302 -0.0203
  120MOL0     O15755  -0.475   4.107   8.935 -0.4077  0.4003 -0.5456
  120MOL0     C15756  -0.540   3.895   9.215  0.0201  0.3348 -0.6234
  120MOL0     C15757  -0.474   3.803   9.299  0.4021  0.1097  0.2976
  120MOL0     N15758  -0.016   3.273   9.122 -0.6007  1.2266  0.4537
  120MOL0     N15759  -0.006   3.148   9.157  0.6802  0.3915  0.8980
  120MOL0     C15760   0.689   2.391   8.626  0.2732 -0.1081 -0.0829
  120MOL0     C15761   0.813   2.321   8.599  0.2788  0.6753 -0.3656
  120MOL0     C15762   1.242   2.221   8.761 -0.2611  0.0264  0.0785
  120MOL0     C15763   1.243   2.086   8.794 -0.8224  0.3090  0.2641
  120MOL0     C15764   1.361   2.025   8.841  0.7374  0.1300  0.1603
  120MOL0     C15765   1.481   2.096   8.852  0.1136  0.8990 -0.0769
  120MOL0     O15766   1.598   2.047   8.906 -0.2829  0.0457 -0.4129
  120MOL0     C15767   1.637   1.905   8.893  0.2200 -0.4869  0.5871
  120MOL0     C15768   1.789   1.914   8.903  0.2081 -0.5654 -0.1543
  120MOL0     C15769   1.825   1.919   9.054 -0.5789  0.1974  0.4176
  120MOL0     C15770   1.979   1.920   9.073  0.5854  0.4325  0.4635
  120MOL0     C15771   2.024   1.853   9.192 -0.2607  0.8302 -0.2903
  120MOL0     C15772   2.042   1.808   9.298  0.3322  0.2303  0.4292
  120MOL0     C15773   1.477   2.232   8.805 -1.2414  0.8698 -0.3852
  120MOL0     C15774   1.359   2.296   8.767  0.5577  0.4369 -0.2645
  120MOL0     H15775   0.913   2.277   8.928 -0.5743  2.3503  1.1796
  120MOL0     H15776   0.703   2.379   8.966  2.6391 -5.3394  1.6792
  120MOL0     H15777   0.420   2.460   8.620 -0.8946 -0.0171  0.4746
  120MOL0     H15778   0.524   2.589   8.670 -0.8409  1.1484  1.6433
  120MOL0     H15779   0.274   2.513   8.818 -3.6181  2.0233 -0.4359
  120MOL0     H15780   0.278   2.650   8.704 -1.5407 -4.7408 -2.0976
  120MOL0     H15781   0.457   2.749   8.851 -1.1735  0.5036 -1.9692
  120MOL0     H15782   0.435   2.610   8.962 -0.9856  0.5480  0.7982
  120MOL0     H15783   0.223   2.819   8.886  0.5030  0.8645  0.3649
  120MOL0     H15784   0.188   2.682   9.000  1.7993 -1.0152  2.0664
  120MOL0     H15785   0.393   2.890   9.059  0.0418 -0.4577 -1.8251
  120MOL0     H15786   0.338   2.746   9.164 -3.5522 -1.7812 -0.1799
  120MOL0     H15787   0.104   2.873   9.113  0.6603 -0.8793 -0.1521
  120MOL0     H15788   0.207   3.002   9.074 -1.8989 -0.4865  0.0010
  120MOL0     H15789   0.243   2.864   9.350  2.2619 -0.5931 -1.1523
  120MOL0     H15790   0.310   3.020   9.298  0.2332  0.2389  0.1750
  120MOL0     H15791   0.119   3.044   9.449 -0.4497 -2.4478  0.9530
  120MOL0     H15792   0.015   2.947   9.350  0.6052 -0.7783 -2.3521
  120MOL0     H15793   0.162   3.295   9.397 -0.1131 -4.2601  1.2485
  120MOL0     H15794   0.033   3.546   9.124  0.3356  2.1311  0.3005
  120MOL0     H15795   0.186   3.510   9.201  0.0930  1.5632  2.1561
  120MOL0     H15796   0.070   3.675   9.340 -1.8559  1.5718  0.1505
  120MOL0     H15797   0.067   3.524   9.430 -0.0000  1.0597  0.9658
  120MOL0     H15798  -0.154   3.618   9.239 -0.8025  0.0371  0.1089
  120MOL0     H15799  -0.175   3.505   9.382 -2.4228  0.0951 -2.2871
  120MOL0     H15800  -0.092   3.793   9.404  1.5624 -1.2173  0.3843
  120MOL0     H15801  -0.125   3.696   9.538  3.9097  0.6474 -0.7399
  120MOL0     H15802  -0.157   3.851   9.201 -0.0205  1.4304 -0.6012
  120MOL0     H15803  -0.275   3.988   9.026  1.9910 -2.3941  0.0128
  120MOL0     H15804  -0.656   4.191   8.807  1.5005 -0.0507  2.3495
  120MOL0     H15805  -0.839   4.372   8.733 -0.3669  0.2006  0.5123
  120MOL0     H15806  -1.214   4.448   8.969  1.5489  1.3245  0.0157
  120MOL0     H15807  -1.223   4.297   8.873 -0.1781  0.6018 -0.6465
  120MOL0     H15808  -1.250   4.434   8.662 -3.0788  2.0462 -2.1047
  120MOL0     H15809  -1.203   4.564   8.761 -1.0382  0.1134 -3.3429
  120MOL0     H15810  -1.413   4.528   8.912 -3.3456 -4.0719  0.0989
  120MOL0     H15811  -1.458   4.413   8.805  0.4985 -0.3619 -0.0277
  120MOL0     H15812  -1.396   4.688   8.698  1.2718 -1.8918  0.8711
  120MOL0     H15813  -1.506   4.568   8.626  1.1754 -0.4790  0.4389
  120MOL0     H15814  -1.629   4.766   8.728  0.7577 -0.2768 -1.5136
  120MOL0     H15815  -1.594   4.709   8.894 -6.6220  1.4231  0.2831
  120MOL0     H15816  -1.683   4.492   8.870  1.1362  0.0927 -0.2348
  120MOL0     H15817  -1.707   4.504   8.697  2.8263 -0.5551  1.0343
  120MOL0     H15818  -1.836   4.645   8.919  3.3148  0.5236  0.2129
  120MOL0     H15819  -1.847   4.720   8.763  1.1778  0.2166 -0.2166
  120MOL0     H15820  -1.973   4.446   8.842 -0.5587  1.1043 -0.0722
  120MOL0     H15821  -1.956   4.501   8.680 -1.9825  2.2627 -1.0003
  120MOL0     H15822  -1.067   4.299   9.076  0.3810 -0.5208  1.3313
  120MOL0     H15823  -0.891   4.135   9.160 -1.5157  1.4436  0.7389
  120MOL0     H15824  -0.649   3.899   9.221 -0.2213 -1.2173 -2.8236
  120MOL0     H15825  -0.539   3.736   9.354  0.9834 -0.3726  0.4112
  120MOL0     H15826   0.633   2.421   8.538 -1.7342 -2.1552  0.3908
  120MOL0     H15827   0.855   2.301   8.501 -0.0657 -1.1767 -0.1833
  120MOL0     H15828   1.155   2.028   8.767 -1.5676  0.7480  1.6638
  120MOL0     H15829   1.354   1.917   8.852  0.0579  0.0305 -1.0026
  120MOL0     H15830   1.615   1.872   8.791  1.1913  0.8388 -0.0925
  120MOL0     H15831   1.590   1.842   8.969 -0.4977 -0.2334  0.3610
  120MOL0     H15832   1.841   1.831   8.853  2.7701  1.6532 -1.4265
  120MOL0     H15833   1.821   2.003   8.848 -1.7208  1.3335  1.6544
  120MOL0     H15834   1.794   1.826   9.102 -3.8860 -0.6190 -2.8660
  120MOL0     H15835   1.779   2.012   9.088  1.6735  0.3941  3.3052
  120MOL0     H15836   2.032   1.860   8.998  0.8304 -2.6013  2.8732
  120MOL0     H15837   2.031   2.015   9.063  3.6496 -1.3010 -1.6581
  120MOL0     H15838   2.052   1.762   9.394 -1.3055  0.4523  0.7377
  120MOL0     H15839   1.573   2.282   8.814 -0.1639 -1.0147 -0.7417
  120MOL0     H15840   1.366   2.401   8.743  0.9927  0.4402 -0.1391
  121MOL0     O15841  10.187   9.577  11.023 -0.3498  0.1970 -0.6328
  121MOL0     C15842  10.185   9.651  11.122  0.0431  1.1411  0.4444
  121MOL0     O15843  10.074   9.709  11.173 -0.1390 -0.3595  0.0925
  121MOL0     C15844   9.950   9.665  11.131  0.5901 -0.6873  0.4734
  121MOL0     C15845   9.900   9.725  11.005  0.2838  0.6723  0.9943
  121MOL0     C15846   9.770   9.686  10.969 -0.1311 -0.7085  0.5208
  121MOL0     C15847   9.692   9.600  11.046  1.0935 -0.7976  0.7721
  121MOL0     O15848   9.568   9.547  11.010 -0.1804 -0.5697  0.2673
  121MOL0     C15849   9.566   9.482  10.884 -0.1221 -0.6867  0.5310
  121MOL0     C15850   9.431   9.421  10.843 -0.6050 -0.1930 -0.0936
  121MOL0     C15851   9.395   9.319  10.937  0.6101  0.1441  0.4864
  121MOL0     C15852   9.247   9.293  10.941 -0.6000  0.1996 -0.9535
  121MOL0     C15853   9.226   9.174  11.030  0.0852  0.0076  0.5319
  121MOL0     C15854   9.079   9.131  11.027  1.1389 -0.7997  0.2775
  121MOL0     C15855   9.043   9.034  11.140 -0.8150 -1.0104  0.5572
  121MOL0     C15856   9.123   8.905  11.158 -0.3943  0.9173 -0.2680
  121MOL0     N15857   9.087   8.807  11.046  0.6663 -0.3960 -0.1966
  121MOL0     C15858   8.961   8.741  11.052 -1.3268  0.2583 -0.2931
  121MOL0     C15859   8.973   8.655  10.947  1.0566  0.3253  0.2457
  121MOL0     C15860   8.860   8.576  10.895  0.0492 -0.4810 -0.2229
  121MOL0     C15861   8.737   8.656  10.839 -0.6427 -0.9032 -0.6247
  121MOL0     C15862   8.632   8.585  10.763  0.7664 -0.6297 -0.4982
  121MOL0     C15863   8.541   8.680  10.677  0.1952  0.3803 -0.5468
  121MOL0     O15864   8.472   8.771  10.763  0.0118 -0.5988 -0.7923
  121MOL0     C15865   8.346   8.746  10.792 -0.5123  0.4460 -0.1780
  121MOL0     C15866   8.283   8.620  10.781  0.0789  0.3811  0.3545
  121MOL0     C15867   8.140   8.605  10.803  0.9447 -0.1413  0.5862
  121MOL0     C15868   8.068   8.726  10.834 -0.1637  0.0346 -0.7189
  121MOL0     C15869   7.923   8.717  10.841 -1.0480 -0.0479  0.1077
  121MOL0     O15870   7.863   8.837  10.842 -0.5760  0.4791  0.5165
  121MOL0     C15871   7.730   8.859  10.861  0.3166  0.1499 -0.2975
  121MOL0     C15872   7.690   8.993  10.848  0.1090 -0.4904  0.1171
  121MOL0     C15873   7.555   9.037  10.858 -0.3588 -0.1377  0.3492
  121MOL0     C15874   7.452   8.937  10.871  0.0820  0.6264 -1.0776
  121MOL0     O15875   7.320   8.954  10.897 -0.1976  0.1694 -0.1267
  121MOL0     C15876   7.265   9.087  10.910 -0.1033  0.7276 -0.2603
  121MOL0     C15877   7.126   9.081  10.955 -0.1855 -0.2262 -0.3956
  121MOL0     C15878   7.033   8.970  10.893 -0.1791 -0.2612  0.1615
  121MOL0     C15879   6.913   8.929  10.981  0.5438  0.0908  0.0428
  121MOL0     C15880   6.842   8.808  10.928  0.5647 -0.0280  0.0072
  121MOL0     C15881   6.718   8.842  10.842  0.5523 -0.7499  0.1054
  121MOL0     C15882   6.661   8.717  10.766 -1.4713 -0.3758 -0.4347
  121MOL0     C15883   6.551   8.735  10.660 -0.0915 -0.0438  0.0834
  121MOL0    Cl15884   6.412   8.843  10.719  0.2343 -0.0285 -0.3566
  121MOL0     C15885   7.494   8.802  10.867 -0.0858 -0.7712  0.5506
  121MOL0     C15886   7.632   8.765  10.865  0.0910 -0.3661  0.5998
  121MOL0     O15887   7.865   8.613  10.828 -0.1147  0.4200  0.6602
  121MOL0     C15888   8.138   8.842  10.849  0.8233 -0.6493 -0.3435
  121MOL0     C15889   8.275   8.857  10.844 -1.4035  0.4271  1.0977
  121MOL0     N15890   9.100   8.669  10.896 -0.0390  0.1463 -0.2990
  121MOL0     N15891   9.168   8.748  10.958 -0.0093 -0.5285  0.0385
  121MOL0     C15892   9.738   9.567  11.169 -0.6547  1.4616 -0.9412
  121MOL0     C15893   9.872   9.592  11.210 -0.5314  0.4573 -0.5209
  121MOL0     C15894  10.318   9.711  11.157 -0.1332  0.4711 -0.2002
  121MOL0     C15895  10.432   9.687  11.083  0.6483 -0.1759 -1.3193
  121MOL0     C15896  10.553   9.740  11.116 -0.6512 -0.8458 -0.7159
  121MOL0     C15897  10.569   9.841  11.210 -0.3246 -0.1751 -0.1036
  121MOL0     O15898  10.693   9.905  11.226  0.0811  0.4319  0.4835
  121MOL0     C15899  10.694  10.036  11.293 -0.0097 -0.7964  0.3814
  121MOL0     C15900  10.823  10.104  11.264  0.4404 -0.2458 -0.2913
  121MOL0     C15901  10.892  10.108  11.396  0.3652 -0.3966 -0.0693
  121MOL0     C15902  11.049  10.137  11.381 -0.2027 -0.7643 -0.1441
  121MOL0     C15903  11.053  10.280  11.354 -0.2204  0.8382 -0.0853
  121MOL0     C15904  11.069  10.395  11.316  1.3152 -0.6278  0.2233
  121MOL0     C15905  10.463   9.865  11.296 -0.5176  0.6506  0.0074
  121MOL0     C15906  10.330   9.806  11.263 -0.7331  0.0994 -0.3592
  121MOL0     H15907   9.966   9.782  10.941  1.0738 -0.7058  0.5238
  121MOL0     H15908   9.733   9.733  10.879 -0.2222 -2.1252 -0.2064
  121MOL0     H15909   9.649   9.411  10.882  0.0497 -0.7553  4.1323
  121MOL0     H15910   9.591   9.550  10.803 -3.6191 -1.3770 -1.3571
  121MOL0     H15911   9.424   9.381  10.742  1.1505 -3.9185  1.0536
  121MOL0     H15912   9.358   9.501  10.838  0.0468  0.3090 -2.8876
  121MOL0     H15913   9.426   9.341  11.040 -1.2962 -2.4705  1.7479
  121MOL0     H15914   9.453   9.233  10.902  0.2072  0.7232 -1.7568
  121MOL0     H15915   9.204   9.379  10.994 -0.9888 -0.7964  0.3860
  121MOL0     H15916   9.200   9.276  10.844 -1.4683  1.2114 -0.7246
  121MOL0     H15917   9.262   9.190  11.132 -0.5246 -0.0399  0.7610
  121MOL0     H15918   9.280   9.084  10.998  3.4616  1.7544  0.8840
  121MOL0     H15919   9.062   9.083  10.930 -0.9165  0.8752 -0.2699
  121MOL0     H15920   9.023   9.225  11.029  2.0788 -0.1710 -1.2505
  121MOL0     H15921   9.059   9.090  11.232 -1.6654  0.1215  0.0466
  121MOL0     H15922   8.935   9.016  11.141 -0.7423 -1.4233  1.3495
  121MOL0     H15923   9.105   8.876  11.262  3.5902  0.5523  0.4927
  121MOL0     H15924   9.229   8.931  11.166  0.4543 -2.2967  0.8435
  121MOL0     H15925   8.880   8.762  11.121 -0.3576  4.0478 -0.0689
  121MOL0     H15926   8.821   8.536  10.989 -1.3072  4.4607  1.6019
  121MOL0     H15927   8.891   8.504  10.819  2.0209  0.3861 -0.2950
  121MOL0     H15928   8.776   8.740  10.782  0.9612 -1.8973 -1.0362
  121MOL0     H15929   8.694   8.703  10.929 -1.5936  0.3011 -1.6734
  121MOL0     H15930   8.671   8.512  10.692  1.0739  2.5161 -3.8827
  121MOL0     H15931   8.567   8.531  10.833 -0.5713 -0.1923 -1.3673
  121MOL0     H15932   8.479   8.608  10.623 -2.3273  1.5221  0.7006
  121MOL0     H15933   8.611   8.717  10.601 -1.4251  0.0770 -2.2563
  121MOL0     H15934   8.333   8.528  10.751  1.2671  1.1295 -0.0568
  121MOL0     H15935   8.087   8.510  10.798  0.3687  0.2264 -0.8544
  121MOL0     H15936   7.766   9.069  10.832  0.1264 -0.5332 -0.0035
  121MOL0     H15937   7.523   9.140  10.869 -2.2227 -0.8051  1.6332
  121MOL0     H15938   7.275   9.133  10.811  1.1105 -0.5641 -0.7824
  121MOL0     H15939   7.320   9.143  10.986  0.2199 -1.2728  1.0533
  121MOL0     H15940   7.086   9.183  10.952 -0.5408 -0.3624 -0.3609
  121MOL0     H15941   7.119   9.064  11.063 -2.9972 -0.2806 -0.5207
  121MOL0     H15942   7.095   8.881  10.890  0.5048  0.1005  1.9300
  121MOL0     H15943   6.996   9.002  10.796 -2.8121  1.0523  1.4744
  121MOL0     H15944   6.938   8.905  11.085  0.6525  2.8566  0.7632
  121MOL0     H15945   6.838   9.006  11.005 -1.0663 -1.1551 -0.8113
  121MOL0     H15946   6.808   8.742  11.008  2.5844 -0.6213  0.4209
  121MOL0     H15947   6.915   8.752  10.869  2.0829  0.1395  1.6384
  121MOL0     H15948   6.737   8.928  10.776  0.7555  0.3218  1.4963
  121MOL0     H15949   6.642   8.868  10.916  0.2763 -2.1530  0.3236
  121MOL0     H15950   6.745   8.674  10.710  0.8571  2.9344  0.1998
  121MOL0     H15951   6.626   8.644  10.840  0.0872 -1.4680 -0.7177
  121MOL0     H15952   6.499   8.640  10.648 -1.8157  0.7293  1.0762
  121MOL0     H15953   6.594   8.768  10.565  1.3598 -0.5259  0.5454
  121MOL0     H15954   7.430   8.714  10.863  0.8803 -1.4552 -1.9741
  121MOL0     H15955   7.654   8.659  10.871  0.1606 -0.3070  1.5380
  121MOL0     H15956   8.091   8.939  10.859 -0.6373 -1.3106 -0.6326
  121MOL0     H15957   8.321   8.954  10.859 -0.3295 -0.2584  2.4211
  121MOL0     H15958   9.676   9.508  11.236  0.7694 -0.6086 -1.3593
  121MOL0     H15959   9.902   9.574  11.313  0.3336  0.7456 -0.7115
  121MOL0     H15960  10.437   9.632  10.990  3.9170  1.1607 -2.0940
  121MOL0     H15961  10.640   9.709  11.059 -0.7720 -2.8914  0.1209
  121MOL0     H15962  10.669  10.024  11.398 -0.8599 -0.7072  0.1960
  121MOL0     H15963  10.623  10.106  11.248  0.2959 -1.0285 -0.4839
  121MOL0     H15964  10.889  10.056  11.191 -0.2144 -0.2685 -0.8769
  121MOL0     H15965  10.808  10.205  11.226  1.7024  0.5293  1.1551
  121MOL0     H15966  10.892  10.008  11.440  0.7384  0.3929  1.8241
  121MOL0     H15967  10.841  10.172  11.468 -0.0706  0.3492 -1.0256
  121MOL0     H15968  11.106  10.113  11.471 -0.3532  2.4958  0.9397
  121MOL0     H15969  11.088  10.080  11.296 -1.6756  0.2957 -1.5908
  121MOL0     H15970  11.083  10.496  11.282 -3.2792 -0.1345 -0.9833
  121MOL0     H15971  10.467   9.923  11.387 -3.9262  0.8724  0.1535
  121MOL0     H15972  10.249   9.825  11.333 -1.4467 -1.7495 -0.6269
  122MOL0     O15973   6.470   4.269   7.115 -0.4026 -1.0880  0.0212
  122MOL0     C15974   6.436   4.317   7.226  0.3352 -0.7850  0.4937
  122MOL0     O15975   6.514   4.390   7.313 -0.1192  0.2791 -0.2827
  122MOL0     C15976   6.647   4.393   7.280  0.0546  0.1734 -0.7431
  122MOL0     C15977   6.724   4.272   7.276 -0.1149  0.3634  0.0088
  122MOL0     C15978   6.856   4.282   7.241 -0.2175 -1.1452 -0.0961
  122MOL0     C15979   6.916   4.407   7.217 -0.2753 -0.0594 -0.2953
  122MOL0     O15980   7.050   4.397   7.195  0.1336  0.2593  0.0940
  122MOL0     C15981   7.134   4.501   7.249  0.2353  0.0946  0.3912
  122MOL0     C15982   7.275   4.445   7.241 -0.8443  0.3066  0.4442
  122MOL0     C15983   7.382   4.542   7.305 -0.2826  0.7566  0.4689
  122MOL0     C15984   7.414   4.669   7.222  0.3155  0.5258  0.8342
  122MOL0     C15985   7.538   4.734   7.279 -0.4227  0.3140 -0.1629
  122MOL0     C15986   7.518   4.830   7.406  0.5704  0.0273  0.6137
  122MOL0     C15987   7.429   4.951   7.372  0.0560 -0.4602 -0.1977
  122MOL0     C15988   7.470   5.069   7.466  0.8458 -0.6168  0.4423
  122MOL0     N15989   7.401   5.195   7.413  0.0909 -0.2706  0.3732
  122MOL0     C15990   7.466   5.312   7.374 -0.5635  0.6257 -1.3926
  122MOL0     C15991   7.374   5.400   7.330  0.9452  0.3518  0.5245
  122MOL0     C15992   7.393   5.530   7.274 -0.4044  0.2196  0.2342
  122MOL0     C15993   7.447   5.520   7.129 -0.1865 -0.0183 -0.2983
  122MOL0     C15994   7.468   5.661   7.065  0.6052 -0.3508 -0.2614
  122MOL0     C15995   7.568   5.657   6.946 -0.0566 -0.0498  0.1475
  122MOL0     O15996   7.531   5.557   6.851 -0.0236 -0.2504 -0.4321
  122MOL0     C15997   7.624   5.502   6.771 -0.2790  0.4082  0.5988
  122MOL0     C15998   7.754   5.552   6.746  0.6796  0.3251 -0.7002
  122MOL0     C15999   7.840   5.498   6.655  0.8543 -0.2069 -0.0104
  122MOL0     C16000   7.790   5.389   6.574  0.1056  0.0481 -0.1082
  122MOL0     C16001   7.876   5.315   6.473 -0.6468 -0.5162  0.4445
  122MOL0     O16002   7.980   5.385   6.415 -0.0584 -0.1030 -0.8685
  122MOL0     C16003   8.054   5.349   6.305  0.3743 -0.0299  0.0861
  122MOL0     C16004   8.190   5.383   6.313 -0.3852  0.4228 -0.0193
  122MOL0     C16005   8.274   5.349   6.209 -0.9562 -0.4560 -0.5877
  122MOL0     C16006   8.230   5.271   6.099  0.1415  0.2337 -0.4909
  122MOL0     O16007   8.325   5.263   6.001 -1.1806  0.5347 -0.0989
  122MOL0     C16008   8.286   5.191   5.876  0.0211  0.4867  0.3216
  122MOL0     C16009   8.407   5.196   5.781 -0.2955  0.0950  0.4348
  122MOL0     C16010   8.353   5.154   5.636  0.5262  0.2183  0.0624
  122MOL0     C16011   8.333   4.995   5.630  0.2907 -0.2719  0.6408
  122MOL0     C16012   8.279   4.950   5.487 -0.3573 -0.3657 -0.7024
  122MOL0     C16013   8.289   4.800   5.472  0.2026 -0.5894 -0.3362
  122MOL0     C16014   8.437   4.758   5.478 -0.4766 -0.3976 -0.0568
  122MOL0     C16015   8.456   4.615   5.433  0.3056 -0.0455  0.2130
  122MOL0    Cl16016   8.412   4.600   5.260 -0.0356 -0.2853 -0.0495
  122MOL0     C16017   8.092   5.232   6.095 -0.1858  0.3828  0.0589
  122MOL0     C16018   8.005   5.277   6.197 -0.5994  0.6594 -0.2004
  122MOL0     O16019   7.825   5.208   6.432  0.0461  0.5721 -0.7497
  122MOL0     C16020   7.662   5.337   6.593 -0.5232  0.3327 -1.2450
  122MOL0     C16021   7.576   5.401   6.689  0.0854  0.7119 -0.2293
  122MOL0     N16022   7.254   5.342   7.347  0.0311 -0.3646 -0.4599
  122MOL0     N16023   7.271   5.222   7.407 -0.3530 -1.4335  0.1161
  122MOL0     C16024   6.842   4.525   7.217  0.7280 -0.5324  0.2415
  122MOL0     C16025   6.709   4.515   7.252  0.3974 -0.4899  0.0377
  122MOL0     C16026   6.289   4.315   7.262  0.2705  0.0310 -0.1410
  122MOL0     C16027   6.242   4.364   7.388 -0.1380 -0.3328 -0.4671
  122MOL0     C16028   6.102   4.354   7.417  0.0493 -0.5467  0.5270
  122MOL0     C16029   6.018   4.282   7.331  1.2451  0.2171 -0.1470
  122MOL0     O16030   5.888   4.277   7.374 -0.3522 -0.2085 -0.2921
  122MOL0     C16031   5.798   4.231   7.272  0.5363 -0.9791  0.4425
  122MOL0     C16032   5.676   4.317   7.310 -0.5539 -0.1273 -0.9905
  122MOL0     C16033   5.573   4.290   7.206 -0.3673 -0.8682  0.5297
  122MOL0     C16034   5.454   4.392   7.222  0.2825  0.8150  0.2890
  122MOL0     C16035   5.346   4.344   7.144  0.6286 -0.0941 -0.4398
  122MOL0     C16036   5.252   4.319   7.074  0.2939  0.0635 -0.7275
  122MOL0     C16037   6.065   4.227   7.215  0.3264  0.0087  0.2788
  122MOL0     C16038   6.195   4.258   7.170 -0.2066 -0.2475  0.1515
  122MOL0     H16039   6.686   4.173   7.298  0.0542  0.0135 -1.2021
  122MOL0     H16040   6.926   4.199   7.234 -0.1663 -1.3258  1.9665
  122MOL0     H16041   7.112   4.535   7.350  0.7646 -1.0145  0.9058
  122MOL0     H16042   7.120   4.576   7.171 -1.9071 -3.2472 -2.7629
  122MOL0     H16043   7.289   4.432   7.133  1.7312 -0.4627  0.8006
  122MOL0     H16044   7.289   4.346   7.286 -1.9676 -1.1287 -2.1388
  122MOL0     H16045   7.474   4.486   7.323  1.5015  3.0513 -0.9764
  122MOL0     H16046   7.358   4.576   7.406 -1.7025  1.0985  0.0434
  122MOL0     H16047   7.432   4.638   7.119 -4.3659 -0.6169  0.1348
  122MOL0     H16048   7.330   4.739   7.230  0.8331  0.9391  3.5793
  122MOL0     H16049   7.591   4.798   7.207  0.7596  2.6150  2.5068
  122MOL0     H16050   7.608   4.654   7.302 -1.7539 -0.4165  1.6043
  122MOL0     H16051   7.616   4.871   7.434  2.5668 -2.4025 -2.1839
  122MOL0     H16052   7.489   4.779   7.498 -4.7473  0.8241 -0.2932
  122MOL0     H16053   7.447   4.963   7.265  0.0797  1.3939 -0.0147
  122MOL0     H16054   7.324   4.929   7.392  0.4747 -1.4874  1.0338
  122MOL0     H16055   7.576   5.080   7.487  0.5701 -1.4162  2.5108
  122MOL0     H16056   7.418   5.052   7.561  0.2881  3.2859  0.9897
  122MOL0     H16057   7.571   5.339   7.380  0.1978 -2.1684 -0.4434
  122MOL0     H16058   7.468   5.589   7.328  1.1306  0.3935 -1.9578
  122MOL0     H16059   7.304   5.594   7.267  1.2854  2.8803  1.3590
  122MOL0     H16060   7.391   5.449   7.066  3.0034 -2.3745 -0.7524
  122MOL0     H16061   7.547   5.476   7.134 -0.5447 -0.8760 -0.3818
  122MOL0     H16062   7.373   5.704   7.034  0.4741  3.1409  3.9373
  122MOL0     H16063   7.502   5.744   7.129 -1.6806 -0.2740  0.9390
  122MOL0     H16064   7.662   5.637   6.998 -1.6083 -2.3102  2.3583
  122MOL0     H16065   7.571   5.760   6.910 -3.4574  0.8298  1.9058
  122MOL0     H16066   7.780   5.641   6.803 -0.5018 -1.3379  2.7216
  122MOL0     H16067   7.939   5.540   6.639 -0.6564  3.6894 -0.2413
  122MOL0     H16068   8.223   5.451   6.391 -0.9328  0.8866 -0.1878
  122MOL0     H16069   8.379   5.377   6.205 -0.9838 -0.4213 -3.6886
  122MOL0     H16070   8.201   5.240   5.828 -0.7202 -1.4595 -0.4362
  122MOL0     H16071   8.263   5.086   5.891  1.7581  0.2788  1.8965
  122MOL0     H16072   8.494   5.134   5.807  1.0545  1.5043 -0.5472
  122MOL0     H16073   8.443   5.299   5.781  2.5027 -0.7905  0.3179
  122MOL0     H16074   8.426   5.180   5.559  1.3760  1.0861  1.1293
  122MOL0     H16075   8.258   5.206   5.620  1.0849  1.8731  1.7561
  122MOL0     H16076   8.432   4.962   5.658  2.4700  2.3439 -2.9910
  122MOL0     H16077   8.268   4.965   5.712  1.1353 -1.4940  0.8853
  122MOL0     H16078   8.347   4.992   5.413  1.5095  0.9178  1.6069
  122MOL0     H16079   8.179   4.991   5.471 -0.2061 -0.6622 -2.6948
  122MOL0     H16080   8.243   4.758   5.382 -0.3146 -1.3832  0.2811
  122MOL0     H16081   8.238   4.753   5.557 -2.5669 -0.0968 -1.5922
  122MOL0     H16082   8.498   4.813   5.406 -0.5275  0.3688  0.4763
  122MOL0     H16083   8.480   4.759   5.579 -0.4813 -1.8600 -0.0173
  122MOL0     H16084   8.409   4.545   5.503  0.3817 -0.4983 -0.1836
  122MOL0     H16085   8.561   4.587   5.433  0.8056  1.7084  0.4448
  122MOL0     H16086   8.055   5.180   6.007 -0.8503 -2.2457  1.7801
  122MOL0     H16087   7.897   5.264   6.189 -0.6060  1.0387 -0.8464
  122MOL0     H16088   7.624   5.259   6.528 -0.7271 -2.3566  1.8173
  122MOL0     H16089   7.475   5.368   6.709  0.2090  1.4483  1.8833
  122MOL0     H16090   6.881   4.625   7.204  0.1841 -0.5680 -2.2003
  122MOL0     H16091   6.647   4.604   7.244  2.2145  0.8610  0.2466
  122MOL0     H16092   6.309   4.400   7.465  1.9731 -1.7354 -1.5433
  122MOL0     H16093   6.063   4.381   7.514  2.1177  0.9862  1.0063
  122MOL0     H16094   5.783   4.123   7.279  0.2959 -1.0054 -0.3995
  122MOL0     H16095   5.822   4.254   7.168  2.4971  0.1046  1.0894
  122MOL0     H16096   5.640   4.297   7.412  0.4661  0.5454 -0.4766
  122MOL0     H16097   5.709   4.421   7.313 -2.3401  0.4544  1.0478
  122MOL0     H16098   5.544   4.185   7.219  3.8510 -2.3341 -0.3817
  122MOL0     H16099   5.602   4.295   7.101  0.8124 -2.9328  0.7138
  122MOL0     H16100   5.430   4.400   7.328 -0.5541  2.2646  0.0203
  122MOL0     H16101   5.470   4.496   7.193  1.1591  1.1033  1.7386
  122MOL0     H16102   5.178   4.282   7.006  2.3919  0.8788 -3.6710
  122MOL0     H16103   5.995   4.167   7.157 -0.2950  0.8865  0.1129
  122MOL0     H16104   6.232   4.229   7.073  1.7828  0.1315  0.7282
  123MOL0     O16105   0.095   9.593   9.053 -0.2168 -0.0632  0.9449
  123MOL0     C16106   0.115   9.478   9.024 -0.9285  0.1885 -0.0050
  123MOL0     O16107   0.023   9.373   9.037  0.0044 -0.4782 -0.7910
  123MOL0     C16108  -0.107   9.393   9.077 -0.7689  0.0893  1.0769
  123MOL0     C16109  -0.187   9.499   9.030  0.1917  0.0053 -0.5741
  123MOL0     C16110  -0.317   9.512   9.059 -0.8158  0.4678  0.7363
  123MOL0     C16111  -0.387   9.410   9.129  0.0315  0.4313 -0.3479
  123MOL0     O16112  -0.522   9.423   9.155  0.2823 -0.5976  0.1842
  123MOL0     C16113  -0.591   9.334   9.244 -0.0737 -0.2986  0.2345
  123MOL0     C16114  -0.732   9.374   9.238  0.3212 -0.2969  0.7563
  123MOL0     C16115  -0.751   9.511   9.306  0.6639 -0.5150  0.0291
  123MOL0     C16116  -0.897   9.570   9.300 -0.0476 -0.1139  1.3694
  123MOL0     C16117  -0.932   9.622   9.155  0.8039  0.9869  0.1882
  123MOL0     C16118  -1.056   9.716   9.148  0.3073 -0.5038 -0.3174
  123MOL0     C16119  -1.179   9.646   9.205 -0.1710 -0.4811  0.1743
  123MOL0     C16120  -1.299   9.671   9.124  0.7002  0.0662 -0.0991
  123MOL0     N16121  -1.411   9.599   9.188  0.0232  0.3498  0.2974
  123MOL0     C16122  -1.449   9.638   9.317 -0.2211 -0.5671  0.6371
  123MOL0     C16123  -1.535   9.536   9.341  0.0260 -0.3433 -0.6668
  123MOL0     C16124  -1.615   9.514   9.464  1.0205 -0.3354 -0.3638
  123MOL0     C16125  -1.772   9.550   9.434  0.2268 -0.1884  0.3680
  123MOL0     C16126  -1.783   9.699   9.389 -0.1542 -0.5617  0.3357
  123MOL0     C16127  -1.932   9.731   9.340 -0.2491 -0.7488 -0.1712
  123MOL0     O16128  -1.959   9.874   9.336  0.1874  0.1112 -0.3424
  123MOL0     C16129  -2.091   9.915   9.334  0.6302  0.8707  0.0714
  123MOL0     C16130  -2.200   9.858   9.269 -0.7864 -0.2445  0.8800
  123MOL0     C16131  -2.329   9.916   9.277  0.0640  0.4776  0.5171
  123MOL0     C16132  -2.351  10.037   9.348  0.0887  0.1672  0.7257
  123MOL0     C16133  -2.474  10.118   9.326 -0.9961  0.5821 -0.1343
  123MOL0     O16134  -2.483  10.236   9.378  0.8495  0.3047 -0.9646
  123MOL0     C16135  -2.605  10.296   9.387 -0.4991  0.9852 -0.1064
  123MOL0     C16136  -2.690  10.323   9.278  0.0060  0.5851 -0.3331
  123MOL0     C16137  -2.805  10.396   9.305  0.3241  0.3810  0.7896
  123MOL0     C16138  -2.842  10.428   9.439 -0.2691  0.3294  1.0154
  123MOL0     O16139  -2.948  10.508   9.470  0.4965 -0.7617 -0.8007
  123MOL0     C16140  -3.076  10.444   9.487  0.4912  0.9096 -0.4889
  123MOL0     C16141  -3.084  10.365   9.625 -0.3061  0.2292 -0.4751
  123MOL0     C16142  -3.220  10.319   9.664  0.5680  0.1817  0.7512
  123MOL0     C16143  -3.300  10.246   9.555  0.2042  0.8382 -0.6485
  123MOL0     C16144  -3.454  10.256   9.567  0.4976 -0.0595 -0.2945
  123MOL0     C16145  -3.500  10.185   9.696  0.2893  0.4263 -0.1071
  123MOL0     C16146  -3.651  10.187   9.724  0.7469 -0.1979 -0.5416
  123MOL0     C16147  -3.752  10.131   9.629 -0.0773  0.4444  0.2123
  123MOL0    Cl16148  -3.784  10.252   9.496 -0.0463  0.3682  0.2357
  123MOL0     C16149  -2.750  10.414   9.532 -1.0378  0.7422 -0.7171
  123MOL0     C16150  -2.630  10.347   9.510 -0.7876  0.2743  1.7652
  123MOL0     O16151  -2.553  10.066   9.252 -0.4728 -0.2066  0.3240
  123MOL0     C16152  -2.238  10.084   9.432 -0.0931 -0.4526  0.1171
  123MOL0     C16153  -2.114  10.020   9.424  0.8099  0.2948 -0.6968
  123MOL0     N16154  -1.564   9.466   9.228 -0.4057 -0.2926 -0.9554
  123MOL0     N16155  -1.495   9.508   9.134 -0.4508  0.4037  0.5350
  123MOL0     C16156  -0.306   9.309   9.184 -0.5218  0.0221  0.9408
  123MOL0     C16157  -0.172   9.293   9.155  0.4030  1.1008 -0.2716
  123MOL0     C16158   0.250   9.436   8.984 -0.2900 -0.2293 -0.1864
  123MOL0     C16159   0.275   9.310   8.936  0.1004 -0.0298  0.1348
  123MOL0     C16160   0.400   9.267   8.908  0.0887 -0.3584  0.6357
  123MOL0     C16161   0.514   9.348   8.915 -0.5491  0.0017  0.7243
  123MOL0     O16162   0.640   9.286   8.897  0.5077 -0.2965 -0.5092
  123MOL0     C16163   0.741   9.364   8.840 -0.2917 -0.6426  0.1416
  123MOL0     C16164   0.745   9.337   8.685  0.0262 -0.3750 -0.2160
  123MOL0     C16165   0.854   9.426   8.630  0.1810  0.0745  0.7050
  123MOL0     C16166   0.810   9.520   8.516 -0.5210  0.2970 -0.0907
  123MOL0     C16167   0.917   9.606   8.464 -1.3868  0.1120  0.1688
  123MOL0     C16168   0.999   9.689   8.422 -1.3503  0.0490 -0.3367
  123MOL0     C16169   0.487   9.471   8.956  0.1765 -0.8186 -0.5440
  123MOL0     C16170   0.359   9.519   9.007 -0.4205  0.7946  0.2397
  123MOL0     H16171  -0.157   9.579   8.963 -2.7722 -0.4302 -2.6178
  123MOL0     H16172  -0.371   9.593   9.010 -4.4265 -1.2202  1.6207
  123MOL0     H16173  -0.545   9.343   9.343 -0.3320 -1.1141  0.4392
  123MOL0     H16174  -0.582   9.228   9.220  1.6030  0.4005 -2.7669
  123MOL0     H16175  -0.787   9.293   9.286  1.5076 -2.7608 -1.7638
  123MOL0     H16176  -0.781   9.368   9.141  0.5012 -0.3711  0.6681
  123MOL0     H16177  -0.681   9.588   9.272  0.7317 -0.3027  0.6428
  123MOL0     H16178  -0.736   9.490   9.412  1.8838  3.7292  0.8640
  123MOL0     H16179  -0.971   9.501   9.340 -1.0314  1.3559  2.1789
  123MOL0     H16180  -0.902   9.650   9.375  1.2966 -1.4653  2.9814
  123MOL0     H16181  -0.953   9.536   9.090  2.4962  1.0105 -0.4322
  123MOL0     H16182  -0.851   9.683   9.116 -0.0192  1.5844 -0.6406
  123MOL0     H16183  -1.063   9.733   9.040  1.2348 -2.5965 -0.7598
  123MOL0     H16184  -1.040   9.809   9.203  1.2865  1.4401 -3.5703
  123MOL0     H16185  -1.169   9.538   9.222 -1.2916 -0.5511  0.4618
  123MOL0     H16186  -1.178   9.693   9.303  1.6015  2.3842 -1.0948
  123MOL0     H16187  -1.263   9.642   9.025  2.8087 -0.8030  0.8422
  123MOL0     H16188  -1.317   9.779   9.119 -0.4069  0.1080  2.8609
  123MOL0     H16189  -1.403   9.714   9.380 -1.2772  0.4747  0.1687
  123MOL0     H16190  -1.569   9.580   9.538  3.3558 -2.4741  0.2357
  123MOL0     H16191  -1.602   9.414   9.508 -0.5868 -0.6162 -0.4655
  123MOL0     H16192  -1.837   9.523   9.518  0.9331 -3.5234 -0.0395
  123MOL0     H16193  -1.792   9.485   9.348 -2.5550  0.1969  0.6132
  123MOL0     H16194  -1.751   9.759   9.474  0.9566  0.9769 -1.1120
  123MOL0     H16195  -1.716   9.725   9.307 -1.1127  2.6935  0.4414
  123MOL0     H16196  -2.003   9.688   9.411 -1.0780  1.4005  0.3754
  123MOL0     H16197  -1.955   9.682   9.245  0.2022 -1.4351  0.0579
  123MOL0     H16198  -2.177   9.782   9.196 -3.3200 -1.3231  1.0782
  123MOL0     H16199  -2.397   9.871   9.205 -0.0672  0.8888  0.3804
  123MOL0     H16200  -2.648  10.292   9.183  2.7887  0.5456  0.8130
  123MOL0     H16201  -2.855  10.438   9.218  2.3873  3.4106  0.9007
  123MOL0     H16202  -3.084  10.375   9.402  3.0714 -1.3503  0.9460
  123MOL0     H16203  -3.158  10.517   9.486 -0.9524 -0.6379 -2.0953
  123MOL0     H16204  -3.051  10.431   9.706  1.8578  2.7199 -3.1766
  123MOL0     H16205  -3.022  10.275   9.625 -1.8781 -0.9574  1.4603
  123MOL0     H16206  -3.284  10.403   9.692 -0.7700 -0.9298  1.1057
  123MOL0     H16207  -3.207  10.255   9.751 -1.1484 -0.2765  0.7009
  123MOL0     H16208  -3.267  10.258   9.451 -0.7366 -1.0524 -1.2029
  123MOL0     H16209  -3.278  10.140   9.571  0.9152  1.0414 -0.2341
  123MOL0     H16210  -3.502  10.208   9.482 -0.2968 -0.6578  0.4685
  123MOL0     H16211  -3.487  10.360   9.563  3.2020  1.0058  2.0284
  123MOL0     H16212  -3.438  10.221   9.778  1.2490 -1.0113 -0.1616
  123MOL0     H16213  -3.459  10.084   9.686  2.7614  1.0082  2.8350
  123MOL0     H16214  -3.651  10.136   9.821  1.4749  2.1557  0.7957
  123MOL0     H16215  -3.673  10.290   9.754 -0.6129 -0.2668 -1.2611
  123MOL0     H16216  -3.841  10.113   9.691 -3.3139  1.8075 -3.6015
  123MOL0     H16217  -3.713  10.036   9.593  2.8870  1.9202 -0.7516
  123MOL0     H16218  -2.774  10.445   9.633 -1.1912 -1.1718 -0.1379
  123MOL0     H16219  -2.554  10.339   9.587  0.5833  0.8437  0.5153
  123MOL0     H16220  -2.258  10.175   9.489 -1.2684 -0.8470  0.3583
  123MOL0     H16221  -2.036  10.063   9.486  1.5493 -0.3393 -1.1650
  123MOL0     H16222  -0.349   9.231   9.245  0.8324 -1.1729  0.4269
  123MOL0     H16223  -0.116   9.218   9.209 -0.8362 -0.4608 -1.0729
  123MOL0     H16224   0.192   9.241   8.921  0.0718 -0.6606  2.6780
  123MOL0     H16225   0.415   9.166   8.872 -2.3420 -1.3469  2.1549
  123MOL0     H16226   0.837   9.329   8.880 -1.2986 -1.2465  2.1572
  123MOL0     H16227   0.740   9.472   8.856  1.7549 -0.1790 -2.2316
  123MOL0     H16228   0.763   9.236   8.647  1.3577 -0.3578  0.3243
  123MOL0     H16229   0.647   9.358   8.641  0.8420  0.9578 -1.4858
  123MOL0     H16230   0.937   9.367   8.590  0.6340  2.1133 -1.6031
  123MOL0     H16231   0.902   9.485   8.709  3.5259 -1.0889 -0.2640
  123MOL0     H16232   0.766   9.450   8.445 -0.9923 -1.0045  1.4020
  123MOL0     H16233   0.740   9.594   8.555  0.9593  0.5503  2.3145
  123MOL0     H16234   1.070   9.764   8.392  1.8859 -1.4923  2.7424
  123MOL0     H16235   0.571   9.536   8.977 -0.4514  0.6164 -2.1724
  123MOL0     H16236   0.345   9.620   9.043 -0.6879  0.8338  0.0296
  124MOL0     O16237   8.666   0.773   0.589  0.3958  0.0217  0.4584
  124MOL0     C16238   8.726   0.687   0.656  0.5105 -0.5466  0.2207
  124MOL0     O16239   8.679   0.559   0.693  0.0307 -0.3681  0.1954
  124MOL0     C16240   8.542   0.544   0.701 -0.7935  0.7229 -0.3313
  124MOL0     C16241   8.465   0.583   0.817  0.8365  0.0124  0.2337
  124MOL0     C16242   8.327   0.562   0.829  0.2182  0.0160  0.7768
  124MOL0     C16243   8.266   0.506   0.718  0.0397 -0.0904 -0.4546
  124MOL0     O16244   8.125   0.497   0.712 -0.4209  0.2688 -0.1226
  124MOL0     C16245   8.065   0.404   0.804 -0.2320  0.2649  0.1717
  124MOL0     C16246   8.049   0.266   0.735  0.5393  0.7462  0.3514
  124MOL0     C16247   7.956   0.280   0.613  0.4857  0.4320 -0.4774
  124MOL0     C16248   7.947   0.145   0.526 -0.1399  0.1280 -0.7713
  124MOL0     C16249   7.840   0.157   0.410  0.7252  0.7697  0.2464
  124MOL0     C16250   7.850   0.036   0.310  0.6260 -0.2133  0.0063
  124MOL0     C16251   7.760  -0.084   0.364 -0.1554  0.9971 -0.8472
  124MOL0     C16252   7.627  -0.051   0.436 -0.1366 -0.1893 -0.0250
  124MOL0     N16253   7.554  -0.178   0.466 -0.5151 -0.0297 -1.0049
  124MOL0     C16254   7.420  -0.195   0.442 -0.8572 -0.3065  0.5092
  124MOL0     C16255   7.393  -0.305   0.516  0.0095 -0.6044 -0.5915
  124MOL0     C16256   7.253  -0.361   0.522  0.2699  0.4028  0.0508
  124MOL0     C16257   7.253  -0.511   0.533  0.4032 -1.1254  0.7282
  124MOL0     C16258   7.114  -0.571   0.554  0.2822 -0.2284  0.0046
  124MOL0     C16259   7.066  -0.548   0.702  0.2705 -0.3520  0.0967
  124MOL0     O16260   6.947  -0.465   0.706  0.3478 -0.1090 -0.1775
  124MOL0     C16261   6.825  -0.518   0.701  0.4492 -0.5571  0.6761
  124MOL0     C16262   6.721  -0.433   0.708  0.7150 -0.8043 -0.3365
  124MOL0     C16263   6.590  -0.472   0.709  0.3064 -0.3880  0.4259
  124MOL0     C16264   6.558  -0.605   0.688  0.2625  0.3161  0.2087
  124MOL0     C16265   6.422  -0.658   0.693 -0.3688  1.0648  0.2061
  124MOL0     O16266   6.326  -0.576   0.729  0.6585 -0.3538 -0.1254
  124MOL0     C16267   6.198  -0.635   0.748 -0.6085  0.1605 -0.1346
  124MOL0     C16268   6.133  -0.667   0.629 -0.4727  0.2724 -0.5819
  124MOL0     C16269   5.999  -0.715   0.641  0.3920 -0.2242  0.8909
  124MOL0     C16270   5.940  -0.726   0.770  0.0098 -0.4170  0.8112
  124MOL0     O16271   5.806  -0.749   0.764  0.6192  0.4406  0.6770
  124MOL0     C16272   5.732  -0.775   0.884 -0.1518 -0.7089 -0.5398
  124MOL0     C16273   5.582  -0.740   0.852 -0.7302  0.9017  0.4955
  124MOL0     C16274   5.483  -0.780   0.964  0.3908  0.3140 -0.1815
  124MOL0     C16275   5.342  -0.745   0.918  0.4532 -0.0668  0.8043
  124MOL0     C16276   5.235  -0.802   1.012 -0.1476 -0.0762 -0.8006
  124MOL0     C16277   5.097  -0.768   0.964  0.2886  0.5726  0.9716
  124MOL0     C16278   4.990  -0.824   1.055 -0.0631  0.4847  0.6247
  124MOL0     C16279   4.968  -0.741   1.172 -0.4243 -0.7670 -0.5288
  124MOL0    Cl16280   4.820  -0.783   1.264  0.5185  0.3174 -0.0156
  124MOL0     C16281   6.015  -0.697   0.885  0.3596 -0.0574  0.0564
  124MOL0     C16282   6.148  -0.651   0.872  0.4661  0.2583 -0.7758
  124MOL0     O16283   6.404  -0.779   0.662  0.4462 -0.1200  0.9247
  124MOL0     C16284   6.662  -0.694   0.661 -0.1702  1.2302  0.6263
  124MOL0     C16285   6.796  -0.644   0.666  0.7649  0.4608 -0.7114
  124MOL0     N16286   7.497  -0.350   0.586 -0.5952 -0.1915 -0.2798
  124MOL0     N16287   7.593  -0.271   0.554 -0.2106 -0.4513 -0.2119
  124MOL0     C16288   8.345   0.464   0.598  0.1234 -0.4411 -0.0198
  124MOL0     C16289   8.480   0.475   0.592 -0.3620 -0.8179  0.1224
  124MOL0     C16290   8.874   0.714   0.667  0.3397 -0.9400 -0.3993
  124MOL0     C16291   8.933   0.831   0.619 -0.1573  0.1312  0.5897
  124MOL0     C16292   9.074   0.846   0.624 -0.0325 -0.4523 -0.6286
  124MOL0     C16293   9.159   0.753   0.677 -0.4837 -0.6904 -0.4559
  124MOL0     O16294   9.297   0.754   0.690 -0.6282 -0.1873 -0.0013
  124MOL0     C16295   9.377   0.856   0.621  0.0678  0.4638  0.3862
  124MOL0     C16296   9.417   0.978   0.714  0.9363 -0.2063  0.9632
  124MOL0     C16297   9.539   1.052   0.651 -0.1128 -0.4318 -0.0077
  124MOL0     C16298   9.557   1.185   0.722  0.4391 -0.1952 -0.0061
  124MOL0     C16299   9.672   1.259   0.665 -0.3855 -0.0712 -0.5909
  124MOL0     C16300   9.774   1.304   0.619 -0.2740 -0.3468  0.2184
  124MOL0     C16301   9.098   0.640   0.735 -0.1648 -0.1297  0.7997
  124MOL0     C16302   8.963   0.620   0.727  0.4971 -0.0630  0.1168
  124MOL0     H16303   8.523   0.626   0.898  0.8638  0.2608  0.0833
  124MOL0     H16304   8.259   0.583   0.911  0.2866  0.4173  0.7316
  124MOL0     H16305   7.969   0.441   0.840 -0.7500 -0.0475 -0.8234
  124MOL0     H16306   8.131   0.389   0.890  2.3444 -0.2651 -1.7510
  124MOL0     H16307   8.006   0.191   0.802 -1.0899  0.4526 -0.9414
  124MOL0     H16308   8.144   0.226   0.699 -0.2222 -0.3129 -0.5462
  124MOL0     H16309   7.986   0.364   0.550 -2.5738  1.7017 -0.3964
  124MOL0     H16310   7.862   0.327   0.641  0.6179  1.8797 -2.2819
  124MOL0     H16311   8.040   0.113   0.478 -0.9391 -0.4962 -1.9491
  124MOL0     H16312   7.914   0.070   0.599 -0.3220  0.9732  0.0312
  124MOL0     H16313   7.873   0.239   0.345  1.9844 -0.1839 -0.3701
  124MOL0     H16314   7.739   0.186   0.439  0.1789  1.7032 -2.2642
  124MOL0     H16315   7.954   0.006   0.292  0.1349 -0.6523 -2.3046
  124MOL0     H16316   7.820   0.074   0.212  1.4015  3.1509  0.9284
  124MOL0     H16317   7.721  -0.149   0.285 -1.0295  1.8828 -1.1564
  124MOL0     H16318   7.821  -0.150   0.427 -0.2273 -0.8286 -2.5922
  124MOL0     H16319   7.557   0.001   0.370 -1.2528  0.0976  1.3509
  124MOL0     H16320   7.647   0.013   0.522 -0.4562 -0.0400 -0.0581
  124MOL0     H16321   7.367  -0.131   0.372  0.3645  2.1371  1.6893
  124MOL0     H16322   7.191  -0.338   0.434 -2.3354 -2.2664  1.0315
  124MOL0     H16323   7.193  -0.312   0.599  1.9401  3.1809 -0.2616
  124MOL0     H16324   7.319  -0.540   0.615  3.4819  1.2212 -0.7100
  124MOL0     H16325   7.302  -0.542   0.440 -1.6107  1.3551 -1.3407
  124MOL0     H16326   7.037  -0.526   0.491  0.0838  1.6634  1.4775
  124MOL0     H16327   7.103  -0.676   0.524 -2.1583  0.3193 -1.2755
  124MOL0     H16328   7.144  -0.489   0.751 -1.2980  2.4868 -0.6131
  124MOL0     H16329   7.071  -0.641   0.759  4.9892 -1.4939 -1.7654
  124MOL0     H16330   6.740  -0.329   0.732  1.7153 -0.6796 -1.5473
  124MOL0     H16331   6.529  -0.396   0.757  1.6945  0.3977  0.9907
  124MOL0     H16332   6.167  -0.641   0.530  0.2005  0.6924 -0.2477
  124MOL0     H16333   5.945  -0.726   0.548  0.1234 -1.7217  1.2030
  124MOL0     H16334   5.775  -0.712   0.963 -3.0390  0.1626  0.4669
  124MOL0     H16335   5.742  -0.878   0.919  0.3182 -0.9724 -1.4294
  124MOL0     H16336   5.554  -0.796   0.762  1.4879 -1.0571  0.9245
  124MOL0     H16337   5.566  -0.639   0.815 -3.5732  0.4386  0.1822
  124MOL0     H16338   5.507  -0.721   1.053  0.6188  1.9795 -1.3125
  124MOL0     H16339   5.484  -0.886   0.990 -3.5644 -0.1537 -1.2786
  124MOL0     H16340   5.336  -0.636   0.914 -1.1861 -0.0972  1.6543
  124MOL0     H16341   5.311  -0.782   0.820 -1.6655  1.2657  0.9205
  124MOL0     H16342   5.243  -0.764   1.114 -1.8477 -3.0579  0.5767
  124MOL0     H16343   5.261  -0.908   1.023 -2.3721 -0.6149 -0.3136
  124MOL0     H16344   5.094  -0.815   0.865  3.5471  0.7488  0.7077
  124MOL0     H16345   5.105  -0.659   0.955  3.2283  0.3223 -0.9489
  124MOL0     H16346   4.905  -0.835   0.987 -0.3767  0.2503  1.0499
  124MOL0     H16347   5.013  -0.925   1.089 -0.2671  0.4181  0.5672
  124MOL0     H16348   4.964  -0.633   1.153 -2.0837 -0.4976  1.0146
  124MOL0     H16349   5.054  -0.763   1.236  0.3536  3.5475  0.2457
  124MOL0     H16350   5.973  -0.693   0.985 -0.4426 -0.6598 -0.2423
  124MOL0     H16351   6.213  -0.603   0.944  1.4378  0.2374 -1.6165
  124MOL0     H16352   6.645  -0.800   0.649  1.0382  1.0535  0.4313
  124MOL0     H16353   6.876  -0.717   0.654  1.0364  0.8023 -1.0035
  124MOL0     H16354   8.299   0.428   0.507 -2.7065  3.3714 -0.3630
  124MOL0     H16355   8.542   0.441   0.510  0.8450  1.1180  0.1709
  124MOL0     H16356   8.879   0.911   0.570  1.4749 -0.0632 -1.6721
  124MOL0     H16357   9.116   0.930   0.568 -0.5083  2.4691  2.9975
  124MOL0     H16358   9.330   0.900   0.532  2.5577  3.3753  0.3338
  124MOL0     H16359   9.468   0.804   0.589 -2.1472 -1.5616 -3.4150
  124MOL0     H16360   9.330   1.042   0.733 -0.1038 -0.7782 -1.4315
  124MOL0     H16361   9.447   0.945   0.814  3.4492  1.2593  0.7752
  124MOL0     H16362   9.514   1.063   0.545 -1.3967 -1.9341  0.1094
  124MOL0     H16363   9.636   1.003   0.663  0.2357  0.5578  1.4420
  124MOL0     H16364   9.459   1.234   0.726  0.3753 -0.4101  1.7387
  124MOL0     H16365   9.580   1.169   0.828  0.4645  4.1402  0.8418
  124MOL0     H16366   9.861   1.346   0.573 -0.5939 -0.7038 -0.7308
  124MOL0     H16367   9.161   0.563   0.778 -0.2368  0.0080  1.1620
  124MOL0     H16368   8.915   0.529   0.762  1.8536 -0.7518  0.2291
  125MOL0     O16369   7.219   0.267   2.758 -0.0272  0.5303 -0.1947
  125MOL0     C16370   7.187   0.311   2.871 -0.1021 -0.8166 -1.1124
  125MOL0     O16371   7.272   0.391   2.955 -0.0179  0.4656  1.0834
  125MOL0     C16372   7.394   0.423   2.895  0.4047  0.0712  0.1040
  125MOL0     C16373   7.505   0.357   2.942  0.0637  0.1480 -0.0415
  125MOL0     C16374   7.629   0.388   2.885  1.1067  0.5854 -0.2853
  125MOL0     C16375   7.641   0.472   2.774 -0.5612 -0.1156 -0.3266
  125MOL0     O16376   7.755   0.492   2.698 -0.1429  0.4392 -0.3167
  125MOL0     C16377   7.857   0.400   2.731 -0.1082 -1.5207  0.3719
  125MOL0     C16378   7.966   0.417   2.627  0.1837  0.3997 -0.1328
  125MOL0     C16379   8.101   0.394   2.692  0.2615  0.2123  0.1985
  125MOL0     C16380   8.214   0.376   2.588  0.6816  0.3321 -0.1662
  125MOL0     C16381   8.353   0.368   2.642  0.8284 -0.2232 -0.7380
  125MOL0     C16382   8.456   0.329   2.533 -0.1471 -0.4473  0.2476
  125MOL0     C16383   8.471   0.429   2.412  0.3972  0.0164  0.6666
  125MOL0     C16384   8.457   0.347   2.283  0.6720 -0.5296 -0.0888
  125MOL0     N16385   8.320   0.343   2.217 -0.6449  1.3679 -0.9350
  125MOL0     C16386   8.242   0.456   2.207 -0.0892  0.7730 -0.0580
  125MOL0     C16387   8.137   0.415   2.128  0.2266  0.3357  0.8950
  125MOL0     C16388   8.017   0.483   2.072  0.9279 -0.3710  0.8267
  125MOL0     C16389   7.902   0.480   2.169  0.1152 -0.1468 -0.3452
  125MOL0     C16390   7.835   0.339   2.197 -0.8202 -0.3685  0.0235
  125MOL0     C16391   7.722   0.351   2.305 -0.2030  0.5567 -1.5199
  125MOL0     O16392   7.654   0.471   2.297 -0.0115 -0.5660 -0.2195
  125MOL0     C16393   7.531   0.492   2.353  0.3668 -0.2758 -0.3554
  125MOL0     C16394   7.443   0.582   2.277  0.6021  0.0363 -0.1345
  125MOL0     C16395   7.310   0.601   2.314 -0.4320 -0.6390  0.0994
  125MOL0     C16396   7.258   0.513   2.406  0.2018  0.8541 -0.5728
  125MOL0     C16397   7.108   0.523   2.436 -1.1924  0.5117 -0.9206
  125MOL0     O16398   7.056   0.419   2.507 -0.7596  0.3918  0.7991
  125MOL0     C16399   6.931   0.432   2.556  0.9562 -0.1142 -0.0892
  125MOL0     C16400   6.892   0.514   2.663 -0.3566 -0.3378 -0.6648
  125MOL0     C16401   6.763   0.541   2.710  0.5558 -0.4346  0.2251
  125MOL0     C16402   6.656   0.479   2.645  0.3973 -0.4316  1.3562
  125MOL0     O16403   6.526   0.509   2.674  0.0252  0.7614  0.1514
  125MOL0     C16404   6.500   0.649   2.675  0.4875 -0.1947  0.2561
  125MOL0     C16405   6.350   0.689   2.634 -1.0551 -0.5659 -0.0705
  125MOL0     C16406   6.246   0.652   2.743 -0.0711 -0.3528 -0.0542
  125MOL0     C16407   6.100   0.682   2.711  0.5125 -0.5328 -0.6591
  125MOL0     C16408   5.992   0.643   2.823  0.0892  0.1665 -0.5590
  125MOL0     C16409   5.857   0.671   2.751  0.4877 -0.5377 -0.3384
  125MOL0     C16410   5.738   0.646   2.842  1.0340 -1.0671  0.2145
  125MOL0     C16411   5.606   0.628   2.761 -0.6824  0.7726  0.4813
  125MOL0    Cl16412   5.614   0.471   2.666  0.5346 -0.4035  0.4688
  125MOL0     C16413   6.680   0.386   2.543  0.1756  0.3813 -0.3681
  125MOL0     C16414   6.816   0.366   2.500 -0.1619 -0.0466 -0.2490
  125MOL0     O16415   7.042   0.623   2.403 -0.2601  0.0983  0.2438
  125MOL0     C16416   7.333   0.415   2.475 -0.2456  0.1831  0.0276
  125MOL0     C16417   7.473   0.407   2.448 -0.3238 -0.7024 -0.1433
  125MOL0     N16418   8.161   0.279   2.096  0.7623 -0.2076 -0.3507
  125MOL0     N16419   8.261   0.238   2.160 -0.3298  0.4400 -0.4124
  125MOL0     C16420   7.531   0.546   2.739  0.0941 -0.3013  0.0888
  125MOL0     C16421   7.406   0.526   2.795  0.9732  0.5615 -0.4213
  125MOL0     C16422   7.045   0.287   2.916 -0.7180  0.3169  0.0875
  125MOL0     C16423   6.994   0.341   3.032 -0.5064  0.7169  0.5896
  125MOL0     C16424   6.863   0.308   3.076  0.7653  0.6974 -0.5937
  125MOL0     C16425   6.775   0.243   2.991  0.8158  0.6505 -0.3861
  125MOL0     O16426   6.650   0.235   3.033  0.8739  0.1736  0.2450
  125MOL0     C16427   6.555   0.176   2.944  0.8714  0.2067 -0.5419
  125MOL0     C16428   6.414   0.189   3.006  0.2698 -0.1838 -0.6612
  125MOL0     C16429   6.372   0.333   3.039 -0.1330 -0.3036 -0.3642
  125MOL0     C16430   6.212   0.335   3.057 -0.7019 -0.2529  0.5172
  125MOL0     C16431   6.178   0.475   3.092  0.1474 -0.0153 -0.6579
  125MOL0     C16432   6.153   0.585   3.131  0.0336  0.0851 -0.4863
  125MOL0     C16433   6.823   0.218   2.855 -0.0523 -0.0205  0.3404
  125MOL0     C16434   6.955   0.232   2.825  0.6720 -0.3087  0.4065
  125MOL0     H16435   7.507   0.280   3.018 -1.7882  1.5479  1.5176
  125MOL0     H16436   7.715   0.343   2.935  1.0744  1.6019  0.7388
  125MOL0     H16437   7.822   0.296   2.724 -1.9691 -0.8215 -1.7279
  125MOL0     H16438   7.899   0.425   2.829  1.2660  1.6768 -0.8928
  125MOL0     H16439   7.958   0.516   2.582 -1.9642  0.0738 -0.5532
  125MOL0     H16440   7.962   0.341   2.549  1.4494  0.9903 -0.8097
  125MOL0     H16441   8.103   0.309   2.761 -2.0963  0.2781  0.4380
  125MOL0     H16442   8.129   0.487   2.743 -2.5721  1.1982  0.1200
  125MOL0     H16443   8.190   0.290   2.526 -1.6171  0.1116  0.9451
  125MOL0     H16444   8.196   0.462   2.523 -0.5128 -1.0148 -1.6806
  125MOL0     H16445   8.359   0.291   2.719  2.8619 -0.0888 -0.6995
  125MOL0     H16446   8.379   0.465   2.687  2.8451 -1.7290  1.6809
  125MOL0     H16447   8.446   0.225   2.498  2.5070 -1.0765  1.1285
  125MOL0     H16448   8.553   0.326   2.584 -0.0562 -3.6164  0.1225
  125MOL0     H16449   8.394   0.507   2.407  1.1351  0.7028 -2.2513
  125MOL0     H16450   8.574   0.464   2.421  0.7409 -1.1464  1.4529
  125MOL0     H16451   8.499   0.248   2.300  0.4224 -0.6814 -0.3426
  125MOL0     H16452   8.515   0.405   2.211 -1.0763 -0.5991 -1.6366
  125MOL0     H16453   8.258   0.553   2.252 -0.7324  0.4500  0.8968
  125MOL0     H16454   7.986   0.433   1.980  1.1206  0.8700  0.0581
  125MOL0     H16455   8.041   0.586   2.045  1.0779 -0.7653 -0.6142
  125MOL0     H16456   7.823   0.540   2.122  1.1441  1.2302 -0.4035
  125MOL0     H16457   7.928   0.541   2.256 -2.5768  0.6338  0.0092
  125MOL0     H16458   7.786   0.308   2.104 -1.4929  3.3121 -1.0275
  125MOL0     H16459   7.904   0.255   2.208  1.9280  1.1074 -3.6916
  125MOL0     H16460   7.772   0.346   2.402 -3.3304 -0.2822  0.1679
  125MOL0     H16461   7.658   0.264   2.291 -0.8481  0.5100  1.1666
  125MOL0     H16462   7.487   0.618   2.184  1.1646 -3.0421 -1.1664
  125MOL0     H16463   7.263   0.686   2.265 -2.7533 -0.4902  2.3456
  125MOL0     H16464   6.980   0.564   2.702  0.2018 -0.7032 -1.4108
  125MOL0     H16465   6.756   0.611   2.793  2.6986 -0.6413  0.6523
  125MOL0     H16466   6.563   0.686   2.594  0.8135 -1.8052 -0.2658
  125MOL0     H16467   6.532   0.704   2.764 -1.4890  2.4218 -0.5245
  125MOL0     H16468   6.329   0.644   2.537  2.1843 -0.0623 -1.1533
  125MOL0     H16469   6.346   0.798   2.624  3.2703 -0.1195  0.8284
  125MOL0     H16470   6.291   0.697   2.833  1.3671  0.6204 -1.2178
  125MOL0     H16471   6.256   0.544   2.760  4.6375 -0.0622  0.4220
  125MOL0     H16472   6.094   0.788   2.683 -0.0598  0.0772  1.5818
  125MOL0     H16473   6.077   0.627   2.619  2.1883 -0.6595 -1.0372
  125MOL0     H16474   5.997   0.702   2.915 -1.9712 -2.0770  1.1007
  125MOL0     H16475   6.018   0.538   2.842  0.0097 -0.7754 -4.7485
  125MOL0     H16476   5.849   0.605   2.665  1.7586 -0.4789 -0.5192
  125MOL0     H16477   5.860   0.779   2.732 -2.3103 -0.7670 -2.8011
  125MOL0     H16478   5.750   0.559   2.908  0.0455 -1.9987 -0.7877
  125MOL0     H16479   5.737   0.732   2.909  3.7788  0.4046 -1.4699
  125MOL0     H16480   5.592   0.715   2.695 -2.0943  0.2288  0.0432
  125MOL0     H16481   5.518   0.637   2.825  0.6012  1.8342  2.1842
  125MOL0     H16482   6.592   0.329   2.513 -0.4539  0.3678  1.3787
  125MOL0     H16483   6.820   0.289   2.423 -2.8357 -3.0550  2.3078
  125MOL0     H16484   7.282   0.347   2.543 -1.4757 -0.1202 -1.1586
  125MOL0     H16485   7.521   0.332   2.511 -0.8094 -2.6717 -2.0178
  125MOL0     H16486   7.536   0.618   2.658 -0.0881 -1.0143 -0.5691
  125MOL0     H16487   7.321   0.581   2.757  0.2496 -0.5690 -0.4660
  125MOL0     H16488   7.059   0.394   3.100 -0.9413  0.4018  1.2584
  125MOL0     H16489   6.833   0.339   3.175  1.0879  0.6700 -0.4842
  125MOL0     H16490   6.583   0.072   2.929 -0.0303  0.2680 -3.1071
  125MOL0     H16491   6.554   0.232   2.850  2.3741 -0.2414 -0.8500
  125MOL0     H16492   6.336   0.148   2.941 -1.0961 -2.0429  1.9188
  125MOL0     H16493   6.405   0.144   3.106 -1.8439  0.8756 -0.2933
  125MOL0     H16494   6.410   0.403   2.963 -1.0111 -1.6771 -2.1460
  125MOL0     H16495   6.425   0.354   3.132 -1.5936  1.4755  0.1193
  125MOL0     H16496   6.158   0.317   2.963  0.3494  0.3808 -0.2403
  125MOL0     H16497   6.187   0.268   3.139 -1.1860 -0.2322  0.3946
  125MOL0     H16498   6.120   0.680   3.169  0.2073 -0.8388  2.1033
  125MOL0     H16499   6.750   0.184   2.783  0.7682  0.3468 -0.6952
  125MOL0     H16500   6.991   0.201   2.727  0.1016 -0.4424  0.2350
  126MOL0     O16501   2.304   4.771   0.030 -0.1610  0.7552 -0.2788
  126MOL0     C16502   2.330   4.828   0.133 -0.1895  0.5221 -0.5269
  126MOL0     O16503   2.262   4.934   0.183  0.4878  0.0837 -0.3139
  126MOL0     C16504   2.153   4.983   0.112  0.2322  0.7147 -0.6317
  126MOL0     C16505   2.029   4.953   0.154  0.6469 -0.3329  0.5788
  126MOL0     C16506   1.916   5.010   0.084 -0.1010 -0.6523 -0.5429
  126MOL0     C16507   1.939   5.100  -0.023 -0.7827 -0.0079 -0.0711
  126MOL0     O16508   1.845   5.162  -0.089  0.8179 -0.4185 -0.2090
  126MOL0     C16509   1.711   5.121  -0.072 -0.7277 -0.3321 -0.2144
  126MOL0     C16510   1.617   5.182  -0.186 -0.8274  0.1579  0.0109
  126MOL0     C16511   1.473   5.147  -0.157 -1.0783  0.0634 -0.3657
  126MOL0     C16512   1.375   5.244  -0.212  0.7380  0.5420 -1.2254
  126MOL0     C16513   1.242   5.211  -0.151  0.2445 -0.1674 -0.1323
  126MOL0     C16514   1.144   5.264  -0.259  0.6460  0.6599 -0.4205
  126MOL0     C16515   0.996   5.272  -0.214 -0.6335  0.0693  0.2169
  126MOL0     C16516   0.907   5.342  -0.312 -0.3158  1.1803 -0.7193
  126MOL0     N16517   0.778   5.377  -0.244 -0.5497  0.6998  0.1065
  126MOL0     C16518   0.676   5.295  -0.250  0.4845 -0.2496  0.0302
  126MOL0     C16519   0.601   5.353  -0.156 -0.0472  0.6026 -0.8398
  126MOL0     C16520   0.456   5.323  -0.123  0.6591 -0.0662  0.2760
  126MOL0     C16521   0.426   5.172  -0.119 -0.1368 -0.0335  0.0516
  126MOL0     C16522   0.290   5.156  -0.045 -0.2373  0.2011  0.9027
  126MOL0     C16523   0.293   5.121   0.105  0.5146 -0.3285 -0.4314
  126MOL0     O16524   0.303   4.986   0.132 -0.4328  0.1597 -0.2964
  126MOL0     C16525   0.187   4.905   0.141  0.6470 -0.3665  0.4247
  126MOL0     C16526   0.214   4.781   0.203 -0.5641 -0.3786 -0.7084
  126MOL0     C16527   0.114   4.687   0.225 -0.3552 -0.3457 -0.8160
  126MOL0     C16528  -0.021   4.717   0.181  0.8271 -0.4126  0.1104
  126MOL0     C16529  -0.126   4.611   0.211  0.7642 -0.3787  0.0669
  126MOL0     O16530  -0.255   4.655   0.184  0.1458 -0.8150 -0.1927
  126MOL0     C16531  -0.353   4.562   0.192  0.3481 -0.1491  0.4661
  126MOL0     C16532  -0.350   4.427   0.156  0.0382  0.3171  0.0463
  126MOL0     C16533  -0.453   4.335   0.139  1.1345 -0.4043  0.2077
  126MOL0     C16534  -0.589   4.378   0.168 -0.5720 -0.0999 -0.1028
  126MOL0     O16535  -0.706   4.309   0.153 -0.3042  0.2921 -0.0041
  126MOL0     C16536  -0.695   4.183   0.072 -0.1542 -0.0199 -0.9501
  126MOL0     C16537  -0.819   4.104   0.068 -0.6923 -0.2471 -0.3864
  126MOL0     C16538  -0.944   4.185   0.033 -0.5245  0.3185 -0.3943
  126MOL0     C16539  -1.067   4.107  -0.015 -0.0026 -0.6981 -0.0315
  126MOL0     C16540  -1.184   4.201  -0.056 -0.2625  0.8161 -0.7553
  126MOL0     C16541  -1.322   4.137  -0.081  0.7495 -0.3079  0.4969
  126MOL0     C16542  -1.440   4.237  -0.061  0.2914  0.8363  0.3318
  126MOL0     C16543  -1.577   4.168  -0.096 -0.2843 -0.3815 -0.0725
  126MOL0    Cl16544  -1.707   4.247   0.002  0.1790 -0.0775 -0.1088
  126MOL0     C16545  -0.602   4.507   0.216  0.0590 -0.1530  0.6265
  126MOL0     C16546  -0.489   4.601   0.214 -0.1893  0.0381  0.5427
  126MOL0     O16547  -0.090   4.518   0.278 -0.6010 -0.8163  0.2842
  126MOL0     C16548  -0.057   4.844   0.129 -0.4548  0.7281 -0.3930
  126MOL0     C16549   0.054   4.938   0.114 -0.0881 -0.2386 -0.1682
  126MOL0     N16550   0.667   5.463  -0.106 -0.7157 -0.1898  0.2597
  126MOL0     N16551   0.772   5.485  -0.162  0.2012  0.8621 -0.8525
  126MOL0     C16552   2.067   5.117  -0.077  0.9851 -0.2886  0.3493
  126MOL0     C16553   2.176   5.051  -0.008  0.5829  0.2753 -0.3918
  126MOL0     C16554   2.431   4.780   0.224 -0.1141 -0.2600 -0.1135
  126MOL0     C16555   2.505   4.670   0.189 -0.3046 -0.3795  0.3022
  126MOL0     C16556   2.623   4.640   0.263 -0.3669 -0.4975 -0.6844
  126MOL0     C16557   2.657   4.718   0.382 -0.5966 -0.0491  0.2054
  126MOL0     O16558   2.774   4.702   0.454  0.1682 -0.7332  0.0372
  126MOL0     C16559   2.865   4.594   0.425  1.4760  0.6232 -0.0812
  126MOL0     C16560   2.990   4.619   0.506  0.0635 -0.5402 -0.0369
  126MOL0     C16561   3.052   4.758   0.515 -0.3516  0.0015 -0.1893
  126MOL0     C16562   3.108   4.798   0.372 -0.5538  0.0187  0.1903
  126MOL0     C16563   3.253   4.752   0.348  0.1945  0.1471 -0.5120
  126MOL0     C16564   3.370   4.736   0.332  0.1523  1.1054  0.3895
  126MOL0     C16565   2.573   4.821   0.422 -0.3248  0.0142 -0.8381
  126MOL0     C16566   2.460   4.843   0.345  0.2706  0.7899  0.4502
  126MOL0     H16567   2.007   4.879   0.231 -1.4370 -1.3674 -0.9226
  126MOL0     H16568   1.818   4.979   0.119 -0.6302  1.3660 -0.0713
  126MOL0     H16569   1.692   5.164   0.027  0.7632  0.0281 -0.0530
  126MOL0     H16570   1.697   5.012  -0.073  0.0196 -0.6060  3.2303
  126MOL0     H16571   1.649   5.141  -0.282 -1.4618  3.8734 -1.9983
  126MOL0     H16572   1.633   5.291  -0.185  2.6507 -0.0781 -3.4485
  126MOL0     H16573   1.469   5.149  -0.048  0.0026 -0.9676 -0.2944
  126MOL0     H16574   1.467   5.049  -0.205  1.0693 -1.7794  2.7338
  126MOL0     H16575   1.403   5.349  -0.203 -0.0161  0.8236 -2.0585
  126MOL0     H16576   1.371   5.228  -0.321 -1.5357  2.0208 -1.4307
  126MOL0     H16577   1.219   5.265  -0.059 -1.3155 -2.2989  0.8075
  126MOL0     H16578   1.238   5.103  -0.134  0.8213 -0.4314 -1.5376
  126MOL0     H16579   1.143   5.209  -0.354 -0.5877  0.4045 -0.2763
  126MOL0     H16580   1.168   5.370  -0.273 -1.5818  0.9688 -2.6567
  126MOL0     H16581   0.965   5.169  -0.194  1.6266 -0.6291  0.3833
  126MOL0     H16582   0.988   5.323  -0.117  0.2835  0.3042  0.1728
  126MOL0     H16583   0.884   5.293  -0.407 -0.5924  3.0665 -1.6700
  126MOL0     H16584   0.958   5.431  -0.349 -0.0388  0.5427 -1.9188
  126MOL0     H16585   0.643   5.204  -0.300 -2.4464 -0.7711  2.6015
  126MOL0     H16586   0.391   5.379  -0.191  0.0007 -0.8943  0.2110
  126MOL0     H16587   0.433   5.378  -0.031 -1.8160 -0.8351  0.1934
  126MOL0     H16588   0.508   5.110  -0.082 -0.6664 -2.2200 -2.1838
  126MOL0     H16589   0.415   5.142  -0.223 -1.0661  1.2245 -0.2362
  126MOL0     H16590   0.220   5.239  -0.060  0.1953  0.3338 -0.5092
  126MOL0     H16591   0.236   5.080  -0.102  0.6310  0.7953 -0.7885
  126MOL0     H16592   0.210   5.163   0.164 -0.8156 -2.9416 -0.3166
  126MOL0     H16593   0.388   5.160   0.145  1.2064 -2.9966  0.7430
  126MOL0     H16594   0.314   4.759   0.239 -1.3826 -2.6525  0.4425
  126MOL0     H16595   0.136   4.598   0.283  0.9623  2.2111  3.0209
  126MOL0     H16596  -0.255   4.377   0.138 -1.2732 -3.3106  1.9849
  126MOL0     H16597  -0.431   4.230   0.122  1.6521 -0.3341  0.4482
  126MOL0     H16598  -0.618   4.115   0.111 -2.2974 -0.2924  3.3869
  126MOL0     H16599  -0.660   4.207  -0.029  0.0635 -2.8695 -1.6408
  126MOL0     H16600  -0.834   4.050   0.162 -2.1696 -1.9218 -1.5015
  126MOL0     H16601  -0.813   4.026  -0.009  1.7526  0.1817 -0.7043
  126MOL0     H16602  -0.918   4.256  -0.046 -0.3692  1.2065  0.4484
  126MOL0     H16603  -0.972   4.250   0.116 -0.0225  1.8733 -1.3976
  126MOL0     H16604  -1.050   4.060  -0.113 -2.5744 -2.0058  0.0404
  126MOL0     H16605  -1.087   4.023   0.051 -0.5930 -0.4583  0.1012
  126MOL0     H16606  -1.152   4.264  -0.140  0.7198  0.3711 -0.7251
  126MOL0     H16607  -1.194   4.278   0.020 -0.8513  2.8227 -2.7490
  126MOL0     H16608  -1.330   4.057  -0.008  2.3611 -1.9096 -0.9860
  126MOL0     H16609  -1.323   4.100  -0.184  1.8643 -0.5175  0.5599
  126MOL0     H16610  -1.444   4.274   0.042  0.9905  1.3433  0.1763
  126MOL0     H16611  -1.414   4.321  -0.124  0.8222  1.2102  1.0387
  126MOL0     H16612  -1.573   4.061  -0.072 -0.0552 -0.6445 -1.2523
  126MOL0     H16613  -1.589   4.174  -0.204  1.4153 -0.8895 -0.3235
  126MOL0     H16614  -0.703   4.536   0.244 -0.5641 -0.5521 -1.0663
  126MOL0     H16615  -0.528   4.701   0.233 -3.5246 -1.0984  0.3901
  126MOL0     H16616  -0.160   4.859   0.099 -0.5260 -0.2593 -0.6867
  126MOL0     H16617   0.029   5.026   0.056 -1.6091 -1.6243 -1.7117
  126MOL0     H16618   2.085   5.187  -0.157  0.5481  1.9799  2.1251
  126MOL0     H16619   2.280   5.073  -0.030  0.5279 -0.0553 -0.9875
  126MOL0     H16620   2.461   4.622   0.103  1.5627 -0.2994 -0.7445
  126MOL0     H16621   2.663   4.545   0.228 -0.2323 -0.2978 -1.0649
  126MOL0     H16622   2.894   4.569   0.322  2.1082  1.1742 -0.0453
  126MOL0     H16623   2.821   4.503   0.467  0.1717  1.7833  1.1627
  126MOL0     H16624   2.962   4.589   0.608 -1.8619 -2.4644 -1.0616
  126MOL0     H16625   3.067   4.558   0.460 -0.5019 -0.6535 -0.8500
  126MOL0     H16626   3.133   4.753   0.589 -1.1154 -1.3681  0.6022
  126MOL0     H16627   2.973   4.827   0.545  0.2601  0.8003 -0.3892
  126MOL0     H16628   3.041   4.743   0.305 -1.0503 -2.0236  2.2427
  126MOL0     H16629   3.100   4.907   0.370  0.7849  0.1215 -1.5597
  126MOL0     H16630   3.475   4.722   0.313 -0.3271 -0.8890 -1.1018
  126MOL0     H16631   2.595   4.881   0.510 -3.9638  0.7836 -0.2957
  126MOL0     H16632   2.394   4.924   0.374  3.9532  3.8175  1.2149
  127MOL0     O16633   1.318   8.301   1.628  0.5917 -0.2524 -0.4701
  127MOL0     C16634   1.323   8.235   1.724  0.0297 -0.3630 -0.1133
  127MOL0     O16635   1.436   8.194   1.789 -0.0531 -0.5666 -0.1299
  127MOL0     C16636   1.560   8.252   1.769 -0.3229 -0.3185  0.3402
  127MOL0     C16637   1.661   8.203   1.855  0.3886 -0.5418 -0.1105
  127MOL0     C16638   1.794   8.236   1.835 -0.5372  0.4311 -1.0607
  127MOL0     C16639   1.832   8.328   1.744  0.0285  0.1653  0.2262
  127MOL0     O16640   1.956   8.384   1.744  0.4288  0.2676 -0.5379
  127MOL0     C16641   2.080   8.327   1.806  0.4163 -0.0092  0.8677
  127MOL0     C16642   2.171   8.444   1.819  0.1705  0.6018 -0.2224
  127MOL0     C16643   2.313   8.410   1.837  0.3615  0.0439  0.7871
  127MOL0     C16644   2.400   8.537   1.821  0.9384 -0.9129  0.1969
  127MOL0     C16645   2.548   8.506   1.853  0.2910  0.4884  0.2751
  127MOL0     C16646   2.616   8.428   1.739  0.6586  0.4954 -0.3229
  127MOL0     C16647   2.769   8.419   1.763 -0.4826 -0.6116  0.0194
  127MOL0     C16648   2.859   8.355   1.654 -0.4530 -0.3114  0.2203
  127MOL0     N16649   2.991   8.325   1.703  0.2420  0.6373 -0.5705
  127MOL0     C16650   3.096   8.407   1.715 -0.3497  0.8279  0.4855
  127MOL0     C16651   3.191   8.335   1.783  0.0736 -0.0226 -1.4314
  127MOL0     C16652   3.333   8.379   1.828 -0.1021 -0.6373  0.4867
  127MOL0     C16653   3.330   8.515   1.901  0.5396  0.2977 -0.2137
  127MOL0     C16654   3.307   8.503   2.054 -0.1951  0.0057  0.5523
  127MOL0     C16655   3.156   8.489   2.084 -0.9456 -0.5511 -0.2565
  127MOL0     O16656   3.068   8.576   2.020 -0.0672  0.3324  0.2808
  127MOL0     C16657   2.969   8.633   2.103  0.1595 -0.2681 -0.1193
  127MOL0     C16658   2.865   8.545   2.124 -0.1018  0.3003 -1.0036
  127MOL0     C16659   2.747   8.587   2.193 -0.0304 -0.1133  0.2716
  127MOL0     C16660   2.743   8.716   2.258  0.2134  0.4867  0.2203
  127MOL0     C16661   2.633   8.763   2.345  0.3797  0.0532  1.3866
  127MOL0     O16662   2.666   8.849   2.438  0.1356 -1.0668  0.1440
  127MOL0     C16663   2.569   8.897   2.528 -0.5217  0.6040  0.4644
  127MOL0     C16664   2.508   8.801   2.613 -0.7847 -0.1851 -0.0617
  127MOL0     C16665   2.419   8.851   2.700 -0.2127  1.1039  0.6239
  127MOL0     C16666   2.378   8.977   2.704  0.3132  0.0610  0.1781
  127MOL0     O16667   2.299   9.008   2.816 -0.4128  0.3021  0.9863
  127MOL0     C16668   2.286   9.153   2.851 -0.4479  0.3163  1.3753
  127MOL0     C16669   2.167   9.167   2.951 -0.2803 -0.6347 -0.2011
  127MOL0     C16670   2.035   9.101   2.915 -0.2118 -0.5664  0.4685
  127MOL0     C16671   1.916   9.149   3.000 -0.6376 -0.6071 -0.4586
  127MOL0     C16672   1.787   9.068   2.973 -0.8431 -0.2754  0.3062
  127MOL0     C16673   1.738   9.091   2.826 -0.3613  0.2371 -0.0588
  127MOL0     C16674   1.620   8.998   2.807 -0.2529  1.0004  0.0840
  127MOL0     C16675   1.509   9.038   2.718  0.5872 -1.2019 -0.4588
  127MOL0    Cl16676   1.556   9.000   2.543  0.3109 -0.5145 -0.0986
  127MOL0     C16677   2.425   9.073   2.617 -0.3159 -0.3115  0.4780
  127MOL0     C16678   2.528   9.034   2.525  0.4157 -0.8774 -0.0435
  127MOL0     O16679   2.527   8.706   2.323  0.0457 -0.2905  0.1286
  127MOL0     C16680   2.852   8.793   2.231  0.2503  0.2976 -0.3574
  127MOL0     C16681   2.960   8.766   2.146 -0.1644  0.2144 -0.0238
  127MOL0     N16682   3.130   8.210   1.811 -0.6361 -0.2771  0.5881
  127MOL0     N16683   3.011   8.205   1.765  0.6585 -0.0611  0.4312
  127MOL0     C16684   1.729   8.379   1.661  0.7545 -0.3371 -0.3694
  127MOL0     C16685   1.595   8.347   1.681  1.0379 -0.2408  0.6108
  127MOL0     C16686   1.193   8.187   1.785 -0.4757  0.0091  0.4783
  127MOL0     C16687   1.187   8.098   1.899 -0.6670 -0.6900  1.0578
  127MOL0     C16688   1.064   8.058   1.950 -0.4029  0.0872  0.0791
  127MOL0     C16689   0.943   8.101   1.887  0.0174 -1.2372 -0.1886
  127MOL0     O16690   0.811   8.058   1.909 -0.2467 -0.0362 -0.3606
  127MOL0     C16691   0.786   7.961   2.014  1.0497 -0.0188 -0.4373
  127MOL0     C16692   0.640   7.977   2.050  0.9857  0.0983 -0.3658
  127MOL0     C16693   0.590   7.899   2.175 -0.6755  0.1184 -0.3637
  127MOL0     C16694   0.589   7.748   2.160  0.0740  0.0479  0.1841
  127MOL0     C16695   0.523   7.692   2.273 -0.1623  0.4131  0.2114
  127MOL0     C16696   0.462   7.620   2.350  0.5337 -0.1986  0.2916
  127MOL0     C16697   0.947   8.178   1.780 -1.2887  0.0898 -0.4302
  127MOL0     C16698   1.073   8.219   1.721  0.0908 -0.4434 -0.3929
  127MOL0     H16699   1.616   8.141   1.933  0.9622 -1.9964 -0.8963
  127MOL0     H16700   1.862   8.193   1.909  0.9825  1.3176 -1.8859
  127MOL0     H16701   2.122   8.242   1.752  0.3246 -0.0269  0.8247
  127MOL0     H16702   2.057   8.291   1.907 -1.5518 -0.5555  0.2665
  127MOL0     H16703   2.147   8.514   1.899 -0.2145  2.3301 -1.7733
  127MOL0     H16704   2.173   8.501   1.725 -2.1713  1.7446  0.3565
  127MOL0     H16705   2.342   8.335   1.763  4.2144  1.6678  0.4388
  127MOL0     H16706   2.329   8.374   1.939  0.8265  0.9155  1.0306
  127MOL0     H16707   2.398   8.568   1.716 -2.2088 -0.3105  0.3423
  127MOL0     H16708   2.368   8.620   1.884  2.6633 -2.7410  3.7396
  127MOL0     H16709   2.558   8.447   1.945 -0.6509  0.2711  0.2513
  127MOL0     H16710   2.606   8.599   1.862  2.3761 -0.7695  0.5337
  127MOL0     H16711   2.602   8.475   1.641 -0.1996 -1.8377 -1.3934
  127MOL0     H16712   2.578   8.326   1.730 -0.3489  0.8178  0.1806
  127MOL0     H16713   2.814   8.519   1.769  1.5051 -1.2952 -2.0192
  127MOL0     H16714   2.796   8.374   1.859  2.3948 -2.3544 -1.4790
  127MOL0     H16715   2.864   8.417   1.563 -0.1361 -0.9515 -0.2007
  127MOL0     H16716   2.818   8.259   1.622 -0.5608 -0.2112  0.0483
  127MOL0     H16717   3.113   8.509   1.683 -3.2237  1.7969  1.7935
  127MOL0     H16718   3.397   8.383   1.740 -1.1498 -1.1815 -0.3234
  127MOL0     H16719   3.369   8.299   1.893  2.9362  0.1238 -0.1052
  127MOL0     H16720   3.247   8.574   1.859  0.6939  1.4351  1.0077
  127MOL0     H16721   3.422   8.570   1.884  0.4906  1.1293  1.8633
  127MOL0     H16722   3.374   8.432   2.103  2.4157 -0.6000 -3.4562
  127MOL0     H16723   3.333   8.596   2.105  2.2769 -0.5896  0.5324
  127MOL0     H16724   3.133   8.491   2.191 -0.3531 -1.5648 -0.0925
  127MOL0     H16725   3.131   8.387   2.052 -0.2643 -0.8228  0.0478
  127MOL0     H16726   2.880   8.444   2.086  1.6019 -0.0933  0.5766
  127MOL0     H16727   2.677   8.512   2.227  1.6260 -0.9128  2.1635
  127MOL0     H16728   2.540   8.698   2.613 -0.3561 -0.0673  1.0225
  127MOL0     H16729   2.373   8.781   2.769  0.5416 -0.9478 -0.8624
  127MOL0     H16730   2.255   9.204   2.759  2.9606 -0.2000 -0.2298
  127MOL0     H16731   2.378   9.202   2.884  0.7451 -0.2532 -0.8671
  127MOL0     H16732   2.136   9.272   2.953 -3.1820 -1.4114  0.3309
  127MOL0     H16733   2.206   9.147   3.051  0.2297  1.2698  0.0332
  127MOL0     H16734   2.045   8.992   2.917 -2.6478 -0.8550 -0.1936
  127MOL0     H16735   2.007   9.138   2.816 -0.2056  3.6304  1.8759
  127MOL0     H16736   1.947   9.129   3.103 -1.6334 -4.0784 -0.6890
  127MOL0     H16737   1.890   9.253   2.982 -0.6497 -0.7175 -1.1316
  127MOL0     H16738   1.704   9.105   3.036 -0.6774  4.6394 -1.8865
  127MOL0     H16739   1.800   8.963   2.998 -1.4068 -0.2141  0.8992
  127MOL0     H16740   1.807   9.045   2.755  0.1735 -3.3501  2.5159
  127MOL0     H16741   1.726   9.200   2.818  2.3850  0.6638  0.4949
  127MOL0     H16742   1.656   8.896   2.795 -0.6683  0.7005  1.2535
  127MOL0     H16743   1.565   8.988   2.901 -0.6447  0.0955 -0.2360
  127MOL0     H16744   1.478   9.143   2.721  0.1921 -1.2913 -1.1842
  127MOL0     H16745   1.417   8.981   2.726 -0.8261  0.7775 -1.5915
  127MOL0     H16746   2.391   9.176   2.619 -1.3650 -0.6472  0.8349
  127MOL0     H16747   2.566   9.114   2.464  2.1076 -1.2389  0.4645
  127MOL0     H16748   2.847   8.896   2.262 -1.5245  0.0478  0.2648
  127MOL0     H16749   3.036   8.841   2.129 -0.7820  1.3741  1.8756
  127MOL0     H16750   1.766   8.443   1.581  1.9681  1.7973  1.7819
  127MOL0     H16751   1.532   8.388   1.602  1.4254 -2.1910 -0.7860
  127MOL0     H16752   1.275   8.055   1.945 -1.0400 -1.7703  0.7864
  127MOL0     H16753   1.070   7.984   2.029 -1.4945 -0.6630 -0.4950
  127MOL0     H16754   0.850   7.987   2.099  0.4960  1.7119 -0.5022
  127MOL0     H16755   0.811   7.864   1.972 -1.8190 -1.4091  0.8273
  127MOL0     H16756   0.622   8.083   2.069 -1.5621 -0.3164 -0.0421
  127MOL0     H16757   0.569   7.959   1.969 -0.4338 -0.6919  1.0010
  127MOL0     H16758   0.484   7.928   2.182 -1.3184 -1.0824 -3.4173
  127MOL0     H16759   0.652   7.924   2.261 -1.0786 -2.0049  0.6108
  127MOL0     H16760   0.544   7.709   2.069  1.0811 -0.3397 -0.1524
  127MOL0     H16761   0.690   7.707   2.170 -1.0157 -2.6328  0.9434
  127MOL0     H16762   0.416   7.545   2.411  0.0926 -0.7422 -0.6892
  127MOL0     H16763   0.856   8.196   1.724 -1.1738  3.2523  0.2077
  127MOL0     H16764   1.060   8.282   1.633 -1.2289 -0.1373 -0.0078
  128MOL0     O16765   5.469   3.019   4.609  0.3010  0.3005 -0.1081
  128MOL0     C16766   5.551   2.977   4.692  0.6482 -0.1373 -0.4100
  128MOL0     O16767   5.519   2.889   4.790 -0.0141  0.0754 -0.2655
  128MOL0     C16768   5.389   2.850   4.813 -1.0913 -0.1544 -0.4492
  128MOL0     C16769   5.361   2.714   4.814  0.3752 -0.8492  0.2262
  128MOL0     C16770   5.228   2.669   4.824 -0.6305  0.3239 -0.1466
  128MOL0     C16771   5.124   2.760   4.837 -0.3547 -0.4728  0.7281
  128MOL0     O16772   5.005   2.707   4.840  0.3441 -0.5344 -0.1158
  128MOL0     C16773   4.902   2.793   4.901  0.2054 -0.4756 -0.9167
  128MOL0     C16774   4.786   2.700   4.932 -0.9542 -0.2049  0.3636
  128MOL0     C16775   4.679   2.773   5.000 -0.7061 -1.1029  0.3048
  128MOL0     C16776   4.569   2.687   5.058 -0.0115 -0.3433 -0.4906
  128MOL0     C16777   4.428   2.751   5.057 -0.1600 -0.2070 -0.0694
  128MOL0     C16778   4.370   2.749   4.921  0.5583  1.1243 -0.0389
  128MOL0     C16779   4.240   2.839   4.916  0.2803  0.8857 -0.4755
  128MOL0     C16780   4.119   2.784   5.003  0.3631  0.1811 -0.2079
  128MOL0     N16781   4.065   2.659   4.940 -0.5042 -0.5220 -0.0832
  128MOL0     C16782   4.035   2.659   4.804  0.3802 -0.0807  0.5583
  128MOL0     C16783   4.024   2.525   4.778 -0.5824 -0.2039  0.4149
  128MOL0     C16784   3.991   2.468   4.644  0.2750  0.8166 -0.2692
  128MOL0     C16785   3.846   2.426   4.635  0.7893 -0.9261  0.2580
  128MOL0     C16786   3.770   2.540   4.564  1.0774 -0.0947 -0.2896
  128MOL0     C16787   3.611   2.532   4.563 -0.1089 -0.2114 -1.0849
  128MOL0     O16788   3.583   2.437   4.456 -0.1280  0.1778 -0.7387
  128MOL0     C16789   3.451   2.438   4.416 -0.0553 -0.7511 -0.3222
  128MOL0     C16790   3.345   2.461   4.498  0.4490  0.0847  0.2565
  128MOL0     C16791   3.207   2.422   4.462 -0.6916 -0.1789 -0.6388
  128MOL0     C16792   3.187   2.372   4.337 -1.0176 -0.3558  0.3119
  128MOL0     C16793   3.053   2.337   4.293  0.1112 -0.1990 -0.5322
  128MOL0     O16794   2.957   2.351   4.388  0.0425 -0.6335 -0.1701
  128MOL0     C16795   2.825   2.311   4.372  0.6716 -0.6526  0.7379
  128MOL0     C16796   2.744   2.347   4.478 -0.2304 -0.4370  0.2343
  128MOL0     C16797   2.608   2.290   4.499 -0.2053  0.1676 -0.2856
  128MOL0     C16798   2.564   2.199   4.405 -1.3678  0.1354  0.2796
  128MOL0     O16799   2.437   2.140   4.419 -0.7469  0.7194  0.3133
  128MOL0     C16800   2.340   2.242   4.415  0.0549  0.4285  0.3425
  128MOL0     C16801   2.217   2.186   4.339  0.5916 -0.2620 -0.6546
  128MOL0     C16802   2.261   2.176   4.185 -0.3785 -0.1686  0.2765
  128MOL0     C16803   2.143   2.168   4.093 -0.1552  0.5577  0.2643
  128MOL0     C16804   2.061   2.041   4.093 -0.0010 -0.4521  0.1220
  128MOL0     C16805   1.921   2.068   4.038  0.0125 -0.0136 -0.2993
  128MOL0     C16806   1.841   1.941   4.045  0.9405  0.2533  0.0196
  128MOL0     C16807   1.745   1.945   4.176 -0.4732 -0.0537  0.3979
  128MOL0    Cl16808   1.677   1.783   4.221 -0.1051  0.0133  0.2819
  128MOL0     C16809   2.642   2.163   4.291 -0.3137  0.2370 -0.2037
  128MOL0     C16810   2.776   2.219   4.276 -0.2159  0.0453 -1.1224
  128MOL0     O16811   3.040   2.300   4.176  0.3364  0.0776  0.0706
  128MOL0     C16812   3.295   2.355   4.253 -0.8510  0.7467  0.2245
  128MOL0     C16813   3.423   2.387   4.289  0.8541 -0.3009 -0.4497
  128MOL0     N16814   4.027   2.449   4.897 -0.4148 -0.7933 -0.0316
  128MOL0     N16815   4.058   2.530   4.997 -0.3294 -0.4309  0.8281
  128MOL0     C16816   5.160   2.899   4.837  0.4314 -0.2086  0.2324
  128MOL0     C16817   5.290   2.944   4.826 -1.1624 -0.0571 -0.3257
  128MOL0     C16818   5.689   3.031   4.688 -0.3246 -0.0713  0.6978
  128MOL0     C16819   5.734   3.113   4.589  0.2507  0.2060  0.0813
  128MOL0     C16820   5.858   3.167   4.586 -0.3376  0.6622 -0.0731
  128MOL0     C16821   5.946   3.141   4.691  0.3815 -0.3461  0.1663
  128MOL0     O16822   6.068   3.192   4.704 -1.0267  0.9310  0.2490
  128MOL0     C16823   6.110   3.311   4.643  0.0783 -0.8962 -0.0384
  128MOL0     C16824   6.229   3.373   4.712  0.8782 -0.0012 -0.0403
  128MOL0     C16825   6.284   3.507   4.659 -0.0954 -0.0482 -0.0905
  128MOL0     C16826   6.423   3.516   4.688 -0.2878 -0.1770 -0.8755
  128MOL0     C16827   6.460   3.470   4.818  0.3783 -0.4207 -0.4913
  128MOL0     C16828   6.478   3.419   4.923  0.8141  0.5807  0.1915
  128MOL0     C16829   5.908   3.052   4.785  0.0519  0.6915  0.1326
  128MOL0     C16830   5.781   2.998   4.792 -0.6678  0.8642 -0.4000
  128MOL0     H16831   5.448   2.652   4.794  2.3770  1.8771 -0.2050
  128MOL0     H16832   5.195   2.567   4.840 -0.9754  0.2634 -1.1729
  128MOL0     H16833   4.871   2.877   4.838  0.4894 -1.1744 -2.0096
  128MOL0     H16834   4.929   2.840   4.996 -0.2798 -0.7646 -0.6296
  128MOL0     H16835   4.825   2.612   4.983 -1.8642 -0.3058  0.9155
  128MOL0     H16836   4.751   2.657   4.837  0.5275  1.1389 -0.8400
  128MOL0     H16837   4.638   2.844   4.927 -3.2828 -2.9619 -0.1993
  128MOL0     H16838   4.722   2.827   5.085 -0.1372 -5.5970  3.1681
  128MOL0     H16839   4.560   2.590   5.008 -6.2555 -0.9891  1.0144
  128MOL0     H16840   4.597   2.679   5.163 -1.9158  0.1503  0.0864
  128MOL0     H16841   4.446   2.856   5.083  2.9019 -1.0648  1.7405
  128MOL0     H16842   4.358   2.708   5.128 -5.0291  1.0403 -3.5907
  128MOL0     H16843   4.345   2.645   4.899  0.2407  1.2102 -0.0793
  128MOL0     H16844   4.438   2.781   4.842 -2.6211  1.4881 -2.8145
  128MOL0     H16845   4.255   2.938   4.962 -1.2296  0.9361 -0.0377
  128MOL0     H16846   4.213   2.851   4.811 -0.3932 -1.5336 -0.6247
  128MOL0     H16847   4.046   2.863   4.984  3.0288  2.3784 -2.2273
  128MOL0     H16848   4.142   2.777   5.110 -0.4084  1.4784  0.0703
  128MOL0     H16849   4.041   2.748   4.742  2.5667 -0.0204  0.7650
  128MOL0     H16850   4.055   2.381   4.627 -1.3822 -0.5743  0.2991
  128MOL0     H16851   4.010   2.532   4.557  2.0905 -1.3955 -1.6303
  128MOL0     H16852   3.810   2.413   4.738 -0.5351 -0.4770 -0.1342
  128MOL0     H16853   3.835   2.335   4.575  0.1272 -1.2366  0.8332
  128MOL0     H16854   3.803   2.636   4.607  3.0534 -1.5205  1.6588
  128MOL0     H16855   3.801   2.537   4.460 -0.8343 -1.9714 -0.8608
  128MOL0     H16856   3.564   2.631   4.552 -3.6465 -1.5264  0.4329
  128MOL0     H16857   3.582   2.500   4.664  0.1574 -0.6960 -1.1610
  128MOL0     H16858   3.367   2.511   4.592  1.8380  0.7191 -0.3851
  128MOL0     H16859   3.131   2.445   4.537 -1.3302  0.3323 -1.4227
  128MOL0     H16860   2.787   2.410   4.555  1.2589 -0.9964 -0.0961
  128MOL0     H16861   2.542   2.324   4.578  1.6156  1.1714  0.8879
  128MOL0     H16862   2.372   2.332   4.361  0.4711 -0.0387 -0.2057
  128MOL0     H16863   2.308   2.255   4.519  0.2178 -1.0711  0.5949
  128MOL0     H16864   2.145   2.268   4.339  2.5204  1.5656  1.2898
  128MOL0     H16865   2.167   2.097   4.377 -0.3242  1.2359  1.9225
  128MOL0     H16866   2.332   2.093   4.180  1.2337  1.0430  2.0980
  128MOL0     H16867   2.320   2.262   4.154 -1.2689 -0.1496 -1.5010
  128MOL0     H16868   2.079   2.254   4.116 -0.1078 -0.0753  3.2754
  128MOL0     H16869   2.183   2.181   3.992 -0.6586 -1.9409 -0.3146
  128MOL0     H16870   2.056   1.995   4.192  0.9326  1.9143  1.3574
  128MOL0     H16871   2.113   1.968   4.030  0.9626 -0.5283  0.9687
  128MOL0     H16872   1.937   2.111   3.939  3.0901  0.8428  0.4404
  128MOL0     H16873   1.880   2.152   4.094 -0.7470  1.1184 -2.4426
  128MOL0     H16874   1.789   1.912   3.953  0.9310  2.2658 -0.6792
  128MOL0     H16875   1.916   1.866   4.070  1.4201  1.2291  1.7192
  128MOL0     H16876   1.655   2.006   4.160 -0.7590 -0.8927 -1.4018
  128MOL0     H16877   1.805   1.992   4.255  2.0181 -0.4410 -1.1620
  128MOL0     H16878   2.593   2.094   4.224  2.9138 -0.8718 -1.6050
  128MOL0     H16879   2.840   2.185   4.195  0.4115  0.5642 -0.8518
  128MOL0     H16880   3.284   2.296   4.162  1.3348 -2.0223  1.5972
  128MOL0     H16881   3.503   2.357   4.222  2.6582 -0.6046  1.7015
  128MOL0     H16882   5.082   2.975   4.836 -0.0445 -0.6937 -0.1809
  128MOL0     H16883   5.309   3.050   4.820 -4.5748  0.5835 -2.5339
  128MOL0     H16884   5.665   3.148   4.512 -3.6590 -2.0730  2.2347
  128MOL0     H16885   5.900   3.227   4.506 -2.4923 -0.3285 -2.0628
  128MOL0     H16886   6.023   3.378   4.639 -0.9827 -2.2743 -0.9645
  128MOL0     H16887   6.126   3.297   4.536 -1.7800  1.7044 -0.7631
  128MOL0     H16888   6.181   3.385   4.809 -0.0906 -0.9111 -0.3856
  128MOL0     H16889   6.304   3.295   4.728 -1.8775 -2.3985  2.5558
  128MOL0     H16890   6.231   3.587   4.711 -0.2572  0.5278 -1.1055
  128MOL0     H16891   6.275   3.529   4.552  1.6326  0.5999 -0.1265
  128MOL0     H16892   6.482   3.459   4.615  1.2417  2.0143 -1.4349
  128MOL0     H16893   6.465   3.616   4.672  2.2721 -1.0131  0.0613
  128MOL0     H16894   6.494   3.378   5.021  2.2880  2.3349  0.7570
  128MOL0     H16895   5.972   3.019   4.866 -1.1331 -1.6726  0.2202
  128MOL0     H16896   5.754   2.927   4.870  1.7505 -0.1673 -0.4376
  129MOL0     O16897   4.516   0.939   2.273 -0.4579 -0.6316 -0.3526
  129MOL0     C16898   4.619   0.879   2.308  0.4622  0.5316 -0.3504
  129MOL0     O16899   4.633   0.747   2.325 -0.2737 -0.0815  0.3681
  129MOL0     C16900   4.532   0.650   2.316 -0.1435 -0.6459 -0.4343
  129MOL0     C16901   4.399   0.674   2.277 -0.7031 -0.5404  0.9066
  129MOL0     C16902   4.313   0.565   2.284 -0.8449  0.1552  0.3121
  129MOL0     C16903   4.349   0.439   2.323 -0.7158  0.7936 -1.0828
  129MOL0     O16904   4.249   0.350   2.327 -0.0414  0.4679 -0.6180
  129MOL0     C16905   4.238   0.258   2.437  0.2294 -0.3901  0.0429
  129MOL0     C16906   4.162   0.135   2.388 -0.3527 -0.1086 -0.0745
  129MOL0     C16907   4.010   0.154   2.359  1.3682 -0.4608 -0.6567
  129MOL0     C16908   3.945   0.010   2.354 -1.0848  0.4232  0.4398
  129MOL0     C16909   3.793   0.026   2.321 -0.2306 -0.5121 -0.2251
  129MOL0     C16910   3.702   0.066   2.435  0.1216 -0.0332  0.0373
  129MOL0     C16911   3.556   0.101   2.400 -0.9142  0.7719 -0.3370
  129MOL0     C16912   3.490  -0.034   2.354  0.1008  1.0699 -0.1295
  129MOL0     N16913   3.347  -0.023   2.351  0.2035 -0.2356 -0.0007
  129MOL0     C16914   3.256  -0.039   2.458 -0.7263  0.1215  0.2055
  129MOL0     C16915   3.140   0.006   2.408  0.2037  0.2167  0.5460
  129MOL0     C16916   3.018  -0.000   2.490  0.3023 -0.0453 -0.0312
  129MOL0     C16917   2.911   0.077   2.421 -0.0292  0.0995  0.1922
  129MOL0     C16918   2.818  -0.026   2.337  0.3649  0.4428  0.2973
  129MOL0     C16919   2.680   0.024   2.307 -0.5490 -0.2379 -0.1840
  129MOL0     O16920   2.603   0.062   2.425  0.0542 -0.1115 -0.4096
  129MOL0     C16921   2.476   0.121   2.402  0.1616 -0.0951  0.3463
  129MOL0     C16922   2.431   0.219   2.498  0.1162 -0.1592  0.4454
  129MOL0     C16923   2.314   0.294   2.501 -0.4691 -0.0196  0.1834
  129MOL0     C16924   2.218   0.259   2.398 -0.0619 -0.6316 -0.2614
  129MOL0     C16925   2.086   0.328   2.388 -0.5032  0.3906  0.2020
  129MOL0     O16926   2.065   0.444   2.461  0.0640  0.6064  0.7112
  129MOL0     C16927   1.957   0.533   2.436 -0.8668  0.6077 -0.3063
  129MOL0     C16928   1.852   0.512   2.344 -0.2453  0.1387 -0.1496
  129MOL0     C16929   1.741   0.597   2.337 -0.2384  0.3016  0.2569
  129MOL0     C16930   1.736   0.699   2.419 -0.0515  0.2107 -1.0351
  129MOL0     O16931   1.628   0.788   2.399  0.4259  0.1560  0.1879
  129MOL0     C16932   1.526   0.801   2.502 -0.0429 -0.4872  0.3995
  129MOL0     C16933   1.391   0.751   2.445  0.0078  0.1225 -0.2165
  129MOL0     C16934   1.343   0.870   2.365  0.2391  0.4821 -0.1348
  129MOL0     C16935   1.222   0.838   2.280 -0.4134 -0.5861 -0.3455
  129MOL0     C16936   1.092   0.804   2.366 -0.3336  0.4800  1.0210
  129MOL0     C16937   0.975   0.776   2.273  0.1334 -0.4400  0.5315
  129MOL0     C16938   0.843   0.743   2.339 -0.3455 -0.0905  0.0817
  129MOL0     C16939   0.733   0.842   2.328  0.7255 -1.0907 -0.3765
  129MOL0    Cl16940   0.757   1.006   2.401 -0.3402 -0.2163 -0.1850
  129MOL0     C16941   1.833   0.730   2.513 -0.6306  0.5324  0.0027
  129MOL0     C16942   1.945   0.642   2.523 -0.2506 -0.5358  1.4373
  129MOL0     O16943   2.010   0.264   2.316  0.5685  0.3747 -0.2565
  129MOL0     C16944   2.258   0.159   2.298  0.4306 -0.8818 -0.1673
  129MOL0     C16945   2.382   0.096   2.297 -0.6316 -0.3334  0.7272
  129MOL0     N16946   3.166   0.053   2.277  0.0983 -0.5696 -0.1599
  129MOL0     N16947   3.292   0.049   2.252  0.0739 -0.1066 -0.3549
  129MOL0     C16948   4.481   0.423   2.360  1.0165  0.0511  0.5161
  129MOL0     C16949   4.573   0.528   2.358 -0.0830 -0.9749 -0.8027
  129MOL0     C16950   4.735   0.960   2.356  0.3702  0.1773  0.2645
  129MOL0     C16951   4.740   1.094   2.326 -0.3805 -0.8682 -0.1361
  129MOL0     C16952   4.844   1.167   2.364 -0.5362  0.0848  0.2164
  129MOL0     C16953   4.955   1.114   2.430  0.0109  0.3222 -1.0119
  129MOL0     O16954   5.077   1.183   2.451  0.9955  0.0212 -0.1289
  129MOL0     C16955   5.069   1.326   2.448  0.3397 -1.3431  0.0166
  129MOL0     C16956   4.993   1.388   2.564  0.0360  0.2625 -0.2438
  129MOL0     C16957   4.987   1.539   2.568 -0.3777 -0.0453  0.5832
  129MOL0     C16958   4.866   1.596   2.642 -0.4493  0.5021 -0.7729
  129MOL0     C16959   4.842   1.521   2.773  0.6275 -0.0116  0.3053
  129MOL0     C16960   4.840   1.478   2.883  0.1690  0.4665 -0.1249
  129MOL0     C16961   4.951   0.982   2.470  0.3856 -0.1178 -0.0306
  129MOL0     C16962   4.836   0.908   2.441  1.2191 -0.7049  0.2547
  129MOL0     H16963   4.363   0.774   2.253  1.1663  0.3422  1.5912
  129MOL0     H16964   4.208   0.579   2.259 -0.3040  0.2632 -2.1543
  129MOL0     H16965   4.181   0.310   2.515 -0.1919  1.9305 -1.7000
  129MOL0     H16966   4.338   0.232   2.474 -0.6195 -4.4645 -0.0219
  129MOL0     H16967   4.179   0.063   2.468 -3.2835 -1.3349 -0.3996
  129MOL0     H16968   4.205   0.094   2.296 -3.0106  1.4676 -2.1718
  129MOL0     H16969   3.989   0.213   2.269  0.9608  1.5509  0.6995
  129MOL0     H16970   3.952   0.199   2.440  1.1059 -1.7923 -0.0883
  129MOL0     H16971   3.989  -0.046   2.270  1.2167  0.9483  1.2276
  129MOL0     H16972   3.951  -0.035   2.453  3.6725 -2.4658 -0.8334
  129MOL0     H16973   3.750  -0.068   2.284 -0.6736 -0.4507  0.1185
  129MOL0     H16974   3.774   0.107   2.249 -0.3525 -0.4998 -0.1789
  129MOL0     H16975   3.746   0.153   2.483 -0.5980 -0.6269  1.8583
  129MOL0     H16976   3.698  -0.015   2.509  1.6597 -1.5548 -1.4295
  129MOL0     H16977   3.519   0.147   2.493 -1.3661  1.1247 -0.6906
  129MOL0     H16978   3.551   0.177   2.321  0.4674  1.4230  0.1706
  129MOL0     H16979   3.516  -0.107   2.432  0.0146  0.0609 -1.0220
  129MOL0     H16980   3.532  -0.068   2.258  1.7559  0.9126  0.6082
  129MOL0     H16981   3.278  -0.087   2.553 -3.1732 -2.4728 -0.3838
  129MOL0     H16982   3.042   0.056   2.581  1.9209 -1.0863  0.2398
  129MOL0     H16983   2.989  -0.101   2.522  1.6848  0.3759  2.8557
  129MOL0     H16984   2.949   0.149   2.348  1.9142 -2.5092 -1.5256
  129MOL0     H16985   2.851   0.124   2.499 -1.0767 -1.7474  0.5503
  129MOL0     H16986   2.872  -0.043   2.244  1.9708 -4.2449  1.8300
  129MOL0     H16987   2.813  -0.120   2.392  2.6674 -0.2150 -0.5051
  129MOL0     H16988   2.629  -0.051   2.244 -0.5200  0.5365 -1.1530
  129MOL0     H16989   2.692   0.118   2.253 -3.1404 -0.0332 -0.5475
  129MOL0     H16990   2.496   0.222   2.585 -1.9552 -1.1470  2.1430
  129MOL0     H16991   2.293   0.367   2.579 -2.0395  1.0916 -1.2162
  129MOL0     H16992   1.858   0.429   2.274  2.5805  0.5361 -0.4860
  129MOL0     H16993   1.670   0.584   2.256 -1.9125 -1.1978  1.8889
  129MOL0     H16994   1.518   0.907   2.527 -1.8398 -0.7855  1.2938
  129MOL0     H16995   1.555   0.739   2.588  0.8252 -2.5819 -1.3116
  129MOL0     H16996   1.326   0.742   2.532  1.1051  1.5210  0.7909
  129MOL0     H16997   1.391   0.664   2.379 -2.8532 -0.5173  0.4850
  129MOL0     H16998   1.426   0.899   2.300 -0.5902  1.5449 -0.7635
  129MOL0     H16999   1.312   0.952   2.430  0.7351  0.1067  0.5912
  129MOL0     H17000   1.217   0.927   2.217 -2.1056 -1.5437 -1.6654
  129MOL0     H17001   1.236   0.754   2.211 -1.4199 -2.0218  1.1047
  129MOL0     H17002   1.065   0.889   2.430 -0.1639  3.2603 -2.3434
  129MOL0     H17003   1.116   0.715   2.424 -0.0871  0.7928  1.4048
  129MOL0     H17004   0.995   0.696   2.202 -0.9869  0.1472 -0.4815
  129MOL0     H17005   0.960   0.864   2.209  2.4599 -0.6167 -0.3327
  129MOL0     H17006   0.799   0.658   2.286  0.2968 -0.4447  0.0988
  129MOL0     H17007   0.865   0.704   2.439  0.4201  0.9768  0.3473
  129MOL0     H17008   0.644   0.802   2.377 -0.3854  0.4595 -1.0734
  129MOL0     H17009   0.712   0.871   2.225  0.3263  3.6545  0.8332
  129MOL0     H17010   1.831   0.819   2.575  0.9956 -0.9436  2.3637
  129MOL0     H17011   2.026   0.647   2.596  1.6969  3.7708 -0.6504
  129MOL0     H17012   2.189   0.137   2.217 -1.3902 -1.5950  1.4975
  129MOL0     H17013   2.394   0.015   2.226  0.0328 -2.1549  2.7801
  129MOL0     H17014   4.517   0.327   2.397  0.8268 -1.2692 -2.4909
  129MOL0     H17015   4.673   0.510   2.395 -1.2802  0.1818  3.6218
  129MOL0     H17016   4.665   1.144   2.265  0.3735  0.9758  0.3890
  129MOL0     H17017   4.836   1.270   2.331  0.6490  0.4834  1.0881
  129MOL0     H17018   5.026   1.362   2.354  0.2733  3.9976  1.7546
  129MOL0     H17019   5.164   1.379   2.450  0.3849 -1.3998 -0.6343
  129MOL0     H17020   4.890   1.352   2.572 -0.7071  2.3352  0.1103
  129MOL0     H17021   5.047   1.354   2.652  2.4052  3.0616 -0.4791
  129MOL0     H17022   4.980   1.573   2.464  3.0064 -0.6273  0.0603
  129MOL0     H17023   5.082   1.576   2.607 -0.0724 -0.3226  0.1193
  129MOL0     H17024   4.880   1.701   2.670  2.8121 -0.7156  3.2327
  129MOL0     H17025   4.783   1.583   2.572 -1.0513  0.7480 -0.1139
  129MOL0     H17026   4.867   1.419   2.968  1.2412 -0.4142 -1.0397
  129MOL0     H17027   5.038   0.943   2.523  1.3730  3.0649  0.9410
  129MOL0     H17028   4.828   0.803   2.465 -0.4288 -1.0621 -1.6047
  130MOL0     O17029   4.273   4.755   8.967 -0.6984 -0.5077  0.7043
  130MOL0     C17030   4.355   4.688   9.022 -0.3557  0.1237 -0.4070
  130MOL0     O17031   4.493   4.716   9.040 -0.1018 -0.2525  0.4171
  130MOL0     C17032   4.548   4.810   8.951 -0.1397 -1.0905  0.0534
  130MOL0     C17033   4.649   4.898   8.992 -0.3901 -0.1575 -0.3572
  130MOL0     C17034   4.732   4.974   8.910 -0.6392 -0.3437 -0.2529
  130MOL0     C17035   4.702   4.963   8.776  0.0343 -0.3773  0.2781
  130MOL0     O17036   4.784   5.033   8.693 -0.3940 -0.2044 -0.8844
  130MOL0     C17037   4.728   5.140   8.622 -0.7970  0.3597 -0.0358
  130MOL0     C17038   4.661   5.248   8.700  0.0667  0.0656  0.1481
  130MOL0     C17039   4.584   5.341   8.612  0.0391  0.0675  0.2611
  130MOL0     C17040   4.456   5.286   8.541 -0.4504 -1.3247  0.0434
  130MOL0     C17041   4.366   5.391   8.478  0.5647  0.4756 -0.5731
  130MOL0     C17042   4.223   5.389   8.537 -0.4488  0.3237  0.3208
  130MOL0     C17043   4.142   5.286   8.465  0.5601 -0.0566  0.1647
  130MOL0     C17044   4.002   5.270   8.519  0.1501 -0.2928 -0.1885
  130MOL0     N17045   3.922   5.385   8.483 -0.0468 -0.1526  0.1762
  130MOL0     C17046   3.866   5.409   8.357  0.3354 -0.0159 -0.2587
  130MOL0     C17047   3.850   5.549   8.352 -0.2447  0.2135 -0.0548
  130MOL0     C17048   3.802   5.624   8.239  0.9942 -0.0071 -0.2701
  130MOL0     C17049   3.653   5.662   8.264 -0.1335 -0.6937  0.1143
  130MOL0     C17050   3.558   5.578   8.184 -0.2143 -0.3860 -0.9310
  130MOL0     C17051   3.421   5.645   8.199 -0.7336 -0.2543 -0.4286
  130MOL0     O17052   3.419   5.770   8.120 -0.3011  1.0345 -0.2387
  130MOL0     C17053   3.300   5.840   8.120  0.6447  0.1577 -0.2435
  130MOL0     C17054   3.304   5.971   8.077 -0.5173 -0.4057  0.0677
  130MOL0     C17055   3.189   6.045   8.070  0.0564 -0.2436  0.0847
  130MOL0     C17056   3.060   6.002   8.119  0.1848 -0.5961  0.0262
  130MOL0     C17057   2.932   6.089   8.121 -0.8346 -0.0117  0.8172
  130MOL0     O17058   2.812   6.036   8.142  0.1954  0.0911  0.3034
  130MOL0     C17059   2.709   6.123   8.153  0.2745  0.7092  0.0151
  130MOL0     C17060   2.590   6.086   8.080  0.1187 -0.5141 -0.9017
  130MOL0     C17061   2.475   6.162   8.109 -0.0130 -0.6497  0.7071
  130MOL0     C17062   2.479   6.275   8.192  0.6249 -0.1140 -0.0271
  130MOL0     O17063   2.358   6.345   8.208 -0.4336  0.6269 -0.4792
  130MOL0     C17064   2.349   6.436   8.320 -0.3454 -0.1839  0.3357
  130MOL0     C17065   2.204   6.492   8.325 -0.4748 -0.4901 -0.6116
  130MOL0     C17066   2.129   6.383   8.398  0.7386  0.0669  0.7527
  130MOL0     C17067   1.988   6.441   8.429 -0.0755 -0.0301 -0.5966
  130MOL0     C17068   1.895   6.338   8.495 -0.3552  1.1647  0.1081
  130MOL0     C17069   1.753   6.389   8.545 -0.3128  0.3675  0.4544
  130MOL0     C17070   1.669   6.285   8.618 -0.4410 -0.4019 -0.7763
  130MOL0     C17071   1.549   6.351   8.686  0.9806 -0.2425 -0.7981
  130MOL0    Cl17072   1.431   6.214   8.737 -0.0096  0.2882 -0.1376
  130MOL0     C17073   2.600   6.309   8.247  0.0268  0.0014 -0.0704
  130MOL0     C17074   2.713   6.229   8.238  0.2762  0.5523  0.9496
  130MOL0     O17075   2.954   6.204   8.091  0.0719  0.5696 -0.5519
  130MOL0     C17076   3.061   5.873   8.160 -0.4798  0.1046 -0.0814
  130MOL0     C17077   3.172   5.791   8.170  0.2681  0.7793  0.6298
  130MOL0     N17078   3.897   5.603   8.467  0.2626 -0.7041 -0.6221
  130MOL0     N17079   3.928   5.501   8.542 -0.3121 -1.0029  0.5846
  130MOL0     C17080   4.602   4.884   8.731  0.1020  0.0178  0.0826
  130MOL0     C17081   4.531   4.798   8.819  0.3378 -0.0098  0.6889
  130MOL0     C17082   4.303   4.557   9.069 -0.2025 -0.1466  0.2723
  130MOL0     C17083   4.373   4.477   9.160  0.6100 -0.3726 -0.0811
  130MOL0     C17084   4.312   4.370   9.221  0.2375 -0.0470 -0.4084
  130MOL0     C17085   4.181   4.344   9.204  0.5148 -0.8720  0.5811
  130MOL0     O17086   4.141   4.239   9.291 -0.3205 -0.1624  0.8109
  130MOL0     C17087   4.035   4.155   9.257 -0.0068  0.4486 -0.1143
  130MOL0     C17088   4.028   4.044   9.366 -0.5837 -0.4936 -0.6954
  130MOL0     C17089   3.975   3.914   9.315  0.2757 -0.7340 -0.2914
  130MOL0     C17090   3.826   3.910   9.288  0.5540 -0.9193 -0.2016
  130MOL0     C17091   3.750   3.952   9.403  0.2534  0.0136 -0.1873
  130MOL0     C17092   3.669   3.979   9.495 -0.4277 -0.0900  0.5849
  130MOL0     C17093   4.109   4.417   9.108 -0.0353  0.3077 -0.2586
  130MOL0     C17094   4.169   4.519   9.037 -0.6496  0.2484 -0.8004
  130MOL0     H17095   4.672   4.899   9.098 -1.6388 -1.6462 -0.0389
  130MOL0     H17096   4.811   5.039   8.946 -0.6181  0.2297 -1.2801
  130MOL0     H17097   4.661   5.114   8.540 -1.2738  2.7706 -0.4754
  130MOL0     H17098   4.811   5.190   8.571  0.8657  0.2888  2.4291
  130MOL0     H17099   4.735   5.301   8.760  3.4313 -3.5030 -0.4689
  130MOL0     H17100   4.588   5.203   8.768  1.7519  2.1937  3.6503
  130MOL0     H17101   4.658   5.376   8.540  2.6552 -3.3539  1.0421
  130MOL0     H17102   4.558   5.429   8.673  1.2630  0.6237  0.0112
  130MOL0     H17103   4.490   5.220   8.460  1.3207  1.1057 -1.3352
  130MOL0     H17104   4.401   5.236   8.621 -0.8185  1.3436  1.5759
  130MOL0     H17105   4.362   5.373   8.370  0.5452  0.4862 -0.5738
  130MOL0     H17106   4.421   5.485   8.492  3.2908 -1.1546  0.4821
  130MOL0     H17107   4.176   5.482   8.503 -0.1871 -0.1064 -1.3208
  130MOL0     H17108   4.215   5.372   8.644 -0.6835 -2.5844 -0.0700
  130MOL0     H17109   4.135   5.321   8.361  1.0045 -1.2383 -0.2853
  130MOL0     H17110   4.186   5.185   8.461  0.9624  0.1485 -2.0517
  130MOL0     H17111   4.014   5.272   8.628  0.6431 -0.9712 -0.2147
  130MOL0     H17112   3.963   5.175   8.480  1.6046 -0.3045 -1.7239
  130MOL0     H17113   3.864   5.338   8.275 -1.8609 -0.7117  0.3421
  130MOL0     H17114   3.808   5.580   8.139  0.4359  0.1365 -0.3743
  130MOL0     H17115   3.865   5.714   8.238  0.9065  0.1949  3.2178
  130MOL0     H17116   3.652   5.760   8.216  0.7810 -0.3997  0.6644
  130MOL0     H17117   3.627   5.660   8.370  1.0150 -0.0243  0.4235
  130MOL0     H17118   3.595   5.577   8.081 -0.6496 -0.2579 -1.0930
  130MOL0     H17119   3.554   5.481   8.235  1.0038 -1.0991 -2.1020
  130MOL0     H17120   3.410   5.671   8.304  2.2851  0.9564 -0.3237
  130MOL0     H17121   3.340   5.577   8.170 -0.8881 -0.1872 -0.1596
  130MOL0     H17122   3.396   6.019   8.048 -0.2254 -0.7962  0.3396
  130MOL0     H17123   3.197   6.147   8.036 -0.7883  0.4653  1.8829
  130MOL0     H17124   2.596   6.004   8.010 -2.2492 -0.6652 -0.9947
  130MOL0     H17125   2.385   6.136   8.054 -0.0489 -0.1937  0.5437
  130MOL0     H17126   2.415   6.521   8.304 -1.7701  1.3810  2.3829
  130MOL0     H17127   2.375   6.393   8.417  1.0269  1.0364  0.5448
  130MOL0     H17128   2.177   6.526   8.225  5.8733  3.0552 -1.6647
  130MOL0     H17129   2.209   6.582   8.387 -0.4707 -1.1876  0.4340
  130MOL0     H17130   2.175   6.355   8.494 -2.3412 -0.8308  2.1160
  130MOL0     H17131   2.124   6.301   8.327  1.7737  0.1673  0.5577
  130MOL0     H17132   1.992   6.529   8.493  0.2711  0.0752 -0.7610
  130MOL0     H17133   1.943   6.478   8.337 -1.5795 -1.0912 -0.3254
  130MOL0     H17134   1.956   6.298   8.576  1.0126 -1.7919 -2.1812
  130MOL0     H17135   1.877   6.256   8.424  0.3357  2.4596 -1.6405
  130MOL0     H17136   1.697   6.416   8.455  0.7685  1.5311  0.1081
  130MOL0     H17137   1.770   6.483   8.599 -0.2171  2.6338 -3.1546
  130MOL0     H17138   1.629   6.208   8.552 -1.2746  0.5789 -1.4445
  130MOL0     H17139   1.734   6.245   8.697 -0.1432 -1.4842 -1.5506
  130MOL0     H17140   1.492   6.410   8.614 -0.5240 -1.4561 -0.6543
  130MOL0     H17141   1.578   6.425   8.762 -2.2803 -0.2493  0.6185
  130MOL0     H17142   2.613   6.396   8.310  0.2279 -0.8051  1.0358
  130MOL0     H17143   2.798   6.256   8.301  0.1983  1.6327  0.6069
  130MOL0     H17144   2.970   5.840   8.210  2.0193 -2.2734  3.3853
  130MOL0     H17145   3.153   5.695   8.216  1.7769 -0.2083 -0.6990
  130MOL0     H17146   4.566   4.885   8.629  2.3187  0.5811 -0.7483
  130MOL0     H17147   4.459   4.729   8.778 -0.0988 -0.8078  2.6721
  130MOL0     H17148   4.474   4.503   9.190  0.3974  1.5116 -0.8919
  130MOL0     H17149   4.358   4.303   9.293 -2.5974 -0.3696  1.2541
  130MOL0     H17150   4.054   4.106   9.161  0.3451  2.2937 -1.0231
  130MOL0     H17151   3.939   4.206   9.248 -0.2992 -0.1754 -0.6308
  130MOL0     H17152   4.134   4.028   9.391 -0.6627  0.7009  0.5626
  130MOL0     H17153   3.974   4.071   9.457 -0.0286 -3.5956  0.6887
  130MOL0     H17154   3.989   3.842   9.395  2.0751 -1.7460 -1.4492
  130MOL0     H17155   4.029   3.881   9.226  1.3469 -0.0539  0.0936
  130MOL0     H17156   3.803   3.980   9.208 -1.1095 -0.1918  0.8630
  130MOL0     H17157   3.799   3.806   9.263  0.9641 -1.1637  0.3532
  130MOL0     H17158   3.600   3.991   9.576  1.0775 -1.0709  2.0862
  130MOL0     H17159   4.004   4.397   9.094  0.3418 -1.3989 -0.7995
  130MOL0     H17160   4.116   4.580   8.964 -0.9899  0.9556  0.0183
  131MOL0     O17161   7.828   6.099   3.267  0.2779  0.3356 -0.1392
  131MOL0     C17162   7.893   6.009   3.313 -0.3168  0.6127  0.0776
  131MOL0     O17163   7.847   5.898   3.378  0.2060  0.8476 -0.1548
  131MOL0     C17164   7.709   5.877   3.372 -0.3133  0.4011 -0.2653
  131MOL0     C17165   7.621   5.967   3.437  0.0806 -0.1133  0.6707
  131MOL0     C17166   7.492   5.921   3.447  0.3757  0.6347 -0.3393
  131MOL0     C17167   7.438   5.811   3.381 -0.1588  0.0711 -0.0825
  131MOL0     O17168   7.305   5.784   3.399  0.5494 -0.1012 -0.2485
  131MOL0     C17169   7.251   5.658   3.354  0.7799  0.4792  0.3123
  131MOL0     C17170   7.095   5.645   3.385 -0.2383 -0.3675  0.2795
  131MOL0     C17171   7.062   5.505   3.350 -0.8256 -0.3801 -0.0481
  131MOL0     C17172   6.915   5.467   3.381 -0.3631  0.3970 -1.0335
  131MOL0     C17173   6.883   5.330   3.319  0.3605  0.2395  0.0745
  131MOL0     C17174   6.751   5.268   3.358 -0.3904  0.1173 -0.0019
  131MOL0     C17175   6.625   5.345   3.311  0.1065 -0.4269 -0.4337
  131MOL0     C17176   6.517   5.332   3.418 -0.0940  0.0752  1.1307
  131MOL0     N17177   6.380   5.350   3.363 -0.1475  0.0224 -0.4590
  131MOL0     C17178   6.315   5.294   3.254 -0.7375  1.3492 -0.2181
  131MOL0     C17179   6.186   5.330   3.265  0.0519 -0.7568 -0.2306
  131MOL0     C17180   6.095   5.335   3.134 -0.4063  0.2270  0.2102
  131MOL0     C17181   5.954   5.298   3.190  0.4725 -0.2555  0.3346
  131MOL0     C17182   5.857   5.264   3.074 -0.2706  0.4003 -0.0031
  131MOL0     C17183   5.709   5.214   3.126 -0.6906 -0.3645  0.2244
  131MOL0     O17184   5.633   5.185   3.007  0.7365  0.9449  0.4285
  131MOL0     C17185   5.498   5.185   3.031 -0.0340 -0.2049  1.0576
  131MOL0     C17186   5.419   5.229   2.923 -0.0801 -0.2472 -0.1976
  131MOL0     C17187   5.275   5.203   2.933 -0.4331 -0.2309 -0.0013
  131MOL0     C17188   5.219   5.143   3.046  0.1260  0.5597  0.5523
  131MOL0     C17189   5.071   5.126   3.058 -0.1511  0.0949 -0.1872
  131MOL0     O17190   5.006   5.125   2.934 -0.3959  0.2420  0.9727
  131MOL0     C17191   4.869   5.106   2.926  0.6819  0.0416  0.7830
  131MOL0     C17192   4.801   5.206   2.845 -0.6844  0.9549 -0.0980
  131MOL0     C17193   4.667   5.186   2.819 -0.0041  0.0895 -0.3985
  131MOL0     C17194   4.598   5.082   2.874  0.4629 -0.0864 -0.4582
  131MOL0     O17195   4.461   5.090   2.889 -0.2455 -0.0943 -0.0851
  131MOL0     C17196   4.390   5.198   2.824  0.4212  0.0246  0.0114
  131MOL0     C17197   4.234   5.202   2.853  0.1697  0.4656  0.5388
  131MOL0     C17198   4.208   5.257   2.993 -0.4301  0.5617 -0.3967
  131MOL0     C17199   4.061   5.278   3.012  1.1445  0.1642 -0.4224
  131MOL0     C17200   4.038   5.337   3.149  0.4889 -0.0030 -0.9313
  131MOL0     C17201   3.887   5.355   3.186 -0.6669 -0.3974 -0.2037
  131MOL0     C17202   3.834   5.483   3.139  0.2298  0.2329  0.1911
  131MOL0     C17203   3.676   5.487   3.161 -0.5860  1.0168  0.2814
  131MOL0    Cl17204   3.614   5.610   3.036 -0.1826 -0.1153 -0.0249
  131MOL0     C17205   4.662   4.989   2.951 -0.3938  0.5347 -0.1004
  131MOL0     C17206   4.801   4.995   2.977 -0.2038 -0.4179  0.1231
  131MOL0     O17207   5.026   5.105   3.170  0.5383  0.2773 -0.0867
  131MOL0     C17208   5.306   5.116   3.149 -0.1620  0.2225 -0.0934
  131MOL0     C17209   5.441   5.133   3.142 -0.0410 -0.3963  0.1475
  131MOL0     N17210   6.169   5.408   3.374 -0.0866 -0.5615 -0.4662
  131MOL0     N17211   6.287   5.426   3.425 -0.1016  0.0426  0.0527
  131MOL0     C17212   7.530   5.726   3.313  0.3046 -0.5053  0.3454
  131MOL0     C17213   7.662   5.754   3.313 -0.2760 -0.7974  0.1242
  131MOL0     C17214   8.042   6.029   3.319 -0.8581  0.0949 -0.4663
  131MOL0     C17215   8.120   5.945   3.414 -0.1612 -0.3214  0.3066
  131MOL0     C17216   8.264   5.960   3.406 -0.4770  0.4377  0.5442
  131MOL0     C17217   8.322   6.062   3.327 -0.3849  0.2768 -0.7032
  131MOL0     O17218   8.458   6.092   3.348 -0.1343 -0.4103  0.2190
  131MOL0     C17219   8.469   6.192   3.457  0.6646 -0.3252 -0.1423
  131MOL0     C17220   8.615   6.222   3.494  0.2018  0.5546 -0.4379
  131MOL0     C17221   8.687   6.288   3.383 -0.0639  0.0313 -0.4112
  131MOL0     C17222   8.820   6.354   3.423 -1.5483  0.1267 -0.4918
  131MOL0     C17223   8.919   6.245   3.445  0.7346 -0.9019 -0.2010
  131MOL0     C17224   9.000   6.157   3.468  0.0248  0.0061  0.8444
  131MOL0     C17225   8.250   6.129   3.228 -0.2829  0.1998 -0.3901
  131MOL0     C17226   8.106   6.114   3.221  0.5221 -0.5833 -1.1933
  131MOL0     H17227   7.657   6.060   3.478  0.5170 -1.0758  2.5837
  131MOL0     H17228   7.439   5.985   3.516  0.8875 -2.4024  3.1669
  131MOL0     H17229   7.315   5.576   3.387 -2.2916 -1.1065  2.9480
  131MOL0     H17230   7.260   5.663   3.245  3.1356 -1.8371  0.3256
  131MOL0     H17231   7.039   5.726   3.337  0.1989  1.4115  2.5705
  131MOL0     H17232   7.066   5.655   3.490 -0.0539 -3.9856  0.8146
  131MOL0     H17233   7.120   5.434   3.409 -0.1726 -0.0256 -0.2522
  131MOL0     H17234   7.090   5.489   3.245  1.3805  2.0403  0.0448
  131MOL0     H17235   6.894   5.467   3.489 -1.5345 -0.5427 -1.2330
  131MOL0     H17236   6.854   5.549   3.345  0.6521  0.9234 -1.5959
  131MOL0     H17237   6.947   5.249   3.354  0.6111  0.1942 -0.4873
  131MOL0     H17238   6.892   5.342   3.211  0.8808  3.6918  0.3967
  131MOL0     H17239   6.747   5.240   3.464 -0.2283 -0.8989 -0.2563
  131MOL0     H17240   6.745   5.174   3.302 -4.1809  1.1280 -1.5847
  131MOL0     H17241   6.652   5.448   3.283 -0.9550 -0.3181 -1.1338
  131MOL0     H17242   6.599   5.299   3.215  2.7402  2.1297 -2.5983
  131MOL0     H17243   6.540   5.395   3.503  3.4358 -1.7219  1.6831
  131MOL0     H17244   6.539   5.232   3.457  1.5910 -0.0731 -0.0728
  131MOL0     H17245   6.364   5.239   3.175 -1.1530 -0.6960  0.8660
  131MOL0     H17246   6.138   5.266   3.062 -3.1885 -1.4228 -0.0308
  131MOL0     H17247   6.085   5.438   3.097 -0.5026  0.4025  0.7159
  131MOL0     H17248   5.924   5.388   3.245  1.2220  1.6876 -2.2365
  131MOL0     H17249   5.966   5.212   3.256  1.4214  0.5092  1.2068
  131MOL0     H17250   5.854   5.360   3.023 -0.0948  2.0849  2.9104
  131MOL0     H17251   5.892   5.186   3.006 -1.8646  0.2339 -0.6598
  131MOL0     H17252   5.671   5.307   3.170 -0.9250  0.7474 -2.1526
  131MOL0     H17253   5.725   5.134   3.199  0.6474  1.0776  1.5915
  131MOL0     H17254   5.462   5.282   2.838 -0.5449 -2.0427 -1.6152
  131MOL0     H17255   5.215   5.237   2.849  1.7438  2.1468 -0.7122
  131MOL0     H17256   4.857   5.286   2.797 -0.4737 -0.3066 -2.0716
  131MOL0     H17257   4.629   5.266   2.755 -0.8491  0.5312  0.6168
  131MOL0     H17258   4.398   5.184   2.716  0.4469 -0.5917  0.0898
  131MOL0     H17259   4.432   5.296   2.848 -3.2093  2.5321 -2.6960
  131MOL0     H17260   4.199   5.098   2.846 -0.1469  0.6634 -1.1924
  131MOL0     H17261   4.188   5.256   2.770  1.0696 -1.2755 -1.1621
  131MOL0     H17262   4.258   5.355   2.996 -1.1283  0.9595 -1.3869
  131MOL0     H17263   4.257   5.191   3.066 -0.1851 -2.6416 -3.2559
  131MOL0     H17264   4.017   5.342   2.935 -0.1406 -1.1449 -0.8312
  131MOL0     H17265   4.006   5.184   3.016 -2.2669  1.9698 -1.2894
  131MOL0     H17266   4.083   5.436   3.154  0.6568 -0.0147 -1.9604
  131MOL0     H17267   4.078   5.273   3.228 -0.6650  1.1393  0.6558
  131MOL0     H17268   3.881   5.344   3.294 -2.6024 -1.0492 -0.3422
  131MOL0     H17269   3.831   5.279   3.130 -0.7558  1.0674 -2.2195
  131MOL0     H17270   3.881   5.555   3.207  0.6864  0.2152 -0.0985
  131MOL0     H17271   3.861   5.497   3.034  3.4416  1.1292  1.0164
  131MOL0     H17272   3.650   5.507   3.266  1.7659 -0.4932  1.2219
  131MOL0     H17273   3.637   5.392   3.125  1.0857  0.7525 -0.9487
  131MOL0     H17274   4.607   4.905   2.992 -2.7562  0.9598 -2.2030
  131MOL0     H17275   4.850   4.916   3.033  2.2112 -0.1185 -1.4027
  131MOL0     H17276   5.266   5.061   3.234 -0.0724 -3.4560 -2.2134
  131MOL0     H17277   5.505   5.099   3.223 -2.0196 -0.1779  1.8840
  131MOL0     H17278   7.491   5.655   3.240  1.0303  2.3114 -3.0348
  131MOL0     H17279   7.730   5.697   3.252 -0.0655  1.1703 -1.6037
  131MOL0     H17280   8.069   5.886   3.490 -1.1402  1.2897  0.9472
  131MOL0     H17281   8.327   5.908   3.477  2.3924  0.1594 -2.0190
  131MOL0     H17282   8.421   6.148   3.544  1.7116 -0.1610  0.5477
  131MOL0     H17283   8.420   6.283   3.422 -2.7187 -1.5472  1.1074
  131MOL0     H17284   8.605   6.293   3.577 -0.7094 -2.1555  1.9437
  131MOL0     H17285   8.672   6.137   3.531 -0.8810  0.8377  2.1380
  131MOL0     H17286   8.631   6.371   3.339  1.0251  0.4461 -1.0895
  131MOL0     H17287   8.713   6.209   3.312  3.1900 -1.2811  1.9721
  131MOL0     H17288   8.845   6.413   3.334  0.3230 -0.0821 -0.1338
  131MOL0     H17289   8.815   6.410   3.517  1.4987 -2.1298  1.1685
  131MOL0     H17290   9.064   6.071   3.471 -1.7493 -1.3608  3.3752
  131MOL0     H17291   8.305   6.205   3.174 -1.1472  0.2167 -1.2632
  131MOL0     H17292   8.053   6.177   3.150  1.1605 -0.5667 -1.6632
  132MOL0     O17293   9.899  10.375   3.150  0.1520 -0.6092 -0.2831
  132MOL0     C17294   9.983  10.306   3.095  0.7493  0.4102  0.5050
  132MOL0     O17295   9.957  10.206   2.997  0.0284 -0.0643 -0.2459
  132MOL0     C17296   9.829  10.163   2.976 -0.3353  0.9330  0.2032
  132MOL0     C17297   9.723  10.254   2.940  0.0912 -0.0382 -0.7424
  132MOL0     C17298   9.598  10.195   2.900 -1.4221  0.3842 -0.6247
  132MOL0     C17299   9.574  10.056   2.897 -0.1711  0.3026 -0.1397
  132MOL0     O17300   9.461   9.989   2.865 -0.3142  0.9984 -0.2390
  132MOL0     C17301   9.331  10.053   2.891  0.1824 -0.5704 -0.2617
  132MOL0     C17302   9.220  10.019   2.793  0.4315 -0.3651  0.0731
  132MOL0     C17303   9.153   9.888   2.827 -0.2860  0.0167  1.5523
  132MOL0     C17304   9.022   9.875   2.740  0.9551 -0.4293 -0.3053
  132MOL0     C17305   9.059   9.821   2.606  0.0272 -0.6367 -0.0792
  132MOL0     C17306   8.926   9.785   2.533  0.0394  0.3100 -0.1152
  132MOL0     C17307   8.944   9.725   2.396 -0.4412 -0.5312  0.3820
  132MOL0     C17308   9.017   9.584   2.386  0.2446 -0.5899 -1.8078
  132MOL0     N17309   8.941   9.484   2.459  0.1602 -0.5838 -0.1582
  132MOL0     C17310   8.819   9.420   2.423  0.6545 -0.1345 -0.2752
  132MOL0     C17311   8.797   9.326   2.521  0.4074  0.2441  0.3441
  132MOL0     C17312   8.689   9.222   2.523  0.3334  0.7987  0.3157
  132MOL0     C17313   8.574   9.242   2.427 -0.5452  0.2825 -0.0340
  132MOL0     C17314   8.486   9.115   2.437 -0.3941  0.5771  0.5671
  132MOL0     C17315   8.345   9.133   2.374  0.3098 -0.0262  0.2401
  132MOL0     O17316   8.279   9.002   2.372  0.2462  0.3810  0.1749
  132MOL0     C17317   8.140   8.998   2.341  0.2190  0.4060 -0.4701
  132MOL0     C17318   8.081   9.088   2.252 -0.0159  0.5740 -0.1249
  132MOL0     C17319   7.944   9.068   2.221  0.7897 -0.1989 -0.1830
  132MOL0     C17320   7.857   8.970   2.277 -0.1100  0.0551  0.4561
  132MOL0     C17321   7.716   8.942   2.242 -0.0300  0.4298 -0.7956
  132MOL0     O17322   7.652   8.844   2.324 -0.1332 -0.2960 -0.0250
  132MOL0     C17323   7.525   8.808   2.283 -0.4329 -0.7765  0.6787
  132MOL0     C17324   7.421   8.897   2.267  0.1583 -0.4017 -0.4800
  132MOL0     C17325   7.287   8.852   2.223 -0.0342 -0.5274 -0.8109
  132MOL0     C17326   7.262   8.718   2.191  0.0255  0.2380  0.0570
  132MOL0     O17327   7.142   8.680   2.143  0.2393 -0.0337 -0.1209
  132MOL0     C17328   7.035   8.734   2.218 -0.1615 -0.1505 -0.3231
  132MOL0     C17329   6.897   8.682   2.175  0.2603 -0.1912 -0.2776
  132MOL0     C17330   6.865   8.730   2.032  0.4671  0.5038  0.1057
  132MOL0     C17331   6.939   8.672   1.912  0.2314  0.5332 -0.4027
  132MOL0     C17332   6.864   8.684   1.775 -0.8966  0.5761  0.5381
  132MOL0     C17333   6.923   8.582   1.676 -0.0358  0.4450 -0.3145
  132MOL0     C17334   6.872   8.597   1.535  0.0233  0.9065  0.9765
  132MOL0     C17335   6.975   8.536   1.438 -0.2533  0.3081 -0.0663
  132MOL0    Cl17336   7.104   8.652   1.376  0.0237 -0.5374  0.0060
  132MOL0     C17337   7.376   8.636   2.198  0.7608  0.6926 -0.5512
  132MOL0     C17338   7.499   8.679   2.247 -0.8189 -0.6058  0.0088
  132MOL0     O17339   7.661   9.018   2.162  0.6059  0.5146  0.2028
  132MOL0     C17340   7.924   8.881   2.357 -0.3173 -0.1660 -1.0368
  132MOL0     C17341   8.059   8.894   2.386  0.8751  0.4115  0.4082
  132MOL0     N17342   8.905   9.337   2.613  0.1032 -0.7198  0.1978
  132MOL0     N17343   8.983   9.430   2.574 -0.6134  0.1407  0.0630
  132MOL0     C17344   9.676   9.982   2.951 -0.5346 -0.1075  0.3054
  132MOL0     C17345   9.806  10.024   2.978  0.6353 -0.3912 -1.1575
  132MOL0     C17346  10.127  10.340   3.116  0.0338 -0.4453 -0.3071
  132MOL0     C17347  10.171  10.430   3.225 -0.5575  0.3814  1.6924
  132MOL0     C17348  10.312  10.459   3.242 -0.2280 -0.2251  0.6050
  132MOL0     C17349  10.408  10.388   3.162 -0.3242  0.2049  0.3801
  132MOL0     O17350  10.543  10.421   3.163  0.8463 -0.4985  0.2299
  132MOL0     C17351  10.656  10.347   3.101  0.1980  0.5085  0.3232
  132MOL0     C17352  10.789  10.365   3.171  0.0368  0.3928 -0.8017
  132MOL0     C17353  10.893  10.267   3.107  0.2532  0.2594 -0.0024
  132MOL0     C17354  10.948  10.306   2.970  0.5102  0.5810  1.0027
  132MOL0     C17355  11.004  10.443   2.959 -0.4554  0.0204 -0.5318
  132MOL0     C17356  11.053  10.548   2.954 -0.8293  0.5796  0.5186
  132MOL0     C17357  10.356  10.292   3.071 -0.5903 -0.9283  0.7995
  132MOL0     C17358  10.224  10.278   3.044 -0.1900  1.4648 -0.0812
  132MOL0     H17359   9.727  10.363   2.947 -2.3171 -0.0042  3.4789
  132MOL0     H17360   9.542  10.262   2.835  1.3248  2.6238 -0.8542
  132MOL0     H17361   9.343  10.159   2.868  0.5081 -0.6903 -0.6547
  132MOL0     H17362   9.305  10.049   2.997  0.0443  0.6782 -0.2296
  132MOL0     H17363   9.255  10.020   2.690  0.7485  0.4491  0.1799
  132MOL0     H17364   9.152  10.105   2.798  1.7146  0.6165  1.3701
  132MOL0     H17365   9.112   9.901   2.928 -1.1220 -0.8444  1.3457
  132MOL0     H17366   9.215   9.799   2.817 -1.3349 -0.6608  0.8603
  132MOL0     H17367   8.953   9.801   2.781 -0.9452  1.8352  0.7907
  132MOL0     H17368   8.970   9.970   2.729  0.9025 -0.2470  1.3589
  132MOL0     H17369   9.113   9.727   2.622  0.1663 -0.1155  3.5081
  132MOL0     H17370   9.114   9.895   2.548 -1.2639 -0.2036 -0.7984
  132MOL0     H17371   8.860   9.872   2.530 -0.6464 -0.1806  0.3817
  132MOL0     H17372   8.865   9.714   2.589  0.6378  0.2963  0.5372
  132MOL0     H17373   8.841   9.720   2.357  0.1844 -2.1619 -1.2179
  132MOL0     H17374   8.995   9.807   2.346 -1.3489  2.2819  3.6855
  132MOL0     H17375   9.119   9.592   2.424 -0.0202  1.0782 -1.3421
  132MOL0     H17376   9.041   9.559   2.282  3.4025 -0.1476 -1.2935
  132MOL0     H17377   8.759   9.430   2.333 -0.5232 -1.0732  0.3750
  132MOL0     H17378   8.640   9.241   2.619 -4.3843  1.7828 -2.0304
  132MOL0     H17379   8.731   9.122   2.506 -0.4269  0.9610 -3.2592
  132MOL0     H17380   8.609   9.248   2.324 -2.0134 -0.0411 -0.5800
  132MOL0     H17381   8.512   9.327   2.457  0.0241  0.4166  0.7875
  132MOL0     H17382   8.549   9.047   2.379 -0.2486  0.8489  0.4061
  132MOL0     H17383   8.486   9.063   2.533 -0.8401 -1.2344 -0.3551
  132MOL0     H17384   8.348   9.183   2.277  1.2124 -0.5595 -0.0208
  132MOL0     H17385   8.285   9.201   2.434  1.2189  0.0218  1.1253
  132MOL0     H17386   8.139   9.164   2.202 -0.7244  1.4108  0.3062
  132MOL0     H17387   7.896   9.128   2.144  0.5069  0.9842  0.8817
  132MOL0     H17388   7.449   8.995   2.305  2.7212 -1.3698  0.3881
  132MOL0     H17389   7.213   8.930   2.206  1.1593  0.9296  0.4361
  132MOL0     H17390   7.030   8.843   2.204 -1.5680  0.1285  1.7567
  132MOL0     H17391   7.043   8.722   2.327 -1.9713 -2.0289 -0.3543
  132MOL0     H17392   6.834   8.725   2.253 -0.4244  0.9313 -1.4193
  132MOL0     H17393   6.897   8.572   2.176 -1.1826 -0.2051 -0.1482
  132MOL0     H17394   6.880   8.838   2.027 -1.1182  0.8015  1.2165
  132MOL0     H17395   6.759   8.704   2.021  1.0845 -1.3527 -2.6107
  132MOL0     H17396   7.040   8.713   1.916  0.6241 -0.2546  5.0897
  132MOL0     H17397   6.965   8.565   1.915  1.1778  0.7412 -0.7385
  132MOL0     H17398   6.876   8.787   1.740  1.8751 -0.2967 -1.4437
  132MOL0     H17399   6.759   8.658   1.792 -0.3111 -3.1312 -0.5872
  132MOL0     H17400   6.900   8.482   1.714  0.2071 -0.2031 -1.7744
  132MOL0     H17401   7.033   8.589   1.675 -0.1016  2.0498  1.0739
  132MOL0     H17402   6.779   8.541   1.522  1.2846 -0.6739 -3.2482
  132MOL0     H17403   6.849   8.702   1.518  2.6079  1.8223  2.5679
  132MOL0     H17404   6.919   8.495   1.354 -2.2449 -0.5439  1.6011
  132MOL0     H17405   7.025   8.451   1.485  1.1975  1.8830  1.4091
  132MOL0     H17406   7.370   8.531   2.171 -0.2797 -0.7067  4.2680
  132MOL0     H17407   7.587   8.617   2.257  3.1072  4.2930  0.1090
  132MOL0     H17408   7.857   8.807   2.399 -3.4180  0.4486 -4.4517
  132MOL0     H17409   8.098   8.819   2.454  2.4973 -0.4863 -1.4151
  132MOL0     H17410   9.661   9.876   2.967  0.6459 -0.6492 -1.8356
  132MOL0     H17411   9.886   9.962   3.016  0.3128 -0.2473 -0.2023
  132MOL0     H17412  10.095  10.480   3.284 -1.0418  2.9284 -0.8698
  132MOL0     H17413  10.351  10.534   3.310 -1.3297  0.2427  0.7493
  132MOL0     H17414  10.661  10.382   2.997 -1.6785  1.0931  0.3979
  132MOL0     H17415  10.619  10.244   3.097 -2.1905  1.3362 -1.8257
  132MOL0     H17416  10.816  10.468   3.147 -1.2651  1.5187  2.0672
  132MOL0     H17417  10.777  10.347   3.278  1.6537  5.3962  0.4761
  132MOL0     H17418  10.844  10.169   3.105 -1.5550  1.1397 -0.5106
  132MOL0     H17419  10.972  10.246   3.180 -0.1569 -3.1879 -0.3804
  132MOL0     H17420  11.022  10.231   2.939 -0.7274 -1.7439  3.3431
  132MOL0     H17421  10.863  10.307   2.901 -0.2761  2.8460  1.9130
  132MOL0     H17422  11.119  10.632   2.945  0.4794 -0.5561 -1.0635
  132MOL0     H17423  10.435  10.239   3.018  0.9908 -0.7382  2.8471
  132MOL0     H17424  10.188  10.209   2.968  1.3834 -0.4729  0.8267
  133MOL0     O17425   5.881   9.202   5.664  0.3671  0.4006 -0.3030
  133MOL0     C17426   5.987   9.150   5.649 -0.0446  0.3864 -0.0097
  133MOL0     O17427   6.012   9.009   5.637  0.2067 -0.3239  0.1192
  133MOL0     C17428   5.934   8.911   5.703  0.4403 -0.0302  0.0577
  133MOL0     C17429   5.952   8.780   5.654 -0.5604 -1.4354 -0.7212
  133MOL0     C17430   5.866   8.676   5.706 -0.2110  0.9685  0.3798
  133MOL0     C17431   5.783   8.700   5.810  0.1570  0.1087 -1.0242
  133MOL0     O17432   5.724   8.585   5.849 -0.0603  0.0181  0.2122
  133MOL0     C17433   5.791   8.510   5.947  0.2500  0.2534 -0.0825
  133MOL0     C17434   5.686   8.414   6.007 -0.0017 -0.2185  0.3136
  133MOL0     C17435   5.582   8.478   6.079 -0.1479 -0.3240 -0.1770
  133MOL0     C17436   5.454   8.392   6.078 -0.2213 -1.1223  0.0169
  133MOL0     C17437   5.331   8.467   6.125  0.7349  0.0906 -0.0847
  133MOL0     C17438   5.219   8.371   6.136 -0.4419  0.1385  0.1144
  133MOL0     C17439   5.087   8.438   6.188  0.1981  0.3179  0.0943
  133MOL0     C17440   4.991   8.331   6.251 -0.1547 -0.9020  0.9891
  133MOL0     N17441   5.029   8.304   6.393 -0.2428  0.0293 -0.3056
  133MOL0     C17442   5.158   8.281   6.438  0.1070 -1.0087 -0.2519
  133MOL0     C17443   5.171   8.341   6.561 -0.0423 -0.1111  0.3621
  133MOL0     C17444   5.299   8.343   6.651 -0.2282 -0.6267  0.3880
  133MOL0     C17445   5.414   8.387   6.567  0.5107  0.1209 -0.2053
  133MOL0     C17446   5.537   8.316   6.609 -0.0038  0.1936 -0.3029
  133MOL0     C17447   5.652   8.336   6.515 -0.2217 -0.3778  0.0846
  133MOL0     O17448   5.682   8.478   6.535 -0.1712  0.1937  0.1584
  133MOL0     C17449   5.800   8.522   6.479  0.3747 -0.0375  0.8911
  133MOL0     C17450   5.877   8.453   6.380 -0.1777  0.9640 -1.4362
  133MOL0     C17451   5.982   8.522   6.327 -0.7768  0.5787  0.4626
  133MOL0     C17452   6.020   8.648   6.357  0.4450  0.0356  0.2153
  133MOL0     C17453   6.120   8.723   6.277  0.6945 -0.6525  0.2583
  133MOL0     O17454   6.151   8.678   6.153  0.3156 -0.6163  0.1199
  133MOL0     C17455   6.246   8.733   6.080 -0.4709 -0.8796  0.0046
  133MOL0     C17456   6.219   8.770   5.953 -0.0162 -0.8173  0.9127
  133MOL0     C17457   6.323   8.838   5.877  0.0460 -0.5496  0.5319
  133MOL0     C17458   6.446   8.868   5.935 -0.4365 -0.1017 -0.1584
  133MOL0     O17459   6.539   8.945   5.885  0.2335 -0.0274  0.4030
  133MOL0     C17460   6.522   9.002   5.759 -0.3149 -0.0092  0.1324
  133MOL0     C17461   6.656   9.055   5.706 -0.6484 -0.1909 -0.8977
  133MOL0     C17462   6.716   9.165   5.797 -0.4804  0.3306 -0.5977
  133MOL0     C17463   6.845   9.235   5.746  0.0522  0.2147  0.0129
  133MOL0     C17464   6.880   9.355   5.839  0.3972 -0.3807 -0.3394
  133MOL0     C17465   6.991   9.443   5.796 -0.5417 -0.1258 -0.6622
  133MOL0     C17466   7.009   9.555   5.896 -0.4965 -0.1262  0.2063
  133MOL0     C17467   7.124   9.647   5.864 -0.8030 -0.1644 -0.2597
  133MOL0    Cl17468   7.281   9.568   5.903  0.0520 -0.0991  0.2480
  133MOL0     C17469   6.473   8.814   6.059 -0.0356  0.1781 -0.2324
  133MOL0     C17470   6.375   8.745   6.135 -0.5598  0.1145 -0.6928
  133MOL0     O17471   6.171   8.822   6.336  0.9425  0.2327 -0.5535
  133MOL0     C17472   5.944   8.716   6.452  0.5047  1.0504 -0.4013
  133MOL0     C17473   5.838   8.657   6.519 -0.1670  0.0607  0.6364
  133MOL0     N17474   5.048   8.395   6.597  0.0383 -1.0565  0.6461
  133MOL0     N17475   4.969   8.371   6.497 -0.3054  0.6117 -0.2266
  133MOL0     C17476   5.782   8.825   5.879  0.4262  0.3114  0.0459
  133MOL0     C17477   5.852   8.933   5.817 -0.1440 -0.3475  0.5141
  133MOL0     C17478   6.101   9.240   5.661 -0.7589 -0.0891  0.6544
  133MOL0     C17479   6.223   9.205   5.592  0.3259  0.9448 -0.4663
  133MOL0     C17480   6.332   9.296   5.586  0.2243  0.0539 -0.9600
  133MOL0     C17481   6.335   9.416   5.660 -0.1904  1.0348  0.1742
  133MOL0     O17482   6.436   9.516   5.663 -0.3414 -0.1693 -0.3244
  133MOL0     C17483   6.546   9.503   5.573 -0.6668  0.3188 -0.0966
  133MOL0     C17484   6.645   9.608   5.602 -0.4627  0.2856 -0.5004
  133MOL0     C17485   6.755   9.589   5.495  0.3709 -0.1238 -0.2231
  133MOL0     C17486   6.861   9.702   5.493  0.0153  0.0938  0.1377
  133MOL0     C17487   6.960   9.663   5.393  0.0708 -0.7162  0.6965
  133MOL0     C17488   7.037   9.607   5.315 -0.1696 -0.2560 -0.2091
  133MOL0     C17489   6.216   9.438   5.742 -0.4456 -0.7569  0.2016
  133MOL0     C17490   6.102   9.358   5.737  0.1695 -0.3075 -0.4134
  133MOL0     H17491   6.022   8.773   5.571 -0.0743  2.5169 -0.8598
  133MOL0     H17492   5.875   8.577   5.662 -1.0304  1.4819 -0.9810
  133MOL0     H17493   5.832   8.569   6.029 -2.8776  0.3716  1.5855
  133MOL0     H17494   5.874   8.456   5.901 -0.6439  1.1834 -3.0287
  133MOL0     H17495   5.718   8.343   6.084 -2.1574 -2.2829 -0.5722
  133MOL0     H17496   5.647   8.359   5.921  0.1381 -0.1362  0.1979
  133MOL0     H17497   5.555   8.572   6.031  2.3032  1.1601  1.1522
  133MOL0     H17498   5.611   8.506   6.181  2.3073  2.0833 -1.4258
  133MOL0     H17499   5.432   8.372   5.973 -2.3581  2.1951 -0.3205
  133MOL0     H17500   5.472   8.299   6.131 -0.1894 -0.1297  1.8341
  133MOL0     H17501   5.301   8.547   6.058 -0.9971  0.3906  0.9810
  133MOL0     H17502   5.347   8.520   6.220 -1.0819 -1.5169  1.1981
  133MOL0     H17503   5.247   8.298   6.212  2.1548  0.3146 -0.5693
  133MOL0     H17504   5.221   8.319   6.040  1.8912 -1.4275  0.9277
  133MOL0     H17505   5.105   8.501   6.275  1.5412 -1.2422  1.0075
  133MOL0     H17506   5.041   8.488   6.103 -1.0974 -2.8317 -1.2167
  133MOL0     H17507   4.990   8.241   6.188 -0.0517  1.2815 -2.3955
  133MOL0     H17508   4.890   8.372   6.259  0.0794  1.2079 -3.5996
  133MOL0     H17509   5.236   8.223   6.388 -1.1184 -3.8478  0.9583
  133MOL0     H17510   5.308   8.238   6.683  0.6048 -0.6843 -0.0220
  133MOL0     H17511   5.301   8.399   6.744  2.0886 -2.4738  1.5561
  133MOL0     H17512   5.432   8.492   6.590  2.6376 -0.3663  0.5781
  133MOL0     H17513   5.400   8.385   6.459 -0.2509 -2.2220 -0.1260
  133MOL0     H17514   5.568   8.337   6.711 -0.0895  1.7903 -0.5898
  133MOL0     H17515   5.516   8.208   6.612 -0.8999  0.3000 -1.5878
  133MOL0     H17516   5.620   8.307   6.414 -1.8381 -2.0981  1.0274
  133MOL0     H17517   5.742   8.284   6.549  0.4890  1.9433  2.0178
  133MOL0     H17518   5.844   8.353   6.352 -1.4039  0.6176  1.0252
  133MOL0     H17519   6.039   8.465   6.254 -2.9505  0.3981 -1.1761
  133MOL0     H17520   6.117   8.769   5.915 -1.0333  0.2066  3.4624
  133MOL0     H17521   6.297   8.880   5.781  0.8423 -2.2439 -0.4608
  133MOL0     H17522   6.450   9.084   5.760  0.0553  0.3371 -0.5394
  133MOL0     H17523   6.492   8.928   5.684  2.0950  1.0370 -2.0366
  133MOL0     H17524   6.640   9.099   5.607  2.3340 -0.8149 -1.7750
  133MOL0     H17525   6.725   8.971   5.694 -0.1422  0.1264 -0.2802
  133MOL0     H17526   6.737   9.121   5.895  1.4784 -0.9169 -1.5061
  133MOL0     H17527   6.637   9.240   5.801 -0.5633  0.1977  0.5175
  133MOL0     H17528   6.924   9.160   5.738 -0.5602 -1.0714  4.0325
  133MOL0     H17529   6.833   9.270   5.643  3.4118  0.4606 -0.4098
  133MOL0     H17530   6.897   9.310   5.937 -0.2961  1.8054  0.8331
  133MOL0     H17531   6.789   9.415   5.846 -0.9552 -1.9842 -2.6755
  133MOL0     H17532   6.958   9.502   5.710 -0.9769  0.9799  0.2345
  133MOL0     H17533   7.082   9.386   5.774  0.0661  1.1594 -1.6046
  133MOL0     H17534   6.917   9.613   5.912 -1.8740 -2.2661  0.5015
  133MOL0     H17535   7.030   9.504   5.991 -0.0457  0.8494  0.6416
  133MOL0     H17536   7.130   9.737   5.925  3.0421 -1.0821  1.0271
  133MOL0     H17537   7.123   9.683   5.760  0.0541 -1.3844 -0.7237
  133MOL0     H17538   6.568   8.841   6.105 -0.5888 -1.5548  2.1428
  133MOL0     H17539   6.400   8.721   6.237  0.4835  1.0272 -0.7080
  133MOL0     H17540   5.948   8.822   6.473 -0.9990  0.9444  0.4888
  133MOL0     H17541   5.783   8.708   6.598 -1.8364  1.6284 -1.4150
  133MOL0     H17542   5.722   8.828   5.970  0.2497  1.7918 -0.0876
  133MOL0     H17543   5.831   9.026   5.870  0.4197  0.4062 -0.5541
  133MOL0     H17544   6.225   9.113   5.535 -0.2767 -0.0294  1.0395
  133MOL0     H17545   6.414   9.262   5.524  1.2370 -0.1848  0.4754
  133MOL0     H17546   6.514   9.513   5.468  1.8465 -0.0314 -0.9580
  133MOL0     H17547   6.594   9.405   5.579  0.0452  0.7108  0.8859
  133MOL0     H17548   6.598   9.707   5.606  0.0554  0.5045  0.7165
  133MOL0     H17549   6.688   9.586   5.700  0.4994  1.5181 -0.6216
  133MOL0     H17550   6.707   9.587   5.396  0.5702  1.9863 -0.4029
  133MOL0     H17551   6.794   9.489   5.514 -0.3461 -0.0324  1.9076
  133MOL0     H17552   6.806   9.789   5.456 -1.4384 -1.1746 -0.7987
  133MOL0     H17553   6.906   9.721   5.591  2.4783  0.1984 -0.9612
  133MOL0     H17554   7.103   9.536   5.269 -0.9598 -0.5014 -1.0001
  133MOL0     H17555   6.229   9.518   5.815 -0.2523 -1.1775  0.6389
  133MOL0     H17556   6.015   9.382   5.797  0.4488  0.7655 -0.4195
  134MOL0     O17557   6.783   5.291   4.066 -0.0782 -0.5371 -0.1213
  134MOL0     C17558   6.755   5.370   4.161 -0.2045  0.2360 -0.1795
  134MOL0     O17559   6.626   5.397   4.213 -0.8616  0.7243  0.1863
  134MOL0     C17560   6.517   5.345   4.146  0.4138 -0.0316 -0.3185
  134MOL0     C17561   6.445   5.433   4.066 -0.0737  0.3677 -0.3233
  134MOL0     C17562   6.340   5.375   3.990 -0.9422 -0.0683 -1.1616
  134MOL0     C17563   6.299   5.243   3.995  0.5086  0.2425 -0.4970
  134MOL0     O17564   6.194   5.205   3.914 -0.5961  0.3227  0.3395
  134MOL0     C17565   6.196   5.062   3.869  0.5427  1.7511  0.5125
  134MOL0     C17566   6.062   5.012   3.792  0.7271  0.1575 -0.2826
  134MOL0     C17567   5.938   5.009   3.879 -0.1049 -0.1347 -0.1879
  134MOL0     C17568   5.946   4.893   3.977  0.1386  0.1904  0.0199
  134MOL0     C17569   5.839   4.905   4.086 -1.6592  0.5523  0.1336
  134MOL0     C17570   5.834   4.787   4.182 -0.4035  0.5480 -0.7363
  134MOL0     C17571   5.705   4.802   4.266 -0.3236  0.5237 -0.1497
  134MOL0     C17572   5.588   4.719   4.212 -0.4165 -0.6724 -0.3000
  134MOL0     N17573   5.459   4.765   4.252 -0.3975 -0.4025 -0.1956
  134MOL0     C17574   5.406   4.736   4.373  0.7629 -0.0695  0.0706
  134MOL0     C17575   5.295   4.804   4.373 -0.2537 -0.2384 -0.1312
  134MOL0     C17576   5.207   4.819   4.496 -0.2892 -0.4395  0.9161
  134MOL0     C17577   5.052   4.833   4.462 -0.1622  0.4321  0.8814
  134MOL0     C17578   5.000   4.967   4.410  0.5474 -0.3016  0.1521
  134MOL0     C17579   4.848   4.985   4.437  0.4909 -0.5205  0.3704
  134MOL0     O17580   4.789   5.106   4.382 -0.4473 -0.2107 -0.0467
  134MOL0     C17581   4.653   5.095   4.352 -0.6745 -0.5039 -0.3602
  134MOL0     C17582   4.567   4.993   4.375  0.1693  0.4264  0.9448
  134MOL0     C17583   4.432   4.998   4.326 -0.0880 -0.0609  0.6325
  134MOL0     C17584   4.386   5.116   4.266 -0.1789  0.1339 -0.3133
  134MOL0     C17585   4.253   5.125   4.206 -0.0596  0.1420  0.2533
  134MOL0     O17586   4.199   5.002   4.196 -0.3373 -0.2509 -0.0773
  134MOL0     C17587   4.062   4.999   4.174 -0.6177  0.1374  0.4850
  134MOL0     C17588   3.975   4.952   4.272  0.0437 -0.1432  0.2807
  134MOL0     C17589   3.836   4.956   4.254 -0.0050  0.2076  0.1720
  134MOL0     C17590   3.780   5.004   4.137  0.3284  0.3357 -0.0537
  134MOL0     O17591   3.645   5.007   4.115 -1.7064  0.0241  0.5118
  134MOL0     C17592   3.612   5.010   3.975  0.0203  0.2713  0.1974
  134MOL0     C17593   3.463   4.990   3.976 -0.1999  0.4455  0.4140
  134MOL0     C17594   3.403   4.949   3.837 -0.1270  0.8978 -0.3685
  134MOL0     C17595   3.265   5.000   3.825  0.4313  0.0182 -0.3789
  134MOL0     C17596   3.204   4.944   3.695 -0.1118  0.9570 -0.4533
  134MOL0     C17597   3.055   4.970   3.697 -0.0038  0.0273  0.1495
  134MOL0     C17598   2.993   4.908   3.572  0.7005 -0.3531  0.7530
  134MOL0     C17599   2.985   4.758   3.587  1.0010 -0.3817  0.1310
  134MOL0    Cl17600   2.889   4.688   3.454 -0.1655  0.4490 -0.0609
  134MOL0     C17601   3.870   5.040   4.039  0.2191 -0.3831 -0.0437
  134MOL0     C17602   4.006   5.036   4.050  0.5041  0.5962 -0.6241
  134MOL0     O17603   4.195   5.236   4.204 -0.6339 -0.0154 -0.0933
  134MOL0     C17604   4.470   5.227   4.259  0.5995 -0.1066 -0.1709
  134MOL0     C17605   4.604   5.214   4.295 -0.1023 -0.1172 -0.6029
  134MOL0     N17606   5.288   4.871   4.248  0.3748  0.2972 -0.0941
  134MOL0     N17607   5.383   4.841   4.178 -0.2235  0.6231 -0.0723
  134MOL0     C17608   6.379   5.157   4.071 -0.3310 -0.2128 -0.3339
  134MOL0     C17609   6.481   5.205   4.147  0.3152  0.2028 -0.0434
  134MOL0     C17610   6.869   5.420   4.245 -0.8243  0.2512 -0.1279
  134MOL0     C17611   6.994   5.354   4.243 -0.6856  0.6609  0.7314
  134MOL0     C17612   7.100   5.394   4.324  0.1790 -0.2434 -0.1442
  134MOL0     C17613   7.091   5.502   4.408 -0.4780 -0.2482  0.6385
  134MOL0     O17614   7.205   5.528   4.476 -0.0705  0.9274 -0.1391
  134MOL0     C17615   7.246   5.668   4.481  0.0718  0.4409 -0.2606
  134MOL0     C17616   7.397   5.685   4.464  0.6771  0.9789  0.9284
  134MOL0     C17617   7.474   5.662   4.586 -0.2217  0.5104 -0.4030
  134MOL0     C17618   7.620   5.713   4.583  0.0667  0.6105 -0.0426
  134MOL0     C17619   7.698   5.657   4.696 -0.1946  0.3679 -0.5935
  134MOL0     C17620   7.764   5.606   4.788  0.1129 -0.4273  0.1556
  134MOL0     C17621   6.971   5.576   4.406 -0.4745 -0.6893 -0.0340
  134MOL0     C17622   6.864   5.528   4.332  0.3899 -0.5415  0.7860
  134MOL0     H17623   6.467   5.539   4.063 -0.4896  0.4895  0.4674
  134MOL0     H17624   6.283   5.440   3.925  1.2725  1.3565 -1.7848
  134MOL0     H17625   6.224   4.988   3.945  0.8694 -0.9803 -2.0514
  134MOL0     H17626   6.282   5.058   3.803  0.7700 -2.7182  0.7851
  134MOL0     H17627   6.062   4.912   3.748 -1.1643  0.5305 -1.2443
  134MOL0     H17628   6.044   5.091   3.718  2.2963  0.3903 -0.4355
  134MOL0     H17629   5.843   5.006   3.824 -0.9563  0.2524  1.1893
  134MOL0     H17630   5.919   5.098   3.939  0.5740 -0.2603  0.2217
  134MOL0     H17631   5.947   4.801   3.918 -0.8722  0.9377 -1.2239
  134MOL0     H17632   6.042   4.895   4.029  0.2304  0.9494 -0.1636
  134MOL0     H17633   5.745   4.910   4.030 -2.0883  0.0863  0.8002
  134MOL0     H17634   5.857   5.001   4.134  1.0686 -0.0399  0.4625
  134MOL0     H17635   5.913   4.781   4.258 -0.3927  0.4200 -0.7562
  134MOL0     H17636   5.840   4.696   4.121  2.1943 -0.2636  0.5696
  134MOL0     H17637   5.722   4.747   4.359  0.7367 -0.9335 -1.1477
  134MOL0     H17638   5.677   4.906   4.282 -0.0919  0.6860 -0.7566
  134MOL0     H17639   5.599   4.612   4.231  2.5327 -0.4320 -0.0724
  134MOL0     H17640   5.598   4.735   4.104  0.0103 -0.3714 -0.2187
  134MOL0     H17641   5.446   4.676   4.453  2.0582 -1.4171 -1.5098
  134MOL0     H17642   5.251   4.903   4.551  2.9631 -0.6545 -1.1205
  134MOL0     H17643   5.221   4.733   4.562  3.7217  1.2158  2.5647
  134MOL0     H17644   4.992   4.817   4.551 -1.1089  3.1173  0.7955
  134MOL0     H17645   5.005   4.758   4.398  1.2919  0.8867 -0.8125
  134MOL0     H17646   5.050   5.054   4.455  1.0619 -0.1108 -0.7555
  134MOL0     H17647   5.019   4.964   4.302  0.1447  1.4577 -0.0037
  134MOL0     H17648   4.823   4.993   4.544  2.5182 -1.7691  0.9864
  134MOL0     H17649   4.810   4.893   4.391  2.1491 -1.1911  0.2925
  134MOL0     H17650   4.606   4.912   4.437  0.3834 -0.5747 -0.4565
  134MOL0     H17651   4.369   4.910   4.327  0.0294 -0.2795 -2.4860
  134MOL0     H17652   4.023   4.913   4.361  1.9477 -2.1312 -1.4873
  134MOL0     H17653   3.763   4.923   4.328  0.8736  0.0736  1.0110
  134MOL0     H17654   3.651   4.920   3.927  1.3965  0.7853  0.3193
  134MOL0     H17655   3.632   5.102   3.919  0.8652 -1.3710 -2.3466
  134MOL0     H17656   3.420   5.086   4.006 -0.8611  0.5387 -0.7671
  134MOL0     H17657   3.425   4.914   4.045 -0.2323 -0.3048 -0.4108
  134MOL0     H17658   3.408   4.840   3.834 -0.6017  0.7930  1.5140
  134MOL0     H17659   3.467   4.992   3.759 -2.4419  1.3562 -2.1469
  134MOL0     H17660   3.203   4.979   3.913  2.2311  1.9534  1.4710
  134MOL0     H17661   3.268   5.109   3.815  0.9581  0.0973  0.5164
  134MOL0     H17662   3.213   4.835   3.696  1.5067  1.0282  2.5175
  134MOL0     H17663   3.259   4.985   3.610  0.4948  1.4206  0.1557
  134MOL0     H17664   3.034   5.077   3.683  0.1329 -0.0299 -0.5511
  134MOL0     H17665   3.008   4.935   3.789 -0.7705 -0.9319 -0.5865
  134MOL0     H17666   2.888   4.936   3.557  0.9111  0.0620  0.0286
  134MOL0     H17667   3.052   4.924   3.481 -0.5957  3.5614  0.4281
  134MOL0     H17668   2.942   4.735   3.685  1.8966 -0.5741  0.4874
  134MOL0     H17669   3.088   4.729   3.567  1.8589  1.7150  1.2083
  134MOL0     H17670   3.826   5.079   3.948 -3.5126  2.5559  2.6748
  134MOL0     H17671   4.080   5.063   3.975  1.7913  0.4039  0.5440
  134MOL0     H17672   4.440   5.320   4.213  1.6344  0.2011 -0.2431
  134MOL0     H17673   4.662   5.305   4.282 -0.8225  0.2116 -1.7123
  134MOL0     H17674   6.364   5.050   4.071 -1.4136 -0.1182 -2.3594
  134MOL0     H17675   6.547   5.130   4.188 -0.7669 -1.2628 -0.8944
  134MOL0     H17676   7.011   5.257   4.196 -1.6373  0.0576  1.5798
  134MOL0     H17677   7.190   5.333   4.323  0.9797  0.8893 -1.6221
  134MOL0     H17678   7.216   5.709   4.578  2.7264 -0.6451  1.1223
  134MOL0     H17679   7.193   5.730   4.407 -0.0025  0.6981  0.0050
  134MOL0     H17680   7.430   5.622   4.381 -0.9737 -1.7468  2.1869
  134MOL0     H17681   7.416   5.786   4.426  1.6189  0.6731  0.5550
  134MOL0     H17682   7.472   5.555   4.609  0.0915  0.7781  1.0208
  134MOL0     H17683   7.427   5.703   4.676 -0.4071 -1.1889  0.3075
  134MOL0     H17684   7.679   5.674   4.500 -0.7287  1.4292 -1.0079
  134MOL0     H17685   7.637   5.821   4.580 -0.4599  0.6868 -0.2873
  134MOL0     H17686   7.813   5.556   4.870 -1.1477  0.7673  1.7147
  134MOL0     H17687   6.968   5.670   4.459 -1.6119 -1.2957  1.0153
  134MOL0     H17688   6.768   5.578   4.327  1.8424  2.4474  0.5988
  135MOL0     O17689   8.712   5.414   9.796  0.5921 -0.3187  0.1209
  135MOL0     C17690   8.808   5.343   9.806  0.8510 -0.2310  0.1988
  135MOL0     O17691   8.799   5.215   9.842 -0.3674  0.5150  0.2028
  135MOL0     C17692   8.683   5.184   9.919  0.1615 -0.0409  0.3049
  135MOL0     C17693   8.574   5.131   9.848 -0.4569  0.4170  0.1153
  135MOL0     C17694   8.458   5.091   9.921  0.2030  0.6653  0.2003
  135MOL0     C17695   8.450   5.115  10.058  0.7169  0.1210 -1.1955
  135MOL0     O17696   8.328   5.080  10.122  0.0505  0.6331 -0.2478
  135MOL0     C17697   8.330   5.078  10.265  1.1543 -0.4636 -0.1468
  135MOL0     C17698   8.200   5.008  10.311 -0.2103  0.3319  0.2488
  135MOL0     C17699   8.242   4.856  10.330  0.5659  0.1317 -0.2572
  135MOL0     C17700   8.116   4.779  10.335  0.4540  0.3395  0.3863
  135MOL0     C17701   8.125   4.626  10.365  0.3373 -0.8855 -1.0048
  135MOL0     C17702   8.172   4.599  10.505 -0.2517  0.9058  1.1455
  135MOL0     C17703   8.056   4.633  10.600  0.1351 -0.3232 -0.1383
  135MOL0     C17704   8.081   4.606  10.747 -0.3596  0.5070  1.3590
  135MOL0     N17705   7.955   4.623  10.812  0.5695  0.0571 -0.3094
  135MOL0     C17706   7.905   4.531  10.903 -0.1249 -0.1159 -0.0620
  135MOL0     C17707   7.788   4.589  10.954  0.3770 -0.3088 -0.7857
  135MOL0     C17708   7.710   4.525  11.058  0.2853  0.1597  0.8076
  135MOL0     C17709   7.558   4.507  11.029 -0.5727  1.2135 -0.4774
  135MOL0     C17710   7.493   4.460  11.168 -1.1498  0.0924 -0.0226
  135MOL0     C17711   7.371   4.373  11.140 -0.2336 -0.2033  0.1092
  135MOL0     O17712   7.259   4.462  11.134  0.8053  0.3345  0.3995
  135MOL0     C17713   7.140   4.403  11.089 -0.2122  0.5202  0.5826
  135MOL0     C17714   7.087   4.291  11.155  0.4361 -0.1383 -0.1729
  135MOL0     C17715   6.962   4.240  11.105 -0.9336  0.6716 -0.6565
  135MOL0     C17716   6.893   4.302  10.992 -0.1494 -0.1786 -0.3210
  135MOL0     C17717   6.772   4.245  10.930  0.3970 -0.3504  0.1515
  135MOL0     O17718   6.711   4.311  10.823  0.1168 -0.2476 -0.1681
  135MOL0     C17719   6.577   4.286  10.790 -0.3783 -0.0374  0.3209
  135MOL0     C17720   6.538   4.337  10.666  0.4885 -0.7660 -0.0771
  135MOL0     C17721   6.405   4.322  10.621 -0.7409  0.1894  0.5094
  135MOL0     C17722   6.311   4.250  10.696  0.5372  0.5985  0.7038
  135MOL0     O17723   6.186   4.251  10.637 -0.2644  0.4736  1.1144
  135MOL0     C17724   6.080   4.182  10.701  0.4216  0.3474 -1.1315
  135MOL0     C17725   5.956   4.258  10.664  0.9113 -0.7576 -0.6912
  135MOL0     C17726   5.835   4.206  10.736 -0.1071  0.4387 -0.1815
  135MOL0     C17727   5.710   4.284  10.701  0.5016  0.4324 -0.3792
  135MOL0     C17728   5.584   4.198  10.704  0.8704 -0.6233 -0.7011
  135MOL0     C17729   5.475   4.227  10.810  0.0507  0.6039 -0.5295
  135MOL0     C17730   5.351   4.148  10.787 -0.3848  0.3269  0.1206
  135MOL0     C17731   5.258   4.143  10.907 -0.3267  0.2588 -0.2105
  135MOL0    Cl17732   5.123   4.039  10.878  0.0903 -0.2083  0.1958
  135MOL0     C17733   6.344   4.204  10.824  0.9442 -0.7319 -0.0905
  135MOL0     C17734   6.471   4.238  10.874 -0.0524  0.2829  0.4148
  135MOL0     O17735   6.732   4.148  10.992 -0.0241  0.6721 -0.2664
  135MOL0     C17736   6.949   4.415  10.939  0.3474 -0.2674  0.5387
  135MOL0     C17737   7.076   4.463  10.979  0.8059  0.1579 -0.1239
  135MOL0     N17738   7.753   4.699  10.873 -0.0137  0.0346  1.3728
  135MOL0     N17739   7.858   4.718  10.788 -0.2175  0.2234 -0.3710
  135MOL0     C17740   8.559   5.164  10.124  0.8193  0.1783  0.0941
  135MOL0     C17741   8.679   5.196  10.058  0.4846  1.2434 -0.5431
  135MOL0     C17742   8.935   5.408   9.789  0.1326  0.3954  0.3042
  135MOL0     C17743   9.054   5.328   9.783  0.1690  0.7767 -0.5317
  135MOL0     C17744   9.177   5.385   9.770 -0.6597  1.0112 -0.0242
  135MOL0     C17745   9.191   5.532   9.753 -0.3871 -0.3749  0.0147
  135MOL0     O17746   9.307   5.599   9.718 -0.3015 -0.1428 -0.0354
  135MOL0     C17747   9.429   5.524   9.712 -0.4804  0.0566  0.3286
  135MOL0     C17748   9.530   5.607   9.632 -0.2033 -0.4753 -0.4982
  135MOL0     C17749   9.667   5.536   9.632 -0.9921  0.2140  0.3157
  135MOL0     C17750   9.790   5.628   9.655  0.6797  0.2132  0.2166
  135MOL0     C17751   9.909   5.537   9.623  0.1797 -0.3122  0.0169
  135MOL0     C17752   9.992   5.452   9.581 -0.3883 -0.4040  1.6115
  135MOL0     C17753   9.067   5.601   9.762 -0.2579 -0.2133  0.1866
  135MOL0     C17754   8.942   5.542   9.785  0.0740 -0.7866  0.2308
  135MOL0     H17755   8.577   5.102   9.743 -1.0504 -6.7059  1.5669
  135MOL0     H17756   8.380   5.041   9.865 -1.2030  1.1125  1.6903
  135MOL0     H17757   8.329   5.174  10.317  2.5508 -0.4658 -0.0866
  135MOL0     H17758   8.413   5.019  10.305  1.8199 -0.5165 -1.5151
  135MOL0     H17759   8.120   5.026  10.239  0.4069 -1.0196 -0.8088
  135MOL0     H17760   8.173   5.049  10.409  1.0658  1.5381  0.1226
  135MOL0     H17761   8.308   4.845  10.417  2.0249 -4.9411 -1.6797
  135MOL0     H17762   8.301   4.817  10.247 -0.3266 -0.0428 -0.8194
  135MOL0     H17763   8.052   4.835  10.403  4.0329  2.0048  2.6473
  135MOL0     H17764   8.079   4.792  10.233  1.1279  1.3723  0.2610
  135MOL0     H17765   8.209   4.598  10.301  2.0942  1.1557  0.2789
  135MOL0     H17766   8.035   4.569  10.342  0.4233 -0.7741 -1.6319
  135MOL0     H17767   8.260   4.656  10.537  0.5514  0.3510  0.0080
  135MOL0     H17768   8.178   4.491  10.522 -1.0481  0.2920 -1.8254
  135MOL0     H17769   8.027   4.736  10.582 -2.1184 -1.0392 -0.9856
  135MOL0     H17770   7.963   4.581  10.574 -0.4793 -0.0463  1.4088
  135MOL0     H17771   8.157   4.672  10.790  1.0254  0.4593 -0.8958
  135MOL0     H17772   8.099   4.498  10.752  2.5089  0.3900 -4.2492
  135MOL0     H17773   7.956   4.436  10.919  3.6505  1.7408  0.2690
  135MOL0     H17774   7.734   4.593  11.141  4.9332  0.1464 -0.2629
  135MOL0     H17775   7.752   4.426  11.078  2.1511  0.5038 -1.0015
  135MOL0     H17776   7.547   4.430  10.952  1.4704  0.1482  0.2180
  135MOL0     H17777   7.513   4.605  11.012 -0.0378  1.5646  0.0998
  135MOL0     H17778   7.563   4.389  11.213 -0.7505  1.9598  2.5139
  135MOL0     H17779   7.482   4.547  11.234  1.9645  0.0949  0.6376
  135MOL0     H17780   7.349   4.313  11.229  1.4165 -1.0002  0.0169
  135MOL0     H17781   7.377   4.310  11.051 -3.7913 -1.6754  0.7185
  135MOL0     H17782   7.114   4.240  11.247 -0.9140  0.7706  0.7655
  135MOL0     H17783   6.913   4.152  11.145 -3.1736  2.2740  0.3353
  135MOL0     H17784   6.609   4.395  10.608 -0.7868  2.5390  1.4139
  135MOL0     H17785   6.382   4.370  10.527 -1.3745 -2.4115 -0.7318
  135MOL0     H17786   6.087   4.176  10.810 -6.4295  1.2182 -0.2089
  135MOL0     H17787   6.080   4.078  10.669  2.2672  0.6698 -2.3318
  135MOL0     H17788   5.931   4.250  10.558  1.4731  0.9729 -0.9868
  135MOL0     H17789   5.969   4.366  10.675  0.2419 -0.5840 -1.5313
  135MOL0     H17790   5.843   4.209  10.846 -0.8647  1.4239 -0.1359
  135MOL0     H17791   5.836   4.099  10.713  1.8442  0.5530 -0.7836
  135MOL0     H17792   5.697   4.367  10.771  1.4401 -1.3315  2.0534
  135MOL0     H17793   5.723   4.315  10.597  2.4368 -0.8541 -0.5878
  135MOL0     H17794   5.608   4.092  10.713  0.1281 -0.8092 -0.8130
  135MOL0     H17795   5.547   4.205  10.602 -1.2169  1.4185  0.0947
  135MOL0     H17796   5.453   4.334  10.824 -1.5798  0.2977 -0.5237
  135MOL0     H17797   5.516   4.194  10.906 -0.8055  3.4293  0.9330
  135MOL0     H17798   5.290   4.195  10.709 -0.6681 -2.7460 -1.7211
  135MOL0     H17799   5.371   4.045  10.755  0.4522  1.0992 -2.1090
  135MOL0     H17800   5.232   4.248  10.925  0.0589 -0.2959  4.8502
  135MOL0     H17801   5.318   4.099  10.987  3.2474 -1.5888 -3.5549
  135MOL0     H17802   6.273   4.159  10.892 -0.0522 -2.6047 -2.2442
  135MOL0     H17803   6.481   4.216  10.980  0.6728 -1.0454  0.0828
  135MOL0     H17804   6.905   4.458  10.850  0.2484 -0.2545  0.5944
  135MOL0     H17805   7.116   4.551  10.929 -1.5019  0.8742 -0.8310
  135MOL0     H17806   8.557   5.168  10.233 -1.2611 -4.5753  0.4802
  135MOL0     H17807   8.762   5.243  10.109  0.8725  0.1295 -0.1121
  135MOL0     H17808   9.051   5.222   9.805  0.1497  1.4189  3.1811
  135MOL0     H17809   9.266   5.323   9.771 -0.3487  1.4514 -0.0845
  135MOL0     H17810   9.414   5.420   9.681 -0.8927 -0.1818  1.2903
  135MOL0     H17811   9.469   5.526   9.813  0.1252  2.4802  0.0813
  135MOL0     H17812   9.499   5.623   9.528 -2.9526 -0.9454  0.1611
  135MOL0     H17813   9.536   5.709   9.672  1.5118 -0.8286  0.2176
  135MOL0     H17814   9.680   5.486   9.536 -0.7032  0.6269  0.1404
  135MOL0     H17815   9.665   5.457   9.708  2.1283  0.2082  0.5246
  135MOL0     H17816   9.788   5.711   9.584  0.9903 -0.0436 -0.0925
  135MOL0     H17817   9.783   5.663   9.759  0.8896  0.1248  0.2621
  135MOL0     H17818  10.056   5.389   9.523 -1.4770  0.9397 -1.1893
  135MOL0     H17819   9.076   5.708   9.744  3.6864 -0.9263 -3.4783
  135MOL0     H17820   8.861   5.615   9.787 -1.6382 -2.5657 -1.2197
  136MOL0     O17821   3.957   7.052   2.328  0.2169  0.3514  0.4383
  136MOL0     C17822   4.015   6.956   2.387  0.3971 -0.9037  0.3244
  136MOL0     O17823   3.970   6.841   2.433  0.0495 -0.4846 -0.6557
  136MOL0     C17824   3.839   6.808   2.410 -0.2296 -0.5619 -0.3490
  136MOL0     C17825   3.787   6.750   2.298 -0.8313  1.0406  0.2944
  136MOL0     C17826   3.660   6.696   2.288  0.8197  0.3615  0.7671
  136MOL0     C17827   3.581   6.703   2.399  0.1976 -0.4569  0.0219
  136MOL0     O17828   3.462   6.633   2.400 -0.4076  0.3772  0.0589
  136MOL0     C17829   3.460   6.517   2.481 -0.1486 -0.6217 -0.1504
  136MOL0     C17830   3.329   6.441   2.456  0.5371  0.1494  0.8612
  136MOL0     C17831   3.325   6.376   2.317  0.6250  0.1537  0.6667
  136MOL0     C17832   3.430   6.266   2.284  0.3337 -1.2471  0.7156
  136MOL0     C17833   3.407   6.196   2.152 -0.1300  0.4257 -0.9465
  136MOL0     C17834   3.414   6.290   2.032  0.6083 -0.7811  1.2929
  136MOL0     C17835   3.554   6.357   2.018  0.6311  0.4687  0.8516
  136MOL0     C17836   3.563   6.439   1.885 -0.3593 -0.5595 -0.3146
  136MOL0     N17837   3.670   6.533   1.904 -0.3789 -0.2882 -0.1814
  136MOL0     C17838   3.808   6.516   1.901 -0.1809  0.4638  0.8613
  136MOL0     C17839   3.866   6.640   1.906  0.8190  0.0939  0.3110
  136MOL0     C17840   4.015   6.675   1.898 -0.3142 -0.2101 -0.8206
  136MOL0     C17841   4.044   6.804   1.965 -0.5444  0.5678  0.3379
  136MOL0     C17842   4.193   6.843   1.963 -0.0541  0.1582  1.0562
  136MOL0     C17843   4.218   6.977   2.024  0.1319  0.1732 -0.0401
  136MOL0     O17844   4.171   7.081   1.936  0.3482 -0.2414 -0.1276
  136MOL0     C17845   4.223   7.195   1.964  0.0633 -0.6487  0.0434
  136MOL0     C17846   4.187   7.261   2.084 -0.1864 -0.5536 -0.6594
  136MOL0     C17847   4.259   7.362   2.138 -0.6746 -0.5797  0.3527
  136MOL0     C17848   4.379   7.409   2.081  0.2397  0.9476 -0.3760
  136MOL0     C17849   4.465   7.529   2.128  0.2651  0.2367  0.5238
  136MOL0     O17850   4.568   7.559   2.041  1.3440  0.3793  0.9026
  136MOL0     C17851   4.655   7.644   2.090 -1.1954 -0.5514 -0.4345
  136MOL0     C17852   4.768   7.600   2.165  0.6973 -0.0739 -0.2907
  136MOL0     C17853   4.872   7.691   2.199  0.4001  0.0583  0.4528
  136MOL0     C17854   4.861   7.817   2.151 -0.1197 -1.0612  1.2050
  136MOL0     O17855   4.973   7.895   2.176  0.0813 -0.3031  0.2848
  136MOL0     C17856   4.960   8.041   2.172 -0.0710 -0.2700 -0.7446
  136MOL0     C17857   5.075   8.120   2.243  0.2083  0.3101  0.2595
  136MOL0     C17858   5.206   8.085   2.171 -0.2518  0.9217  0.7282
  136MOL0     C17859   5.325   8.069   2.267  0.4066  0.7885 -0.4213
  136MOL0     C17860   5.445   8.009   2.189 -0.0376 -0.5228 -0.0863
  136MOL0     C17861   5.555   8.010   2.292 -0.6931  0.4605  0.1072
  136MOL0     C17862   5.677   7.922   2.253 -0.5738 -0.2006  0.3772
  136MOL0     C17863   5.785   7.917   2.353 -0.0096  0.4267 -0.1061
  136MOL0    Cl17864   5.862   8.066   2.385  0.1117  0.3502 -0.3263
  136MOL0     C17865   4.752   7.865   2.074 -0.1885  0.2361 -0.1230
  136MOL0     C17866   4.646   7.777   2.049 -0.0655  0.0749  0.7251
  136MOL0     O17867   4.451   7.578   2.246  1.2392  0.3188  0.0331
  136MOL0     C17868   4.414   7.334   1.968  0.1457 -0.0087 -0.1826
  136MOL0     C17869   4.335   7.235   1.910 -1.1721  0.5003  0.4019
  136MOL0     N17870   3.761   6.730   1.918  0.3447  0.0930 -0.2147
  136MOL0     N17871   3.648   6.669   1.916 -0.4683  0.2761  0.2072
  136MOL0     C17872   3.630   6.761   2.506 -0.4676 -0.1603 -0.5890
  136MOL0     C17873   3.754   6.826   2.518  0.0135 -0.3092  0.2463
  136MOL0     C17874   4.163   6.979   2.399 -0.3909 -0.0723  0.3657
  136MOL0     C17875   4.247   6.864   2.414  0.2543 -0.1313 -0.1307
  136MOL0     C17876   4.381   6.883   2.416  0.2260  0.4973 -0.0414
  136MOL0     C17877   4.439   7.006   2.389 -0.0352 -0.2218 -0.1090
  136MOL0     O17878   4.572   7.018   2.389 -0.0051  0.2257  0.0429
  136MOL0     C17879   4.644   7.026   2.266  0.0714  0.7999 -0.0523
  136MOL0     C17880   4.786   6.975   2.291 -0.1790 -0.1603 -0.1665
  136MOL0     C17881   4.859   6.942   2.165 -0.0163 -0.0337 -0.0094
  136MOL0     C17882   4.786   6.825   2.093  0.2210 -0.4535 -0.1915
  136MOL0     C17883   4.874   6.759   1.998 -0.1699 -0.5947  0.0171
  136MOL0     C17884   4.936   6.716   1.905 -1.0912  0.6398  0.8589
  136MOL0     C17885   4.354   7.119   2.387 -0.1906  0.8867 -0.4006
  136MOL0     C17886   4.217   7.108   2.390  0.1681 -0.0427 -0.3804
  136MOL0     H17887   3.841   6.731   2.206 -2.3138 -2.7735 -0.0057
  136MOL0     H17888   3.639   6.637   2.200  1.4272  0.2301  0.7099
  136MOL0     H17889   3.483   6.544   2.585 -0.4124 -2.7446  0.5045
  136MOL0     H17890   3.539   6.448   2.453 -1.2536 -1.6256 -0.8595
  136MOL0     H17891   3.244   6.508   2.469 -1.8193 -2.3876 -0.2993
  136MOL0     H17892   3.316   6.356   2.524  1.0684 -1.0619 -0.5011
  136MOL0     H17893   3.337   6.449   2.237 -3.3624  0.3031  0.0207
  136MOL0     H17894   3.223   6.339   2.306  0.4057  1.3377 -2.2724
  136MOL0     H17895   3.529   6.310   2.295  0.2226 -0.3662 -1.3314
  136MOL0     H17896   3.414   6.187   2.358 -2.4258 -2.5221 -1.0311
  136MOL0     H17897   3.313   6.140   2.153 -0.6335  0.8184  4.6566
  136MOL0     H17898   3.489   6.124   2.142 -0.9748 -0.5416 -1.0491
  136MOL0     H17899   3.334   6.365   2.035 -0.2139 -1.5820 -0.0009
  136MOL0     H17900   3.399   6.228   1.943  2.0740 -0.0081  0.4630
  136MOL0     H17901   3.566   6.432   2.097  2.2953  1.7210 -0.5370
  136MOL0     H17902   3.638   6.288   2.026 -0.2144 -0.9221 -1.3303
  136MOL0     H17903   3.468   6.490   1.865 -0.3789 -0.8123 -0.8776
  136MOL0     H17904   3.585   6.373   1.801  0.5988  3.0635 -3.1586
  136MOL0     H17905   3.850   6.417   1.889 -1.5160 -0.0396  0.0967
  136MOL0     H17906   4.043   6.691   1.793 -1.6263  1.7733 -0.9301
  136MOL0     H17907   4.085   6.605   1.944  3.4952  3.3217 -0.5918
  136MOL0     H17908   4.010   6.799   2.069  0.6863  5.2554  1.2101
  136MOL0     H17909   3.995   6.889   1.917 -0.8033  0.8054  1.0075
  136MOL0     H17910   4.256   6.772   2.018 -0.1082 -0.6759  0.0752
  136MOL0     H17911   4.239   6.847   1.864 -2.9840  0.3976 -0.4059
  136MOL0     H17912   4.327   6.978   2.038  0.1291  0.3011 -0.0306
  136MOL0     H17913   4.171   6.988   2.122 -0.7593 -0.9158 -0.3317
  136MOL0     H17914   4.091   7.243   2.130 -0.4177 -1.7107 -1.5505
  136MOL0     H17915   4.217   7.430   2.211  4.7567  2.3487  1.2915
  136MOL0     H17916   4.761   7.500   2.205  2.0446  0.0271  0.2638
  136MOL0     H17917   4.959   7.662   2.256  0.1887  2.4882  2.1823
  136MOL0     H17918   4.864   8.066   2.219 -0.6144 -0.6757 -1.5995
  136MOL0     H17919   4.960   8.085   2.072 -1.8045  2.1404  0.2232
  136MOL0     H17920   5.085   8.082   2.345 -1.5763 -0.1820  0.2863
  136MOL0     H17921   5.072   8.228   2.260  0.8546  0.1188  1.7427
  136MOL0     H17922   5.228   8.151   2.087  1.5925 -2.2454 -1.5114
  136MOL0     H17923   5.198   7.985   2.126 -1.8371  0.8203  1.1583
  136MOL0     H17924   5.355   8.165   2.310  0.1059 -0.5202  3.0337
  136MOL0     H17925   5.305   8.002   2.351  1.5802  0.6113 -0.2700
  136MOL0     H17926   5.471   8.061   2.097  3.2321 -0.2020  0.9016
  136MOL0     H17927   5.414   7.908   2.159 -3.4048  0.8129 -1.6380
  136MOL0     H17928   5.520   7.974   2.389  2.3336 -0.4911  0.9709
  136MOL0     H17929   5.592   8.113   2.301  0.1983  0.0862  0.9219
  136MOL0     H17930   5.641   7.822   2.230  0.8246 -0.2648 -1.7656
  136MOL0     H17931   5.725   7.968   2.167 -0.2794  1.6080  1.4523
  136MOL0     H17932   5.856   7.852   2.300 -0.4949 -0.4896  0.3307
  136MOL0     H17933   5.766   7.867   2.449 -0.5384 -0.0026 -0.4305
  136MOL0     H17934   4.752   7.968   2.041 -0.2272  1.2101  2.6366
  136MOL0     H17935   4.572   7.799   1.972 -0.1356 -0.7858  0.5376
  136MOL0     H17936   4.501   7.349   1.905 -0.4154  0.8936 -0.7623
  136MOL0     H17937   4.384   7.178   1.832 -2.1667 -3.6259  2.4367
  136MOL0     H17938   3.560   6.758   2.589  0.1472  0.7517 -0.0155
  136MOL0     H17939   3.791   6.871   2.609  0.3160 -1.6178  0.7873
  136MOL0     H17940   4.206   6.766   2.435 -0.3752  0.0967 -0.2911
  136MOL0     H17941   4.441   6.796   2.440  0.9046  0.9827  0.0766
  136MOL0     H17942   4.645   7.122   2.214  1.1327 -0.5911 -2.8371
  136MOL0     H17943   4.591   6.958   2.199  1.6895  0.0111 -0.5960
  136MOL0     H17944   4.839   7.060   2.336 -1.3678  1.7294 -2.1495
  136MOL0     H17945   4.795   6.892   2.361 -0.9414 -1.3359 -1.4277
  136MOL0     H17946   4.962   6.913   2.191 -0.8317 -0.9067  2.5704
  136MOL0     H17947   4.876   7.022   2.093 -1.0194 -0.1577 -0.4031
  136MOL0     H17948   4.754   6.754   2.169 -2.5202  2.3778  1.5266
  136MOL0     H17949   4.697   6.854   2.036  1.3696  1.0959 -1.3219
  136MOL0     H17950   5.002   6.672   1.833 -2.5145  1.5197 -1.0539
  136MOL0     H17951   4.406   7.214   2.386 -2.5664  2.3366  1.8934
  136MOL0     H17952   4.164   7.202   2.388  2.1944  1.2542  1.6156
  137MOL0     O17953   4.010   6.120   3.245 -0.1621  0.3012 -0.5244
  137MOL0     C17954   4.023   5.997   3.229  0.0170  0.1964 -0.7305
  137MOL0     O17955   3.929   5.912   3.177 -0.3705  0.1676 -0.1577
  137MOL0     C17956   3.818   5.966   3.124  0.0742  0.0381  0.5873
  137MOL0     C17957   3.817   6.065   3.020 -0.8600 -0.2743 -0.1408
  137MOL0     C17958   3.695   6.101   2.965 -0.4232 -0.8278  0.4268
  137MOL0     C17959   3.577   6.060   3.018  0.7486  0.4911 -0.9691
  137MOL0     O17960   3.460   6.105   2.963 -0.3508  0.2587  0.1758
  137MOL0     C17961   3.353   6.004   2.957  0.0359  0.3214  0.0188
  137MOL0     C17962   3.241   6.021   3.068  0.0110  0.8637  0.8141
  137MOL0     C17963   3.104   5.963   3.030  0.4996  0.1500 -0.1076
  137MOL0     C17964   3.044   5.892   3.154  0.2086 -0.2776  0.0559
  137MOL0     C17965   2.891   5.905   3.182  0.0688  0.1293  0.0215
  137MOL0     C17966   2.849   6.048   3.202 -0.4691 -0.6936  0.5091
  137MOL0     C17967   2.728   6.067   3.289  0.4498  0.9074 -0.4314
  137MOL0     C17968   2.711   6.209   3.328  0.8299 -0.1360 -1.2000
  137MOL0     N17969   2.573   6.233   3.380  0.1172 -0.1447  0.6838
  137MOL0     C17970   2.550   6.295   3.505 -0.0670 -0.0494 -0.3119
  137MOL0     C17971   2.417   6.327   3.515 -0.0439 -0.2061  0.6783
  137MOL0     C17972   2.333   6.390   3.623 -0.7469  0.7141 -0.4906
  137MOL0     C17973   2.278   6.265   3.695 -0.4212 -1.4028  0.2177
  137MOL0     C17974   2.170   6.317   3.795  0.2598  0.3574 -0.4822
  137MOL0     C17975   2.096   6.193   3.855 -0.5363 -0.7936 -0.0272
  137MOL0     O17976   2.014   6.144   3.750  0.2211  0.0203 -0.2486
  137MOL0     C17977   1.891   6.119   3.795  0.0718 -0.0930 -0.9304
  137MOL0     C17978   1.863   6.034   3.906  0.1421  0.0922 -0.1395
  137MOL0     C17979   1.737   6.003   3.946 -0.2186  0.7174  0.5094
  137MOL0     C17980   1.628   6.046   3.870 -0.3263  0.4234 -0.4893
  137MOL0     C17981   1.497   6.007   3.917  0.9050  0.1282 -0.1040
  137MOL0     O17982   1.492   5.927   4.013 -0.3907  0.5718 -0.6372
  137MOL0     C17983   1.373   5.905   4.081  0.4888 -0.3471  0.1762
  137MOL0     C17984   1.262   5.869   4.013  0.5143 -0.3012  0.1624
  137MOL0     C17985   1.139   5.841   4.083  0.1802  0.7594 -0.4117
  137MOL0     C17986   1.139   5.850   4.225  0.1936  0.5202 -0.1274
  137MOL0     O17987   1.015   5.828   4.285 -0.2580 -0.0722  0.0370
  137MOL0     C17988   0.965   5.925   4.383 -0.1196 -0.1728  0.2669
  137MOL0     C17989   0.811   5.933   4.378 -0.6004  0.3082 -0.1312
  137MOL0     C17990   0.769   6.040   4.479 -0.6716  0.0199 -0.0208
  137MOL0     C17991   0.613   6.043   4.505  0.7674 -0.3229 -0.3473
  137MOL0     C17992   0.576   6.121   4.634 -0.0504  0.7266 -0.0914
  137MOL0     C17993   0.427   6.128   4.669 -0.1868  0.4929 -0.1146
  137MOL0     C17994   0.357   6.234   4.578 -0.2116 -0.8589  0.2533
  137MOL0     C17995   0.217   6.270   4.619 -0.5120 -0.4724 -0.3506
  137MOL0    Cl17996   0.124   6.313   4.474  0.5002 -0.0435 -0.3883
  137MOL0     C17997   1.247   5.884   4.296 -0.6302  0.2286 -0.7092
  137MOL0     C17998   1.370   5.907   4.227  0.5526  0.2448  0.2624
  137MOL0     O17999   1.399   6.074   3.874  0.0514 -0.3049 -0.1113
  137MOL0     C18000   1.651   6.125   3.753  0.2526 -0.6200  0.1192
  137MOL0     C18001   1.781   6.172   3.727  0.1476 -0.0213  0.5660
  137MOL0     N18002   2.361   6.265   3.401  0.1148  0.1910 -0.8305
  137MOL0     N18003   2.450   6.226   3.317 -0.3367  0.1098  0.2228
  137MOL0     C18004   3.579   5.978   3.135 -0.3698  0.2278 -0.2029
  137MOL0     C18005   3.701   5.933   3.189  0.7798 -0.1277 -0.8178
  137MOL0     C18006   4.137   5.915   3.285  0.2947 -0.2525  0.1459
  137MOL0     C18007   4.138   5.775   3.303  0.4576  0.2883  0.2224
  137MOL0     C18008   4.251   5.712   3.361 -0.6255 -0.1733  0.5319
  137MOL0     C18009   4.368   5.787   3.390 -0.6834 -0.7053 -0.4192
  137MOL0     O18010   4.466   5.703   3.446 -0.2227 -0.7352  0.0422
  137MOL0     C18011   4.556   5.760   3.545 -0.2123  0.3873 -0.3589
  137MOL0     C18012   4.544   5.658   3.662  0.6849 -0.8856 -0.2218
  137MOL0     C18013   4.608   5.522   3.629  0.0694  0.0989 -0.3361
  137MOL0     C18014   4.671   5.459   3.752  0.2879 -0.6225 -0.2598
  137MOL0     C18015   4.697   5.316   3.723 -0.5080 -0.1680 -0.7792
  137MOL0     C18016   4.713   5.199   3.687 -0.7636 -0.3373 -0.3600
  137MOL0     C18017   4.368   5.928   3.372 -0.8596  0.1843  0.0465
  137MOL0     C18018   4.255   5.989   3.321  0.5083 -0.0458  0.1108
  137MOL0     H18019   3.912   6.102   2.984 -1.7753  1.5515 -0.8112
  137MOL0     H18020   3.702   6.173   2.884  0.8864  0.0071  1.2570
  137MOL0     H18021   3.395   5.903   2.961 -2.5723 -0.8212  0.2540
  137MOL0     H18022   3.301   6.012   2.861  3.0423  2.2888 -1.6079
  137MOL0     H18023   3.213   6.123   3.095 -2.2255  0.3643  0.5443
  137MOL0     H18024   3.281   5.976   3.159 -2.7161 -1.2125  1.1175
  137MOL0     H18025   3.124   5.895   2.947  0.7189 -3.8243  2.9271
  137MOL0     H18026   3.033   6.042   3.002  2.1287  1.4581 -0.7482
  137MOL0     H18027   3.073   5.788   3.142 -2.2860 -1.1055  0.7521
  137MOL0     H18028   3.091   5.939   3.241  2.2741  1.7301 -1.9475
  137MOL0     H18029   2.867   5.850   3.274  0.9277  0.0086  0.1789
  137MOL0     H18030   2.834   5.857   3.102 -2.4758  0.5049  1.4864
  137MOL0     H18031   2.831   6.096   3.106  1.8829 -1.4009 -0.3411
  137MOL0     H18032   2.933   6.102   3.247 -1.6881  2.1631 -0.4392
  137MOL0     H18033   2.651   6.029   3.222 -0.8760  0.5158  1.2446
  137MOL0     H18034   2.737   5.995   3.371  2.8447  0.4373 -1.0246
  137MOL0     H18035   2.710   6.272   3.239 -1.0278  0.3938 -0.8637
  137MOL0     H18036   2.793   6.238   3.394  1.6857 -1.5498 -1.5984
  137MOL0     H18037   2.627   6.318   3.579  0.2687 -0.6078 -0.4857
  137MOL0     H18038   2.258   6.456   3.579 -1.2866  0.8631  0.6341
  137MOL0     H18039   2.396   6.441   3.697 -1.4713  0.0669  0.5980
  137MOL0     H18040   2.362   6.223   3.750  0.4962  0.2203  0.1335
  137MOL0     H18041   2.245   6.182   3.632  1.4313 -4.1797  2.6644
  137MOL0     H18042   2.215   6.374   3.877  3.4339  0.2922 -2.0129
  137MOL0     H18043   2.098   6.374   3.736 -2.0140  0.3638  2.0884
  137MOL0     H18044   2.034   6.226   3.938 -2.2005 -1.0328 -1.1314
  137MOL0     H18045   2.167   6.112   3.876  1.9461  1.0969 -0.6770
  137MOL0     H18046   1.948   6.001   3.964 -1.5833  1.3197  3.3374
  137MOL0     H18047   1.730   5.936   4.031  2.4759  0.8166  0.9037
  137MOL0     H18048   1.239   5.868   3.907 -2.8080 -2.0469  0.7324
  137MOL0     H18049   1.050   5.810   4.030  0.9923  0.3584 -1.5828
  137MOL0     H18050   1.008   6.024   4.369  0.2871 -0.1230  1.6621
  137MOL0     H18051   0.996   5.896   4.484  0.1745 -1.4326 -0.1620
  137MOL0     H18052   0.762   5.844   4.417  0.9902 -0.5191  0.0788
  137MOL0     H18053   0.762   5.960   4.284  1.4572  0.6130 -1.1757
  137MOL0     H18054   0.798   6.141   4.449 -0.4768 -0.2343 -0.6932
  137MOL0     H18055   0.824   6.015   4.570 -2.3530 -1.2214  0.6902
  137MOL0     H18056   0.571   6.100   4.423 -0.0506 -1.2833 -0.6201
  137MOL0     H18057   0.557   5.949   4.509 -1.8962  1.1298 -1.3674
  137MOL0     H18058   0.612   6.223   4.622  0.4029  0.4231 -1.6326
  137MOL0     H18059   0.634   6.072   4.713 -2.4830 -0.3006  1.1874
  137MOL0     H18060   0.409   6.156   4.774  3.2849 -0.1294  0.7774
  137MOL0     H18061   0.371   6.035   4.653 -0.1013 -0.0624  2.4050
  137MOL0     H18062   0.419   6.324   4.576 -1.7978  0.3093  1.3030
  137MOL0     H18063   0.353   6.192   4.477 -0.8396  0.3190 -0.2321
  137MOL0     H18064   0.227   6.364   4.673 -2.9702 -1.1330  1.4128
  137MOL0     H18065   0.158   6.205   4.684  1.8894 -2.6872 -0.2065
  137MOL0     H18066   1.241   5.897   4.403  1.6480 -3.6606  0.0931
  137MOL0     H18067   1.457   5.947   4.278  0.7842 -0.6943  0.6133
  137MOL0     H18068   1.574   6.157   3.684 -1.0807  0.4249  1.9953
  137MOL0     H18069   1.799   6.229   3.636 -0.3067 -0.8343 -0.0572
  137MOL0     H18070   3.495   5.934   3.186  0.9110 -1.4525  0.5412
  137MOL0     H18071   3.693   5.862   3.270 -0.1128 -0.2150 -0.9715
  137MOL0     H18072   4.054   5.709   3.284  0.2147  0.0375  1.9662
  137MOL0     H18073   4.247   5.605   3.377 -0.5781 -0.1602  0.6296
  137MOL0     H18074   4.520   5.861   3.570 -0.9235  0.4548 -1.5704
  137MOL0     H18075   4.659   5.768   3.509  1.2731 -2.6093  2.6573
  137MOL0     H18076   4.598   5.704   3.746  2.0112 -0.4728 -1.2479
  137MOL0     H18077   4.440   5.653   3.695  1.3659  0.3488  2.3253
  137MOL0     H18078   4.688   5.532   3.556  2.1399 -1.2867  1.6034
  137MOL0     H18079   4.527   5.456   3.596  1.6223 -2.2020  0.2562
  137MOL0     H18080   4.769   5.503   3.771 -0.8825  1.2521  1.9849
  137MOL0     H18081   4.610   5.480   3.841  0.1944 -0.3719 -0.3848
  137MOL0     H18082   4.729   5.095   3.667 -0.7246  0.0846 -2.7302
  137MOL0     H18083   4.450   5.996   3.393 -0.7091  1.1367 -3.0149
  137MOL0     H18084   4.256   6.097   3.308  0.2015  0.2512  2.1991
  138MOL0     O18085   3.285   5.326   1.667 -0.0589 -0.1347  0.0079
  138MOL0     C18086   3.330   5.358   1.778  0.6416 -0.3259  0.3017
  138MOL0     O18087   3.273   5.355   1.898 -0.0195  0.2393  0.1705
  138MOL0     C18088   3.173   5.264   1.922  0.3789  0.3340  1.0643
  138MOL0     C18089   3.043   5.295   1.890  0.0238  0.3448  0.6392
  138MOL0     C18090   2.939   5.203   1.938 -0.2775  0.5372 -0.8439
  138MOL0     C18091   2.970   5.084   2.012 -0.3613 -0.3525  0.3292
  138MOL0     O18092   2.855   5.013   2.042  0.0526  0.1754 -0.5982
  138MOL0     C18093   2.883   4.905   2.130 -0.8720 -0.6071  0.2013
  138MOL0     C18094   2.765   4.836   2.191 -1.0945  0.0260  0.6010
  138MOL0     C18095   2.636   4.922   2.184 -0.2953 -0.1114  0.0508
  138MOL0     C18096   2.515   4.857   2.260 -0.3274 -0.3461 -0.5644
  138MOL0     C18097   2.405   4.959   2.289  0.8481  0.1702 -0.1244
  138MOL0     C18098   2.271   4.903   2.340 -0.2476  0.1681 -0.0464
  138MOL0     C18099   2.173   5.008   2.402  0.8964 -0.3490  0.3231
  138MOL0     C18100   2.034   4.952   2.430  0.1291 -0.2753  0.8638
  138MOL0     N18101   1.941   5.060   2.450 -0.2311  0.1217 -0.2422
  138MOL0     C18102   1.931   5.135   2.569  0.3501  0.6934  0.5901
  138MOL0     C18103   1.838   5.226   2.541  0.1436  0.0922 -0.5574
  138MOL0     C18104   1.781   5.325   2.636  0.1476  0.3937  0.1155
  138MOL0     C18105   1.691   5.254   2.725  0.4583 -0.7755  0.4430
  138MOL0     C18106   1.586   5.352   2.780 -0.1581 -0.3034 -0.1328
  138MOL0     C18107   1.535   5.315   2.917  0.4454  0.8657  0.5418
  138MOL0     O18108   1.462   5.187   2.897 -1.0956  0.0237 -0.2769
  138MOL0     C18109   1.336   5.192   2.845  0.1280 -0.7878  0.6064
  138MOL0     C18110   1.277   5.073   2.814  0.0609  0.4433  0.1087
  138MOL0     C18111   1.145   5.063   2.776  1.6003  0.3729 -0.3225
  138MOL0     C18112   1.070   5.178   2.754  0.2717  0.0434 -0.4474
  138MOL0     C18113   0.932   5.168   2.715 -0.4778 -1.0231  0.1956
  138MOL0     O18114   0.883   5.042   2.694  0.1587  0.3881  0.0177
  138MOL0     C18115   0.758   5.039   2.657 -0.2557  0.0829  0.1029
  138MOL0     C18116   0.725   5.044   2.519  0.3305  0.5664 -0.1061
  138MOL0     C18117   0.597   5.028   2.473  0.1621  0.4248 -0.1883
  138MOL0     C18118   0.504   5.000   2.574 -0.7010  0.1009 -0.7629
  138MOL0     O18119   0.376   4.992   2.543 -0.0089  0.4270 -0.0521
  138MOL0     C18120   0.335   4.909   2.423  0.2704 -0.3570  0.2759
  138MOL0     C18121   0.188   4.864   2.443 -0.6111 -1.0703 -1.0891
  138MOL0     C18122   0.114   5.000   2.480  0.5472  1.1383  0.3417
  138MOL0     C18123  -0.040   4.984   2.484  0.2056 -0.5982 -0.0568
  138MOL0     C18124  -0.124   5.078   2.561  0.4806 -0.1900 -1.4014
  138MOL0     C18125  -0.257   5.010   2.617 -0.6078 -0.7634 -0.1395
  138MOL0     C18126  -0.353   5.122   2.668 -1.3952 -0.2079  0.2921
  138MOL0     C18127  -0.477   5.065   2.742  1.0168 -0.1472 -0.0564
  138MOL0    Cl18128  -0.606   5.004   2.637  0.2292  0.3950  0.2199
  138MOL0     C18129   0.538   4.992   2.707  0.5303  0.1561 -0.4528
  138MOL0     C18130   0.663   5.015   2.751  1.3859 -0.5772  0.3196
  138MOL0     O18131   0.870   5.270   2.685 -0.0227 -0.0964  0.5441
  138MOL0     C18132   1.136   5.307   2.761 -0.1631 -0.0886  0.1359
  138MOL0     C18133   1.263   5.315   2.813 -0.4919  0.6035  0.4336
  138MOL0     N18134   1.786   5.207   2.420  0.4115  0.4257  0.7661
  138MOL0     N18135   1.852   5.111   2.359 -0.8633  0.0054  0.6185
  138MOL0     C18136   3.108   5.060   2.045  0.0450  0.0666 -1.4956
  138MOL0     C18137   3.208   5.150   1.998 -0.2775 -0.3427  0.0250
  138MOL0     C18138   3.476   5.415   1.786 -0.4659  0.7367  0.5799
  138MOL0     C18139   3.511   5.485   1.894 -0.2712 -0.1554 -0.6894
  138MOL0     C18140   3.633   5.559   1.886 -0.2288 -0.0936  0.1620
  138MOL0     C18141   3.707   5.573   1.766 -0.0069  1.3955 -1.2054
  138MOL0     O18142   3.820   5.657   1.773  0.1139  0.6855 -0.3927
  138MOL0     C18143   3.885   5.694   1.656 -0.7936 -0.0650  0.7997
  138MOL0     C18144   3.947   5.829   1.676 -0.0692 -0.2476 -0.3186
  138MOL0     C18145   4.019   5.844   1.804  0.7413  0.2280 -0.8207
  138MOL0     C18146   4.126   5.740   1.846  0.1651  0.0544  0.4992
  138MOL0     C18147   4.208   5.798   1.954  0.7852 -0.0685 -0.2404
  138MOL0     C18148   4.264   5.849   2.044  0.4390  0.0040 -0.3646
  138MOL0     C18149   3.678   5.482   1.668  0.2466  0.3880 -0.2550
  138MOL0     C18150   3.558   5.404   1.669 -0.1744 -1.0737 -0.0125
  138MOL0     H18151   3.009   5.377   1.828 -2.1275 -2.1632 -1.8141
  138MOL0     H18152   2.836   5.234   1.929 -0.4040  0.4581  0.1712
  138MOL0     H18153   2.955   4.934   2.208  0.6206  0.1071 -1.3901
  138MOL0     H18154   2.928   4.839   2.056 -0.9271  1.1235 -1.4390
  138MOL0     H18155   2.794   4.818   2.295  5.9805  0.2251 -0.8239
  138MOL0     H18156   2.751   4.738   2.145 -2.7196 -0.4849  2.0582
  138MOL0     H18157   2.611   4.936   2.078  1.2236  2.4377 -0.0799
  138MOL0     H18158   2.659   5.016   2.235  0.0425 -0.9542  1.4926
  138MOL0     H18159   2.478   4.774   2.199 -1.0731 -0.5307  0.1227
  138MOL0     H18160   2.545   4.803   2.351  0.1792 -0.6683 -0.9148
  138MOL0     H18161   2.386   5.009   2.193 -1.3676  1.2852  0.8391
  138MOL0     H18162   2.437   5.023   2.371  0.3153 -0.3781  0.5212
  138MOL0     H18163   2.291   4.824   2.413 -0.4137 -3.8268 -3.9019
  138MOL0     H18164   2.232   4.842   2.258  1.5993  0.1140 -0.9144
  138MOL0     H18165   2.218   5.043   2.496 -0.7283  0.0140  1.0066
  138MOL0     H18166   2.149   5.090   2.335 -4.7782 -1.3016  0.6704
  138MOL0     H18167   2.031   4.880   2.512 -1.7900  0.8088  1.8069
  138MOL0     H18168   2.008   4.890   2.345 -0.5976  0.1784  0.7483
  138MOL0     H18169   1.986   5.127   2.662 -0.2429  0.8321  0.9561
  138MOL0     H18170   1.724   5.395   2.575 -1.8999  0.1811  1.6841
  138MOL0     H18171   1.860   5.373   2.694  0.7757  0.1032 -0.4952
  138MOL0     H18172   1.749   5.224   2.813 -1.8029 -0.7012  2.0532
  138MOL0     H18173   1.643   5.169   2.676  0.7130 -1.4165  1.2830
  138MOL0     H18174   1.634   5.450   2.782  1.8499 -1.1250 -2.5840
  138MOL0     H18175   1.504   5.359   2.708  1.7829  0.1901 -2.4045
  138MOL0     H18176   1.473   5.379   2.981 -0.4492 -0.4885  1.0887
  138MOL0     H18177   1.621   5.304   2.984 -0.1654  0.2845  1.2562
  138MOL0     H18178   1.335   4.983   2.833 -0.0439  0.7853  2.4101
  138MOL0     H18179   1.099   4.966   2.762 -0.2896  0.9212  1.5671
  138MOL0     H18180   0.817   5.053   2.462  0.3584 -2.0145 -0.5757
  138MOL0     H18181   0.572   5.029   2.367 -0.7426 -3.3249 -0.1276
  138MOL0     H18182   0.394   4.817   2.413  0.8695  0.2560 -2.4899
  138MOL0     H18183   0.348   4.973   2.335 -0.8220  2.1063  1.7917
  138MOL0     H18184   0.182   4.784   2.518  0.4083 -1.2013 -1.1318
  138MOL0     H18185   0.140   4.832   2.351  2.9597 -2.9405 -2.5040
  138MOL0     H18186   0.140   5.079   2.409  0.4985  0.2162 -0.7295
  138MOL0     H18187   0.141   5.044   2.577  2.3020 -0.0367  0.4290
  138MOL0     H18188  -0.074   4.993   2.380  0.9396 -3.0529 -0.5969
  138MOL0     H18189  -0.048   4.878   2.512  2.5916 -0.6648  0.5395
  138MOL0     H18190  -0.156   5.156   2.491  0.1549 -0.7211 -1.8519
  138MOL0     H18191  -0.066   5.125   2.641  1.0606  1.4403 -2.7037
  138MOL0     H18192  -0.233   4.934   2.692 -0.4728 -1.0073 -0.4241
  138MOL0     H18193  -0.303   4.964   2.529  1.2316  0.8140 -2.0442
  138MOL0     H18194  -0.288   5.185   2.729  2.2360 -2.3321 -1.0984
  138MOL0     H18195  -0.400   5.167   2.579 -2.0536  1.5008  1.4427
  138MOL0     H18196  -0.519   5.146   2.803 -0.0481 -0.5226 -0.2666
  138MOL0     H18197  -0.443   4.979   2.801 -2.1105 -1.4311  0.0801
  138MOL0     H18198   0.455   4.963   2.770  0.5186  2.5471  0.7356
  138MOL0     H18199   0.694   5.001   2.854 -0.9600  2.3749  1.5860
  138MOL0     H18200   1.088   5.400   2.735  3.4199  2.4993  2.0126
  138MOL0     H18201   1.313   5.412   2.816  3.4333 -0.8454 -4.3267
  138MOL0     H18202   3.136   4.979   2.112 -0.6809  2.0393  1.4263
  138MOL0     H18203   3.316   5.146   2.008  0.1584  2.2906 -2.3414
  138MOL0     H18204   3.439   5.500   1.974  0.8732  0.5876  0.2532
  138MOL0     H18205   3.665   5.614   1.973 -1.6204  1.4462 -0.2609
  138MOL0     H18206   3.838   5.703   1.558 -0.2517  0.3439  0.5734
  138MOL0     H18207   3.973   5.629   1.649  0.5685  1.5467  2.1029
  138MOL0     H18208   4.017   5.833   1.592 -1.4479  2.1223 -1.4402
  138MOL0     H18209   3.877   5.911   1.658  1.3207  1.0324 -0.0636
  138MOL0     H18210   3.947   5.853   1.885  0.9107  1.2222 -0.7621
  138MOL0     H18211   4.070   5.941   1.804 -0.5513  0.9628 -2.3582
  138MOL0     H18212   4.080   5.644   1.868 -2.6505  0.1814 -3.6617
  138MOL0     H18213   4.184   5.722   1.755 -0.5378  0.6615 -0.0853
  138MOL0     H18214   4.320   5.910   2.113 -1.1479 -0.2919  1.2599
  138MOL0     H18215   3.734   5.464   1.577  0.4097 -0.8949  0.0855
  138MOL0     H18216   3.528   5.334   1.592 -0.9020  1.9235 -2.6582
  139MOL0     O18217   4.153   9.186   8.341 -0.5788  0.8653 -0.0164
  139MOL0     C18218   4.200   9.082   8.289 -0.9390  0.1651 -0.4377
  139MOL0     O18219   4.172   8.954   8.311  0.2253 -0.0945 -0.5730
  139MOL0     C18220   4.079   8.929   8.413 -0.2563 -0.9870  0.1530
  139MOL0     C18221   3.938   8.916   8.398 -1.2470  0.0039  0.2809
  139MOL0     C18222   3.858   8.906   8.509  0.6936  0.2183  0.5775
  139MOL0     C18223   3.908   8.904   8.636  0.3773 -0.6387  1.4187
  139MOL0     O18224   3.827   8.882   8.740  0.5809  0.3467 -0.6483
  139MOL0     C18225   3.702   8.960   8.743 -0.4617 -0.0490  0.2104
  139MOL0     C18226   3.660   8.940   8.889  0.5770 -0.0362 -0.0919
  139MOL0     C18227   3.517   8.986   8.919  0.3410  0.2056 -0.0203
  139MOL0     C18228   3.496   8.999   9.077 -0.5159 -0.0940  0.5234
  139MOL0     C18229   3.369   9.060   9.110 -0.5276  0.1111 -0.0043
  139MOL0     C18230   3.313   9.035   9.246  0.5215 -0.2711  1.1035
  139MOL0     C18231   3.183   9.122   9.258 -0.1766  0.3066 -0.7290
  139MOL0     C18232   3.108   9.098   9.379 -0.8022 -0.0357 -0.6975
  139MOL0     N18233   2.968   9.137   9.367  0.7976  0.2705  0.7283
  139MOL0     C18234   2.917   9.249   9.311 -0.3878  0.4866  0.5714
  139MOL0     C18235   2.786   9.231   9.306  0.1138 -0.5763  0.3038
  139MOL0     C18236   2.691   9.339   9.260 -0.7159  0.5371  0.0579
  139MOL0     C18237   2.641   9.445   9.368 -1.0397  0.1318  0.1868
  139MOL0     C18238   2.565   9.386   9.481  0.0965  0.3230  0.3687
  139MOL0     C18239   2.431   9.324   9.441  0.1491  0.6790 -0.3471
  139MOL0     O18240   2.340   9.322   9.554 -0.4063 -0.0301  0.9807
  139MOL0     C18241   2.209   9.295   9.534 -0.6889  0.5647 -0.1817
  139MOL0     C18242   2.130   9.312   9.652  0.4617 -0.0181  0.1983
  139MOL0     C18243   1.995   9.305   9.640  0.0766 -0.1756 -1.2856
  139MOL0     C18244   1.930   9.288   9.518  0.6027  0.2139 -0.0443
  139MOL0     C18245   1.781   9.287   9.521 -0.8302  0.3154  0.2521
  139MOL0     O18246   1.715   9.312   9.640 -0.0398 -0.1218 -0.0307
  139MOL0     C18247   1.577   9.311   9.640 -1.4898  0.7954  0.2959
  139MOL0     C18248   1.502   9.437   9.649 -0.7074 -0.6573 -0.6548
  139MOL0     C18249   1.366   9.430   9.659  0.4897 -0.2305  0.3465
  139MOL0     C18250   1.296   9.305   9.671  0.4347 -0.6129  1.2117
  139MOL0     O18251   1.166   9.293   9.703 -0.7549 -0.7796 -0.1368
  139MOL0     C18252   1.071   9.318   9.594 -0.3971 -0.0235 -0.8812
  139MOL0     C18253   0.944   9.267   9.656  1.3819  0.3910  0.3637
  139MOL0     C18254   0.824   9.284   9.562 -0.2318 -0.0454 -0.5924
  139MOL0     C18255   0.690   9.239   9.620  0.0871  1.4207 -0.5769
  139MOL0     C18256   0.680   9.091   9.644 -0.0410  0.1964 -0.1925
  139MOL0     C18257   0.543   9.055   9.698 -1.1920  0.1081 -0.4772
  139MOL0     C18258   0.528   9.096   9.847  0.8019  0.0520  1.5851
  139MOL0     C18259   0.582   8.987   9.935  0.0739 -0.6812  0.4315
  139MOL0    Cl18260   0.504   8.829   9.911 -0.2126  0.4600 -0.4637
  139MOL0     C18261   1.368   9.190   9.661  0.1345  0.3025  0.6440
  139MOL0     C18262   1.504   9.191   9.636 -0.0107 -0.7128  0.6646
  139MOL0     O18263   1.723   9.260   9.415  0.1859 -0.5300 -0.1276
  139MOL0     C18264   2.002   9.269   9.405  0.2697 -0.5442 -0.0149
  139MOL0     C18265   2.143   9.267   9.416  0.1557 -0.4582  0.3232
  139MOL0     N18266   2.757   9.111   9.374 -0.6032 -0.3279  0.1050
  139MOL0     N18267   2.865   9.058   9.416  0.1377 -0.2655  0.0952
  139MOL0     C18268   4.051   8.907   8.646 -0.4947  0.6271  0.0042
  139MOL0     C18269   4.127   8.914   8.535 -0.8284  0.4025 -0.2913
  139MOL0     C18270   4.322   9.100   8.205 -0.3241  0.6755  0.5261
  139MOL0     C18271   4.394   8.997   8.159 -0.0026  0.5327  1.1008
  139MOL0     C18272   4.513   9.009   8.086 -1.5418 -0.1168  0.2798
  139MOL0     C18273   4.568   9.138   8.077  0.0409 -0.0320  0.5942
  139MOL0     O18274   4.682   9.156   8.012  0.0630  0.2947 -0.1566
  139MOL0     C18275   4.794   9.149   8.098 -0.3481  0.2659  0.3465
  139MOL0     C18276   4.928   9.179   8.021  0.4580  1.0735 -0.2808
  139MOL0     C18277   4.922   9.310   7.955  0.1543 -0.1968  0.7464
  139MOL0     C18278   5.032   9.342   7.846 -0.5091 -1.3506 -0.2137
  139MOL0     C18279   5.166   9.311   7.899  0.3819  0.1235  0.4017
  139MOL0     C18280   5.280   9.298   7.931  0.0240  1.0386  0.0522
  139MOL0     C18281   4.494   9.242   8.117 -0.0561 -0.3823  0.0355
  139MOL0     C18282   4.368   9.227   8.184 -0.4171 -0.1757 -0.1476
  139MOL0     H18283   3.900   8.919   8.296  0.5959  0.9750 -0.4445
  139MOL0     H18284   3.754   8.879   8.492 -0.0620  2.6281  0.9595
  139MOL0     H18285   3.632   8.922   8.668  0.6927 -0.2436 -0.7971
  139MOL0     H18286   3.709   9.067   8.721 -3.7441  0.3721  0.7586
  139MOL0     H18287   3.737   8.994   8.944 -2.0504  1.5548  2.2962
  139MOL0     H18288   3.663   8.835   8.921 -3.0462 -0.1619  0.1947
  139MOL0     H18289   3.451   8.916   8.867  0.1933 -0.1465  0.6305
  139MOL0     H18290   3.495   9.082   8.870 -2.2071  0.0783  0.7138
  139MOL0     H18291   3.489   8.899   9.120  1.9820 -1.3670 -1.7305
  139MOL0     H18292   3.580   9.053   9.121 -0.5735 -0.0344  0.5593
  139MOL0     H18293   3.295   9.022   9.040  0.8180  0.6196 -1.7775
  139MOL0     H18294   3.360   9.169   9.101 -4.0147 -0.0471  0.1563
  139MOL0     H18295   3.383   9.071   9.322 -0.1500 -0.9575  2.0647
  139MOL0     H18296   3.296   8.928   9.262  1.8048 -1.6279 -4.5306
  139MOL0     H18297   3.195   9.230   9.253 -0.2486  0.3168 -0.7021
  139MOL0     H18298   3.124   9.093   9.170 -1.2109 -0.8228  0.2976
  139MOL0     H18299   3.161   9.145   9.462 -2.5819 -3.8348  2.9793
  139MOL0     H18300   3.114   8.990   9.397  2.3840 -0.3678 -2.8866
  139MOL0     H18301   2.984   9.324   9.271 -0.2593  0.3376  0.5071
  139MOL0     H18302   2.608   9.291   9.208 -1.8945  0.4794  1.8920
  139MOL0     H18303   2.749   9.391   9.184 -0.0716 -0.3001 -0.0258
  139MOL0     H18304   2.567   9.501   9.310 -2.7577 -1.7871  0.3757
  139MOL0     H18305   2.722   9.511   9.402 -1.4744  1.0563 -0.5437
  139MOL0     H18306   2.615   9.304   9.533 -3.0151 -0.5520  2.2985
  139MOL0     H18307   2.549   9.468   9.552  0.5190  0.5440  0.2086
  139MOL0     H18308   2.435   9.220   9.408 -2.2625 -0.2195  1.8977
  139MOL0     H18309   2.385   9.381   9.360  1.1946  0.6304 -1.0000
  139MOL0     H18310   2.169   9.335   9.751 -0.2746  0.9838  0.2719
  139MOL0     H18311   1.930   9.311   9.727 -3.1195  0.9565 -3.5800
  139MOL0     H18312   1.548   9.535   9.648 -3.6909  0.8558 -1.1396
  139MOL0     H18313   1.299   9.513   9.674  0.1535 -0.4066 -0.1294
  139MOL0     H18314   1.095   9.259   9.505  0.4559 -0.8518 -0.1150
  139MOL0     H18315   1.059   9.421   9.558  1.0930  0.2159 -0.7269
  139MOL0     H18316   0.927   9.319   9.751  1.0998  0.6130  0.1926
  139MOL0     H18317   0.958   9.160   9.676  1.1715  0.3367  0.2247
  139MOL0     H18318   0.850   9.238   9.466 -1.3069 -4.2259  0.9034
  139MOL0     H18319   0.797   9.390   9.556  0.1424  0.1965  1.3927
  139MOL0     H18320   0.670   9.287   9.717  0.4005 -0.0955  0.2665
  139MOL0     H18321   0.616   9.256   9.541 -0.9447 -1.4274 -0.3275
  139MOL0     H18322   0.752   9.041   9.709 -3.9695 -5.7198  0.3352
  139MOL0     H18323   0.685   9.055   9.541  0.3503  0.3245 -0.2207
  139MOL0     H18324   0.519   8.952   9.673  2.3630 -0.5684 -1.7216
  139MOL0     H18325   0.466   9.110   9.645 -1.1913  1.1678  0.5728
  139MOL0     H18326   0.583   9.188   9.870  2.2683 -0.5652  0.6968
  139MOL0     H18327   0.421   9.113   9.860  0.2427 -0.8195 -1.1864
  139MOL0     H18328   0.557   9.020  10.036 -2.0619 -0.1980 -0.2042
  139MOL0     H18329   0.691   8.988   9.943 -0.0165  0.5056  1.8448
  139MOL0     H18330   1.327   9.090   9.661  0.6025  0.1022 -0.0553
  139MOL0     H18331   1.541   9.093   9.608 -1.0103 -1.1062  0.6543
  139MOL0     H18332   1.954   9.236   9.313  1.8449  0.6597 -1.3395
  139MOL0     H18333   2.197   9.241   9.326  0.2141  3.1465 -0.8242
  139MOL0     H18334   4.102   8.889   8.740  1.8365  2.1878 -0.8838
  139MOL0     H18335   4.231   8.921   8.564 -1.5409 -0.3415  2.8324
  139MOL0     H18336   4.354   8.900   8.186  0.6025  0.4721  1.8318
  139MOL0     H18337   4.553   8.922   8.035  1.4666  0.7241  1.0169
  139MOL0     H18338   4.802   9.051   8.146 -3.8949  0.0179  0.7317
  139MOL0     H18339   4.781   9.219   8.181 -1.3434  2.5597 -1.6436
  139MOL0     H18340   5.011   9.180   8.092 -0.4229  4.5677  0.9019
  139MOL0     H18341   4.951   9.117   7.933  3.7033  4.0679 -1.8177
  139MOL0     H18342   4.909   9.383   8.036 -2.3807  0.3190 -0.0477
  139MOL0     H18343   4.830   9.315   7.897  1.9725 -0.6940 -2.4057
  139MOL0     H18344   5.032   9.290   7.750  2.6862 -0.2872 -0.9216
  139MOL0     H18345   5.031   9.451   7.835 -2.0693 -1.1970  1.1514
  139MOL0     H18346   5.383   9.281   7.958  0.9923 -2.1543 -4.4364
  139MOL0     H18347   4.531   9.342   8.102 -2.1050  0.8761  2.5802
  139MOL0     H18348   4.312   9.318   8.203 -1.2663 -0.9778  1.3723
  140MOL0     O18349   3.539  10.339   9.986 -0.5507 -0.5790  0.4232
  140MOL0     C18350   3.577  10.222   9.982 -0.8807 -1.2942 -0.1975
  140MOL0     O18351   3.496  10.112   9.978 -0.6420  0.2371 -0.3980
  140MOL0     C18352   3.362  10.124  10.013  1.5654 -0.3963 -0.1299
  140MOL0     C18353   3.305  10.055  10.116  0.0641 -0.0590  0.2197
  140MOL0     C18354   3.165  10.066  10.135  0.2986  0.1159  0.1016
  140MOL0     C18355   3.088  10.147  10.052  0.8308 -0.5613 -0.3456
  140MOL0     O18356   2.957  10.140  10.075  0.0433  0.5694  0.1255
  140MOL0     C18357   2.867  10.121   9.966 -0.4029 -0.1867 -0.2658
  140MOL0     C18358   2.728  10.111  10.025  0.2870  0.0489 -0.5583
  140MOL0     C18359   2.627  10.065   9.925  0.4051 -0.0329  1.1270
  140MOL0     C18360   2.599  10.181   9.822  0.0704  0.7245 -0.6262
  140MOL0     C18361   2.485  10.124   9.727  1.0462  0.0002 -0.1141
  140MOL0     C18362   2.345  10.119   9.791  0.3325  0.8617 -0.0724
  140MOL0     C18363   2.289  10.250   9.841 -0.5680  0.4150 -0.1142
  140MOL0     C18364   2.141  10.264   9.835  0.0705 -0.5393  0.1488
  140MOL0     N18365   2.076  10.398   9.874  0.1984  0.0391 -0.2271
  140MOL0     C18366   2.084  10.444  10.005 -0.2603  0.6234 -0.6193
  140MOL0     C18367   2.020  10.562  10.013  0.7734  0.2517  0.3706
  140MOL0     C18368   1.996  10.654  10.138 -1.0622  0.1491  0.4917
  140MOL0     C18369   1.970  10.802  10.099  0.5486 -0.9561 -0.2785
  140MOL0     C18370   1.957  10.898  10.221  0.1859 -0.0443  0.6094
  140MOL0     C18371   1.950  11.051  10.176 -0.3593  0.0639  0.7905
  140MOL0     O18372   1.923  11.142  10.282  0.1864 -0.8154  0.6379
  140MOL0     C18373   1.796  11.169  10.322 -0.0871  0.1560  0.0223
  140MOL0     C18374   1.687  11.095  10.273  0.7265 -0.6294  0.0157
  140MOL0     C18375   1.559  11.112  10.332  0.5376 -0.4340  0.1042
  140MOL0     C18376   1.542  11.213  10.438 -0.3543  0.3213  0.2281
  140MOL0     C18377   1.408  11.236  10.495 -0.1802 -0.5957 -0.2728
  140MOL0     O18378   1.317  11.144  10.473 -0.2435  0.5117 -0.1691
  140MOL0     C18379   1.186  11.178  10.507 -0.3218  0.4473  1.4093
  140MOL0     C18380   1.097  11.084  10.564 -0.4072  0.3344  0.7441
  140MOL0     C18381   0.960  11.114  10.598  0.0882 -0.6373  0.8252
  140MOL0     C18382   0.905  11.226  10.539 -0.9546 -0.6045 -1.0308
  140MOL0     O18383   0.763  11.220  10.541 -0.0314  0.1765  0.8259
  140MOL0     C18384   0.695  11.331  10.485  0.0118 -0.3521  0.2407
  140MOL0     C18385   0.676  11.321  10.332 -0.3721 -0.2416  0.0038
  140MOL0     C18386   0.621  11.443  10.272 -0.3492 -0.5970 -0.2425
  140MOL0     C18387   0.572  11.424  10.127  0.0036  0.2090 -0.2385
  140MOL0     C18388   0.679  11.363  10.039  1.0568  0.1885  0.2546
  140MOL0     C18389   0.800  11.454  10.009 -0.4444 -0.0475  0.3178
  140MOL0     C18390   0.922  11.370   9.968 -0.1555 -0.1156  0.0935
  140MOL0     C18391   1.058  11.445   9.993  0.1634  0.4242  0.2212
  140MOL0    Cl18392   1.028  11.610   9.935  0.0324  0.1187 -0.0012
  140MOL0     C18393   0.983  11.321  10.481 -0.7844  0.1523 -1.0047
  140MOL0     C18394   1.123  11.297  10.464  0.2780 -0.4670 -1.1953
  140MOL0     O18395   1.392  11.348  10.554  0.0142 -0.1554 -0.2455
  140MOL0     C18396   1.653  11.286  10.485 -0.0162 -0.0823  0.4984
  140MOL0     C18397   1.781  11.257  10.436  0.2242  0.0473 -0.3779
  140MOL0     N18398   1.956  10.578   9.889 -0.5793 -0.3166  0.0615
  140MOL0     N18399   2.000  10.485   9.812  0.3938  0.1269 -0.3076
  140MOL0     C18400   3.150  10.210   9.946 -0.7465 -0.3195 -0.1811
  140MOL0     C18401   3.286  10.195   9.928  0.3780  0.4364 -0.7238
  140MOL0     C18402   3.719  10.192   9.944  0.6282  0.6855  0.4460
  140MOL0     C18403   3.781  10.078   9.976  0.0507  0.8933 -0.3201
  140MOL0     C18404   3.912  10.052   9.952  0.4658  0.0073  0.3048
  140MOL0     C18405   3.997  10.143   9.890  0.5730 -1.2163 -0.0754
  140MOL0     O18406   4.132  10.130   9.855 -0.4610  0.1339  0.1825
  140MOL0     C18407   4.201  10.015   9.917 -1.3039 -0.0611  0.1164
  140MOL0     C18408   4.355  10.007   9.870  1.4562 -0.4552 -0.2267
  140MOL0     C18409   4.374  10.024   9.726  0.2133  0.0684  0.3942
  140MOL0     C18410   4.433  10.169   9.695 -0.2444  0.3425  0.0122
  140MOL0     C18411   4.573  10.188   9.733  0.3220  0.0517  0.2801
  140MOL0     C18412   4.694  10.204   9.740  0.1150  0.1329  0.0425
  140MOL0     C18413   3.935  10.266   9.862  0.0075 -0.6375 -0.2980
  140MOL0     C18414   3.796  10.287   9.882 -0.2894  0.1534 -0.8813
  140MOL0     H18415   3.367   9.996  10.183 -0.5650  0.0024  0.8622
  140MOL0     H18416   3.118  10.007  10.213 -1.1113  1.3497  0.2165
  140MOL0     H18417   2.890  10.035   9.903 -2.3658  0.7104 -2.3349
  140MOL0     H18418   2.870  10.204   9.894 -1.8313 -0.9814 -1.2832
  140MOL0     H18419   2.698  10.208  10.063 -1.9923 -0.9033  0.2308
  140MOL0     H18420   2.720  10.047  10.114 -0.0697 -1.7227 -1.8157
  140MOL0     H18421   2.532  10.052   9.978 -0.6600  1.4652 -0.2998
  140MOL0     H18422   2.654   9.973   9.874  5.1985  1.7656 -0.0987
  140MOL0     H18423   2.564  10.274   9.868 -0.5883  0.9049 -1.4650
  140MOL0     H18424   2.684  10.207   9.758  0.7040  5.0142  1.5607
  140MOL0     H18425   2.508  10.022   9.697  0.3803  0.2492 -1.5569
  140MOL0     H18426   2.480  10.176   9.630 -2.1183  1.3065  0.6323
  140MOL0     H18427   2.342  10.047   9.873 -1.1368 -0.1903 -1.0073
  140MOL0     H18428   2.281  10.073   9.716  0.3391  0.5536  0.1085
  140MOL0     H18429   2.331  10.269   9.941  0.5448 -0.1544 -0.4483
  140MOL0     H18430   2.331  10.327   9.775  0.6704  0.4976  0.7310
  140MOL0     H18431   2.098  10.181   9.890 -0.4200 -1.9764 -2.2432
  140MOL0     H18432   2.111  10.250   9.730 -0.2513 -2.4645  0.4645
  140MOL0     H18433   2.158  10.407  10.076  0.1937 -0.8362 -1.8008
  140MOL0     H18434   2.084  10.659  10.203  0.1759  0.5552 -1.1251
  140MOL0     H18435   1.919  10.608  10.199  0.6248 -3.2396  0.3034
  140MOL0     H18436   1.878  10.808  10.040  1.4193 -2.5759 -1.9148
  140MOL0     H18437   2.054  10.833  10.037  0.3473  2.0968  0.8057
  140MOL0     H18438   1.861  10.870  10.265 -0.5209 -1.8545 -1.8792
  140MOL0     H18439   2.044  10.882  10.286  1.5817  0.2708 -1.0986
  140MOL0     H18440   1.890  11.078  10.089  2.1942 -0.9106 -1.4096
  140MOL0     H18441   2.049  11.079  10.140  1.0613 -3.6993  1.3703
  140MOL0     H18442   1.693  11.033  10.184 -0.5046  1.2956 -1.5005
  140MOL0     H18443   1.476  11.058  10.287  2.2814 -1.4432 -2.0974
  140MOL0     H18444   1.147  10.990  10.586  1.0305  0.8454 -0.1938
  140MOL0     H18445   0.905  11.041  10.657 -0.3010 -0.5275  0.5947
  140MOL0     H18446   0.715  11.432  10.523 -4.6997  1.7194 -1.9809
  140MOL0     H18447   0.595  11.308  10.522 -0.1059  0.9771  0.8072
  140MOL0     H18448   0.595  11.250  10.309 -1.0530  0.5090  0.0240
  140MOL0     H18449   0.770  11.308  10.278 -1.7460 -1.4605 -2.2675
  140MOL0     H18450   0.704  11.513  10.266 -0.6600 -0.2620 -0.6702
  140MOL0     H18451   0.546  11.498  10.331 -0.6414 -1.7601  0.4938
  140MOL0     H18452   0.472  11.379  10.120 -0.5552  1.3707 -0.0796
  140MOL0     H18453   0.544  11.527  10.102 -3.0023  0.9241  4.7827
  140MOL0     H18454   0.627  11.350   9.943  2.2141 -0.4623 -0.3007
  140MOL0     H18455   0.710  11.263  10.069  0.8301 -0.3171 -1.1119
  140MOL0     H18456   0.828  11.516  10.095  2.8817 -1.6163  0.5549
  140MOL0     H18457   0.787  11.533   9.934  3.5064 -0.0724 -0.6068
  140MOL0     H18458   0.918  11.275  10.022  0.9689 -0.3413 -0.2064
  140MOL0     H18459   0.925  11.348   9.861  0.7535 -0.1305  0.1140
  140MOL0     H18460   1.152  11.414   9.946  0.3840 -0.8225  1.4072
  140MOL0     H18461   1.078  11.454  10.100  1.2536  0.1474  0.0544
  140MOL0     H18462   0.943  11.415  10.444  1.6341  0.6262 -2.6555
  140MOL0     H18463   1.169  11.376  10.405  1.5492  0.6051  1.0975
  140MOL0     H18464   1.637  11.362  10.561  2.1348  0.2746  0.6665
  140MOL0     H18465   1.864  11.302  10.490 -2.1290  2.3651  1.5596
  140MOL0     H18466   3.100  10.264   9.866  0.3456 -0.3904 -0.9331
  140MOL0     H18467   3.343  10.254   9.857  2.0227  3.4703  2.7928
  140MOL0     H18468   3.722  10.010  10.037  0.4361 -0.1717 -1.1032
  140MOL0     H18469   3.957   9.964   9.997  1.3801 -0.3675 -1.2576
  140MOL0     H18470   4.144   9.926   9.891  0.9974 -2.1930  1.8272
  140MOL0     H18471   4.201  10.019  10.027  0.1312  0.0064  0.1311
  140MOL0     H18472   4.413  10.075   9.932  0.8724 -4.1121  4.9454
  140MOL0     H18473   4.377   9.905   9.901 -2.5909 -0.6456  2.9243
  140MOL0     H18474   4.281  10.004   9.673  0.1466  0.2000  0.4601
  140MOL0     H18475   4.450   9.955   9.689  0.7691 -0.4271  2.3243
  140MOL0     H18476   4.421  10.186   9.587 -2.3615 -1.3623 -0.0924
  140MOL0     H18477   4.373  10.239   9.754 -0.5521  0.8062 -0.8261
  140MOL0     H18478   4.799  10.195   9.755  0.3933 -0.8946 -2.0671
  140MOL0     H18479   3.988  10.352   9.824  2.7932 -0.9158  2.4559
  140MOL0     H18480   3.747  10.378   9.846  1.5208  1.1241 -1.0009
  141MOL0     O18481   6.078   4.302   4.568 -0.2367 -0.8033 -0.1010
  141MOL0     C18482   6.081   4.408   4.634 -0.6030 -0.9742  0.2983
  141MOL0     O18483   5.974   4.491   4.657 -0.2001  0.0946  0.5946
  141MOL0     C18484   5.849   4.449   4.616  0.1837 -0.8915  0.7343
  141MOL0     C18485   5.737   4.465   4.705 -0.8220  0.1771 -0.0619
  141MOL0     C18486   5.604   4.441   4.662  0.4579  0.4705  0.0656
  141MOL0     C18487   5.582   4.409   4.533  0.2225  0.4104 -0.2171
  141MOL0     O18488   5.463   4.397   4.468  0.3424  0.1412  0.0333
  141MOL0     C18489   5.339   4.428   4.534  0.3306  0.6200 -1.1024
  141MOL0     C18490   5.221   4.428   4.440  0.3789  0.2356  0.0623
  141MOL0     C18491   5.193   4.294   4.380  0.0423  0.0106  0.6044
  141MOL0     C18492   5.059   4.301   4.291  0.4440 -0.3396  0.1063
  141MOL0     C18493   4.926   4.289   4.371  0.0686 -0.2894 -0.4520
  141MOL0     C18494   4.803   4.306   4.272  0.4729  0.2529 -0.7376
  141MOL0     C18495   4.787   4.436   4.190  0.3733  0.5430  0.1276
  141MOL0     C18496   4.748   4.553   4.284  1.3063  0.5069 -0.1361
  141MOL0     N18497   4.606   4.559   4.293  0.0653  0.0547 -0.5774
  141MOL0     C18498   4.519   4.605   4.194 -0.1831 -0.1824  0.7337
  141MOL0     C18499   4.390   4.576   4.244 -0.0457 -0.9552  0.5053
  141MOL0     C18500   4.259   4.626   4.191 -0.2693 -0.3712  0.5674
  141MOL0     C18501   4.266   4.664   4.041 -0.0443 -0.0143  0.7019
  141MOL0     C18502   4.253   4.541   3.941 -0.0535  0.0655  0.1150
  141MOL0     C18503   4.106   4.488   3.926 -0.1917 -0.2319  0.5395
  141MOL0     O18504   4.004   4.596   3.909  0.0261 -0.0300 -0.2564
  141MOL0     C18505   3.871   4.556   3.916 -0.6185  0.4802  0.0073
  141MOL0     C18506   3.783   4.652   3.970  0.4283 -0.4764  0.0332
  141MOL0     C18507   3.649   4.620   3.978  0.2673 -0.0530 -1.0750
  141MOL0     C18508   3.591   4.508   3.933 -0.4340  0.3720 -0.3006
  141MOL0     C18509   3.445   4.492   3.936 -0.3077 -0.3346 -0.4519
  141MOL0     O18510   3.362   4.589   3.987  0.0970 -0.2859 -0.0582
  141MOL0     C18511   3.224   4.573   3.988  0.3881  0.4747 -0.0296
  141MOL0     C18512   3.160   4.568   3.865 -0.4682 -0.1695 -0.5905
  141MOL0     C18513   3.017   4.560   3.859  0.2119  0.0644  0.2198
  141MOL0     C18514   2.946   4.546   3.978 -0.5719 -0.2088 -0.0075
  141MOL0     O18515   2.808   4.527   3.983 -0.0170  0.0832 -0.3222
  141MOL0     C18516   2.726   4.517   3.865  1.3815  0.4510  1.0806
  141MOL0     C18517   2.576   4.539   3.889 -0.1604 -0.0628  0.6980
  141MOL0     C18518   2.553   4.657   3.981  0.1963  0.0275 -1.0821
  141MOL0     C18519   2.395   4.680   3.999  0.0343 -0.3863 -1.2333
  141MOL0     C18520   2.370   4.774   4.128  0.0986  1.0204  0.3887
  141MOL0     C18521   2.223   4.784   4.155  0.1611 -0.3644 -0.3293
  141MOL0     C18522   2.189   4.896   4.249  1.5995  0.1891  0.0069
  141MOL0     C18523   2.030   4.865   4.280 -0.6265  0.2234 -0.1787
  141MOL0    Cl18524   1.931   4.888   4.129 -0.3761  0.3783 -0.5269
  141MOL0     C18525   3.015   4.568   4.098  0.9030  0.2565 -0.8667
  141MOL0     C18526   3.151   4.576   4.110 -0.0278 -0.1358  0.4698
  141MOL0     O18527   3.403   4.382   3.893  0.0270  0.4169 -0.1280
  141MOL0     C18528   3.684   4.411   3.893  0.7416  0.6303  0.9418
  141MOL0     C18529   3.822   4.429   3.887  0.1175 -0.0548  0.6725
  141MOL0     N18530   4.410   4.523   4.371 -0.5487  0.0117 -0.3658
  141MOL0     N18531   4.533   4.517   4.402 -0.2152  0.0161 -0.5058
  141MOL0     C18532   5.685   4.394   4.442  0.7767 -0.4604 -0.7558
  141MOL0     C18533   5.818   4.415   4.481  0.7255  0.5279 -0.5311
  141MOL0     C18534   6.223   4.455   4.673  0.8094 -0.0885 -0.0468
  141MOL0     C18535   6.253   4.596   4.660  0.4054 -0.5071 -1.7394
  141MOL0     C18536   6.382   4.638   4.681 -1.0577 -0.5290 -0.4123
  141MOL0     C18537   6.483   4.561   4.741 -1.1888  0.1631  0.4073
  141MOL0     O18538   6.606   4.601   4.783  1.3421  0.8813 -0.7169
  141MOL0     C18539   6.645   4.737   4.760 -0.3681  0.8595 -1.0741
  141MOL0     C18540   6.767   4.758   4.839  0.0250 -0.3738 -0.7518
  141MOL0     C18541   6.889   4.671   4.823  0.5010  0.4169  0.4218
  141MOL0     C18542   7.019   4.739   4.864  0.2194  0.4884 -0.3856
  141MOL0     C18543   7.017   4.755   5.014 -0.8804  0.1536  0.2248
  141MOL0     C18544   7.027   4.767   5.135 -0.2264  0.3762  0.2762
  141MOL0     C18545   6.456   4.419   4.764  0.0423  0.1935 -0.0277
  141MOL0     C18546   6.325   4.368   4.726  0.0926  0.5994  0.5945
  141MOL0     H18547   5.750   4.500   4.807  1.1035  2.6990 -1.0695
  141MOL0     H18548   5.517   4.458   4.724  0.4597  1.7640 -0.2552
  141MOL0     H18549   5.353   4.529   4.574 -1.0466  0.4536 -0.1490
  141MOL0     H18550   5.323   4.347   4.605  0.3037  0.9286 -0.7535
  141MOL0     H18551   5.238   4.496   4.356  0.4176 -2.7457 -2.5327
  141MOL0     H18552   5.129   4.468   4.484  0.9104  0.8964  0.5804
  141MOL0     H18553   5.194   4.227   4.467 -1.0193  1.0307  1.4258
  141MOL0     H18554   5.280   4.261   4.321  2.2306  0.9192  3.1302
  141MOL0     H18555   5.062   4.390   4.227  3.8806 -0.2472  0.2551
  141MOL0     H18556   5.055   4.211   4.229  2.1111  1.9955 -3.7244
  141MOL0     H18557   4.914   4.364   4.450 -0.0891  0.3420 -1.0663
  141MOL0     H18558   4.922   4.190   4.415  3.8723  0.0371  1.0079
  141MOL0     H18559   4.719   4.290   4.340  1.1603 -2.3496 -0.4057
  141MOL0     H18560   4.799   4.220   4.205 -0.3374 -0.1616 -0.1764
  141MOL0     H18561   4.878   4.452   4.132  1.1818  1.0577  1.4873
  141MOL0     H18562   4.707   4.434   4.115 -0.7897  1.0845  1.3166
  141MOL0     H18563   4.791   4.649   4.252 -0.2202  0.8003 -1.4475
  141MOL0     H18564   4.783   4.528   4.384  0.6598 -0.2782 -0.1042
  141MOL0     H18565   4.539   4.653   4.098 -2.5037 -1.1246 -0.2898
  141MOL0     H18566   4.218   4.711   4.246 -1.0984 -0.7855  0.6118
  141MOL0     H18567   4.180   4.551   4.205  0.4886 -0.7255  3.5997
  141MOL0     H18568   4.364   4.706   4.017 -1.4201  2.1921 -1.4636
  141MOL0     H18569   4.199   4.745   4.010  0.5888  0.3127  0.1515
  141MOL0     H18570   4.305   4.558   3.847  0.5352  1.9193  0.7271
  141MOL0     H18571   4.315   4.460   3.981  0.4472  0.7389  0.7319
  141MOL0     H18572   4.087   4.422   4.011 -0.1999 -1.1763 -0.1696
  141MOL0     H18573   4.087   4.417   3.844 -0.4798  0.6300 -0.1611
  141MOL0     H18574   3.824   4.747   4.002  0.3287  0.8800 -3.3738
  141MOL0     H18575   3.581   4.692   4.023 -0.4397 -0.5221 -1.3855
  141MOL0     H18576   3.213   4.559   3.771 -2.0645  1.1108 -1.6714
  141MOL0     H18577   2.983   4.549   3.757 -1.5476  2.3664  0.4823
  141MOL0     H18578   2.734   4.417   3.820  0.9419  0.3549  1.2093
  141MOL0     H18579   2.763   4.586   3.788  0.7934  1.4988  1.7293
  141MOL0     H18580   2.528   4.451   3.932 -1.2738 -1.4654 -3.0718
  141MOL0     H18581   2.524   4.560   3.795 -1.9103  2.0177  2.0268
  141MOL0     H18582   2.593   4.752   3.945  0.5498 -0.0500 -0.8957
  141MOL0     H18583   2.600   4.634   4.077  0.5861 -0.7275 -1.4409
  141MOL0     H18584   2.365   4.734   3.909  3.7574  3.3878 -0.5470
  141MOL0     H18585   2.342   4.585   4.010 -1.2702  0.2575 -1.8011
  141MOL0     H18586   2.427   4.863   4.101  3.1242 -0.3683  1.7440
  141MOL0     H18587   2.426   4.733   4.213  1.1113 -2.3998 -1.7251
  141MOL0     H18588   2.202   4.689   4.205  2.4340 -0.7053  0.0566
  141MOL0     H18589   2.169   4.782   4.060  1.6467 -1.0412 -1.1847
  141MOL0     H18590   2.250   4.888   4.339 -0.0940  0.8544  1.2855
  141MOL0     H18591   2.199   4.995   4.204 -0.7053  1.6096  2.3312
  141MOL0     H18592   2.002   4.941   4.354  0.4255  1.1927 -0.7510
  141MOL0     H18593   2.017   4.767   4.327 -2.5656  0.6021  0.1667
  141MOL0     H18594   2.958   4.557   4.189  1.8811  0.9645 -0.1414
  141MOL0     H18595   3.209   4.584   4.202  3.5881  3.3405 -1.7617
  141MOL0     H18596   3.644   4.318   3.856  0.2816  0.9390  0.6464
  141MOL0     H18597   3.874   4.348   3.835 -0.5742 -1.0230  1.4453
  141MOL0     H18598   5.675   4.385   4.335  1.3101  2.7953 -1.1733
  141MOL0     H18599   5.892   4.409   4.403  1.0723  1.4536 -0.2800
  141MOL0     H18600   6.176   4.664   4.626 -1.0053 -1.4798 -0.6467
  141MOL0     H18601   6.401   4.740   4.649 -0.1582 -1.0790 -1.7065
  141MOL0     H18602   6.569   4.813   4.780  1.4266  1.9686  2.2138
  141MOL0     H18603   6.681   4.741   4.656  4.5742  1.2847  0.4162
  141MOL0     H18604   6.796   4.860   4.814 -1.3990  0.2158 -0.1159
  141MOL0     H18605   6.740   4.758   4.945  0.1625 -0.7762 -0.7134
  141MOL0     H18606   6.912   4.637   4.722 -0.9551  0.3949  0.0829
  141MOL0     H18607   6.873   4.578   4.879  1.3647  1.0187  1.7274
  141MOL0     H18608   7.104   4.687   4.820 -1.2802 -1.3378 -1.2559
  141MOL0     H18609   7.020   4.840   4.823 -2.0798 -0.2846 -2.5649
  141MOL0     H18610   7.049   4.781   5.239 -0.7172  0.8804  0.3194
  141MOL0     H18611   6.542   4.361   4.794  2.8882  4.1100  0.2520
  141MOL0     H18612   6.314   4.261   4.740  0.8377  0.2309 -1.3883
  142MOL0     O18613  10.986   3.018   4.559 -0.3265  0.4030  0.5686
  142MOL0     C18614  11.063   3.003   4.654  0.4365 -0.1246  0.3332
  142MOL0     O18615  11.012   2.997   4.785  0.3543  0.1368 -0.3360
  142MOL0     C18616  10.878   2.972   4.807 -0.4852 -0.2854  0.2200
  142MOL0     C18617  10.784   3.067   4.774  0.0170  0.0103  0.2165
  142MOL0     C18618  10.651   3.054   4.815 -0.0297  0.9476 -0.4591
  142MOL0     C18619  10.620   2.939   4.884 -0.8843 -0.1784 -0.1634
  142MOL0     O18620  10.486   2.930   4.903 -0.2908  0.4288  0.4487
  142MOL0     C18621  10.428   2.812   4.969  1.1910  0.0099  0.2775
  142MOL0     C18622  10.436   2.829   5.114  0.1423 -1.1614 -0.1742
  142MOL0     C18623  10.330   2.927   5.155  0.0973 -0.0409  0.0892
  142MOL0     C18624  10.361   2.974   5.296  0.1756 -0.1221 -0.9653
  142MOL0     C18625  10.243   3.026   5.376 -0.4740  0.8733  0.0599
  142MOL0     C18626  10.276   3.153   5.440 -0.2579 -1.1084  0.5210
  142MOL0     C18627  10.280   3.270   5.336  0.6809  0.6591  0.0413
  142MOL0     C18628  10.272   3.410   5.395 -0.3081  0.0980 -1.7206
  142MOL0     N18629  10.209   3.503   5.311  0.4633 -0.4995  0.2601
  142MOL0     C18630  10.073   3.530   5.307 -0.1076  0.3699 -0.0807
  142MOL0     C18631  10.063   3.639   5.225  0.6000 -0.4712 -0.8088
  142MOL0     C18632   9.927   3.707   5.207  0.1035  0.4081 -0.3120
  142MOL0     C18633   9.843   3.629   5.097 -0.3752  0.0060 -0.1615
  142MOL0     C18634   9.702   3.698   5.089 -0.4395 -0.8586 -0.9562
  142MOL0     C18635   9.608   3.620   4.998 -1.0401 -0.2495  0.0815
  142MOL0     O18636   9.490   3.707   4.992  0.3326  0.0359  0.1101
  142MOL0     C18637   9.382   3.660   4.919 -0.3520 -0.4907 -0.2229
  142MOL0     C18638   9.368   3.530   4.879  0.9070 -0.8150 -0.5353
  142MOL0     C18639   9.240   3.484   4.823 -0.6275  0.1816 -0.5688
  142MOL0     C18640   9.133   3.574   4.813  0.4329  0.5571  0.3720
  142MOL0     C18641   9.002   3.537   4.761 -0.5834  0.6628  0.6228
  142MOL0     O18642   8.894   3.607   4.805 -0.2488 -0.3933  0.1374
  142MOL0     C18643   8.767   3.571   4.757  0.1176 -0.0259 -0.8658
  142MOL0     C18644   8.732   3.431   4.739 -0.8729 -0.1656 -0.2971
  142MOL0     C18645   8.604   3.398   4.700 -0.3131  0.1496 -0.0106
  142MOL0     C18646   8.506   3.497   4.696 -0.3514 -0.1635 -0.0306
  142MOL0     O18647   8.380   3.443   4.689 -0.0446 -0.3322  0.1444
  142MOL0     C18648   8.280   3.519   4.626 -0.1433 -0.7887 -0.7764
  142MOL0     C18649   8.172   3.415   4.580 -1.2414  0.1887  0.4731
  142MOL0     C18650   8.062   3.475   4.495 -0.2081 -0.4434 -0.2704
  142MOL0     C18651   7.963   3.371   4.454  0.8925  0.5170  0.5855
  142MOL0     C18652   7.826   3.418   4.409  0.1797 -0.1972 -1.1242
  142MOL0     C18653   7.734   3.498   4.509 -0.2586 -0.3462  0.1706
  142MOL0     C18654   7.588   3.514   4.472 -0.7980 -0.2775 -0.0232
  142MOL0     C18655   7.515   3.398   4.411 -1.0600 -0.3883  0.5519
  142MOL0    Cl18656   7.340   3.437   4.377  0.5584  0.1465 -0.1485
  142MOL0     C18657   8.538   3.637   4.707  0.5752  0.2500  0.7689
  142MOL0     C18658   8.670   3.672   4.732 -0.1577 -0.0280  0.2488
  142MOL0     O18659   9.005   3.440   4.681 -0.0227  0.1059  0.5871
  142MOL0     C18660   9.152   3.704   4.849 -0.8577  0.0110 -0.0819
  142MOL0     C18661   9.277   3.750   4.901 -0.4064 -0.8472  0.3972
  142MOL0     N18662  10.182   3.672   5.186  0.6276  0.2036 -0.4688
  142MOL0     N18663  10.267   3.597   5.241 -0.2125  0.1631 -0.5580
  142MOL0     C18664  10.713   2.836   4.922 -0.3080  0.5548  0.5814
  142MOL0     C18665  10.836   2.856   4.874 -0.2566  0.2191 -1.0871
  142MOL0     C18666  11.213   2.984   4.637  1.0109  0.1459  0.5983
  142MOL0     C18667  11.298   2.925   4.736 -0.6509  0.1539  0.1130
  142MOL0     C18668  11.430   2.890   4.700 -0.7745 -0.8906 -0.5197
  142MOL0     C18669  11.490   2.940   4.579  0.5577  0.1814  0.5391
  142MOL0     O18670  11.617   2.911   4.555 -0.2072 -0.3012 -0.5665
  142MOL0     C18671  11.674   2.922   4.421 -0.1311 -0.2317 -0.5979
  142MOL0     C18672  11.820   2.875   4.423  1.1468  0.0826  0.6237
  142MOL0     C18673  11.905   2.946   4.529 -0.2406  0.1981 -0.1917
  142MOL0     C18674  12.048   2.944   4.482  0.0395 -0.2048  0.2385
  142MOL0     C18675  12.122   2.820   4.494 -0.2597 -0.2923  0.0969
  142MOL0     C18676  12.177   2.715   4.525 -0.4497  0.3151 -0.6335
  142MOL0     C18677  11.401   2.998   4.480 -0.3619  0.2273  0.4906
  142MOL0     C18678  11.266   3.036   4.520 -1.2395 -0.0273  0.6806
  142MOL0     H18679  10.819   3.155   4.721  3.2938 -0.3030  1.5579
  142MOL0     H18680  10.575   3.131   4.808  1.2831  2.4779  1.0843
  142MOL0     H18681  10.471   2.716   4.940  0.3590 -0.2095 -0.2720
  142MOL0     H18682  10.323   2.802   4.937  0.7781 -0.3750  1.6830
  142MOL0     H18683  10.532   2.863   5.153 -0.6834 -0.8223  1.6883
  142MOL0     H18684  10.421   2.734   5.168 -1.2914  0.1495  1.8753
  142MOL0     H18685  10.230   2.884   5.151  0.3043 -0.4258 -2.9359
  142MOL0     H18686  10.331   3.017   5.093 -1.6439  1.6276  2.3236
  142MOL0     H18687  10.401   2.893   5.358 -0.8965  0.1569  0.1411
  142MOL0     H18688  10.430   3.057   5.281 -0.8930  1.2430  1.1387
  142MOL0     H18689  10.212   2.952   5.450  1.3004 -1.3832 -1.3119
  142MOL0     H18690  10.156   3.042   5.312 -0.2706  0.3121 -0.3717
  142MOL0     H18691  10.370   3.138   5.494 -0.3541 -0.7607  0.7928
  142MOL0     H18692  10.198   3.180   5.512 -1.6107  4.5039 -2.4426
  142MOL0     H18693  10.373   3.273   5.279  0.3648 -0.5369 -0.5853
  142MOL0     H18694  10.201   3.266   5.261 -0.0544 -1.9010  0.8461
  142MOL0     H18695  10.372   3.450   5.411 -0.1263 -0.5231 -1.3119
  142MOL0     H18696  10.223   3.405   5.493  0.9998 -1.3900 -1.1073
  142MOL0     H18697   9.996   3.483   5.367  0.9664  1.1262  1.9693
  142MOL0     H18698   9.935   3.811   5.172  1.8592  1.4470  2.7871
  142MOL0     H18699   9.869   3.700   5.299 -1.2043 -0.1600 -1.1529
  142MOL0     H18700   9.825   3.527   5.132  1.5001 -1.6281 -3.4421
  142MOL0     H18701   9.899   3.633   5.003  2.5880  5.6797  1.4465
  142MOL0     H18702   9.651   3.691   5.186 -0.5458 -0.9386 -1.0163
  142MOL0     H18703   9.710   3.803   5.058 -1.8514  0.2518  2.0301
  142MOL0     H18704   9.593   3.522   5.043 -1.1975  0.5120  1.7619
  142MOL0     H18705   9.658   3.609   4.901  0.3887 -1.0154  0.8796
  142MOL0     H18706   9.444   3.454   4.889  0.4820 -1.0356  1.4313
  142MOL0     H18707   9.239   3.381   4.791 -1.0244 -0.9647  2.7746
  142MOL0     H18708   8.800   3.347   4.749 -2.1243 -1.2030 -0.3444
  142MOL0     H18709   8.576   3.293   4.693  1.0333 -0.2377  0.0976
  142MOL0     H18710   8.309   3.573   4.535  2.7527  1.5164  1.2898
  142MOL0     H18711   8.232   3.588   4.696  0.3657  2.2047 -3.1427
  142MOL0     H18712   8.121   3.373   4.667 -1.7029 -1.2171 -0.4364
  142MOL0     H18713   8.217   3.332   4.525 -0.8232  0.8344 -0.1770
  142MOL0     H18714   8.118   3.520   4.413  0.2951 -0.0935  0.2573
  142MOL0     H18715   8.016   3.558   4.549  1.7834  0.2621  0.4282
  142MOL0     H18716   8.005   3.311   4.372 -0.3155 -2.1772  1.7836
  142MOL0     H18717   7.956   3.315   4.548  0.4886  2.1288  1.5552
  142MOL0     H18718   7.771   3.334   4.366  1.3524 -1.0864 -0.9534
  142MOL0     H18719   7.828   3.473   4.315 -4.6034  0.3023 -1.1646
  142MOL0     H18720   7.786   3.594   4.512 -1.5341  0.6238 -3.6269
  142MOL0     H18721   7.729   3.450   4.607 -0.5707 -1.4822 -0.3866
  142MOL0     H18722   7.528   3.544   4.558  0.5519  0.1307  0.8070
  142MOL0     H18723   7.583   3.587   4.392 -0.4723 -0.7674 -0.4995
  142MOL0     H18724   7.526   3.304   4.467  3.7834 -0.8017 -0.6310
  142MOL0     H18725   7.558   3.371   4.315  0.1719  1.3010  0.5767
  142MOL0     H18726   8.463   3.713   4.685 -0.8759 -1.4267 -0.3887
  142MOL0     H18727   8.714   3.771   4.743  3.2314 -1.6237  3.3355
  142MOL0     H18728   9.067   3.771   4.844 -2.4982 -1.9046  0.9756
  142MOL0     H18729   9.283   3.855   4.925 -2.5959 -0.0755 -1.9261
  142MOL0     H18730  10.687   2.751   4.984  2.0697 -2.7104 -2.5035
  142MOL0     H18731  10.910   2.778   4.894 -1.5640 -0.9549 -0.6818
  142MOL0     H18732  11.264   2.885   4.831  1.9946  2.6006  2.2833
  142MOL0     H18733  11.487   2.814   4.752  0.5643  1.7720  2.1991
  142MOL0     H18734  11.667   3.020   4.373 -0.5477  0.0322  0.0049
  142MOL0     H18735  11.626   2.861   4.343  1.0970 -2.2409  0.1261
  142MOL0     H18736  11.821   2.766   4.425  0.3544  0.0828  1.5609
  142MOL0     H18737  11.860   2.897   4.323 -0.4885  0.9451  0.1054
  142MOL0     H18738  11.896   2.890   4.622  1.1607  2.2450  1.2769
  142MOL0     H18739  11.872   3.049   4.547  0.3793  0.4713 -0.5864
  142MOL0     H18740  12.052   2.993   4.384  0.4511  1.2879  0.9550
  142MOL0     H18741  12.096   3.018   4.547 -0.6328  0.9320 -0.5219
  142MOL0     H18742  12.219   2.626   4.567  3.9686  0.9505 -2.9874
  142MOL0     H18743  11.455   3.029   4.391  4.3183 -0.9061  2.5877
  142MOL0     H18744  11.215   3.092   4.442 -1.0247  0.2093  0.7078
  143MOL0     O18745   8.548   8.944  10.389 -0.2976  0.6236  0.5093
  143MOL0     C18746   8.470   8.943  10.291  0.1114  0.9250 -0.3341
  143MOL0     O18747   8.504   8.952  10.163  0.8604  0.6261 -0.3780
  143MOL0     C18748   8.640   8.987  10.143  0.8980 -0.7571 -0.8560
  143MOL0     C18749   8.749   8.898  10.134 -0.0066 -0.1394 -1.0686
  143MOL0     C18750   8.884   8.948  10.114 -0.7373  0.0432  0.4600
  143MOL0     C18751   8.905   9.088  10.110 -0.1640  0.1765 -0.5308
  143MOL0     O18752   9.026   9.147  10.103 -0.1825 -0.0506  0.4415
  143MOL0     C18753   9.131   9.074  10.041 -1.0658 -0.1910 -0.0211
  143MOL0     C18754   9.222   8.994  10.139  0.1570 -0.5898  0.4256
  143MOL0     C18755   9.357   8.958  10.068 -0.0949  0.2357 -0.5310
  143MOL0     C18756   9.427   8.853  10.144 -0.5403 -0.4543  0.0475
  143MOL0     C18757   9.577   8.870  10.122  0.2791  0.4710 -0.7834
  143MOL0     C18758   9.647   8.746  10.185  0.3412  0.1325 -0.2222
  143MOL0     C18759   9.792   8.776  10.235  0.2486 -0.7059  0.7462
  143MOL0     C18760   9.887   8.811  10.123 -0.3273  0.5205 -0.3440
  143MOL0     N18761   9.912   8.709  10.017 -0.8537  0.2109 -0.2791
  143MOL0     C18762   9.982   8.587  10.032 -0.2620 -0.1254  0.3829
  143MOL0     C18763   9.959   8.527   9.916  0.3077  0.4845 -0.0924
  143MOL0     C18764  10.027   8.400   9.856 -0.0062  0.0923 -1.0151
  143MOL0     C18765  10.162   8.433   9.794 -0.6861  0.7960 -0.0429
  143MOL0     C18766  10.144   8.487   9.650  0.3217 -0.7321 -0.7129
  143MOL0     C18767  10.267   8.514   9.559 -0.3279  0.2762 -0.7761
  143MOL0     O18768  10.347   8.393   9.545  0.1270  0.0738 -0.2917
  143MOL0     C18769  10.484   8.416   9.544 -0.3312 -0.3465  0.0835
  143MOL0     C18770  10.560   8.326   9.605 -1.2064  0.0888  0.3585
  143MOL0     C18771  10.704   8.329   9.586  0.1958 -0.5653 -0.4775
  143MOL0     C18772  10.763   8.426   9.512  0.5321 -0.8821 -0.7099
  143MOL0     C18773  10.907   8.415   9.478  0.8739 -1.0236  0.0120
  143MOL0     O18774  10.982   8.325   9.552 -0.8605 -0.0760  0.4349
  143MOL0     C18775  11.124   8.327   9.530 -0.0888 -0.3184  0.1994
  143MOL0     C18776  11.203   8.446   9.531 -0.5022 -0.2102 -0.5058
  143MOL0     C18777  11.345   8.424   9.528  0.9808 -0.2555 -0.0142
  143MOL0     C18778  11.405   8.299   9.530 -0.8153 -1.0365 -0.6724
  143MOL0     O18779  11.543   8.291   9.524  0.5524  0.2698 -0.8293
  143MOL0     C18780  11.606   8.177   9.592 -0.0988 -0.3059 -0.8997
  143MOL0     C18781  11.757   8.199   9.613  0.6687 -0.9938  0.1587
  143MOL0     C18782  11.836   8.082   9.685  0.3142  0.2892  0.8490
  143MOL0     C18783  11.845   8.083   9.830  0.3826 -0.0561 -0.3414
  143MOL0     C18784  11.714   8.098   9.907 -0.0470  0.0486 -0.5072
  143MOL0     C18785  11.622   7.971   9.893  0.0693 -0.1147  0.0248
  143MOL0     C18786  11.511   7.981   9.994 -0.6776  0.2602 -0.4158
  143MOL0     C18787  11.419   8.099   9.978  0.8306  0.0063 -0.7565
  143MOL0    Cl18788  11.353   8.104   9.818  0.1933  0.4210 -0.1855
  143MOL0     C18789  11.325   8.186   9.513  0.8680 -0.8136  0.3284
  143MOL0     C18790  11.187   8.207   9.511 -0.3467 -0.0178  0.0211
  143MOL0     O18791  10.954   8.492   9.393  0.4734 -0.2605  0.0082
  143MOL0     C18792  10.682   8.534   9.466  0.1288 -0.7741 -0.0456
  143MOL0     C18793  10.545   8.523   9.473 -0.1061  1.0176 -0.1768
  143MOL0     N18794   9.883   8.605   9.835  0.4360 -0.0973  0.0068
  143MOL0     N18795   9.855   8.716   9.897 -0.8168 -0.0963 -0.2026
  143MOL0     C18796   8.798   9.175  10.120  0.0326  0.4105 -0.8776
  143MOL0     C18797   8.668   9.121  10.144 -0.8381 -0.8957  0.9558
  143MOL0     C18798   8.319   8.927  10.318 -0.3090  0.1403 -1.7523
  143MOL0     C18799   8.224   8.942  10.219  0.2740 -1.2803 -0.4977
  143MOL0     C18800   8.089   8.927  10.245  0.1527 -0.2011 -0.2764
  143MOL0     C18801   8.046   8.905  10.375  0.4528 -0.0922 -0.4519
  143MOL0     O18802   7.911   8.888  10.381  0.2149 -0.0108 -0.2656
  143MOL0     C18803   7.850   8.816  10.491 -0.2577 -0.0519  0.1378
  143MOL0     C18804   7.749   8.709  10.447 -0.3579  0.5029 -0.3312
  143MOL0     C18805   7.643   8.747  10.348 -0.1449 -0.0134 -0.2934
  143MOL0     C18806   7.531   8.821  10.417 -0.2924 -0.8235  0.2394
  143MOL0     C18807   7.453   8.736  10.500  0.1090  0.3022 -0.7616
  143MOL0     C18808   7.378   8.667  10.568 -0.5935 -0.9866 -0.9207
  143MOL0     C18809   8.136   8.904  10.484 -0.2293  0.0145  0.0439
  143MOL0     C18810   8.275   8.906  10.450 -0.1955 -1.6241  0.6321
  143MOL0     H18811   8.725   8.793  10.121 -1.4522  0.3325 -2.6378
  143MOL0     H18812   8.959   8.873  10.090 -0.4938 -0.0076  1.3427
  143MOL0     H18813   9.194   9.147   9.990  0.5991 -0.2124  1.8540
  143MOL0     H18814   9.100   9.012   9.956 -2.0364 -0.5934  0.6118
  143MOL0     H18815   9.182   8.909  10.195 -0.1512 -0.0628  1.0020
  143MOL0     H18816   9.240   9.062  10.222 -0.1253  0.0769 -0.0468
  143MOL0     H18817   9.417   9.049  10.067  1.9700 -0.9185  2.7167
  143MOL0     H18818   9.328   8.925   9.968  1.6850 -0.4695 -0.8423
  143MOL0     H18819   9.401   8.870  10.249  1.9135  2.0654  0.3913
  143MOL0     H18820   9.393   8.761  10.096  1.1850 -0.9223 -0.3790
  143MOL0     H18821   9.616   8.959  10.172 -1.6120  0.1579  1.4486
  143MOL0     H18822   9.610   8.885  10.019  4.2411  2.8771  0.6164
  143MOL0     H18823   9.654   8.661  10.116  1.8675  0.9469 -1.1184
  143MOL0     H18824   9.580   8.711  10.264 -0.6901 -1.5894 -1.7741
  143MOL0     H18825   9.785   8.851  10.315  1.2093  1.4797 -1.1087
  143MOL0     H18826   9.828   8.681  10.276 -0.5182 -0.6234  1.6489
  143MOL0     H18827   9.982   8.837  10.171 -0.5264  1.0899 -0.2495
  143MOL0     H18828   9.855   8.907  10.081  2.8681  1.8407 -0.0842
  143MOL0     H18829  10.043   8.549  10.113  1.0988  0.9684 -0.0920
  143MOL0     H18830   9.957   8.362   9.781 -2.5500 -0.6007  1.5380
  143MOL0     H18831  10.047   8.324   9.931  0.4333 -1.7718 -2.9345
  143MOL0     H18832  10.235   8.353   9.790  0.5854  1.8799  0.5931
  143MOL0     H18833  10.205   8.505   9.865  1.0285 -0.3477  0.1368
  143MOL0     H18834  10.076   8.418   9.600  0.1141  0.3000 -1.8723
  143MOL0     H18835  10.093   8.582   9.667 -1.8216 -2.0933  1.0187
  143MOL0     H18836  10.321   8.600   9.600 -1.7249  0.4621  0.7699
  143MOL0     H18837  10.248   8.544   9.455  2.0148  1.3723 -0.9603
  143MOL0     H18838  10.511   8.265   9.681  0.9095 -0.2683  1.5035
  143MOL0     H18839  10.764   8.250   9.631  0.4560  0.1441  0.4513
  143MOL0     H18840  11.146   8.538   9.540 -0.9548 -0.5823  0.6271
  143MOL0     H18841  11.416   8.506   9.541 -0.5911  1.0908  0.4665
  143MOL0     H18842  11.604   8.085   9.533  5.1411 -2.0866  1.0369
  143MOL0     H18843  11.551   8.155   9.684 -0.5357  3.1746 -0.1872
  143MOL0     H18844  11.754   8.293   9.669  0.9897 -1.1679  0.4690
  143MOL0     H18845  11.798   8.207   9.512 -0.4974 -3.2488 -0.5634
  143MOL0     H18846  11.934   8.074   9.637 -0.0119 -1.5298  0.4233
  143MOL0     H18847  11.782   7.991   9.659 -0.7766  0.4855  2.2791
  143MOL0     H18848  11.909   8.001   9.865  0.6631  0.7619  1.1443
  143MOL0     H18849  11.902   8.173   9.855  0.6759 -0.7390  1.6659
  143MOL0     H18850  11.665   8.193   9.885 -0.7655  0.2663  1.7957
  143MOL0     H18851  11.744   8.093  10.012  0.1752  1.6999 -0.4658
  143MOL0     H18852  11.675   7.882   9.928  0.4297 -0.7717 -2.0145
  143MOL0     H18853  11.589   7.959   9.789 -0.4753  1.0376  0.0501
  143MOL0     H18854  11.460   7.885   9.986 -0.0616 -0.0374 -0.8534
  143MOL0     H18855  11.559   7.991  10.092  0.5086 -3.0862 -0.5328
  143MOL0     H18856  11.473   8.193   9.990 -1.0460  0.7860  3.8192
  143MOL0     H18857  11.330   8.095  10.042 -0.8439  0.1897 -2.9673
  143MOL0     H18858  11.357   8.083   9.503  0.2514 -0.9172 -0.7238
  143MOL0     H18859  11.120   8.122   9.512 -1.8347  0.9838 -2.9752
  143MOL0     H18860  10.728   8.623   9.426  1.7935 -1.4516  0.2839
  143MOL0     H18861  10.481   8.587   9.413  1.6187  1.6626 -1.4391
  143MOL0     H18862   8.817   9.281  10.107 -0.6748  0.6923  0.3116
  143MOL0     H18863   8.593   9.198  10.145  1.0433  1.0285  0.7925
  143MOL0     H18864   8.259   8.959  10.118  0.3155  0.2921 -0.2432
  143MOL0     H18865   8.023   8.927  10.159 -0.5323  0.7090  0.2342
  143MOL0     H18866   7.798   8.885  10.558 -1.3821 -0.7986  0.0629
  143MOL0     H18867   7.935   8.774  10.544  2.6280  0.4140 -3.6962
  143MOL0     H18868   7.823   8.636  10.411 -1.0101 -0.5400  0.3794
  143MOL0     H18869   7.707   8.650  10.529  1.6045 -1.6102 -0.7202
  143MOL0     H18870   7.601   8.659  10.299  0.0656  0.1796 -0.8298
  143MOL0     H18871   7.680   8.811  10.267 -0.6835  0.8205  0.1031
  143MOL0     H18872   7.576   8.901  10.477  1.8151  0.1051 -2.3811
  143MOL0     H18873   7.467   8.872  10.343 -3.3831 -1.2864  2.4053
  143MOL0     H18874   7.309   8.619  10.634 -2.0452  0.1820 -1.5332
  143MOL0     H18875   8.105   8.908  10.588  3.8723 -1.0733  1.4862
  143MOL0     H18876   8.348   8.908  10.530 -0.4625  0.6998  0.9022
  144MOL0     O18877   7.122   9.813  10.769 -0.0830  0.1471 -0.6824
  144MOL0     C18878   7.214   9.738  10.747 -0.6015  0.2031  0.1990
  144MOL0     O18879   7.204   9.602  10.719  0.0475  0.4684  0.7269
  144MOL0     C18880   7.085   9.540  10.698  0.1095 -0.7500  0.4887
  144MOL0     C18881   6.967   9.593  10.654  0.9030 -0.1235 -0.1374
  144MOL0     C18882   6.853   9.521  10.644 -0.1618  0.9096  0.6127
  144MOL0     C18883   6.850   9.385  10.668  0.3399 -0.6477 -0.3775
  144MOL0     O18884   6.729   9.331  10.655  0.5077 -0.4414  0.0171
  144MOL0     C18885   6.677   9.273  10.779  0.0777  0.0775  0.1586
  144MOL0     C18886   6.569   9.177  10.752  0.7175 -0.4188  0.6913
  144MOL0     C18887   6.434   9.260  10.747  0.0003  0.1066  1.2131
  144MOL0     C18888   6.306   9.167  10.718 -0.2420 -0.0328 -0.1800
  144MOL0     C18889   6.174   9.242  10.759  0.3032  0.2928 -0.2350
  144MOL0     C18890   6.058   9.136  10.736  0.7544 -0.1407  0.8179
  144MOL0     C18891   5.932   9.184  10.795 -0.0903  0.3313 -1.4961
  144MOL0     C18892   5.866   9.296  10.717  0.7355 -0.3866  0.1732
  144MOL0     N18893   5.743   9.347  10.778 -0.5671 -0.0852  0.4373
  144MOL0     C18894   5.723   9.480  10.790  0.2751 -0.3295  0.3510
  144MOL0     C18895   5.590   9.497  10.819 -0.4787 -0.1168  1.3062
  144MOL0     C18896   5.503   9.611  10.831 -0.6057 -0.4904 -0.2754
  144MOL0     C18897   5.352   9.576  10.848  0.9921  0.2665 -0.5566
  144MOL0     C18898   5.272   9.699  10.840  0.1418  0.2231 -0.0801
  144MOL0     C18899   5.134   9.687  10.904 -0.3051  0.1076 -0.5023
  144MOL0     O18900   5.041   9.622  10.820 -0.0825 -0.5371 -0.0586
  144MOL0     C18901   4.911   9.605  10.866  0.3948  0.1232  0.3303
  144MOL0     C18902   4.864   9.663  10.987 -0.2434 -0.0673 -1.0806
  144MOL0     C18903   4.730   9.652  11.031  0.0199  0.7867  1.1184
  144MOL0     C18904   4.644   9.582  10.953  0.5984  0.1435  0.2730
  144MOL0     C18905   4.504   9.575  10.984 -0.5255  0.1479  0.0631
  144MOL0     O18906   4.473   9.613  11.110 -0.5222 -0.2951 -0.4761
  144MOL0     C18907   4.348   9.613  11.152 -0.2438  0.4276  0.0722
  144MOL0     C18908   4.265   9.498  11.150  1.0959 -0.9739  0.5732
  144MOL0     C18909   4.128   9.501  11.193 -0.6209 -0.5820  1.2870
  144MOL0     C18910   4.077   9.617  11.241  0.0122  0.1041 -0.1854
  144MOL0     O18911   3.943   9.613  11.278  0.4606  0.1395  0.5798
  144MOL0     C18912   3.869   9.739  11.290  0.7378  0.0665  0.0909
  144MOL0     C18913   3.725   9.709  11.255  1.0486  0.1185 -0.7405
  144MOL0     C18914   3.668   9.573  11.313 -0.3791  0.2227  0.1542
  144MOL0     C18915   3.513   9.563  11.298  0.5761 -0.3601  0.0256
  144MOL0     C18916   3.441   9.672  11.385  1.3345  0.0329 -0.9362
  144MOL0     C18917   3.296   9.656  11.387  0.0696  0.0763 -0.5118
  144MOL0     C18918   3.226   9.756  11.479  0.4854  0.1003 -0.3582
  144MOL0     C18919   3.087   9.696  11.528 -1.0531 -0.4608  0.4551
  144MOL0    Cl18920   2.976   9.692  11.386  0.0775  0.1655  0.0744
  144MOL0     C18921   4.155   9.730  11.250  0.1167  0.8577 -0.2005
  144MOL0     C18922   4.290   9.728  11.200 -0.1636  0.4681 -0.0548
  144MOL0     O18923   4.424   9.546  10.902  0.4324  0.5561  0.4437
  144MOL0     C18924   4.690   9.522  10.833 -0.0100  1.1165  1.3800
  144MOL0     C18925   4.825   9.531  10.785  0.3473  0.2995 -0.7111
  144MOL0     N18926   5.539   9.369  10.814  0.3040  0.1093 -0.2825
  144MOL0     N18927   5.627   9.276  10.785  0.6978 -0.1858 -0.5864
  144MOL0     C18928   6.968   9.328  10.710 -0.5489  0.1794  0.4874
  144MOL0     C18929   7.080   9.406  10.727 -0.7149  0.1958  0.1764
  144MOL0     C18930   7.348   9.793  10.745  0.0162 -0.1228 -0.2358
  144MOL0     C18931   7.370   9.920  10.690 -0.2221 -0.2011 -0.0578
  144MOL0     C18932   7.491   9.975  10.674  0.7606  0.8041 -0.0423
  144MOL0     C18933   7.602   9.905  10.727  0.2038  0.2647  1.0953
  144MOL0     O18934   7.732   9.956  10.705 -0.1837 -0.0259 -0.6276
  144MOL0     C18935   7.750  10.086  10.636  0.1321  0.0956  0.3771
  144MOL0     C18936   7.894  10.129  10.628  0.5920  0.1200  0.5532
  144MOL0     C18937   7.915  10.175  10.480  0.0977 -0.8227 -0.4521
  144MOL0     C18938   7.955  10.060  10.388 -0.4667  0.1684 -0.0007
  144MOL0     C18939   7.953  10.089  10.244  0.5998 -0.2960 -0.1927
  144MOL0     C18940   7.943  10.084  10.123  0.6455 -0.1004  0.6560
  144MOL0     C18941   7.588   9.775  10.768  0.5887  0.6653 -0.5455
  144MOL0     C18942   7.459   9.711  10.782  0.6228  0.1522 -1.0896
  144MOL0     H18943   6.975   9.692  10.610 -2.2848 -1.4307 -4.2787
  144MOL0     H18944   6.768   9.580  10.611 -2.0804 -1.3526  1.2684
  144MOL0     H18945   6.639   9.349  10.847  1.3149  2.0330 -1.2236
  144MOL0     H18946   6.755   9.213  10.828 -0.5070 -0.6838  0.1856
  144MOL0     H18947   6.574   9.093  10.822  2.3487  0.1856  1.3469
  144MOL0     H18948   6.587   9.134  10.653 -0.8690  1.1328 -0.3341
  144MOL0     H18949   6.431   9.338  10.671 -3.1179 -1.8009 -0.8249
  144MOL0     H18950   6.422   9.301  10.848  1.5730  2.1547  0.6456
  144MOL0     H18951   6.311   9.134  10.614 -1.8868  1.3406 -0.7474
  144MOL0     H18952   6.300   9.074  10.775 -1.3797 -0.4944 -1.0201
  144MOL0     H18953   6.160   9.337  10.706  0.6123 -0.1047 -1.0568
  144MOL0     H18954   6.185   9.261  10.866  0.8021 -0.3496 -0.1606
  144MOL0     H18955   6.085   9.042  10.783 -0.5056 -0.6033  0.6593
  144MOL0     H18956   6.030   9.110  10.633 -5.1338  1.2211  1.6836
  144MOL0     H18957   5.863   9.098  10.796  0.0046  0.2145  0.5789
  144MOL0     H18958   5.943   9.219  10.898 -0.5216  0.2348 -1.4112
  144MOL0     H18959   5.851   9.263  10.613 -0.2961 -1.0367  0.5123
  144MOL0     H18960   5.944   9.373  10.705  1.1862 -1.2385 -4.0153
  144MOL0     H18961   5.793   9.563  10.788  0.7876 -0.5884  3.0297
  144MOL0     H18962   5.529   9.670  10.742  2.0251  0.5837  1.0999
  144MOL0     H18963   5.538   9.674  10.913  0.7599 -0.7268 -0.6547
  144MOL0     H18964   5.330   9.525  10.942  1.2465  0.1536 -0.5554
  144MOL0     H18965   5.313   9.504  10.775 -2.0737 -1.6778  2.6909
  144MOL0     H18966   5.314   9.784  10.893  1.5009  0.5158 -1.5598
  144MOL0     H18967   5.247   9.733  10.739  0.1469  5.3428  1.4028
  144MOL0     H18968   5.098   9.789  10.916 -1.4573  0.2462 -4.1347
  144MOL0     H18969   5.143   9.630  10.997 -2.0432 -0.4093 -0.6179
  144MOL0     H18970   4.934   9.723  11.045  0.2909  1.3223 -3.0448
  144MOL0     H18971   4.692   9.718  11.108 -1.0186 -0.2660  1.5257
  144MOL0     H18972   4.297   9.400  11.116  0.7748 -1.0111  0.3697
  144MOL0     H18973   4.058   9.418  11.183 -4.6888  2.7741 -3.4368
  144MOL0     H18974   3.904   9.814  11.218 -0.8843  2.4625  1.6436
  144MOL0     H18975   3.879   9.796  11.383 -0.6283  4.6187 -2.2262
  144MOL0     H18976   3.712   9.699  11.147 -0.0330 -2.8304 -0.4244
  144MOL0     H18977   3.669   9.801  11.276 -0.4850 -1.0141  0.4072
  144MOL0     H18978   3.693   9.582  11.419  0.0515  4.9699 -0.1123
  144MOL0     H18979   3.722   9.497  11.257  2.4143  1.6098  0.7924
  144MOL0     H18980   3.473   9.570  11.196  1.5239 -0.4198 -0.3596
  144MOL0     H18981   3.479   9.469  11.341 -1.4948  1.0812  1.7760
  144MOL0     H18982   3.468   9.771  11.346  0.4375  0.4148 -0.6143
  144MOL0     H18983   3.468   9.670  11.491  0.4597  3.7451 -0.5069
  144MOL0     H18984   3.275   9.558  11.431  0.6195  0.3206  0.2990
  144MOL0     H18985   3.254   9.671  11.287  1.3604 -0.7840 -1.2122
  144MOL0     H18986   3.280   9.773  11.572 -1.4618  2.0725  0.5312
  144MOL0     H18987   3.196   9.850  11.430 -2.5345 -0.6453 -0.1526
  144MOL0     H18988   3.051   9.750  11.617  0.7723  0.3146  0.7703
  144MOL0     H18989   3.103   9.592  11.557 -0.3150 -0.6874 -0.7199
  144MOL0     H18990   4.105   9.823  11.279 -0.3524  0.1452  1.3826
  144MOL0     H18991   4.348   9.817  11.225  0.2609 -0.1430  1.1976
  144MOL0     H18992   4.635   9.456  10.767  0.4877  0.4198  1.6543
  144MOL0     H18993   4.868   9.480  10.699 -1.6924 -1.3947 -0.8013
  144MOL0     H18994   6.989   9.225  10.736 -0.9016 -0.8059 -2.6980
  144MOL0     H18995   7.172   9.359  10.759 -1.3372  0.8288  3.2112
  144MOL0     H18996   7.284   9.968  10.645 -1.1326 -2.4518 -0.7999
  144MOL0     H18997   7.493  10.074  10.630  0.4842  1.3306  1.0836
  144MOL0     H18998   7.694  10.160  10.693  0.3742  0.9543 -0.4784
  144MOL0     H18999   7.704  10.062  10.540  2.5033 -0.4064 -0.7034
  144MOL0     H19000   7.912  10.217  10.690  1.7553  2.4895 -2.9014
  144MOL0     H19001   7.966  10.053  10.661 -2.0960 -2.6303  0.6136
  144MOL0     H19002   7.991  10.253  10.482 -0.9401  0.1988 -0.1301
  144MOL0     H19003   7.827  10.230  10.446  0.4213  0.4438  0.6939
  144MOL0     H19004   8.045  10.021  10.436 -0.2186 -0.2587 -0.8081
  144MOL0     H19005   7.887   9.976  10.407  0.0060 -0.3833 -0.6939
  144MOL0     H19006   7.932  10.076  10.017 -1.7295 -0.8394  0.9094
  144MOL0     H19007   7.675   9.735  10.819  0.1101 -1.4542 -1.2865
  144MOL0     H19008   7.452   9.608  10.813  1.9751  0.2199 -0.5113
  145MOL0     O19009   2.164   3.303   0.952  0.2258  0.1655  1.1951
  145MOL0     C19010   2.143   3.177   0.953  0.5478  1.0762 -0.3992
  145MOL0     O19011   2.023   3.108   0.917 -1.3909  0.1958 -0.3275
  145MOL0     C19012   1.907   3.180   0.915  1.2384 -0.8957  0.7579
  145MOL0     C19013   1.887   3.263   0.811  0.1821 -0.3342  0.0081
  145MOL0     C19014   1.750   3.317   0.788 -0.0044 -0.5273 -0.5608
  145MOL0     C19015   1.655   3.297   0.879  0.0830  0.4510  0.0735
  145MOL0     O19016   1.542   3.361   0.840  0.9116 -0.2110  0.1847
  145MOL0     C19017   1.420   3.326   0.907  0.6695 -0.4182 -0.3813
  145MOL0     C19018   1.416   3.427   1.022  0.5358 -0.3338  0.2736
  145MOL0     C19019   1.276   3.487   1.033  0.9031  0.1481 -0.4610
  145MOL0     C19020   1.173   3.381   1.084  0.2559  0.0172  0.5488
  145MOL0     C19021   1.057   3.361   0.980  0.8239 -0.3037 -0.6185
  145MOL0     C19022   0.964   3.242   1.009  0.3254  0.2767 -0.2613
  145MOL0     C19023   0.880   3.211   0.883  0.3818 -0.6885  0.0710
  145MOL0     C19024   0.777   3.315   0.839  0.8535  0.0689 -0.4576
  145MOL0     N19025   0.664   3.339   0.935 -0.3083 -0.2172 -0.2890
  145MOL0     C19026   0.571   3.258   0.986 -0.4040  0.7432  0.2060
  145MOL0     C19027   0.520   3.315   1.089 -0.0027 -0.2396  0.9098
  145MOL0     C19028   0.432   3.251   1.194 -0.3307 -0.6474 -0.4055
  145MOL0     C19029   0.274   3.285   1.156 -0.0237  0.0071 -0.2953
  145MOL0     C19030   0.184   3.231   1.264 -0.1007 -0.0412 -0.2281
  145MOL0     C19031   0.038   3.250   1.239 -0.6978 -0.9661 -0.4803
  145MOL0     O19032  -0.005   3.216   1.109 -0.1490  0.2238  0.6615
  145MOL0     C19033  -0.137   3.200   1.085 -0.2788  0.4771 -0.0555
  145MOL0     C19034  -0.250   3.231   1.172 -0.9299  0.4488 -0.0556
  145MOL0     C19035  -0.376   3.223   1.124 -0.4499 -0.5070 -0.2746
  145MOL0     C19036  -0.404   3.198   0.989 -0.1315 -0.3070 -0.8309
  145MOL0     C19037  -0.544   3.191   0.942  0.0753  0.0043 -0.3988
  145MOL0     O19038  -0.630   3.271   1.002  0.2735 -0.5654  0.3812
  145MOL0     C19039  -0.763   3.286   0.954 -0.4080  0.1986  0.0952
  145MOL0     C19040  -0.783   3.396   0.878 -1.1807 -0.3493  0.4984
  145MOL0     C19041  -0.903   3.425   0.820 -0.2406  0.1064  0.0118
  145MOL0     C19042  -1.015   3.334   0.842 -0.4078 -0.8687  0.2014
  145MOL0     O19043  -1.134   3.347   0.782 -0.4068  0.3157  0.0892
  145MOL0     C19044  -1.160   3.469   0.711 -1.3111 -0.0204 -0.0134
  145MOL0     C19045  -1.309   3.480   0.680 -1.3366  0.0536  0.2137
  145MOL0     C19046  -1.388   3.532   0.801 -1.0039  0.0399 -0.1766
  145MOL0     C19047  -1.537   3.541   0.774 -0.3286  0.3614 -0.1071
  145MOL0     C19048  -1.595   3.621   0.894  1.1473  0.4790 -0.3163
  145MOL0     C19049  -1.757   3.603   0.892  0.1038 -0.1544  0.5639
  145MOL0     C19050  -1.829   3.659   1.012 -0.2491  0.6558  0.6056
  145MOL0     C19051  -1.782   3.795   1.041 -0.5377 -0.2937  0.6056
  145MOL0    Cl19052  -1.806   3.923   0.918 -0.1484 -0.2008  0.2190
  145MOL0     C19053  -0.999   3.225   0.922  0.3638  0.4768 -0.4090
  145MOL0     C19054  -0.869   3.203   0.975  0.0061  0.2251  0.5140
  145MOL0     O19055  -0.575   3.117   0.854  0.3753  0.2900  0.1368
  145MOL0     C19056  -0.296   3.169   0.902 -0.6023 -0.6010 -0.0637
  145MOL0     C19057  -0.166   3.178   0.952 -0.0909 -0.0747  1.0607
  145MOL0     N19058   0.570   3.444   1.102  0.0236  0.7576  0.4300
  145MOL0     N19059   0.654   3.459   1.006 -0.3186 -0.2902 -0.2994
  145MOL0     C19060   1.673   3.222   0.995  0.0257  0.3996  0.1229
  145MOL0     C19061   1.798   3.159   1.005  0.1821 -0.2184 -0.3413
  145MOL0     C19062   2.260   3.099   1.002 -0.0025  0.5031 -0.0514
  145MOL0     C19063   2.267   2.959   0.990 -0.2591 -0.9303  0.3391
  145MOL0     C19064   2.371   2.880   1.037  0.3191 -0.2301  0.0310
  145MOL0     C19065   2.486   2.937   1.088  0.3335 -0.2538 -0.7653
  145MOL0     O19066   2.591   2.868   1.135 -0.4961  0.4582 -0.6848
  145MOL0     C19067   2.610   2.724   1.124  0.0034 -0.7964  0.3276
  145MOL0     C19068   2.750   2.687   1.183 -0.1360  0.6608  0.2641
  145MOL0     C19069   2.749   2.697   1.331  0.2950 -0.2929 -0.2828
  145MOL0     C19070   2.671   2.594   1.404  0.4494 -0.0987 -0.1985
  145MOL0     C19071   2.719   2.457   1.378  0.1309  0.0858 -1.0265
  145MOL0     C19072   2.758   2.344   1.380  0.0959 -0.0087  0.6166
  145MOL0     C19073   2.484   3.077   1.102  0.1671 -0.6885 -0.6170
  145MOL0     C19074   2.375   3.155   1.058 -0.2063 -0.1150  0.0998
  145MOL0     H19075   1.967   3.276   0.739 -0.2357  0.0353 -0.3931
  145MOL0     H19076   1.738   3.388   0.706  0.5223  1.9951  1.4339
  145MOL0     H19077   1.407   3.223   0.941 -2.2167  0.3328  1.1829
  145MOL0     H19078   1.336   3.337   0.838 -1.2272 -0.2985  1.8162
  145MOL0     H19079   1.498   3.499   1.012 -0.1599  0.8003  2.1239
  145MOL0     H19080   1.440   3.374   1.114  1.6601 -0.0951  0.1278
  145MOL0     H19081   1.256   3.523   0.932 -2.1370 -0.5422 -0.1990
  145MOL0     H19082   1.273   3.569   1.105  4.3891 -1.5051  1.8554
  145MOL0     H19083   1.233   3.292   1.103  1.8806  0.5251 -1.7365
  145MOL0     H19084   1.130   3.418   1.178 -3.8297 -2.3582 -0.1482
  145MOL0     H19085   1.112   3.327   0.891  2.9723 -1.8724  1.1839
  145MOL0     H19086   1.001   3.454   0.967  0.3882 -0.3680  0.7070
  145MOL0     H19087   0.897   3.265   1.093 -0.3927 -0.8415 -0.5017
  145MOL0     H19088   1.031   3.161   1.038  1.2334 -0.3213 -3.5899
  145MOL0     H19089   0.955   3.193   0.805 -0.8102 -1.0765 -1.0312
  145MOL0     H19090   0.835   3.114   0.905  3.2314 -1.4333  3.4623
  145MOL0     H19091   0.732   3.268   0.751  0.3817 -1.4249  0.5398
  145MOL0     H19092   0.820   3.413   0.818 -2.1747  1.2890 -1.5135
  145MOL0     H19093   0.545   3.153   0.971 -0.0973  0.4508  1.6245
  145MOL0     H19094   0.439   3.312   1.284 -1.6396 -0.6309 -0.2944
  145MOL0     H19095   0.454   3.147   1.221  1.2335 -0.6700 -1.6143
  145MOL0     H19096   0.251   3.240   1.059 -4.2288 -0.0473  0.5606
  145MOL0     H19097   0.253   3.391   1.139 -1.4847 -0.2417 -0.1507
  145MOL0     H19098   0.183   3.123   1.280 -0.6758 -0.6586 -3.5515
  145MOL0     H19099   0.211   3.285   1.355 -3.2796  2.5243 -0.6113
  145MOL0     H19100   0.002   3.352   1.251  0.5209 -0.6565  0.7896
  145MOL0     H19101  -0.011   3.201   1.324 -0.5423  2.7554  1.9730
  145MOL0     H19102  -0.229   3.256   1.275  1.1005 -3.4554  0.6448
  145MOL0     H19103  -0.459   3.256   1.186 -2.5524  0.0384 -3.1756
  145MOL0     H19104  -0.698   3.463   0.864 -0.1702 -1.3895  1.4847
  145MOL0     H19105  -0.905   3.513   0.756 -1.3370  0.7021  0.8284
  145MOL0     H19106  -1.104   3.460   0.617  1.6977 -2.0831  1.8033
  145MOL0     H19107  -1.131   3.559   0.766 -0.8784  0.3872 -0.8799
  145MOL0     H19108  -1.348   3.380   0.656 -0.3312 -0.1388 -0.6941
  145MOL0     H19109  -1.329   3.537   0.590  3.0495  0.8944 -0.4677
  145MOL0     H19110  -1.340   3.627   0.826 -0.9503 -0.7468  3.3491
  145MOL0     H19111  -1.359   3.462   0.880 -0.0033 -3.4405 -3.3436
  145MOL0     H19112  -1.561   3.595   0.682 -0.5386  0.3499 -0.0588
  145MOL0     H19113  -1.585   3.443   0.771  1.6139 -0.6372 -3.2380
  145MOL0     H19114  -1.573   3.728   0.885  0.1582  0.8165  0.9886
  145MOL0     H19115  -1.560   3.577   0.988 -1.1292 -1.8678 -0.4672
  145MOL0     H19116  -1.784   3.497   0.880  1.4351 -0.3274 -1.2159
  145MOL0     H19117  -1.799   3.652   0.804 -3.1279 -3.4531 -0.0242
  145MOL0     H19118  -1.937   3.648   1.008 -0.2001  0.4004 -1.9218
  145MOL0     H19119  -1.796   3.594   1.093 -2.2897  0.5397  1.3869
  145MOL0     H19120  -1.675   3.789   1.062 -0.3129 -2.0238 -0.8257
  145MOL0     H19121  -1.834   3.831   1.130  1.1201 -0.4502  1.6770
  145MOL0     H19122  -1.085   3.164   0.948  0.7329  0.3494  0.5808
  145MOL0     H19123  -0.852   3.116   1.038 -2.8999  1.3189  3.0138
  145MOL0     H19124  -0.314   3.147   0.797  0.7668  0.6396 -0.5992
  145MOL0     H19125  -0.086   3.162   0.880 -1.8476 -3.3750 -0.3945
  145MOL0     H19126   1.592   3.215   1.066 -0.1597 -0.1439 -0.1372
  145MOL0     H19127   1.809   3.079   1.077 -0.8821  0.7187  0.8938
  145MOL0     H19128   2.175   2.918   0.952 -1.0932 -0.2689  1.5835
  145MOL0     H19129   2.352   2.775   1.016 -0.9763 -0.0687  0.3057
  145MOL0     H19130   2.618   2.702   1.017 -0.6778 -2.6797  0.6297
  145MOL0     H19131   2.526   2.670   1.167 -3.1523  1.6366 -2.3174
  145MOL0     H19132   2.779   2.588   1.147 -0.1363 -0.0004  1.9860
  145MOL0     H19133   2.825   2.755   1.139 -4.4528  3.5636 -3.5475
  145MOL0     H19134   2.704   2.794   1.354 -1.2139 -1.3142  1.3586
  145MOL0     H19135   2.847   2.693   1.380 -0.0921  2.8381  0.9814
  145MOL0     H19136   2.682   2.606   1.512  0.7544 -0.3229 -0.2039
  145MOL0     H19137   2.565   2.591   1.377 -0.3981 -2.8711  2.8151
  145MOL0     H19138   2.806   2.249   1.370  0.9431  0.5403 -0.9327
  145MOL0     H19139   2.564   3.117   1.163 -1.5710  0.5950  0.9207
  145MOL0     H19140   2.384   3.262   1.075  1.4951 -0.2255  0.0742
  146MOL0     O19141   0.236   0.016   3.109 -0.1810  0.4055  0.2554
  146MOL0     C19142   0.282   0.048   3.220 -1.0159  0.2507 -0.3688
  146MOL0     O19143   0.208   0.086   3.326  0.2474  0.4506  0.3933
  146MOL0     C19144   0.072   0.105   3.313 -0.6124  0.5562 -0.3874
  146MOL0     C19145   0.011   0.163   3.203  0.0126 -0.1991  0.7786
  146MOL0     C19146  -0.130   0.180   3.198  0.3939  0.4488 -0.6674
  146MOL0     C19147  -0.218   0.127   3.294 -0.4582 -0.3885  0.1477
  146MOL0     O19148  -0.353   0.147   3.285  0.5433 -0.2760  0.4040
  146MOL0     C19149  -0.423   0.178   3.404  0.3606 -0.0300 -0.2081
  146MOL0     C19150  -0.520   0.275   3.353 -0.0923 -0.8195 -1.0189
  146MOL0     C19151  -0.611   0.289   3.480  0.5887  0.2262  1.4327
  146MOL0     C19152  -0.750   0.228   3.459 -0.7418 -0.5831 -1.0188
  146MOL0     C19153  -0.851   0.313   3.380  0.2775 -1.1577 -0.3053
  146MOL0     C19154  -1.000   0.286   3.401  0.2924  0.4865 -0.0399
  146MOL0     C19155  -1.089   0.395   3.341 -0.0559 -0.3146  0.2013
  146MOL0     C19156  -1.232   0.377   3.393 -0.2798 -0.1803  0.5021
  146MOL0     N19157  -1.303   0.503   3.373  0.1659 -0.2140 -1.2298
  146MOL0     C19158  -1.322   0.600   3.468 -0.7115  0.0056  0.3017
  146MOL0     C19159  -1.404   0.694   3.410  0.3959  0.1849 -0.1333
  146MOL0     C19160  -1.447   0.822   3.473 -0.4253 -0.7356 -0.0975
  146MOL0     C19161  -1.334   0.919   3.442  1.1248  0.1141 -0.3716
  146MOL0     C19162  -1.384   1.060   3.387  0.6610 -0.0894 -0.0994
  146MOL0     C19163  -1.487   1.121   3.485  0.2479 -0.0290  0.4534
  146MOL0     O19164  -1.440   1.143   3.627  0.5897 -0.3591  0.1854
  146MOL0     C19165  -1.545   1.167   3.711  0.3996  0.0066  0.5473
  146MOL0     C19166  -1.673   1.215   3.675 -0.0616 -0.4647 -0.8219
  146MOL0     C19167  -1.768   1.219   3.773  0.0875 -0.1292 -0.5873
  146MOL0     C19168  -1.745   1.171   3.901  0.1365 -0.3657 -0.1587
  146MOL0     C19169  -1.860   1.169   3.993  0.6496 -0.1154 -0.1934
  146MOL0     O19170  -1.984   1.206   3.942 -0.5357 -0.7894 -0.2482
  146MOL0     C19171  -2.092   1.207   4.034 -0.4833  0.6276 -0.2904
  146MOL0     C19172  -2.130   1.323   4.094  0.3622 -0.7442 -0.3623
  146MOL0     C19173  -2.241   1.326   4.181 -0.1785 -0.6548 -0.4075
  146MOL0     C19174  -2.311   1.212   4.209 -0.8953  1.2545 -0.0428
  146MOL0     O19175  -2.420   1.221   4.289  0.1481 -0.1007  0.2576
  146MOL0     C19176  -2.539   1.151   4.261 -0.2947 -0.5594 -0.2455
  146MOL0     C19177  -2.617   1.139   4.395  0.5145  0.0619 -0.5775
  146MOL0     C19178  -2.658   1.260   4.479  0.3529  0.6459  0.1717
  146MOL0     C19179  -2.740   1.210   4.600  0.2171  0.7807 -0.4257
  146MOL0     C19180  -2.879   1.149   4.565 -0.8425  0.7830  0.4460
  146MOL0     C19181  -2.965   1.261   4.511 -0.0232  0.1499  0.3198
  146MOL0     C19182  -3.101   1.207   4.482 -0.5620 -0.0694  0.0310
  146MOL0     C19183  -3.201   1.314   4.467 -0.0251 -0.4543 -0.7787
  146MOL0    Cl19184  -3.360   1.252   4.430 -0.5333  0.1548 -0.0418
  146MOL0     C19185  -2.271   1.091   4.148  0.8519  0.1699  0.2151
  146MOL0     C19186  -2.168   1.086   4.055  0.1760 -0.1055 -0.1525
  146MOL0     O19187  -1.839   1.142   4.111 -0.2432 -0.1762  0.6365
  146MOL0     C19188  -1.614   1.140   3.943 -0.2147 -0.1339  0.3084
  146MOL0     C19189  -1.514   1.134   3.846 -0.1180  0.1925 -1.0457
  146MOL0     N19190  -1.457   0.639   3.295  0.5692 -0.1041  0.1635
  146MOL0     N19191  -1.385   0.540   3.268  0.1875  0.8152  0.6500
  146MOL0     C19192  -0.153   0.059   3.401 -1.0122  0.5823 -0.4380
  146MOL0     C19193  -0.012   0.051   3.415 -0.5224  0.6617  0.2302
  146MOL0     C19194   0.428   0.045   3.246  0.0413 -0.1256  0.1107
  146MOL0     C19195   0.475   0.067   3.381  0.6131  0.3242  0.2187
  146MOL0     C19196   0.610   0.050   3.408 -0.2638 -0.0676  0.8511
  146MOL0     C19197   0.696   0.007   3.299 -0.0724  0.5106 -0.0821
  146MOL0     O19198   0.827   0.001   3.312  0.1862  0.1690  0.5296
  146MOL0     C19199   0.899   0.092   3.404 -0.5915 -0.0261 -0.5807
  146MOL0     C19200   0.972  -0.003   3.499 -0.5830  0.0449  0.1221
  146MOL0     C19201   1.107  -0.062   3.460 -0.1849  0.7989  0.1910
  146MOL0     C19202   1.083  -0.201   3.374 -1.0223 -0.2448 -0.0870
  146MOL0     C19203   1.216  -0.266   3.351 -0.0369 -0.2286 -0.2848
  146MOL0     C19204   1.321  -0.306   3.341 -0.9845  0.0548 -0.0055
  146MOL0     C19205   0.653  -0.022   3.172  0.1958 -0.1515 -1.1102
  146MOL0     C19206   0.519   0.007   3.144  0.1571 -0.0694  0.2310
  146MOL0     H19207   0.071   0.200   3.121 -2.1219 -1.1010 -1.3013
  146MOL0     H19208  -0.167   0.238   3.114 -1.7039  1.3040  0.7737
  146MOL0     H19209  -0.366   0.226   3.483  0.1063 -1.9392  1.1996
  146MOL0     H19210  -0.461   0.085   3.448 -0.7862 -0.7542 -2.5414
  146MOL0     H19211  -0.579   0.249   3.264 -1.3765  0.8578 -0.7066
  146MOL0     H19212  -0.474   0.374   3.349 -1.4013 -0.1438 -0.0777
  146MOL0     H19213  -0.630   0.395   3.499 -1.4502 -0.1108  1.4936
  146MOL0     H19214  -0.571   0.243   3.570  0.3248 -3.2747 -0.0597
  146MOL0     H19215  -0.737   0.129   3.414  3.1267 -0.9599  0.5252
  146MOL0     H19216  -0.791   0.212   3.559  0.5527  3.1832  0.2736
  146MOL0     H19217  -0.834   0.311   3.272 -0.5066 -3.5343 -0.4285
  146MOL0     H19218  -0.827   0.416   3.408  0.2244 -1.5245  1.2128
  146MOL0     H19219  -1.019   0.279   3.509 -3.5868  0.7741 -0.5477
  146MOL0     H19220  -1.029   0.190   3.358 -2.3655  1.2871 -0.2085
  146MOL0     H19221  -1.052   0.492   3.375  0.2471 -1.3931  3.3269
  146MOL0     H19222  -1.081   0.391   3.232 -3.6361  0.4613 -0.2168
  146MOL0     H19223  -1.238   0.368   3.502 -1.7756  2.5406  0.7391
  146MOL0     H19224  -1.277   0.289   3.348  0.0196  0.5379 -1.2683
  146MOL0     H19225  -1.293   0.597   3.572 -1.9997 -0.2319  0.6744
  146MOL0     H19226  -1.471   0.814   3.580 -3.0250 -0.4982 -0.5897
  146MOL0     H19227  -1.539   0.854   3.423  0.9460 -0.2948 -2.4525
  146MOL0     H19228  -1.270   0.871   3.368  0.2046 -2.0755  0.1742
  146MOL0     H19229  -1.271   0.934   3.530  1.6215 -3.3449  0.0025
  146MOL0     H19230  -1.307   1.135   3.371 -2.1861  3.2858  0.6943
  146MOL0     H19231  -1.451   1.060   3.301  0.9303  3.1029 -0.4003
  146MOL0     H19232  -1.572   1.055   3.502  0.2861  0.3662  2.3610
  146MOL0     H19233  -1.525   1.215   3.443  1.4150  0.3058  0.0820
  146MOL0     H19234  -1.707   1.242   3.575 -1.1063  0.3492 -0.2663
  146MOL0     H19235  -1.864   1.261   3.745 -0.5050  0.7864  2.3913
  146MOL0     H19236  -2.063   1.407   4.083 -0.4235  0.2920  2.1228
  146MOL0     H19237  -2.289   1.403   4.239  2.7383  1.7357 -0.9273
  146MOL0     H19238  -2.525   1.044   4.245 -1.6408 -0.6129 -1.1324
  146MOL0     H19239  -2.598   1.193   4.180 -2.8810 -3.1148  0.1572
  146MOL0     H19240  -2.555   1.071   4.455  0.0223 -0.2842 -0.4580
  146MOL0     H19241  -2.702   1.086   4.351  0.0105  0.2107  0.1926
  146MOL0     H19242  -2.720   1.324   4.416 -0.3702 -2.7163 -2.8960
  146MOL0     H19243  -2.569   1.316   4.511  2.2583 -2.2327  0.3042
  146MOL0     H19244  -2.678   1.132   4.646 -1.4048  0.1460  0.8010
  146MOL0     H19245  -2.748   1.287   4.677  2.7426 -1.2776  2.1380
  146MOL0     H19246  -2.915   1.092   4.651 -1.4825 -0.2220 -0.4699
  146MOL0     H19247  -2.883   1.068   4.492 -3.2365  1.8318 -0.7205
  146MOL0     H19248  -2.919   1.298   4.418 -0.3401  0.0232  0.1091
  146MOL0     H19249  -2.965   1.338   4.588  0.1688 -0.0108  0.4802
  146MOL0     H19250  -3.099   1.162   4.383 -2.9196  2.7594 -1.4492
  146MOL0     H19251  -3.126   1.131   4.557 -2.0069 -0.7266 -1.0820
  146MOL0     H19252  -3.166   1.382   4.388  0.6169 -1.4647 -1.3800
  146MOL0     H19253  -3.200   1.369   4.562 -0.0677 -1.5909 -0.1104
  146MOL0     H19254  -2.317   0.995   4.173 -1.5065  1.2337  0.2365
  146MOL0     H19255  -2.135   0.996   4.005  0.3339 -0.4900  0.6260
  146MOL0     H19256  -1.577   1.118   4.043 -1.4315 -1.8345  0.4245
  146MOL0     H19257  -1.415   1.099   3.872  0.7837  2.4891 -1.2274
  146MOL0     H19258  -0.207  -0.006   3.468 -0.0444  0.8876  0.6700
  146MOL0     H19259   0.025  -0.010   3.497 -0.2279 -2.7767 -2.2218
  146MOL0     H19260   0.404   0.077   3.462 -0.8262 -0.3916 -0.8943
  146MOL0     H19261   0.633   0.065   3.513  2.2641  0.6378  0.2522
  146MOL0     H19262   0.824   0.157   3.450 -0.1895 -0.8540  1.3402
  146MOL0     H19263   0.983   0.149   3.362  1.3159 -1.5052  1.0378
  146MOL0     H19264   0.991   0.061   3.585  0.7942 -0.6600  0.3693
  146MOL0     H19265   0.918  -0.091   3.538  0.0601 -0.1693  0.5414
  146MOL0     H19266   1.160  -0.089   3.552  0.5356 -1.9217 -0.9309
  146MOL0     H19267   1.172   0.008   3.406 -0.2400  0.3703 -0.4470
  146MOL0     H19268   1.029  -0.276   3.433 -0.8538  1.4086  2.3224
  146MOL0     H19269   1.029  -0.181   3.281 -0.3159 -1.4817 -0.7922
  146MOL0     H19270   1.421  -0.339   3.320 -1.7084 -1.8310 -0.6651
  146MOL0     H19271   0.719  -0.062   3.095  1.8193 -1.4330  0.8306
  146MOL0     H19272   0.473  -0.020   3.050 -1.6999 -0.8374  1.3005
  147MOL0     O19273   6.589   1.220   3.228 -0.7216  0.1278 -0.3971
  147MOL0     C19274   6.672   1.298   3.173  1.1296  0.1523  0.4651
  147MOL0     O19275   6.639   1.421   3.106 -0.9642  1.0181 -0.3379
  147MOL0     C19276   6.511   1.462   3.103 -0.0477  0.9798  0.8358
  147MOL0     C19277   6.482   1.603   3.097 -1.1269 -0.6239  0.0707
  147MOL0     C19278   6.349   1.649   3.094 -0.4231  0.4659 -0.0345
  147MOL0     C19279   6.248   1.563   3.090 -0.2507 -0.2560 -0.3115
  147MOL0     O19280   6.120   1.608   3.089 -0.0887  0.3175  0.2497
  147MOL0     C19281   6.066   1.664   3.205  0.1424 -0.2865 -0.3827
  147MOL0     C19282   5.917   1.620   3.237 -0.3051 -0.3493  1.0338
  147MOL0     C19283   5.828   1.634   3.111 -0.3369  0.0898  0.2482
  147MOL0     C19284   5.688   1.575   3.117  0.3662 -0.3604 -0.3208
  147MOL0     C19285   5.601   1.583   2.981 -0.1761  0.5360 -0.0144
  147MOL0     C19286   5.461   1.525   2.994 -0.4313 -0.2286 -0.1755
  147MOL0     C19287   5.373   1.611   3.083 -0.0993  0.2249 -0.8071
  147MOL0     C19288   5.220   1.595   3.060  0.0735  0.0646 -0.2206
  147MOL0     N19289   5.169   1.455   3.057 -0.4814  0.5470  0.4146
  147MOL0     C19290   5.158   1.381   2.941  0.2727 -1.0073  0.0278
  147MOL0     C19291   5.087   1.272   2.982 -0.4899  0.2041  1.5659
  147MOL0     C19292   5.035   1.157   2.898 -0.8947  0.0839 -0.9982
  147MOL0     C19293   5.145   1.060   2.848 -0.5240 -0.3224 -0.2977
  147MOL0     C19294   5.228   1.005   2.963 -0.3055  0.0033  0.6723
  147MOL0     C19295   5.139   0.930   3.070 -0.1617 -0.3463  1.5092
  147MOL0     O19296   5.084   0.815   3.005 -0.3275  1.0971  0.7849
  147MOL0     C19297   4.988   0.742   3.068  0.4128 -0.6435  0.1550
  147MOL0     C19298   4.962   0.758   3.200  0.2763  0.6005 -0.1730
  147MOL0     C19299   4.861   0.687   3.269 -0.4988 -0.1815 -0.3512
  147MOL0     C19300   4.777   0.593   3.188 -0.4672  0.3171 -0.8400
  147MOL0     C19301   4.678   0.507   3.251 -0.0932 -0.6736 -0.4669
  147MOL0     O19302   4.651   0.378   3.196  0.4245  0.8217 -0.3869
  147MOL0     C19303   4.517   0.335   3.205 -0.5895 -0.1341  0.0110
  147MOL0     C19304   4.413   0.396   3.129 -0.3090  0.2144 -1.0100
  147MOL0     C19305   4.282   0.355   3.162 -0.0941 -0.7925  0.9800
  147MOL0     C19306   4.250   0.241   3.243  0.5117  0.1483 -0.4341
  147MOL0     O19307   4.117   0.207   3.256 -0.6370 -1.0143 -0.2342
  147MOL0     C19308   4.103   0.065   3.253 -0.2530  0.7504  0.5306
  147MOL0     C19309   3.960   0.036   3.283  0.3553 -0.3118 -0.5306
  147MOL0     C19310   3.865   0.066   3.166 -0.5692  0.0442 -0.9552
  147MOL0     C19311   3.723   0.067   3.220  0.4631 -1.2291 -0.3245
  147MOL0     C19312   3.615   0.109   3.127  0.3716 -0.0766 -0.0995
  147MOL0     C19313   3.599   0.019   3.001 -0.3330  0.2856  0.0989
  147MOL0     C19314   3.476   0.048   2.914  0.5037 -0.3082 -0.4286
  147MOL0     C19315   3.505   0.091   2.770  0.0348  0.2935  0.4803
  147MOL0    Cl19316   3.340   0.134   2.706  0.0928  0.3170 -0.2839
  147MOL0     C19317   4.360   0.183   3.311 -0.1501  0.1806 -0.0787
  147MOL0     C19318   4.487   0.236   3.295  0.3754  0.9890 -0.5351
  147MOL0     O19319   4.617   0.556   3.348 -0.0380 -0.2032 -0.1674
  147MOL0     C19320   4.822   0.568   3.052  0.6955  0.1447  1.1231
  147MOL0     C19321   4.917   0.652   2.998 -0.1532 -0.1302 -0.4063
  147MOL0     N19322   5.059   1.281   3.116  0.2327 -0.2122 -0.3217
  147MOL0     N19323   5.086   1.399   3.161  0.0508  0.1760  0.0665
  147MOL0     C19324   6.269   1.430   3.096 -0.4708 -0.6835  0.2774
  147MOL0     C19325   6.399   1.378   3.095  0.0764  0.8000  0.2443
  147MOL0     C19326   6.812   1.253   3.169 -0.3808 -0.1190 -0.6876
  147MOL0     C19327   6.906   1.354   3.146 -0.3637  0.3662  0.6788
  147MOL0     C19328   7.040   1.314   3.143 -0.1143 -0.2506  0.3997
  147MOL0     C19329   7.086   1.185   3.181  0.5317  0.2679  1.4299
  147MOL0     O19330   7.212   1.139   3.187  0.3178 -0.4457  0.2134
  147MOL0     C19331   7.307   1.205   3.100 -0.2011  0.5529 -0.0013
  147MOL0     C19332   7.450   1.154   3.134  0.3964  0.3914  0.5882
  147MOL0     C19333   7.507   1.214   3.269  0.3903  0.3055 -0.2385
  147MOL0     C19334   7.607   1.112   3.342 -0.9483  0.1336 -0.3381
  147MOL0     C19335   7.718   1.067   3.257 -0.1807  1.1250  0.4086
  147MOL0     C19336   7.801   1.008   3.186 -0.8553 -0.0870  0.2522
  147MOL0     C19337   6.989   1.095   3.210 -0.1557  0.9215 -0.4843
  147MOL0     C19338   6.854   1.128   3.214  0.4178  0.2633  0.5899
  147MOL0     H19339   6.562   1.676   3.107  1.2951 -3.2531  1.1965
  147MOL0     H19340   6.338   1.757   3.090 -0.6121  0.4101 -1.6086
  147MOL0     H19341   6.065   1.771   3.182  0.7139 -0.6371 -2.2347
  147MOL0     H19342   6.134   1.646   3.288 -0.7969 -2.3580 -0.0093
  147MOL0     H19343   5.867   1.681   3.312  0.1460  3.2386 -1.3778
  147MOL0     H19344   5.921   1.512   3.259 -0.4863 -1.4072 -3.2466
  147MOL0     H19345   5.880   1.585   3.029 -0.5067  0.6743 -0.2165
  147MOL0     H19346   5.814   1.737   3.078 -2.2716  0.4420  1.9538
  147MOL0     H19347   5.690   1.469   3.142 -1.3765 -0.2224  0.5880
  147MOL0     H19348   5.629   1.627   3.194  1.5099 -1.2723  1.2191
  147MOL0     H19349   5.656   1.523   2.907  3.4011  0.5402  2.3789
  147MOL0     H19350   5.591   1.681   2.934 -1.4769  1.2361  1.6359
  147MOL0     H19351   5.468   1.425   3.037  1.7601  0.9669  2.6879
  147MOL0     H19352   5.402   1.525   2.903 -3.0236  0.3928  1.4090
  147MOL0     H19353   5.397   1.579   3.185  1.8591  1.5168 -0.7973
  147MOL0     H19354   5.395   1.717   3.070 -2.9329  0.9640 -0.0962
  147MOL0     H19355   5.202   1.637   2.960 -0.7229 -0.8410 -0.4725
  147MOL0     H19356   5.169   1.642   3.144 -1.8716 -1.5671 -0.4286
  147MOL0     H19357   5.187   1.411   2.841  2.4574  0.4840  1.0269
  147MOL0     H19358   4.981   1.202   2.813 -1.2817  0.4946 -0.5414
  147MOL0     H19359   4.961   1.103   2.957 -1.5328 -1.0382 -2.7547
  147MOL0     H19360   5.217   1.110   2.782 -1.7767 -0.7238 -2.0332
  147MOL0     H19361   5.099   0.988   2.780  0.2848 -1.0094 -0.1314
  147MOL0     H19362   5.315   0.949   2.926 -0.5957 -0.8339  1.2283
  147MOL0     H19363   5.276   1.090   3.013 -0.6629  0.8892 -0.4406
  147MOL0     H19364   5.064   1.003   3.101 -1.8649 -0.4553 -1.9414
  147MOL0     H19365   5.203   0.892   3.151  1.9540  0.0497  0.1259
  147MOL0     H19366   5.013   0.834   3.260 -0.8727  1.9903 -0.8902
  147MOL0     H19367   4.821   0.713   3.367  1.8524 -1.2279  0.9781
  147MOL0     H19368   4.422   0.471   3.051 -4.3391  0.4444 -1.4711
  147MOL0     H19369   4.205   0.407   3.107  2.8095  0.7531 -1.9468
  147MOL0     H19370   4.160   0.021   3.336  1.7740  0.4141 -0.9640
  147MOL0     H19371   4.129   0.031   3.153  0.2904  0.7194  0.6762
  147MOL0     H19372   3.934   0.096   3.370  3.6547  1.0908 -0.3878
  147MOL0     H19373   3.946  -0.068   3.315  1.9323 -0.6052 -0.7121
  147MOL0     H19374   3.882  -0.014   3.094 -1.2706 -2.5517  1.5916
  147MOL0     H19375   3.885   0.165   3.125 -1.6185 -0.7522 -3.6068
  147MOL0     H19376   3.695  -0.030   3.261 -0.5982 -1.4076 -1.4124
  147MOL0     H19377   3.709   0.137   3.303 -0.1557  2.1812 -3.0798
  147MOL0     H19378   3.638   0.211   3.097  1.5453 -0.3135 -0.0328
  147MOL0     H19379   3.523   0.095   3.186 -0.4591 -2.0093 -1.7152
  147MOL0     H19380   3.598  -0.087   3.028  1.6886 -0.2887 -1.7622
  147MOL0     H19381   3.687   0.036   2.939  0.2565 -0.6199  0.6712
  147MOL0     H19382   3.414  -0.042   2.911 -1.4595  0.9274  0.6948
  147MOL0     H19383   3.412   0.124   2.958 -0.3679 -2.2094  1.8172
  147MOL0     H19384   3.544   0.006   2.712  1.9453  0.6719  1.1651
  147MOL0     H19385   3.583   0.167   2.760 -2.1687  2.7376  0.8971
  147MOL0     H19386   4.357   0.125   3.402  0.9303  2.4324  1.5038
  147MOL0     H19387   4.562   0.208   3.367 -0.0034  1.8196  0.2014
  147MOL0     H19388   4.777   0.494   2.986  0.8443  2.8220 -2.2491
  147MOL0     H19389   4.933   0.640   2.892 -1.5448  0.6082 -0.7155
  147MOL0     H19390   6.192   1.353   3.092  0.5014 -1.7108  0.7117
  147MOL0     H19391   6.409   1.270   3.097  0.5016  0.8351  0.0280
  147MOL0     H19392   6.889   1.453   3.106  2.4924  0.6465 -0.1079
  147MOL0     H19393   7.108   1.396   3.119 -0.1111 -0.4083 -0.1405
  147MOL0     H19394   7.312   1.314   3.103  0.9384  0.5985 -1.9607
  147MOL0     H19395   7.281   1.175   2.998  2.1054 -0.9101 -0.2347
  147MOL0     H19396   7.441   1.046   3.150 -0.3644  0.4699  0.7504
  147MOL0     H19397   7.505   1.162   3.039 -4.0144  1.4974 -2.1718
  147MOL0     H19398   7.432   1.242   3.344 -0.9385  0.4133 -1.5552
  147MOL0     H19399   7.566   1.305   3.251 -0.2570  1.6769  3.6567
  147MOL0     H19400   7.656   1.158   3.429 -1.6818 -0.8903  0.6422
  147MOL0     H19401   7.549   1.028   3.382 -5.2396  2.1369 -1.7580
  147MOL0     H19402   7.868   0.953   3.123 -2.9560 -2.3797 -0.1128
  147MOL0     H19403   7.016   0.995   3.241  0.7620  0.4102 -2.7592
  147MOL0     H19404   6.790   1.050   3.253 -2.4901  1.1026 -2.1037
  148MOL0     O19405   1.243   6.510   0.858 -0.1547 -0.8232  0.4508
  148MOL0     C19406   1.269   6.588   0.771 -0.7831  0.2516 -0.1686
  148MOL0     O19407   1.184   6.652   0.683 -0.0533 -0.5895  0.3373
  148MOL0     C19408   1.054   6.610   0.693 -0.4004 -0.5487  0.6396
  148MOL0     C19409   0.951   6.696   0.748 -0.8534  0.0126  0.6905
  148MOL0     C19410   0.827   6.641   0.770 -0.0016  0.2559 -0.7275
  148MOL0     C19411   0.790   6.510   0.730  0.2897  0.2950  0.5168
  148MOL0     O19412   0.661   6.457   0.747  1.0988 -0.8718 -0.8252
  148MOL0     C19413   0.552   6.549   0.753 -0.5836 -0.7687  0.6860
  148MOL0     C19414   0.427   6.472   0.783  0.4528 -0.1918 -1.0387
  148MOL0     C19415   0.311   6.558   0.810  0.6813 -0.5767  0.9379
  148MOL0     C19416   0.182   6.478   0.862  0.4900 -0.6273  0.6359
  148MOL0     C19417   0.054   6.570   0.865 -1.1315  0.2910  0.3089
  148MOL0     C19418  -0.070   6.484   0.864 -0.2930 -0.8455  0.0055
  148MOL0     C19419  -0.206   6.559   0.889 -0.6103 -0.2042 -0.4376
  148MOL0     C19420  -0.320   6.464   0.867 -0.1743 -0.5601  0.7840
  148MOL0     N19421  -0.447   6.541   0.853 -0.2627 -0.1258  0.1084
  148MOL0     C19422  -0.529   6.577   0.960 -0.7638  0.5101 -0.0915
  148MOL0     C19423  -0.639   6.623   0.912 -0.3402 -0.2624 -0.4226
  148MOL0     C19424  -0.759   6.685   0.994  0.2921 -0.2681  0.1226
  148MOL0     C19425  -0.863   6.732   0.888  0.0463 -0.6775  0.6014
  148MOL0     C19426  -0.985   6.809   0.937  0.1489  0.5200 -0.3850
  148MOL0     C19427  -1.095   6.724   0.999  0.7351 -0.1261  0.1152
  148MOL0     O19428  -1.221   6.789   1.036 -0.0599 -0.8044 -0.2475
  148MOL0     C19429  -1.345   6.742   0.998 -0.2629 -0.4929  0.5472
  148MOL0     C19430  -1.384   6.616   1.026 -0.1543  0.5568 -0.8650
  148MOL0     C19431  -1.515   6.571   1.003 -0.0815  0.4751  0.5694
  148MOL0     C19432  -1.610   6.658   0.940 -0.8741  0.5601 -0.7217
  148MOL0     C19433  -1.739   6.609   0.880 -0.2184  0.1400 -0.8614
  148MOL0     O19434  -1.806   6.681   0.787 -0.0791  0.6213  0.7384
  148MOL0     C19435  -1.915   6.627   0.720  0.5233 -0.1546  0.3626
  148MOL0     C19436  -1.931   6.494   0.684  0.1633  0.3644  0.2645
  148MOL0     C19437  -2.043   6.449   0.602 -0.4120  0.3739  1.1891
  148MOL0     C19438  -2.136   6.542   0.545 -0.6294 -0.8109 -0.1370
  148MOL0     O19439  -2.231   6.507   0.459  0.2504 -0.3549  0.7579
  148MOL0     C19440  -2.198   6.412   0.356  0.6380 -0.9696 -1.1361
  148MOL0     C19441  -2.150   6.493   0.239 -0.5590 -1.4926 -1.3350
  148MOL0     C19442  -2.013   6.569   0.245  0.0417  1.0324  0.0714
  148MOL0     C19443  -1.897   6.468   0.276 -0.3947  0.2448 -0.1764
  148MOL0     C19444  -1.761   6.527   0.223 -0.4856 -0.3113 -1.0337
  148MOL0     C19445  -1.737   6.661   0.313 -0.8659  0.1143  0.2093
  148MOL0     C19446  -1.610   6.717   0.271  1.0479 -0.1572 -0.0985
  148MOL0     C19447  -1.587   6.862   0.306  0.0139 -0.5459  0.5826
  148MOL0    Cl19448  -1.504   6.881   0.465  0.1944  0.2357 -0.0518
  148MOL0     C19449  -2.119   6.674   0.580 -0.4630 -0.7250 -0.3689
  148MOL0     C19450  -2.014   6.716   0.666 -0.2182 -0.5673  0.3571
  148MOL0     O19451  -1.771   6.506   0.930 -0.1388  0.2829  0.5058
  148MOL0     C19452  -1.568   6.792   0.933  0.4677 -0.2859  0.9493
  148MOL0     C19453  -1.440   6.832   0.956  0.0178  0.0248  0.2694
  148MOL0     N19454  -0.633   6.599   0.772 -0.1799 -1.0429  0.3711
  148MOL0     N19455  -0.516   6.558   0.738 -0.4706  1.0585  0.7494
  148MOL0     C19456   0.889   6.436   0.657 -0.2544 -0.2164 -0.8806
  148MOL0     C19457   1.015   6.488   0.640  0.3033 -0.1693 -0.2399
  148MOL0     C19458   1.417   6.628   0.761  0.3340 -0.7955  0.4869
  148MOL0     C19459   1.524   6.539   0.786  1.0425 -0.7214 -0.2826
  148MOL0     C19460   1.646   6.575   0.740 -0.3295  0.1556 -0.6051
  148MOL0     C19461   1.680   6.693   0.678 -0.1924  0.1300  0.0875
  148MOL0     O19462   1.812   6.731   0.653 -0.1261 -0.2409 -0.5237
  148MOL0     C19463   1.850   6.863   0.612  0.3362 -0.0744  0.5175
  148MOL0     C19464   2.005   6.879   0.625 -0.2609  0.6098  1.2607
  148MOL0     C19465   2.059   6.908   0.764  0.6200 -0.8024  0.5283
  148MOL0     C19466   2.037   6.787   0.854 -0.6372 -0.7405 -0.4849
  148MOL0     C19467   2.140   6.770   0.966 -0.1306  0.0027  0.3755
  148MOL0     C19468   2.234   6.776   1.042  0.3718  0.0024 -0.4746
  148MOL0     C19469   1.576   6.784   0.661 -0.4037 -0.2674  0.2401
  148MOL0     C19470   1.444   6.751   0.702  0.0408 -0.0351 -0.4044
  148MOL0     H19471   0.975   6.799   0.772  2.4682  0.2763 -2.9260
  148MOL0     H19472   0.763   6.710   0.825  2.2472  0.4125  1.8792
  148MOL0     H19473   0.538   6.593   0.654 -0.6537 -1.0696  0.5609
  148MOL0     H19474   0.560   6.636   0.819 -1.3650  1.6218 -2.1468
  148MOL0     H19475   0.443   6.402   0.866  1.2864  0.4053 -0.6826
  148MOL0     H19476   0.399   6.404   0.702  0.5446 -1.1201 -0.3120
  148MOL0     H19477   0.274   6.620   0.728  2.3927 -2.7300 -1.6252
  148MOL0     H19478   0.350   6.626   0.887  1.4982 -0.0003  0.0372
  148MOL0     H19479   0.166   6.392   0.796 -2.9900 -1.2413  2.0592
  148MOL0     H19480   0.201   6.444   0.964  0.7386 -1.5250  0.3012
  148MOL0     H19481   0.049   6.624   0.770 -0.7581  0.3948  0.3460
  148MOL0     H19482   0.058   6.646   0.943 -0.2497 -1.5731  2.1983
  148MOL0     H19483  -0.059   6.410   0.943 -1.6263 -1.1022 -0.0294
  148MOL0     H19484  -0.080   6.435   0.767  1.2024 -1.7680  0.2967
  148MOL0     H19485  -0.212   6.605   0.988  1.3053  0.3841 -0.5437
  148MOL0     H19486  -0.210   6.645   0.822  0.7235  0.0483 -0.2257
  148MOL0     H19487  -0.332   6.393   0.949 -1.7898  0.7214  1.7256
  148MOL0     H19488  -0.309   6.404   0.777 -2.4784 -1.6161  1.1296
  148MOL0     H19489  -0.496   6.568   1.063 -2.4644 -1.2976  0.3579
  148MOL0     H19490  -0.726   6.775   1.046 -1.2138  0.4398 -0.0771
  148MOL0     H19491  -0.800   6.609   1.060 -0.5736  0.5985  0.6055
  148MOL0     H19492  -0.894   6.650   0.823  2.3853 -2.1548  1.2470
  148MOL0     H19493  -0.810   6.807   0.828 -0.0712  1.2997  2.8109
  148MOL0     H19494  -0.958   6.883   1.013 -0.6600  1.4768 -0.9900
  148MOL0     H19495  -1.025   6.862   0.850 -0.4566 -1.7781 -1.5804
  148MOL0     H19496  -1.053   6.679   1.089  2.1098  1.0309  0.1027
  148MOL0     H19497  -1.106   6.641   0.928  1.7748  1.2435 -1.7504
  148MOL0     H19498  -1.318   6.538   1.061 -2.5607 -1.9554 -1.6087
  148MOL0     H19499  -1.534   6.464   1.010 -1.6634  0.7473  0.8613
  148MOL0     H19500  -1.884   6.406   0.727 -0.9680 -0.9719 -1.1352
  148MOL0     H19501  -2.063   6.343   0.592  0.8512  0.1075  1.3348
  148MOL0     H19502  -2.298   6.380   0.324 -0.6774  1.7926 -0.1144
  148MOL0     H19503  -2.141   6.333   0.405  0.0484  1.5304  4.3075
  148MOL0     H19504  -2.223   6.571   0.219  0.6526  1.6988  4.4333
  148MOL0     H19505  -2.149   6.418   0.159  0.6847 -0.5961 -2.1981
  148MOL0     H19506  -2.012   6.652   0.316  0.4076  0.4913  0.7184
  148MOL0     H19507  -1.999   6.610   0.145  1.5152  2.2157  0.7278
  148MOL0     H19508  -1.885   6.453   0.384  1.8295  3.8038  0.2616
  148MOL0     H19509  -1.913   6.370   0.230 -1.2234  1.1389 -1.8478
  148MOL0     H19510  -1.778   6.555   0.119 -3.9385 -0.1600 -0.5456
  148MOL0     H19511  -1.683   6.451   0.222  0.5552  0.7110 -0.0832
  148MOL0     H19512  -1.742   6.639   0.419 -0.4828 -0.5357  0.0950
  148MOL0     H19513  -1.816   6.730   0.280 -0.4780  0.4168 -0.0988
  148MOL0     H19514  -1.540   6.659   0.330  0.2959  0.5297  1.5259
  148MOL0     H19515  -1.593   6.707   0.163  1.3169  1.0251 -0.1827
  148MOL0     H19516  -1.681   6.916   0.314  0.8566  0.9050  1.1729
  148MOL0     H19517  -1.533   6.910   0.223 -0.5129 -3.0257 -1.3089
  148MOL0     H19518  -2.199   6.738   0.544 -0.3302  0.1349  0.8285
  148MOL0     H19519  -2.012   6.817   0.706 -1.9436 -0.6118  0.6261
  148MOL0     H19520  -1.638   6.866   0.894  1.8699  0.5549 -0.0967
  148MOL0     H19521  -1.413   6.937   0.959 -0.0884  0.0538  0.2246
  148MOL0     H19522   0.868   6.339   0.613 -3.5876  1.0491 -2.4078
  148MOL0     H19523   1.081   6.426   0.579  1.6456  1.4614 -0.5118
  148MOL0     H19524   1.504   6.451   0.846  3.3089  0.9913  3.3599
  148MOL0     H19525   1.723   6.500   0.759 -0.9244 -0.3451 -0.1183
  148MOL0     H19526   1.801   6.950   0.656 -3.2699  0.7084 -4.1948
  148MOL0     H19527   1.825   6.856   0.506  0.0369  2.4008  0.3720
  148MOL0     H19528   2.049   6.790   0.579 -0.2450  1.2014  0.0880
  148MOL0     H19529   2.035   6.961   0.559 -3.4040  0.5955 -0.3409
  148MOL0     H19530   2.011   6.998   0.803  2.3561  0.2730  0.2746
  148MOL0     H19531   2.165   6.919   0.740  0.1031 -1.5064 -2.5866
  148MOL0     H19532   1.934   6.793   0.890 -0.6861 -1.7592 -0.4160
  148MOL0     H19533   2.048   6.700   0.788 -1.0039  0.2647 -1.9111
  148MOL0     H19534   2.336   6.778   1.074 -0.0541  0.2931  0.9583
  148MOL0     H19535   1.589   6.878   0.608 -3.5636  0.8343  1.2106
  148MOL0     H19536   1.366   6.822   0.674  2.0955  1.8165 -1.7398
  149MOL0     O19537   6.159   3.026   7.091 -0.1635  0.0016 -0.7216
  149MOL0     C19538   6.182   3.142   7.052  0.2087  0.8199 -0.0765
  149MOL0     O19539   6.093   3.238   7.018 -0.3682 -0.5330  0.4652
  149MOL0     C19540   5.960   3.224   7.056  0.5862 -0.1748 -0.2377
  149MOL0     C19541   5.882   3.139   6.986 -0.0959  0.7112  0.3294
  149MOL0     C19542   5.753   3.104   7.016 -0.1316 -0.3445  0.1338
  149MOL0     C19543   5.686   3.166   7.127 -1.0823 -0.1473 -1.1549
  149MOL0     O19544   5.557   3.136   7.165 -0.5750  0.1869 -0.3846
  149MOL0     C19545   5.552   3.043   7.271 -0.3281  0.4215 -1.3049
  149MOL0     C19546   5.426   3.059   7.361 -0.2196 -0.3877  1.6588
  149MOL0     C19547   5.302   3.048   7.280 -0.1127  0.1980 -0.0308
  149MOL0     C19548   5.185   3.067   7.367  0.4837 -0.8826 -0.8896
  149MOL0     C19549   5.051   3.033   7.293  1.0707 -0.4091 -0.6320
  149MOL0     C19550   4.934   3.088   7.391 -0.0520 -0.8019  0.3178
  149MOL0     C19551   4.799   3.027   7.344 -0.3934 -0.2212  0.7201
  149MOL0     C19552   4.688   3.060   7.440 -0.0504  0.2436 -0.2125
  149MOL0     N19553   4.559   3.006   7.394  0.0076 -0.1165 -0.2909
  149MOL0     C19554   4.486   3.043   7.283  0.5652  0.5978  0.1787
  149MOL0     C19555   4.362   2.987   7.296  0.7368 -0.3749  0.3213
  149MOL0     C19556   4.248   3.006   7.197  0.5276 -0.3777 -0.3763
  149MOL0     C19557   4.123   3.057   7.259  0.3116 -1.0354  0.4404
  149MOL0     C19558   4.013   3.059   7.150  0.4138 -0.3406  0.4335
  149MOL0     C19559   3.874   3.106   7.204  0.2029  0.4118 -0.7262
  149MOL0     O19560   3.834   2.993   7.295 -0.1661 -0.0114  0.2235
  149MOL0     C19561   3.711   2.981   7.357  0.1501  0.2740  0.4463
  149MOL0     C19562   3.604   3.073   7.344 -1.2121 -0.4472  0.5339
  149MOL0     C19563   3.481   3.047   7.397 -0.1291 -0.2773  0.3035
  149MOL0     C19564   3.473   2.953   7.500 -0.4137 -0.3473 -1.0099
  149MOL0     C19565   3.351   2.946   7.588  0.3078  0.9943  0.0700
  149MOL0     O19566   3.252   3.031   7.560  0.1806 -0.3382  0.7320
  149MOL0     C19567   3.139   3.030   7.643 -0.0414  0.6101 -0.0505
  149MOL0     C19568   3.012   3.035   7.582  0.2882 -0.3268 -0.4656
  149MOL0     C19569   2.891   3.037   7.662 -0.5888 -0.8410  0.1097
  149MOL0     C19570   2.903   3.046   7.795 -0.4844 -0.1675 -0.6278
  149MOL0     O19571   2.787   3.043   7.859  0.2612  0.2728 -0.1992
  149MOL0     C19572   2.795   3.043   8.001  0.8759 -0.0628 -0.6288
  149MOL0     C19573   2.649   3.041   8.063 -0.4844  0.0831 -0.2480
  149MOL0     C19574   2.570   3.160   8.014  0.6246  0.0254  0.8372
  149MOL0     C19575   2.443   3.167   8.092 -0.8298 -0.4542  0.1495
  149MOL0     C19576   2.453   3.241   8.230 -0.0995 -0.2486  0.3606
  149MOL0     C19577   2.331   3.224   8.312  0.1265  0.3879 -0.4904
  149MOL0     C19578   2.320   3.318   8.429  0.0002 -0.1036 -0.8762
  149MOL0     C19579   2.455   3.306   8.512 -0.1619  0.6818  0.2247
  149MOL0    Cl19580   2.504   3.145   8.556  0.0067  0.5884 -0.0300
  149MOL0     C19581   3.032   3.046   7.860 -0.4727  0.2352 -0.1792
  149MOL0     C19582   3.148   3.049   7.783  0.0133 -0.2029 -0.0120
  149MOL0     O19583   3.354   2.869   7.681 -1.3225  0.9127 -0.5100
  149MOL0     C19584   3.580   2.858   7.514  0.8482 -0.8633 -0.0366
  149MOL0     C19585   3.696   2.885   7.446 -1.0067  1.0897  0.2027
  149MOL0     N19586   4.365   2.911   7.405 -0.1922  0.0723 -0.7924
  149MOL0     N19587   4.482   2.919   7.467 -0.2453 -0.4645  0.8421
  149MOL0     C19588   5.765   3.273   7.191 -1.0154 -0.1302  0.8175
  149MOL0     C19589   5.900   3.297   7.160  0.3479 -0.1087 -0.6490
  149MOL0     C19590   6.327   3.175   7.046  0.1183  0.2133 -0.4361
  149MOL0     C19591   6.428   3.075   7.054 -0.5884 -0.6081  0.5886
  149MOL0     C19592   6.565   3.115   7.039 -0.1392  0.0393 -0.4401
  149MOL0     C19593   6.598   3.245   7.001 -0.4597  0.5944  0.7907
  149MOL0     O19594   6.731   3.273   6.987 -0.1600  0.7963 -0.0371
  149MOL0     C19595   6.772   3.401   7.047 -0.6221 -0.4292 -0.6707
  149MOL0     C19596   6.735   3.410   7.200 -0.0527  1.1770  0.6273
  149MOL0     C19597   6.819   3.533   7.260  0.8627  0.4520  1.1933
  149MOL0     C19598   6.799   3.575   7.408  0.0219  0.0523  0.3001
  149MOL0     C19599   6.654   3.572   7.425  1.1181 -0.8025 -0.6176
  149MOL0     C19600   6.531   3.561   7.434 -0.1981  0.1218 -0.5931
  149MOL0     C19601   6.497   3.336   6.980 -0.5752 -0.9741 -0.1427
  149MOL0     C19602   6.363   3.302   6.999  0.7294 -0.2254 -0.4168
  149MOL0     H19603   5.927   3.077   6.909 -0.5300 -0.1357  0.7463
  149MOL0     H19604   5.701   3.029   6.958 -1.1731  1.0208 -0.7608
  149MOL0     H19605   5.640   3.053   7.335  1.2098 -2.2629 -2.7927
  149MOL0     H19606   5.555   2.940   7.233 -3.3561 -0.4611  0.4346
  149MOL0     H19607   5.427   3.159   7.405  3.7377  0.2689  0.5177
  149MOL0     H19608   5.435   2.977   7.433  0.7020 -3.5820 -1.7515
  149MOL0     H19609   5.298   2.946   7.239  4.2984 -0.4040  0.5250
  149MOL0     H19610   5.300   3.118   7.197  2.0132 -0.7859 -0.9792
  149MOL0     H19611   5.195   3.007   7.458  1.6995 -2.6133 -2.1000
  149MOL0     H19612   5.187   3.171   7.399  2.6458 -0.9649 -0.6179
  149MOL0     H19613   5.049   2.924   7.300  0.6446 -0.4623 -1.4953
  149MOL0     H19614   5.036   3.055   7.187 -0.5229 -1.7122 -0.7183
  149MOL0     H19615   4.917   3.196   7.396 -0.8092 -0.9152  0.3876
  149MOL0     H19616   4.951   3.053   7.493 -3.1073  3.0471  2.4209
  149MOL0     H19617   4.785   3.070   7.245  1.4542 -3.3891 -1.0784
  149MOL0     H19618   4.807   2.918   7.337  2.6395  0.0462 -1.8688
  149MOL0     H19619   4.679   3.169   7.448  0.4758  0.3433 -0.9168
  149MOL0     H19620   4.710   3.022   7.541  0.1693  0.5152 -0.1564
  149MOL0     H19621   4.526   3.112   7.209  0.4503 -0.6153 -1.0565
  149MOL0     H19622   4.222   2.909   7.155  0.2329 -0.8131  0.7573
  149MOL0     H19623   4.283   3.078   7.123  2.3158  0.8389  1.5208
  149MOL0     H19624   4.140   3.157   7.302 -3.1381  0.7152 -1.7775
  149MOL0     H19625   4.084   2.993   7.339 -1.1503 -0.9627 -0.1775
  149MOL0     H19626   4.048   3.129   7.074 -0.2866  1.0857  1.3639
  149MOL0     H19627   4.004   2.959   7.108 -1.7224 -0.1392  0.2907
  149MOL0     H19628   3.801   3.129   7.126 -1.5687 -1.2472  0.3434
  149MOL0     H19629   3.894   3.195   7.264  3.5535 -2.1924  2.4439
  149MOL0     H19630   3.607   3.152   7.270 -0.5307  0.8372  1.8945
  149MOL0     H19631   3.399   3.114   7.371  1.1272  1.2976  0.1880
  149MOL0     H19632   3.019   3.038   7.474 -3.9548  0.3243 -0.8783
  149MOL0     H19633   2.789   3.042   7.624 -0.6864 -0.1936  0.4625
  149MOL0     H19634   2.849   3.130   8.040  2.0029 -0.6117 -0.9215
  149MOL0     H19635   2.831   2.946   8.037 -0.8998  1.2133  6.0360
  149MOL0     H19636   2.662   3.046   8.172  0.2793  2.0481 -0.3831
  149MOL0     H19637   2.603   2.943   8.049  0.2871 -0.1316 -1.3976
  149MOL0     H19638   2.550   3.146   7.907 -1.5840 -1.0000  1.3300
  149MOL0     H19639   2.621   3.256   8.017  0.0664  0.3098  1.5552
  149MOL0     H19640   2.372   3.226   8.034 -1.0285 -0.3435  0.5027
  149MOL0     H19641   2.408   3.064   8.102  0.7426 -1.0214  0.1383
  149MOL0     H19642   2.484   3.344   8.207 -1.4104 -0.3355 -2.2075
  149MOL0     H19643   2.545   3.214   8.282  2.2624  4.6274 -0.6296
  149MOL0     H19644   2.308   3.124   8.349 -0.7304  0.3937 -0.9772
  149MOL0     H19645   2.251   3.242   8.239 -2.1071 -2.0887  1.1507
  149MOL0     H19646   2.294   3.420   8.398 -1.4738 -0.6974 -1.6839
  149MOL0     H19647   2.228   3.288   8.479  1.1582 -2.5678 -0.0520
  149MOL0     H19648   2.451   3.372   8.600  1.3638 -0.2971  1.0544
  149MOL0     H19649   2.528   3.349   8.443  0.6686 -2.1222 -0.7795
  149MOL0     H19650   3.045   3.052   7.967 -1.3304  0.9353 -0.0996
  149MOL0     H19651   3.244   3.048   7.834 -0.3779 -1.6662  0.7418
  149MOL0     H19652   3.571   2.777   7.586 -3.3589 -0.2866  0.3568
  149MOL0     H19653   3.769   2.806   7.461 -0.0307  1.9452 -0.0085
  149MOL0     H19654   5.722   3.336   7.269 -0.4058 -0.2822  1.2832
  149MOL0     H19655   5.962   3.370   7.211  0.0282 -1.8797  2.5415
  149MOL0     H19656   6.408   2.977   7.096  0.0697 -1.9865 -2.0725
  149MOL0     H19657   6.652   3.052   7.057 -1.5975 -1.6698  1.0750
  149MOL0     H19658   6.723   3.489   7.002  2.7667  2.3801  0.6489
  149MOL0     H19659   6.879   3.411   7.029 -0.8577 -0.6180 -2.3627
  149MOL0     H19660   6.626   3.420   7.211 -0.5735 -1.1444 -1.4197
  149MOL0     H19661   6.765   3.315   7.245  0.4541  1.5633  1.1097
  149MOL0     H19662   6.827   3.616   7.190  1.9039 -1.4978 -1.1395
  149MOL0     H19663   6.920   3.494   7.247 -0.0259 -0.9334 -3.3947
  149MOL0     H19664   6.849   3.500   7.470 -2.8146 -2.5752 -0.3322
  149MOL0     H19665   6.840   3.675   7.427 -0.0640  0.3179 -0.8238
  149MOL0     H19666   6.425   3.548   7.435 -0.0813 -0.8683  0.1813
  149MOL0     H19667   6.527   3.436   6.951  0.2739 -0.9163  0.8615
  149MOL0     H19668   6.283   3.365   6.962  2.2310  0.1947 -3.2181
  150MOL0     O19669   3.077   0.136   0.391 -0.5194 -0.2521 -0.4753
  150MOL0     C19670   3.138   0.036   0.356  0.8914 -0.3570 -0.2639
  150MOL0     O19671   3.082  -0.083   0.313  0.3958  0.2601  0.8293
  150MOL0     C19672   2.943  -0.097   0.320 -0.2795  0.4768  0.2829
  150MOL0     C19673   2.880  -0.155   0.207  0.6334  1.4174 -0.1808
  150MOL0     C19674   2.738  -0.165   0.201 -0.2900  0.9410  0.0075
  150MOL0     C19675   2.666  -0.109   0.309 -0.5516 -0.4070 -0.1376
  150MOL0     O19676   2.524  -0.117   0.313  0.8033 -0.0321  0.8755
  150MOL0     C19677   2.449  -0.144   0.187 -0.6907 -0.8003  0.3779
  150MOL0     C19678   2.411  -0.292   0.180 -0.5360 -0.2755 -0.2533
  150MOL0     C19679   2.325  -0.300   0.065 -0.1143 -0.1391  0.0142
  150MOL0     C19680   2.275  -0.441   0.045  0.4704 -0.7352  0.3496
  150MOL0     C19681   2.168  -0.497   0.151 -0.4995  0.4425 -0.2116
  150MOL0     C19682   2.087  -0.605   0.078  0.5975  0.5204 -0.0124
  150MOL0     C19683   2.006  -0.700   0.166  0.3935 -0.2256 -0.0905
  150MOL0     C19684   1.880  -0.630   0.226  0.0463 -0.7386 -0.9928
  150MOL0     N19685   1.762  -0.635   0.141 -0.7468 -0.3838  0.2533
  150MOL0     C19686   1.762  -0.582   0.013  0.0143 -0.5511 -0.2566
  150MOL0     C19687   1.628  -0.558  -0.003 -0.0942 -0.1578  1.4656
  150MOL0     C19688   1.578  -0.514  -0.142 -0.9310 -0.6750  0.0189
  150MOL0     C19689   1.477  -0.609  -0.203  0.0207  0.6298 -0.4502
  150MOL0     C19690   1.521  -0.659  -0.340  2.0182 -0.3676 -0.5277
  150MOL0     C19691   1.403  -0.727  -0.417 -0.1874  0.2541 -0.2129
  150MOL0     O19692   1.366  -0.832  -0.339  0.5863 -0.3048 -0.3757
  150MOL0     C19693   1.259  -0.910  -0.387 -1.0154  0.9610 -0.1585
  150MOL0     C19694   1.212  -0.999  -0.292  0.1945 -0.5036 -0.3525
  150MOL0     C19695   1.100  -1.084  -0.305  0.1556 -0.2222  0.5112
  150MOL0     C19696   1.046  -1.096  -0.433 -0.1276 -0.1341 -0.1560
  150MOL0     C19697   0.934  -1.193  -0.463  0.4805 -0.3267 -0.4119
  150MOL0     O19698   0.903  -1.267  -0.355  0.1939  0.5876 -0.1376
  150MOL0     C19699   0.798  -1.359  -0.363  0.0095 -0.4570 -0.5993
  150MOL0     C19700   0.786  -1.467  -0.272  0.3900  0.5697  0.1273
  150MOL0     C19701   0.678  -1.560  -0.278 -0.3715 -0.3689  0.7933
  150MOL0     C19702   0.568  -1.533  -0.356  0.4012  0.8773 -0.3203
  150MOL0     O19703   0.459  -1.621  -0.343 -0.1387  0.2203 -0.6044
  150MOL0     C19704   0.332  -1.583  -0.412 -0.8592  0.1808  0.2602
  150MOL0     C19705   0.223  -1.654  -0.328 -0.4209 -0.3366 -0.2535
  150MOL0     C19706   0.087  -1.592  -0.359 -0.4034 -0.4281  0.0873
  150MOL0     C19707  -0.027  -1.685  -0.325  0.6551 -0.0713  0.1152
  150MOL0     C19708  -0.161  -1.602  -0.303  0.8731  0.2460  0.2269
  150MOL0     C19709  -0.289  -1.683  -0.354 -1.1448  0.4825 -0.6703
  150MOL0     C19710  -0.354  -1.776  -0.247 -0.1912  0.3458 -1.1390
  150MOL0     C19711  -0.482  -1.856  -0.271 -0.0141  0.1569 -1.2667
  150MOL0    Cl19712  -0.506  -1.947  -0.127 -0.4514 -0.1060 -0.1360
  150MOL0     C19713   0.576  -1.433  -0.443  0.8199  0.5224  0.3395
  150MOL0     C19714   0.680  -1.347  -0.449 -0.2512  0.0912  0.4473
  150MOL0     O19715   0.893  -1.207  -0.583  0.4632  0.2257  0.1138
  150MOL0     C19716   1.109  -1.028  -0.537  0.5378 -0.4181 -0.4858
  150MOL0     C19717   1.210  -0.936  -0.522 -0.1341 -0.6503  0.0749
  150MOL0     N19718   1.552  -0.611   0.095 -0.0708 -0.0080 -0.2989
  150MOL0     N19719   1.637  -0.649   0.187  0.2014 -0.1664  0.5916
  150MOL0     C19720   2.733  -0.052   0.426 -1.1742 -0.4423  0.4001
  150MOL0     C19721   2.875  -0.053   0.434  0.2043 -0.5309 -0.5719
  150MOL0     C19722   3.286   0.054   0.360  0.2979  1.0280  1.2803
  150MOL0     C19723   3.362  -0.063   0.344 -0.8533  0.2335  0.0686
  150MOL0     C19724   3.498  -0.058   0.372 -0.3188 -0.7389 -0.4334
  150MOL0     C19725   3.566   0.062   0.384  0.3485 -1.0482 -0.1845
  150MOL0     O19726   3.698   0.080   0.399  0.1159 -0.2227 -0.9648
  150MOL0     C19727   3.788  -0.032   0.371  0.0858 -0.4512  0.0060
  150MOL0     C19728   3.941   0.007   0.357  1.0896 -0.7561  0.9240
  150MOL0     C19729   4.001   0.039   0.494 -0.1372  0.8882 -0.4024
  150MOL0     C19730   4.147   0.076   0.480 -0.1096  0.3632  0.0330
  150MOL0     C19731   4.203   0.090   0.618 -0.4672 -0.9385 -0.5767
  150MOL0     C19732   4.260   0.113   0.728 -0.1594 -0.9934  0.1921
  150MOL0     C19733   3.489   0.180   0.394 -0.4078  0.2269  0.3361
  150MOL0     C19734   3.347   0.181   0.380 -0.4019  0.6045 -0.0486
  150MOL0     H19735   2.929  -0.189   0.115  1.0079  0.0715  0.4840
  150MOL0     H19736   2.691  -0.210   0.115 -1.4905  0.9154  0.6561
  150MOL0     H19737   2.507  -0.119   0.098 -1.9975  1.2610  0.0251
  150MOL0     H19738   2.357  -0.084   0.186  0.0915  0.4964 -2.0827
  150MOL0     H19739   2.348  -0.325   0.263 -2.6546  2.9644 -0.3692
  150MOL0     H19740   2.499  -0.355   0.166  1.4423  2.1453  0.5880
  150MOL0     H19741   2.378  -0.265  -0.024  0.5157 -2.2253 -0.4924
  150MOL0     H19742   2.238  -0.235   0.074  0.3626  0.5382 -0.1632
  150MOL0     H19743   2.226  -0.437  -0.052 -1.6482  3.8482  1.3651
  150MOL0     H19744   2.369  -0.498   0.039  2.3786  2.1968  0.5231
  150MOL0     H19745   2.101  -0.424   0.198 -0.8055  0.5770 -0.8465
  150MOL0     H19746   2.226  -0.545   0.231  0.5279  2.2003  0.1499
  150MOL0     H19747   2.159  -0.673   0.032  0.3469  1.3569 -1.7189
  150MOL0     H19748   2.030  -0.550   0.003  0.6709  2.9156  1.5727
  150MOL0     H19749   1.980  -0.788   0.105 -1.0722  0.8049 -1.0315
  150MOL0     H19750   2.066  -0.741   0.247  1.8579 -1.5826 -1.7697
  150MOL0     H19751   1.918  -0.531   0.253  1.1680 -1.1754 -0.8799
  150MOL0     H19752   1.852  -0.674   0.322  3.5518  1.9927  1.5725
  150MOL0     H19753   1.844  -0.557  -0.054  0.3192 -3.2628 -1.0396
  150MOL0     H19754   1.666  -0.504  -0.207 -0.8022  0.5040  0.3457
  150MOL0     H19755   1.536  -0.415  -0.123  0.0545 -0.4554  1.1858
  150MOL0     H19756   1.392  -0.540  -0.211  1.4530  2.2869 -2.1434
  150MOL0     H19757   1.447  -0.685  -0.130 -0.6242  2.3109  1.1184
  150MOL0     H19758   1.563  -0.584  -0.408  2.9731  0.2676  0.7164
  150MOL0     H19759   1.587  -0.741  -0.311  1.3095 -0.7877 -0.0838
  150MOL0     H19760   1.431  -0.756  -0.519  1.8489 -2.1883  0.9431
  150MOL0     H19761   1.322  -0.654  -0.426  0.7707  1.5029  0.9101
  150MOL0     H19762   1.261  -1.000  -0.195  1.9088  1.0516 -1.1293
  150MOL0     H19763   1.057  -1.128  -0.215 -0.1322 -2.3302 -0.5807
  150MOL0     H19764   0.871  -1.480  -0.206  0.4047 -3.5967 -0.4268
  150MOL0     H19765   0.669  -1.648  -0.214 -1.1195 -1.7123 -1.0819
  150MOL0     H19766   0.342  -1.602  -0.519 -0.0202 -1.5330  0.6060
  150MOL0     H19767   0.329  -1.475  -0.394  0.8878  0.0278  1.7413
  150MOL0     H19768   0.244  -1.650  -0.220 -1.5083 -4.3246  0.2580
  150MOL0     H19769   0.224  -1.758  -0.362  2.1695  0.6428 -3.7258
  150MOL0     H19770   0.088  -1.570  -0.466 -1.6912 -3.4882 -0.6652
  150MOL0     H19771   0.086  -1.504  -0.294  2.3692 -0.2861  0.0728
  150MOL0     H19772  -0.041  -1.756  -0.407  1.9156 -1.1939  0.8418
  150MOL0     H19773  -0.012  -1.749  -0.238  1.0485  1.8221  1.5087
  150MOL0     H19774  -0.160  -1.510  -0.363  1.1179  1.1407  1.5687
  150MOL0     H19775  -0.186  -1.561  -0.205 -1.4132  0.0644 -0.2271
  150MOL0     H19776  -0.245  -1.742  -0.435 -1.5108 -0.8748  0.0901
  150MOL0     H19777  -0.366  -1.623  -0.403  0.3582  2.4824 -0.7563
  150MOL0     H19778  -0.273  -1.848  -0.231 -1.1704 -0.3355  1.2307
  150MOL0     H19779  -0.359  -1.719  -0.154  3.3764 -1.5676  0.4425
  150MOL0     H19780  -0.456  -1.926  -0.351  5.8065 -3.7398  3.1372
  150MOL0     H19781  -0.578  -1.808  -0.287 -0.9394 -0.0363  2.6483
  150MOL0     H19782   0.487  -1.410  -0.502 -0.6865  1.3288  2.7700
  150MOL0     H19783   0.666  -1.265  -0.519 -1.7273 -1.3019 -0.9780
  150MOL0     H19784   1.083  -1.054  -0.640 -0.0017 -0.6087 -0.3040
  150MOL0     H19785   1.247  -0.895  -0.615 -0.1354 -0.5884  0.1020
  150MOL0     H19786   2.674  -0.016   0.509  1.5063  2.4704  1.2562
  150MOL0     H19787   2.938  -0.017   0.514 -0.3887 -3.0599  1.1677
  150MOL0     H19788   3.317  -0.161   0.326  1.1331 -0.5962 -0.6185
  150MOL0     H19789   3.563  -0.145   0.375 -0.1989 -0.6718 -0.9193
  150MOL0     H19790   3.753  -0.078   0.279  0.2102  0.3295 -0.4376
  150MOL0     H19791   3.777  -0.106   0.451 -0.6497  0.7902  1.0939
  150MOL0     H19792   3.986  -0.078   0.304 -2.9774 -3.0920  0.7954
  150MOL0     H19793   3.955   0.097   0.297 -0.4117  0.4098  2.2407
  150MOL0     H19794   3.992  -0.053   0.553 -1.9746  0.1329 -1.7729
  150MOL0     H19795   3.940   0.112   0.548 -1.2760  0.4235 -1.0338
  150MOL0     H19796   4.194  -0.010   0.431 -0.7080  0.4877 -0.7724
  150MOL0     H19797   4.168   0.168   0.424 -0.4320  1.0223  0.9627
  150MOL0     H19798   4.306   0.140   0.821  1.1228 -2.5745  0.0796
  150MOL0     H19799   3.542   0.272   0.414 -1.8286  1.2339 -0.3799
  150MOL0     H19800   3.290   0.271   0.402 -0.4012  0.7785 -0.7280
  151MOL0     O19801   8.076   7.280  10.731  0.3170 -0.0075 -0.4949
  151MOL0     C19802   8.076   7.325  10.843  0.5178  0.2569 -0.7255
  151MOL0     O19803   7.961   7.360  10.904 -0.4052 -0.2219  0.2851
  151MOL0     C19804   7.846   7.390  10.839 -0.2119  0.2000 -0.2481
  151MOL0     C19805   7.724   7.363  10.909 -1.1706  0.3271 -0.0937
  151MOL0     C19806   7.601   7.386  10.853 -1.2302 -0.8006 -0.5840
  151MOL0     C19807   7.601   7.441  10.724  0.7609 -0.0248  0.1345
  151MOL0     O19808   7.472   7.450  10.679 -0.1313  0.4046  0.0552
  151MOL0     C19809   7.446   7.506  10.551  0.2881  0.5402  0.1844
  151MOL0     C19810   7.366   7.411  10.466  0.1106 -0.2703 -0.4453
  151MOL0     C19811   7.219   7.396  10.496  0.3246 -0.2348  0.2334
  151MOL0     C19812   7.148   7.314  10.389 -0.1991 -0.4226  0.8921
  151MOL0     C19813   6.996   7.302  10.420  0.2808 -0.4413  0.1157
  151MOL0     C19814   6.925   7.430  10.377  0.5280 -1.1705 -0.6186
  151MOL0     C19815   6.771   7.435  10.380 -1.1115  0.1824 -0.3500
  151MOL0     C19816   6.708   7.366  10.258  0.3152 -0.0932  0.4723
  151MOL0     N19817   6.723   7.454  10.142  0.3286  0.1560  0.9692
  151MOL0     C19818   6.809   7.446  10.040 -1.0891 -0.9236 -0.0150
  151MOL0     C19819   6.775   7.541   9.956  0.2082  0.6333 -1.0429
  151MOL0     C19820   6.845   7.576   9.814  0.4275  0.8291 -0.2940
  151MOL0     C19821   6.794   7.503   9.689 -0.0174 -0.3761 -1.0862
  151MOL0     C19822   6.867   7.535   9.560  0.6884 -0.6021  0.3690
  151MOL0     C19823   6.840   7.676   9.504 -0.2704  0.1607 -0.3211
  151MOL0     O19824   6.904   7.698   9.381 -0.1439 -0.2310  0.3816
  151MOL0     C19825   6.966   7.819   9.365  0.2225 -0.4067  0.8005
  151MOL0     C19826   6.880   7.932   9.367  0.0196  0.7303 -0.3202
  151MOL0     C19827   6.932   8.067   9.345  0.9058  0.7104  0.9678
  151MOL0     C19828   7.073   8.082   9.362 -0.1044  0.5251  0.2464
  151MOL0     C19829   7.142   8.213   9.352 -0.7366 -0.5226  0.0280
  151MOL0     O19830   7.281   8.212   9.352  0.1583 -0.4167  0.1436
  151MOL0     C19831   7.369   8.319   9.336  0.2368  1.0865  1.1863
  151MOL0     C19832   7.334   8.454   9.356 -0.0940  0.4963 -0.4947
  151MOL0     C19833   7.423   8.552   9.326 -0.6763 -0.6173  0.1520
  151MOL0     C19834   7.556   8.531   9.282 -0.6404  0.2720 -1.0516
  151MOL0     O19835   7.653   8.639   9.258  0.1797  0.7135 -0.4029
  151MOL0     C19836   7.659   8.673   9.117  0.3440 -0.6285  0.2228
  151MOL0     C19837   7.789   8.750   9.100  0.0360 -0.5459 -0.1902
  151MOL0     C19838   7.910   8.654   9.111  0.1274  0.2140 -0.6078
  151MOL0     C19839   8.047   8.735   9.091  0.2311  0.3770 -0.5192
  151MOL0     C19840   8.155   8.644   9.139  0.6772  0.9806 -0.3260
  151MOL0     C19841   8.304   8.686   9.134  0.3318  0.3366 -0.4166
  151MOL0     C19842   8.358   8.679   8.992 -0.2343  0.5893 -0.6624
  151MOL0     C19843   8.497   8.726   8.983 -0.1749 -0.4640 -0.1113
  151MOL0    Cl19844   8.623   8.614   9.043  0.1839  0.2656 -0.0873
  151MOL0     C19845   7.595   8.391   9.261  0.4737  0.6637 -0.0016
  151MOL0     C19846   7.503   8.287   9.289 -0.4315  0.0809 -0.4173
  151MOL0     O19847   7.073   8.317   9.335 -0.0495 -0.1614  0.4111
  151MOL0     C19848   7.157   7.967   9.374  0.3369 -0.5260 -0.5518
  151MOL0     C19849   7.101   7.842   9.375  0.4835 -0.0009 -0.5298
  151MOL0     N19850   6.662   7.603  10.005  0.4472 -0.3897  0.3696
  151MOL0     N19851   6.632   7.556  10.119  0.3551  1.0523 -0.3114
  151MOL0     C19852   7.724   7.479  10.661 -0.1959 -0.2944 -0.0743
  151MOL0     C19853   7.845   7.453  10.716 -0.6494  0.4359 -0.8570
  151MOL0     C19854   8.200   7.357  10.918  0.2291 -0.0589 -0.8881
  151MOL0     C19855   8.205   7.354  11.066  0.7752  0.1533  0.8926
  151MOL0     C19856   8.314   7.409  11.124 -0.1676  0.3753  0.0386
  151MOL0     C19857   8.414   7.465  11.058 -0.5263  0.4424  0.4869
  151MOL0     O19858   8.526   7.508  11.126  0.1009  1.1077  0.0983
  151MOL0     C19859   8.651   7.448  11.086  1.1291  0.5263  0.3417
  151MOL0     C19860   8.715   7.350  11.188 -0.1711  0.4232  0.1565
  151MOL0     C19861   8.614   7.229  11.228 -1.1475 -0.5895 -0.6051
  151MOL0     C19862   8.693   7.120  11.304 -0.5162  0.3286 -0.0591
  151MOL0     C19863   8.596   7.055  11.390 -0.1573 -0.4333  0.2401
  151MOL0     C19864   8.514   7.014  11.467  0.1735  0.6650 -0.7592
  151MOL0     C19865   8.414   7.465  10.922 -0.1007  0.6887  0.1794
  151MOL0     C19866   8.308   7.409  10.850 -0.1069  1.1089 -0.0541
  151MOL0     H19867   7.735   7.316  11.006 -1.2480 -0.0408 -0.2592
  151MOL0     H19868   7.513   7.377  10.916  0.2635  1.2030  1.9840
  151MOL0     H19869   7.543   7.537  10.512  2.9717 -2.3514  3.7499
  151MOL0     H19870   7.391   7.599  10.567 -0.2177  0.4448 -0.8771
  151MOL0     H19871   7.406   7.309  10.470 -0.3065 -0.6143 -3.3952
  151MOL0     H19872   7.372   7.464  10.371  2.7597  2.1831  0.9146
  151MOL0     H19873   7.182   7.499  10.497 -0.6777 -0.5535 -0.8991
  151MOL0     H19874   7.191   7.354  10.593  1.2799 -2.3443 -0.3357
  151MOL0     H19875   7.170   7.351  10.288 -0.0907  0.6729  1.2983
  151MOL0     H19876   7.189   7.213  10.400  1.1730 -0.1266 -1.0038
  151MOL0     H19877   6.986   7.298  10.529  0.5528 -0.7843  0.1277
  151MOL0     H19878   6.946   7.219  10.368  0.8415 -0.3281 -0.6202
  151MOL0     H19879   6.954   7.458  10.275  2.0296 -1.0763 -0.1826
  151MOL0     H19880   6.954   7.502  10.454 -0.3959 -1.5434  0.0929
  151MOL0     H19881   6.732   7.382  10.467 -0.1848 -0.6495 -0.4145
  151MOL0     H19882   6.744   7.541  10.387 -0.1496  0.3340  3.1654
  151MOL0     H19883   6.607   7.330  10.278 -0.6680  2.6594  0.8687
  151MOL0     H19884   6.768   7.275  10.252 -0.0122 -0.2551 -0.3764
  151MOL0     H19885   6.903   7.391  10.036  1.5639  3.1385  1.0636
  151MOL0     H19886   6.953   7.559   9.817 -0.0845 -3.0269  0.9191
  151MOL0     H19887   6.808   7.679   9.807 -0.4786  0.5052 -0.3667
  151MOL0     H19888   6.688   7.529   9.678  0.3017  0.8340 -1.4298
  151MOL0     H19889   6.786   7.394   9.690  0.0350 -0.3874 -0.0622
  151MOL0     H19890   6.975   7.529   9.578  1.1736  2.1589 -1.1230
  151MOL0     H19891   6.843   7.457   9.486 -0.6050 -0.1524  0.2868
  151MOL0     H19892   6.868   7.761   9.568 -2.1906  2.3093 -2.1580
  151MOL0     H19893   6.733   7.693   9.489 -1.5312 -3.6004  2.7074
  151MOL0     H19894   6.772   7.919   9.358  0.0882 -0.7021  0.5608
  151MOL0     H19895   6.866   8.153   9.335  0.4031  0.1451 -0.9996
  151MOL0     H19896   7.234   8.479   9.389 -1.5100  0.0837 -4.0350
  151MOL0     H19897   7.385   8.652   9.342  0.7049  0.0523 -0.6382
  151MOL0     H19898   7.576   8.743   9.106  1.4844  1.1000  1.9829
  151MOL0     H19899   7.662   8.585   9.052  0.1798 -0.8737  0.5426
  151MOL0     H19900   7.799   8.825   9.179 -0.9924 -0.8076  0.1999
  151MOL0     H19901   7.783   8.801   9.003 -1.5024 -0.6720 -0.1774
  151MOL0     H19902   7.904   8.568   9.044 -0.7605 -2.6143  2.8115
  151MOL0     H19903   7.910   8.604   9.208 -1.4364 -0.4407 -0.9192
  151MOL0     H19904   8.056   8.763   8.985 -0.1243 -0.0015 -0.6525
  151MOL0     H19905   8.043   8.820   9.160  0.2375  1.4943 -1.8590
  151MOL0     H19906   8.153   8.554   9.076 -1.3779  1.3163 -0.8046
  151MOL0     H19907   8.123   8.613   9.239 -1.7390 -0.1525 -1.3580
  151MOL0     H19908   8.365   8.617   9.194 -1.5745 -1.6045 -0.5828
  151MOL0     H19909   8.312   8.783   9.184 -0.1527 -1.0362  2.6001
  151MOL0     H19910   8.361   8.573   8.968 -2.9084  0.1592  0.4810
  151MOL0     H19911   8.295   8.728   8.918  0.1294  4.0022  1.0597
  151MOL0     H19912   8.512   8.829   9.018  0.4236 -0.9617  1.1534
  151MOL0     H19913   8.525   8.725   8.877 -0.5864 -2.6747 -0.2442
  151MOL0     H19914   7.699   8.370   9.237  0.3213  1.4936 -1.5106
  151MOL0     H19915   7.522   8.182   9.266  1.1812  0.4977 -1.1057
  151MOL0     H19916   7.265   7.969   9.378  0.4318  0.2931 -2.4769
  151MOL0     H19917   7.165   7.755   9.391  0.9671  0.2551 -1.0516
  151MOL0     H19918   7.730   7.523  10.562 -0.3562  3.6426  1.4610
  151MOL0     H19919   7.942   7.476  10.672 -0.1611 -2.9857 -1.8795
  151MOL0     H19920   8.115   7.321  11.116 -1.4361  3.8755 -0.2337
  151MOL0     H19921   8.317   7.427  11.231  0.1192  0.1311  0.0737
  151MOL0     H19922   8.720   7.533  11.076  2.0540 -0.4412 -2.3800
  151MOL0     H19923   8.651   7.412  10.983 -0.5226 -0.1874  0.5625
  151MOL0     H19924   8.804   7.308  11.140 -0.9148  1.4676 -2.3200
  151MOL0     H19925   8.747   7.412  11.272  1.2671 -0.0211 -0.0246
  151MOL0     H19926   8.558   7.179  11.149 -1.5635 -1.0163 -0.0498
  151MOL0     H19927   8.540   7.274  11.295 -1.6475  1.6807 -2.5651
  151MOL0     H19928   8.740   7.050  11.234 -1.2874  1.0029 -1.2915
  151MOL0     H19929   8.773   7.168  11.360  0.3087 -3.5932  2.4907
  151MOL0     H19930   8.441   6.960  11.525  2.5089 -2.6520 -0.5960
  151MOL0     H19931   8.499   7.511  10.872 -1.9497  0.9905 -2.9429
  151MOL0     H19932   8.306   7.403  10.741 -0.6583  1.0718 -0.0455
  152MOL0     O19933   4.069   2.831   2.266 -0.0292 -0.5561  0.0379
  152MOL0     C19934   4.028   2.776   2.370  0.7075  0.7554  0.0185
  152MOL0     O19935   4.102   2.750   2.481 -0.4665  0.4378 -0.6290
  152MOL0     C19936   4.236   2.780   2.476  0.9617  0.0391  0.1969
  152MOL0     C19937   4.282   2.908   2.518  0.0652  1.3180  0.1097
  152MOL0     C19938   4.422   2.930   2.512  0.3135 -0.7652  0.0066
  152MOL0     C19939   4.512   2.837   2.458 -0.2969 -0.3867 -0.6982
  152MOL0     O19940   4.649   2.865   2.488  0.6261 -0.0223  0.0008
  152MOL0     C19941   4.742   2.762   2.452 -0.0259 -0.2797 -0.0169
  152MOL0     C19942   4.870   2.804   2.529 -0.4972  0.8518  0.0621
  152MOL0     C19943   4.982   2.706   2.499  0.4739  0.3105 -0.1736
  152MOL0     C19944   5.085   2.698   2.615 -0.4896  0.1417 -0.4900
  152MOL0     C19945   5.199   2.599   2.564  0.4272  0.2020  0.2593
  152MOL0     C19946   5.292   2.543   2.679  0.4364  0.1096 -0.3175
  152MOL0     C19947   5.426   2.489   2.638 -0.1125 -0.2342  0.0416
  152MOL0     C19948   5.521   2.432   2.752  0.2819  0.4474 -0.6565
  152MOL0     N19949   5.490   2.300   2.799  0.7523  0.6942  0.3382
  152MOL0     C19950   5.394   2.274   2.900 -0.9399  0.5689  1.0107
  152MOL0     C19951   5.396   2.138   2.919  0.4775 -0.6380 -0.4649
  152MOL0     C19952   5.320   2.068   3.033 -0.7063 -0.6350 -0.1395
  152MOL0     C19953   5.194   1.994   2.974 -0.4351 -0.6741  0.5543
  152MOL0     C19954   5.072   2.083   2.978  0.1290 -0.5707 -0.2491
  152MOL0     C19955   4.940   2.008   2.952 -0.8613  0.0231  0.3915
  152MOL0     O19956   4.922   1.935   3.069  0.5378 -0.5022 -0.1407
  152MOL0     C19957   4.808   1.856   3.071  0.4970  0.5762 -0.8643
  152MOL0     C19958   4.798   1.776   3.192  0.5831  0.1471 -0.0761
  152MOL0     C19959   4.690   1.697   3.217 -0.0165 -0.6003 -0.0633
  152MOL0     C19960   4.585   1.694   3.118  0.6325  0.6771 -0.4923
  152MOL0     C19961   4.451   1.632   3.158  0.3962  0.2443  0.9951
  152MOL0     O19962   4.344   1.644   3.076  0.3080 -0.7934  0.7093
  152MOL0     C19963   4.218   1.603   3.107  1.2734  0.4144  0.0933
  152MOL0     C19964   4.150   1.642   3.219 -0.2578  0.2815 -0.6185
  152MOL0     C19965   4.014   1.613   3.224  0.4454 -1.2981  0.7391
  152MOL0     C19966   3.938   1.561   3.116  0.2317 -0.7986 -0.7519
  152MOL0     O19967   3.811   1.527   3.115  0.1112  0.8452  0.3177
  152MOL0     C19968   3.721   1.619   3.183  1.1685 -0.2632 -0.0953
  152MOL0     C19969   3.589   1.545   3.196 -0.0466 -0.8397  0.2148
  152MOL0     C19970   3.519   1.525   3.062  0.1193  0.7326 -1.0276
  152MOL0     C19971   3.374   1.473   3.087  0.2886 -0.3267 -0.2294
  152MOL0     C19972   3.305   1.454   2.943 -0.0399 -0.2492 -0.0215
  152MOL0     C19973   3.161   1.402   2.951 -0.4260  0.4688  0.2758
  152MOL0     C19974   3.103   1.376   2.806  0.0161 -0.2217 -0.7211
  152MOL0     C19975   2.954   1.358   2.806 -0.2317  0.7458 -0.2732
  152MOL0    Cl19976   2.877   1.407   2.645 -0.2838  0.4674 -0.3709
  152MOL0     C19977   4.005   1.533   3.000  0.6325  0.3810  0.0146
  152MOL0     C19978   4.145   1.555   2.993  1.0242 -0.8747  0.3671
  152MOL0     O19979   4.443   1.589   3.274  0.1088 -0.3732  0.1744
  152MOL0     C19980   4.600   1.757   2.995  0.2080  0.2739 -0.3249
  152MOL0     C19981   4.707   1.848   2.974  0.2914 -0.0928  1.1364
  152MOL0     N19982   5.492   2.089   2.839 -1.1024 -0.1941  1.3029
  152MOL0     N19983   5.551   2.182   2.760  0.5345  0.3449 -0.0704
  152MOL0     C19984   4.456   2.720   2.408  0.6302  0.0953 -0.2064
  152MOL0     C19985   4.318   2.693   2.420 -0.3756  0.2741  0.3702
  152MOL0     C19986   3.891   2.732   2.376 -0.1230 -0.0074  0.3665
  152MOL0     C19987   3.851   2.641   2.474  0.3308  0.3417 -0.2976
  152MOL0     C19988   3.721   2.595   2.472 -0.4803 -0.3853 -0.1507
  152MOL0     C19989   3.625   2.660   2.385  0.7450  0.0766 -0.8288
  152MOL0     O19990   3.493   2.640   2.405  0.4321 -0.2121 -0.7776
  152MOL0     C19991   3.428   2.555   2.493  0.1084  0.4062 -0.6982
  152MOL0     C19992   3.285   2.541   2.448  0.1815  0.5717 -0.4124
  152MOL0     C19993   3.286   2.488   2.305 -0.9651 -0.6707  0.5895
  152MOL0     C19994   3.144   2.442   2.271  0.1314 -0.2586  0.8648
  152MOL0     C19995   3.037   2.540   2.251  0.1892  0.2223  0.1154
  152MOL0     C19996   2.958   2.631   2.217 -0.1232 -0.2530  0.0129
  152MOL0     C19997   3.664   2.748   2.286 -0.2270  0.1174 -0.8019
  152MOL0     C19998   3.800   2.776   2.275  1.1570 -0.9858 -0.0093
  152MOL0     H19999   4.214   2.977   2.568 -0.8883  0.5866 -0.1422
  152MOL0     H20000   4.464   3.027   2.537  1.0995 -0.7285 -1.3863
  152MOL0     H20001   4.756   2.768   2.343  3.1260  1.6321  0.3518
  152MOL0     H20002   4.702   2.663   2.478 -0.3219 -1.2035 -3.4253
  152MOL0     H20003   4.845   2.804   2.636 -1.3386  1.0253 -0.1251
  152MOL0     H20004   4.904   2.904   2.504  0.1977  0.7383  0.5477
  152MOL0     H20005   5.031   2.739   2.407 -1.2051  0.2392 -1.1387
  152MOL0     H20006   4.936   2.609   2.479 -2.0327  0.2148  4.6028
  152MOL0     H20007   5.138   2.792   2.632  0.1088 -0.3282  0.3242
  152MOL0     H20008   5.043   2.672   2.713  1.2558 -0.9302  0.0245
  152MOL0     H20009   5.264   2.641   2.487  0.1475 -0.1398 -0.1687
  152MOL0     H20010   5.145   2.509   2.532 -2.1657  0.8619  2.3909
  152MOL0     H20011   5.241   2.471   2.745 -1.5053  1.5055 -0.1952
  152MOL0     H20012   5.312   2.629   2.744 -0.5633 -0.0296  0.1980
  152MOL0     H20013   5.400   2.405   2.573  1.6539 -0.4952 -0.3759
  152MOL0     H20014   5.469   2.570   2.579 -1.8322  0.8754  0.2340
  152MOL0     H20015   5.543   2.501   2.834  1.7456 -0.3450 -0.3681
  152MOL0     H20016   5.621   2.430   2.708  0.7970  0.3541  0.5006
  152MOL0     H20017   5.350   2.350   2.964  2.2610  3.4815  0.0583
  152MOL0     H20018   5.278   2.133   3.111 -0.1406  1.0822 -1.1949
  152MOL0     H20019   5.391   2.007   3.090  0.6357  3.1979  2.7707
  152MOL0     H20020   5.176   1.895   3.015 -0.5058 -0.1361  1.8651
  152MOL0     H20021   5.200   1.983   2.865 -0.0510 -0.1427  0.5166
  152MOL0     H20022   5.052   2.129   3.075 -0.3733  2.7348 -1.8152
  152MOL0     H20023   5.086   2.161   2.903 -1.4344  1.0296  1.0363
  152MOL0     H20024   4.950   1.944   2.864 -2.5025  1.3347 -0.8067
  152MOL0     H20025   4.867   2.086   2.933  0.1095  0.1082 -3.9467
  152MOL0     H20026   4.870   1.791   3.271 -0.3302 -1.7031  1.1999
  152MOL0     H20027   4.674   1.644   3.310 -2.4863 -0.6046 -0.4290
  152MOL0     H20028   4.207   1.682   3.302 -0.9743  1.3758 -0.6287
  152MOL0     H20029   3.957   1.633   3.314 -0.2695  2.1854 -0.3537
  152MOL0     H20030   3.705   1.714   3.132 -2.0693 -1.6840 -1.9990
  152MOL0     H20031   3.748   1.632   3.289 -2.6525 -0.9682  1.1390
  152MOL0     H20032   3.523   1.605   3.259  2.8567  1.7789  0.9666
  152MOL0     H20033   3.607   1.454   3.254  1.1805  0.0586  1.2972
  152MOL0     H20034   3.574   1.448   3.008  1.9953  1.4083 -0.1932
  152MOL0     H20035   3.515   1.614   2.998  1.7012  1.0832 -0.6902
  152MOL0     H20036   3.383   1.385   3.150  0.2051  1.4164  2.3681
  152MOL0     H20037   3.309   1.549   3.132 -3.3531 -2.2226 -1.8063
  152MOL0     H20038   3.362   1.376   2.890  1.3745 -0.4654  1.7380
  152MOL0     H20039   3.320   1.550   2.893 -0.0535 -1.2766 -2.1467
  152MOL0     H20040   3.105   1.477   3.008  1.0422 -0.7921  3.6885
  152MOL0     H20041   3.159   1.309   3.009  2.9839 -0.0307 -0.1664
  152MOL0     H20042   3.127   1.467   2.751  0.7850 -0.3794 -0.6579
  152MOL0     H20043   3.149   1.287   2.761 -2.4824 -3.1139  1.8924
  152MOL0     H20044   2.907   1.426   2.877 -1.1340  1.3312 -1.3953
  152MOL0     H20045   2.927   1.254   2.827 -2.2077  1.6821  2.4735
  152MOL0     H20046   3.970   1.468   2.920  2.9964 -1.4195  0.3295
  152MOL0     H20047   4.193   1.542   2.896 -0.7527  0.3294 -0.7431
  152MOL0     H20048   4.523   1.741   2.919  0.2663 -3.1193  0.1693
  152MOL0     H20049   4.721   1.908   2.885  3.2646 -0.4957  1.2085
  152MOL0     H20050   4.521   2.646   2.364  2.2530  1.7838 -0.7373
  152MOL0     H20051   4.280   2.602   2.375 -3.6130  0.0810  3.0955
  152MOL0     H20052   3.924   2.601   2.543  2.3698 -0.9070 -2.9503
  152MOL0     H20053   3.686   2.522   2.544  0.6258 -1.1762 -0.3987
  152MOL0     H20054   3.431   2.608   2.588  4.0820 -0.9664  0.1408
  152MOL0     H20055   3.476   2.457   2.498 -1.4928 -0.4699 -1.6097
  152MOL0     H20056   3.235   2.476   2.520 -1.2668  4.0385  1.9671
  152MOL0     H20057   3.230   2.635   2.453  1.0756  1.1425 -1.0140
  152MOL0     H20058   3.357   2.412   2.271 -1.4438  0.2159 -2.8705
  152MOL0     H20059   3.319   2.563   2.231 -1.9836 -2.3349 -1.6903
  152MOL0     H20060   3.148   2.392   2.174 -0.1705 -1.3993  1.4211
  152MOL0     H20061   3.114   2.359   2.336 -1.2283 -2.4179 -2.3103
  152MOL0     H20062   2.881   2.703   2.197  1.0895  1.6498  1.7802
  152MOL0     H20063   3.585   2.786   2.221  0.2987  0.2836 -1.3515
  152MOL0     H20064   3.829   2.828   2.185 -0.4195  1.2515  0.6789
  153MOL0     O20065   0.249   8.361  10.333  0.8014 -0.2820  0.7156
  153MOL0     C20066   0.214   8.431  10.233 -0.9647  1.0009 -0.0971
  153MOL0     O20067   0.102   8.505  10.222 -0.0544  0.0846  0.2203
  153MOL0     C20068   0.005   8.493  10.318 -0.2558 -0.3642  0.0844
  153MOL0     C20069  -0.030   8.609  10.389  0.4352 -0.1822  0.3426
  153MOL0     C20070  -0.115   8.594  10.498  0.0830  0.1619  0.5987
  153MOL0     C20071  -0.171   8.475  10.539  0.4815  0.3047  0.0453
  153MOL0     O20072  -0.282   8.490  10.620 -0.0650 -0.6349 -0.0912
  153MOL0     C20073  -0.371   8.385  10.647 -0.2270  1.1838 -0.4504
  153MOL0     C20074  -0.456   8.427  10.772  0.1877 -0.4983  0.1709
  153MOL0     C20075  -0.565   8.525  10.725 -0.2233  0.3621  0.2837
  153MOL0     C20076  -0.665   8.557  10.849  0.3902 -0.2818  0.0798
  153MOL0     C20077  -0.781   8.456  10.886 -0.1261  0.0017 -0.7452
  153MOL0     C20078  -0.869   8.440  10.765 -0.5699 -0.0077 -0.1583
  153MOL0     C20079  -0.997   8.368  10.800  0.3238 -0.0138 -0.0994
  153MOL0     C20080  -1.094   8.372  10.687  0.3270  0.4326  0.2177
  153MOL0     N20081  -1.218   8.330  10.749 -0.1325 -0.2581  0.1633
  153MOL0     C20082  -1.309   8.411  10.820 -0.5958  0.3377 -0.4981
  153MOL0     C20083  -1.425   8.330  10.806 -0.8247 -0.5025 -0.1210
  153MOL0     C20084  -1.568   8.351  10.840  0.1734 -0.1066 -0.4249
  153MOL0     C20085  -1.645   8.410  10.721  0.4979  1.1010  0.2634
  153MOL0     C20086  -1.791   8.413  10.752  0.9297 -0.7540  0.0216
  153MOL0     C20087  -1.857   8.554  10.737  0.2899 -0.2034 -1.0649
  153MOL0     O20088  -1.871   8.572  10.596 -0.3104 -0.3257 -0.0666
  153MOL0     C20089  -2.000   8.552  10.546 -0.5133 -0.0878  0.2103
  153MOL0     C20090  -2.028   8.603  10.419 -0.0040  1.0895 -0.0012
  153MOL0     C20091  -2.156   8.589  10.366  0.2755 -0.3932  0.3221
  153MOL0     C20092  -2.259   8.513  10.429 -0.1423  0.7187 -0.0237
  153MOL0     C20093  -2.390   8.493  10.366 -0.6110 -0.4576 -0.0618
  153MOL0     O20094  -2.486   8.451  10.442 -1.1959 -0.4722 -0.3923
  153MOL0     C20095  -2.617   8.453  10.397  0.0784  0.3511  0.0026
  153MOL0     C20096  -2.700   8.346  10.454 -0.6826 -0.2628 -0.5974
  153MOL0     C20097  -2.837   8.335  10.425 -0.7752 -0.5129 -0.4609
  153MOL0     C20098  -2.899   8.438  10.350 -0.7425 -0.2896  0.1310
  153MOL0     O20099  -3.028   8.412  10.311 -0.4717 -0.3392  0.3997
  153MOL0     C20100  -3.120   8.521  10.335  0.7255 -0.3231  0.3623
  153MOL0     C20101  -3.192   8.503  10.467  0.0299  0.0220 -0.0777
  153MOL0     C20102  -3.282   8.381  10.456  0.3315 -0.8377 -0.3533
  153MOL0     C20103  -3.376   8.356  10.572 -0.2221 -0.0922  0.6595
  153MOL0     C20104  -3.457   8.227  10.553 -0.7036 -0.6029 -0.3801
  153MOL0     C20105  -3.560   8.238  10.440 -0.4460 -0.6069 -0.1977
  153MOL0     C20106  -3.680   8.331  10.474 -1.1712 -0.3985  0.4924
  153MOL0     C20107  -3.779   8.312  10.360  0.1771 -0.0090 -0.6335
  153MOL0    Cl20108  -3.721   8.386  10.213  0.0383  0.4328 -0.0430
  153MOL0     C20109  -2.822   8.536  10.294 -0.1189 -1.6511 -0.2464
  153MOL0     C20110  -2.686   8.547  10.323  0.4186  0.1158  0.2002
  153MOL0     O20111  -2.393   8.527  10.250  0.0014  0.0497 -0.4435
  153MOL0     C20112  -2.225   8.459  10.554  0.8325 -0.7635  0.4382
  153MOL0     C20113  -2.099   8.470  10.606 -0.4057 -0.3278 -0.0375
  153MOL0     N20114  -1.402   8.203  10.757  0.0130 -1.1802  0.1115
  153MOL0     N20115  -1.277   8.211  10.721  0.0076  0.7188 -0.0389
  153MOL0     C20116  -0.126   8.359  10.471 -0.4959  0.2145  0.4519
  153MOL0     C20117  -0.036   8.366  10.364 -0.2193 -0.3314  0.1584
  153MOL0     C20118   0.319   8.446  10.133  0.7077  0.2772  0.0802
  153MOL0     C20119   0.452   8.415  10.163 -0.0112 -0.0784 -0.1491
  153MOL0     C20120   0.548   8.409  10.067  0.1880  0.3595 -0.9250
  153MOL0     C20121   0.515   8.450   9.938 -0.1947 -0.5462  0.4853
  153MOL0     O20122   0.602   8.438   9.836  0.2525  0.5444  0.3918
  153MOL0     C20123   0.725   8.511   9.844  0.0664  0.0499 -0.9732
  153MOL0     C20124   0.786   8.507   9.703  0.6471 -0.0161 -0.3021
  153MOL0     C20125   0.828   8.370   9.646 -0.1438  0.4652  0.8868
  153MOL0     C20126   0.829   8.362   9.495 -0.5723  0.3010 -0.1612
  153MOL0     C20127   0.935   8.454   9.444 -0.6870 -0.5516  0.4613
  153MOL0     C20128   1.011   8.528   9.389  0.1998 -0.1051 -0.1119
  153MOL0     C20129   0.392   8.501   9.907  0.7137 -0.0581  0.2590
  153MOL0     C20130   0.288   8.498  10.003 -0.4199 -1.0436 -0.7517
  153MOL0     H20131   0.011   8.707  10.369  0.5705 -0.2098  0.4850
  153MOL0     H20132  -0.138   8.681  10.559  5.4986  2.4796 -0.0462
  153MOL0     H20133  -0.334   8.284  10.663 -1.9364  0.7895  1.3592
  153MOL0     H20134  -0.434   8.374  10.558 -0.3821 -2.8477 -0.0254
  153MOL0     H20135  -0.392   8.477  10.846 -1.0731  3.6782 -1.2690
  153MOL0     H20136  -0.500   8.335  10.813  3.6842 -1.9264  1.1501
  153MOL0     H20137  -0.609   8.474  10.639  1.7341  0.0822 -0.6121
  153MOL0     H20138  -0.518   8.621  10.700  0.5616 -0.6522 -2.4962
  153MOL0     H20139  -0.602   8.578  10.936 -0.4995 -0.1258  0.7071
  153MOL0     H20140  -0.721   8.650  10.829  0.7852 -0.1427 -0.3804
  153MOL0     H20141  -0.830   8.485  10.979  0.9651 -1.8191  0.4534
  153MOL0     H20142  -0.733   8.359  10.902  0.0070 -0.0376 -1.3365
  153MOL0     H20143  -0.824   8.374  10.691  0.7055  1.6268 -0.9117
  153MOL0     H20144  -0.893   8.541  10.730 -3.8103 -0.6486 -0.0291
  153MOL0     H20145  -0.972   8.266  10.829 -1.7236 -1.0578 -1.6916
  153MOL0     H20146  -1.041   8.423  10.884  0.2682 -3.1618  2.0949
  153MOL0     H20147  -1.062   8.307  10.605  0.1640 -0.5729  0.9358
  153MOL0     H20148  -1.109   8.474  10.649  0.3243 -0.9772 -4.0782
  153MOL0     H20149  -1.291   8.510  10.862 -0.5059 -0.3759  1.2166
  153MOL0     H20150  -1.585   8.429  10.915 -2.4472 -0.1694 -0.8747
  153MOL0     H20151  -1.619   8.260  10.874  2.1397 -0.8339  0.7371
  153MOL0     H20152  -1.622   8.350  10.633  2.5485 -0.4973  1.7947
  153MOL0     H20153  -1.605   8.505  10.684 -0.1918 -0.0672 -3.9539
  153MOL0     H20154  -1.845   8.343  10.687 -0.3867 -0.3809  0.6867
  153MOL0     H20155  -1.810   8.381  10.855  2.6969 -2.6254 -0.1694
  153MOL0     H20156  -1.795   8.621  10.796  0.2538 -2.8758  2.3081
  153MOL0     H20157  -1.955   8.568  10.783 -0.8797  0.3354 -3.5521
  153MOL0     H20158  -1.947   8.650  10.365  2.6080 -6.0845 -3.6270
  153MOL0     H20159  -2.178   8.634  10.270 -0.4508 -1.9373 -0.2620
  153MOL0     H20160  -2.655   8.272  10.519 -1.0451 -2.3448 -2.6081
  153MOL0     H20161  -2.893   8.251  10.463  0.4791 -1.7674 -1.2386
  153MOL0     H20162  -3.204   8.537  10.266  0.9860  0.5157  0.2331
  153MOL0     H20163  -3.064   8.614  10.337  1.2142 -0.5233 -1.9192
  153MOL0     H20164  -3.250   8.593  10.487 -0.4204 -0.5811  1.4854
  153MOL0     H20165  -3.121   8.498  10.550  1.4879  1.0060 -1.2293
  153MOL0     H20166  -3.230   8.285  10.447  0.9005 -0.6485  0.7242
  153MOL0     H20167  -3.339   8.387  10.363 -0.5354 -2.1790  0.0677
  153MOL0     H20168  -3.318   8.330  10.661 -0.8086 -2.0954  0.4963
  153MOL0     H20169  -3.431   8.446  10.605 -1.6502 -0.3890 -0.7976
  153MOL0     H20170  -3.509   8.201  10.646 -2.4835 -0.3277 -1.2534
  153MOL0     H20171  -3.391   8.144  10.525 -3.6842 -3.5242  0.5868
  153MOL0     H20172  -3.598   8.137  10.420  0.4019 -0.5019 -2.6714
  153MOL0     H20173  -3.502   8.275  10.355  0.5766 -2.0902 -0.1809
  153MOL0     H20174  -3.722   8.311  10.573  1.5236 -0.0282  1.8032
  153MOL0     H20175  -3.651   8.436  10.474  1.0279 -0.9227  2.3959
  153MOL0     H20176  -3.871   8.364  10.387 -0.6127 -0.7713 -1.8001
  153MOL0     H20177  -3.802   8.206  10.351 -0.4476 -0.2387  2.6251
  153MOL0     H20178  -2.872   8.608  10.230  1.2479 -1.6048 -1.3196
  153MOL0     H20179  -2.634   8.637  10.293 -0.6307  1.7483  2.9037
  153MOL0     H20180  -2.305   8.406  10.604 -1.0363  1.5022 -0.0216
  153MOL0     H20181  -2.066   8.436  10.704 -0.0247  2.6335  0.9460
  153MOL0     H20182  -0.167   8.261  10.494 -3.4685  1.1713 -0.3401
  153MOL0     H20183  -0.008   8.275  10.312 -1.6053  0.7142 -2.6750
  153MOL0     H20184   0.480   8.376  10.260 -0.7624  0.9093  0.4838
  153MOL0     H20185   0.637   8.354  10.096  0.5234  1.2802 -0.1211
  153MOL0     H20186   0.789   8.462   9.918  0.8741  2.0403 -0.2670
  153MOL0     H20187   0.711   8.615   9.877 -0.8319 -0.3605 -0.0136
  153MOL0     H20188   0.715   8.538   9.626  1.7423 -0.5413 -1.5624
  153MOL0     H20189   0.876   8.570   9.704 -0.4675  1.7445  2.6607
  153MOL0     H20190   0.753   8.295   9.669  0.6681 -2.0267 -3.4825
  153MOL0     H20191   0.918   8.342   9.701 -0.1272 -0.0429  0.6037
  153MOL0     H20192   0.849   8.259   9.462  0.3186  0.3013  0.3373
  153MOL0     H20193   0.729   8.388   9.459 -1.1255 -1.0455  0.3627
  153MOL0     H20194   1.078   8.594   9.337 -1.3776 -0.4970 -2.7845
  153MOL0     H20195   0.365   8.533   9.807 -1.1322 -0.2515  0.6610
  153MOL0     H20196   0.195   8.540   9.965  0.9678  0.4104 -2.7807
  154MOL0     O20197   7.120   1.880   6.113 -0.2284  0.2939 -0.7478
  154MOL0     C20198   7.075   1.864   6.233  0.6357  0.8632 -0.2017
  154MOL0     O20199   7.136   1.910   6.349  0.7114 -0.1350 -0.1519
  154MOL0     C20200   7.232   2.000   6.322  0.2945  1.1168  0.0770
  154MOL0     C20201   7.367   1.963   6.318 -0.3955  1.0565 -0.5216
  154MOL0     C20202   7.459   2.059   6.293  0.2412  0.1814  0.2819
  154MOL0     C20203   7.422   2.192   6.265  0.8182  0.2195 -0.1285
  154MOL0     O20204   7.514   2.288   6.258 -0.6268  0.2068 -0.4001
  154MOL0     C20205   7.637   2.257   6.186 -0.1865  0.3751  1.5276
  154MOL0     C20206   7.745   2.373   6.191 -0.3623 -0.4190 -0.5153
  154MOL0     C20207   7.807   2.400   6.333  0.8582 -0.4747  0.6042
  154MOL0     C20208   7.904   2.517   6.311  0.5856  0.1334  0.3123
  154MOL0     C20209   8.053   2.478   6.335 -0.0710 -0.4423 -0.0813
  154MOL0     C20210   8.104   2.399   6.222 -0.2468 -0.6848  0.4152
  154MOL0     C20211   8.255   2.362   6.240  1.1629  0.6609  0.0673
  154MOL0     C20212   8.337   2.478   6.187  0.4498  0.1245  0.5750
  154MOL0     N20213   8.475   2.449   6.162 -0.1508 -0.7725 -0.1944
  154MOL0     C20214   8.575   2.533   6.124  0.2228  0.2704 -0.3925
  154MOL0     C20215   8.682   2.449   6.107 -0.3331  0.0267 -0.4825
  154MOL0     C20216   8.822   2.496   6.109 -0.5255 -0.8348 -0.3168
  154MOL0     C20217   8.918   2.418   6.208 -1.0985  0.5209 -0.2302
  154MOL0     C20218   8.877   2.446   6.348 -0.1840 -0.0775 -0.5781
  154MOL0     C20219   8.745   2.402   6.406  0.9573  0.4485 -0.9777
  154MOL0     O20220   8.750   2.401   6.553  0.8092  0.8575  0.3222
  154MOL0     C20221   8.634   2.364   6.614 -0.1764  0.3260  1.4232
  154MOL0     C20222   8.644   2.264   6.711 -0.1612  0.5126  0.3226
  154MOL0     C20223   8.543   2.218   6.787  0.6050  0.4704 -0.0756
  154MOL0     C20224   8.414   2.259   6.758  0.1546 -0.3568  1.0097
  154MOL0     C20225   8.299   2.209   6.843 -0.2984  0.6272 -0.0455
  154MOL0     O20226   8.182   2.202   6.773 -0.1333 -0.6135 -0.0444
  154MOL0     C20227   8.079   2.191   6.856 -0.6694 -0.3208  0.2982
  154MOL0     C20228   8.041   2.296   6.937 -0.3577  0.1368 -1.1215
  154MOL0     C20229   7.907   2.302   6.992 -0.1494 -0.2617 -0.5134
  154MOL0     C20230   7.816   2.195   6.978 -0.6982  1.1812 -0.3925
  154MOL0     O20231   7.686   2.187   7.032  0.6918  0.0063  0.9636
  154MOL0     C20232   7.629   2.308   7.072 -1.0590 -0.3400  0.6729
  154MOL0     C20233   7.482   2.286   7.062  0.8850 -0.5325  0.1570
  154MOL0     C20234   7.433   2.311   6.921 -0.6464  0.1274 -0.0868
  154MOL0     C20235   7.290   2.272   6.906 -0.2877 -0.8706 -0.6555
  154MOL0     C20236   7.238   2.236   6.766  0.1399  0.0500 -0.4621
  154MOL0     C20237   7.093   2.238   6.769 -0.3611  0.0766  0.0080
  154MOL0     C20238   7.048   2.184   6.635 -0.5958 -0.7300 -0.2307
  154MOL0     C20239   6.900   2.193   6.636  0.5687 -0.1426 -0.6178
  154MOL0    Cl20240   6.834   2.059   6.746 -0.1647  0.3687  0.3462
  154MOL0     C20241   7.865   2.078   6.909 -0.0674 -0.0024  0.5294
  154MOL0     C20242   7.991   2.080   6.849  0.6765  0.2891 -0.0267
  154MOL0     O20243   8.318   2.169   6.960  0.0272 -1.3137 -0.6129
  154MOL0     C20244   8.395   2.348   6.649 -1.0251  0.4021 -0.7536
  154MOL0     C20245   8.505   2.401   6.580 -0.2300 -0.6934 -0.6546
  154MOL0     N20246   8.644   2.324   6.116 -0.8442 -0.0224 -1.0195
  154MOL0     N20247   8.519   2.321   6.140  0.2097 -0.9093 -0.3594
  154MOL0     C20248   7.288   2.221   6.267  0.1242 -0.0567 -0.0221
  154MOL0     C20249   7.194   2.130   6.306 -0.2191  0.4195  0.3669
  154MOL0     C20250   6.944   1.801   6.258  0.0285  0.7637  0.1073
  154MOL0     C20251   6.896   1.774   6.386 -0.2237  0.4743  0.4799
  154MOL0     C20252   6.776   1.702   6.406 -0.4513 -0.6338  0.5304
  154MOL0     C20253   6.705   1.659   6.290  0.4526 -0.4021 -0.4874
  154MOL0     O20254   6.593   1.587   6.316  0.5470  0.1204 -0.2249
  154MOL0     C20255   6.474   1.597   6.234  0.5859  0.4303  0.3121
  154MOL0     C20256   6.361   1.510   6.282  0.2786 -0.4382 -0.4343
  154MOL0     C20257   6.337   1.530   6.434 -0.2189 -0.8541  0.3411
  154MOL0     C20258   6.273   1.670   6.474 -0.8019 -0.1590  0.3461
  154MOL0     C20259   6.373   1.773   6.488 -0.3341  0.7879 -0.0045
  154MOL0     C20260   6.468   1.840   6.504 -1.1075 -0.1854  0.2323
  154MOL0     C20261   6.753   1.692   6.159 -0.1435 -0.0386  0.0111
  154MOL0     C20262   6.865   1.773   6.153 -0.2751 -0.3261  0.5923
  154MOL0     H20263   7.390   1.860   6.341 -2.2728  0.8422  0.6801
  154MOL0     H20264   7.561   2.022   6.297  0.0436 -0.7083 -1.7635
  154MOL0     H20265   7.608   2.243   6.081  2.0476  0.5854  0.8291
  154MOL0     H20266   7.691   2.166   6.216 -0.1556 -0.5523 -1.0685
  154MOL0     H20267   7.695   2.461   6.150  2.2469  1.6132  0.3566
  154MOL0     H20268   7.834   2.350   6.131 -0.2268  1.1013 -0.9322
  154MOL0     H20269   7.860   2.307   6.354 -0.5935 -1.3347  0.5694
  154MOL0     H20270   7.738   2.407   6.417  0.3509 -0.9935  0.2418
  154MOL0     H20271   7.899   2.550   6.207  1.5631 -0.7451 -0.0314
  154MOL0     H20272   7.887   2.596   6.384  0.9943 -1.5545  2.3377
  154MOL0     H20273   8.056   2.422   6.429  0.0552 -1.2182 -0.5389
  154MOL0     H20274   8.107   2.573   6.343  1.9939 -1.4508 -1.2242
  154MOL0     H20275   8.101   2.454   6.128 -0.3609 -1.0228  0.2180
  154MOL0     H20276   8.050   2.305   6.208  2.7866 -2.3570 -1.1525
  154MOL0     H20277   8.289   2.324   6.337 -0.2426 -0.5960  0.1164
  154MOL0     H20278   8.262   2.266   6.187  3.7896  0.2324  1.0193
  154MOL0     H20279   8.334   2.559   6.261  0.5855  0.2498  0.4437
  154MOL0     H20280   8.292   2.517   6.096 -1.8155  0.5065  1.7718
  154MOL0     H20281   8.560   2.640   6.121  0.8182  0.3559 -0.3115
  154MOL0     H20282   8.825   2.603   6.131 -3.3473 -0.5188 -1.1525
  154MOL0     H20283   8.870   2.485   6.012 -2.3554 -1.7884 -1.1572
  154MOL0     H20284   9.023   2.444   6.190 -1.2746  0.7352 -0.9994
  154MOL0     H20285   8.913   2.309   6.196  0.8142  0.2314  1.1550
  154MOL0     H20286   8.956   2.395   6.405 -0.4352 -4.0631 -3.3391
  154MOL0     H20287   8.896   2.550   6.376  1.2476  0.0759 -1.9984
  154MOL0     H20288   8.730   2.298   6.374  2.2109 -0.2162  0.4703
  154MOL0     H20289   8.666   2.467   6.368 -0.1151  0.4882  1.2140
  154MOL0     H20290   8.745   2.228   6.723 -0.9768 -1.8408  0.6250
  154MOL0     H20291   8.568   2.151   6.868 -0.0781  3.4067  2.7623
  154MOL0     H20292   8.100   2.386   6.921 -0.5828  0.0284 -2.8466
  154MOL0     H20293   7.888   2.395   7.046 -0.5616  0.0654 -1.2135
  154MOL0     H20294   7.657   2.393   7.008  0.4071 -1.8019 -0.7115
  154MOL0     H20295   7.650   2.334   7.176  1.3855  1.9476 -0.2809
  154MOL0     H20296   7.427   2.348   7.134  2.2060 -0.0769  0.8146
  154MOL0     H20297   7.458   2.184   7.094 -2.6209  0.4159  1.0895
  154MOL0     H20298   7.491   2.246   6.855  0.8774  1.7842 -0.4483
  154MOL0     H20299   7.454   2.414   6.891  3.2144 -0.1905  1.0795
  154MOL0     H20300   7.265   2.197   6.981 -0.7023  2.8803  3.3434
  154MOL0     H20301   7.231   2.360   6.934 -2.5979 -2.0025 -1.6748
  154MOL0     H20302   7.262   2.135   6.733 -2.3632 -0.3652 -1.2226
  154MOL0     H20303   7.277   2.305   6.690  0.5720 -0.7698 -1.0081
  154MOL0     H20304   7.061   2.342   6.782  0.1735  0.4467 -1.4672
  154MOL0     H20305   7.049   2.179   6.849  2.5174 -0.5363  1.2737
  154MOL0     H20306   7.084   2.251   6.557  0.6006 -0.5955  0.4082
  154MOL0     H20307   7.077   2.079   6.622  0.3692 -0.7614  1.8173
  154MOL0     H20308   6.863   2.171   6.535  0.4870  3.8181 -1.6025
  154MOL0     H20309   6.865   2.294   6.660  3.1545  1.0748 -1.6264
  154MOL0     H20310   7.801   1.990   6.913  4.6465 -3.8048  0.5633
  154MOL0     H20311   8.015   1.990   6.793 -0.9975 -0.6202  0.6499
  154MOL0     H20312   8.293   2.382   6.630 -1.6289 -2.2670 -2.9447
  154MOL0     H20313   8.485   2.484   6.513  0.0938 -0.3147 -0.2882
  154MOL0     H20314   7.259   2.323   6.245 -1.4482 -0.0490  1.8120
  154MOL0     H20315   7.087   2.147   6.309 -0.5830 -1.7405  1.5815
  154MOL0     H20316   6.940   1.804   6.480 -1.3934  0.6314  0.9882
  154MOL0     H20317   6.742   1.668   6.503 -3.6182 -1.1772 -0.6274
  154MOL0     H20318   6.495   1.566   6.131  2.5063  1.9750  0.1783
  154MOL0     H20319   6.441   1.701   6.238 -1.6258  0.0620 -3.4416
  154MOL0     H20320   6.268   1.533   6.230  1.4984  1.8398 -1.7579
  154MOL0     H20321   6.394   1.409   6.254 -1.7127 -1.3798  0.4206
  154MOL0     H20322   6.427   1.522   6.496 -0.7820  1.1563  1.5112
  154MOL0     H20323   6.258   1.458   6.456 -1.9724  1.0758  0.5870
  154MOL0     H20324   6.189   1.700   6.410 -0.4943  2.6881  1.1257
  154MOL0     H20325   6.222   1.658   6.570 -2.3617 -3.1007 -0.7174
  154MOL0     H20326   6.559   1.896   6.507 -0.8220 -0.6687  0.8288
  154MOL0     H20327   6.692   1.661   6.075 -0.7382 -1.8996  1.0763
  154MOL0     H20328   6.905   1.790   6.053  1.5131 -0.2890  1.2639
  155MOL0     O20329   4.704   4.374   9.164  0.0634 -1.2428 -0.2219
  155MOL0     C20330   4.723   4.422   9.051  0.0296 -0.3980  0.4545
  155MOL0     O20331   4.650   4.391   8.943  0.0201 -0.0677 -0.1434
  155MOL0     C20332   4.551   4.286   8.931  0.4563 -0.1699  0.5156
  155MOL0     C20333   4.441   4.299   8.847 -0.1479 -0.3915 -0.4073
  155MOL0     C20334   4.344   4.204   8.834 -0.0785  0.1506 -0.4484
  155MOL0     C20335   4.345   4.089   8.915  0.7055  0.3424 -0.1232
  155MOL0     O20336   4.258   3.987   8.903 -0.1543  0.1281 -0.5628
  155MOL0     C20337   4.152   4.005   8.814  0.0352 -0.0403 -0.4748
  155MOL0     C20338   4.043   3.911   8.847 -0.3744 -1.0025  0.0534
  155MOL0     C20339   3.932   3.891   8.746  0.3701 -0.1572 -0.8706
  155MOL0     C20340   3.833   4.012   8.741 -0.9990  0.8544 -0.1657
  155MOL0     C20341   3.760   4.003   8.609 -0.3630 -0.4341  0.1556
  155MOL0     C20342   3.640   3.899   8.610 -0.2115  0.2998 -0.3639
  155MOL0     C20343   3.570   3.888   8.478 -0.8349  0.3618  0.4422
  155MOL0     C20344   3.535   4.013   8.394 -0.8770 -0.6869 -0.1095
  155MOL0     N20345   3.449   4.102   8.473  0.4371  0.1647 -0.1821
  155MOL0     C20346   3.319   4.088   8.512 -0.5292 -0.0869  0.0909
  155MOL0     C20347   3.286   4.198   8.575 -0.2532  0.2553 -1.0326
  155MOL0     C20348   3.160   4.209   8.651 -0.2512 -0.7255  0.9628
  155MOL0     C20349   3.080   4.330   8.615  0.0128 -0.1333  0.0281
  155MOL0     C20350   3.150   4.472   8.627  0.2872  0.0669 -0.7439
  155MOL0     C20351   3.207   4.498   8.767 -0.5127  0.0375  0.0100
  155MOL0     O20352   3.107   4.504   8.872 -0.3952 -0.3793  0.0828
  155MOL0     C20353   3.140   4.460   9.000  0.1771  0.6439 -0.2688
  155MOL0     C20354   3.255   4.389   9.027 -0.9457 -0.6951  0.3993
  155MOL0     C20355   3.292   4.334   9.142 -0.1795  0.6591 -0.3483
  155MOL0     C20356   3.204   4.344   9.254 -0.5931  0.1722 -0.4236
  155MOL0     C20357   3.220   4.261   9.373  0.0347 -0.1110  0.9404
  155MOL0     O20358   3.337   4.192   9.392  0.2278 -0.0178 -0.0422
  155MOL0     C20359   3.342   4.123   9.512  0.3399 -0.3249  0.0966
  155MOL0     C20360   3.295   3.995   9.530  0.1842  0.0790  0.0222
  155MOL0     C20361   3.286   3.931   9.655  0.1573  0.0341  0.1071
  155MOL0     C20362   3.334   3.994   9.771  0.8241  0.5922  0.4263
  155MOL0     O20363   3.324   3.938   9.893 -1.0340  0.4298 -0.3153
  155MOL0     C20364   3.197   3.921   9.954 -0.5410 -0.0746  0.2100
  155MOL0     C20365   3.167   4.058  10.015  0.4016  0.1711 -0.0935
  155MOL0     C20366   3.033   4.067  10.087  1.2660  0.1921 -0.4393
  155MOL0     C20367   2.916   4.082   9.983  0.5521  0.4981  0.2596
  155MOL0     C20368   2.778   4.106  10.044 -0.0421  0.5152 -0.1796
  155MOL0     C20369   2.721   3.972  10.106 -0.3001 -0.5205  0.4368
  155MOL0     C20370   2.569   3.961  10.076 -0.2051 -0.6423  0.5211
  155MOL0     C20371   2.495   3.835  10.119 -0.4927  0.2107 -0.1729
  155MOL0    Cl20372   2.330   3.823  10.075  0.0951 -0.0179 -0.3414
  155MOL0     C20373   3.377   4.121   9.754 -0.1136 -0.4381  0.4567
  155MOL0     C20374   3.378   4.181   9.632 -0.3145  0.4954 -0.0012
  155MOL0     O20375   3.117   4.241   9.440  0.5891 -0.8530 -0.3695
  155MOL0     C20376   3.080   4.412   9.228  0.0793  0.1565 -0.8549
  155MOL0     C20377   3.052   4.470   9.105  0.5876  0.4550 -0.8476
  155MOL0     N20378   3.397   4.282   8.585  0.7679 -0.9154  0.6354
  155MOL0     N20379   3.487   4.220   8.516  0.0885  0.0331  0.7389
  155MOL0     C20380   4.458   4.067   8.993 -0.8716 -0.1169 -0.7176
  155MOL0     C20381   4.553   4.171   9.009  1.0854  1.5423 -0.4571
  155MOL0     C20382   4.837   4.514   9.024  0.2752  0.0800 -0.0156
  155MOL0     C20383   4.843   4.587   8.899 -0.0721  0.3001 -0.7062
  155MOL0     C20384   4.928   4.690   8.879 -0.9123  0.1306 -0.0021
  155MOL0     C20385   5.020   4.729   8.981 -0.5821  0.2679  0.2336
  155MOL0     O20386   5.107   4.834   8.977 -0.0845 -0.0002 -0.2520
  155MOL0     C20387   5.143   4.890   8.848 -0.2614 -0.4491  0.5239
  155MOL0     C20388   5.258   4.994   8.860  0.6218  0.0455  0.8666
  155MOL0     C20389   5.383   4.923   8.899 -0.7793 -0.2169 -0.3098
  155MOL0     C20390   5.504   5.018   8.896 -0.8312  0.3510  0.3535
  155MOL0     C20391   5.618   4.954   8.958 -0.3085  0.4034 -0.1492
  155MOL0     C20392   5.719   4.905   9.001 -0.4949 -0.1242 -0.6148
  155MOL0     C20393   5.006   4.662   9.098  0.3561  1.1153 -0.0210
  155MOL0     C20394   4.924   4.554   9.125 -0.2932 -0.1175  0.0191
  155MOL0     H20395   4.437   4.396   8.798  0.2582 -0.2791 -0.2179
  155MOL0     H20396   4.265   4.217   8.761 -2.3616 -0.3158  1.7790
  155MOL0     H20397   4.185   3.996   8.710 -1.1563  1.5591 -1.0306
  155MOL0     H20398   4.109   4.105   8.827  2.4827  0.7869  2.4195
  155MOL0     H20399   4.008   3.945   8.945  0.1057  1.4015 -0.5419
  155MOL0     H20400   4.089   3.814   8.864  0.7578 -0.8032 -1.6247
  155MOL0     H20401   3.871   3.807   8.781 -1.4593  1.9301  1.3004
  155MOL0     H20402   3.981   3.877   8.649 -1.3336 -1.1069 -1.6340
  155MOL0     H20403   3.763   3.999   8.825 -0.8288 -2.3046 -0.3762
  155MOL0     H20404   3.899   4.097   8.759  1.7765 -1.4843  1.4915
  155MOL0     H20405   3.829   3.981   8.527  0.6526  1.5527  0.4073
  155MOL0     H20406   3.725   4.104   8.585  0.7237 -0.0106  0.2888
  155MOL0     H20407   3.564   3.925   8.685  1.3051  0.0339  1.3284
  155MOL0     H20408   3.680   3.804   8.645 -0.6617  0.4545  0.6259
  155MOL0     H20409   3.627   3.815   8.420 -1.9279 -0.8689  0.8478
  155MOL0     H20410   3.473   3.837   8.485 -1.7792  1.5844 -2.3673
  155MOL0     H20411   3.497   3.997   8.293  0.4045  1.5538 -0.9971
  155MOL0     H20412   3.627   4.069   8.377 -2.1029  2.0130  1.5756
  155MOL0     H20413   3.248   4.008   8.490 -0.2524  0.0469 -1.3585
  155MOL0     H20414   3.165   4.205   8.760 -1.8732 -2.8414  1.0290
  155MOL0     H20415   3.103   4.123   8.615 -0.7270  0.4271 -1.1960
  155MOL0     H20416   2.989   4.329   8.675 -0.1132  1.4639 -0.0982
  155MOL0     H20417   3.052   4.316   8.510 -2.5803  0.4488  0.5602
  155MOL0     H20418   3.222   4.488   8.547  0.7996  0.4666 -0.2203
  155MOL0     H20419   3.078   4.548   8.595  0.9209 -0.4272 -3.5948
  155MOL0     H20420   3.268   4.588   8.756 -0.6548  0.5149  2.5932
  155MOL0     H20421   3.287   4.424   8.775  0.4899  0.7385 -2.5347
  155MOL0     H20422   3.333   4.367   8.954  0.3497  1.2810  1.1283
  155MOL0     H20423   3.379   4.270   9.129  0.3305  1.1793  0.4080
  155MOL0     H20424   3.271   3.930   9.446  2.0111  1.3194 -1.5453
  155MOL0     H20425   3.253   3.828   9.664 -2.6057  0.5015 -2.7538
  155MOL0     H20426   3.198   3.841  10.029  0.3258  0.0266  0.3052
  155MOL0     H20427   3.120   3.919   9.875  1.2018  3.6623 -1.8250
  155MOL0     H20428   3.180   4.137   9.940  2.0019 -0.0019 -0.0250
  155MOL0     H20429   3.240   4.082  10.093  0.6510  2.3136 -0.9090
  155MOL0     H20430   3.018   4.160  10.144 -0.1905 -0.0873 -0.3273
  155MOL0     H20431   3.028   3.976  10.147 -0.3632 -1.9186 -3.5507
  155MOL0     H20432   2.921   4.176   9.927 -2.9069  0.2630 -0.6655
  155MOL0     H20433   2.928   4.007   9.904 -0.5044  3.0880 -2.5397
  155MOL0     H20434   2.714   4.146   9.964  0.9088 -0.8707 -1.6845
  155MOL0     H20435   2.794   4.179  10.124 -3.0741 -1.3342  2.3667
  155MOL0     H20436   2.732   3.962  10.215  2.2188  1.3128  0.4376
  155MOL0     H20437   2.771   3.898  10.044 -0.4872  1.0617 -1.6996
  155MOL0     H20438   2.523   4.048  10.124  0.2271 -0.7766  1.1862
  155MOL0     H20439   2.555   3.971   9.968 -0.0190 -2.9609  0.2383
  155MOL0     H20440   2.501   3.807  10.224 -0.9550 -0.0426 -0.2147
  155MOL0     H20441   2.539   3.745  10.075 -1.6261 -1.2779  1.6254
  155MOL0     H20442   3.400   4.166   9.850  2.0561 -3.4911  1.4967
  155MOL0     H20443   3.420   4.281   9.635  0.1571  0.2794  1.4018
  155MOL0     H20444   3.005   4.423   9.305  0.0827  0.2581 -0.8656
  155MOL0     H20445   2.950   4.505   9.093 -0.6422 -2.8718 -1.1326
  155MOL0     H20446   4.472   3.980   9.057  0.4930 -0.3979 -1.3693
  155MOL0     H20447   4.627   4.152   9.086 -0.5152  0.5276  0.9017
  155MOL0     H20448   4.768   4.558   8.826 -0.1518  1.6205 -1.1650
  155MOL0     H20449   4.939   4.733   8.780 -3.3406 -0.7504 -0.7238
  155MOL0     H20450   5.053   4.935   8.805 -0.1256 -2.5194 -2.2584
  155MOL0     H20451   5.170   4.802   8.788 -1.4223 -0.7018  0.3491
  155MOL0     H20452   5.256   5.045   8.764  2.3215  1.5286  1.5615
  155MOL0     H20453   5.238   5.063   8.942  0.7696 -1.2959  2.0816
  155MOL0     H20454   5.406   4.843   8.828 -1.1684  0.7038 -1.5225
  155MOL0     H20455   5.371   4.882   8.999 -1.5378 -0.1932 -0.3829
  155MOL0     H20456   5.528   5.047   8.793 -0.5156 -0.6824  0.1200
  155MOL0     H20457   5.465   5.107   8.946 -3.3823  0.5069 -1.6797
  155MOL0     H20458   5.798   4.843   9.038 -1.2089 -0.0759  1.0889
  155MOL0     H20459   5.076   4.692   9.175  0.2907 -3.8548  2.3983
  155MOL0     H20460   4.906   4.507   9.221 -0.6928  1.3352  0.6770
  156MOL0     O20461   8.817   2.803   5.509 -0.3711 -0.4285  0.2019
  156MOL0     C20462   8.863   2.791   5.391 -0.0415 -0.4233 -0.7600
  156MOL0     O20463   8.797   2.741   5.296  0.4249  0.0446 -0.3852
  156MOL0     C20464   8.655   2.756   5.282  0.5113  0.5280 -0.3701
  156MOL0     C20465   8.586   2.864   5.339 -0.1757 -0.6969 -0.4231
  156MOL0     C20466   8.445   2.868   5.316 -1.6290 -0.7055  0.2061
  156MOL0     C20467   8.383   2.770   5.244 -0.1187  0.6411  0.1678
  156MOL0     O20468   8.248   2.767   5.214  0.1315  0.3130  0.0208
  156MOL0     C20469   8.150   2.794   5.313  0.2461 -0.4691 -0.1779
  156MOL0     C20470   8.009   2.799   5.248 -0.4272 -0.0277 -0.2295
  156MOL0     C20471   7.997   2.919   5.162  0.0552  0.0355  0.2135
  156MOL0     C20472   7.856   2.927   5.105  0.6525  0.0627 -0.5956
  156MOL0     C20473   7.856   3.031   4.991  0.1726  0.2375 -0.4258
  156MOL0     C20474   7.729   3.022   4.903 -0.2055 -0.0933  0.5238
  156MOL0     C20475   7.732   2.901   4.808  0.0560  0.4772  0.2792
  156MOL0     C20476   7.652   2.935   4.677 -0.3119 -0.5201 -0.0232
  156MOL0     N20477   7.508   2.911   4.709  0.1007  0.4094  0.2376
  156MOL0     C20478   7.423   2.846   4.625 -0.1518 -0.1108  0.2798
  156MOL0     C20479   7.298   2.858   4.676 -0.7250 -0.7936  0.6631
  156MOL0     C20480   7.188   2.776   4.632 -0.4531 -0.2632  0.3028
  156MOL0     C20481   7.080   2.762   4.746 -0.2917 -0.3684  0.2424
  156MOL0     C20482   6.961   2.709   4.674 -0.0998  0.7217  0.3236
  156MOL0     C20483   6.852   2.683   4.778 -0.0428 -0.3001  0.2428
  156MOL0     O20484   6.744   2.623   4.706  0.4217  0.9341 -0.5300
  156MOL0     C20485   6.632   2.589   4.788  0.3826 -0.5687 -0.3869
  156MOL0     C20486   6.542   2.506   4.727  1.1477 -0.0674  0.2911
  156MOL0     C20487   6.442   2.444   4.802  1.0968 -0.5575  0.0098
  156MOL0     C20488   6.438   2.461   4.949 -0.0717  0.8585  0.4962
  156MOL0     C20489   6.343   2.386   5.034  0.4090 -0.0308  1.0183
  156MOL0     O20490   6.251   2.308   4.971 -0.0844 -0.3176 -0.5791
  156MOL0     C20491   6.139   2.255   5.030  0.4598  0.4335 -1.4091
  156MOL0     C20492   6.088   2.303   5.154  0.2207  0.7759 -0.0197
  156MOL0     C20493   5.988   2.245   5.215  1.1374  0.9170  0.6252
  156MOL0     C20494   5.922   2.143   5.148 -0.2662  0.3432 -0.2730
  156MOL0     O20495   5.808   2.094   5.198 -0.3132 -0.6988 -0.0016
  156MOL0     C20496   5.823   2.005   5.302 -0.0385 -0.4265 -0.2135
  156MOL0     C20497   5.703   2.005   5.393 -0.6529 -0.2979  0.0549
  156MOL0     C20498   5.565   1.996   5.323 -0.3666 -0.4681 -0.5284
  156MOL0     C20499   5.437   1.996   5.420  0.9874 -0.3773 -0.8549
  156MOL0     C20500   5.302   1.991   5.349 -0.5964  1.5144 -0.3367
  156MOL0     C20501   5.271   2.127   5.273  0.5794 -0.0396 -0.4250
  156MOL0     C20502   5.129   2.130   5.227  0.6849  0.8970 -0.1276
  156MOL0     C20503   5.094   2.245   5.127  0.7648 -0.1030  1.1724
  156MOL0    Cl20504   5.108   2.396   5.219  0.0522 -0.7126  0.3957
  156MOL0     C20505   5.960   2.107   5.024  0.1142 -0.3564  1.1789
  156MOL0     C20506   6.076   2.157   4.966 -0.0617  0.3507 -0.3060
  156MOL0     O20507   6.349   2.398   5.154 -0.3786  0.4434 -0.5162
  156MOL0     C20508   6.515   2.562   4.996 -0.1036  0.2304 -0.9251
  156MOL0     C20509   6.609   2.632   4.923 -0.3057  0.5156 -0.1641
  156MOL0     N20510   7.308   2.935   4.788  0.0032 -0.7404  0.4328
  156MOL0     N20511   7.429   2.969   4.810 -0.8201 -0.3683  0.1624
  156MOL0     C20512   8.457   2.674   5.177  1.7898  0.7562  0.0835
  156MOL0     C20513   8.589   2.652   5.212  1.2874  0.0331 -0.0738
  156MOL0     C20514   9.015   2.814   5.371  0.5042 -0.1137  0.4509
  156MOL0     C20515   9.094   2.848   5.479 -0.2359 -0.3179 -0.2728
  156MOL0     C20516   9.235   2.847   5.460  0.5968  0.2179  0.0211
  156MOL0     C20517   9.289   2.822   5.337  0.8556  0.2512  1.4204
  156MOL0     O20518   9.422   2.840   5.351  0.0464  0.0111  0.2327
  156MOL0     C20519   9.509   2.823   5.233  0.1761  0.8903 -0.2461
  156MOL0     C20520   9.654   2.862   5.260 -0.0637 -0.6235  0.0372
  156MOL0     C20521   9.732   2.857   5.126 -0.2938 -0.4009 -0.2518
  156MOL0     C20522   9.882   2.900   5.146  0.7242  0.5893 -0.1821
  156MOL0     C20523   9.886   3.028   5.210  0.1315 -0.5846 -0.4445
  156MOL0     C20524   9.883   3.137   5.262 -0.4158  0.9426  0.4003
  156MOL0     C20525   9.209   2.792   5.226  0.1641 -0.0533  0.1570
  156MOL0     C20526   9.071   2.779   5.248 -0.1817 -0.0647  0.4880
  156MOL0     H20527   8.643   2.940   5.392  0.3024 -0.6551 -0.9890
  156MOL0     H20528   8.382   2.945   5.358  0.2968 -0.0734  2.1115
  156MOL0     H20529   8.165   2.892   5.360 -1.6473  0.1033 -0.6809
  156MOL0     H20530   8.147   2.711   5.383 -0.4388 -2.6676 -2.6670
  156MOL0     H20531   7.927   2.795   5.321  1.1877 -0.2710  1.6571
  156MOL0     H20532   8.007   2.713   5.181  0.6112  1.2249 -1.9440
  156MOL0     H20533   8.062   2.907   5.075 -2.8019  0.0959 -2.1154
  156MOL0     H20534   8.021   3.013   5.213 -0.6382 -0.0784  0.7608
  156MOL0     H20535   7.838   2.825   5.071  0.6917  0.1435 -0.8662
  156MOL0     H20536   7.781   2.950   5.181  1.4643 -1.1524  0.6083
  156MOL0     H20537   7.943   3.014   4.927 -1.2001  2.0514 -2.9687
  156MOL0     H20538   7.873   3.131   5.031  1.9677  0.2332 -1.0794
  156MOL0     H20539   7.717   3.116   4.848 -2.6774 -0.9417 -0.5464
  156MOL0     H20540   7.642   3.011   4.969  0.2051 -0.2110  1.0522
  156MOL0     H20541   7.828   2.879   4.761 -1.5200 -0.2782 -2.8704
  156MOL0     H20542   7.701   2.809   4.858 -1.3551  1.2958  0.9813
  156MOL0     H20543   7.680   2.861   4.602  0.1905 -2.1026  1.6366
  156MOL0     H20544   7.662   3.038   4.642 -4.9001  0.4413  0.8126
  156MOL0     H20545   7.443   2.791   4.535 -3.3111 -2.4668  0.8261
  156MOL0     H20546   7.228   2.678   4.604 -1.5350 -0.8393  0.6800
  156MOL0     H20547   7.150   2.822   4.540 -0.6737  0.9187  0.9681
  156MOL0     H20548   7.059   2.860   4.790  0.0429  0.4880 -1.4152
  156MOL0     H20549   7.112   2.685   4.817 -0.0270 -0.8885 -0.4352
  156MOL0     H20550   6.933   2.775   4.592  2.9676  0.2521 -1.2338
  156MOL0     H20551   6.982   2.615   4.623  0.4711  2.3529 -2.6440
  156MOL0     H20552   6.823   2.780   4.820 -0.5621  0.3843 -1.6165
  156MOL0     H20553   6.888   2.612   4.852 -2.8498 -0.2993  1.7358
  156MOL0     H20554   6.533   2.497   4.619 -0.1392 -0.3364  0.4027
  156MOL0     H20555   6.364   2.386   4.753 -0.7086  1.2231  0.6389
  156MOL0     H20556   6.120   2.397   5.196  1.7003  1.7009 -2.9377
  156MOL0     H20557   5.955   2.297   5.305 -0.1513 -2.8642  2.5759
  156MOL0     H20558   5.916   2.024   5.358  0.3284  0.9869 -1.2419
  156MOL0     H20559   5.822   1.903   5.264 -2.1161 -0.2591 -0.7602
  156MOL0     H20560   5.712   2.099   5.448 -1.6508  0.8783 -1.7147
  156MOL0     H20561   5.713   1.925   5.467 -0.8318  0.5005  0.9567
  156MOL0     H20562   5.567   1.898   5.273 -2.2411 -2.1581  2.4170
  156MOL0     H20563   5.552   2.078   5.252 -2.7208 -1.2093 -1.0379
  156MOL0     H20564   5.433   1.908   5.485  0.7063 -2.0908 -3.0843
  156MOL0     H20565   5.441   2.086   5.482 -2.7432  0.4941 -1.6545
  156MOL0     H20566   5.216   1.968   5.413  0.8090  0.9464  1.4121
  156MOL0     H20567   5.301   1.903   5.284 -1.2611  0.5786  0.9132
  156MOL0     H20568   5.338   2.125   5.186 -0.7090  1.0453 -1.4909
  156MOL0     H20569   5.292   2.210   5.341  2.3908 -0.5703 -0.2888
  156MOL0     H20570   5.115   2.033   5.180 -0.5044 -0.2709  2.4606
  156MOL0     H20571   5.056   2.134   5.308  0.4084  0.8203 -0.3758
  156MOL0     H20572   4.999   2.239   5.074  2.8153  0.1669 -2.9459
  156MOL0     H20573   5.162   2.250   5.042 -0.5498  0.1299  0.1175
  156MOL0     H20574   5.909   2.026   4.972  0.2357 -0.7550  1.6735
  156MOL0     H20575   6.133   2.116   4.883  2.0937 -1.8537  2.0708
  156MOL0     H20576   6.506   2.587   5.101  1.7204 -0.2521 -0.6056
  156MOL0     H20577   6.679   2.704   4.965  1.7135 -0.2897 -1.9554
  156MOL0     H20578   8.403   2.608   5.111  2.7748 -0.2335  0.2287
  156MOL0     H20579   8.649   2.572   5.170  0.1403  0.5235 -2.8152
  156MOL0     H20580   9.044   2.868   5.574  0.5563  2.7494 -0.4238
  156MOL0     H20581   9.293   2.881   5.545  0.1670  0.2108  0.3208
  156MOL0     H20582   9.469   2.890   5.156  1.4836  3.7633  1.4536
  156MOL0     H20583   9.512   2.717   5.204 -1.7420 -0.3150  3.3692
  156MOL0     H20584   9.649   2.957   5.314  0.5597 -1.0140  0.8066
  156MOL0     H20585   9.699   2.794   5.333  1.0517 -1.4362 -1.3649
  156MOL0     H20586   9.687   2.922   5.051 -1.3393 -1.8020 -0.8570
  156MOL0     H20587   9.728   2.761   5.075 -1.4746  0.1054 -1.1661
  156MOL0     H20588   9.928   2.820   5.204 -1.1516 -0.1475  0.3654
  156MOL0     H20589   9.922   2.908   5.045 -1.1791  1.0708 -0.9411
  156MOL0     H20590   9.874   3.227   5.320 -1.5988 -0.8829  3.3217
  156MOL0     H20591   9.254   2.783   5.127  1.4865  1.0466  0.6324
  156MOL0     H20592   9.009   2.730   5.174 -0.4236 -0.6037  1.0386
  157MOL0     O20593   8.575   2.422   0.892 -0.5240 -0.3434 -0.6348
  157MOL0     C20594   8.675   2.496   0.920  0.0393 -0.5170  0.1131
  157MOL0     O20595   8.685   2.564   1.040 -0.1435  0.0568  0.0039
  157MOL0     C20596   8.579   2.565   1.131 -0.1779 -0.3109  0.1548
  157MOL0     C20597   8.581   2.472   1.233 -0.2075 -0.6405  0.0047
  157MOL0     C20598   8.474   2.453   1.323  0.4890 -0.4441  0.8081
  157MOL0     C20599   8.348   2.518   1.295  0.2494  0.1679  0.9607
  157MOL0     O20600   8.247   2.493   1.378  0.1177 -0.4088  0.0641
  157MOL0     C20601   8.122   2.488   1.321  0.5171  0.3312 -0.4932
  157MOL0     C20602   8.031   2.487   1.444  0.0457  0.4401 -0.5798
  157MOL0     C20603   7.889   2.497   1.407  0.5019 -0.0948  0.3410
  157MOL0     C20604   7.796   2.422   1.496  0.3254 -0.3585 -0.5415
  157MOL0     C20605   7.654   2.419   1.438 -0.1676  0.6415  0.2780
  157MOL0     C20606   7.547   2.344   1.527  0.0592 -0.8819 -0.2515
  157MOL0     C20607   7.535   2.389   1.678 -0.9716  0.4363  0.2160
  157MOL0     C20608   7.432   2.308   1.747 -0.0053 -0.2978 -0.3948
  157MOL0     N20609   7.295   2.362   1.731 -0.3894 -0.0364 -0.7774
  157MOL0     C20610   7.255   2.461   1.822 -0.0288  0.0904  0.4204
  157MOL0     C20611   7.128   2.488   1.780  0.3893  0.5654 -0.4702
  157MOL0     C20612   7.021   2.588   1.839  0.4495  0.7949 -1.1511
  157MOL0     C20613   6.981   2.574   1.989  0.2347 -0.9054 -0.6524
  157MOL0     C20614   6.937   2.701   2.056  0.1940 -0.2020  0.1161
  157MOL0     C20615   6.816   2.767   1.982 -0.2548  0.3905 -0.3779
  157MOL0     O20616   6.701   2.763   2.074 -0.4930  0.2876 -0.5075
  157MOL0     C20617   6.598   2.847   2.029  0.2115 -0.1418 -0.6140
  157MOL0     C20618   6.586   2.906   1.898  0.2907 -0.1940 -0.0053
  157MOL0     C20619   6.486   3.005   1.868  0.4806  0.6613  0.5033
  157MOL0     C20620   6.396   3.050   1.965 -0.0017  0.2554 -0.6394
  157MOL0     C20621   6.302   3.155   1.939 -0.4238  0.2220 -0.5132
  157MOL0     O20622   6.213   3.186   2.041 -0.1086  0.7854  1.0485
  157MOL0     C20623   6.129   3.287   2.011  0.1118 -0.1515 -0.0186
  157MOL0     C20624   5.989   3.258   2.013 -0.3200  0.4205  0.0076
  157MOL0     C20625   5.899   3.361   1.993  0.1351  0.1497 -0.0233
  157MOL0     C20626   5.935   3.492   2.005 -0.5588 -1.0116  0.3502
  157MOL0     O20627   5.843   3.593   2.028  0.2895  0.3415 -0.4184
  157MOL0     C20628   5.768   3.575   2.149  0.1663 -0.6273  0.0944
  157MOL0     C20629   5.822   3.663   2.270  0.3135 -0.6071  0.1300
  157MOL0     C20630   5.722   3.657   2.380 -0.1687 -0.1142 -0.2077
  157MOL0     C20631   5.773   3.734   2.497  0.5355 -0.0998  0.4569
  157MOL0     C20632   5.662   3.707   2.601 -0.6361 -0.2325 -0.4144
  157MOL0     C20633   5.686   3.758   2.740  0.7380  0.4629  0.7899
  157MOL0     C20634   5.585   3.732   2.847  0.0781 -0.9227 -1.0306
  157MOL0     C20635   5.467   3.833   2.854 -0.3392  0.4278 -0.8804
  157MOL0    Cl20636   5.340   3.747   2.960 -0.2499 -0.0402 -0.0359
  157MOL0     C20637   6.063   3.526   2.006 -0.6411  0.0683 -0.5735
  157MOL0     C20638   6.157   3.424   2.005 -0.7403  0.9376  0.7669
  157MOL0     O20639   6.295   3.207   1.827 -0.8514 -0.2691 -0.0833
  157MOL0     C20640   6.407   2.990   2.093 -0.3882 -0.1142  0.4416
  157MOL0     C20641   6.499   2.881   2.118  0.1409 -0.6252 -0.0703
  157MOL0     N20642   7.100   2.405   1.670 -0.0864 -0.6400 -0.3762
  157MOL0     N20643   7.202   2.332   1.643  0.3749  0.2051  0.3963
  157MOL0     C20644   8.346   2.617   1.194  0.5626  0.0563  0.0176
  157MOL0     C20645   8.457   2.626   1.107  0.5456 -1.1338  0.0876
  157MOL0     C20646   8.777   2.506   0.812  0.1842 -0.0357  0.3757
  157MOL0     C20647   8.888   2.580   0.834 -0.1721 -0.3618 -0.7239
  157MOL0     C20648   8.987   2.596   0.735 -0.4088  0.6864  0.3401
  157MOL0     C20649   8.978   2.543   0.607 -0.2221  0.2736 -0.0826
  157MOL0     O20650   9.074   2.540   0.508 -0.1021  0.4322  0.2550
  157MOL0     C20651   9.192   2.628   0.516  0.7182 -0.7701 -0.3303
  157MOL0     C20652   9.272   2.603   0.394 -1.0299  0.2258  0.0130
  157MOL0     C20653   9.396   2.694   0.393 -0.0849  0.3614  0.0774
  157MOL0     C20654   9.479   2.657   0.265 -0.9931  0.5333  0.4548
  157MOL0     C20655   9.603   2.743   0.260 -0.0668 -0.6355  0.7405
  157MOL0     C20656   9.703   2.807   0.250  0.1357 -0.0873  0.2922
  157MOL0     C20657   8.857   2.474   0.587  0.8901  0.7165  0.8588
  157MOL0     C20658   8.759   2.451   0.682  0.4473 -0.4000  0.5983
  157MOL0     H20659   8.676   2.422   1.245  1.6646  2.2969 -1.3628
  157MOL0     H20660   8.480   2.381   1.404 -0.6087 -1.0399  0.3785
  157MOL0     H20661   8.110   2.391   1.270  1.3696 -1.2085  2.0451
  157MOL0     H20662   8.089   2.564   1.250  0.1440 -1.7394 -2.6806
  157MOL0     H20663   8.055   2.563   1.519  3.5003  0.4334 -1.4939
  157MOL0     H20664   8.047   2.391   1.494 -4.6229 -0.8804 -1.0979
  157MOL0     H20665   7.877   2.466   1.302  1.9752  0.2136  0.0663
  157MOL0     H20666   7.856   2.601   1.405  0.5493  0.0403  3.1558
  157MOL0     H20667   7.836   2.324   1.523  1.9972  0.7571  1.3715
  157MOL0     H20668   7.789   2.467   1.595  0.3672 -0.0091 -0.6959
  157MOL0     H20669   7.650   2.384   1.334 -0.8825  0.6338  0.3042
  157MOL0     H20670   7.610   2.519   1.441  0.0832  0.8621 -1.7078
  157MOL0     H20671   7.574   2.238   1.533 -2.2724 -1.5325  0.0582
  157MOL0     H20672   7.448   2.357   1.483 -0.1525  3.3410  1.0837
  157MOL0     H20673   7.631   2.386   1.732  0.3284  0.2451 -1.9794
  157MOL0     H20674   7.500   2.492   1.673  0.8317  1.0294 -2.3403
  157MOL0     H20675   7.465   2.292   1.850  3.7389 -0.6092 -1.5096
  157MOL0     H20676   7.439   2.205   1.710 -2.0727 -0.9696  0.9037
  157MOL0     H20677   7.301   2.499   1.912 -1.0962 -1.2968  1.5845
  157MOL0     H20678   6.928   2.586   1.780  0.2542  1.9454 -0.9139
  157MOL0     H20679   7.069   2.684   1.816  1.3301 -0.1761 -3.8202
  157MOL0     H20680   7.076   2.546   2.036  1.1412 -0.6025 -2.2309
  157MOL0     H20681   6.906   2.495   1.990  1.9442 -2.6549  1.6646
  157MOL0     H20682   6.904   2.656   2.151 -0.6992 -1.7703 -0.8928
  157MOL0     H20683   7.024   2.765   2.069 -3.6708  5.7389  0.5425
  157MOL0     H20684   6.792   2.708   1.893  1.2985 -0.8915 -0.0016
  157MOL0     H20685   6.837   2.871   1.955 -1.1402  0.5361 -0.5409
  157MOL0     H20686   6.653   2.880   1.817  0.0485 -1.8855  0.3011
  157MOL0     H20687   6.483   3.034   1.763 -0.9786  1.7720  0.8252
  157MOL0     H20688   5.954   3.157   2.028 -3.2593  1.1625 -1.1233
  157MOL0     H20689   5.792   3.341   1.991  0.1672 -0.3293  1.4816
  157MOL0     H20690   5.762   3.469   2.174 -2.3921 -0.7436 -0.6655
  157MOL0     H20691   5.664   3.606   2.134  0.6043  0.8482 -0.1308
  157MOL0     H20692   5.829   3.766   2.234 -0.7095  0.4261  2.6779
  157MOL0     H20693   5.924   3.630   2.294  0.3102  0.4737  1.6972
  157MOL0     H20694   5.710   3.553   2.412  2.1162 -0.0445  1.1510
  157MOL0     H20695   5.630   3.698   2.337  1.2201  1.1922 -2.1473
  157MOL0     H20696   5.866   3.688   2.531  0.6168 -0.9783 -0.8760
  157MOL0     H20697   5.792   3.842   2.490  0.1215  0.0654  1.6072
  157MOL0     H20698   5.633   3.602   2.615  1.2925 -0.4178  3.2670
  157MOL0     H20699   5.575   3.759   2.560  0.0837  0.6993 -0.7877
  157MOL0     H20700   5.706   3.866   2.735  2.5445  0.1111 -0.1364
  157MOL0     H20701   5.774   3.706   2.780  1.8673  1.7990  0.1328
  157MOL0     H20702   5.550   3.629   2.836 -0.6979 -0.5270 -2.4624
  157MOL0     H20703   5.636   3.735   2.944 -0.0937  1.1809 -0.9727
  157MOL0     H20704   5.423   3.849   2.755  4.0245  0.0570 -3.1405
  157MOL0     H20705   5.491   3.929   2.900 -1.2174 -0.7303  2.2554
  157MOL0     H20706   6.090   3.631   2.008  4.0636 -0.9234 -0.3682
  157MOL0     H20707   6.263   3.450   2.007 -0.6930  0.7558  2.6115
  157MOL0     H20708   6.340   3.021   2.172 -0.6606  0.8638 -0.1626
  157MOL0     H20709   6.498   2.842   2.219  0.8513 -0.4507  0.0073
  157MOL0     H20710   8.260   2.679   1.169  0.2287 -0.4806 -0.1933
  157MOL0     H20711   8.456   2.676   1.011 -1.1925 -0.0342  0.6152
  157MOL0     H20712   8.908   2.635   0.925  2.1581 -0.0792 -1.3122
  157MOL0     H20713   9.070   2.652   0.776 -1.8155  0.3749  4.0291
  157MOL0     H20714   9.244   2.630   0.612  1.1758  2.9327 -0.5225
  157MOL0     H20715   9.158   2.732   0.516  2.0246 -0.2869  2.0843
  157MOL0     H20716   9.320   2.505   0.401 -1.0855 -0.0746 -2.6346
  157MOL0     H20717   9.201   2.617   0.312 -1.8816  0.0054  0.7018
  157MOL0     H20718   9.442   2.660   0.487  0.5066  1.1803  0.0906
  157MOL0     H20719   9.382   2.802   0.385  1.1274  0.4270 -2.1386
  157MOL0     H20720   9.508   2.553   0.253 -0.4386  1.0570 -4.8804
  157MOL0     H20721   9.421   2.675   0.174  0.8151 -4.8397 -2.1516
  157MOL0     H20722   9.787   2.874   0.245 -0.8921  1.2699  0.7028
  157MOL0     H20723   8.828   2.434   0.491 -0.7372 -0.4418  1.7771
  157MOL0     H20724   8.668   2.405   0.646  1.0969 -0.2025 -1.3867
  158MOL0     O20725   1.034   7.922  10.591  0.2679 -0.4067 -0.2766
  158MOL0     C20726   1.097   8.006  10.659  0.5977  0.4234  0.1078
  158MOL0     O20727   1.214   8.058  10.625  0.2061  0.2385  0.1060
  158MOL0     C20728   1.281   8.037  10.508 -0.5281 -0.4454 -0.3376
  158MOL0     C20729   1.416   7.992  10.524 -0.6838 -0.0403  0.4192
  158MOL0     C20730   1.501   7.988  10.414  1.1896  0.2494  0.7361
  158MOL0     C20731   1.447   8.000  10.278  0.0688  0.3374 -0.4619
  158MOL0     O20732   1.535   7.977  10.179  0.0171 -0.1968 -0.9766
  158MOL0     C20733   1.507   7.985  10.039 -0.4139 -1.2021 -0.4028
  158MOL0     C20734   1.628   7.916   9.969 -0.6857 -0.4237 -0.5365
  158MOL0     C20735   1.631   7.951   9.818  0.2021  0.0149 -0.0607
  158MOL0     C20736   1.492   7.941   9.742  0.7367  0.0109  0.4584
  158MOL0     C20737   1.510   7.969   9.588  0.1588 -0.9903  0.6256
  158MOL0     C20738   1.370   7.962   9.527 -0.2910  0.1411 -0.1374
  158MOL0     C20739   1.358   8.001   9.375 -0.5981 -0.5839 -0.2767
  158MOL0     C20740   1.220   8.025   9.313 -0.5360  0.0429  0.0041
  158MOL0     N20741   1.145   7.902   9.289  0.2552 -0.2954  0.2991
  158MOL0     C20742   1.042   7.864   9.369 -0.3012 -0.3969  0.2672
  158MOL0     C20743   1.018   7.738   9.341 -0.1228  0.0626  0.2068
  158MOL0     C20744   0.913   7.654   9.410  0.1371 -0.1688  0.3369
  158MOL0     C20745   0.768   7.714   9.419  0.4488 -0.5299 -0.7601
  158MOL0     C20746   0.704   7.749   9.286 -1.2483 -0.2289  0.1891
  158MOL0     C20747   0.574   7.833   9.289 -0.9580  0.3597 -0.5571
  158MOL0     O20748   0.453   7.756   9.268  0.7042 -0.1856  0.0076
  158MOL0     C20749   0.336   7.821   9.243  0.4012 -0.2654 -0.2397
  158MOL0     C20750   0.219   7.743   9.208 -0.2317 -0.9438 -0.3512
  158MOL0     C20751   0.093   7.802   9.195 -0.2659 -0.3954  1.2863
  158MOL0     C20752   0.079   7.941   9.201  0.1684  0.2301  0.3484
  158MOL0     C20753  -0.052   8.008   9.182 -1.0747  0.0662 -0.2104
  158MOL0     O20754  -0.160   7.926   9.176  0.4788  0.7197 -0.2231
  158MOL0     C20755  -0.288   7.975   9.160  0.4555 -0.2804  0.4093
  158MOL0     C20756  -0.341   8.105   9.202 -0.0294  0.2915 -0.3281
  158MOL0     C20757  -0.476   8.138   9.199 -0.1236 -0.0591 -0.3633
  158MOL0     C20758  -0.572   8.049   9.141 -0.7705  0.7057 -0.6611
  158MOL0     O20759  -0.712   8.068   9.141 -0.5161 -0.4333 -0.7361
  158MOL0     C20760  -0.769   8.188   9.191  0.6790  0.9328 -0.9417
  158MOL0     C20761  -0.871   8.239   9.085 -0.4514  0.7408 -1.1040
  158MOL0     C20762  -0.926   8.371   9.141  0.4365  0.3132  0.3765
  158MOL0     C20763  -1.031   8.432   9.037 -0.4287  0.0422 -0.2379
  158MOL0     C20764  -1.076   8.579   9.061  0.2988 -1.0074  0.1538
  158MOL0     C20765  -1.211   8.626   8.986 -0.6006  0.5045  0.2135
  158MOL0     C20766  -1.265   8.766   9.028 -0.2488 -0.5059 -0.0012
  158MOL0     C20767  -1.334   8.770   9.165 -0.4268 -0.2939  0.2059
  158MOL0    Cl20768  -1.209   8.792   9.298  0.2557 -0.4898 -0.0969
  158MOL0     C20769  -0.527   7.921   9.104 -1.1559  0.5236 -0.2765
  158MOL0     C20770  -0.387   7.886   9.117  0.4798 -0.1846  0.6271
  158MOL0     O20771  -0.051   8.124   9.171 -0.0475  0.2060 -0.3106
  158MOL0     C20772   0.187   8.019   9.232 -0.0442  0.0147  0.0010
  158MOL0     C20773   0.309   7.956   9.256  0.2286 -0.8282 -0.3326
  158MOL0     N20774   1.101   7.691   9.240 -0.7204 -0.9224 -0.2482
  158MOL0     N20775   1.185   7.790   9.215 -0.0753 -0.2247  0.0053
  158MOL0     C20776   1.309   8.023  10.268  0.5849 -0.7786  0.4297
  158MOL0     C20777   1.232   8.057  10.380 -0.7240 -0.0810 -0.1993
  158MOL0     C20778   1.030   8.053  10.784 -0.3633 -0.2075  0.0348
  158MOL0     C20779   1.096   8.124  10.883 -0.3278  0.3668  0.7460
  158MOL0     C20780   1.032   8.167  10.992  1.1638 -0.3440  0.6147
  158MOL0     C20781   0.897   8.146  11.017  0.5017  0.9175  0.4268
  158MOL0     O20782   0.837   8.202  11.124  0.0609 -0.1045  0.6301
  158MOL0     C20783   0.710   8.272  11.110  0.7887 -0.2459 -0.3843
  158MOL0     C20784   0.630   8.231  11.230  0.1300  0.9460 -0.3853
  158MOL0     C20785   0.599   8.075  11.230 -1.2931 -0.4948  0.3776
  158MOL0     C20786   0.514   8.045  11.348  0.1165  0.1532  0.2533
  158MOL0     C20787   0.374   8.069  11.324 -0.8236 -0.1976 -0.7425
  158MOL0     C20788   0.250   8.091  11.305 -0.6855 -0.9296  0.3302
  158MOL0     C20789   0.820   8.082  10.921 -0.3989  0.3742  0.3110
  158MOL0     C20790   0.887   8.042  10.802 -0.0965 -0.4116 -0.0333
  158MOL0     H20791   1.456   7.970  10.623  1.6891 -2.8824 -1.0314
  158MOL0     H20792   1.600   7.943  10.416 -0.0574 -2.7675  0.6246
  158MOL0     H20793   1.509   8.086   9.998 -0.0712  0.5649  3.4549
  158MOL0     H20794   1.412   7.938  10.013 -1.9073  2.0894 -1.3790
  158MOL0     H20795   1.628   7.809   9.990  3.3904 -1.0952 -2.8759
  158MOL0     H20796   1.722   7.951  10.013  0.6450 -5.2729  1.0467
  158MOL0     H20797   1.707   7.889   9.770 -0.5907 -2.1694  1.3622
  158MOL0     H20798   1.660   8.056   9.812 -2.0012  0.6500 -0.4820
  158MOL0     H20799   1.450   7.841   9.747  2.4066 -0.7670 -0.2296
  158MOL0     H20800   1.416   8.008   9.783  1.6952  0.9285  0.7954
  158MOL0     H20801   1.587   7.906   9.541  0.2260 -0.5374  0.1168
  158MOL0     H20802   1.541   8.072   9.568  1.1678 -1.0180  1.9188
  158MOL0     H20803   1.297   8.026   9.578 -2.0381 -3.8155  2.9770
  158MOL0     H20804   1.345   7.855   9.534  0.5629 -0.1176 -0.8984
  158MOL0     H20805   1.428   8.085   9.364  0.6637 -1.2078  2.2711
  158MOL0     H20806   1.405   7.926   9.311  0.3341  0.3536 -0.7240
  158MOL0     H20807   1.245   8.079   9.222 -0.4059  0.6229  0.3759
  158MOL0     H20808   1.154   8.089   9.373 -2.4739 -3.4648  1.9365
  158MOL0     H20809   0.974   7.922   9.431  0.9873 -0.1332  1.4815
  158MOL0     H20810   0.940   7.626   9.512  1.1952 -1.3711 -0.2450
  158MOL0     H20811   0.907   7.561   9.352 -0.2753  2.7541 -4.8647
  158MOL0     H20812   0.774   7.803   9.482  0.8708 -0.0297 -1.4878
  158MOL0     H20813   0.710   7.638   9.471 -1.3200 -0.4707 -2.5432
  158MOL0     H20814   0.771   7.802   9.217 -2.8358  1.4340 -0.1441
  158MOL0     H20815   0.676   7.659   9.231  0.5120 -0.7237  0.0496
  158MOL0     H20816   0.580   7.927   9.234 -1.9089  0.9691  0.3463
  158MOL0     H20817   0.565   7.874   9.390  0.5261 -1.7977  0.5342
  158MOL0     H20818   0.228   7.635   9.198 -0.2100 -0.9417 -0.3550
  158MOL0     H20819   0.016   7.727   9.182 -1.5885  0.8342  1.7502
  158MOL0     H20820  -0.273   8.173   9.252  0.4857 -1.0826  0.9149
  158MOL0     H20821  -0.509   8.236   9.230  2.7733  1.5708 -2.0325
  158MOL0     H20822  -0.701   8.269   9.219 -1.5528  2.2272  1.0900
  158MOL0     H20823  -0.832   8.172   9.278 -2.0314  2.1159 -2.5570
  158MOL0     H20824  -0.948   8.166   9.059 -0.8529  1.1196 -0.9928
  158MOL0     H20825  -0.815   8.261   8.994  2.3038  2.2042  0.7898
  158MOL0     H20826  -0.843   8.442   9.142  1.1473 -0.1999 -3.6255
  158MOL0     H20827  -0.971   8.370   9.241  1.4263 -1.3259  0.8406
  158MOL0     H20828  -0.979   8.430   8.941  0.8380  0.0889  0.4241
  158MOL0     H20829  -1.118   8.366   9.028 -0.8949  0.6753 -0.4160
  158MOL0     H20830  -0.997   8.649   9.031 -0.0634 -0.7802 -0.2787
  158MOL0     H20831  -1.095   8.590   9.169  1.5054  1.3201  0.1908
  158MOL0     H20832  -1.295   8.557   8.996  0.3029 -0.5369  0.8328
  158MOL0     H20833  -1.191   8.619   8.879 -0.6203 -1.6156  0.3137
  158MOL0     H20834  -1.184   8.838   9.017 -2.4513  2.4512  1.5422
  158MOL0     H20835  -1.333   8.791   8.945  0.8461  0.0735 -0.7413
  158MOL0     H20836  -1.386   8.674   9.173 -2.0251  0.5521  0.3440
  158MOL0     H20837  -1.405   8.853   9.166  0.2234  0.2806 -0.3471
  158MOL0     H20838  -0.602   7.852   9.068 -0.8586  1.8721 -3.9645
  158MOL0     H20839  -0.361   7.784   9.092 -0.0074 -0.8180  2.4998
  158MOL0     H20840   0.167   8.124   9.252 -3.1003 -0.5671  0.5652
  158MOL0     H20841   0.384   8.024   9.297 -1.3414  0.7050  0.1065
  158MOL0     H20842   1.262   8.026  10.171 -0.0270 -0.8017  0.7225
  158MOL0     H20843   1.128   8.086  10.370 -1.2940 -1.0676  2.1642
  158MOL0     H20844   1.200   8.148  10.866 -0.6896  0.2745 -2.0868
  158MOL0     H20845   1.088   8.215  11.072  1.2702 -0.5588  0.6721
  158MOL0     H20846   0.656   8.264  11.016  1.6687  0.2375 -0.9514
  158MOL0     H20847   0.731   8.378  11.128  0.1278 -0.2325  0.3725
  158MOL0     H20848   0.679   8.258  11.324  1.4375 -2.2856  0.0169
  158MOL0     H20849   0.532   8.278  11.225  0.2674  1.3051  0.3072
  158MOL0     H20850   0.692   8.025  11.259  0.4395  2.7578  1.0098
  158MOL0     H20851   0.549   8.040  11.139  0.8955  0.6630 -1.3907
  158MOL0     H20852   0.517   7.938  11.371 -4.8219 -0.4092 -0.5238
  158MOL0     H20853   0.545   8.104  11.434  4.3975  1.3044 -1.7931
  158MOL0     H20854   0.144   8.096  11.289 -0.5466  3.0001 -0.4209
  158MOL0     H20855   0.714   8.063  10.932 -0.2460 -3.5558 -2.7643
  158MOL0     H20856   0.837   7.989  10.722  1.0959 -2.9540  0.7805
  159MOL0     O20857   1.401   4.577   3.412  0.0953  0.2372 -0.0600
  159MOL0     C20858   1.462   4.681   3.424  0.7701  0.4494  0.2893
  159MOL0     O20859   1.405   4.803   3.422  0.5722  0.2973  0.0128
  159MOL0     C20860   1.272   4.807   3.393  0.1038 -0.0761 -0.6015
  159MOL0     C20861   1.215   4.901   3.308  0.0563  0.7723  0.0199
  159MOL0     C20862   1.071   4.902   3.284 -0.7290  0.6571 -0.2994
  159MOL0     C20863   0.988   4.819   3.357  0.4017 -0.0040 -1.1775
  159MOL0     O20864   0.851   4.833   3.362 -0.1514  0.2885 -0.0008
  159MOL0     C20865   0.796   4.876   3.236  0.3867 -0.9043 -0.4412
  159MOL0     C20866   0.646   4.859   3.233  0.6418 -0.4199  0.0550
  159MOL0     C20867   0.588   4.859   3.085 -0.7317  0.8791 -0.0290
  159MOL0     C20868   0.432   4.812   3.074 -0.8918  0.6195  0.6813
  159MOL0     C20869   0.326   4.885   3.157 -0.0310 -0.3036 -0.1634
  159MOL0     C20870   0.313   5.034   3.131  0.3626 -0.1435  0.0462
  159MOL0     C20871   0.303   5.089   2.989 -0.3675 -0.5672 -0.0707
  159MOL0     C20872   0.192   5.018   2.906 -0.4408  0.8551  0.4307
  159MOL0     N20873   0.055   5.023   2.955  0.0966  0.0708 -0.3816
  159MOL0     C20874  -0.008   5.128   3.016 -0.2768  0.2315  0.3445
  159MOL0     C20875  -0.138   5.081   3.040  0.3163 -0.1657 -0.0980
  159MOL0     C20876  -0.246   5.157   3.110  0.2297 -0.6024  0.1737
  159MOL0     C20877  -0.381   5.141   3.060  0.7260 -0.0262  0.7461
  159MOL0     C20878  -0.499   5.184   3.154  0.6206  0.7050  0.1563
  159MOL0     C20879  -0.634   5.130   3.108  0.1095  0.4805 -0.6235
  159MOL0     O20880  -0.729   5.197   3.188  0.3933 -0.1755 -0.2287
  159MOL0     C20881  -0.864   5.173   3.159 -0.0651  0.5581 -0.4380
  159MOL0     C20882  -0.947   5.249   3.236  0.2461 -0.0002  0.3165
  159MOL0     C20883  -1.089   5.223   3.227 -0.2014  0.2099  0.1794
  159MOL0     C20884  -1.139   5.121   3.148  0.1974  0.1735 -0.0505
  159MOL0     C20885  -1.286   5.084   3.151 -0.0554  0.1907  0.4678
  159MOL0     O20886  -1.335   5.038   3.033 -0.1036 -0.5951  0.2794
  159MOL0     C20887  -1.465   4.990   3.027 -0.8179  0.1959  0.6732
  159MOL0     C20888  -1.566   5.089   3.058 -0.1800  0.7938 -0.0976
  159MOL0     C20889  -1.698   5.041   3.035  0.2593 -0.1607  0.0756
  159MOL0     C20890  -1.728   4.914   2.981  0.2441 -1.0383 -0.1522
  159MOL0     O20891  -1.857   4.890   2.956  0.1576 -0.8375 -0.0884
  159MOL0     C20892  -1.905   4.765   2.909  0.0290 -0.3171  0.3313
  159MOL0     C20893  -2.064   4.782   2.912 -0.0970 -0.2970 -0.4973
  159MOL0     C20894  -2.143   4.655   2.870  0.5081 -0.2068 -0.7146
  159MOL0     C20895  -2.285   4.668   2.921  0.3279  0.6121 -0.2371
  159MOL0     C20896  -2.383   4.566   2.865  1.1581 -0.2330  0.9752
  159MOL0     C20897  -2.511   4.542   2.945  0.1441 -0.1106 -0.4883
  159MOL0     C20898  -2.593   4.669   2.921 -0.4275 -0.1809  0.1536
  159MOL0     C20899  -2.726   4.685   3.002 -0.3968  0.1434 -0.2834
  159MOL0    Cl20900  -2.832   4.548   3.014  0.4930 -0.4327 -0.0758
  159MOL0     C20901  -1.623   4.824   2.943 -0.6079 -0.6149 -0.1533
  159MOL0     C20902  -1.487   4.861   2.971  0.5333 -0.5310  0.9335
  159MOL0     O20903  -1.338   5.086   3.259 -0.5958 -0.1125  0.2058
  159MOL0     C20904  -1.043   5.053   3.062  0.3915 -0.4127 -0.5186
  159MOL0     C20905  -0.905   5.075   3.069  0.1605  0.7805 -0.1308
  159MOL0     N20906  -0.151   4.957   2.980  0.2115  0.3004 -0.6263
  159MOL0     N20907  -0.034   4.920   2.945  0.2710 -0.3382  0.6457
  159MOL0     C20908   1.049   4.741   3.454  0.0009  0.5668 -0.4089
  159MOL0     C20909   1.186   4.723   3.466  0.9333  0.1426 -0.8575
  159MOL0     C20910   1.601   4.684   3.455  0.0234  0.2662 -0.2064
  159MOL0     C20911   1.653   4.626   3.565 -0.0695  0.3408  0.5024
  159MOL0     C20912   1.791   4.621   3.590 -0.5081  1.4649  1.0771
  159MOL0     C20913   1.883   4.687   3.508  1.0418  0.5086  0.6926
  159MOL0     O20914   2.017   4.697   3.527  0.3227  0.1661 -1.0411
  159MOL0     C20915   2.077   4.615   3.630  0.2807 -0.1860 -0.2715
  159MOL0     C20916   2.225   4.659   3.660  0.9553 -0.3740 -0.0346
  159MOL0     C20917   2.303   4.676   3.529  0.1325 -0.0551  0.1230
  159MOL0     C20918   2.445   4.701   3.547 -0.1391  0.4728 -0.2635
  159MOL0     C20919   2.493   4.837   3.597 -0.1432 -0.6343 -0.1483
  159MOL0     C20920   2.531   4.943   3.644 -0.6971 -1.0303  0.0962
  159MOL0     C20921   1.824   4.755   3.397  1.3230 -0.6226 -0.1114
  159MOL0     C20922   1.689   4.757   3.374 -0.0390 -1.5138 -0.8864
  159MOL0     H20923   1.276   4.981   3.269  1.9024  0.5022  2.1388
  159MOL0     H20924   1.032   4.986   3.227  1.3603  2.6945  1.0983
  159MOL0     H20925   0.847   4.831   3.150 -0.1339  0.8762 -1.7274
  159MOL0     H20926   0.821   4.982   3.225 -1.4168 -0.1844  1.8415
  159MOL0     H20927   0.601   4.945   3.284  2.2371 -0.4364  1.5821
  159MOL0     H20928   0.609   4.769   3.284  0.6718  0.4410  1.6751
  159MOL0     H20929   0.640   4.787   3.021 -2.7017 -0.9423  0.3055
  159MOL0     H20930   0.609   4.961   3.052  1.1569 -0.3466 -3.0291
  159MOL0     H20931   0.410   4.830   2.968 -1.1282  1.3301  0.8451
  159MOL0     H20932   0.426   4.707   3.103 -0.0761  0.5540  0.6575
  159MOL0     H20933   0.344   4.878   3.265  0.8259  2.2513 -0.0645
  159MOL0     H20934   0.229   4.836   3.141 -0.6825  0.1195  2.0900
  159MOL0     H20935   0.387   5.094   3.185 -1.6147  1.9055  0.6318
  159MOL0     H20936   0.223   5.051   3.191  0.5746  1.3798 -0.0438
  159MOL0     H20937   0.284   5.196   3.000 -1.3310 -0.8627  1.2415
  159MOL0     H20938   0.401   5.079   2.941  0.2742  1.3445  0.7355
  159MOL0     H20939   0.225   4.915   2.889  2.1970  1.7589 -0.4786
  159MOL0     H20940   0.194   5.068   2.809 -0.0728  0.4657  0.2342
  159MOL0     H20941   0.037   5.219   3.055  0.6703 -0.3102  0.5511
  159MOL0     H20942  -0.231   5.266   3.105 -1.5851 -0.3216  0.0804
  159MOL0     H20943  -0.231   5.115   3.209 -0.1285  1.0889  0.9841
  159MOL0     H20944  -0.393   5.033   3.043 -1.1806  0.4064 -1.1244
  159MOL0     H20945  -0.395   5.193   2.965  0.3725 -0.5057  0.5276
  159MOL0     H20946  -0.482   5.150   3.257 -3.5470 -2.6902 -0.0198
  159MOL0     H20947  -0.495   5.293   3.146  0.3409  0.6433 -1.0849
  159MOL0     H20948  -0.640   5.023   3.127  2.8520  0.7431  2.6814
  159MOL0     H20949  -0.626   5.137   2.999  1.0170 -0.8504 -0.6674
  159MOL0     H20950  -0.904   5.324   3.302 -1.9612  1.7392 -0.1051
  159MOL0     H20951  -1.155   5.288   3.285  0.7328  2.1990 -0.8792
  159MOL0     H20952  -1.537   5.180   3.109 -0.4111 -1.1175  3.8570
  159MOL0     H20953  -1.775   5.106   3.076  1.9145  1.0811  1.3682
  159MOL0     H20954  -1.874   4.688   2.979 -1.8618 -0.5006  1.0179
  159MOL0     H20955  -1.875   4.737   2.807 -1.2074  1.0145 -0.4476
  159MOL0     H20956  -2.084   4.872   2.852  1.9448  0.4189 -0.1899
  159MOL0     H20957  -2.095   4.802   3.014  1.1185 -3.6082  0.6621
  159MOL0     H20958  -2.106   4.566   2.923 -0.9994 -0.1221  0.5307
  159MOL0     H20959  -2.134   4.634   2.763  2.1000  1.8947 -1.0439
  159MOL0     H20960  -2.278   4.649   3.029  0.3362 -0.0302 -0.3464
  159MOL0     H20961  -2.321   4.770   2.914 -0.8795  0.1957 -0.3151
  159MOL0     H20962  -2.337   4.466   2.865  0.1916 -0.7067 -0.1235
  159MOL0     H20963  -2.400   4.583   2.759  5.7189 -3.2957 -0.5709
  159MOL0     H20964  -2.490   4.530   3.051  0.6331 -2.9451 -0.8349
  159MOL0     H20965  -2.564   4.451   2.913  1.6766 -1.3703  0.4259
  159MOL0     H20966  -2.527   4.748   2.960  1.9533 -2.4908  1.0728
  159MOL0     H20967  -2.622   4.678   2.816 -3.2487  0.7750  0.9155
  159MOL0     H20968  -2.777   4.771   2.959  0.3638  2.7869  3.5422
  159MOL0     H20969  -2.682   4.714   3.098  3.8874 -2.1647 -1.2656
  159MOL0     H20970  -1.646   4.729   2.895 -2.9073  1.0894 -2.7399
  159MOL0     H20971  -1.415   4.782   2.951 -0.1949 -1.3962  1.6412
  159MOL0     H20972  -1.084   4.970   3.005  1.2148 -0.4792 -1.0300
  159MOL0     H20973  -0.843   5.009   3.010  0.5206 -0.3247  1.4032
  159MOL0     H20974   0.985   4.678   3.516  0.0094  2.0364  1.1883
  159MOL0     H20975   1.228   4.664   3.547  0.8012  3.1252  1.5776
  159MOL0     H20976   1.589   4.577   3.636 -0.4989  2.4402  1.6254
  159MOL0     H20977   1.823   4.565   3.678  0.4155 -1.1989 -0.8271
  159MOL0     H20978   2.071   4.509   3.603 -1.5840 -0.1802 -0.0202
  159MOL0     H20979   2.019   4.634   3.720 -0.1527  0.4008 -0.6656
  159MOL0     H20980   2.225   4.757   3.708 -1.5079  0.3569 -1.3357
  159MOL0     H20981   2.273   4.595   3.734 -3.3080  1.0982  4.5778
  159MOL0     H20982   2.255   4.755   3.469 -1.1828  1.2196  2.6639
  159MOL0     H20983   2.293   4.587   3.467 -2.6965  2.1716 -3.0688
  159MOL0     H20984   2.502   4.625   3.602 -0.7338  0.4939  0.3918
  159MOL0     H20985   2.486   4.683   3.447  0.9745 -0.8482  0.3959
  159MOL0     H20986   2.538   5.033   3.701  1.6342  1.7050 -4.0727
  159MOL0     H20987   1.891   4.817   3.338  0.3101  0.3661 -0.2463
  159MOL0     H20988   1.658   4.826   3.296 -0.5299  3.8217  3.4683
  160MOL0     O20989   4.278   3.868   1.724  0.5803 -1.0738  0.3126
  160MOL0     C20990   4.273   3.896   1.608  0.5581 -0.6396  0.1155
  160MOL0     O20991   4.365   3.868   1.511 -0.5762 -0.3055 -0.8945
  160MOL0     C20992   4.470   3.794   1.544 -0.1625 -0.5673  0.2413
  160MOL0     C20993   4.597   3.839   1.487  0.8855  1.2921  0.7740
  160MOL0     C20994   4.712   3.763   1.501 -1.0091  0.3798  0.5874
  160MOL0     C20995   4.711   3.647   1.579 -0.3737  0.1640  0.2233
  160MOL0     O20996   4.830   3.573   1.588  0.8258 -0.3459  0.3887
  160MOL0     C20997   4.849   3.479   1.694  0.8341  0.0156 -0.4056
  160MOL0     C20998   4.996   3.459   1.715  0.2993  0.0572 -0.7015
  160MOL0     C20999   5.082   3.437   1.589 -0.4074  0.2308 -0.6515
  160MOL0     C21000   5.026   3.346   1.477 -0.9308 -0.5533  0.6810
  160MOL0     C21001   4.988   3.204   1.521  0.4303 -0.3472  0.2478
  160MOL0     C21002   4.947   3.121   1.398  0.2302  0.0477 -0.1621
  160MOL0     C21003   4.895   2.985   1.441 -0.3237 -0.2729 -1.5272
  160MOL0     C21004   4.773   2.987   1.542  0.6979 -1.2678  0.8091
  160MOL0     N21005   4.656   3.068   1.501 -1.3163  0.4335 -0.8358
  160MOL0     C21006   4.568   3.127   1.585 -0.4184 -0.3036 -0.9753
  160MOL0     C21007   4.460   3.161   1.509  0.8610 -0.1982  0.1210
  160MOL0     C21008   4.332   3.238   1.548 -0.4493  0.0057 -0.1627
  160MOL0     C21009   4.223   3.129   1.552 -0.9263 -0.7984  0.6208
  160MOL0     C21010   4.114   3.162   1.652  0.1355  0.8139 -1.2442
  160MOL0     C21011   4.040   3.296   1.618  0.0042  0.8151  0.7555
  160MOL0     O21012   3.965   3.300   1.499 -0.6764  0.3617 -0.0014
  160MOL0     C21013   3.880   3.408   1.489  0.1116  0.1757 -0.1545
  160MOL0     C21014   3.810   3.410   1.370 -0.1527 -0.0186  0.4010
  160MOL0     C21015   3.705   3.501   1.356  0.0466  1.4975  0.2264
  160MOL0     C21016   3.693   3.605   1.443  0.1443 -0.2830  0.1195
  160MOL0     C21017   3.596   3.713   1.431 -0.1513 -0.5960  0.2879
  160MOL0     O21018   3.486   3.692   1.356 -0.3349  0.4018 -1.3603
  160MOL0     C21019   3.369   3.736   1.401  0.2336 -1.0652  0.0862
  160MOL0     C21020   3.319   3.706   1.533 -0.6791 -0.7355  0.8068
  160MOL0     C21021   3.186   3.734   1.560  0.3223  0.4895  0.9141
  160MOL0     C21022   3.101   3.781   1.465  0.0423  0.7346  0.4993
  160MOL0     O21023   2.970   3.799   1.498  0.3940  0.2805  0.0540
  160MOL0     C21024   2.944   3.927   1.570 -0.7116 -0.4226  0.2680
  160MOL0     C21025   2.787   3.927   1.591 -0.0656 -1.1621 -0.4862
  160MOL0     C21026   2.705   3.949   1.468  0.4699 -0.5835  0.7795
  160MOL0     C21027   2.556   4.003   1.495 -0.2165 -0.5810  0.1400
  160MOL0     C21028   2.540   4.163   1.498  0.2310  0.6867  0.5575
  160MOL0     C21029   2.388   4.208   1.474  0.5195 -0.5717 -0.2850
  160MOL0     C21030   2.376   4.364   1.471 -0.5542  1.1703  0.0202
  160MOL0     C21031   2.235   4.401   1.499 -0.2833  0.2726  0.5766
  160MOL0    Cl21032   2.131   4.367   1.359 -0.3670  0.7057  0.2242
  160MOL0     C21033   3.149   3.814   1.331 -0.4037  0.0613  0.3419
  160MOL0     C21034   3.280   3.793   1.302 -0.5804  0.4209 -0.8379
  160MOL0     O21035   3.601   3.810   1.508 -0.5217 -0.9216  0.4501
  160MOL0     C21036   3.773   3.598   1.568 -0.1306 -1.2543  1.1285
  160MOL0     C21037   3.868   3.509   1.590  0.3888  0.7304 -0.7367
  160MOL0     N21038   4.497   3.127   1.377  0.5182 -1.6773 -0.3179
  160MOL0     N21039   4.616   3.082   1.371  0.8561  0.3046 -0.5436
  160MOL0     C21040   4.593   3.603   1.641  0.7824  0.2998 -0.3318
  160MOL0     C21041   4.475   3.673   1.615  0.6890 -0.4910  0.7218
  160MOL0     C21042   4.167   3.987   1.564  0.5269  0.1421 -0.8876
  160MOL0     C21043   4.171   4.050   1.437 -0.3902 -0.2949  0.6226
  160MOL0     C21044   4.087   4.152   1.402 -0.7955  0.7260 -0.2490
  160MOL0     C21045   3.980   4.175   1.488 -1.4539 -0.0413 -0.4553
  160MOL0     O21046   3.885   4.259   1.435  0.1007  0.0139  0.4952
  160MOL0     C21047   3.822   4.363   1.519 -0.5341  0.6339  0.2137
  160MOL0     C21048   3.879   4.498   1.483  0.7622  0.0987  0.0392
  160MOL0     C21049   4.030   4.509   1.514  0.3852 -0.0598  0.6049
  160MOL0     C21050   4.073   4.658   1.494 -0.3950 -0.1018 -0.0383
  160MOL0     C21051   4.034   4.752   1.605  0.0390 -0.5435  0.2040
  160MOL0     C21052   4.007   4.835   1.696  0.7332  0.4010 -0.1577
  160MOL0     C21053   3.967   4.117   1.615 -0.6624  0.2355 -0.0029
  160MOL0     C21054   4.067   4.022   1.654 -0.0940 -0.3100  0.6663
  160MOL0     H21055   4.589   3.933   1.434  1.6783 -0.7599 -3.4914
  160MOL0     H21056   4.804   3.805   1.462 -1.8641  1.6830 -0.1033
  160MOL0     H21057   4.803   3.383   1.669  0.0107  0.0698  0.8579
  160MOL0     H21058   4.801   3.518   1.784  0.6323  1.0763 -0.9524
  160MOL0     H21059   5.012   3.376   1.785  0.3974  0.4287 -0.2796
  160MOL0     H21060   5.033   3.546   1.770 -2.0040  0.5836  0.1571
  160MOL0     H21061   5.174   3.395   1.629 -0.8137  0.2309  0.3314
  160MOL0     H21062   5.101   3.540   1.555  2.5377  0.0559  0.2169
  160MOL0     H21063   4.944   3.381   1.414 -1.4321 -0.9956  1.0844
  160MOL0     H21064   5.112   3.343   1.409 -2.4923 -0.2727 -1.3876
  160MOL0     H21065   4.911   3.219   1.597 -0.2630  6.4890 -1.1268
  160MOL0     H21066   5.074   3.167   1.577  0.0021  2.8609  3.4157
  160MOL0     H21067   5.039   3.097   1.344 -0.6427 -0.7277 -1.3543
  160MOL0     H21068   4.868   3.167   1.338  1.5182  1.1252 -1.0816
  160MOL0     H21069   4.867   2.924   1.355 -2.1022 -0.7931 -0.6287
  160MOL0     H21070   4.970   2.930   1.497 -1.3711 -0.0214  0.2002
  160MOL0     H21071   4.804   3.030   1.638 -0.1512 -0.9078  0.9300
  160MOL0     H21072   4.737   2.888   1.573  1.6171 -1.9813 -0.2845
  160MOL0     H21073   4.584   3.120   1.692  3.3950  1.4992 -1.2436
  160MOL0     H21074   4.311   3.318   1.477  1.6521 -0.1854 -1.0825
  160MOL0     H21075   4.348   3.289   1.644 -0.5743  0.4560 -0.3767
  160MOL0     H21076   4.259   3.029   1.577 -2.8072 -0.9195  3.2360
  160MOL0     H21077   4.170   3.131   1.456  0.5443  3.6528 -0.3632
  160MOL0     H21078   4.041   3.081   1.647  0.6520 -0.0513  2.4644
  160MOL0     H21079   4.156   3.163   1.752  0.9085 -1.4209 -1.4926
  160MOL0     H21080   4.115   3.376   1.616  0.1130  0.8312  2.9580
  160MOL0     H21081   3.977   3.322   1.703 -1.6139  2.4487 -0.8611
  160MOL0     H21082   3.815   3.327   1.301  1.7010 -0.7543  1.3726
  160MOL0     H21083   3.647   3.491   1.265 -0.0374  2.4950  0.1681
  160MOL0     H21084   3.385   3.660   1.605  3.1577  2.8404 -0.0199
  160MOL0     H21085   3.155   3.712   1.662 -0.1602  1.3541  0.9628
  160MOL0     H21086   2.963   4.017   1.511 -2.2055 -0.3262 -0.0986
  160MOL0     H21087   3.003   3.928   1.662 -0.2983 -1.8633  0.0365
  160MOL0     H21088   2.765   4.009   1.659 -2.0826 -0.4113 -1.9401
  160MOL0     H21089   2.764   3.827   1.630  2.4628 -1.9607 -0.8385
  160MOL0     H21090   2.714   3.853   1.417  2.8855 -0.5644  1.0740
  160MOL0     H21091   2.762   4.022   1.411  0.4758 -1.8419 -0.9064
  160MOL0     H21092   2.492   3.971   1.412  1.9280 -1.7102 -1.1778
  160MOL0     H21093   2.517   3.961   1.588  0.4659 -1.5517 -0.0028
  160MOL0     H21094   2.605   4.203   1.420 -0.1969 -1.2732 -0.8921
  160MOL0     H21095   2.573   4.197   1.597 -0.1138 -3.0349  2.1505
  160MOL0     H21096   2.326   4.180   1.560  0.4607 -0.0551 -0.1528
  160MOL0     H21097   2.337   4.164   1.388  0.1029 -1.6044  0.4624
  160MOL0     H21098   2.449   4.409   1.539  0.9991  0.5284 -1.1419
  160MOL0     H21099   2.397   4.387   1.366  1.7586 -0.1265  0.1131
  160MOL0     H21100   2.237   4.510   1.507  2.1018  0.2510  0.9725
  160MOL0     H21101   2.188   4.349   1.583 -1.5385 -1.6246 -1.1938
  160MOL0     H21102   3.078   3.845   1.255  1.9896 -1.1141 -2.5575
  160MOL0     H21103   3.312   3.809   1.199 -1.0525 -3.2118 -1.6838
  160MOL0     H21104   3.769   3.668   1.650 -0.1399  3.4996 -2.4697
  160MOL0     H21105   3.905   3.507   1.692  0.0862 -1.9344 -0.6139
  160MOL0     H21106   4.588   3.514   1.702  2.6727 -0.1673 -0.7835
  160MOL0     H21107   4.378   3.638   1.647  0.6560 -2.4236 -1.2426
  160MOL0     H21108   4.250   4.035   1.364  0.5312  1.0154  1.3094
  160MOL0     H21109   4.100   4.201   1.305 -0.2967  1.1389  0.0157
  160MOL0     H21110   3.833   4.344   1.626 -2.3079  1.0516  0.5049
  160MOL0     H21111   3.713   4.362   1.507 -0.6511 -1.6606  0.9968
  160MOL0     H21112   3.855   4.511   1.377 -1.8373 -0.1873  0.5173
  160MOL0     H21113   3.819   4.571   1.538  0.6296 -1.7709  2.5614
  160MOL0     H21114   4.099   4.457   1.447  2.1144 -0.9175  2.9010
  160MOL0     H21115   4.050   4.472   1.615 -1.4835 -1.9007  0.3495
  160MOL0     H21116   4.182   4.654   1.487 -0.2562  1.3026  0.9049
  160MOL0     H21117   4.036   4.700   1.399 -0.5774  0.5572  0.3172
  160MOL0     H21118   3.978   4.902   1.774 -0.8323  2.1346 -2.1133
  160MOL0     H21119   3.877   4.129   1.673 -0.7473 -3.1361  0.7443
  160MOL0     H21120   4.052   3.962   1.743 -2.0639 -2.1640 -0.7957
  161MOL0     O21121   2.283   1.388  10.355  0.4881  0.0945 -0.3269
  161MOL0     C21122   2.243   1.267  10.342 -0.9845 -0.1498  0.0923
  161MOL0     O21123   2.109   1.219  10.347 -0.6797  0.2866 -0.1155
  161MOL0     C21124   2.017   1.314  10.320  0.8599  1.1359  0.3142
  161MOL0     C21125   1.908   1.257  10.244  0.3815 -1.1542  0.0401
  161MOL0     C21126   1.795   1.336  10.217  0.2545  1.3606 -0.6893
  161MOL0     C21127   1.775   1.462  10.268  0.1765  0.2385 -0.2407
  161MOL0     O21128   1.671   1.538  10.241  0.3735  0.0112  0.7426
  161MOL0     C21129   1.610   1.640  10.319  0.2344 -0.4346 -0.2480
  161MOL0     C21130   1.465   1.668  10.280  0.2051 -0.4941 -0.2018
  161MOL0     C21131   1.462   1.765  10.157 -1.0758 -0.0020  0.2142
  161MOL0     C21132   1.329   1.839  10.148 -0.0783  0.3863 -0.1796
  161MOL0     C21133   1.227   1.759  10.067  0.1166 -0.7464  0.3892
  161MOL0     C21134   1.122   1.862  10.020 -0.0343  0.6787  0.7765
  161MOL0     C21135   1.006   1.799   9.946 -0.3618  1.0856 -0.2025
  161MOL0     C21136   0.932   1.915   9.884 -0.6809 -0.2308  0.1989
  161MOL0     N21137   0.791   1.871   9.884 -0.8489 -0.0909 -0.7382
  161MOL0     C21138   0.712   1.901   9.991 -0.0519 -0.3199 -0.1744
  161MOL0     C21139   0.591   1.858   9.958  0.2860 -0.8656 -0.0140
  161MOL0     C21140   0.466   1.893  10.044  0.7837  0.2241 -0.4855
  161MOL0     C21141   0.383   2.005   9.977  0.4185 -0.2813 -0.1494
  161MOL0     C21142   0.277   2.065  10.069  0.7236 -0.7312 -0.7598
  161MOL0     C21143   0.179   1.955  10.106 -0.0650  0.6236  0.6087
  161MOL0     O21144   0.068   2.032  10.147 -0.2021  0.6541  0.0106
  161MOL0     C21145  -0.047   1.961  10.175 -0.3399 -0.6953 -0.1273
  161MOL0     C21146  -0.052   1.857  10.262  0.3090 -0.3954 -0.6809
  161MOL0     C21147  -0.176   1.815  10.312 -0.2325 -0.4248 -0.3154
  161MOL0     C21148  -0.297   1.886  10.274 -0.2916 -0.1399 -0.1766
  161MOL0     C21149  -0.420   1.851  10.351  0.0972 -0.1115  0.6589
  161MOL0     O21150  -0.496   1.951  10.390  0.9549  0.6772 -0.0587
  161MOL0     C21151  -0.594   1.931  10.484  0.4479 -0.4068  0.2998
  161MOL0     C21152  -0.733   1.966  10.455 -0.0414 -0.1254  0.0160
  161MOL0     C21153  -0.831   1.943  10.554 -0.4104 -1.1848 -0.5204
  161MOL0     C21154  -0.801   1.892  10.678 -0.0117 -0.1889  0.7023
  161MOL0     O21155  -0.901   1.870  10.768  0.2055 -0.5295  0.1069
  161MOL0     C21156  -0.867   1.841  10.905 -0.3359  0.3076 -0.0059
  161MOL0     C21157  -0.812   1.963  10.980 -0.7030 -0.3820 -0.6226
  161MOL0     C21158  -0.773   1.922  11.122 -0.2519 -0.3271  0.0646
  161MOL0     C21159  -0.889   1.864  11.205 -0.1598 -0.4644 -1.1658
  161MOL0     C21160  -0.846   1.849  11.351  0.6880  0.6427 -0.3768
  161MOL0     C21161  -0.946   1.776  11.443  0.3767  0.5716 -0.2031
  161MOL0     C21162  -1.078   1.846  11.461 -0.2811 -0.5300  0.1238
  161MOL0     C21163  -1.071   1.974  11.548  0.5345 -0.5311  0.0589
  161MOL0    Cl21164  -1.228   2.032  11.597  0.2491 -0.2604 -0.0854
  161MOL0     C21165  -0.667   1.859  10.703  0.3250  0.9231  0.2474
  161MOL0     C21166  -0.568   1.873  10.607  0.2279  0.0370 -0.2965
  161MOL0     O21167  -0.429   1.735  10.387  0.8794  0.1974 -0.3746
  161MOL0     C21168  -0.280   1.998  10.184 -0.2554  0.1669  0.0174
  161MOL0     C21169  -0.157   2.029  10.142  0.0730 -0.2173 -0.7888
  161MOL0     N21170   0.601   1.797   9.837  0.4040  0.2645 -0.0268
  161MOL0     N21171   0.719   1.800   9.798 -0.7186 -0.1668  0.6955
  161MOL0     C21172   1.880   1.520  10.348 -0.2640 -0.0687  0.4365
  161MOL0     C21173   1.995   1.438  10.380  0.8807  0.0883 -0.3216
  161MOL0     C21174   2.344   1.165  10.319  0.1558 -0.4466 -0.0405
  161MOL0     C21175   2.476   1.195  10.280 -0.3410  0.1534  0.8165
  161MOL0     C21176   2.570   1.106  10.267 -0.3007  0.0418  0.6878
  161MOL0     C21177   2.539   0.971  10.275 -0.3692 -0.4662  0.6796
  161MOL0     O21178   2.640   0.881  10.253 -0.1414  0.0718 -0.3749
  161MOL0     C21179   2.748   0.876  10.345 -0.2053  0.8600  0.3692
  161MOL0     C21180   2.892   0.887  10.273 -0.0707  0.6923 -0.8612
  161MOL0     C21181   2.927   0.769  10.183  0.3562  0.4578 -0.2278
  161MOL0     C21182   3.071   0.747  10.150 -0.6263 -0.7087 -0.4130
  161MOL0     C21183   3.127   0.873  10.111  0.1907 -0.7601 -0.3426
  161MOL0     C21184   3.155   0.991  10.076  0.5410  0.0081  0.7230
  161MOL0     C21185   2.412   0.931  10.308  0.3378  0.2166 -0.1125
  161MOL0     C21186   2.313   1.026  10.340  0.8326 -0.4574  0.2216
  161MOL0     H21187   1.920   1.156  10.205  2.5269 -1.0202  0.2360
  161MOL0     H21188   1.717   1.294  10.153 -0.7202 -0.5157  1.6124
  161MOL0     H21189   1.669   1.732  10.313 -3.3872  2.1016  0.0655
  161MOL0     H21190   1.619   1.596  10.419  1.4549 -3.3779 -1.5324
  161MOL0     H21191   1.410   1.699  10.370 -2.1486  0.6029 -1.9331
  161MOL0     H21192   1.414   1.574  10.256 -0.4438  0.2315 -1.8052
  161MOL0     H21193   1.487   1.715  10.064 -4.3688 -0.3208 -0.6256
  161MOL0     H21194   1.539   1.842  10.171 -0.0589 -1.0050  0.2570
  161MOL0     H21195   1.281   1.843  10.246  2.3718 -2.6607  1.3290
  161MOL0     H21196   1.357   1.936  10.106 -0.2140  0.7409  0.5333
  161MOL0     H21197   1.176   1.680  10.124  0.5087  0.0508  1.8985
  161MOL0     H21198   1.279   1.722   9.978 -1.1418  1.2102 -1.2474
  161MOL0     H21199   1.173   1.936   9.958 -1.6572  2.6368  1.6357
  161MOL0     H21200   1.082   1.912  10.109 -2.1879  2.3493 -1.0089
  161MOL0     H21201   1.042   1.727   9.871 -1.3789  0.2828  0.0597
  161MOL0     H21202   0.942   1.730  10.002 -0.6999 -0.2851 -2.1773
  161MOL0     H21203   0.976   1.930   9.785  0.0254 -2.0642  0.2128
  161MOL0     H21204   0.938   2.014   9.931  0.7936 -1.1378  2.0094
  161MOL0     H21205   0.734   1.959  10.080 -0.6557  0.8769 -0.7877
  161MOL0     H21206   0.482   1.917  10.149  1.4863  1.9283 -0.9374
  161MOL0     H21207   0.402   1.805  10.043 -1.7893  1.9611 -2.1116
  161MOL0     H21208   0.336   1.966   9.886  0.7632  0.6650 -0.7438
  161MOL0     H21209   0.449   2.084   9.942  0.5836 -0.2891  0.1400
  161MOL0     H21210   0.324   2.107  10.158 -0.0464 -1.1326 -0.1587
  161MOL0     H21211   0.226   2.138  10.006  1.4310  2.4598  2.0882
  161MOL0     H21212   0.228   1.885  10.173  2.2612  2.4175  0.9240
  161MOL0     H21213   0.158   1.894  10.018 -0.1688  1.9854 -0.3504
  161MOL0     H21214   0.039   1.810  10.299 -0.7146 -0.7317  1.5659
  161MOL0     H21215  -0.187   1.744  10.394 -2.5396 -0.0453 -0.2301
  161MOL0     H21216  -0.763   2.014  10.363  0.0838 -2.8609 -1.5597
  161MOL0     H21217  -0.929   1.973  10.519  0.7036  2.5144 -0.9150
  161MOL0     H21218  -0.799   1.755  10.911  1.2389  1.4403 -0.8971
  161MOL0     H21219  -0.959   1.823  10.961 -0.6148  1.6486  0.0037
  161MOL0     H21220  -0.903   2.024  10.974  0.3990  1.1648 -2.9444
  161MOL0     H21221  -0.741   2.019  10.919  0.2002 -1.6305 -0.7588
  161MOL0     H21222  -0.727   2.009  11.170  1.7864  0.6613 -3.3520
  161MOL0     H21223  -0.697   1.844  11.115 -1.0260 -0.9789 -1.4945
  161MOL0     H21224  -0.966   1.941  11.215  0.6118 -0.0084  2.3259
  161MOL0     H21225  -0.932   1.771  11.166  2.9032 -1.4650 -2.5549
  161MOL0     H21226  -0.839   1.947  11.400 -0.3408  0.5322  0.0191
  161MOL0     H21227  -0.751   1.795  11.362 -0.0109 -0.5727 -0.1754
  161MOL0     H21228  -0.903   1.744  11.539 -1.7030 -0.2607  0.4985
  161MOL0     H21229  -0.975   1.682  11.396 -2.5327 -0.0979  2.5857
  161MOL0     H21230  -1.117   1.869  11.361  3.9028 -2.2322 -2.1764
  161MOL0     H21231  -1.152   1.779  11.505  1.5963 -1.2100  2.4598
  161MOL0     H21232  -1.021   2.057  11.498  0.5277 -1.1799 -1.0474
  161MOL0     H21233  -1.009   1.950  11.635 -0.1628  0.6667  0.9134
  161MOL0     H21234  -0.636   1.814  10.797  0.9164 -0.7182 -0.6956
  161MOL0     H21235  -0.467   1.842  10.632 -0.4960 -0.6485  2.0072
  161MOL0     H21236  -0.356   2.074  10.167  0.7701  1.0989 -0.5453
  161MOL0     H21237  -0.142   2.120  10.085  2.9281 -0.9862 -1.4007
  161MOL0     H21238   1.871   1.621  10.386  0.6678  0.4360 -0.6208
  161MOL0     H21239   2.068   1.485  10.445 -0.4893 -1.2901  2.3425
  161MOL0     H21240   2.499   1.301  10.270  0.9726 -0.0246  1.8114
  161MOL0     H21241   2.667   1.151  10.250 -0.9116  2.1326  2.2536
  161MOL0     H21242   2.750   0.777  10.393 -0.4105  1.3844  1.4945
  161MOL0     H21243   2.735   0.955  10.420 -2.3038  2.0999 -1.1902
  161MOL0     H21244   2.895   0.985  10.224 -1.3575  1.2291  0.0761
  161MOL0     H21245   2.964   0.898  10.354  0.3426  0.4860 -1.1914
  161MOL0     H21246   2.866   0.778  10.092 -3.1794  0.3957  1.9454
  161MOL0     H21247   2.896   0.673  10.226 -1.3401  0.6088 -1.0144
  161MOL0     H21248   3.122   0.698  10.234 -2.6007 -2.5414 -0.1928
  161MOL0     H21249   3.077   0.676  10.067 -1.4989 -0.7321 -0.4651
  161MOL0     H21250   3.174   1.095  10.056  1.0244 -0.1084  0.5670
  161MOL0     H21251   2.392   0.828  10.334 -1.2787  1.2160  3.1415
  161MOL0     H21252   2.216   0.982  10.362  1.5683 -1.5379  1.4939
  162MOL0     O21253  10.411   7.382   9.449  0.7859  0.5236 -0.1056
  162MOL0     C21254  10.485   7.475   9.465 -1.3963  0.5488 -0.9359
  162MOL0     O21255  10.460   7.607   9.486  0.7588  0.7014  0.6233
  162MOL0     C21256  10.331   7.660   9.506 -0.7851  0.1530  0.0310
  162MOL0     C21257  10.203   7.592   9.497  0.7924 -0.6098 -1.0305
  162MOL0     C21258  10.083   7.655   9.515 -0.4971 -0.2278 -0.5660
  162MOL0     C21259  10.079   7.789   9.556 -0.3042  0.3899  0.1107
  162MOL0     O21260   9.975   7.865   9.591  0.4389 -0.3826  0.2275
  162MOL0     C21261   9.838   7.814   9.614  0.2523  0.7835  0.1203
  162MOL0     C21262   9.750   7.900   9.696  1.1647  0.4646 -0.1478
  162MOL0     C21263   9.730   8.048   9.660 -0.2074 -0.1914  0.2467
  162MOL0     C21264   9.659   8.115   9.780 -0.1407  0.1263  1.0502
  162MOL0     C21265   9.672   8.266   9.762 -0.9988 -0.2247  0.0470
  162MOL0     C21266   9.590   8.328   9.650  0.2049  0.0696  0.9625
  162MOL0     C21267   9.602   8.479   9.640  1.0519  0.9159 -1.3680
  162MOL0     C21268   9.528   8.558   9.750 -0.0430  0.9572 -0.3992
  162MOL0     N21269   9.380   8.553   9.740  0.0807 -0.6323  0.3307
  162MOL0     C21270   9.293   8.657   9.707  0.3905  0.5827 -0.1880
  162MOL0     C21271   9.172   8.622   9.753  0.2695  0.0291 -0.1644
  162MOL0     C21272   9.054   8.725   9.747  0.2062  1.0231 -0.1000
  162MOL0     C21273   8.922   8.657   9.752  0.3290  0.3053 -0.7860
  162MOL0     C21274   8.890   8.615   9.898 -0.1479 -0.0738 -0.8415
  162MOL0     C21275   8.749   8.584   9.929 -0.1310  0.5507  0.6831
  162MOL0     O21276   8.672   8.703   9.916 -0.4926  0.1274 -0.0198
  162MOL0     C21277   8.537   8.693   9.925 -0.8643  0.3017 -0.3423
  162MOL0     C21278   8.467   8.576   9.960  0.6524 -0.8417 -0.1570
  162MOL0     C21279   8.327   8.566   9.958  0.5376 -0.6734  0.2633
  162MOL0     C21280   8.256   8.683   9.917 -0.2126  1.6217 -0.0587
  162MOL0     C21281   8.110   8.686   9.893 -0.3347 -0.2459 -0.1520
  162MOL0     O21282   8.039   8.571   9.903 -0.6081 -0.3773 -0.2704
  162MOL0     C21283   7.904   8.561   9.875 -0.7926 -0.0682  0.7711
  162MOL0     C21284   7.797   8.646   9.921  0.7303 -0.7253 -0.8121
  162MOL0     C21285   7.662   8.619   9.898  0.8748 -0.7173  0.3126
  162MOL0     C21286   7.626   8.518   9.811 -0.5754  0.4921 -0.0047
  162MOL0     O21287   7.494   8.515   9.795  0.0994  0.4434  1.0865
  162MOL0     C21288   7.439   8.413   9.713 -0.5424  0.5573  0.5715
  162MOL0     C21289   7.287   8.409   9.726 -0.2635 -0.4439  0.7319
  162MOL0     C21290   7.238   8.301   9.827 -0.0640 -1.2221  0.2726
  162MOL0     C21291   7.086   8.284   9.840  0.2415 -0.1426  0.3411
  162MOL0     C21292   7.057   8.166   9.925  0.0543  0.5655  0.1555
  162MOL0     C21293   6.973   8.061   9.850 -0.6392 -0.3320 -0.1705
  162MOL0     C21294   7.069   7.967   9.772  0.3436 -0.3111 -0.5186
  162MOL0     C21295   7.122   7.851   9.854  0.1699  0.8803 -0.4160
  162MOL0    Cl21296   7.209   7.742   9.767  0.3615  0.1065  0.1873
  162MOL0     C21297   7.725   8.441   9.744  0.2392 -0.1998  0.1415
  162MOL0     C21298   7.857   8.458   9.782 -0.6377  0.4104 -0.0089
  162MOL0     O21299   8.064   8.792   9.855 -0.8819 -0.4486  0.4467
  162MOL0     C21300   8.331   8.797   9.891 -0.2346  0.1114 -0.5703
  162MOL0     C21301   8.468   8.804   9.891  0.4623 -0.1400 -0.4563
  162MOL0     N21302   9.179   8.496   9.806  0.1551 -0.7531 -0.4602
  162MOL0     N21303   9.308   8.464   9.801  0.7284 -0.6989  0.1269
  162MOL0     C21304  10.204   7.851   9.572  0.2584 -0.2214 -0.3266
  162MOL0     C21305  10.329   7.792   9.549  0.3212  0.2172 -0.6194
  162MOL0     C21306  10.629   7.459   9.442 -0.4753 -0.8981 -0.1790
  162MOL0     C21307  10.670   7.329   9.412 -0.6299  0.5190 -0.2402
  162MOL0     C21308  10.803   7.302   9.387 -1.2530  0.3402 -0.4420
  162MOL0     C21309  10.896   7.398   9.384 -0.2567  0.0528  0.8312
  162MOL0     O21310  11.022   7.356   9.362 -0.0483  0.7453  0.6458
  162MOL0     C21311  11.131   7.421   9.420  0.2705  0.6428 -0.9282
  162MOL0     C21312  11.253   7.333   9.388 -0.4595 -0.9429 -0.0229
  162MOL0     C21313  11.382   7.407   9.412 -0.8571 -0.2192 -0.3287
  162MOL0     C21314  11.506   7.325   9.368 -0.1821  0.2142 -0.3387
  162MOL0     C21315  11.632   7.398   9.398 -0.2283 -0.5344 -0.1003
  162MOL0     C21316  11.740   7.451   9.407 -1.2502 -0.6239  0.0884
  162MOL0     C21317  10.860   7.529   9.417  0.7863  0.1199  0.4569
  162MOL0     C21318  10.724   7.563   9.446 -0.7288 -0.7733  0.1434
  162MOL0     H21319  10.200   7.484   9.483  0.5580 -0.5977 -1.0776
  162MOL0     H21320   9.996   7.599   9.484  0.9973 -1.1995 -3.3729
  162MOL0     H21321   9.845   7.714   9.657  0.0687  0.0643 -1.4668
  162MOL0     H21322   9.797   7.795   9.515  1.8560 -1.8776 -0.1245
  162MOL0     H21323   9.779   7.889   9.801 -0.2593 -2.8826  0.0154
  162MOL0     H21324   9.650   7.855   9.698  0.4495  2.0072  0.4810
  162MOL0     H21325   9.682   8.069   9.564  0.2080 -0.1562  0.0430
  162MOL0     H21326   9.831   8.091   9.658 -0.8140  1.3726  1.2415
  162MOL0     H21327   9.564   8.075   9.819 -0.1016 -0.2955  0.7233
  162MOL0     H21328   9.713   8.102   9.874 -2.8224 -0.2391  2.6645
  162MOL0     H21329   9.778   8.283   9.746 -0.8642 -0.8403  0.2755
  162MOL0     H21330   9.636   8.311   9.855 -3.5033  0.8615 -1.3395
  162MOL0     H21331   9.484   8.305   9.664 -0.8230  3.2720 -0.6149
  162MOL0     H21332   9.621   8.291   9.552 -1.6818  1.2180 -0.1524
  162MOL0     H21333   9.708   8.502   9.652  0.5970  1.9593  1.1352
  162MOL0     H21334   9.569   8.517   9.542  0.7814 -2.3660 -2.6892
  162MOL0     H21335   9.566   8.660   9.752  2.3484  0.0992  1.0036
  162MOL0     H21336   9.568   8.508   9.839 -1.2770  1.1143  0.2697
  162MOL0     H21337   9.324   8.747   9.656  0.8439 -0.3608 -1.6467
  162MOL0     H21338   9.051   8.782   9.654 -3.3738 -0.5570 -1.1497
  162MOL0     H21339   9.073   8.799   9.825  2.4654  2.4476 -1.8833
  162MOL0     H21340   8.911   8.575   9.680  1.8072 -0.6749  0.0337
  162MOL0     H21341   8.839   8.714   9.710  1.9685  0.4262 -4.1661
  162MOL0     H21342   8.951   8.525   9.912  4.2214  2.8156  0.7694
  162MOL0     H21343   8.926   8.690   9.969  0.5024 -1.4309  0.3255
  162MOL0     H21344   8.736   8.548  10.032 -0.0103 -1.9191 -0.0920
  162MOL0     H21345   8.711   8.507   9.861 -0.4462 -0.2160  1.6946
  162MOL0     H21346   8.516   8.483   9.989  0.7822 -1.3006 -1.7287
  162MOL0     H21347   8.282   8.469   9.969  2.3127 -1.4742  0.8687
  162MOL0     H21348   7.824   8.730   9.984 -2.7524 -0.4524  0.5136
  162MOL0     H21349   7.589   8.685   9.943  0.1538  1.5477 -3.6260
  162MOL0     H21350   7.475   8.313   9.739 -0.4712 -0.0145 -1.5029
  162MOL0     H21351   7.469   8.423   9.608 -0.7813 -2.3872  0.1416
  162MOL0     H21352   7.245   8.395   9.626  2.1165 -0.3506 -0.3570
  162MOL0     H21353   7.250   8.509   9.750  0.5970  0.5817 -1.8649
  162MOL0     H21354   7.265   8.323   9.931 -0.1687  0.0513  0.0520
  162MOL0     H21355   7.276   8.202   9.801 -1.5951 -1.7145 -0.1999
  162MOL0     H21356   7.048   8.375   9.888  2.9638  1.7474 -0.8208
  162MOL0     H21357   7.047   8.276   9.738 -1.0355 -4.1021  0.9799
  162MOL0     H21358   6.997   8.205  10.007 -1.9550  0.2473 -1.0710
  162MOL0     H21359   7.145   8.114   9.963 -0.1417 -0.2590 -0.4772
  162MOL0     H21360   6.904   8.114   9.783  0.1859 -0.9014 -1.4940
  162MOL0     H21361   6.919   7.998   9.922 -2.2031  0.4197 -0.6284
  162MOL0     H21362   7.021   7.919   9.686  1.2637  1.7117 -2.2585
  162MOL0     H21363   7.152   8.021   9.726  1.1587  0.7978  2.0998
  162MOL0     H21364   7.041   7.788   9.890 -0.0348 -0.3252 -2.8140
  162MOL0     H21365   7.183   7.885   9.938 -0.0881  0.6818 -0.1479
  162MOL0     H21366   7.691   8.367   9.672  1.0550 -0.3130 -0.1303
  162MOL0     H21367   7.936   8.393   9.746 -2.7315 -3.1242  1.2568
  162MOL0     H21368   8.277   8.884   9.854 -2.6471 -1.4702 -1.0406
  162MOL0     H21369   8.515   8.901   9.881  0.3819  0.2242  1.9830
  162MOL0     H21370  10.201   7.948   9.621  0.7344 -0.2326 -0.2653
  162MOL0     H21371  10.425   7.840   9.563  0.0666  0.0461  2.3949
  162MOL0     H21372  10.600   7.247   9.413  1.9624 -1.8424  0.8858
  162MOL0     H21373  10.831   7.200   9.364  0.2395  0.4902  0.5732
  162MOL0     H21374  11.118   7.432   9.528  2.7588  1.8628 -0.6787
  162MOL0     H21375  11.149   7.515   9.367  1.1100 -0.0939 -2.0204
  162MOL0     H21376  11.257   7.235   9.437  1.2735  0.3910  2.7427
  162MOL0     H21377  11.250   7.311   9.281  1.5091 -0.0588 -0.3040
  162MOL0     H21378  11.398   7.439   9.515  0.0451 -1.6341  0.0030
  162MOL0     H21379  11.383   7.498   9.351  1.6305 -0.4841 -0.8135
  162MOL0     H21380  11.493   7.229   9.420 -1.0943  0.6357  0.2455
  162MOL0     H21381  11.498   7.301   9.261 -0.8772  1.7274 -0.6503
  162MOL0     H21382  11.826   7.513   9.419  0.0561 -2.3338 -0.1288
  162MOL0     H21383  10.935   7.607   9.416  1.3138 -0.3149 -2.2726
  162MOL0     H21384  10.704   7.669   9.453 -3.2852 -1.0507 -1.6614
  163MOL0     O21385   9.862  10.009  10.497 -0.2817  0.4861  0.7971
  163MOL0     C21386   9.792  10.014  10.597  0.6893  0.1143 -1.1424
  163MOL0     O21387   9.801  10.102  10.705  0.2073  0.2032  0.2046
  163MOL0     C21388   9.904  10.193  10.719 -0.3054  0.2122  0.2992
  163MOL0     C21389  10.025  10.213  10.643 -0.3280  1.5818  0.5578
  163MOL0     C21390  10.121  10.314  10.667  0.2219  0.4016  0.3890
  163MOL0     C21391  10.087  10.414  10.752  0.4453 -0.0785  0.1955
  163MOL0     O21392  10.181  10.510  10.783  0.1170 -0.4154 -0.0096
  163MOL0     C21393  10.182  10.582  10.910  1.5730 -0.3518 -0.3686
  163MOL0     C21394  10.304  10.675  10.918 -0.3674  0.3988 -0.7259
  163MOL0     C21395  10.288  10.804  10.824 -0.2630 -0.1536  0.3485
  163MOL0     C21396  10.426  10.869  10.804  0.7524 -0.5733 -0.4450
  163MOL0     C21397  10.427  11.023  10.786  0.6871 -0.0659  0.0411
  163MOL0     C21398  10.332  11.085  10.677 -0.9389  0.5248  0.5268
  163MOL0     C21399  10.370  11.045  10.534  0.0013  0.2108 -0.2192
  163MOL0     C21400  10.482  11.137  10.484 -0.7097  0.7328  0.1806
  163MOL0     N21401  10.441  11.270  10.438 -0.2402 -0.3292 -0.4386
  163MOL0     C21402  10.357  11.292  10.335  0.5878 -0.4381  1.5019
  163MOL0     C21403  10.344  11.424  10.333 -0.0191 -0.0536  0.8939
  163MOL0     C21404  10.271  11.513  10.237  0.0675  0.3243 -0.1602
  163MOL0     C21405  10.348  11.636  10.185 -0.2413  0.3740  0.0193
  163MOL0     C21406  10.271  11.732  10.084 -0.0585 -0.4695 -0.0134
  163MOL0     C21407  10.176  11.822  10.166 -0.3419  0.2988  0.2216
  163MOL0     O21408  10.063  11.757  10.221  0.6704  0.1971 -0.2789
  163MOL0     C21409   9.957  11.725  10.142  0.8482  0.5837  0.3775
  163MOL0     C21410   9.943  11.750  10.000  0.2270 -0.6258 -0.2569
  163MOL0     C21411   9.831  11.702   9.930 -0.2994  0.6366 -0.2878
  163MOL0     C21412   9.718  11.653   9.997 -0.4515  0.4199 -0.1030
  163MOL0     C21413   9.598  11.615   9.927  0.5606 -0.3066  0.0735
  163MOL0     O21414   9.501  11.556   9.997  0.1293 -0.2928  0.3732
  163MOL0     C21415   9.385  11.526   9.924 -0.2345  0.3706 -0.9465
  163MOL0     C21416   9.320  11.639   9.872 -0.5483 -0.0244 -0.4957
  163MOL0     C21417   9.203  11.619   9.808  1.1399  0.2967 -0.2662
  163MOL0     C21418   9.156  11.487   9.780 -0.1464 -0.0831  0.8072
  163MOL0     O21419   9.048  11.470   9.702  0.2412  0.2753 -0.4983
  163MOL0     C21420   8.918  11.479   9.768 -0.4646 -0.7047 -0.2990
  163MOL0     C21421   8.831  11.355   9.738 -0.7536 -0.4500 -0.5365
  163MOL0     C21422   8.689  11.368   9.791 -0.8308 -0.0119 -0.6677
  163MOL0     C21423   8.602  11.253   9.753  0.8262 -0.0312 -1.0696
  163MOL0     C21424   8.443  11.279   9.774  0.0005 -0.3584  0.2503
  163MOL0     C21425   8.407  11.281   9.924  0.6317  0.3836  0.6112
  163MOL0     C21426   8.259  11.282   9.938 -0.2723  0.9449  0.0309
  163MOL0     C21427   8.195  11.154   9.891  0.9515 -0.2666  0.0310
  163MOL0    Cl21428   8.020  11.158   9.905 -0.0025 -0.5198  0.6267
  163MOL0     C21429   9.225  11.379   9.833  0.6196 -0.2420 -0.2009
  163MOL0     C21430   9.343  11.397   9.906  0.5126  1.2057 -0.0051
  163MOL0     O21431   9.602  11.623   9.803  0.1027 -0.2234  1.0535
  163MOL0     C21432   9.729  11.633  10.142 -0.5462 -0.1826  0.3913
  163MOL0     C21433   9.849  11.662  10.213  0.9140 -0.1179  0.5293
  163MOL0     N21434  10.409  11.478  10.439 -0.0478  0.2184  0.5414
  163MOL0     N21435  10.469  11.387  10.506  0.2344  0.7252 -0.0365
  163MOL0     C21436   9.966  10.411  10.823  0.9660  0.6078 -0.1558
  163MOL0     C21437   9.877  10.305  10.803 -0.4888  0.2638  0.0449
  163MOL0     C21438   9.678   9.923  10.604  0.9222  0.5717 -0.5159
  163MOL0     C21439   9.573   9.950  10.695  0.8806 -0.2986 -0.4744
  163MOL0     C21440   9.468   9.856  10.700  0.2039 -0.9011  0.4451
  163MOL0     C21441   9.461   9.747  10.619  0.6689 -0.3301 -1.3206
  163MOL0     O21442   9.342   9.673  10.627 -0.8247 -0.4233 -0.3191
  163MOL0     C21443   9.305   9.594  10.512 -0.0671  0.4999  0.6034
  163MOL0     C21444   9.183   9.503  10.545 -0.8888 -0.6296 -0.0734
  163MOL0     C21445   9.067   9.586  10.606 -0.4137 -0.0604 -0.1468
  163MOL0     C21446   8.953   9.499  10.642 -0.5935 -0.0416  0.3160
  163MOL0     C21447   8.864   9.485  10.518 -0.1604 -0.2297  0.5346
  163MOL0     C21448   8.793   9.505  10.427  0.0938 -0.2799 -1.1561
  163MOL0     C21449   9.565   9.721  10.538 -0.8711 -0.5874 -0.5643
  163MOL0     C21450   9.670   9.814  10.519 -0.0298  0.5995  0.1053
  163MOL0     H21451  10.069  10.137  10.578  3.0050  0.5192  3.7399
  163MOL0     H21452  10.217  10.304  10.617  2.2374 -3.1242  4.2732
  163MOL0     H21453  10.176  10.519  10.999  0.4835  2.8907  2.0606
  163MOL0     H21454  10.092  10.642  10.930  0.9668 -2.3137  3.9783
  163MOL0     H21455  10.393  10.616  10.894 -0.9265 -0.8230  0.0969
  163MOL0     H21456  10.324  10.705  11.022  0.5597 -0.9278 -0.4979
  163MOL0     H21457  10.226  10.876  10.878  0.6075 -1.7450  3.7701
  163MOL0     H21458  10.244  10.778  10.727 -1.7094 -0.2509  1.0086
  163MOL0     H21459  10.488  10.850  10.893  2.5602  2.4637 -0.9150
  163MOL0     H21460  10.489  10.818  10.730  2.6523 -0.7585  1.2088
  163MOL0     H21461  10.524  11.069  10.764 -0.9005  3.8124  0.3133
  163MOL0     H21462  10.395  11.071  10.879  0.3048  2.1689 -1.1583
  163MOL0     H21463  10.331  11.194  10.681 -1.3990  0.5378  0.2192
  163MOL0     H21464  10.230  11.050  10.700 -3.6366  5.0211 -2.9970
  163MOL0     H21465  10.415  10.946  10.524 -0.7864 -0.2722  0.8239
  163MOL0     H21466  10.283  11.058  10.469  1.5898  2.0535 -2.1149
  163MOL0     H21467  10.525  11.094  10.393  0.6099  3.4670 -0.5795
  163MOL0     H21468  10.554  11.153  10.566 -1.3605  0.0412  0.9100
  163MOL0     H21469  10.313  11.231  10.257  0.5848  0.9912  0.3418
  163MOL0     H21470  10.181  11.542  10.291 -1.6770 -1.0921 -2.1153
  163MOL0     H21471  10.227  11.455  10.154  1.6013  0.6438 -1.2487
  163MOL0     H21472  10.430  11.594  10.126 -1.2564 -0.7034 -0.6771
  163MOL0     H21473  10.397  11.694  10.264  2.6445 -2.2718  0.3797
  163MOL0     H21474  10.338  11.794  10.023 -2.1713  2.1259  0.0859
  163MOL0     H21475  10.208  11.671  10.019 -2.1559 -0.1533  1.6280
  163MOL0     H21476  10.133  11.910  10.119 -3.7529 -1.5128 -0.3516
  163MOL0     H21477  10.238  11.856  10.249  1.1339 -1.0291 -0.2925
  163MOL0     H21478  10.033  11.779   9.948  1.0130 -0.4756  1.1221
  163MOL0     H21479   9.853  11.693   9.824  1.8248 -0.5177  0.2136
  163MOL0     H21480   9.353  11.737   9.903  2.2149 -1.1137  0.3211
  163MOL0     H21481   9.158  11.711   9.771  1.0294  0.8985  1.2911
  163MOL0     H21482   8.870  11.564   9.719 -0.2939 -0.3972  0.0600
  163MOL0     H21483   8.933  11.500   9.874 -0.4109  2.9317 -0.9114
  163MOL0     H21484   8.882  11.268   9.780 -3.4977 -1.4045  1.0334
  163MOL0     H21485   8.823  11.340   9.630 -0.5157  2.1712 -0.9922
  163MOL0     H21486   8.639  11.460   9.761 -1.6934  0.3589  1.7549
  163MOL0     H21487   8.694  11.358   9.899  3.6927 -4.0468 -0.8927
  163MOL0     H21488   8.609  11.241   9.645 -2.4072  0.5153 -1.4541
  163MOL0     H21489   8.624  11.161   9.808 -2.9642 -0.8225 -0.5918
  163MOL0     H21490   8.404  11.192   9.719  1.6486 -0.5125 -0.7501
  163MOL0     H21491   8.411  11.376   9.736  0.9065  0.6755  2.0052
  163MOL0     H21492   8.450  11.372   9.965  0.6503  0.3133  0.7469
  163MOL0     H21493   8.450  11.194   9.976  1.7911  0.4784 -0.1581
  163MOL0     H21494   8.225  11.276  10.042 -4.3950 -1.1669 -1.2373
  163MOL0     H21495   8.211  11.368   9.891 -1.8610  1.5292  2.4831
  163MOL0     H21496   8.238  11.070   9.946  2.6462  2.0141  2.4271
  163MOL0     H21497   8.219  11.141   9.785 -0.4139 -0.6758 -0.2545
  163MOL0     H21498   9.184  11.280   9.816  0.9331 -0.4788  0.4115
  163MOL0     H21499   9.384  11.312   9.959 -0.2163  1.3528  0.8364
  163MOL0     H21500   9.646  11.591  10.198 -2.0456  2.1455  0.0045
  163MOL0     H21501   9.859  11.635  10.318 -0.8387 -0.7899  0.5549
  163MOL0     H21502   9.925  10.478  10.898  0.8570  0.1359  0.2102
  163MOL0     H21503   9.789  10.309  10.866  0.1824 -0.0712  1.0343
  163MOL0     H21504   9.588  10.024  10.774  1.9684 -2.3506  1.3419
  163MOL0     H21505   9.390   9.869  10.774  2.1453  3.7253  2.0747
  163MOL0     H21506   9.390   9.534  10.479  0.3326 -0.1503  2.6340
  163MOL0     H21507   9.276   9.658  10.428  1.0646  0.7992  0.4209
  163MOL0     H21508   9.154   9.445  10.457  0.7659 -1.8146  0.1186
  163MOL0     H21509   9.217   9.429  10.619  1.9981  1.5718  0.9838
  163MOL0     H21510   9.039   9.664  10.535  0.8760 -1.1586 -1.9483
  163MOL0     H21511   9.102   9.631  10.699  0.4606 -3.7157  1.4759
  163MOL0     H21512   8.992   9.405  10.683  0.7242  1.6673  3.2315
  163MOL0     H21513   8.902   9.534  10.732 -1.5392  0.4417 -0.3908
  163MOL0     H21514   8.733   9.514  10.338 -1.0421 -0.8900 -0.4790
  163MOL0     H21515   9.571   9.640  10.466 -0.1342 -0.6709 -0.4199
  163MOL0     H21516   9.736   9.778  10.441  0.6083  1.7880  0.0747
  164MOL0     O21517   6.491   7.265   0.479 -0.0986 -0.5948  0.3986
  164MOL0     C21518   6.473   7.282   0.598  0.1017  0.4777 -1.0330
  164MOL0     O21519   6.355   7.324   0.651  0.0874  0.6556 -0.3698
  164MOL0     C21520   6.247   7.350   0.577  0.7348 -0.8558 -0.1126
  164MOL0     C21521   6.123   7.285   0.612  0.1272  0.3045  0.5057
  164MOL0     C21522   6.006   7.295   0.531 -0.0379 -0.2759  0.1564
  164MOL0     C21523   6.009   7.391   0.422  0.0333 -0.4174 -0.3981
  164MOL0     O21524   5.896   7.426   0.344  0.3287 -0.4550 -0.1219
  164MOL0     C21525   5.771   7.372   0.382 -0.1001 -0.5572 -0.3611
  164MOL0     C21526   5.721   7.422   0.519  0.4304  0.3741  0.3366
  164MOL0     C21527   5.598   7.339   0.566 -0.4834 -0.3504  0.0055
  164MOL0     C21528   5.544   7.389   0.698  0.8419 -0.1415  1.7086
  164MOL0     C21529   5.496   7.539   0.702 -0.2615  0.3642 -0.5178
  164MOL0     C21530   5.367   7.549   0.625  0.3400 -0.4255 -0.0771
  164MOL0     C21531   5.322   7.697   0.623  0.1047 -0.4152 -0.6304
  164MOL0     C21532   5.200   7.730   0.546  0.2173 -0.6811  0.1204
  164MOL0     N21533   5.195   7.690   0.403 -0.1501  0.6889  0.0926
  164MOL0     C21534   5.089   7.616   0.355  0.2008  0.5953  0.7759
  164MOL0     C21535   5.123   7.594   0.229  0.1083  0.8066  0.4705
  164MOL0     C21536   5.019   7.543   0.130  0.1662 -1.0826 -0.3845
  164MOL0     C21537   5.059   7.557  -0.019  0.3117  0.4873  0.4345
  164MOL0     C21538   4.942   7.544  -0.113 -0.1613 -0.1132  0.0861
  164MOL0     C21539   4.987   7.613  -0.248  0.3060 -0.5317  0.3869
  164MOL0     O21540   4.889   7.609  -0.358 -0.1816  0.9792 -0.0539
  164MOL0     C21541   4.777   7.700  -0.361  0.9229 -0.4934  0.1562
  164MOL0     C21542   4.761   7.809  -0.273 -0.8992 -0.5455 -0.1509
  164MOL0     C21543   4.664   7.900  -0.282  0.9660 -0.3302  0.4668
  164MOL0     C21544   4.578   7.896  -0.400  0.9910 -0.7294 -0.1834
  164MOL0     C21545   4.463   7.999  -0.414 -1.1354 -0.7834  0.9179
  164MOL0     O21546   4.454   8.083  -0.305  0.0093 -0.6056  0.1057
  164MOL0     C21547   4.327   8.147  -0.272 -0.7613  0.0634  0.1957
  164MOL0     C21548   4.342   8.238  -0.173 -0.9001  0.6044 -0.0543
  164MOL0     C21549   4.243   8.300  -0.099 -0.2820  0.6714  0.8762
  164MOL0     C21550   4.114   8.269  -0.137  0.1539 -0.8648  0.5056
  164MOL0     O21551   4.011   8.343  -0.075 -0.6749  0.4876 -0.3356
  164MOL0     C21552   3.879   8.328  -0.112 -0.0718  0.3106  0.6216
  164MOL0     C21553   3.800   8.424  -0.032  0.0175 -0.3245  1.2734
  164MOL0     C21554   3.645   8.400  -0.039 -0.6444 -0.4028  0.1712
  164MOL0     C21555   3.588   8.449   0.097 -0.3957  0.2376  0.8128
  164MOL0     C21556   3.439   8.434   0.126  0.0269 -0.0637  0.7424
  164MOL0     C21557   3.396   8.435   0.268  0.9540  0.2120 -0.0589
  164MOL0     C21558   3.246   8.462   0.273 -0.5187 -0.9465 -0.9981
  164MOL0     C21559   3.146   8.364   0.202  0.0587 -0.2154 -0.1284
  164MOL0    Cl21560   2.989   8.424   0.216  0.5050 -0.3157 -0.2787
  164MOL0     C21561   4.095   8.174  -0.246  0.7189 -0.4552  0.1559
  164MOL0     C21562   4.201   8.112  -0.308  0.2483 -0.4578  0.5208
  164MOL0     O21563   4.390   8.004  -0.518  0.7053 -0.4605  0.0329
  164MOL0     C21564   4.586   7.791  -0.486  1.4234  0.5218 -1.1526
  164MOL0     C21565   4.676   7.692  -0.468 -0.2215 -0.0551 -0.4394
  164MOL0     N21566   5.246   7.656   0.199  0.1486 -0.8179 -1.1218
  164MOL0     N21567   5.295   7.708   0.306 -0.2286  0.0435  0.5892
  164MOL0     C21568   6.125   7.463   0.392 -0.0550 -0.0808 -0.2007
  164MOL0     C21569   6.247   7.439   0.471  0.1313 -0.1177 -0.7966
  164MOL0     C21570   6.584   7.257   0.698 -0.0087  0.3887 -1.1141
  164MOL0     C21571   6.711   7.244   0.658 -0.9933  0.3662  0.7737
  164MOL0     C21572   6.821   7.222   0.739  0.4932  0.8886 -0.7776
  164MOL0     C21573   6.801   7.212   0.876  0.0225  0.1998  0.1817
  164MOL0     O21574   6.911   7.188   0.952 -0.1421 -0.4560 -0.4414
  164MOL0     C21575   7.041   7.188   0.900  1.1105  0.1298  0.0351
  164MOL0     C21576   7.135   7.192   1.018  0.0852 -0.8432 -0.6999
  164MOL0     C21577   7.281   7.156   0.986 -0.8453 -0.6848  0.4293
  164MOL0     C21578   7.366   7.092   1.099 -0.0291  0.1758 -0.1101
  164MOL0     C21579   7.396   7.190   1.202 -0.3076  0.4992  0.6202
  164MOL0     C21580   7.424   7.276   1.278 -0.9294 -0.6931 -0.1510
  164MOL0     C21581   6.669   7.223   0.922 -0.6204  0.8636 -0.4400
  164MOL0     C21582   6.558   7.250   0.837 -1.2975  0.4030  0.7304
  164MOL0     H21583   6.130   7.213   0.693 -1.0878 -0.0860  0.2795
  164MOL0     H21584   5.912   7.248   0.559 -1.8761  2.0707 -1.6615
  164MOL0     H21585   5.784   7.264   0.376  0.6195 -0.3930 -3.2680
  164MOL0     H21586   5.694   7.401   0.309  0.0404  2.8524  0.6746
  164MOL0     H21587   5.710   7.531   0.519 -0.2181  0.3177  0.4444
  164MOL0     H21588   5.793   7.406   0.600  0.5114  2.0574  0.6223
  164MOL0     H21589   5.622   7.232   0.575 -3.1910 -0.8644  5.6638
  164MOL0     H21590   5.525   7.354   0.486 -1.0640 -0.7304  0.4486
  164MOL0     H21591   5.464   7.323   0.731 -0.7129  0.2260 -1.0375
  164MOL0     H21592   5.624   7.405   0.771  0.8195 -0.7920  1.8772
  164MOL0     H21593   5.563   7.604   0.645  0.2476 -0.4280 -0.8441
  164MOL0     H21594   5.484   7.577   0.804 -1.9721 -3.8265  1.0683
  164MOL0     H21595   5.295   7.490   0.682  2.1022 -1.0141  1.6697
  164MOL0     H21596   5.370   7.510   0.523  0.8108 -1.4805  0.3240
  164MOL0     H21597   5.302   7.730   0.725 -2.0783  2.4353 -1.8318
  164MOL0     H21598   5.402   7.752   0.572 -0.5518  0.9403 -0.2387
  164MOL0     H21599   5.183   7.837   0.559 -2.6246 -1.1685  1.2267
  164MOL0     H21600   5.110   7.690   0.594 -2.4911  3.4133 -1.0234
  164MOL0     H21601   5.001   7.580   0.407 -0.0092  1.0439  0.7407
  164MOL0     H21602   4.927   7.598   0.152 -0.0300 -1.7814  0.6130
  164MOL0     H21603   4.992   7.441   0.157  0.6182 -0.6575  1.8589
  164MOL0     H21604   5.139   7.492  -0.055 -0.6575 -1.4839  1.6036
  164MOL0     H21605   5.097   7.659  -0.024  1.4714  0.3097  3.6457
  164MOL0     H21606   4.915   7.439  -0.130  0.3875 -0.4585  1.2507
  164MOL0     H21607   4.863   7.608  -0.073  0.9017  4.1250 -3.7487
  164MOL0     H21608   5.076   7.562  -0.286  1.4958  0.7716  1.3050
  164MOL0     H21609   5.018   7.716  -0.229  0.2297 -0.2081 -1.0818
  164MOL0     H21610   4.835   7.835  -0.198 -1.9216  0.0897  0.6667
  164MOL0     H21611   4.648   7.980  -0.210  0.8490 -1.6107  1.9088
  164MOL0     H21612   4.444   8.268  -0.151 -0.6980 -0.5935  0.7287
  164MOL0     H21613   4.272   8.373  -0.024  2.5682 -0.3240  0.8463
  164MOL0     H21614   3.845   8.229  -0.083 -0.0356  0.0768 -0.1317
  164MOL0     H21615   3.863   8.334  -0.220  3.6205 -0.2935 -0.1040
  164MOL0     H21616   3.819   8.523  -0.073 -0.3552 -1.1581 -1.0818
  164MOL0     H21617   3.840   8.417   0.070 -2.4257  3.8784  2.7330
  164MOL0     H21618   3.631   8.292  -0.048 -0.9993 -0.2239 -1.8166
  164MOL0     H21619   3.607   8.451  -0.128  2.7885 -2.2366 -2.5867
  164MOL0     H21620   3.641   8.397   0.178  0.2544  1.6423  1.3340
  164MOL0     H21621   3.611   8.556   0.110  0.2935  0.0603  1.0926
  164MOL0     H21622   3.402   8.340   0.086 -1.8234  1.2175 -0.7495
  164MOL0     H21623   3.394   8.518   0.071  2.0878  1.2023  0.8559
  164MOL0     H21624   3.452   8.509   0.326 -1.3783  1.0903  1.2144
  164MOL0     H21625   3.415   8.340   0.319 -3.5425 -0.2774  1.1552
  164MOL0     H21626   3.216   8.458   0.379 -0.4311 -1.7331 -1.0000
  164MOL0     H21627   3.227   8.565   0.240 -0.8630 -0.5303  0.4095
  164MOL0     H21628   3.151   8.262   0.240 -0.6170 -1.1463 -2.3643
  164MOL0     H21629   3.167   8.363   0.094  2.1349 -1.3046  0.2233
  164MOL0     H21630   4.002   8.126  -0.275  1.6360 -3.6641  2.0649
  164MOL0     H21631   4.178   8.036  -0.382 -1.8021 -0.3377  0.9863
  164MOL0     H21632   4.514   7.775  -0.565  0.7905 -2.8754 -0.0309
  164MOL0     H21633   4.673   7.611  -0.541  0.2437  1.4674 -2.2121
  164MOL0     H21634   6.129   7.532   0.308 -1.0031 -1.4335 -1.4121
  164MOL0     H21635   6.337   7.494   0.444 -0.2547  1.4739  0.9475
  164MOL0     H21636   6.721   7.230   0.551 -1.4683 -1.2195  0.9044
  164MOL0     H21637   6.922   7.215   0.699  1.5502  2.1370  1.4880
  164MOL0     H21638   7.069   7.262   0.824  0.5259 -2.2276 -2.6794
  164MOL0     H21639   7.061   7.091   0.854 -2.1722  0.1934 -1.9040
  164MOL0     H21640   7.131   7.282   1.079  0.9144 -1.0797 -0.2741
  164MOL0     H21641   7.095   7.116   1.087 -1.3125 -0.9582 -1.6121
  164MOL0     H21642   7.320   7.251   0.948 -2.1922 -0.4041 -0.3409
  164MOL0     H21643   7.285   7.084   0.904  3.2920 -0.9428  0.6515
  164MOL0     H21644   7.309   7.006   1.135  1.7870 -0.0187  2.6513
  164MOL0     H21645   7.462   7.060   1.056 -0.3521  1.5844 -1.9903
  164MOL0     H21646   7.448   7.334   1.365 -2.9452  0.4297 -0.3052
  164MOL0     H21647   6.654   7.217   1.029  1.1687 -2.9330 -0.2407
  164MOL0     H21648   6.463   7.268   0.886 -1.8031 -1.3798  0.4616
  165MOL0     O21649   9.118   7.252   9.701  0.2478  0.1904 -0.0708
  165MOL0     C21650   9.127   7.376   9.686 -0.2211  0.5753 -0.1639
  165MOL0     O21651   9.225   7.452   9.734  0.1193  0.4053  0.1059
  165MOL0     C21652   9.354   7.409   9.758  0.0669 -0.4037  0.1707
  165MOL0     C21653   9.454   7.505   9.786  0.0324 -0.0785  0.8447
  165MOL0     C21654   9.592   7.472   9.787  1.0832 -0.6428 -0.4258
  165MOL0     C21655   9.638   7.344   9.780  1.1328  0.5410  0.5078
  165MOL0     O21656   9.764   7.324   9.819 -0.3671  0.2122 -0.3625
  165MOL0     C21657   9.826   7.202   9.793  0.0308 -0.2999  0.0501
  165MOL0     C21658   9.967   7.217   9.852  0.4405  1.0748 -0.5602
  165MOL0     C21659  10.054   7.094   9.839 -0.0268  0.0604  0.9218
  165MOL0     C21660  10.202   7.134   9.812  0.2907  0.4569  0.6174
  165MOL0     C21661  10.304   7.013   9.819  0.2729 -0.1484 -0.4295
  165MOL0     C21662  10.441   7.062   9.855  0.3852 -1.0352 -0.2530
  165MOL0     C21663  10.527   6.951   9.908 -0.3440  0.1820  0.1930
  165MOL0     C21664  10.517   6.811   9.845  0.3044  0.3453  0.7382
  165MOL0     N21665  10.620   6.715   9.886  0.3209  0.1099  0.8312
  165MOL0     C21666  10.608   6.618   9.980 -0.6131  0.8571  0.4842
  165MOL0     C21667  10.735   6.556   9.987 -0.1235 -0.2782  0.5315
  165MOL0     C21668  10.769   6.443  10.083  0.5509 -1.5667  0.5578
  165MOL0     C21669  10.740   6.313  10.018 -0.0371 -0.1150 -0.2671
  165MOL0     C21670  10.686   6.207  10.115 -0.3444  1.1347 -0.2476
  165MOL0     C21671  10.551   6.232  10.192 -1.2342 -0.2596 -0.4836
  165MOL0     O21672  10.463   6.317  10.114  0.3589  0.6151  0.3990
  165MOL0     C21673  10.356   6.381  10.172 -0.3479  0.1274  0.1683
  165MOL0     C21674  10.300   6.489  10.095  0.6927 -0.2071  0.1399
  165MOL0     C21675  10.207   6.572  10.147 -1.3437  0.5608  1.0183
  165MOL0     C21676  10.155   6.548  10.274 -0.8967 -0.0246 -0.4111
  165MOL0     C21677  10.031   6.615  10.314 -0.5841 -1.5664  0.2374
  165MOL0     O21678   9.985   6.575  10.435  0.4440 -0.7859  0.4828
  165MOL0     C21679   9.879   6.645  10.487  0.4322 -0.0072  0.3492
  165MOL0     C21680   9.883   6.772  10.555  0.1521 -0.9377  0.3160
  165MOL0     C21681   9.770   6.821  10.620 -0.1749 -0.5066 -0.1639
  165MOL0     C21682   9.639   6.764  10.625 -1.0188 -0.7380 -0.7847
  165MOL0     O21683   9.538   6.829  10.693 -0.5778 -0.4461  0.0711
  165MOL0     C21684   9.408   6.807  10.639 -1.4763  0.0891  0.0288
  165MOL0     C21685   9.296   6.865  10.713 -0.1015  0.0210 -0.1679
  165MOL0     C21686   9.283   6.806  10.850  0.3931 -0.1838 -0.7662
  165MOL0     C21687   9.162   6.853  10.934  0.5394  0.8141  0.3790
  165MOL0     C21688   9.146   6.806  11.079  0.7662 -0.4807  0.3310
  165MOL0     C21689   9.017   6.857  11.150 -0.8374 -0.2283  0.7611
  165MOL0     C21690   8.987   6.785  11.283 -0.4372 -0.8123 -0.2922
  165MOL0     C21691   9.071   6.841  11.402  0.6585 -0.5506  0.2980
  165MOL0    Cl21692   9.083   7.020  11.407  0.0052 -0.2656  0.0046
  165MOL0     C21693   9.627   6.644  10.557 -1.1323  0.5416  0.9183
  165MOL0     C21694   9.747   6.580  10.498 -0.1953 -0.2707 -1.0630
  165MOL0     O21695   9.978   6.696  10.235  0.0833  0.1123 -1.2828
  165MOL0     C21696  10.201   6.443  10.353  0.6609 -0.3327  0.8027
  165MOL0     C21697  10.295   6.359  10.296 -0.2959 -0.5217 -0.4060
  165MOL0     N21698  10.810   6.616   9.894 -0.2609 -0.0468 -0.0058
  165MOL0     N21699  10.741   6.696   9.824  0.6989 -0.7810  0.4666
  165MOL0     C21700   9.543   7.250   9.739 -0.4918  0.7478 -0.3885
  165MOL0     C21701   9.403   7.279   9.728  0.1423 -0.0825  0.8440
  165MOL0     C21702   9.013   7.443   9.623 -0.0304 -0.4019  0.3902
  165MOL0     C21703   9.016   7.580   9.585 -0.2567 -0.2907  0.8200
  165MOL0     C21704   8.903   7.638   9.520 -0.1902 -0.0175 -0.5347
  165MOL0     C21705   8.774   7.568   9.501 -0.7594 -0.3658  0.6054
  165MOL0     O21706   8.668   7.622   9.437  0.6322 -0.1559  0.8077
  165MOL0     C21707   8.688   7.747   9.374  0.4029  0.2877 -0.1705
  165MOL0     C21708   8.547   7.812   9.325 -0.3724  0.3266  0.2421
  165MOL0     C21709   8.430   7.804   9.423  0.0170 -0.0437  0.0843
  165MOL0     C21710   8.323   7.915   9.404  0.1392 -0.3064  0.4527
  165MOL0     C21711   8.249   7.919   9.278  0.1482 -0.6784  1.1082
  165MOL0     C21712   8.194   7.914   9.167 -0.0562 -0.4415 -0.8255
  165MOL0     C21713   8.774   7.442   9.558  0.5386 -0.3825  0.9224
  165MOL0     C21714   8.885   7.382   9.612 -0.3815  0.3837 -0.0338
  165MOL0     H21715   9.431   7.609   9.805  0.1765 -0.3065  2.3873
  165MOL0     H21716   9.661   7.555   9.800  1.9604 -1.3323 -0.6617
  165MOL0     H21717   9.824   7.195   9.684  1.2764  0.3063 -0.0269
  165MOL0     H21718   9.775   7.116   9.839 -1.0463  0.0542 -0.4532
  165MOL0     H21719   9.968   7.246   9.957 -1.0011  0.3676 -0.3313
  165MOL0     H21720  10.025   7.290   9.795 -0.0440  0.1087 -2.3924
  165MOL0     H21721  10.029   7.038   9.749 -0.9706  3.6601 -1.2609
  165MOL0     H21722  10.035   7.030   9.926 -1.0911  0.6519  1.1461
  165MOL0     H21723  10.214   7.186   9.716  0.9152  1.4766  1.2258
  165MOL0     H21724  10.231   7.213   9.882  1.0209  2.7027 -2.0290
  165MOL0     H21725  10.306   6.964   9.721 -0.7788 -2.4576  0.6212
  165MOL0     H21726  10.271   6.937   9.891 -3.3095  1.3863 -0.2376
  165MOL0     H21727  10.424   7.133   9.937 -2.6074  0.2892 -1.8415
  165MOL0     H21728  10.494   7.110   9.773 -0.7114  0.1067 -0.3307
  165MOL0     H21729  10.631   6.985   9.913 -0.2229 -0.3088  1.5631
  165MOL0     H21730  10.517   6.933  10.016 -0.0362  0.3866  0.2584
  165MOL0     H21731  10.525   6.819   9.736 -0.2461 -1.3986  0.5344
  165MOL0     H21732  10.417   6.775   9.872  0.8402 -0.7841  1.3018
  165MOL0     H21733  10.528   6.596  10.050 -0.4847 -0.0382  0.3670
  165MOL0     H21734  10.707   6.456  10.172  1.8002  1.8521  1.1037
  165MOL0     H21735  10.875   6.447  10.112  0.8339 -0.4127 -0.5426
  165MOL0     H21736  10.818   6.277   9.951  1.6029 -0.0072  1.4932
  165MOL0     H21737  10.650   6.339   9.962  0.9054  3.7559 -0.2734
  165MOL0     H21738  10.671   6.112  10.064 -2.1500  1.6554 -0.7589
  165MOL0     H21739  10.760   6.204  10.195 -0.0549  1.0501 -0.5180
  165MOL0     H21740  10.575   6.275  10.289  4.4740 -2.1436 -0.6794
  165MOL0     H21741  10.502   6.137  10.212 -0.8372 -0.3952 -0.1339
  165MOL0     H21742  10.335   6.511   9.995 -0.2963 -4.1906 -1.2869
  165MOL0     H21743  10.188   6.667  10.098  4.2401  2.4268  1.7376
  165MOL0     H21744   9.971   6.837  10.555 -2.7408  3.3772  0.8053
  165MOL0     H21745   9.790   6.903  10.688  0.2179  0.7743 -1.7621
  165MOL0     H21746   9.379   6.702  10.632  0.4156 -0.8378  3.5893
  165MOL0     H21747   9.418   6.845  10.537  0.3028 -0.3374  0.0066
  165MOL0     H21748   9.205   6.841  10.657  0.8824 -0.5076 -1.5821
  165MOL0     H21749   9.294   6.974  10.720 -2.5609 -0.0100  0.9422
  165MOL0     H21750   9.372   6.838  10.905 -1.8732  2.3919  1.7388
  165MOL0     H21751   9.286   6.697  10.847  2.4446 -0.1416 -1.9442
  165MOL0     H21752   9.166   6.962  10.933  1.1321  0.7940 -0.8763
  165MOL0     H21753   9.071   6.825  10.881  0.4157  0.1078  0.9386
  165MOL0     H21754   9.233   6.837  11.138 -0.7327  0.4410  2.1721
  165MOL0     H21755   9.141   6.696  11.081  0.2976 -0.6016 -2.7352
  165MOL0     H21756   8.941   6.827  11.078  0.6031 -0.5703 -0.6998
  165MOL0     H21757   9.021   6.966  11.153  0.7492 -0.2688  1.1491
  165MOL0     H21758   8.883   6.802  11.310 -0.3329 -3.0571  1.8389
  165MOL0     H21759   8.995   6.676  11.275 -2.5682 -1.2976  2.5878
  165MOL0     H21760   9.176   6.815  11.388  0.7119  0.9693 -3.3098
  165MOL0     H21761   9.026   6.817  11.499 -3.6179  2.2104 -0.6833
  165MOL0     H21762   9.533   6.591  10.558 -1.9314  1.9044  0.5041
  165MOL0     H21763   9.736   6.480  10.456 -0.0342 -1.0131  0.5469
  165MOL0     H21764  10.166   6.423  10.454 -0.8314 -0.5613  0.2571
  165MOL0     H21765  10.327   6.280  10.363  2.2565  1.9452  1.5553
  165MOL0     H21766   9.582   7.149   9.735  1.7284  1.4133  1.8966
  165MOL0     H21767   9.339   7.198   9.693  1.4700 -1.1281  0.7926
  165MOL0     H21768   9.094   7.654   9.596  1.0887 -1.6776  0.8888
  165MOL0     H21769   8.913   7.740   9.486 -3.0297  0.2769 -0.7149
  165MOL0     H21770   8.756   7.735   9.289  0.6836  0.0130  0.0906
  165MOL0     H21771   8.718   7.814   9.455 -1.3359  0.9610 -0.0473
  165MOL0     H21772   8.562   7.918   9.307 -3.3015  1.2513  2.3640
  165MOL0     H21773   8.521   7.768   9.228  1.8396  0.2196 -0.3503
  165MOL0     H21774   8.466   7.823   9.525  0.2864  1.2787 -0.2374
  165MOL0     H21775   8.387   7.703   9.422 -2.0122  0.7677  0.0005
  165MOL0     H21776   8.250   7.909   9.485  3.6697  0.5332  4.0031
  165MOL0     H21777   8.373   8.012   9.414  0.4646  0.0541 -3.2110
  165MOL0     H21778   8.148   7.903   9.070 -0.8000 -0.8285 -0.4382
  165MOL0     H21779   8.681   7.387   9.567 -0.7406  1.7532  1.5008
  165MOL0     H21780   8.876   7.280   9.646  0.8918  1.2144  3.2583
  166MOL0     O21781   8.968   8.290   4.771 -0.5775 -0.4451 -0.2424
  166MOL0     C21782   9.047   8.216   4.835  0.1015  0.4204  0.6058
  166MOL0     O21783   9.019   8.092   4.876 -0.3850  1.0203 -0.0310
  166MOL0     C21784   8.910   8.016   4.841 -0.0923 -0.3173  0.0878
  166MOL0     C21785   8.880   7.912   4.929 -0.2052  0.2841 -0.3781
  166MOL0     C21786   8.752   7.845   4.921  0.0725  0.4452 -0.5443
  166MOL0     C21787   8.666   7.870   4.812  0.2898  0.5006 -0.8185
  166MOL0     O21788   8.560   7.788   4.808 -0.2259 -0.1838 -0.4489
  166MOL0     C21789   8.448   7.819   4.727  0.1523  0.2007 -0.0663
  166MOL0     C21790   8.458   7.764   4.582 -0.6776 -0.0573 -0.7305
  166MOL0     C21791   8.329   7.789   4.492 -0.8185 -1.0178  0.4765
  166MOL0     C21792   8.195   7.735   4.537  0.5094  0.2020 -0.4281
  166MOL0     C21793   8.086   7.716   4.430 -0.2780  0.3356 -0.1903
  166MOL0     C21794   7.968   7.631   4.491 -0.7480 -0.0644  0.1844
  166MOL0     C21795   7.877   7.573   4.383  0.1676  1.1180 -0.8429
  166MOL0     C21796   7.741   7.541   4.446  0.4583 -0.2810  0.4966
  166MOL0     N21797   7.635   7.520   4.339  0.2416 -0.5508  0.1745
  166MOL0     C21798   7.499   7.498   4.369 -0.4681 -0.1735 -0.3314
  166MOL0     C21799   7.443   7.477   4.247 -0.0268 -0.4961  0.6066
  166MOL0     C21800   7.300   7.431   4.235  1.0482  0.1667  0.1147
  166MOL0     C21801   7.282   7.286   4.284  0.0161 -0.0823  0.6834
  166MOL0     C21802   7.346   7.191   4.184  0.1525 -0.1935  0.1524
  166MOL0     C21803   7.328   7.039   4.220  0.6348  0.5370 -0.9803
  166MOL0     O21804   7.190   6.996   4.218 -0.1021 -0.0541 -0.1078
  166MOL0     C21805   7.142   6.943   4.095 -0.0863 -0.3421  0.0091
  166MOL0     C21806   7.193   6.975   3.964 -0.9403 -0.0642 -0.5302
  166MOL0     C21807   7.126   6.922   3.855  0.9519  0.2380  0.8125
  166MOL0     C21808   6.996   6.865   3.861 -0.3901 -0.3133 -0.2316
  166MOL0     C21809   6.914   6.857   3.742  0.1128  0.8086 -0.8057
  166MOL0     O21810   6.919   6.942   3.630  0.4195 -0.5466 -1.2173
  166MOL0     C21811   6.822   6.919   3.542  0.0575 -0.5572 -0.5347
  166MOL0     C21812   6.710   7.011   3.532 -0.5642  0.1531 -0.4700
  166MOL0     C21813   6.606   6.999   3.438  0.4469  1.3063 -0.2305
  166MOL0     C21814   6.606   6.887   3.345 -0.1172  0.1388  0.6050
  166MOL0     O21815   6.505   6.865   3.253 -0.5604  0.8612  0.2009
  166MOL0     C21816   6.383   6.943   3.255 -0.2190 -0.4585 -0.7520
  166MOL0     C21817   6.286   6.896   3.149  0.4838 -0.3051  0.8780
  166MOL0     C21818   6.207   6.773   3.196 -0.5241 -0.2541  0.0185
  166MOL0     C21819   6.082   6.747   3.114 -0.9112 -1.0432  0.7046
  166MOL0     C21820   6.087   6.743   2.964  0.1671 -0.0297 -0.2986
  166MOL0     C21821   5.961   6.692   2.904  0.0521 -0.1548  0.0802
  166MOL0     C21822   5.971   6.707   2.749 -0.7422  0.7427 -0.7432
  166MOL0     C21823   5.831   6.689   2.687 -0.0137 -0.3096 -0.4707
  166MOL0    Cl21824   5.843   6.719   2.513  0.4423  0.6466  0.3654
  166MOL0     C21825   6.713   6.801   3.355  0.5120  0.5150 -0.7923
  166MOL0     C21826   6.819   6.807   3.451 -0.7250 -0.6291 -0.5521
  166MOL0     O21827   6.824   6.772   3.761 -0.4698 -0.3885 -0.2535
  166MOL0     C21828   6.954   6.828   3.991  0.8596  0.1946 -0.5974
  166MOL0     C21829   7.019   6.873   4.105 -0.6662 -0.7007  0.4827
  166MOL0     N21830   7.542   7.494   4.150 -0.8082 -0.5612  0.0066
  166MOL0     N21831   7.655   7.504   4.208  0.3435  1.1239 -0.3230
  166MOL0     C21832   8.703   7.965   4.715  0.1796 -0.1787 -0.3952
  166MOL0     C21833   8.819   8.041   4.733  0.6762  0.2430 -0.6958
  166MOL0     C21834   9.169   8.269   4.879 -0.8334 -1.0868  0.2570
  166MOL0     C21835   9.180   8.408   4.880  0.0679 -0.2478 -0.4032
  166MOL0     C21836   9.291   8.462   4.939 -0.3316  0.7292 -0.1068
  166MOL0     C21837   9.409   8.380   4.973  0.1484  0.1957  0.1069
  166MOL0     O21838   9.533   8.426   5.016  0.7723 -0.4025  0.1498
  166MOL0     C21839   9.548   8.574   5.014 -0.4479 -0.0051  0.3624
  166MOL0     C21840   9.592   8.628   4.881 -0.4856  0.2478  0.2386
  166MOL0     C21841   9.710   8.542   4.840 -0.1226  0.3059  0.6033
  166MOL0     C21842   9.784   8.612   4.725 -0.1913 -0.0228 -0.1280
  166MOL0     C21843   9.923   8.574   4.721 -0.5927 -0.2683  0.2995
  166MOL0     C21844  10.029   8.529   4.703 -0.8408  0.0588 -0.1552
  166MOL0     C21845   9.400   8.242   4.949  0.1134 -0.8715 -0.3872
  166MOL0     C21846   9.278   8.184   4.906 -0.3777 -0.6285 -0.0011
  166MOL0     H21847   8.943   7.883   5.013 -0.8646  1.3730  0.5045
  166MOL0     H21848   8.726   7.766   4.991  2.5153 -0.2582 -0.3406
  166MOL0     H21849   8.420   7.925   4.722  0.5639  0.3418  0.5181
  166MOL0     H21850   8.368   7.758   4.769  1.9213 -0.0854  3.1936
  166MOL0     H21851   8.486   7.658   4.583  0.1436  0.1518  0.2010
  166MOL0     H21852   8.537   7.826   4.538 -2.2847  0.8177 -2.5163
  166MOL0     H21853   8.356   7.756   4.391  2.3269  4.5624 -0.9450
  166MOL0     H21854   8.315   7.897   4.501  1.1892 -0.7551  1.0057
  166MOL0     H21855   8.213   7.633   4.571 -0.3359  0.6323  1.4617
  166MOL0     H21856   8.160   7.798   4.620  0.7221  1.6499 -1.4057
  166MOL0     H21857   8.121   7.654   4.347 -1.8264 -3.7791  1.9022
  166MOL0     H21858   8.053   7.810   4.384 -0.0336  0.4728 -0.0839
  166MOL0     H21859   7.917   7.704   4.555  0.6072 -0.7363  2.1070
  166MOL0     H21860   8.011   7.557   4.560 -0.7328 -2.3519 -2.1155
  166MOL0     H21861   7.869   7.646   4.303 -2.3625 -0.9338 -2.6571
  166MOL0     H21862   7.921   7.484   4.337  1.0530  1.5403 -0.8252
  166MOL0     H21863   7.713   7.615   4.522 -0.4597  0.7625 -0.8131
  166MOL0     H21864   7.742   7.448   4.505 -1.1562  1.1910  3.0138
  166MOL0     H21865   7.450   7.510   4.465 -1.1658  1.1652 -0.8315
  166MOL0     H21866   7.265   7.442   4.132 -0.3674  0.0266  0.5659
  166MOL0     H21867   7.242   7.495   4.301  0.6983  1.5389 -1.4781
  166MOL0     H21868   7.176   7.259   4.286  0.0983 -0.7700 -1.7335
  166MOL0     H21869   7.321   7.276   4.386 -1.4837  1.3065  1.4404
  166MOL0     H21870   7.291   7.199   4.090 -1.4485 -1.0661  0.9668
  166MOL0     H21871   7.449   7.224   4.168  1.2354 -2.1998  2.3079
  166MOL0     H21872   7.368   7.018   4.320 -3.6738 -2.9461  0.3235
  166MOL0     H21873   7.372   6.980   4.139 -0.6621  2.1585 -2.9734
  166MOL0     H21874   7.290   7.022   3.950 -0.1612 -1.6344 -0.5547
  166MOL0     H21875   7.153   6.956   3.755 -0.7252 -2.6770 -0.7643
  166MOL0     H21876   6.712   7.101   3.593  1.6406 -1.6130  2.3279
  166MOL0     H21877   6.536   7.081   3.447  0.0550  1.0082 -0.4844
  166MOL0     H21878   6.417   7.042   3.224 -1.5833  0.4049  0.4032
  166MOL0     H21879   6.341   6.947   3.356  1.6628 -0.5939  0.0640
  166MOL0     H21880   6.333   6.882   3.051 -4.1166 -2.7249 -1.3474
  166MOL0     H21881   6.214   6.978   3.140 -1.5560 -1.6876  3.2573
  166MOL0     H21882   6.175   6.787   3.300 -1.2669 -0.0687 -0.2327
  166MOL0     H21883   6.280   6.692   3.186  2.0164  1.7374  0.9579
  166MOL0     H21884   6.039   6.652   3.147 -0.0724 -1.6211  0.1597
  166MOL0     H21885   6.010   6.825   3.142  1.4280  0.3123  3.5826
  166MOL0     H21886   6.174   6.684   2.932  0.0350 -0.0721 -0.5793
  166MOL0     H21887   6.092   6.846   2.928 -0.7368 -0.3514 -1.3818
  166MOL0     H21888   5.876   6.755   2.931 -0.2638 -0.7376  0.4774
  166MOL0     H21889   5.947   6.586   2.931  1.0809 -0.3470 -0.1114
  166MOL0     H21890   6.019   6.804   2.730 -0.2666  0.5735 -0.4025
  166MOL0     H21891   6.037   6.625   2.721  0.9258  1.6404  0.3963
  166MOL0     H21892   5.765   6.752   2.748  1.8870  1.2530  0.0740
  166MOL0     H21893   5.808   6.583   2.705 -2.3598  0.2375  0.1588
  166MOL0     H21894   6.704   6.711   3.295 -0.2366 -2.3936  3.2434
  166MOL0     H21895   6.903   6.738   3.449 -0.8909 -0.8234 -1.3176
  166MOL0     H21896   6.854   6.788   3.996  0.7001  0.7691  1.9522
  166MOL0     H21897   6.979   6.859   4.205 -2.8857  0.8569 -0.1173
  166MOL0     H21898   8.629   7.985   4.639 -0.5494 -0.8185  0.1359
  166MOL0     H21899   8.842   8.120   4.662  2.0418  0.2499 -0.2770
  166MOL0     H21900   9.100   8.469   4.842 -1.2892 -1.6983  0.0019
  166MOL0     H21901   9.278   8.570   4.940 -0.1293  0.9746 -4.2457
  166MOL0     H21902   9.610   8.609   5.097 -0.2379 -0.5720  0.4444
  166MOL0     H21903   9.453   8.626   5.029 -0.9828 -0.5632 -0.9540
  166MOL0     H21904   9.516   8.623   4.802 -2.3430 -0.8722  1.9930
  166MOL0     H21905   9.629   8.731   4.890  0.3492 -0.1252  1.1360
  166MOL0     H21906   9.680   8.445   4.800  1.2903  0.1893 -0.2481
  166MOL0     H21907   9.785   8.528   4.919  2.3329  2.2061 -1.2332
  166MOL0     H21908   9.735   8.573   4.636 -1.4332 -5.0470  2.4141
  166MOL0     H21909   9.768   8.720   4.734 -2.3047 -0.1999 -1.2818
  166MOL0     H21910  10.127   8.500   4.670  0.3906  4.1783 -0.6750
  166MOL0     H21911   9.485   8.175   4.956 -0.3887 -1.9028 -2.9296
  166MOL0     H21912   9.268   8.076   4.908  2.4122 -0.9427  0.9580
  167MOL0     O21913   0.600   0.702  10.342 -0.3037  0.6953  0.0858
  167MOL0     C21914   0.579   0.622  10.248 -1.7353  0.3576  0.3558
  167MOL0     O21915   0.483   0.523  10.235 -0.3243  0.4503 -0.5466
  167MOL0     C21916   0.402   0.488  10.338  1.3563  0.7348 -0.5536
  167MOL0     C21917   0.321   0.366  10.317  0.0973  0.5664 -0.3258
  167MOL0     C21918   0.223   0.327  10.416  0.3648 -1.4461  0.2781
  167MOL0     C21919   0.219   0.388  10.544 -0.1517 -0.1180 -0.4273
  167MOL0     O21920   0.125   0.331  10.624  0.3050  0.0913  1.5994
  167MOL0     C21921   0.074   0.397  10.743 -0.6108 -0.2743 -0.7993
  167MOL0     C21922  -0.039   0.487  10.703 -0.4265 -1.0549  0.1612
  167MOL0     C21923  -0.149   0.406  10.629 -0.0065  0.3791  0.4377
  167MOL0     C21924  -0.269   0.489  10.582  0.6321 -0.2778  0.4116
  167MOL0     C21925  -0.402   0.413  10.546 -1.2882 -0.3731 -0.1942
  167MOL0     C21926  -0.378   0.328  10.414 -0.5647 -0.5553 -0.5355
  167MOL0     C21927  -0.466   0.205  10.391 -0.0974  0.5957  0.0616
  167MOL0     C21928  -0.596   0.253  10.344  0.2733 -0.1412 -0.6934
  167MOL0     N21929  -0.586   0.323  10.216  0.0375  0.7725  0.0773
  167MOL0     C21930  -0.617   0.455  10.195 -0.7086  0.4292 -0.7301
  167MOL0     C21931  -0.582   0.479  10.066 -0.0224  0.6982  1.7380
  167MOL0     C21932  -0.606   0.608   9.994 -0.1906  0.5498  0.1855
  167MOL0     C21933  -0.481   0.617   9.894 -0.2928  0.7438  0.2860
  167MOL0     C21934  -0.542   0.578   9.755 -0.1164 -0.2778 -0.1063
  167MOL0     C21935  -0.460   0.634   9.638  0.1252  0.1876  0.7350
  167MOL0     O21936  -0.509   0.602   9.507 -0.1804 -0.1922 -0.3927
  167MOL0     C21937  -0.609   0.679   9.458  0.2947 -0.4154  0.0375
  167MOL0     C21938  -0.666   0.790   9.526 -1.3160 -0.2555  0.6370
  167MOL0     C21939  -0.781   0.849   9.482 -0.4716  0.5978  0.8396
  167MOL0     C21940  -0.846   0.806   9.369  0.1119  0.4509  0.5439
  167MOL0     C21941  -0.965   0.880   9.330 -0.2090  0.2493 -0.2607
  167MOL0     O21942  -1.005   0.852   9.202 -0.1757  0.3946  0.1304
  167MOL0     C21943  -1.141   0.865   9.177  0.2501 -0.2235  1.0105
  167MOL0     C21944  -1.244   0.809   9.253 -0.8689  0.0421  0.6354
  167MOL0     C21945  -1.374   0.844   9.221  0.5437 -0.2328  0.3455
  167MOL0     C21946  -1.413   0.925   9.106 -0.7185 -0.3643 -1.1651
  167MOL0     O21947  -1.537   0.934   9.051  0.4974  0.4982  0.0599
  167MOL0     C21948  -1.641   0.854   9.107 -0.1595  0.2776  0.1204
  167MOL0     C21949  -1.763   0.870   9.022  0.9568 -0.4597 -0.6307
  167MOL0     C21950  -1.888   0.817   9.089  0.3829 -0.4881 -0.4954
  167MOL0     C21951  -2.020   0.849   9.016  0.3549 -0.4277 -0.5445
  167MOL0     C21952  -2.130   0.749   9.061  0.3669  0.7210  0.3205
  167MOL0     C21953  -2.261   0.788   8.993 -0.9165  1.4193 -0.5513
  167MOL0     C21954  -2.360   0.662   8.971  0.3300  0.0324  0.3318
  167MOL0     C21955  -2.479   0.679   8.885 -0.5863 -0.7688 -0.4745
  167MOL0    Cl21956  -2.624   0.608   8.972 -0.1938  0.1562 -0.0206
  167MOL0     C21957  -1.307   0.978   9.045 -0.4782 -0.4351  0.3095
  167MOL0     C21958  -1.179   0.945   9.069 -0.3343 -0.0312  0.2321
  167MOL0     O21959  -1.023   0.952   9.412 -0.2284  0.2377  0.2303
  167MOL0     C21960  -0.795   0.695   9.296 -0.5741 -0.1684 -0.2968
  167MOL0     C21961  -0.678   0.635   9.340 -0.1251 -0.2762  0.3965
  167MOL0     N21962  -0.525   0.361  10.009  0.0790 -0.3701 -0.5357
  167MOL0     N21963  -0.541   0.268  10.105 -0.5774 -0.1618  0.4468
  167MOL0     C21964   0.301   0.501  10.564  0.4365 -0.8919  0.3819
  167MOL0     C21965   0.389   0.548  10.467 -0.5087 -0.0648 -0.0784
  167MOL0     C21966   0.679   0.641  10.134 -1.2785 -0.4055  0.0703
  167MOL0     C21967   0.770   0.752  10.132  0.6810  0.5650 -1.3717
  167MOL0     C21968   0.873   0.761  10.041  0.5824 -0.3903 -0.2893
  167MOL0     C21969   0.876   0.673   9.940 -0.2408  0.2315  0.2412
  167MOL0     O21970   0.978   0.689   9.847  0.1176 -0.2162 -0.6942
  167MOL0     C21971   0.969   0.620   9.729  0.2095  0.2279  0.1002
  167MOL0     C21972   1.078   0.656   9.631 -0.4721  0.1289  0.4231
  167MOL0     C21973   1.197   0.565   9.652  0.3510  1.0905 -0.8762
  167MOL0     C21974   1.334   0.599   9.588 -0.0283  0.3305  0.0075
  167MOL0     C21975   1.394   0.716   9.653 -0.6095  0.2572 -0.5137
  167MOL0     C21976   1.439   0.822   9.711  0.0765  0.0014  0.6019
  167MOL0     C21977   0.787   0.565   9.944 -0.4105 -0.3052 -0.0877
  167MOL0     C21978   0.698   0.540  10.047 -0.7264 -0.6827  0.5293
  167MOL0     H21979   0.313   0.318  10.220 -3.8625  0.3260 -0.0763
  167MOL0     H21980   0.148   0.254  10.387  0.2845 -0.5831 -1.8869
  167MOL0     H21981   0.142   0.463  10.798  1.0957 -2.2504 -0.4256
  167MOL0     H21982   0.042   0.321  10.814  0.3556  2.8864  3.4345
  167MOL0     H21983  -0.003   0.562  10.632 -1.0812  1.8412  2.7119
  167MOL0     H21984  -0.088   0.534  10.788 -0.5659 -0.7312 -0.0975
  167MOL0     H21985  -0.180   0.329  10.700 -1.8933  2.7135  2.3420
  167MOL0     H21986  -0.104   0.370  10.536 -3.5690  1.7688 -2.0427
  167MOL0     H21987  -0.304   0.557  10.660 -0.9364 -0.5030 -0.0590
  167MOL0     H21988  -0.246   0.555  10.498 -2.8268  0.3687 -0.1907
  167MOL0     H21989  -0.493   0.473  10.534 -1.3231 -0.7588 -2.2602
  167MOL0     H21990  -0.417   0.334  10.620 -0.8381 -1.6435 -1.4147
  167MOL0     H21991  -0.279   0.283  10.427  0.1274  0.6226 -1.5482
  167MOL0     H21992  -0.367   0.393  10.327 -0.4592 -0.0666 -0.1624
  167MOL0     H21993  -0.430   0.137  10.313  1.7321  1.4703  0.0925
  167MOL0     H21994  -0.471   0.145  10.482  2.3640 -0.9878 -0.7454
  167MOL0     H21995  -0.648   0.322  10.412 -3.3418 -3.7478  0.6131
  167MOL0     H21996  -0.646   0.156  10.341  1.7118 -1.1239  2.3006
  167MOL0     H21997  -0.668   0.528  10.257 -3.2303 -3.6823  2.5483
  167MOL0     H21998  -0.601   0.688  10.068  0.7538 -0.6392  1.4680
  167MOL0     H21999  -0.700   0.601   9.939  0.0461 -0.2849 -0.1228
  167MOL0     H22000  -0.397   0.548   9.911  0.5421  1.4987 -0.6797
  167MOL0     H22001  -0.442   0.718   9.901 -2.4858  1.5612  1.9695
  167MOL0     H22002  -0.555   0.469   9.751 -0.2350 -0.4342  2.5279
  167MOL0     H22003  -0.645   0.615   9.748  0.4698  2.5007  3.3615
  167MOL0     H22004  -0.361   0.589   9.633 -0.7813 -1.8161 -0.2802
  167MOL0     H22005  -0.452   0.743   9.652 -0.5992  0.4734 -0.8448
  167MOL0     H22006  -0.625   0.834   9.616 -1.4746 -0.4913  0.8252
  167MOL0     H22007  -0.818   0.938   9.532 -1.2312  1.6754 -1.4949
  167MOL0     H22008  -1.222   0.740   9.334 -1.1664 -0.4331  0.3162
  167MOL0     H22009  -1.455   0.781   9.258  0.0629  0.4595  0.4875
  167MOL0     H22010  -1.664   0.888   9.209  1.6893  0.8284  0.3867
  167MOL0     H22011  -1.608   0.750   9.095 -0.3657  0.2195  0.0572
  167MOL0     H22012  -1.742   0.815   8.930  2.3956 -3.6003  1.4370
  167MOL0     H22013  -1.769   0.979   9.010 -0.4757 -0.3565  0.6125
  167MOL0     H22014  -1.899   0.842   9.195 -1.4775  2.8874 -1.3269
  167MOL0     H22015  -1.885   0.708   9.084  1.4141 -0.5401  0.6384
  167MOL0     H22016  -2.054   0.948   9.047  2.2639  0.0951  0.0212
  167MOL0     H22017  -2.004   0.855   8.908 -2.0537 -1.7868 -1.0414
  167MOL0     H22018  -2.133   0.760   9.170  1.4557 -1.3460  0.6026
  167MOL0     H22019  -2.098   0.650   9.030  0.9174  1.0477 -0.1854
  167MOL0     H22020  -2.225   0.818   8.894  2.7174  1.3363  0.5890
  167MOL0     H22021  -2.317   0.870   9.037  1.0771  0.7984  3.6081
  167MOL0     H22022  -2.308   0.578   8.924  1.2445 -0.8336  2.7079
  167MOL0     H22023  -2.390   0.632   9.072  0.9034  1.0606  0.8303
  167MOL0     H22024  -2.458   0.637   8.786  0.3040 -1.2814 -0.0869
  167MOL0     H22025  -2.497   0.785   8.869 -1.7923 -1.0313 -0.9869
  167MOL0     H22026  -1.324   1.025   8.949  1.8204 -1.3415 -0.6197
  167MOL0     H22027  -1.108   0.986   8.998 -1.0134 -0.0500 -0.4746
  167MOL0     H22028  -0.844   0.652   9.209 -0.8148 -0.2506 -0.1227
  167MOL0     H22029  -0.636   0.547   9.292  1.4221  1.5800 -1.8969
  167MOL0     H22030   0.288   0.556  10.657 -1.4382 -0.6112 -0.0227
  167MOL0     H22031   0.445   0.639  10.486 -1.3943  0.2357  1.2281
  167MOL0     H22032   0.767   0.825  10.212  3.3713  0.2181 -0.8531
  167MOL0     H22033   0.958   0.825  10.065  0.1719 -0.0416  0.2808
  167MOL0     H22034   0.875   0.629   9.675  0.9189  2.0057 -0.9388
  167MOL0     H22035   0.973   0.515   9.758 -0.4658  0.4492  1.0240
  167MOL0     H22036   1.042   0.628   9.531  0.2284 -3.9878  1.1661
  167MOL0     H22037   1.099   0.764   9.630  0.7720 -0.0929 -0.6330
  167MOL0     H22038   1.172   0.469   9.606 -1.3691  1.4972 -0.8245
  167MOL0     H22039   1.218   0.555   9.759 -1.4206  2.4346 -0.3697
  167MOL0     H22040   1.404   0.515   9.589 -0.5551 -0.1180 -0.0291
  167MOL0     H22041   1.317   0.625   9.483  1.7081  0.6806 -0.2094
  167MOL0     H22042   1.475   0.910   9.761  1.1318 -0.2305  0.2923
  167MOL0     H22043   0.800   0.485   9.872 -0.6419  0.7680 -1.3654
  167MOL0     H22044   0.655   0.441  10.065  0.9242 -1.2996  1.2154
  168MOL0     O22045   2.616   0.813   1.955 -0.4374  0.0462 -0.8161
  168MOL0     C22046   2.698   0.764   1.882 -0.5545  0.8732  0.1374
  168MOL0     O22047   2.679   0.743   1.746  0.5629 -0.5465 -0.4560
  168MOL0     C22048   2.558   0.769   1.681 -0.4953 -0.8915  0.6099
  168MOL0     C22049   2.556   0.805   1.543  0.8012  0.6751 -0.6427
  168MOL0     C22050   2.437   0.854   1.487 -0.7112  0.0527  0.2763
  168MOL0     C22051   2.314   0.834   1.556  0.8636  0.6903 -0.0994
  168MOL0     O22052   2.205   0.870   1.472  0.5012 -0.1658  0.7683
  168MOL0     C22053   2.154   0.997   1.521 -0.3173  0.3979  0.3486
  168MOL0     C22054   2.049   1.050   1.412  0.9310 -0.4671 -0.0865
  168MOL0     C22055   1.941   0.945   1.372  0.2419 -0.3900 -0.0389
  168MOL0     C22056   1.864   0.914   1.498  0.4148  0.2409  0.2978
  168MOL0     C22057   1.748   0.819   1.474 -0.2889 -0.2062  0.6144
  168MOL0     C22058   1.638   0.855   1.362  0.3057 -0.2435 -1.2029
  168MOL0     C22059   1.566   0.987   1.388  0.2058  0.1983  0.3016
  168MOL0     C22060   1.442   0.990   1.293  0.9423 -0.8053 -0.2911
  168MOL0     N22061   1.345   1.086   1.343  0.7833 -0.1395 -0.0117
  168MOL0     C22062   1.210   1.089   1.300 -0.1413  1.0676  0.1227
  168MOL0     C22063   1.159   1.196   1.357  0.0548  0.4844  0.0882
  168MOL0     C22064   1.017   1.237   1.362  0.9129  0.6657 -0.1235
  168MOL0     C22065   0.984   1.306   1.231  0.6576  0.2511  0.4041
  168MOL0     C22066   0.889   1.427   1.248 -0.7912 -0.7837 -0.3626
  168MOL0     C22067   0.755   1.383   1.301  0.0162  0.4193 -0.2043
  168MOL0     O22068   0.708   1.278   1.216  0.3517 -0.4238 -0.2142
  168MOL0     C22069   0.578   1.241   1.225 -0.9866 -0.0724  0.1140
  168MOL0     C22070   0.558   1.107   1.186 -0.4918  0.0612  0.5799
  168MOL0     C22071   0.432   1.054   1.177 -0.0619  1.0135  0.5099
  168MOL0     C22072   0.316   1.133   1.227 -0.3905  0.7230  0.9236
  168MOL0     C22073   0.179   1.080   1.232  0.4239 -0.2842  0.7242
  168MOL0     O22074   0.066   1.156   1.272  0.2468 -0.0275  0.4007
  168MOL0     C22075  -0.056   1.085   1.267 -0.8018  0.0456 -0.1676
  168MOL0     C22076  -0.111   1.066   1.137  0.6771 -0.4655 -0.2616
  168MOL0     C22077  -0.244   1.014   1.117  0.5400 -0.7581 -0.2213
  168MOL0     C22078  -0.303   0.970   1.228  0.6248 -0.1191  0.1389
  168MOL0     O22079  -0.429   0.915   1.218  0.8773 -0.0483 -0.2094
  168MOL0     C22080  -0.528   0.990   1.138  0.0278  0.5149  0.0424
  168MOL0     C22081  -0.670   0.950   1.182 -0.2566 -0.4620  0.4400
  168MOL0     C22082  -0.715   0.800   1.179 -0.2981 -0.2846 -0.0962
  168MOL0     C22083  -0.836   0.777   1.270 -0.4482  0.4319  0.5280
  168MOL0     C22084  -0.928   0.662   1.212 -0.1437 -0.3804 -0.9173
  168MOL0     C22085  -1.028   0.623   1.318  0.0624 -0.5190  0.4661
  168MOL0     C22086  -1.132   0.736   1.338  0.2978  0.6377 -0.2130
  168MOL0     C22087  -1.249   0.682   1.414  0.6281 -0.3199 -0.2465
  168MOL0    Cl22088  -1.395   0.791   1.388 -0.4853  0.1468  0.1188
  168MOL0     C22089  -0.248   0.971   1.354 -0.6872 -0.0939 -0.4771
  168MOL0     C22090  -0.124   1.033   1.377 -0.2834  0.2317 -0.2834
  168MOL0     O22091   0.176   0.958   1.196  0.0523 -0.9680  0.0115
  168MOL0     C22092   0.340   1.266   1.267  0.2063 -0.0647  0.0881
  168MOL0     C22093   0.471   1.321   1.257 -0.3398  0.7316 -0.0501
  168MOL0     N22094   1.264   1.254   1.430 -0.0898 -0.3400  0.1986
  168MOL0     N22095   1.370   1.183   1.429  0.1685  0.1333  0.2724
  168MOL0     C22096   2.307   0.781   1.682 -1.1113 -0.0368  0.1213
  168MOL0     C22097   2.435   0.765   1.747  0.1552  0.2944  0.2387
  168MOL0     C22098   2.824   0.722   1.946 -0.3173  0.4130  0.7491
  168MOL0     C22099   2.912   0.643   1.878  0.4198 -0.7004  0.4476
  168MOL0     C22100   3.027   0.597   1.944 -0.5717  1.4859 -0.2411
  168MOL0     C22101   3.047   0.637   2.078  0.2227  0.8812 -0.2349
  168MOL0     O22102   3.156   0.603   2.152  0.1954  0.9682  0.3749
  168MOL0     C22103   3.182   0.462   2.162  0.1021  0.2993 -0.6116
  168MOL0     C22104   3.274   0.444   2.280 -0.1198 -0.1053 -0.1037
  168MOL0     C22105   3.412   0.512   2.242  0.6698  0.5942  0.8947
  168MOL0     C22106   3.527   0.492   2.355  1.1428 -0.3985 -0.0082
  168MOL0     C22107   3.477   0.555   2.481  0.6992 -0.4242 -0.4160
  168MOL0     C22108   3.443   0.624   2.574  0.1107 -0.5808 -0.3771
  168MOL0     C22109   2.960   0.722   2.143  0.1841 -0.9167 -0.1741
  168MOL0     C22110   2.841   0.759   2.075  0.3586  0.0541 -0.9936
  168MOL0     H22111   2.648   0.828   1.489  1.3022  0.7895  0.2306
  168MOL0     H22112   2.433   0.892   1.386  0.6309  0.4540  0.3609
  168MOL0     H22113   2.234   1.071   1.534 -0.3949  0.1993  2.2475
  168MOL0     H22114   2.113   0.982   1.621 -0.4548  1.4579  0.4635
  168MOL0     H22115   2.108   1.077   1.323  1.8334  0.0451  0.6521
  168MOL0     H22116   2.007   1.147   1.438 -1.8643 -1.2992 -1.1853
  168MOL0     H22117   1.986   0.851   1.338  2.2842  0.8051 -0.8212
  168MOL0     H22118   1.877   0.983   1.292 -0.1344  2.7972  1.6242
  168MOL0     H22119   1.930   0.860   1.567 -0.0242 -0.9582 -0.1950
  168MOL0     H22120   1.835   1.014   1.531 -1.1739  1.4784 -4.1183
  168MOL0     H22121   1.695   0.801   1.568 -0.9492  0.8153  0.4491
  168MOL0     H22122   1.792   0.727   1.434  0.8513  0.7771 -0.5090
  168MOL0     H22123   1.573   0.767   1.358 -1.5360  0.6907  2.9278
  168MOL0     H22124   1.677   0.871   1.261 -3.9835  1.2647 -2.8419
  168MOL0     H22125   1.533   0.963   1.490  0.2171 -4.4626 -0.5514
  168MOL0     H22126   1.632   1.074   1.386  5.3746 -3.1873  2.0025
  168MOL0     H22127   1.393   0.892   1.298 -0.2749 -0.1404  3.3420
  168MOL0     H22128   1.485   1.016   1.196  0.2893  0.3343 -0.2911
  168MOL0     H22129   1.161   1.013   1.239  0.5282 -0.1687  1.0774
  168MOL0     H22130   1.010   1.311   1.442  2.5561 -0.2609  0.9395
  168MOL0     H22131   0.950   1.154   1.386 -0.0993  1.3611 -0.4794
  168MOL0     H22132   0.957   1.230   1.157 -0.0648  1.8637 -1.0744
  168MOL0     H22133   1.076   1.344   1.187  0.4587 -1.3539 -1.5534
  168MOL0     H22134   0.932   1.486   1.329  1.8901 -2.8847 -0.1337
  168MOL0     H22135   0.875   1.487   1.158 -0.0975  2.7800  1.7255
  168MOL0     H22136   0.687   1.467   1.313  0.5975  0.7594  0.8576
  168MOL0     H22137   0.760   1.331   1.397  3.9197  0.5441 -0.1702
  168MOL0     H22138   0.633   1.040   1.146 -0.7573 -0.8097  1.5112
  168MOL0     H22139   0.408   0.958   1.134 -0.5960  1.7507 -0.9200
  168MOL0     H22140  -0.061   1.105   1.049  1.2703 -1.9525 -0.6178
  168MOL0     H22141  -0.291   1.015   1.019  0.8054  0.9818 -0.3538
  168MOL0     H22142  -0.526   0.956   1.034  0.9701 -0.3321  0.3217
  168MOL0     H22143  -0.529   1.099   1.146  2.4153  0.5376  0.5653
  168MOL0     H22144  -0.741   0.993   1.111 -2.4869 -1.6707  1.8092
  168MOL0     H22145  -0.687   1.001   1.277 -0.4229  0.2817  0.0150
  168MOL0     H22146  -0.630   0.738   1.210 -0.9175 -0.9815  0.2312
  168MOL0     H22147  -0.732   0.761   1.078 -0.7391 -0.9483  0.2270
  168MOL0     H22148  -0.795   0.743   1.365  1.9489  0.1018 -0.5459
  168MOL0     H22149  -0.891   0.871   1.271 -1.3884 -0.0681 -0.7893
  168MOL0     H22150  -0.866   0.576   1.185  0.7437  0.2517 -0.9472
  168MOL0     H22151  -0.984   0.686   1.122 -0.7297 -1.6038 -0.8925
  168MOL0     H22152  -0.974   0.582   1.404 -0.4535 -0.3543  0.8691
  168MOL0     H22153  -1.077   0.534   1.278  1.5822 -1.3328  0.3241
  168MOL0     H22154  -1.088   0.823   1.388  1.7272  0.8095 -1.6846
  168MOL0     H22155  -1.167   0.760   1.238 -1.3458 -1.8274 -0.3104
  168MOL0     H22156  -1.243   0.684   1.523 -4.1442  3.1780  0.2786
  168MOL0     H22157  -1.271   0.577   1.390 -4.5279 -0.1324  2.1699
  168MOL0     H22158  -0.310   0.926   1.430 -1.9412  0.0143 -1.3996
  168MOL0     H22159  -0.087   1.042   1.479  1.7056 -1.2969 -0.7882
  168MOL0     H22160   0.253   1.326   1.293 -1.0044 -1.3146 -0.8945
  168MOL0     H22161   0.487   1.423   1.290  4.4645  0.1466  0.1090
  168MOL0     H22162   2.211   0.766   1.731 -1.1980 -0.6023 -0.2082
  168MOL0     H22163   2.422   0.731   1.849 -2.4414  2.1750  0.6458
  168MOL0     H22164   2.900   0.611   1.775  0.6825  0.9069 -0.0983
  168MOL0     H22165   3.097   0.538   1.885 -0.9888 -0.1899  0.8637
  168MOL0     H22166   3.220   0.432   2.064  0.7552  2.3203 -1.0296
  168MOL0     H22167   3.092   0.410   2.194  0.9677 -0.2633  1.0645
  168MOL0     H22168   3.231   0.493   2.367  1.0693  1.4212 -0.3340
  168MOL0     H22169   3.293   0.339   2.304  0.5627  0.3036  1.1718
  168MOL0     H22170   3.386   0.618   2.248 -0.2513  0.3245  2.1701
  168MOL0     H22171   3.434   0.471   2.143  1.2725 -0.6024  1.5073
  168MOL0     H22172   3.553   0.386   2.355  3.6940 -0.0049 -4.0028
  168MOL0     H22173   3.616   0.549   2.329 -1.4303  4.5200  0.8041
  168MOL0     H22174   3.406   0.665   2.666  0.7633 -2.0588  0.5834
  168MOL0     H22175   2.989   0.769   2.237  0.8077 -0.6883 -0.4806
  168MOL0     H22176   2.766   0.820   2.126  1.7752  0.3417  0.8393
  169MOL0     O22177   0.291   6.453  10.193  0.5807 -1.0593 -0.1125
  169MOL0     C22178   0.374   6.473  10.277  0.4212 -0.2314 -0.5935
  169MOL0     O22179   0.346   6.501  10.411  0.0321 -0.7084  0.2436
  169MOL0     C22180   0.220   6.516  10.448  0.1445 -0.4751 -0.0256
  169MOL0     C22181   0.113   6.430  10.423 -0.9846  0.5131 -0.3214
  169MOL0     C22182  -0.011   6.463  10.464  0.0764 -0.0073 -1.0217
  169MOL0     C22183  -0.039   6.582  10.533  0.0636 -0.0722  0.3227
  169MOL0     O22184  -0.164   6.599  10.578  0.2000  0.4211  0.3731
  169MOL0     C22185  -0.178   6.695  10.682 -0.4819  0.2583 -0.0453
  169MOL0     C22186  -0.317   6.668  10.745  1.1231 -0.4341 -0.1632
  169MOL0     C22187  -0.357   6.780  10.854  1.9124  0.4040 -0.3672
  169MOL0     C22188  -0.248   6.813  10.956 -0.5561  0.9967 -0.2168
  169MOL0     C22189  -0.301   6.899  11.074  0.0353 -0.1329  0.6295
  169MOL0     C22190  -0.187   6.948  11.172 -0.0199 -1.1089  0.1700
  169MOL0     C22191  -0.149   6.840  11.288  0.2994 -0.0503 -0.0735
  169MOL0     C22192  -0.081   6.709  11.249  0.4692  0.9979  0.0904
  169MOL0     N22193   0.047   6.706  11.189 -0.2938 -0.9168 -0.9129
  169MOL0     C22194   0.159   6.628  11.223 -0.4161 -0.3899 -1.7912
  169MOL0     C22195   0.271   6.687  11.164  0.2055  0.1957 -0.5292
  169MOL0     C22196   0.416   6.645  11.182 -1.2218  0.3770 -0.4310
  169MOL0     C22197   0.491   6.718  11.291  1.3080  0.3423 -0.0377
  169MOL0     C22198   0.452   6.650  11.422 -0.0706 -0.3535 -0.9652
  169MOL0     C22199   0.495   6.734  11.545  0.4189 -0.1385  0.6518
  169MOL0     O22200   0.430   6.678  11.660 -0.3860 -0.4100  0.8585
  169MOL0     C22201   0.297   6.698  11.669  0.6376 -0.0829  0.1140
  169MOL0     C22202   0.235   6.629  11.761  0.2486 -1.1711 -0.7032
  169MOL0     C22203   0.096   6.630  11.791  0.4011  0.2863 -0.2142
  169MOL0     C22204   0.012   6.705  11.710 -0.6250  0.6238  1.2377
  169MOL0     C22205  -0.133   6.705  11.720  0.0577  0.0888 -0.2697
  169MOL0     O22206  -0.207   6.780  11.628 -0.8410 -0.7193  0.4021
  169MOL0     C22207  -0.329   6.821  11.667  0.0510 -0.0610  0.0531
  169MOL0     C22208  -0.422   6.758  11.748 -1.0404  0.1228  0.6526
  169MOL0     C22209  -0.548   6.819  11.775 -0.2909  0.8847  1.7145
  169MOL0     C22210  -0.595   6.934  11.716  0.3717 -0.1934 -0.6443
  169MOL0     O22211  -0.718   6.998  11.739 -0.0401  0.5542 -0.8061
  169MOL0     C22212  -0.825   6.929  11.798 -0.3974 -0.0044 -0.1608
  169MOL0     C22213  -0.944   7.029  11.785  0.0464 -0.2209 -1.0150
  169MOL0     C22214  -0.983   7.048  11.639  0.1116 -0.0035 -0.4479
  169MOL0     C22215  -1.050   7.181  11.611  0.0548  0.3831 -0.2225
  169MOL0     C22216  -1.172   7.212  11.695  0.2876  1.0714 -0.7397
  169MOL0     C22217  -1.213   7.356  11.673 -0.2624  1.2674  0.3152
  169MOL0     C22218  -1.354   7.377  11.732 -1.1837  0.4079  0.5129
  169MOL0     C22219  -1.473   7.301  11.668  0.3412  0.0237 -0.9280
  169MOL0    Cl22220  -1.498   7.333  11.488  0.4489 -0.2067 -0.5326
  169MOL0     C22221  -0.496   7.000  11.642  1.1132 -0.0129 -0.5488
  169MOL0     C22222  -0.368   6.946  11.621  0.1443 -0.1252  0.3082
  169MOL0     O22223  -0.178   6.647  11.817  0.2905 -0.0992  0.1460
  169MOL0     C22224   0.072   6.783  11.608  0.6668 -0.5044  0.0757
  169MOL0     C22225   0.209   6.788  11.592 -0.2895  0.7339  1.3222
  169MOL0     N22226   0.224   6.784  11.080  0.5839 -0.1990 -0.0033
  169MOL0     N22227   0.096   6.794  11.096 -0.9608  0.1749  0.0006
  169MOL0     C22228   0.069   6.667  10.559  0.6820  0.4317  0.4570
  169MOL0     C22229   0.194   6.629  10.523  0.3719  0.0947 -0.7364
  169MOL0     C22230   0.522   6.488  10.249 -0.0281  0.0498  0.8162
  169MOL0     C22231   0.628   6.485  10.340 -0.2675  0.2365 -0.2868
  169MOL0     C22232   0.765   6.475  10.295  0.1116  0.2056  0.8214
  169MOL0     C22233   0.796   6.486  10.162 -0.9059 -0.5755  0.0601
  169MOL0     O22234   0.922   6.484  10.111  1.1698 -0.1858 -0.2076
  169MOL0     C22235   1.027   6.499  10.204  0.4728  0.2964  0.3275
  169MOL0     C22236   1.160   6.544  10.146  0.5130  0.2943 -0.0677
  169MOL0     C22237   1.175   6.698  10.155  0.0090  0.4849 -0.4885
  169MOL0     C22238   1.083   6.763  10.064 -0.2211  0.3373  1.3607
  169MOL0     C22239   1.113   6.908  10.059 -0.0440 -0.1061 -0.0669
  169MOL0     C22240   1.115   7.031  10.049  0.6777  0.7523  0.5566
  169MOL0     C22241   0.695   6.491  10.069  0.6565  0.5099  0.4295
  169MOL0     C22242   0.559   6.493  10.109  0.4004 -0.3794 -0.6684
  169MOL0     H22243   0.138   6.349  10.356  2.6692  0.6492  0.6881
  169MOL0     H22244  -0.088   6.393  10.431  2.9914 -3.3477 -1.2797
  169MOL0     H22245  -0.185   6.792  10.633 -1.3644 -0.9884 -2.6277
  169MOL0     H22246  -0.097   6.688  10.754  0.7224  0.2963 -1.3446
  169MOL0     H22247  -0.320   6.578  10.807  1.8613 -1.7205 -1.9247
  169MOL0     H22248  -0.387   6.664  10.661  0.9194  2.9769 -0.2962
  169MOL0     H22249  -0.447   6.755  10.911  3.0274  0.2808  1.4123
  169MOL0     H22250  -0.382   6.876  10.808  2.6049  0.7320 -0.0691
  169MOL0     H22251  -0.221   6.714  10.993 -0.3975  1.0040 -0.3115
  169MOL0     H22252  -0.163   6.858  10.904  0.5656 -1.5720 -0.8032
  169MOL0     H22253  -0.381   6.844  11.123 -1.7461 -0.1368 -2.0738
  169MOL0     H22254  -0.344   6.988  11.027 -0.1817 -1.0550 -1.0267
  169MOL0     H22255  -0.235   7.033  11.221 -2.2593 -0.5444 -2.6871
  169MOL0     H22256  -0.098   6.980  11.117  1.3665 -4.1323  0.4259
  169MOL0     H22257  -0.074   6.879  11.358  2.6160 -4.0696 -0.0334
  169MOL0     H22258  -0.243   6.819  11.341  0.9391 -1.8532  0.4139
  169MOL0     H22259  -0.148   6.656  11.182  2.5174 -0.4367 -0.9466
  169MOL0     H22260  -0.080   6.636  11.330  1.1656  1.0257  0.1155
  169MOL0     H22261   0.153   6.552  11.301 -1.8158  0.4557 -1.0312
  169MOL0     H22262   0.469   6.668  11.089 -0.9308  1.9773  0.1036
  169MOL0     H22263   0.422   6.538  11.206 -0.0053  0.2367 -1.2144
  169MOL0     H22264   0.476   6.826  11.282 -2.4715 -0.0414  0.0991
  169MOL0     H22265   0.600   6.707  11.288  1.1546 -1.2680 -1.4272
  169MOL0     H22266   0.342   6.650  11.430 -0.0061  0.5879  0.2412
  169MOL0     H22267   0.485   6.546  11.425 -1.7631 -1.0129  4.2068
  169MOL0     H22268   0.478   6.842  11.540 -1.9646 -0.1684  4.3898
  169MOL0     H22269   0.604   6.729  11.553  0.8587  4.0282 -0.2119
  169MOL0     H22270   0.288   6.556  11.821 -1.4719 -1.7946  0.1126
  169MOL0     H22271   0.049   6.561  11.860 -1.3139  1.1385 -0.4760
  169MOL0     H22272  -0.401   6.656  11.777  3.1443  0.8769  0.9277
  169MOL0     H22273  -0.616   6.762  11.837 -2.4503  3.3884  1.8304
  169MOL0     H22274  -0.807   6.908  11.904 -2.5796  0.8954  0.4427
  169MOL0     H22275  -0.844   6.842  11.735  0.2245 -1.1736  1.1982
  169MOL0     H22276  -0.910   7.122  11.833 -0.3305 -0.6032  0.0310
  169MOL0     H22277  -1.029   6.989  11.841  1.8320 -1.0058  1.3121
  169MOL0     H22278  -1.057   6.976  11.603 -1.2511  1.5705 -0.9206
  169MOL0     H22279  -0.892   7.048  11.578 -0.7228 -0.0628 -1.7277
  169MOL0     H22280  -0.990   7.266  11.645  1.2897  0.0878 -1.5725
  169MOL0     H22281  -1.065   7.194  11.504  1.3365  0.4232 -0.4210
  169MOL0     H22282  -1.140   7.203  11.800  2.6334 -1.5600 -1.5808
  169MOL0     H22283  -1.244   7.135  11.669  4.7831 -3.9895 -0.0169
  169MOL0     H22284  -1.221   7.379  11.567  2.1826  1.2304  0.0752
  169MOL0     H22285  -1.142   7.426  11.717 -1.3603  1.6835  1.5013
  169MOL0     H22286  -1.356   7.357  11.839 -3.4041 -1.3322  0.2037
  169MOL0     H22287  -1.372   7.485  11.725 -3.2176 -0.0169 -2.3231
  169MOL0     H22288  -1.563   7.344  11.714 -1.6946 -1.0762 -3.6247
  169MOL0     H22289  -1.462   7.194  11.689  0.2522 -0.2422 -2.1832
  169MOL0     H22290  -0.515   7.094  11.590  0.8062  0.4222  0.3214
  169MOL0     H22291  -0.304   7.001  11.553 -3.3264  3.3972 -0.5405
  169MOL0     H22292   0.006   6.835  11.540  0.3172 -0.4415  0.4586
  169MOL0     H22293   0.254   6.847  11.513 -1.4498 -1.4484 -1.1471
  169MOL0     H22294   0.073   6.766  10.601  0.4880  1.2990 -1.4672
  169MOL0     H22295   0.281   6.690  10.545  0.6726  0.6650 -3.2742
  169MOL0     H22296   0.608   6.465  10.445  0.6681  2.4711  0.3727
  169MOL0     H22297   0.847   6.454  10.363  1.5083  2.0370 -0.2081
  169MOL0     H22298   1.039   6.402  10.253  0.2973  0.2339  0.2471
  169MOL0     H22299   1.008   6.569  10.286 -3.0290  0.5185 -0.5046
  169MOL0     H22300   1.235   6.488  10.204  1.7825 -0.2219 -2.1133
  169MOL0     H22301   1.171   6.523  10.040 -0.2776  4.8084 -1.2318
  169MOL0     H22302   1.277   6.724  10.123  0.2468 -0.2534 -0.3474
  169MOL0     H22303   1.164   6.738  10.256  3.4124  0.4072  0.0335
  169MOL0     H22304   1.090   6.723   9.962 -1.7854  1.4774  0.7537
  169MOL0     H22305   0.977   6.758  10.091 -0.8634 -0.4126 -1.0226
  169MOL0     H22306   1.122   7.138  10.048 -0.7894  0.8851  1.3066
  169MOL0     H22307   0.721   6.491   9.964 -1.1230  0.7606 -0.0443
  169MOL0     H22308   0.482   6.489  10.033  1.9855  1.0045 -2.4424
  170MOL0     O22309   2.357   2.177   7.958 -0.8686 -0.3927  1.1548
  170MOL0     C22310   2.351   2.183   7.834 -0.2072  0.0019 -0.0513
  170MOL0     O22311   2.239   2.206   7.756 -0.1115  0.2122  0.2473
  170MOL0     C22312   2.104   2.181   7.793 -0.2769  0.0959  0.1584
  170MOL0     C22313   2.053   2.089   7.892  0.4350  0.6526  0.1465
  170MOL0     C22314   1.919   2.065   7.924  0.4691 -0.2110  0.1761
  170MOL0     C22315   1.823   2.140   7.847  0.0147 -0.6621 -0.1212
  170MOL0     O22316   1.688   2.124   7.875 -0.9218  0.1853  0.1989
  170MOL0     C22317   1.600   2.213   7.809  0.0329 -0.3594  0.4474
  170MOL0     C22318   1.585   2.347   7.875 -0.2341  0.6614 -1.0794
  170MOL0     C22319   1.534   2.348   8.019  0.3126 -0.0101  0.2207
  170MOL0     C22320   1.536   2.487   8.088  0.4393 -0.0098  0.1588
  170MOL0     C22321   1.675   2.505   8.146  0.1744 -0.2770 -0.0903
  170MOL0     C22322   1.670   2.614   8.249  0.1302  0.4313 -0.2346
  170MOL0     C22323   1.583   2.585   8.375 -0.4906 -0.8522 -0.2046
  170MOL0     C22324   1.614   2.696   8.475  0.3041 -0.8202  0.1657
  170MOL0     N22325   1.530   2.705   8.600  0.2493  1.2160  0.7803
  170MOL0     C22326   1.422   2.788   8.606 -0.0960 -1.0521 -0.6145
  170MOL0     C22327   1.359   2.751   8.720 -0.5492 -0.7020 -0.0343
  170MOL0     C22328   1.223   2.782   8.757  0.2517 -0.6555  0.6701
  170MOL0     C22329   1.213   2.936   8.784  0.3490 -0.1408 -0.4868
  170MOL0     C22330   1.083   2.983   8.868 -0.8978 -0.0063  0.1987
  170MOL0     C22331   0.951   2.976   8.792  0.1744  0.4533 -0.0211
  170MOL0     O22332   0.850   3.052   8.862 -0.2286  0.5633  0.1520
  170MOL0     C22333   0.742   3.101   8.785 -0.4238 -0.2965  0.1470
  170MOL0     C22334   0.676   3.017   8.691 -0.0271  0.5334  0.5576
  170MOL0     C22335   0.550   3.052   8.639 -0.2539  0.8265  0.3685
  170MOL0     C22336   0.477   3.160   8.677 -0.7298  0.2879 -0.0051
  170MOL0     C22337   0.336   3.196   8.648 -1.1407  1.0849 -0.4951
  170MOL0     O22338   0.256   3.097   8.606 -0.1711  0.3536 -0.0760
  170MOL0     C22339   0.123   3.128   8.633 -0.4855 -0.9473  0.6095
  170MOL0     C22340   0.052   3.192   8.530  0.6112  0.3443  0.3003
  170MOL0     C22341  -0.090   3.198   8.534  0.3697  0.1942 -0.3851
  170MOL0     C22342  -0.153   3.183   8.660 -0.4509  0.6424  0.5101
  170MOL0     O22343  -0.286   3.219   8.674 -0.6728 -0.2028  0.1469
  170MOL0     C22344  -0.332   3.256   8.808 -0.2792 -0.7042 -0.5645
  170MOL0     C22345  -0.249   3.367   8.874 -0.0194 -0.1905 -0.2576
  170MOL0     C22346  -0.293   3.513   8.838  0.1124  0.7979 -0.4833
  170MOL0     C22347  -0.186   3.614   8.874  0.0277  0.7458 -1.1293
  170MOL0     C22348  -0.211   3.743   8.802 -0.1281 -0.9812  0.7876
  170MOL0     C22349  -0.094   3.830   8.828 -0.3235 -0.1621 -0.2746
  170MOL0     C22350  -0.093   3.974   8.777  0.5157 -0.3882 -0.3865
  170MOL0     C22351  -0.062   3.999   8.627 -0.8170 -0.0660  0.3347
  170MOL0    Cl22352   0.104   4.039   8.610  0.0747 -0.5749  0.1855
  170MOL0     C22353  -0.078   3.122   8.766 -0.9162  0.2244 -0.2159
  170MOL0     C22354   0.056   3.084   8.749  0.6411  0.1981 -0.0078
  170MOL0     O22355   0.315   3.317   8.654 -0.0067 -0.2291  0.4897
  170MOL0     C22356   0.550   3.247   8.762 -1.6247  1.0851  0.6229
  170MOL0     C22357   0.682   3.228   8.805  0.0807 -0.8049  0.4956
  170MOL0     N22358   1.439   2.659   8.786  0.0480 -0.2820 -0.5540
  170MOL0     N22359   1.538   2.628   8.716  0.0123  0.1603  0.5035
  170MOL0     C22360   1.871   2.235   7.750 -0.7487 -0.1077 -0.6224
  170MOL0     C22361   2.008   2.254   7.729  0.0595 -0.4904 -0.5981
  170MOL0     C22362   2.477   2.191   7.757 -0.5895 -0.0815  0.1168
  170MOL0     C22363   2.602   2.183   7.831 -0.7145 -0.8132  0.4369
  170MOL0     C22364   2.723   2.190   7.763  0.8173 -0.4853  0.6237
  170MOL0     C22365   2.723   2.207   7.617  0.5717  0.0315 -1.0841
  170MOL0     O22366   2.835   2.218   7.537 -0.7784 -0.4365  0.1579
  170MOL0     C22367   2.965   2.231   7.585  0.4081 -0.7899 -0.9508
  170MOL0     C22368   3.017   2.096   7.613 -0.7488  0.6709  0.8178
  170MOL0     C22369   3.159   2.105   7.656  0.1911 -0.1910  0.4455
  170MOL0     C22370   3.246   1.970   7.635 -0.7811  0.2462  0.2372
  170MOL0     C22371   3.241   1.920   7.492 -0.9171 -0.7233 -0.2486
  170MOL0     C22372   3.248   1.884   7.377 -0.0845  0.7143  0.3820
  170MOL0     C22373   2.605   2.226   7.548  0.4032  0.1914  0.3606
  170MOL0     C22374   2.485   2.223   7.616  0.2372  0.4680  0.6578
  170MOL0     H22375   2.126   2.026   7.941  1.2632  1.0102 -0.5994
  170MOL0     H22376   1.898   1.987   7.997  0.4472  0.1513  0.5558
  170MOL0     H22377   1.504   2.161   7.808 -0.1121 -0.0978  0.6864
  170MOL0     H22378   1.622   2.218   7.702 -2.6782 -2.2740 -0.3002
  170MOL0     H22379   1.522   2.410   7.812 -0.1009  2.3017  0.3751
  170MOL0     H22380   1.683   2.396   7.876 -1.2234  2.7378 -0.0439
  170MOL0     H22381   1.584   2.269   8.075  1.8374 -1.5570 -3.0664
  170MOL0     H22382   1.427   2.325   8.011  0.5370 -0.3527 -2.8856
  170MOL0     H22383   1.500   2.559   8.014 -2.2108 -0.5585  0.8187
  170MOL0     H22384   1.454   2.486   8.160 -1.6610  3.1405 -1.9342
  170MOL0     H22385   1.754   2.534   8.076  1.3489  3.2810  2.4324
  170MOL0     H22386   1.694   2.407   8.190 -2.5064 -0.8168  0.0256
  170MOL0     H22387   1.658   2.712   8.203 -1.1470  0.7380  0.7109
  170MOL0     H22388   1.771   2.608   8.290  0.1868  0.9084 -0.3064
  170MOL0     H22389   1.482   2.591   8.333 -0.3868  1.8014 -0.2259
  170MOL0     H22390   1.607   2.489   8.423 -0.5041 -0.4088  0.7178
  170MOL0     H22391   1.608   2.793   8.424 -0.8732 -0.9447  0.0341
  170MOL0     H22392   1.715   2.690   8.515  0.1645  0.5110  0.7696
  170MOL0     H22393   1.393   2.853   8.524  1.5134 -1.2823 -1.3962
  170MOL0     H22394   1.194   2.733   8.850 -3.0243  1.6365  1.0429
  170MOL0     H22395   1.147   2.757   8.682 -1.5131 -0.3764  2.2861
  170MOL0     H22396   1.209   2.986   8.687 -2.2157  0.7976  0.0178
  170MOL0     H22397   1.301   2.973   8.837  1.5405 -1.1164 -1.7178
  170MOL0     H22398   1.071   2.924   8.960 -5.0560 -1.3192 -0.9809
  170MOL0     H22399   1.093   3.086   8.903 -0.5442  0.3595 -0.9355
  170MOL0     H22400   0.927   2.870   8.780 -0.4723  0.6860 -0.8922
  170MOL0     H22401   0.960   3.027   8.695 -0.2080  1.5695  0.5185
  170MOL0     H22402   0.718   2.921   8.662 -1.2364 -0.8578  3.0888
  170MOL0     H22403   0.506   2.974   8.579 -0.6712  1.4618 -0.1553
  170MOL0     H22404   0.108   3.217   8.440  1.2903 -0.2545  0.5469
  170MOL0     H22405  -0.145   3.244   8.453  1.9302  0.6157 -1.2527
  170MOL0     H22406  -0.330   3.168   8.873 -0.4091  2.2490  3.8362
  170MOL0     H22407  -0.436   3.288   8.799  0.3100  1.8491  0.7635
  170MOL0     H22408  -0.142   3.350   8.864  0.7240  2.1585  2.4843
  170MOL0     H22409  -0.259   3.342   8.980  0.1497 -1.0795 -0.4448
  170MOL0     H22410  -0.380   3.538   8.899  1.2801  1.1640  1.1022
  170MOL0     H22411  -0.317   3.543   8.736 -0.6331  2.5912  0.1751
  170MOL0     H22412  -0.181   3.632   8.982 -0.7074  2.2992 -1.3268
  170MOL0     H22413  -0.085   3.585   8.842 -0.7747 -0.3495 -2.7908
  170MOL0     H22414  -0.305   3.787   8.835 -0.4554 -2.6270  2.1317
  170MOL0     H22415  -0.212   3.725   8.694  0.2897 -2.7654  1.0559
  170MOL0     H22416  -0.003   3.783   8.791  0.4871  0.8914  0.2964
  170MOL0     H22417  -0.089   3.849   8.936  0.1630 -0.8929 -0.1608
  170MOL0     H22418  -0.194   4.014   8.791 -0.2578 -1.6830 -1.9373
  170MOL0     H22419  -0.033   4.048   8.831  0.1861  1.3276 -2.2555
  170MOL0     H22420  -0.118   4.074   8.571  1.0010 -0.4948 -2.2606
  170MOL0     H22421  -0.076   3.906   8.571 -0.5524  1.3470 -2.2583
  170MOL0     H22422  -0.125   3.097   8.861  0.1564 -0.4503  0.1614
  170MOL0     H22423   0.096   3.026   8.831 -0.8632 -1.3686 -0.3370
  170MOL0     H22424   0.499   3.338   8.793 -3.2905 -0.6016  3.1443
  170MOL0     H22425   0.714   3.285   8.892 -1.4937  1.3543 -0.2662
  170MOL0     H22426   1.809   2.286   7.677 -0.1936  1.1886 -0.2244
  170MOL0     H22427   2.045   2.316   7.648 -1.0455 -1.5566 -1.9632
  170MOL0     H22428   2.603   2.161   7.937  0.3078 -1.0436  0.3835
  170MOL0     H22429   2.821   2.178   7.807 -0.1473 -2.8666  2.3450
  170MOL0     H22430   2.977   2.295   7.673 -2.3756 -3.0534  1.3156
  170MOL0     H22431   3.032   2.279   7.513  1.2429 -1.7315 -0.8280
  170MOL0     H22432   2.963   2.066   7.703  2.1758  2.0938  3.2304
  170MOL0     H22433   3.013   2.025   7.530 -0.3349 -0.6966  1.9218
  170MOL0     H22434   3.166   2.143   7.758 -1.2216  1.4998 -0.0227
  170MOL0     H22435   3.203   2.181   7.591 -0.8090 -1.5548 -1.9645
  170MOL0     H22436   3.353   1.985   7.654 -0.2302  0.3420 -2.4812
  170MOL0     H22437   3.207   1.895   7.705 -1.7763  2.0246  1.6667
  170MOL0     H22438   3.264   1.867   7.273 -4.5410  1.2798 -0.6183
  170MOL0     H22439   2.597   2.254   7.444 -0.5908 -1.2195  0.0191
  170MOL0     H22440   2.393   2.230   7.560 -0.9253 -0.0205  2.4253
  171MOL0     O22441   8.519   4.203   6.849  0.4974  0.1316 -0.0131
  171MOL0     C22442   8.484   4.320   6.869 -0.6747 -0.0214  0.2101
  171MOL0     O22443   8.362   4.373   6.822  0.4487 -0.3533  0.0847
  171MOL0     C22444   8.259   4.288   6.780 -0.6792 -0.7047  0.5090
  171MOL0     C22445   8.225   4.179   6.850 -0.0365  0.1154 -1.3683
  171MOL0     C22446   8.116   4.101   6.805 -0.0300 -0.1064 -0.8904
  171MOL0     C22447   8.058   4.125   6.683  1.0543  0.1165  0.2786
  171MOL0     O22448   7.952   4.050   6.628  0.5186  0.5493 -0.7297
  171MOL0     C22449   7.949   3.914   6.673 -0.0626 -0.2260 -0.1071
  171MOL0     C22450   7.827   3.833   6.624  0.6065  0.3294 -0.3935
  171MOL0     C22451   7.685   3.874   6.672  0.5396  0.4436  0.3562
  171MOL0     C22452   7.581   3.794   6.602  0.9104 -0.2189  0.2198
  171MOL0     C22453   7.443   3.843   6.647  0.6534  1.3889 -1.0067
  171MOL0     C22454   7.340   3.789   6.549  0.4282 -0.0287  0.2823
  171MOL0     C22455   7.205   3.828   6.597  0.0349  0.4093  0.2801
  171MOL0     C22456   7.161   3.739   6.719  0.0711  0.2327  0.2158
  171MOL0     N22457   7.026   3.699   6.715  0.2056  0.2377  0.3235
  171MOL0     C22458   6.920   3.778   6.663 -0.1755 -0.4100  0.2231
  171MOL0     C22459   6.809   3.697   6.682  0.3725 -0.0509 -0.3854
  171MOL0     C22460   6.672   3.719   6.634  0.8802 -0.2772 -0.0551
  171MOL0     C22461   6.576   3.627   6.705 -0.3903  0.5364  0.8015
  171MOL0     C22462   6.434   3.668   6.653  0.2773  0.1934 -0.1682
  171MOL0     C22463   6.329   3.575   6.714 -0.4344  0.0383 -0.3086
  171MOL0     O22464   6.333   3.436   6.681  0.6842 -0.3089  0.1522
  171MOL0     C22465   6.196   3.413   6.647 -0.7263  0.6300 -0.1350
  171MOL0     C22466   6.167   3.364   6.520 -0.2454 -1.2720  0.6438
  171MOL0     C22467   6.039   3.324   6.476  0.6485 -0.7812 -0.8855
  171MOL0     C22468   5.936   3.341   6.578  0.5418 -0.1117  1.1194
  171MOL0     C22469   5.795   3.287   6.535 -0.2169 -0.1191  0.2718
  171MOL0     O22470   5.702   3.305   6.632 -0.4929  0.3346 -0.1034
  171MOL0     C22471   5.571   3.264   6.620  0.3272  0.4189 -0.3715
  171MOL0     C22472   5.524   3.186   6.723 -0.3175 -0.3563  0.6776
  171MOL0     C22473   5.399   3.128   6.724 -0.4879  0.1026  0.3129
  171MOL0     C22474   5.310   3.150   6.613 -0.0522 -0.0012  0.0048
  171MOL0     O22475   5.191   3.096   6.595 -0.6173  0.7944  0.1995
  171MOL0     C22476   5.124   3.043   6.711  0.2441 -0.1816  0.1491
  171MOL0     C22477   4.970   3.065   6.696  0.3885 -0.4335  0.1238
  171MOL0     C22478   4.903   2.960   6.791 -0.5920 -0.7819  0.5567
  171MOL0     C22479   4.754   2.990   6.815 -0.3037 -0.1849 -0.2100
  171MOL0     C22480   4.699   2.957   6.955  0.0529  0.3900 -0.1946
  171MOL0     C22481   4.707   2.805   6.975 -0.7223  0.3609 -0.3732
  171MOL0     C22482   4.683   2.766   7.118  0.1759  0.1177 -0.1808
  171MOL0     C22483   4.652   2.620   7.126  0.6675  0.4099  0.1078
  171MOL0    Cl22484   4.492   2.580   7.051 -0.0689  0.0799  0.3498
  171MOL0     C22485   5.357   3.229   6.507 -0.5439  0.4176  0.1790
  171MOL0     C22486   5.492   3.285   6.505  0.1005  0.1228 -0.0473
  171MOL0     O22487   5.772   3.242   6.420 -0.3277 -0.2974  0.0268
  171MOL0     C22488   5.966   3.391   6.699  0.3427 -0.0598 -0.5755
  171MOL0     C22489   6.097   3.427   6.736  0.3785  0.1033 -0.1019
  171MOL0     N22490   6.852   3.576   6.737  0.2586  0.3540  1.3578
  171MOL0     N22491   6.975   3.583   6.761 -0.0344 -0.0429  0.8996
  171MOL0     C22492   8.085   4.246   6.610  0.0511  0.3978 -0.8396
  171MOL0     C22493   8.194   4.319   6.658 -0.6339 -0.4827 -0.0909
  171MOL0     C22494   8.593   4.416   6.897 -0.3779 -0.7635  0.9766
  171MOL0     C22495   8.567   4.556   6.895  0.5497 -0.7522 -0.2775
  171MOL0     C22496   8.678   4.648   6.908  0.3685  0.6479 -0.2718
  171MOL0     C22497   8.805   4.609   6.928  0.3792 -0.1647 -0.0874
  171MOL0     O22498   8.924   4.684   6.947  0.6106 -0.3910 -0.3718
  171MOL0     C22499   8.917   4.818   6.912 -0.2323 -0.0048 -0.0135
  171MOL0     C22500   9.046   4.895   6.937  0.5503 -0.1122  0.0793
  171MOL0     C22501   9.092   4.881   7.074 -0.4327  0.0655 -0.1186
  171MOL0     C22502   9.209   4.778   7.083  0.2051 -0.4905 -0.1735
  171MOL0     C22503   9.332   4.808   7.019  0.2420  0.0266  0.4012
  171MOL0     C22504   9.432   4.831   6.949 -0.0603 -0.8908  0.2977
  171MOL0     C22505   8.829   4.472   6.918 -0.0304 -0.6533 -0.2303
  171MOL0     C22506   8.735   4.375   6.899 -0.0871 -0.1600 -0.0093
  171MOL0     H22507   8.269   4.143   6.942 -1.2784 -0.8936 -1.1348
  171MOL0     H22508   8.097   4.017   6.871 -0.6480  0.9925  0.3898
  171MOL0     H22509   7.934   3.904   6.781 -0.6486  1.1210 -0.0486
  171MOL0     H22510   8.039   3.867   6.633  0.4956  1.3131 -0.7255
  171MOL0     H22511   7.843   3.727   6.645  0.7959  0.6474  1.1589
  171MOL0     H22512   7.824   3.834   6.514 -3.6388 -0.4689 -0.4675
  171MOL0     H22513   7.669   3.978   6.641  0.7099 -0.1518 -1.9019
  171MOL0     H22514   7.693   3.874   6.781  0.3824 -0.2801  0.3662
  171MOL0     H22515   7.595   3.804   6.494  1.7829 -0.6865  0.2847
  171MOL0     H22516   7.587   3.693   6.642  2.4099 -0.0139  0.5434
  171MOL0     H22517   7.441   3.952   6.638  3.1788  1.5077 -0.8298
  171MOL0     H22518   7.418   3.814   6.750  0.0556  2.3318 -0.8676
  171MOL0     H22519   7.338   3.680   6.541  1.8525  0.0557 -3.3685
  171MOL0     H22520   7.350   3.827   6.447 -0.1511 -0.4006  0.0779
  171MOL0     H22521   7.186   3.935   6.606  2.8667  1.0415 -0.2662
  171MOL0     H22522   7.139   3.796   6.515  1.1769 -2.3115  0.3170
  171MOL0     H22523   7.177   3.802   6.807  2.5057  0.9919 -0.6817
  171MOL0     H22524   7.218   3.646   6.728 -0.7539 -0.2790  0.2770
  171MOL0     H22525   6.917   3.877   6.619 -0.3339 -0.1768  0.7590
  171MOL0     H22526   6.662   3.707   6.526 -1.8704  0.7694 -0.0159
  171MOL0     H22527   6.647   3.824   6.654  1.8311 -0.0219 -0.1985
  171MOL0     H22528   6.570   3.650   6.812  2.5491 -0.1201  1.1790
  171MOL0     H22529   6.610   3.524   6.689  1.3681  1.3654 -1.2515
  171MOL0     H22530   6.408   3.765   6.696 -0.8281 -0.8174  1.5653
  171MOL0     H22531   6.432   3.661   6.544  1.1832  2.2532 -0.3494
  171MOL0     H22532   6.234   3.624   6.690 -2.3459 -3.9093 -1.7128
  171MOL0     H22533   6.336   3.586   6.823 -1.1298  1.7912 -0.4114
  171MOL0     H22534   6.254   3.361   6.456 -0.8966 -3.6362 -0.2030
  171MOL0     H22535   6.010   3.295   6.375 -1.4836  1.2240 -0.9402
  171MOL0     H22536   5.584   3.174   6.813  1.6188  0.0982 -0.4978
  171MOL0     H22537   5.379   3.075   6.816  1.1886 -0.8310  0.1819
  171MOL0     H22538   5.140   3.097   6.805 -1.3301 -0.8263  0.8296
  171MOL0     H22539   5.158   2.940   6.724  1.3986  0.2234  0.4639
  171MOL0     H22540   4.937   3.050   6.593 -1.0015  0.7185  0.3685
  171MOL0     H22541   4.951   3.171   6.717  2.7253  0.6496 -2.6108
  171MOL0     H22542   4.961   2.972   6.883  0.7748 -0.0892 -0.3674
  171MOL0     H22543   4.910   2.862   6.742  0.7366 -1.1460  1.4154
  171MOL0     H22544   4.744   3.095   6.785  1.6998 -0.2382 -1.2777
  171MOL0     H22545   4.692   2.934   6.744  0.8002 -0.2006 -1.1848
  171MOL0     H22546   4.591   2.974   6.963 -0.1355 -0.8097 -0.0383
  171MOL0     H22547   4.756   3.016   7.027 -0.4119  2.1492 -1.2039
  171MOL0     H22548   4.800   2.760   6.942 -0.0312  1.1455  0.4237
  171MOL0     H22549   4.636   2.754   6.909  0.4444  0.4566 -1.7261
  171MOL0     H22550   4.769   2.797   7.177 -1.7402  0.0945  2.8021
  171MOL0     H22551   4.594   2.817   7.157 -2.0115 -1.7706 -2.3382
  171MOL0     H22552   4.634   2.590   7.229  1.4219  1.1355  0.4550
  171MOL0     H22553   4.736   2.561   7.088  1.0485  1.1951 -0.2967
  171MOL0     H22554   5.292   3.246   6.422 -1.3624  3.2297  1.2705
  171MOL0     H22555   5.527   3.333   6.414 -1.4163  0.6601 -0.3877
  171MOL0     H22556   5.888   3.405   6.773 -0.4818 -0.5557 -1.3331
  171MOL0     H22557   6.115   3.455   6.840 -0.3354  1.2192 -0.2605
  171MOL0     H22558   8.024   4.295   6.535 -0.3911 -1.2081 -1.5793
  171MOL0     H22559   8.235   4.410   6.616 -0.9004  0.7353  2.1054
  171MOL0     H22560   8.468   4.598   6.884 -0.0552 -2.3430 -1.3382
  171MOL0     H22561   8.654   4.754   6.907 -0.3753  0.4872 -0.3915
  171MOL0     H22562   8.843   4.861   6.981  0.6134  0.4592  0.6296
  171MOL0     H22563   8.891   4.843   6.809  0.2850  2.6501  0.4129
  171MOL0     H22564   9.112   4.863   6.856 -0.5219  1.6572 -1.5854
  171MOL0     H22565   9.037   5.001   6.911 -2.4057 -0.6006 -1.2510
  171MOL0     H22566   9.009   4.860   7.142 -1.0208 -0.0190 -0.8513
  171MOL0     H22567   9.124   4.982   7.102  0.4798 -0.1071 -0.5054
  171MOL0     H22568   9.220   4.757   7.190  3.4881  1.7125  0.0581
  171MOL0     H22569   9.170   4.692   7.028  0.2249 -1.4837  1.3072
  171MOL0     H22570   9.508   4.855   6.878 -1.0591  1.3757 -0.1054
  171MOL0     H22571   8.927   4.428   6.935 -0.5968 -1.6635  0.5302
  171MOL0     H22572   8.775   4.278   6.870 -0.0062 -0.1517  0.0743
  172MOL0     O22573   1.401   1.394   3.537 -0.2228  0.2603 -0.0688
  172MOL0     C22574   1.394   1.273   3.535 -0.6030  0.3222 -0.1915
  172MOL0     O22575   1.286   1.193   3.510  0.6900 -0.0546  0.4473
  172MOL0     C22576   1.158   1.251   3.504  0.0783 -0.8598  0.0217
  172MOL0     C22577   1.133   1.364   3.430 -0.3809 -1.0755 -0.4485
  172MOL0     C22578   1.009   1.425   3.435 -0.3694  0.3589 -0.0478
  172MOL0     C22579   0.907   1.379   3.523 -0.2945 -0.0334  0.8503
  172MOL0     O22580   0.786   1.445   3.508 -0.5416 -0.0101  0.0402
  172MOL0     C22581   0.673   1.364   3.495 -0.4466  0.0077 -0.4541
  172MOL0     C22582   0.595   1.347   3.627  0.0376 -0.6281 -0.2366
  172MOL0     C22583   0.436   1.324   3.623 -0.6424 -0.1797 -0.1718
  172MOL0     C22584   0.379   1.336   3.759 -1.2463 -0.4199  0.6452
  172MOL0     C22585   0.235   1.309   3.776  0.6604 -1.0525 -0.2724
  172MOL0     C22586   0.176   1.359   3.910  0.1009 -0.1065 -1.3520
  172MOL0     C22587   0.033   1.325   3.906  1.1101  0.5293 -0.1200
  172MOL0     C22588  -0.027   1.363   4.044  0.0434  0.1744 -0.9953
  172MOL0     N22589  -0.165   1.345   4.041  0.0376  0.0480 -1.0112
  172MOL0     C22590  -0.263   1.439   4.006  0.0496  0.2355 -0.3632
  172MOL0     C22591  -0.380   1.379   4.035  0.2937  0.3159  0.1748
  172MOL0     C22592  -0.521   1.441   4.023 -0.0812 -0.2618 -0.5782
  172MOL0     C22593  -0.634   1.368   4.094  0.0348 -0.4976 -0.3108
  172MOL0     C22594  -0.641   1.401   4.242  0.0228 -0.3010  0.0097
  172MOL0     C22595  -0.777   1.356   4.303 -0.8538 -0.4207  0.0919
  172MOL0     O22596  -0.773   1.394   4.443  0.1522 -0.4737  0.4716
  172MOL0     C22597  -0.886   1.436   4.510 -0.6354  0.1703  0.6767
  172MOL0     C22598  -1.009   1.409   4.460 -0.4557  0.9407  0.8010
  172MOL0     C22599  -1.120   1.450   4.539 -0.2849 -0.3075  0.2057
  172MOL0     C22600  -1.106   1.534   4.647  0.1035 -0.0958 -0.9114
  172MOL0     C22601  -1.225   1.569   4.718 -1.0360 -0.2816 -0.2682
  172MOL0     O22602  -1.206   1.659   4.827 -0.1394  0.5930  0.2279
  172MOL0     C22603  -1.306   1.707   4.906  0.3815  0.3108  0.8055
  172MOL0     C22604  -1.417   1.634   4.939 -0.6153  0.0586 -0.7609
  172MOL0     C22605  -1.523   1.689   4.998  0.8620 -0.6399 -0.3242
  172MOL0     C22606  -1.534   1.831   5.022  0.0384  0.0687 -0.6384
  172MOL0     O22607  -1.640   1.888   5.084  0.0498 -0.1496 -1.0256
  172MOL0     C22608  -1.728   1.803   5.162  0.4756 -0.2112  0.3563
  172MOL0     C22609  -1.800   1.881   5.266  0.4770  0.4314  0.1136
  172MOL0     C22610  -1.732   1.909   5.405  0.1299  0.2814  0.5988
  172MOL0     C22611  -1.825   1.965   5.519 -0.0265 -0.0461 -0.9154
  172MOL0     C22612  -1.737   2.001   5.646  0.6461  0.0125  0.2360
  172MOL0     C22613  -1.656   2.137   5.633  0.9039 -0.3307  0.0853
  172MOL0     C22614  -1.550   2.152   5.743  0.5505  0.0780  0.2045
  172MOL0     C22615  -1.451   2.260   5.697 -0.2563  0.0156  0.6579
  172MOL0    Cl22616  -1.350   2.196   5.569 -0.4346  0.0191  0.4640
  172MOL0     C22617  -1.423   1.914   4.982 -0.3282  0.3854  1.2595
  172MOL0     C22618  -1.312   1.847   4.920 -0.6656  0.0749  0.2187
  172MOL0     O22619  -1.336   1.526   4.691  0.5913 -0.3138 -0.0521
  172MOL0     C22620  -0.978   1.569   4.689 -0.4979  0.1193 -0.4425
  172MOL0     C22621  -0.865   1.512   4.624 -0.3897  0.8441 -1.5317
  172MOL0     N22622  -0.354   1.252   4.080  0.4406  0.3943  0.1311
  172MOL0     N22623  -0.227   1.230   4.082 -0.3774  0.2709 -0.0011
  172MOL0     C22624   0.933   1.259   3.599  0.0908  0.6539  0.5437
  172MOL0     C22625   1.064   1.206   3.596  0.1186  0.3232  0.3818
  172MOL0     C22626   1.521   1.197   3.564 -0.2160  0.1887 -0.7406
  172MOL0     C22627   1.641   1.256   3.619  0.7667  0.3805 -0.0234
  172MOL0     C22628   1.763   1.191   3.634 -0.2502  0.0113 -0.0276
  172MOL0     C22629   1.768   1.053   3.595 -0.2923  0.1370  0.1305
  172MOL0     O22630   1.877   0.971   3.608 -0.2361 -0.1456 -0.2696
  172MOL0     C22631   2.010   1.021   3.637 -0.2036 -0.0126  0.5003
  172MOL0     C22632   2.124   0.924   3.613  0.4401 -0.0311 -0.1938
  172MOL0     C22633   2.241   0.968   3.695  0.9274  0.9370  0.1060
  172MOL0     C22634   2.373   0.903   3.647 -0.1804 -0.1658 -0.1566
  172MOL0     C22635   2.484   0.974   3.717 -0.1744  0.2472  0.2180
  172MOL0     C22636   2.569   1.034   3.773  0.5224  0.6568 -0.8683
  172MOL0     C22637   1.655   0.991   3.547 -0.3740 -0.1216 -0.0232
  172MOL0     C22638   1.538   1.061   3.543 -1.4708  0.3030  0.4021
  172MOL0     H22639   1.211   1.411   3.371 -1.8404  0.8962 -0.9308
  172MOL0     H22640   0.998   1.523   3.390 -2.5120  0.1666 -0.0176
  172MOL0     H22641   0.694   1.276   3.434  1.3950  1.1786 -1.6123
  172MOL0     H22642   0.603   1.421   3.432 -1.4716  0.3076  0.9102
  172MOL0     H22643   0.614   1.443   3.675 -0.0284 -2.5610  4.1742
  172MOL0     H22644   0.648   1.276   3.690 -1.6405 -0.2607  1.7086
  172MOL0     H22645   0.410   1.223   3.591 -2.4242 -0.7879  2.7794
  172MOL0     H22646   0.377   1.392   3.560 -0.5783  2.6617  2.5387
  172MOL0     H22647   0.433   1.274   3.831 -0.6393  1.0886  1.5300
  172MOL0     H22648   0.391   1.438   3.796  0.3833  0.5618 -2.2937
  172MOL0     H22649   0.213   1.202   3.769  1.4537 -1.2626  0.2374
  172MOL0     H22650   0.182   1.352   3.691 -0.0924 -2.8562 -0.7828
  172MOL0     H22651   0.183   1.467   3.927  0.3680 -0.3894  0.7098
  172MOL0     H22652   0.224   1.307   3.994 -0.7496 -0.5166 -1.1130
  172MOL0     H22653  -0.005   1.387   3.824 -2.6881 -1.4569 -0.0567
  172MOL0     H22654   0.009   1.224   3.875 -0.7656  0.7492  0.5162
  172MOL0     H22655  -0.011   1.466   4.076 -0.7299  0.0892 -0.2837
  172MOL0     H22656   0.023   1.297   4.115 -0.5655 -0.9306 -1.5556
  172MOL0     H22657  -0.237   1.539   3.971 -0.7621  0.0554 -1.5106
  172MOL0     H22658  -0.547   1.433   3.917  1.6035 -2.9685 -0.8655
  172MOL0     H22659  -0.535   1.545   4.053 -1.6666 -0.4763 -0.4883
  172MOL0     H22660  -0.631   1.261   4.074  0.4337 -0.3259 -1.2610
  172MOL0     H22661  -0.732   1.396   4.053 -0.8196  0.7212  2.3536
  172MOL0     H22662  -0.562   1.346   4.294  2.2894  0.3469 -2.4955
  172MOL0     H22663  -0.632   1.508   4.265 -0.6109 -0.0486 -0.8480
  172MOL0     H22664  -0.780   1.248   4.291 -0.2181 -0.5755  1.2516
  172MOL0     H22665  -0.856   1.403   4.243 -0.5378 -1.4053 -1.1473
  172MOL0     H22666  -1.026   1.365   4.363  0.9886  1.6411  0.2048
  172MOL0     H22667  -1.217   1.409   4.512 -1.3821  1.6879  0.9466
  172MOL0     H22668  -1.401   1.527   4.930 -0.3398  0.1680 -1.7683
  172MOL0     H22669  -1.607   1.627   5.027 -0.6360  1.1860 -0.6025
  172MOL0     H22670  -1.664   1.723   5.201 -1.5179 -2.8796 -1.6016
  172MOL0     H22671  -1.799   1.754   5.096 -0.0937  1.6640 -0.5055
  172MOL0     H22672  -1.888   1.822   5.295  3.5491 -3.1320  3.2726
  172MOL0     H22673  -1.845   1.968   5.217  1.0944  0.7916  0.1797
  172MOL0     H22674  -1.652   1.980   5.386 -1.0621  1.2568 -0.9650
  172MOL0     H22675  -1.693   1.811   5.436 -1.2126 -0.4928 -0.0497
  172MOL0     H22676  -1.892   2.047   5.492 -1.5250 -0.4700  1.2489
  172MOL0     H22677  -1.896   1.888   5.550  0.7823 -0.7274 -0.7168
  172MOL0     H22678  -1.675   1.916   5.677 -0.8879 -1.6774 -1.1131
  172MOL0     H22679  -1.813   2.004   5.724  0.3549 -2.3928  0.1112
  172MOL0     H22680  -1.724   2.220   5.655  1.5967 -0.2272  1.9936
  172MOL0     H22681  -1.617   2.144   5.531 -0.1620 -4.2129 -0.7682
  172MOL0     H22682  -1.594   2.167   5.843  1.3080 -3.3306  1.2051
  172MOL0     H22683  -1.495   2.057   5.746 -2.9699 -2.1659  0.9054
  172MOL0     H22684  -1.381   2.284   5.778 -0.5008 -1.9209  1.4961
  172MOL0     H22685  -1.493   2.357   5.667  1.9358  1.0053  0.5492
  172MOL0     H22686  -1.440   2.021   4.992 -1.5715  0.5071 -1.5343
  172MOL0     H22687  -1.220   1.884   4.875 -0.9481  0.4588 -0.0506
  172MOL0     H22688  -0.958   1.629   4.777  0.5370  0.6685 -1.0325
  172MOL0     H22689  -0.759   1.530   4.643 -0.3604  2.7440 -3.1398
  172MOL0     H22690   0.852   1.237   3.668  0.2962  1.4306  1.0594
  172MOL0     H22691   1.094   1.121   3.657 -1.7135 -1.0225 -0.4517
  172MOL0     H22692   1.638   1.359   3.654  1.9936  0.3459  0.2467
  172MOL0     H22693   1.851   1.248   3.662  0.8620 -1.0591 -1.1855
  172MOL0     H22694   1.999   1.035   3.745 -2.9031  1.3272  0.1591
  172MOL0     H22695   2.033   1.122   3.601  4.7948 -0.7675  0.8550
  172MOL0     H22696   2.105   0.819   3.635 -1.2580  0.5513  1.3380
  172MOL0     H22697   2.143   0.933   3.505 -1.1877  1.8460 -0.3964
  172MOL0     H22698   2.226   0.934   3.798  0.0065 -1.2835 -0.7167
  172MOL0     H22699   2.249   1.077   3.702  0.4738  0.9911 -0.1943
  172MOL0     H22700   2.368   0.799   3.680 -1.8494  0.3770  1.4729
  172MOL0     H22701   2.390   0.917   3.540  2.2738  1.4994  0.3790
  172MOL0     H22702   2.645   1.071   3.839 -0.0211  1.2002 -0.5379
  172MOL0     H22703   1.658   0.883   3.537  2.4380 -0.0621 -0.5448
  172MOL0     H22704   1.447   1.012   3.509 -1.2344  1.3982 -2.0056
  173MOL0     O22705   3.559   0.484   2.889 -0.7775 -0.7799 -0.0655
  173MOL0     C22706   3.495   0.478   2.992  0.3931 -0.2676 -0.0878
  173MOL0     O22707   3.542   0.514   3.117 -0.3084  0.7685  0.1638
  173MOL0     C22708   3.671   0.550   3.116  0.0233 -0.0422  0.3000
  173MOL0     C22709   3.755   0.464   3.175 -0.3949 -0.6186  0.5851
  173MOL0     C22710   3.900   0.490   3.176  0.8900  0.1838  0.0365
  173MOL0     C22711   3.946   0.606   3.096  0.3418 -0.4372  0.9858
  173MOL0     O22712   4.082   0.628   3.110  0.2170 -0.0094  0.3488
  173MOL0     C22713   4.149   0.732   3.027 -0.0069  0.1100  0.0538
  173MOL0     C22714   4.303   0.722   3.048 -0.1825 -0.8263 -0.2750
  173MOL0     C22715   4.362   0.859   3.032 -0.1677  0.6141 -0.6788
  173MOL0     C22716   4.519   0.855   3.032  0.7019 -0.6381  1.0927
  173MOL0     C22717   4.587   0.994   3.022  0.5733 -0.4605  0.0936
  173MOL0     C22718   4.572   1.052   2.880 -0.5668  0.5093 -0.5620
  173MOL0     C22719   4.613   1.196   2.878 -0.3289  0.5253 -0.4514
  173MOL0     C22720   4.549   1.274   2.762 -0.4386  0.4584  0.4004
  173MOL0     N22721   4.403   1.254   2.748 -0.5056  0.2858  0.5398
  173MOL0     C22722   4.337   1.174   2.661  0.1181  0.4706 -0.4434
  173MOL0     C22723   4.210   1.175   2.698  0.2843  0.4748  0.1860
  173MOL0     C22724   4.086   1.124   2.621  0.0937  0.4579 -0.3843
  173MOL0     C22725   4.092   0.987   2.553 -0.1532 -0.4229  0.3100
  173MOL0     C22726   4.114   0.878   2.664 -0.2460  0.3570 -0.2771
  173MOL0     C22727   4.200   0.765   2.607  0.6286  0.2971  0.5975
  173MOL0     O22728   4.221   0.663   2.711  0.3434 -0.0190  0.7893
  173MOL0     C22729   4.344   0.610   2.721  0.4848  0.5855  0.3861
  173MOL0     C22730   4.347   0.477   2.740 -0.1978 -0.6501 -0.2324
  173MOL0     C22731   4.468   0.400   2.743  0.2308  0.1346 -0.3385
  173MOL0     C22732   4.588   0.475   2.734  0.2127  0.0417 -0.0558
  173MOL0     C22733   4.713   0.405   2.737  0.8327 -0.6288 -0.6765
  173MOL0     O22734   4.715   0.281   2.799 -0.6341 -0.0345  0.7079
  173MOL0     C22735   4.833   0.208   2.816  0.1357  1.1228 -0.0428
  173MOL0     C22736   4.911   0.215   2.939 -0.4948 -0.7337  0.2748
  173MOL0     C22737   5.014   0.126   2.961 -0.1030 -0.6789 -0.8275
  173MOL0     C22738   5.042   0.029   2.862 -0.7171  0.4356 -0.3341
  173MOL0     O22739   5.157  -0.040   2.901 -0.8316 -0.1371  0.4931
  173MOL0     C22740   5.209  -0.123   2.797  0.5608 -0.4379  0.7185
  173MOL0     C22741   5.333  -0.191   2.852  0.0262 -0.8010 -0.2282
  173MOL0     C22742   5.386  -0.309   2.766 -0.2349  0.7404 -0.5524
  173MOL0     C22743   5.516  -0.365   2.830 -0.4423  0.4423 -0.3128
  173MOL0     C22744   5.560  -0.494   2.755 -0.2808  0.6912  0.7027
  173MOL0     C22745   5.690  -0.468   2.665  0.3433 -0.2471 -0.5988
  173MOL0     C22746   5.731  -0.597   2.595 -0.5456  0.1673  0.3409
  173MOL0     C22747   5.681  -0.615   2.448 -0.3059  0.7341 -1.4609
  173MOL0    Cl22748   5.760  -0.494   2.345  0.2620 -0.3732  0.7549
  173MOL0     C22749   4.976   0.023   2.741  0.6566 -0.4982  0.9119
  173MOL0     C22750   4.866   0.114   2.719 -0.7106  0.5475  0.5335
  173MOL0     O22751   4.815   0.471   2.714 -0.4049 -0.0016  0.6036
  173MOL0     C22752   4.587   0.614   2.716  0.8504  0.1090  0.8107
  173MOL0     C22753   4.465   0.682   2.710  0.1799 -0.8349  0.3345
  173MOL0     N22754   4.204   1.272   2.796  0.1329  0.0888 -1.2284
  173MOL0     N22755   4.317   1.309   2.837  0.0757  0.3292 -0.2630
  173MOL0     C22756   3.850   0.694   3.034 -0.1766  0.5546  0.0418
  173MOL0     C22757   3.718   0.655   3.045 -0.2754 -0.2546 -0.3717
  173MOL0     C22758   3.357   0.435   2.989 -0.7253  0.1173  0.1556
  173MOL0     C22759   3.289   0.418   2.864  0.0935 -0.2011  0.0971
  173MOL0     C22760   3.155   0.388   2.856 -0.4630 -0.7970 -0.8713
  173MOL0     C22761   3.078   0.359   2.969  0.1892  0.2024 -0.0411
  173MOL0     O22762   2.940   0.327   2.954 -0.2616  0.0914  0.2258
  173MOL0     C22763   2.863   0.265   3.054  0.2945  0.2121 -0.4948
  173MOL0     C22764   2.725   0.236   2.998 -0.1770 -0.7453 -0.3066
  173MOL0     C22765   2.625   0.346   3.033  0.1189 -0.1569  0.4116
  173MOL0     C22766   2.486   0.274   3.026  0.0782 -0.1646  0.1047
  173MOL0     C22767   2.453   0.194   3.145  0.2471  1.2857  0.0858
  173MOL0     C22768   2.406   0.141   3.243 -0.3525 -0.4209  1.5538
  173MOL0     C22769   3.143   0.384   3.094  0.4591  0.3374  0.3161
  173MOL0     C22770   3.276   0.411   3.104  0.2631 -0.0025 -0.1396
  173MOL0     H22771   3.716   0.374   3.221  1.0633 -1.7640 -0.3396
  173MOL0     H22772   3.967   0.413   3.214 -0.2832  0.6957  3.3955
  173MOL0     H22773   4.105   0.824   3.067  0.2667 -0.0655  0.7812
  173MOL0     H22774   4.112   0.719   2.925 -0.7125 -4.1546  0.6657
  173MOL0     H22775   4.349   0.648   2.982  0.9488 -2.0594  1.7946
  173MOL0     H22776   4.308   0.680   3.149 -0.9526  0.0226  0.1370
  173MOL0     H22777   4.330   0.922   3.115 -0.2547 -0.1876 -0.0946
  173MOL0     H22778   4.327   0.910   2.942  0.2395  0.7688 -0.7546
  173MOL0     H22779   4.560   0.810   3.123  2.8023  0.0779  0.5630
  173MOL0     H22780   4.553   0.794   2.947  0.4806  1.0631 -0.2738
  173MOL0     H22781   4.691   0.983   3.056  0.5777  2.0156  1.1045
  173MOL0     H22782   4.536   1.046   3.103  2.2157 -3.1647  3.0806
  173MOL0     H22783   4.472   1.039   2.838  0.9848 -0.4375 -4.3878
  173MOL0     H22784   4.643   0.999   2.816  0.7480 -0.3458  1.5035
  173MOL0     H22785   4.576   1.243   2.970 -0.8423  2.7748 -1.7167
  173MOL0     H22786   4.721   1.203   2.869 -0.5068  1.8353 -1.8844
  173MOL0     H22787   4.602   1.232   2.676 -1.3298  1.0365 -0.4517
  173MOL0     H22788   4.581   1.379   2.757 -2.0657  0.9314 -1.7038
  173MOL0     H22789   4.370   1.112   2.578 -0.7428 -1.8896  0.8831
  173MOL0     H22790   4.051   1.200   2.551  2.2133  2.3204  0.4435
  173MOL0     H22791   4.007   1.114   2.695  1.2090  0.1711  0.8208
  173MOL0     H22792   4.173   0.981   2.479 -1.0835  0.6607 -0.8500
  173MOL0     H22793   3.994   0.967   2.509  1.1259  1.0552 -3.7149
  173MOL0     H22794   4.180   0.913   2.744 -0.2413  0.3096 -0.2603
  173MOL0     H22795   4.021   0.853   2.715 -0.5902 -0.8104 -1.4187
  173MOL0     H22796   4.297   0.813   2.587  1.2287 -0.7026  1.0738
  173MOL0     H22797   4.169   0.714   2.515  1.4427 -2.5191  1.7925
  173MOL0     H22798   4.250   0.429   2.753 -0.0028 -0.3418  3.4298
  173MOL0     H22799   4.467   0.295   2.770  2.1842  0.1986  0.1614
  173MOL0     H22800   4.865   0.279   3.013 -0.6260 -0.3836 -0.1073
  173MOL0     H22801   5.067   0.130   3.056  0.7682 -0.4742 -1.3153
  173MOL0     H22802   5.243  -0.080   2.703  0.8752 -0.5616  0.7746
  173MOL0     H22803   5.128  -0.193   2.777 -0.2715  1.0236 -1.3637
  173MOL0     H22804   5.295  -0.229   2.948 -0.6441 -0.2710 -0.2798
  173MOL0     H22805   5.410  -0.117   2.876  0.8687 -2.1089  1.3789
  173MOL0     H22806   5.424  -0.263   2.675  0.4139 -1.1523 -1.2841
  173MOL0     H22807   5.315  -0.390   2.749  0.3035  0.6062 -2.3011
  173MOL0     H22808   5.599  -0.294   2.842 -0.3888  0.6991 -1.8802
  173MOL0     H22809   5.491  -0.385   2.934  1.4634 -1.3941 -0.1418
  173MOL0     H22810   5.477  -0.530   2.694  1.5874 -0.2674 -1.4575
  173MOL0     H22811   5.586  -0.580   2.818  0.6675 -0.9710 -1.7983
  173MOL0     H22812   5.772  -0.431   2.728  0.2797 -0.1537 -0.5703
  173MOL0     H22813   5.676  -0.391   2.589 -1.9424 -1.8789 -1.9428
  173MOL0     H22814   5.840  -0.602   2.590 -0.4833 -2.1452  2.3310
  173MOL0     H22815   5.702  -0.686   2.651  2.5736 -0.0433  1.8164
  173MOL0     H22816   5.572  -0.613   2.440 -0.2034  1.2127 -3.1383
  173MOL0     H22817   5.712  -0.714   2.414 -0.8425 -0.8861  2.3528
  173MOL0     H22818   5.008  -0.055   2.674 -2.4140 -1.2487  0.1930
  173MOL0     H22819   4.813   0.105   2.625  0.1249  0.0455  0.0947
  173MOL0     H22820   4.677   0.672   2.696  3.2744 -2.9528  2.0927
  173MOL0     H22821   4.460   0.790   2.696  1.5507 -0.7070  0.6717
  173MOL0     H22822   3.877   0.783   2.979 -3.5591  2.6484  1.3915
  173MOL0     H22823   3.651   0.718   2.988 -0.6306 -1.0586 -0.8646
  173MOL0     H22824   3.328   0.416   2.763  0.8913 -2.0684  0.4173
  173MOL0     H22825   3.110   0.394   2.757 -0.2840 -0.4861 -0.9327
  173MOL0     H22826   2.853   0.318   3.150  1.3831 -0.1755 -0.1489
  173MOL0     H22827   2.909   0.172   3.088 -0.4301  0.7659  2.3163
  173MOL0     H22828   2.735   0.225   2.890 -1.7212 -3.1245 -0.2642
  173MOL0     H22829   2.686   0.143   3.038  0.1980 -1.0396 -0.6144
  173MOL0     H22830   2.633   0.424   2.957  0.9113 -0.1490  0.4960
  173MOL0     H22831   2.642   0.382   3.135 -0.4380 -1.6402  1.0618
  173MOL0     H22832   2.405   0.345   3.007 -1.8368 -2.0193  0.9054
  173MOL0     H22833   2.477   0.209   2.938 -0.6521  1.0724 -0.7691
  173MOL0     H22834   2.364   0.088   3.326  0.3386 -3.0709  0.3240
  173MOL0     H22835   3.092   0.362   3.187  0.2483 -0.0502  0.1111
  173MOL0     H22836   3.319   0.428   3.202 -2.6556  2.5278  0.8636
  174MOL0     O22837   5.844   1.437   4.665 -0.0563 -0.1410  0.2630
  174MOL0     C22838   5.890   1.373   4.573 -0.7798  0.3177  0.1759
  174MOL0     O22839   6.022   1.367   4.535 -0.4171  0.1934 -0.0372
  174MOL0     C22840   6.124   1.376   4.625 -0.2505  0.5284  0.0762
  174MOL0     C22841   6.113   1.371   4.769 -0.2525 -0.5584 -0.1765
  174MOL0     C22842   6.231   1.384   4.845 -0.1856 -0.1703 -0.1053
  174MOL0     C22843   6.354   1.387   4.788 -0.1014  0.6163  0.3552
  174MOL0     O22844   6.461   1.378   4.868  0.0447  0.7012 -0.7600
  174MOL0     C22845   6.569   1.468   4.830 -0.1845 -0.1779  0.3288
  174MOL0     C22846   6.641   1.506   4.964 -0.0097 -1.0028  0.6352
  174MOL0     C22847   6.550   1.585   5.061 -0.6894 -0.2804 -0.5280
  174MOL0     C22848   6.634   1.645   5.178  0.2574  0.3248  0.2721
  174MOL0     C22849   6.545   1.719   5.280 -0.7920 -0.4556  0.6332
  174MOL0     C22850   6.502   1.854   5.233  0.4196 -1.0353  0.6860
  174MOL0     C22851   6.388   1.923   5.310 -0.1076  1.2203 -0.1770
  174MOL0     C22852   6.265   1.838   5.320 -0.6760  0.1306  0.8768
  174MOL0     N22853   6.218   1.791   5.186 -0.2775 -0.1114  0.3397
  174MOL0     C22854   6.117   1.692   5.162 -0.3116  0.2677 -0.0034
  174MOL0     C22855   6.068   1.711   5.034 -0.4234 -0.6629  0.4233
  174MOL0     C22856   5.975   1.607   4.958 -0.4846  0.1718 -0.0495
  174MOL0     C22857   5.832   1.660   4.956 -0.3137 -0.0508 -0.5805
  174MOL0     C22858   5.772   1.635   5.092 -0.1281  0.5332 -0.3076
  174MOL0     C22859   5.617   1.639   5.082  0.0598 -0.0712 -0.2552
  174MOL0     O22860   5.582   1.777   5.051  0.0884  0.5179 -0.0745
  174MOL0     C22861   5.454   1.806   5.011  0.5857  0.2279 -0.7641
  174MOL0     C22862   5.440   1.926   4.949  0.8395 -0.0700 -0.3686
  174MOL0     C22863   5.324   1.958   4.894  0.2222 -1.2759  0.3414
  174MOL0     C22864   5.214   1.882   4.889 -0.0894  0.8888  0.1435
  174MOL0     C22865   5.079   1.925   4.839 -0.1175  0.2279 -0.1716
  174MOL0     O22866   5.082   2.039   4.756  0.0995  0.1675  0.0095
  174MOL0     C22867   4.978   2.119   4.721  0.2147 -0.0017 -0.0446
  174MOL0     C22868   4.893   2.078   4.617 -1.2848  0.2160 -0.7870
  174MOL0     C22869   4.798   2.167   4.564  0.0702  0.1576  0.0187
  174MOL0     C22870   4.779   2.300   4.617  0.1843  0.0468 -0.5108
  174MOL0     O22871   4.673   2.379   4.570 -0.0343 -0.5452  0.3088
  174MOL0     C22872   4.565   2.376   4.662  1.0193  0.3333  0.1895
  174MOL0     C22873   4.486   2.499   4.632  0.0516  0.2563  0.5023
  174MOL0     C22874   4.417   2.503   4.491 -1.0475 -0.4369  0.6718
  174MOL0     C22875   4.319   2.386   4.471 -0.0073 -0.5516  0.0694
  174MOL0     C22876   4.223   2.420   4.351 -0.1875 -0.0931  0.0399
  174MOL0     C22877   4.127   2.309   4.317  0.3294  0.3148  0.4100
  174MOL0     C22878   4.062   2.340   4.176 -0.3208  0.3903  0.0576
  174MOL0     C22879   3.936   2.261   4.145 -0.4020 -0.2278  0.9866
  174MOL0    Cl22880   3.813   2.336   4.245  0.1463  0.0663  0.7609
  174MOL0     C22881   4.865   2.337   4.717 -0.2266  0.4818 -0.7552
  174MOL0     C22882   4.962   2.247   4.776  0.1179  0.0823  0.5698
  174MOL0     O22883   4.982   1.863   4.868 -0.0082 -0.5585  0.3217
  174MOL0     C22884   5.221   1.750   4.952 -0.2083 -0.7821 -0.4259
  174MOL0     C22885   5.340   1.715   5.016 -0.6025 -0.6843  0.4845
  174MOL0     N22886   6.134   1.822   4.982  0.6689  0.6048  0.6135
  174MOL0     N22887   6.208   1.870   5.074 -0.4840 -0.4246  0.2916
  174MOL0     C22888   6.359   1.395   4.647  0.0271  0.2148  0.5542
  174MOL0     C22889   6.249   1.379   4.570 -0.7903  0.0350 -0.3722
  174MOL0     C22890   5.806   1.285   4.497  0.2689  0.1762  0.2814
  174MOL0     C22891   5.858   1.176   4.418 -0.4133  0.6815 -1.5951
  174MOL0     C22892   5.772   1.075   4.364 -0.0322  0.0736 -0.5066
  174MOL0     C22893   5.634   1.087   4.381 -0.0872 -0.1802 -0.3010
  174MOL0     O22894   5.540   0.984   4.344  0.0411  0.1839  0.2548
  174MOL0     C22895   5.562   0.911   4.223 -0.2979 -0.4014  0.2816
  174MOL0     C22896   5.434   0.846   4.177  0.1035  0.6041  0.0194
  174MOL0     C22897   5.448   0.794   4.041  0.1027 -0.6334 -0.1635
  174MOL0     C22898   5.343   0.684   3.998  0.3016  0.0868 -1.2398
  174MOL0     C22899   5.217   0.743   3.979  0.0069 -0.6373  0.2385
  174MOL0     C22900   5.100   0.781   3.981 -0.6653 -0.5818  0.4910
  174MOL0     C22901   5.586   1.196   4.454  0.0527 -0.2433  0.0706
  174MOL0     C22902   5.668   1.291   4.517  0.3758  0.1212 -0.1977
  174MOL0     H22903   6.018   1.354   4.818 -0.1728 -0.0612  0.1587
  174MOL0     H22904   6.221   1.372   4.953  1.1310 -1.2083 -0.0837
  174MOL0     H22905   6.528   1.546   4.765  1.2910 -1.3799 -2.1991
  174MOL0     H22906   6.642   1.414   4.770 -1.2759 -0.1250 -1.0969
  174MOL0     H22907   6.729   1.569   4.947 -0.7594  0.2976  1.3539
  174MOL0     H22908   6.662   1.416   5.021  3.0758  0.3636  1.9289
  174MOL0     H22909   6.487   1.506   5.104 -0.4732 -1.5817 -2.4761
  174MOL0     H22910   6.487   1.656   5.008  1.0607  0.8911 -1.1065
  174MOL0     H22911   6.696   1.573   5.231 -2.4705 -0.5333  2.5337
  174MOL0     H22912   6.709   1.716   5.140  1.3341 -1.2470 -0.6423
  174MOL0     H22913   6.601   1.721   5.374  0.3459 -2.3869  0.0699
  174MOL0     H22914   6.459   1.654   5.300 -0.0710 -1.7634 -0.3626
  174MOL0     H22915   6.467   1.842   5.130  0.1905  0.1872  0.6065
  174MOL0     H22916   6.582   1.928   5.234  0.1354 -0.7227  1.8723
  174MOL0     H22917   6.434   1.929   5.409  0.1799 -2.1856  0.0279
  174MOL0     H22918   6.365   2.015   5.256 -1.9049  1.6540  1.2497
  174MOL0     H22919   6.185   1.892   5.372 -1.8389  0.0327 -0.7481
  174MOL0     H22920   6.295   1.753   5.382  0.0465 -0.1008  0.2186
  174MOL0     H22921   6.096   1.620   5.240  3.2743 -1.7315 -0.7006
  174MOL0     H22922   5.976   1.509   5.008 -0.0596  0.3157  0.2296
  174MOL0     H22923   6.012   1.610   4.856 -3.5830  0.5657 -1.2580
  174MOL0     H22924   5.782   1.613   4.870  1.2366  1.0862 -2.1640
  174MOL0     H22925   5.821   1.768   4.946 -0.1252  0.1526  1.1923
  174MOL0     H22926   5.810   1.542   5.135  0.6990  2.0353  2.4406
  174MOL0     H22927   5.791   1.711   5.168 -0.2941  1.2129 -0.9388
  174MOL0     H22928   5.567   1.623   5.178 -0.9170 -1.9467 -1.0192
  174MOL0     H22929   5.586   1.561   5.012  0.0675 -1.5415  1.3066
  174MOL0     H22930   5.526   1.991   4.944 -0.1587  1.1886 -3.5668
  174MOL0     H22931   5.319   2.044   4.827  0.1041 -0.6583  1.1263
  174MOL0     H22932   4.916   1.981   4.572  1.2172  0.9313 -1.2207
  174MOL0     H22933   4.721   2.134   4.496 -1.2746  1.5204  0.8042
  174MOL0     H22934   4.604   2.391   4.763 -0.4450  1.8660  0.5688
  174MOL0     H22935   4.504   2.286   4.668  2.5583 -0.7527  0.0493
  174MOL0     H22936   4.553   2.585   4.642  0.0303  0.2804  0.4410
  174MOL0     H22937   4.409   2.507   4.710  0.4209  2.2124  0.7239
  174MOL0     H22938   4.493   2.508   4.412 -0.4125 -0.2377  1.2882
  174MOL0     H22939   4.356   2.594   4.493  0.2198  0.7025 -3.1675
  174MOL0     H22940   4.374   2.296   4.443  1.6179 -0.0841  1.5966
  174MOL0     H22941   4.248   2.365   4.552 -2.3172 -2.8490 -2.3318
  174MOL0     H22942   4.286   2.431   4.262 -0.5486 -0.6992 -0.2946
  174MOL0     H22943   4.176   2.517   4.367  1.3025  1.6912 -4.7676
  174MOL0     H22944   4.054   2.298   4.399  0.5262 -0.9810  0.4182
  174MOL0     H22945   4.175   2.212   4.312 -2.2023 -0.9735 -0.9228
  174MOL0     H22946   4.037   2.446   4.187 -2.1184  0.0035  0.0094
  174MOL0     H22947   4.141   2.344   4.100 -1.6467  2.4057 -1.3216
  174MOL0     H22948   3.959   2.155   4.163  0.7467 -0.4758 -1.4871
  174MOL0     H22949   3.919   2.261   4.037 -0.4629 -0.2922  0.9962
  174MOL0     H22950   4.866   2.433   4.767 -0.6933  0.7653 -1.2808
  174MOL0     H22951   5.018   2.291   4.858  0.8335 -0.2224  0.2606
  174MOL0     H22952   5.130   1.691   4.948 -0.1027 -1.1265  1.5256
  174MOL0     H22953   5.363   1.620   5.064  0.0110  0.8783  3.5305
  174MOL0     H22954   6.449   1.386   4.588  0.6522 -2.5503  1.7640
  174MOL0     H22955   6.261   1.379   4.462 -3.7533 -0.4803 -0.8097
  174MOL0     H22956   5.962   1.161   4.391 -0.0517 -1.2492  0.5515
  174MOL0     H22957   5.818   0.999   4.301  0.1431 -0.5745  0.3850
  174MOL0     H22958   5.645   0.843   4.248  0.6558 -0.5888 -2.9652
  174MOL0     H22959   5.592   0.969   4.135  0.1594 -1.9747 -0.6465
  174MOL0     H22960   5.430   0.764   4.248  0.0305 -0.4359 -1.1546
  174MOL0     H22961   5.347   0.913   4.185 -1.1608 -1.0034  0.2107
  174MOL0     H22962   5.547   0.749   4.041  0.1301 -0.5987  1.0128
  174MOL0     H22963   5.450   0.878   3.971  1.7360  0.2475  0.8955
  174MOL0     H22964   5.363   0.618   3.913 -1.4518 -0.5713 -1.1778
  174MOL0     H22965   5.338   0.610   4.078  2.0779 -2.9792 -3.7051
  174MOL0     H22966   5.001   0.821   3.977 -0.1934  0.5223 -0.8864
  174MOL0     H22967   5.479   1.187   4.472  0.1220  1.1793  1.4228
  174MOL0     H22968   5.636   1.374   4.579  2.2744  0.5137  0.3157
  175MOL0     O22969   3.145   0.513   8.568 -0.4111  0.6047 -0.6346
  175MOL0     C22970   3.208   0.581   8.648 -0.7168 -0.0108 -0.6400
  175MOL0     O22971   3.163   0.631   8.768  0.7110  0.0863  0.2332
  175MOL0     C22972   3.044   0.600   8.833 -0.3555 -0.3530  1.0124
  175MOL0     C22973   2.981   0.480   8.830  0.1557 -0.0359  0.5273
  175MOL0     C22974   2.880   0.449   8.921  0.1379  0.7791  0.5247
  175MOL0     C22975   2.839   0.543   9.020 -0.7308 -0.5435  0.0755
  175MOL0     O22976   2.753   0.512   9.116 -0.0328  0.0742 -0.1730
  175MOL0     C22977   2.635   0.587   9.123 -0.5014 -0.4681  0.6737
  175MOL0     C22978   2.642   0.656   9.254 -0.5207 -0.7504  0.4220
  175MOL0     C22979   2.515   0.746   9.281 -1.1489 -0.2968 -0.5832
  175MOL0     C22980   2.553   0.839   9.399  0.0076 -0.5938 -0.3850
  175MOL0     C22981   2.433   0.941   9.412 -0.9674 -0.5860 -0.3946
  175MOL0     C22982   2.330   0.881   9.498 -0.3579  0.2334  0.3940
  175MOL0     C22983   2.206   0.965   9.510 -0.0879 -0.3106 -0.6740
  175MOL0     C22984   2.131   0.978   9.380 -0.8727  0.2368 -0.1348
  175MOL0     N22985   2.029   1.077   9.376 -0.2090 -0.5774 -0.0655
  175MOL0     C22986   2.052   1.215   9.360 -0.1197 -0.0398 -0.4474
  175MOL0     C22987   1.927   1.263   9.391 -0.1694 -0.8619 -0.4167
  175MOL0     C22988   1.883   1.413   9.393 -0.0038  0.0412 -0.0810
  175MOL0     C22989   1.770   1.453   9.498  0.0098 -0.0650  0.5865
  175MOL0     C22990   1.779   1.600   9.537  0.4992 -0.0259  0.2130
  175MOL0     C22991   1.741   1.687   9.423 -1.0761  0.0030  0.1621
  175MOL0     O22992   1.608   1.670   9.366  0.0563  0.8610 -0.1489
  175MOL0     C22993   1.536   1.790   9.337 -0.0155 -0.1852  0.1130
  175MOL0     C22994   1.602   1.913   9.314  0.1203  0.7719  0.0896
  175MOL0     C22995   1.523   2.029   9.292  0.0346 -0.6004  0.5478
  175MOL0     C22996   1.390   2.016   9.273  0.6035 -0.3409 -0.6162
  175MOL0     C22997   1.304   2.137   9.230  0.2440  0.2618 -0.6629
  175MOL0     O22998   1.361   2.259   9.268  0.1707 -0.0737  0.3130
  175MOL0     C22999   1.286   2.373   9.239 -0.5962  0.3136  0.0207
  175MOL0     C23000   1.267   2.401   9.105 -0.4425 -0.7861 -0.7952
  175MOL0     C23001   1.192   2.513   9.070  0.0129 -0.1271  0.0170
  175MOL0     C23002   1.121   2.582   9.166  1.2654 -1.4875  0.6398
  175MOL0     O23003   1.033   2.687   9.142  0.3676 -0.0854  0.0591
  175MOL0     C23004   0.932   2.666   9.040 -0.3969  0.5603 -0.0296
  175MOL0     C23005   0.799   2.732   9.083 -0.4138 -0.4368 -0.2440
  175MOL0     C23006   0.816   2.868   9.149 -0.2801 -0.3744  0.0115
  175MOL0     C23007   0.689   2.954   9.149 -0.5558  0.2494 -0.0565
  175MOL0     C23008   0.715   3.099   9.204  0.7843  0.3335 -0.9188
  175MOL0     C23009   0.595   3.187   9.181 -0.0692 -1.3438 -0.7314
  175MOL0     C23010   0.601   3.325   9.250 -0.0424  0.0811  0.6647
  175MOL0     C23011   0.465   3.401   9.234  0.2014 -0.2664  0.2509
  175MOL0    Cl23012   0.413   3.418   9.066 -0.0193 -0.1525  0.1801
  175MOL0     C23013   1.150   2.563   9.301 -0.4815  0.4859 -0.3661
  175MOL0     C23014   1.239   2.459   9.336 -0.1059 -0.3175  0.2132
  175MOL0     O23015   1.195   2.121   9.178  0.0833 -0.4908  0.2435
  175MOL0     C23016   1.325   1.891   9.279 -0.9258  0.2458 -0.5661
  175MOL0     C23017   1.398   1.774   9.315 -0.3530  0.2328 -0.3121
  175MOL0     N23018   1.844   1.156   9.419  0.4987 -0.8299 -0.8348
  175MOL0     N23019   1.902   1.048   9.403  0.0844  0.5508  0.5174
  175MOL0     C23020   2.895   0.670   9.012 -0.1477 -0.0075  0.3367
  175MOL0     C23021   3.000   0.692   8.924  0.6266  0.4595  1.2486
  175MOL0     C23022   3.341   0.624   8.610 -0.5419 -0.0776  0.3311
  175MOL0     C23023   3.398   0.736   8.682  0.0132  0.3618 -0.5104
  175MOL0     C23024   3.510   0.792   8.635 -0.6068  0.5478  0.2875
  175MOL0     C23025   3.585   0.742   8.526 -0.8166  0.1245  0.0878
  175MOL0     O23026   3.710   0.789   8.483 -0.1910 -0.3955  0.1228
  175MOL0     C23027   3.771   0.901   8.564 -0.2137  0.8011 -0.3996
  175MOL0     C23028   3.920   0.905   8.536  0.0787  0.1210 -0.6484
  175MOL0     C23029   3.992   0.780   8.605  0.6236 -1.2178  0.9266
  175MOL0     C23030   4.143   0.772   8.597  0.5697 -0.3330  0.8691
  175MOL0     C23031   4.184   0.751   8.461  0.3397 -0.8618  0.5996
  175MOL0     C23032   4.207   0.742   8.347  0.3973 -0.4136  1.0947
  175MOL0     C23033   3.535   0.627   8.461  0.0877  0.8267 -0.5195
  175MOL0     C23034   3.415   0.564   8.504  0.1145 -0.4152  0.1158
  175MOL0     H23035   3.015   0.391   8.779 -0.6782 -1.4561  2.3566
  175MOL0     H23036   2.847   0.347   8.932 -2.6381  1.6005  0.4823
  175MOL0     H23037   2.547   0.522   9.129  0.6656 -2.1966  0.0046
  175MOL0     H23038   2.627   0.652   9.036  0.1607 -1.2014  0.0463
  175MOL0     H23039   2.730   0.721   9.262 -0.6822 -0.4147 -0.4308
  175MOL0     H23040   2.651   0.585   9.336  0.1064  0.0124  1.0342
  175MOL0     H23041   2.426   0.683   9.290 -2.8296  1.1953 -4.5108
  175MOL0     H23042   2.491   0.797   9.187 -3.3801 -1.6178 -0.8147
  175MOL0     H23043   2.579   0.793   9.495  0.5198 -1.4276 -0.9108
  175MOL0     H23044   2.640   0.898   9.367  0.9716 -1.2610  0.9039
  175MOL0     H23045   2.390   0.975   9.317 -4.1559  2.8100  1.9852
  175MOL0     H23046   2.471   1.032   9.459  1.2281 -2.9010  2.7803
  175MOL0     H23047   2.371   0.862   9.597  0.1431 -0.9492 -0.0146
  175MOL0     H23048   2.308   0.781   9.459  0.1293  0.4315 -0.4197
  175MOL0     H23049   2.147   0.916   9.588  1.1899  1.4922  1.5471
  175MOL0     H23050   2.238   1.059   9.557 -0.3314  0.3503 -1.7934
  175MOL0     H23051   2.082   0.883   9.358 -1.9505  0.5858  0.7160
  175MOL0     H23052   2.196   0.995   9.293 -0.0463  0.1370  0.4571
  175MOL0     H23053   2.142   1.269   9.334  0.4838  0.1043  1.8064
  175MOL0     H23054   1.850   1.428   9.290 -1.1816  1.3083  0.4571
  175MOL0     H23055   1.966   1.479   9.420  0.0704  1.4839 -3.2930
  175MOL0     H23056   1.786   1.402   9.594 -0.5890  0.6550  1.0849
  175MOL0     H23057   1.676   1.436   9.445 -0.0841  1.5777  0.1585
  175MOL0     H23058   1.705   1.621   9.614 -1.2526  0.8128 -1.6122
  175MOL0     H23059   1.877   1.631   9.574  0.6659 -2.1409  1.7364
  175MOL0     H23060   1.818   1.679   9.345 -0.8759  1.4726  0.1941
  175MOL0     H23061   1.750   1.786   9.467  2.4803  0.2261 -0.7856
  175MOL0     H23062   1.710   1.923   9.322  0.1388 -0.5379  2.4669
  175MOL0     H23063   1.571   2.125   9.276  0.7139 -0.5480  2.6445
  175MOL0     H23064   1.300   2.334   9.027  0.3724 -3.1218  1.4270
  175MOL0     H23065   1.171   2.542   8.967 -1.5057 -1.2243 -0.0155
  175MOL0     H23066   0.918   2.558   9.026 -1.7873  0.9404 -2.1646
  175MOL0     H23067   0.971   2.706   8.945  0.0187  0.2056 -0.0142
  175MOL0     H23068   0.745   2.660   9.146 -2.8214  0.5301 -1.1126
  175MOL0     H23069   0.740   2.741   8.991 -0.5851  0.6233 -0.0380
  175MOL0     H23070   0.889   2.928   9.093  0.6143 -2.8001 -1.5744
  175MOL0     H23071   0.856   2.861   9.250  0.2448  2.2184  0.0607
  175MOL0     H23072   0.640   2.962   9.052 -1.3569  1.4407  0.4180
  175MOL0     H23073   0.626   2.904   9.222 -0.7126  2.5235  1.4781
  175MOL0     H23074   0.800   3.149   9.156  2.2917 -1.4620 -0.2484
  175MOL0     H23075   0.731   3.093   9.312 -1.0924 -0.4241 -0.6528
  175MOL0     H23076   0.508   3.138   9.226 -2.4916  2.5928 -0.5877
  175MOL0     H23077   0.572   3.199   9.074 -2.9237  2.5926  0.1013
  175MOL0     H23078   0.616   3.313   9.357 -0.5627 -1.9741  0.5504
  175MOL0     H23079   0.684   3.384   9.209 -1.0018  0.5002 -0.7877
  175MOL0     H23080   0.477   3.503   9.273 -0.9828  0.4628 -1.2238
  175MOL0     H23081   0.382   3.361   9.292  0.2913  1.8868  1.9880
  175MOL0     H23082   1.103   2.619   9.381  0.4964  0.8821 -0.0503
  175MOL0     H23083   1.268   2.450   9.440 -1.7139 -1.2300  0.6147
  175MOL0     H23084   1.220   1.903   9.257 -0.5488  2.4914 -1.3931
  175MOL0     H23085   1.354   1.676   9.331  0.6474 -0.2526 -0.4748
  175MOL0     H23086   2.868   0.740   9.090  1.4203 -1.2826  2.1189
  175MOL0     H23087   3.059   0.783   8.923  1.8760 -0.3269 -0.1483
  175MOL0     H23088   3.342   0.778   8.765 -0.7733 -1.4701 -0.0603
  175MOL0     H23089   3.533   0.881   8.693 -0.1761  0.9050 -0.4115
  175MOL0     H23090   3.747   0.893   8.671 -2.9233  2.5467 -0.7837
  175MOL0     H23091   3.727   0.997   8.535 -0.0335  0.9415 -0.2076
  175MOL0     H23092   3.934   0.891   8.429 -2.4288  0.5089 -1.0840
  175MOL0     H23093   3.971   0.998   8.566 -1.0725  0.1484  1.4257
  175MOL0     H23094   3.953   0.685   8.565  2.0857 -0.9177 -1.3596
  175MOL0     H23095   3.961   0.778   8.710  2.4334 -2.4023  1.4911
  175MOL0     H23096   4.181   0.865   8.638  1.4300  0.2470 -1.1212
  175MOL0     H23097   4.183   0.685   8.649  1.7528 -0.2389  0.1461
  175MOL0     H23098   4.224   0.723   8.243  0.8545  0.4107  1.0091
  175MOL0     H23099   3.594   0.590   8.379  2.5224  0.0037  1.4826
  175MOL0     H23100   3.371   0.479   8.452  2.4062 -1.4110 -0.3271
  176MOL0     O23101   7.571   3.448   2.295 -0.0506  0.4198  0.1392
  176MOL0     C23102   7.584   3.526   2.389 -0.1435  0.1240  0.8916
  176MOL0     O23103   7.498   3.627   2.419  0.6939 -0.3622 -0.0816
  176MOL0     C23104   7.366   3.605   2.385  0.5154  0.2196 -0.0650
  176MOL0     C23105   7.296   3.485   2.410  0.0354 -0.3759  0.8678
  176MOL0     C23106   7.166   3.472   2.359  0.5232  0.6679 -0.0479
  176MOL0     C23107   7.100   3.582   2.300  0.8850  0.2178 -0.4571
  176MOL0     O23108   6.974   3.575   2.240 -0.9499 -1.3472  0.3070
  176MOL0     C23109   6.908   3.445   2.244 -1.4420 -0.3056 -0.0922
  176MOL0     C23110   6.760   3.479   2.220 -0.8777 -0.3095  0.2180
  176MOL0     C23111   6.670   3.354   2.257  0.3411  0.5152  0.4338
  176MOL0     C23112   6.524   3.394   2.247  0.6245  0.2391 -0.1784
  176MOL0     C23113   6.437   3.286   2.311 -0.0050  0.0160 -0.2609
  176MOL0     C23114   6.296   3.350   2.337  0.2099 -0.0363 -0.2547
  176MOL0     C23115   6.286   3.431   2.467 -0.0282 -0.8000  0.4321
  176MOL0     C23116   6.155   3.507   2.463 -0.6468 -0.0369  0.2775
  176MOL0     N23117   6.051   3.411   2.500  0.1171  0.1523  0.0166
  176MOL0     C23118   5.973   3.360   2.407 -0.3670 -0.3681 -0.3516
  176MOL0     C23119   5.882   3.283   2.471 -0.1999 -0.4456  0.5581
  176MOL0     C23120   5.761   3.209   2.402 -0.3431  0.6024 -0.6085
  176MOL0     C23121   5.621   3.243   2.452 -0.0576  0.1688 -0.1412
  176MOL0     C23122   5.607   3.221   2.606 -0.2187  0.0111 -0.9718
  176MOL0     C23123   5.466   3.189   2.647  0.0214  0.1242 -0.4445
  176MOL0     O23124   5.390   3.311   2.676 -0.5912  0.3500  0.1575
  176MOL0     C23125   5.256   3.310   2.671  0.4860  0.8494 -1.1091
  176MOL0     C23126   5.173   3.194   2.660  0.4769 -0.0066  0.5182
  176MOL0     C23127   5.035   3.213   2.677  0.0651 -0.1384  0.8819
  176MOL0     C23128   4.980   3.329   2.722  0.3495 -0.1064 -0.5305
  176MOL0     C23129   4.831   3.339   2.747  0.4130 -0.1191  0.1186
  176MOL0     O23130   4.756   3.233   2.705 -0.0030  1.4202  0.1648
  176MOL0     C23131   4.624   3.228   2.733  0.6233 -1.0599  0.3576
  176MOL0     C23132   4.534   3.284   2.639  0.0192 -0.0574  0.5321
  176MOL0     C23133   4.405   3.279   2.666  0.5511  0.1349  0.3954
  176MOL0     C23134   4.349   3.220   2.784  0.0613  0.7305 -0.5890
  176MOL0     O23135   4.219   3.195   2.817 -0.1209 -0.0603 -1.0142
  176MOL0     C23136   4.115   3.242   2.725 -0.2305 -0.5741 -0.5020
  176MOL0     C23137   4.020   3.332   2.811  0.3870  0.2773 -0.3314
  176MOL0     C23138   4.094   3.464   2.856 -0.3810  0.0181 -0.0792
  176MOL0     C23139   4.002   3.582   2.899  0.1923 -0.1043 -0.0018
  176MOL0     C23140   4.088   3.701   2.936  0.2048 -0.7283 -0.2095
  176MOL0     C23141   3.999   3.825   2.957 -0.7963  0.9416  0.1353
  176MOL0     C23142   4.089   3.948   2.996 -0.0057 -0.6991  0.3444
  176MOL0     C23143   4.000   4.077   3.017  0.2442 -0.6170 -0.3824
  176MOL0    Cl23144   4.111   4.200   3.084  0.3293 -0.3943 -0.0207
  176MOL0     C23145   4.443   3.158   2.872 -0.2777  0.6277 -1.1470
  176MOL0     C23146   4.578   3.162   2.842 -0.5124  0.1399  0.0000
  176MOL0     O23147   4.786   3.437   2.813  0.2958 -0.6464  0.5783
  176MOL0     C23148   5.056   3.443   2.729  1.0864 -0.7251 -0.3875
  176MOL0     C23149   5.193   3.431   2.701  0.4499 -0.1686  0.4718
  176MOL0     N23150   5.926   3.281   2.601 -0.4736  0.6769 -0.6590
  176MOL0     N23151   6.021   3.355   2.624 -0.1471 -0.4042  0.9407
  176MOL0     C23152   7.165   3.700   2.282 -0.5757 -0.1950 -0.3793
  176MOL0     C23153   7.293   3.708   2.333  0.2127 -0.1482  1.7359
  176MOL0     C23154   7.715   3.541   2.459 -0.4139 -0.0197  1.1260
  176MOL0     C23155   7.818   3.447   2.434 -0.4153 -0.6304  0.1746
  176MOL0     C23156   7.942   3.472   2.485 -0.0438 -0.2557  1.1642
  176MOL0     C23157   7.961   3.571   2.576 -0.3185 -0.4286  0.4542
  176MOL0     O23158   8.076   3.599   2.634  0.6883  0.1857 -0.4835
  176MOL0     C23159   8.184   3.505   2.641  0.1143 -0.3762 -0.5383
  176MOL0     C23160   8.287   3.545   2.531 -0.0669 -0.0536  0.3777
  176MOL0     C23161   8.341   3.681   2.564  0.9705  0.9271  0.4018
  176MOL0     C23162   8.382   3.759   2.432 -0.2565 -0.0322 -0.5906
  176MOL0     C23163   8.259   3.810   2.369 -0.4729 -0.1702  0.3065
  176MOL0     C23164   8.155   3.861   2.323  0.2327  0.5033 -0.1159
  176MOL0     C23165   7.854   3.654   2.615 -0.1096 -0.4561  0.3607
  176MOL0     C23166   7.739   3.650   2.549  1.2123  0.1278 -0.8606
  176MOL0     H23167   7.339   3.399   2.460  0.4185 -0.3950  0.5147
  176MOL0     H23168   7.124   3.372   2.367 -1.8070  1.6330  0.6049
  176MOL0     H23169   6.917   3.404   2.345  1.2431  2.3533  0.8836
  176MOL0     H23170   6.949   3.376   2.169 -2.1605  0.8935 -1.6676
  176MOL0     H23171   6.740   3.518   2.120  1.4219 -0.6082 -0.4109
  176MOL0     H23172   6.725   3.557   2.288 -1.6846 -1.8678  1.6615
  176MOL0     H23173   6.705   3.301   2.346  0.1206 -2.5228 -1.1601
  176MOL0     H23174   6.674   3.292   2.167  0.1423  1.3865 -0.1896
  176MOL0     H23175   6.515   3.493   2.291  1.5556  0.6467 -0.8798
  176MOL0     H23176   6.494   3.412   2.143  1.7019  1.1273 -0.3587
  176MOL0     H23177   6.475   3.268   2.412 -1.7263  2.5838  0.9633
  176MOL0     H23178   6.419   3.199   2.249  3.2715 -1.0642  0.0925
  176MOL0     H23179   6.224   3.267   2.337 -2.2741  1.8491 -4.3023
  176MOL0     H23180   6.272   3.422   2.259  2.2270  1.2912  0.2920
  176MOL0     H23181   6.292   3.375   2.560  0.6123  2.4880  2.5478
  176MOL0     H23182   6.369   3.502   2.471  0.4849 -1.4212  0.8812
  176MOL0     H23183   6.132   3.561   2.370 -0.4184 -0.5846 -0.0992
  176MOL0     H23184   6.155   3.581   2.544  0.5303 -2.2946  2.4906
  176MOL0     H23185   5.967   3.391   2.303 -0.2784 -1.7970 -0.8064
  176MOL0     H23186   5.771   3.101   2.418 -1.7945  0.5663  0.2645
  176MOL0     H23187   5.769   3.229   2.295  0.2305  1.7184 -0.3686
  176MOL0     H23188   5.553   3.184   2.391 -0.7657  1.8316 -1.0160
  176MOL0     H23189   5.593   3.345   2.426 -1.4093 -0.2825 -0.5368
  176MOL0     H23190   5.675   3.141   2.637 -0.8736  0.1736  1.0051
  176MOL0     H23191   5.641   3.310   2.659  2.0396 -2.1184  1.4850
  176MOL0     H23192   5.467   3.143   2.746 -1.9226 -0.8228 -0.8158
  176MOL0     H23193   5.413   3.132   2.571  1.1915 -0.0107 -1.1889
  176MOL0     H23194   5.211   3.110   2.604 -2.2186 -1.0233  0.0733
  176MOL0     H23195   4.961   3.137   2.655 -2.3160  1.2494  3.4727
  176MOL0     H23196   4.569   3.335   2.550 -0.0691  0.8316  1.0027
  176MOL0     H23197   4.340   3.314   2.587  0.3938 -0.9448  0.0310
  176MOL0     H23198   4.059   3.151   2.703 -1.3616 -0.0569  0.1475
  176MOL0     H23199   4.151   3.299   2.639 -2.7369  3.6973  0.9638
  176MOL0     H23200   3.980   3.276   2.896 -2.8369  1.6001 -0.8197
  176MOL0     H23201   3.931   3.351   2.750  0.1501  1.1062  0.2487
  176MOL0     H23202   4.150   3.509   2.773  0.0208 -0.7445 -0.2227
  176MOL0     H23203   4.164   3.431   2.932 -0.6590  2.4951  1.3789
  176MOL0     H23204   3.923   3.613   2.830  0.2454 -0.9599 -0.4668
  176MOL0     H23205   3.951   3.546   2.989 -0.1327 -1.1181 -0.5694
  176MOL0     H23206   4.163   3.728   2.861  0.9849  1.4102  1.2424
  176MOL0     H23207   4.148   3.673   3.023 -1.4493 -0.5303  1.0467
  176MOL0     H23208   3.930   3.783   3.030  2.9306 -4.0403  1.3011
  176MOL0     H23209   3.949   3.842   2.861  1.0657 -2.3435 -1.6040
  176MOL0     H23210   4.145   3.922   3.086  0.3860 -0.8459  0.0607
  176MOL0     H23211   4.156   3.961   2.910 -1.6139  1.8429 -0.6562
  176MOL0     H23212   3.919   4.055   3.086 -0.3039 -3.3274 -1.7706
  176MOL0     H23213   3.957   4.112   2.922 -1.3386  2.5993  1.3557
  176MOL0     H23214   4.404   3.118   2.965 -0.0520  0.2869 -1.1986
  176MOL0     H23215   4.645   3.105   2.907  0.0947 -0.3767 -1.0517
  176MOL0     H23216   5.005   3.533   2.762 -0.5948 -2.5979  2.6160
  176MOL0     H23217   5.253   3.519   2.682  2.3408 -1.7054 -1.1469
  176MOL0     H23218   7.116   3.787   2.241 -2.2878 -1.2119 -0.6008
  176MOL0     H23219   7.349   3.800   2.318 -1.6330  0.8068  0.3384
  176MOL0     H23220   7.812   3.360   2.371  1.6266  0.6512 -1.9551
  176MOL0     H23221   8.019   3.409   2.442  1.3256  1.3501  1.1419
  176MOL0     H23222   8.153   3.401   2.625 -0.8429 -0.4736  1.6469
  176MOL0     H23223   8.229   3.510   2.740 -2.5665  0.8585  0.7121
  176MOL0     H23224   8.373   3.477   2.525  0.7061  0.9785 -0.5357
  176MOL0     H23225   8.226   3.554   2.441 -2.4305  1.5431  2.0091
  176MOL0     H23226   8.431   3.666   2.623  0.8570 -0.8642  0.1539
  176MOL0     H23227   8.282   3.749   2.627  0.0359 -0.2825  0.8614
  176MOL0     H23228   8.449   3.842   2.459 -1.5538  1.0474 -0.6049
  176MOL0     H23229   8.431   3.694   2.359  0.1187  0.0656 -0.4318
  176MOL0     H23230   8.070   3.914   2.285  0.2822  1.5989  1.2596
  176MOL0     H23231   7.876   3.733   2.687  1.0712  0.2040 -0.6753
  176MOL0     H23232   7.653   3.711   2.574  0.7060 -0.0087 -2.2196
  177MOL0     O23233   6.031   4.923   9.170  0.0981  0.1337  0.3619
  177MOL0     C23234   6.047   4.944   9.286 -0.1257 -0.4880  0.6693
  177MOL0     O23235   5.968   5.011   9.375 -0.3808  0.8672 -0.2123
  177MOL0     C23236   5.839   5.032   9.350  0.2397  0.0276 -0.0446
  177MOL0     C23237   5.785   5.159   9.347  0.0196 -0.9185  0.8150
  177MOL0     C23238   5.652   5.183   9.317 -0.1895 -0.2427  0.5528
  177MOL0     C23239   5.561   5.083   9.302  0.2004  0.2082  0.2165
  177MOL0     O23240   5.435   5.121   9.266 -0.4133 -0.1306  0.1064
  177MOL0     C23241   5.336   5.025   9.249  0.8958 -0.3929  0.0897
  177MOL0     C23242   5.267   5.015   9.391 -0.9122  0.2130  0.1437
  177MOL0     C23243   5.126   4.966   9.388 -0.3514  0.2742  0.1274
  177MOL0     C23244   5.063   4.941   9.517 -0.8523 -1.0721 -0.8190
  177MOL0     C23245   4.908   4.969   9.519  0.6563  0.9204 -0.4903
  177MOL0     C23246   4.857   4.876   9.416  0.6276  0.4491  0.2552
  177MOL0     C23247   4.704   4.883   9.419 -0.6118 -1.2073  0.0079
  177MOL0     C23248   4.641   5.015   9.379  0.3191 -0.7096 -0.4342
  177MOL0     N23249   4.495   4.997   9.400 -0.4877 -0.7013  0.0298
  177MOL0     C23250   4.422   4.934   9.303  0.2604  0.4001 -0.2016
  177MOL0     C23251   4.294   4.970   9.320 -0.3176  0.2993  0.6168
  177MOL0     C23252   4.172   4.924   9.250 -0.0891  0.3709 -0.0476
  177MOL0     C23253   4.143   4.780   9.282  0.1202  0.7000 -0.1912
  177MOL0     C23254   4.040   4.758   9.393 -0.5671 -0.7432  0.6322
  177MOL0     C23255   3.903   4.790   9.329  0.0935  0.4002  0.3455
  177MOL0     O23256   3.864   4.704   9.217 -0.2803 -0.6767 -0.3345
  177MOL0     C23257   3.739   4.722   9.155  0.3991 -0.0336  0.4114
  177MOL0     C23258   3.633   4.815   9.208 -0.4652 -0.1945 -0.6892
  177MOL0     C23259   3.520   4.845   9.133 -0.2695 -0.0969  0.1328
  177MOL0     C23260   3.493   4.773   9.024 -0.0094 -0.0213  0.8616
  177MOL0     C23261   3.380   4.813   8.932  0.1198 -0.0776  0.2690
  177MOL0     O23262   3.279   4.882   8.993  0.4800  0.4363  0.0705
  177MOL0     C23263   3.189   4.934   8.907 -0.9126  1.3559 -0.5098
  177MOL0     C23264   3.086   4.855   8.886  0.1623  0.8145 -0.7467
  177MOL0     C23265   2.982   4.896   8.796  0.1928  0.4816  0.6605
  177MOL0     C23266   2.984   5.020   8.748  0.4757 -0.0877  0.5826
  177MOL0     O23267   2.890   5.063   8.649 -0.3753 -0.4745 -0.4975
  177MOL0     C23268   2.762   5.095   8.696  0.5253 -0.0701 -0.2267
  177MOL0     C23269   2.735   5.252   8.671 -0.9833  0.6650 -0.0982
  177MOL0     C23270   2.587   5.299   8.719 -0.2517 -0.0827  0.0194
  177MOL0     C23271   2.559   5.441   8.699 -1.0803 -0.3693 -0.7264
  177MOL0     C23272   2.655   5.545   8.775  0.0574  0.4630  0.2110
  177MOL0     C23273   2.638   5.534   8.926 -0.8628  0.1990  0.4597
  177MOL0     C23274   2.738   5.605   9.005  0.3468  0.8901 -0.6642
  177MOL0     C23275   2.689   5.746   9.063 -0.4461  0.1238  0.3711
  177MOL0    Cl23276   2.681   5.858   8.931 -0.1863 -0.5534 -0.3535
  177MOL0     C23277   3.082   5.110   8.782  0.1756 -0.2592  0.3355
  177MOL0     C23278   3.189   5.070   8.858 -0.3036  1.5407  0.2013
  177MOL0     O23279   3.390   4.796   8.811  0.7812  0.1454 -0.4308
  177MOL0     C23280   3.579   4.674   8.976  0.7110 -0.4089  0.9343
  177MOL0     C23281   3.701   4.648   9.045 -0.4079 -1.0723 -0.2878
  177MOL0     N23282   4.292   5.056   9.435 -0.4928  0.2304  0.2332
  177MOL0     N23283   4.408   5.061   9.489  0.1761 -0.2707  0.0971
  177MOL0     C23284   5.606   4.956   9.325 -0.1164  0.7502 -0.3695
  177MOL0     C23285   5.739   4.929   9.347 -0.4075  0.0235  0.0689
  177MOL0     C23286   6.168   4.887   9.338 -0.7782 -0.4211 -0.6654
  177MOL0     C23287   6.199   4.902   9.480 -0.0641  0.7154  0.3706
  177MOL0     C23288   6.328   4.865   9.534 -0.1069  0.7245 -0.4061
  177MOL0     C23289   6.419   4.797   9.448 -0.2000 -0.5510  0.0038
  177MOL0     O23290   6.535   4.750   9.504  0.3022  0.3097 -0.3458
  177MOL0     C23291   6.661   4.743   9.429  0.2056 -0.0883 -1.1978
  177MOL0     C23292   6.785   4.750   9.525 -0.2132  0.0668 -0.8060
  177MOL0     C23293   6.779   4.879   9.603  0.2077  1.1352 -0.0541
  177MOL0     C23294   6.872   4.985   9.547  0.7259 -1.0040 -0.4272
  177MOL0     C23295   6.892   5.100   9.634 -0.1600 -0.7367 -0.5196
  177MOL0     C23296   6.910   5.187   9.723 -0.4371  0.3855 -0.4181
  177MOL0     C23297   6.384   4.767   9.315 -0.0647 -0.2546  0.8235
  177MOL0     C23298   6.262   4.803   9.265  0.6259  0.1219 -0.3089
  177MOL0     H23299   5.854   5.242   9.355 -1.4395  0.2289  2.4076
  177MOL0     H23300   5.610   5.282   9.302 -0.4632 -0.4756 -0.2942
  177MOL0     H23301   5.365   4.926   9.213 -3.5430 -2.6169  1.8177
  177MOL0     H23302   5.267   5.071   9.177 -0.2691  0.4627  1.6754
  177MOL0     H23303   5.269   5.113   9.439 -2.2090 -0.9301  2.6790
  177MOL0     H23304   5.324   4.940   9.446  0.0116  1.7452  1.3719
  177MOL0     H23305   5.117   4.873   9.332 -1.4173 -0.9507  2.1930
  177MOL0     H23306   5.070   5.045   9.337  2.7107  0.2823 -3.6322
  177MOL0     H23307   5.080   4.839   9.551 -1.6860 -0.6367  1.0354
  177MOL0     H23308   5.117   4.988   9.600 -2.6390 -0.1127 -0.1465
  177MOL0     H23309   4.891   5.074   9.493 -1.1239  0.0167 -3.4717
  177MOL0     H23310   4.866   4.939   9.615 -1.4826  1.9573 -1.0352
  177MOL0     H23311   4.887   4.772   9.426  0.0944  0.0791 -1.6323
  177MOL0     H23312   4.881   4.909   9.315 -1.4145 -0.7318 -0.6794
  177MOL0     H23313   4.671   4.800   9.356 -1.4392 -1.1224  0.3239
  177MOL0     H23314   4.676   4.851   9.519 -2.4661 -1.8960 -0.6864
  177MOL0     H23315   4.659   5.046   9.276 -2.6586 -0.4557 -0.9548
  177MOL0     H23316   4.679   5.095   9.442  0.7409 -0.9272 -0.4056
  177MOL0     H23317   4.445   4.876   9.214 -0.4745  1.3439 -1.0324
  177MOL0     H23318   4.183   4.930   9.141  0.4394 -3.2968 -0.3149
  177MOL0     H23319   4.089   4.991   9.274  0.6957  0.8478  1.4172
  177MOL0     H23320   4.237   4.731   9.309  0.1501  1.1842  0.6158
  177MOL0     H23321   4.114   4.734   9.187 -0.2592 -0.8326  0.6426
  177MOL0     H23322   4.034   4.655   9.431 -0.8647 -0.0653  2.5210
  177MOL0     H23323   4.053   4.825   9.478 -0.0617 -0.1318  0.0839
  177MOL0     H23324   3.913   4.890   9.286 -2.4633  0.2551 -0.7491
  177MOL0     H23325   3.836   4.803   9.415  1.0276  0.6355  1.0562
  177MOL0     H23326   3.656   4.865   9.302 -1.3461  1.0657 -1.1137
  177MOL0     H23327   3.458   4.934   9.146 -1.8203 -1.4968  3.2148
  177MOL0     H23328   3.084   4.758   8.934  0.3201 -0.0301 -2.3785
  177MOL0     H23329   2.905   4.830   8.757  0.6766  0.9526 -1.1663
  177MOL0     H23330   2.760   5.080   8.804  3.8500 -0.7072 -0.1388
  177MOL0     H23331   2.683   5.036   8.650 -0.4010  0.5108  0.5785
  177MOL0     H23332   2.735   5.276   8.564 -0.6214  0.2285 -0.2023
  177MOL0     H23333   2.811   5.315   8.718 -0.7223  1.7891 -1.9136
  177MOL0     H23334   2.582   5.258   8.820  1.3657 -4.4485 -1.4213
  177MOL0     H23335   2.519   5.240   8.656 -0.6439  1.5247 -1.1191
  177MOL0     H23336   2.564   5.463   8.592  2.7992 -0.0927 -0.6322
  177MOL0     H23337   2.458   5.460   8.738  0.6142 -0.8510  4.8353
  177MOL0     H23338   2.634   5.648   8.743  0.4538  0.1155 -1.2201
  177MOL0     H23339   2.761   5.524   8.759  0.2273  1.2821  0.1981
  177MOL0     H23340   2.623   5.429   8.954 -2.4477  0.5607  1.0267
  177MOL0     H23341   2.539   5.579   8.936 -1.5131 -0.0029 -3.4453
  177MOL0     H23342   2.758   5.538   9.090  1.2407  2.7165  0.6343
  177MOL0     H23343   2.834   5.617   8.954 -0.3878  2.0442 -1.8277
  177MOL0     H23344   2.762   5.793   9.129  1.4325 -4.1804  1.7208
  177MOL0     H23345   2.595   5.728   9.118  0.1854  0.6594  1.6594
  177MOL0     H23346   3.074   5.212   8.745 -1.4822 -0.7482 -0.7328
  177MOL0     H23347   3.270   5.137   8.887  0.2126  0.1766  2.1676
  177MOL0     H23348   3.545   4.613   8.893 -0.4787 -0.7988  1.6819
  177MOL0     H23349   3.771   4.572   9.011  1.7670  0.7716 -0.1835
  177MOL0     H23350   5.530   4.878   9.329 -1.0810  1.6957  0.7942
  177MOL0     H23351   5.777   4.827   9.341 -0.2650  0.0819 -0.0463
  177MOL0     H23352   6.130   4.961   9.540  1.1436  0.7674  1.7730
  177MOL0     H23353   6.352   4.887   9.638 -2.0367  2.6568 -0.3207
  177MOL0     H23354   6.674   4.812   9.345 -0.3727 -1.7181 -2.6812
  177MOL0     H23355   6.664   4.641   9.389 -2.0828 -0.3890 -0.7778
  177MOL0     H23356   6.767   4.666   9.593  0.1292  1.0485  0.5372
  177MOL0     H23357   6.884   4.741   9.478 -0.4966  0.3389 -1.4613
  177MOL0     H23358   6.811   4.858   9.706 -1.7852 -1.1069  0.1740
  177MOL0     H23359   6.675   4.908   9.617 -0.7918 -2.8047  2.3619
  177MOL0     H23360   6.975   4.954   9.529  1.8780  1.8431  0.6805
  177MOL0     H23361   6.834   5.028   9.454  2.4746  0.1734 -0.6455
  177MOL0     H23362   6.917   5.270   9.791  1.8177  0.4451 -0.6420
  177MOL0     H23363   6.443   4.701   9.252 -2.7391  0.2590 -2.5306
  177MOL0     H23364   6.235   4.771   9.165  4.5982  1.3729 -2.0118
  178MOL0     O23365   0.929   4.347   8.024  1.1093  0.2629  0.4772
  178MOL0     C23366   0.923   4.294   7.912 -0.6860  0.5028  0.4402
  178MOL0     O23367   0.815   4.280   7.831  0.0046 -0.5421 -0.7426
  178MOL0     C23368   0.691   4.336   7.862 -0.7118  0.1918 -1.4998
  178MOL0     C23369   0.671   4.461   7.928 -0.5115  0.5437  1.1203
  178MOL0     C23370   0.539   4.508   7.952 -0.0704  0.0789 -0.2893
  178MOL0     C23371   0.423   4.430   7.910 -0.4068 -0.4035 -0.4724
  178MOL0     O23372   0.285   4.460   7.926 -0.0179  0.8881  0.0894
  178MOL0     C23373   0.241   4.582   7.984 -0.1789 -0.1878  0.3217
  178MOL0     C23374   0.144   4.552   8.098  0.4889  0.2155  0.3372
  178MOL0     C23375   0.008   4.499   8.044 -0.7045 -0.2139  0.2560
  178MOL0     C23376  -0.099   4.530   8.145 -0.4165 -0.1462 -0.4499
  178MOL0     C23377  -0.221   4.452   8.107 -0.1469  0.4244 -0.5151
  178MOL0     C23378  -0.343   4.504   8.178  0.0588 -0.0531  0.3840
  178MOL0     C23379  -0.473   4.450   8.115  0.1835 -0.2995 -0.5134
  178MOL0     C23380  -0.608   4.502   8.184 -0.0521  0.2908  0.3687
  178MOL0     N23381  -0.725   4.491   8.104  0.5568 -0.0880  0.5827
  178MOL0     C23382  -0.823   4.589   8.093 -0.7016  0.2151 -0.9498
  178MOL0     C23383  -0.911   4.532   8.014  0.6536  0.5063 -0.5884
  178MOL0     C23384  -1.039   4.610   7.981 -0.1451  0.2900  0.0270
  178MOL0     C23385  -1.147   4.567   8.082  0.2620 -0.0427 -0.1113
  178MOL0     C23386  -1.280   4.653   8.058 -0.2156  0.1634 -0.0501
  178MOL0     C23387  -1.406   4.613   8.143 -0.6720  0.0522 -0.1264
  178MOL0     O23388  -1.511   4.704   8.112 -0.5493  0.4570 -0.1689
  178MOL0     C23389  -1.635   4.686   8.157 -0.0552 -0.3674  0.0423
  178MOL0     C23390  -1.660   4.611   8.273  0.4075 -0.2413 -0.4355
  178MOL0     C23391  -1.784   4.579   8.302 -0.0740 -0.2429 -0.0071
  178MOL0     C23392  -1.893   4.632   8.237  0.8144  0.0359 -0.4036
  178MOL0     C23393  -2.035   4.617   8.291 -0.1495 -0.1864 -0.4791
  178MOL0     O23394  -2.139   4.678   8.222 -0.1842 -0.5053  0.2332
  178MOL0     C23395  -2.268   4.643   8.235 -0.4766 -0.6999  0.7357
  178MOL0     C23396  -2.322   4.596   8.350 -0.0851  0.3446 -0.5399
  178MOL0     C23397  -2.464   4.595   8.365  0.9707 -0.4734  0.2862
  178MOL0     C23398  -2.543   4.617   8.255 -0.6376 -0.3823 -0.2494
  178MOL0     O23399  -2.674   4.632   8.277 -0.3388  0.1124 -0.2522
  178MOL0     C23400  -2.769   4.695   8.187  0.3133 -0.0252  0.1240
  178MOL0     C23401  -2.911   4.667   8.235  0.0529  0.3823  0.4503
  178MOL0     C23402  -3.021   4.680   8.129 -0.3990 -0.4142  0.0293
  178MOL0     C23403  -3.041   4.824   8.090 -0.1626  0.0538 -0.5825
  178MOL0     C23404  -3.090   4.837   7.940  0.5200 -0.1493 -0.7054
  178MOL0     C23405  -3.171   4.962   7.910 -0.8405  0.1513 -0.0298
  178MOL0     C23406  -3.269   4.933   7.795 -0.3717 -0.0159 -0.4283
  178MOL0     C23407  -3.393   5.031   7.798 -0.1551 -0.0126  0.7351
  178MOL0    Cl23408  -3.484   4.999   7.650  0.1275 -0.0169 -0.5339
  178MOL0     C23409  -2.483   4.636   8.132  0.6787 -0.8465 -0.2995
  178MOL0     C23410  -2.342   4.653   8.117  0.4272 -0.3494  0.3329
  178MOL0     O23411  -2.037   4.537   8.390 -0.7663  1.0956  0.0765
  178MOL0     C23412  -1.877   4.714   8.126 -0.1718 -0.0986 -0.5824
  178MOL0     C23413  -1.748   4.750   8.092  0.3290  0.0106 -0.4800
  178MOL0     N23414  -0.871   4.408   7.970 -0.5771 -0.0849  0.6733
  178MOL0     N23415  -0.751   4.391   8.025 -0.3204 -0.1139 -0.7395
  178MOL0     C23416   0.445   4.311   7.837 -0.0755 -0.2568  0.5917
  178MOL0     C23417   0.580   4.271   7.814  0.2139 -0.6947  0.4820
  178MOL0     C23418   1.043   4.244   7.846 -0.3180  0.2423 -0.0201
  178MOL0     C23419   1.044   4.203   7.707 -0.1670 -0.8138 -0.2583
  178MOL0     C23420   1.162   4.160   7.648  0.1543  0.0986  0.0071
  178MOL0     C23421   1.278   4.145   7.730 -0.1056  0.3085  0.1331
  178MOL0     O23422   1.390   4.101   7.663 -0.7123  0.2908  0.5551
  178MOL0     C23423   1.490   4.036   7.734 -0.2420 -0.0137 -0.1395
  178MOL0     C23424   1.584   3.974   7.631  0.1791 -0.3326  0.5394
  178MOL0     C23425   1.672   3.854   7.678  0.2335  0.0768 -0.4905
  178MOL0     C23426   1.748   3.802   7.559 -0.6512  0.0781 -0.1211
  178MOL0     C23427   1.840   3.703   7.598 -0.1996  0.2746 -0.0779
  178MOL0     C23428   1.903   3.606   7.631  0.0633  0.2098 -0.2046
  178MOL0     C23429   1.272   4.169   7.864 -0.1870 -0.2690 -0.2312
  178MOL0     C23430   1.156   4.219   7.925  0.1686  0.2839 -0.0273
  178MOL0     H23431   0.752   4.530   7.947  0.9924 -1.5080  2.7719
  178MOL0     H23432   0.537   4.605   8.000  1.8754  1.4960 -2.8558
  178MOL0     H23433   0.197   4.643   7.905  1.3617  0.5309 -0.0227
  178MOL0     H23434   0.325   4.634   8.031 -0.6185  0.9188 -0.1036
  178MOL0     H23435   0.128   4.648   8.148 -0.0934  0.2783  0.0386
  178MOL0     H23436   0.169   4.472   8.168 -4.1204 -4.1086 -2.3438
  178MOL0     H23437   0.014   4.391   8.031 -1.3344  0.0712 -3.2027
  178MOL0     H23438  -0.027   4.532   7.946 -1.9151 -0.9551  0.4144
  178MOL0     H23439  -0.072   4.502   8.247 -1.6009  0.5652  0.0781
  178MOL0     H23440  -0.124   4.637   8.148 -1.2372 -0.3444 -0.1615
  178MOL0     H23441  -0.208   4.344   8.124  1.5179  0.7382  0.3944
  178MOL0     H23442  -0.242   4.466   8.000 -1.5395 -1.3762 -0.5334
  178MOL0     H23443  -0.345   4.613   8.174 -2.5378  0.1047  2.9162
  178MOL0     H23444  -0.341   4.471   8.282 -1.1772 -2.7016 -0.3222
  178MOL0     H23445  -0.474   4.496   8.016  3.1781  0.1782 -0.4268
  178MOL0     H23446  -0.471   4.341   8.120  0.3815 -0.2451  2.7988
  178MOL0     H23447  -0.600   4.604   8.222 -0.7890 -0.4264  2.5920
  178MOL0     H23448  -0.617   4.437   8.271 -2.6777  0.2272  0.1227
  178MOL0     H23449  -0.824   4.690   8.134 -0.2392  1.4172 -3.6675
  178MOL0     H23450  -1.065   4.596   7.875  1.4481  0.9674 -0.4885
  178MOL0     H23451  -1.021   4.715   8.005  2.2005 -0.4072  1.6237
  178MOL0     H23452  -1.105   4.599   8.178  0.9437  1.1165 -0.7722
  178MOL0     H23453  -1.166   4.460   8.081  1.1303 -0.2366  1.4315
  178MOL0     H23454  -1.265   4.761   8.070  1.1233  0.2374 -1.9222
  178MOL0     H23455  -1.285   4.645   7.949  1.1076  1.4763 -0.2464
  178MOL0     H23456  -1.383   4.617   8.250  1.8388 -0.3447 -0.5992
  178MOL0     H23457  -1.435   4.509   8.129  3.3632 -0.9409 -2.6203
  178MOL0     H23458  -1.581   4.570   8.335  1.0817 -2.9165 -2.8283
  178MOL0     H23459  -1.803   4.517   8.390 -3.1244  0.9190  0.2486
  178MOL0     H23460  -2.264   4.571   8.438 -2.3884 -0.6129  0.7933
  178MOL0     H23461  -2.506   4.570   8.462  2.5966  0.7120  1.3549
  178MOL0     H23462  -2.761   4.645   8.090  1.4141  0.6756 -0.1751
  178MOL0     H23463  -2.742   4.801   8.181  0.4199 -0.1317 -2.0559
  178MOL0     H23464  -2.935   4.748   8.305  0.2798 -0.0474  1.0285
  178MOL0     H23465  -2.923   4.565   8.273 -0.3111  1.1908  2.6526
  178MOL0     H23466  -3.110   4.642   8.181  0.1879  1.8122  2.8515
  178MOL0     H23467  -2.991   4.622   8.041  2.5144  0.7730  0.1407
  178MOL0     H23468  -3.107   4.866   8.167  0.4185 -1.0339  0.5476
  178MOL0     H23469  -2.951   4.884   8.105 -1.0275  0.9620  1.4888
  178MOL0     H23470  -3.157   4.750   7.935 -0.6586  0.5635  1.3824
  178MOL0     H23471  -3.016   4.823   7.861  1.0887 -1.3307  0.0001
  178MOL0     H23472  -3.099   5.032   7.867 -2.9386 -0.0233 -4.3545
  178MOL0     H23473  -3.210   5.015   7.997  2.7241  2.7340  0.2290
  178MOL0     H23474  -3.216   4.939   7.699 -2.2102  0.1314 -1.4891
  178MOL0     H23475  -3.310   4.834   7.815  0.3129 -0.0101  1.1661
  178MOL0     H23476  -3.359   5.135   7.804  0.8379 -0.2614 -0.2112
  178MOL0     H23477  -3.451   5.006   7.887  0.9014 -1.6042  1.0118
  178MOL0     H23478  -2.543   4.651   8.042  1.7695 -1.9279 -1.2478
  178MOL0     H23479  -2.307   4.691   8.022 -4.1354 -0.8409 -1.7936
  178MOL0     H23480  -1.964   4.768   8.089 -1.7406 -1.8198  0.3999
  178MOL0     H23481  -1.723   4.826   8.019  0.7439 -1.9151 -2.4399
  178MOL0     H23482   0.359   4.256   7.799 -0.2037 -0.3815  1.0547
  178MOL0     H23483   0.585   4.180   7.756 -0.3224 -0.7085  0.4537
  178MOL0     H23484   0.955   4.226   7.649 -1.3661  0.3873  1.9366
  178MOL0     H23485   1.154   4.152   7.540 -2.0441  3.8454 -0.2751
  178MOL0     H23486   1.440   3.963   7.799 -0.5923  0.9775  0.7334
  178MOL0     H23487   1.543   4.107   7.798  0.1910  1.3063 -1.8854
  178MOL0     H23488   1.520   3.935   7.552 -0.9322 -0.1761  1.3343
  178MOL0     H23489   1.651   4.053   7.596 -2.4586  0.5846 -3.0606
  178MOL0     H23490   1.596   3.779   7.703 -0.5277  0.8578 -0.3774
  178MOL0     H23491   1.728   3.880   7.768 -2.4319  2.5683  0.6247
  178MOL0     H23492   1.676   3.768   7.485 -0.5065  1.3059 -0.8590
  178MOL0     H23493   1.806   3.884   7.516 -0.3317  0.1447  0.4215
  178MOL0     H23494   1.962   3.521   7.658 -1.0720 -0.5670 -0.0759
  178MOL0     H23495   1.358   4.162   7.930 -0.5001  0.6415  0.2963
  178MOL0     H23496   1.154   4.253   8.028 -3.6469  1.6963 -0.4056
  179MOL0     O23497   7.225   6.979   3.403  0.4298 -0.4214 -0.8365
  179MOL0     C23498   7.309   6.910   3.470  0.5414 -0.1784  0.0680
  179MOL0     O23499   7.351   6.788   3.437 -0.3758  0.4139  0.4438
  179MOL0     C23500   7.300   6.714   3.333  0.4367  0.1356  0.1304
  179MOL0     C23501   7.173   6.728   3.286  0.6566  0.0567  0.4904
  179MOL0     C23502   7.113   6.643   3.196 -0.3083  0.1298  0.7698
  179MOL0     C23503   7.187   6.543   3.134 -0.0862  0.9770 -1.0472
  179MOL0     O23504   7.139   6.449   3.042 -0.3919  0.5415  0.2992
  179MOL0     C23505   7.040   6.496   2.958  0.3076  0.7104  0.0336
  179MOL0     C23506   7.023   6.386   2.850  0.7909 -0.0548 -0.6260
  179MOL0     C23507   6.890   6.385   2.779 -0.6929 -0.5709 -0.0068
  179MOL0     C23508   6.890   6.516   2.693 -0.1509  0.8509  0.2696
  179MOL0     C23509   6.788   6.516   2.574  0.0471  0.5651 -0.0477
  179MOL0     C23510   6.844   6.478   2.436 -0.0905 -0.0052 -0.8771
  179MOL0     C23511   6.736   6.479   2.321  0.2810  0.2851 -0.6649
  179MOL0     C23512   6.608   6.400   2.345 -0.0404 -0.4737 -0.4187
  179MOL0     N23513   6.515   6.402   2.234  0.6732 -0.4625 -0.2909
  179MOL0     C23514   6.440   6.508   2.192 -0.0156 -0.6673 -0.1711
  179MOL0     C23515   6.362   6.465   2.092  0.3330  0.2319  0.4314
  179MOL0     C23516   6.259   6.551   2.024  0.0933  0.4512 -0.2739
  179MOL0     C23517   6.220   6.506   1.876 -0.3005 -0.9095  0.0443
  179MOL0     C23518   6.093   6.583   1.830 -0.7132 -0.0719 -0.2190
  179MOL0     C23519   6.054   6.548   1.684  0.3724  0.6074 -0.6625
  179MOL0     O23520   5.932   6.617   1.640 -0.2706 -0.3828  0.3614
  179MOL0     C23521   5.824   6.551   1.591 -0.7297  0.1064 -0.2451
  179MOL0     C23522   5.692   6.603   1.605 -0.7168 -0.5195 -0.5041
  179MOL0     C23523   5.585   6.555   1.534  0.4036 -0.1847 -0.0965
  179MOL0     C23524   5.598   6.431   1.462 -0.3031 -0.0640 -0.6027
  179MOL0     C23525   5.485   6.363   1.396 -0.1254  0.0109 -0.3571
  179MOL0     O23526   5.356   6.408   1.417 -0.7611 -0.5678 -0.8955
  179MOL0     C23527   5.246   6.341   1.365  0.4418 -0.1408 -0.3227
  179MOL0     C23528   5.149   6.407   1.286  0.2646  0.6718 -0.5294
  179MOL0     C23529   5.038   6.339   1.232 -0.5287 -0.0183  0.5981
  179MOL0     C23530   5.026   6.199   1.259  0.1147 -0.7090  0.9793
  179MOL0     O23531   4.919   6.140   1.192  0.6236  0.4533  0.0417
  179MOL0     C23532   4.914   6.004   1.176 -0.3909  0.1126 -0.6408
  179MOL0     C23533   4.770   5.979   1.126 -0.9065 -0.1243  1.0085
  179MOL0     C23534   4.742   5.827   1.095  0.2575 -0.3901 -0.3567
  179MOL0     C23535   4.597   5.801   1.043  0.4860  0.4428  0.2580
  179MOL0     C23536   4.556   5.658   1.009 -0.5578 -0.1042 -0.5378
  179MOL0     C23537   4.418   5.655   0.956  0.1320  0.2883  0.3272
  179MOL0     C23538   4.396   5.512   0.920  0.3560 -0.0310  0.7723
  179MOL0     C23539   4.268   5.480   0.841 -0.9609  0.0836 -0.7423
  179MOL0    Cl23540   4.266   5.297   0.804  0.4724 -0.2037  0.6771
  179MOL0     C23541   5.115   6.136   1.347  0.6229 -0.9424 -0.1659
  179MOL0     C23542   5.228   6.203   1.396  0.1694 -0.3610  0.4295
  179MOL0     O23543   5.514   6.255   1.340 -0.4940 -0.6354  0.0384
  179MOL0     C23544   5.726   6.373   1.458 -0.8954  0.0889 -0.1801
  179MOL0     C23545   5.838   6.445   1.504  0.5599  0.5924  0.6087
  179MOL0     N23546   6.395   6.335   2.074  0.4214  0.0128  0.3623
  179MOL0     N23547   6.479   6.296   2.163  0.1261 -0.8209  0.2134
  179MOL0     C23548   7.319   6.529   3.172 -0.3211  0.2429 -0.1137
  179MOL0     C23549   7.373   6.608   3.275 -0.0536  0.1824  0.9000
  179MOL0     C23550   7.370   6.966   3.584  0.7207 -0.2760 -0.2989
  179MOL0     C23551   7.386   7.109   3.592 -0.3363  0.3203 -0.0892
  179MOL0     C23552   7.470   7.158   3.697 -0.5555  0.6764  0.3209
  179MOL0     C23553   7.527   7.073   3.798  0.0639  0.3902  1.1299
  179MOL0     O23554   7.612   7.098   3.902  0.0297 -0.3781 -0.6807
  179MOL0     C23555   7.658   7.229   3.936  0.0373 -0.2232 -0.5437
  179MOL0     C23556   7.814   7.214   3.916 -0.2816 -0.5638 -0.5146
  179MOL0     C23557   7.913   7.333   3.952 -0.1934 -0.4424  0.3497
  179MOL0     C23558   8.051   7.282   3.921  0.5790  0.2526  0.3175
  179MOL0     C23559   8.144   7.375   3.989  0.8592  0.0899 -0.0711
  179MOL0     C23560   8.213   7.458   4.047 -1.2127  0.2569 -0.1209
  179MOL0     C23561   7.484   6.942   3.798  0.1186 -0.1826 -0.0907
  179MOL0     C23562   7.402   6.885   3.700  0.5172 -0.0431  0.5182
  179MOL0     H23563   7.109   6.806   3.327  0.8515  1.4482 -1.6783
  179MOL0     H23564   7.006   6.653   3.182 -0.2782 -1.1623 -0.7694
  179MOL0     H23565   7.056   6.597   2.919  1.0369  1.1383  1.3752
  179MOL0     H23566   6.954   6.484   3.024  0.0288 -0.3070 -0.4799
  179MOL0     H23567   7.040   6.295   2.907  0.1272  2.0670  3.3177
  179MOL0     H23568   7.108   6.411   2.785  1.5386 -0.4095  0.1937
  179MOL0     H23569   6.800   6.390   2.841 -2.0190  1.5968 -1.9351
  179MOL0     H23570   6.899   6.296   2.715  0.5231 -1.0580  0.8034
  179MOL0     H23571   6.873   6.598   2.762  2.8122  3.2025 -1.5348
  179MOL0     H23572   6.990   6.532   2.651  0.8853 -0.7436  1.9497
  179MOL0     H23573   6.753   6.620   2.573 -1.3408  0.1189  0.3619
  179MOL0     H23574   6.707   6.456   2.617  4.2581 -2.8795  4.2825
  179MOL0     H23575   6.889   6.378   2.438 -0.8136 -0.5037  4.3789
  179MOL0     H23576   6.929   6.545   2.422  0.1755 -0.0723  0.3548
  179MOL0     H23577   6.708   6.581   2.292 -0.5313 -0.1439 -1.4347
  179MOL0     H23578   6.791   6.442   2.233  1.2103  0.9349 -0.3849
  179MOL0     H23579   6.568   6.426   2.443  1.5048  0.4862 -0.0067
  179MOL0     H23580   6.630   6.295   2.366 -0.9479 -0.3051  1.4907
  179MOL0     H23581   6.444   6.604   2.242 -1.6550 -1.3009  1.2913
  179MOL0     H23582   6.288   6.657   2.030 -0.9259  0.7186  0.3359
  179MOL0     H23583   6.168   6.542   2.085 -0.3556  1.7171 -0.7265
  179MOL0     H23584   6.191   6.401   1.879  1.8792 -1.6092 -1.0334
  179MOL0     H23585   6.311   6.511   1.816  0.7077  0.1526  1.5710
  179MOL0     H23586   6.008   6.566   1.897  0.6526 -0.2508  1.5414
  179MOL0     H23587   6.123   6.688   1.828 -1.7164  0.2208 -0.0995
  179MOL0     H23588   6.041   6.440   1.691  1.7997  0.5071  1.3325
  179MOL0     H23589   6.138   6.564   1.616  0.6189  0.1092 -0.4792
  179MOL0     H23590   5.688   6.698   1.657  0.0336 -2.0658  2.6768
  179MOL0     H23591   5.488   6.601   1.548  0.1589 -0.9779  0.9564
  179MOL0     H23592   5.158   6.514   1.268  0.3518  1.2055  2.2612
  179MOL0     H23593   4.954   6.379   1.177 -1.4179 -2.4330  0.1027
  179MOL0     H23594   4.932   5.945   1.267 -3.4619 -1.6550 -0.9982
  179MOL0     H23595   4.977   5.973   1.093 -1.1418 -0.3018 -1.0725
  179MOL0     H23596   4.751   6.036   1.034 -2.4130  0.4706  1.6365
  179MOL0     H23597   4.702   6.012   1.206  0.6412  0.7481  2.0187
  179MOL0     H23598   4.764   5.773   1.188  0.5565  3.5353  2.0908
  179MOL0     H23599   4.805   5.783   1.018 -0.2319 -1.8838  0.0623
  179MOL0     H23600   4.528   5.836   1.120  1.7053  3.7204  0.0478
  179MOL0     H23601   4.572   5.862   0.955 -0.5237 -0.5374 -0.1541
  179MOL0     H23602   4.560   5.599   1.101  0.1059 -0.6436 -0.9095
  179MOL0     H23603   4.632   5.620   0.940  1.0390  1.4974  0.2457
  179MOL0     H23604   4.411   5.725   0.872  0.5308  0.6334  0.5743
  179MOL0     H23605   4.339   5.686   1.024  0.8131  0.5920  0.9953
  179MOL0     H23606   4.479   5.474   0.859 -1.4848 -4.1582  0.5438
  179MOL0     H23607   4.403   5.448   1.009  1.4395 -1.2324 -0.1459
  179MOL0     H23608   4.280   5.530   0.745 -1.4883 -0.8177 -1.2982
  179MOL0     H23609   4.173   5.506   0.889 -0.5947 -0.1741  0.1332
  179MOL0     H23610   5.088   6.036   1.379 -4.1805  1.2346  3.8246
  179MOL0     H23611   5.304   6.150   1.452  0.0580  2.6771  3.8054
  179MOL0     H23612   5.746   6.274   1.421  0.0188  0.1757  0.0594
  179MOL0     H23613   5.936   6.405   1.480 -1.0246 -2.4240 -1.5947
  179MOL0     H23614   7.385   6.464   3.115 -1.3034  0.0808 -1.1053
  179MOL0     H23615   7.478   6.595   3.301 -0.0491  1.6620  1.7741
  179MOL0     H23616   7.350   7.164   3.505 -2.0610 -2.2091 -1.1083
  179MOL0     H23617   7.489   7.265   3.700  2.2704  0.3447 -1.4195
  179MOL0     H23618   7.641   7.248   4.042  3.5729  2.8025 -0.3110
  179MOL0     H23619   7.606   7.308   3.881 -2.0192 -1.5149 -0.5804
  179MOL0     H23620   7.849   7.121   3.961  1.2971  0.3212  0.1590
  179MOL0     H23621   7.832   7.187   3.811  0.3265 -3.0697  0.1696
  179MOL0     H23622   7.904   7.360   4.058 -1.6597  1.3472 -0.1766
  179MOL0     H23623   7.880   7.422   3.898  0.3318 -0.3921  0.1096
  179MOL0     H23624   8.057   7.182   3.964 -0.0669 -0.0428 -0.2659
  179MOL0     H23625   8.067   7.285   3.813  1.7443 -1.2145  0.4174
  179MOL0     H23626   8.272   7.529   4.101 -1.6099 -0.3926  1.2224
  179MOL0     H23627   7.526   6.873   3.871  0.6888  0.8821  0.6126
  179MOL0     H23628   7.373   6.782   3.686 -3.3388  0.9246  0.3445
  180MOL0     O23629   0.635   9.932   4.104  0.4140  0.7491 -0.7129
  180MOL0     C23630   0.689   9.931   4.212 -0.9190  0.3477 -0.4391
  180MOL0     O23631   0.632   9.932   4.335 -0.2159  0.5571 -0.0633
  180MOL0     C23632   0.500   9.906   4.345 -0.2273  0.0590  0.1464
  180MOL0     C23633   0.412  10.020   4.343  0.5878  0.4752  0.2827
  180MOL0     C23634   0.274   9.997   4.369  0.8042 -0.9238 -0.6007
  180MOL0     C23635   0.226   9.872   4.399  0.5427 -0.0774 -0.9641
  180MOL0     O23636   0.088   9.848   4.426 -0.5409  0.3816  0.3550
  180MOL0     C23637   0.052   9.777   4.547 -0.2905 -0.6432 -0.2118
  180MOL0     C23638  -0.074   9.849   4.595  0.2457  1.0832 -0.2517
  180MOL0     C23639  -0.019   9.990   4.660  0.0707  0.2405  0.3257
  180MOL0     C23640  -0.139  10.077   4.704 -0.1916  0.5500  0.1579
  180MOL0     C23641  -0.093  10.210   4.753 -0.4460  0.0795  0.2245
  180MOL0     C23642  -0.207  10.293   4.813 -0.0417 -1.5389  0.1630
  180MOL0     C23643  -0.180  10.440   4.820  0.8814 -0.6241  0.0308
  180MOL0     C23644  -0.281  10.519   4.891 -0.4830 -0.7053 -1.0628
  180MOL0     N23645  -0.406  10.547   4.815 -0.8710  0.4739 -0.3646
  180MOL0     C23646  -0.509  10.459   4.814  0.2681  0.3812  0.3040
  180MOL0     C23647  -0.584  10.508   4.711 -0.5945  0.7257  0.0369
  180MOL0     C23648  -0.713  10.437   4.667 -0.0560 -0.7661 -1.0301
  180MOL0     C23649  -0.833  10.465   4.758 -0.3850 -0.4863 -0.4918
  180MOL0     C23650  -0.880  10.606   4.728 -0.9448  0.5566 -0.1918
  180MOL0     C23651  -0.930  10.630   4.587  0.5201  0.0034 -0.1464
  180MOL0     O23652  -0.998  10.754   4.568 -0.1741  0.5438  0.0352
  180MOL0     C23653  -1.128  10.764   4.617  0.8393 -0.3932 -0.2283
  180MOL0     C23654  -1.195  10.665   4.684 -0.3840 -0.1135  0.3083
  180MOL0     C23655  -1.335  10.677   4.709 -0.3450 -0.3163 -0.2213
  180MOL0     C23656  -1.409  10.791   4.684  0.1515 -0.6920 -0.3167
  180MOL0     C23657  -1.557  10.796   4.703 -0.4585 -0.4155  0.6571
  180MOL0     O23658  -1.604  10.699   4.794  1.2967  0.0789  0.7595
  180MOL0     C23659  -1.741  10.678   4.816 -0.9885  0.4125  0.0160
  180MOL0     C23660  -1.772  10.595   4.924  0.8457 -0.3953  0.8200
  180MOL0     C23661  -1.900  10.557   4.949  0.4367  0.3802 -0.4345
  180MOL0     C23662  -2.001  10.575   4.856  0.2900 -0.6955 -0.3796
  180MOL0     O23663  -2.125  10.517   4.883  0.5323  0.0405 -0.6813
  180MOL0     C23664  -2.226  10.520   4.784 -0.2032 -0.1528  0.5690
  180MOL0     C23665  -2.358  10.452   4.835 -0.0281 -1.7869  0.4146
  180MOL0     C23666  -2.341  10.297   4.834  0.1713  0.0328  0.3707
  180MOL0     C23667  -2.459  10.213   4.909 -1.3689 -0.2210  0.2486
  180MOL0     C23668  -2.591  10.231   4.841  0.7305 -0.4309 -0.1010
  180MOL0     C23669  -2.601  10.184   4.698  0.5626 -0.6975 -0.1396
  180MOL0     C23670  -2.582  10.035   4.684 -0.5580 -0.4375  0.0767
  180MOL0     C23671  -2.648   9.972   4.556  0.3304  0.2189 -0.5733
  180MOL0    Cl23672  -2.676   9.793   4.540  0.2509  0.7602  0.0479
  180MOL0     C23673  -1.978  10.664   4.749  0.4563 -0.3503  0.5379
  180MOL0     C23674  -1.851  10.708   4.724  0.7828 -0.1257  0.1306
  180MOL0     O23675  -1.628  10.884   4.643  0.3158  0.5402 -0.4468
  180MOL0     C23676  -1.339  10.887   4.613  0.0562  0.4639  0.2646
  180MOL0     C23677  -1.204  10.877   4.576 -0.2335 -1.2858 -0.7264
  180MOL0     N23678  -0.536  10.626   4.662  0.4387  0.0251 -0.0474
  180MOL0     N23679  -0.423  10.643   4.724  0.0150  0.5764  0.3812
  180MOL0     C23680   0.314   9.762   4.401  0.1899 -0.2704 -0.3030
  180MOL0     C23681   0.453   9.782   4.370 -0.2408  0.8739  0.7351
  180MOL0     C23682   0.838   9.923   4.209 -0.0592  0.2634 -0.3320
  180MOL0     C23683   0.913   9.942   4.327 -0.1124  0.7235  0.4577
  180MOL0     C23684   1.054   9.928   4.328  0.5507  0.1436  0.1776
  180MOL0     C23685   1.119   9.893   4.205 -0.6948 -0.3025 -0.1727
  180MOL0     O23686   1.249   9.855   4.199  0.4169  0.0519  0.5883
  180MOL0     C23687   1.318   9.810   4.314  0.4322  0.5351 -0.3550
  180MOL0     C23688   1.437   9.722   4.278  0.7650  0.0680 -0.6354
  180MOL0     C23689   1.406   9.587   4.212 -0.9842 -0.0683  1.2088
  180MOL0     C23690   1.352   9.479   4.314 -0.6013 -1.0042  0.2475
  180MOL0     C23691   1.466   9.444   4.401 -0.9439  0.0873  0.1238
  180MOL0     C23692   1.548   9.447   4.490 -0.2936  0.0770 -0.1690
  180MOL0     C23693   1.049   9.893   4.087 -0.7516 -0.0312 -0.0061
  180MOL0     C23694   0.909   9.901   4.099 -0.3770  0.3059  0.3945
  180MOL0     H23695   0.459  10.113   4.313  0.5630  0.4592  0.1956
  180MOL0     H23696   0.203  10.080   4.373 -0.7135 -2.2149  2.7450
  180MOL0     H23697   0.134   9.772   4.618 -1.0365 -3.5977  0.5913
  180MOL0     H23698   0.015   9.676   4.527 -3.8946  0.8950 -2.3620
  180MOL0     H23699  -0.120   9.793   4.677  0.4894  0.3725 -0.5897
  180MOL0     H23700  -0.146   9.848   4.514  1.4659  0.0664 -1.3735
  180MOL0     H23701   0.042  10.046   4.589  0.5622  1.0007  1.3277
  180MOL0     H23702   0.040   9.969   4.750  3.1491  2.2372 -1.0658
  180MOL0     H23703  -0.203  10.077   4.615  1.1239 -0.7751 -0.8456
  180MOL0     H23704  -0.204  10.032   4.780  2.1335 -0.4854  1.6766
  180MOL0     H23705  -0.049  10.265   4.669 -1.6589 -1.4579 -1.4723
  180MOL0     H23706  -0.021  10.199   4.835 -1.6692 -1.5874  1.1369
  180MOL0     H23707  -0.251  10.262   4.909 -0.5193  1.0141  0.8470
  180MOL0     H23708  -0.289  10.286   4.742  0.6728  0.9375 -1.0066
  180MOL0     H23709  -0.095  10.460   4.885 -1.4079  1.1619  2.7319
  180MOL0     H23710  -0.164  10.483   4.720  2.1051 -0.4970  0.2685
  180MOL0     H23711  -0.243  10.620   4.911 -0.9090 -0.3726 -1.9282
  180MOL0     H23712  -0.315  10.463   4.979 -2.0242 -0.4978 -1.5058
  180MOL0     H23713  -0.513  10.366   4.870  2.3508 -1.1922 -1.9741
  180MOL0     H23714  -0.698  10.328   4.670  0.6181 -0.6648  0.4814
  180MOL0     H23715  -0.738  10.470   4.566 -0.5855 -0.8682 -0.9345
  180MOL0     H23716  -0.798  10.467   4.862  1.3333  0.0615 -1.0462
  180MOL0     H23717  -0.916  10.397   4.737  0.3647 -0.9075 -2.2009
  180MOL0     H23718  -0.959  10.626   4.801 -2.2721  0.9540 -1.6828
  180MOL0     H23719  -0.803  10.679   4.754 -2.6325  1.8821  1.2966
  180MOL0     H23720  -0.991  10.542   4.564  1.6327 -0.1455 -2.8568
  180MOL0     H23721  -0.856  10.642   4.507 -0.6584  2.3315 -0.9784
  180MOL0     H23722  -1.147  10.575   4.719  1.6423  0.0161 -1.8999
  180MOL0     H23723  -1.376  10.592   4.762  2.0724 -1.3846  0.0135
  180MOL0     H23724  -1.693  10.563   4.990  2.1936  1.4135  0.1718
  180MOL0     H23725  -1.923  10.491   5.032 -0.1003 -2.4716 -2.6759
  180MOL0     H23726  -2.201  10.487   4.683 -1.8073 -1.6073  0.6021
  180MOL0     H23727  -2.267  10.620   4.766 -1.7070 -0.9796 -0.8771
  180MOL0     H23728  -2.442  10.490   4.777  0.6536 -1.9146 -0.6889
  180MOL0     H23729  -2.378  10.470   4.941  1.2225 -1.5359  0.6264
  180MOL0     H23730  -2.246  10.282   4.886  0.1607  3.3421  1.5839
  180MOL0     H23731  -2.337  10.264   4.730 -0.9815 -1.7064  0.8446
  180MOL0     H23732  -2.437  10.106   4.909  2.9787  0.4594  1.2134
  180MOL0     H23733  -2.461  10.236   5.016 -4.2907 -1.4471  0.5303
  180MOL0     H23734  -2.619  10.336   4.852  0.3256 -0.5866  0.4116
  180MOL0     H23735  -2.657  10.164   4.897  1.7303 -2.4136 -1.2008
  180MOL0     H23736  -2.530  10.243   4.640  0.4393  2.5574  2.7234
  180MOL0     H23737  -2.704  10.210   4.671  1.2105  1.0261 -1.1112
  180MOL0     H23738  -2.474  10.015   4.675 -0.5125  0.0505 -0.5469
  180MOL0     H23739  -2.627   9.987   4.772 -1.9880 -0.0846 -0.4363
  180MOL0     H23740  -2.608  10.011   4.463  0.2800  1.5646 -0.0650
  180MOL0     H23741  -2.748  10.018   4.561  0.9062  1.4351  0.3367
  180MOL0     H23742  -2.053  10.665   4.671  0.9077 -0.9556  0.0776
  180MOL0     H23743  -1.837  10.754   4.627 -0.0390  0.2560  0.1831
  180MOL0     H23744  -1.392  10.968   4.564 -0.7433  0.6577  1.4161
  180MOL0     H23745  -1.158  10.955   4.517 -2.9181  0.1855 -1.0296
  180MOL0     H23746   0.279   9.661   4.418  0.6352 -0.4537 -0.4739
  180MOL0     H23747   0.508   9.689   4.361 -2.0501 -0.4240  2.0636
  180MOL0     H23748   0.857   9.954   4.419  2.8937 -0.6101  2.6456
  180MOL0     H23749   1.103   9.931   4.425  0.2013  2.4475  0.3203
  180MOL0     H23750   1.258   9.763   4.392  0.8259  3.6578  2.0330
  180MOL0     H23751   1.356   9.891   4.377  3.1327 -0.4792 -0.5748
  180MOL0     H23752   1.491   9.786   4.208  2.6397 -2.0882 -1.2994
  180MOL0     H23753   1.503   9.707   4.364 -0.0050 -2.8424 -0.4249
  180MOL0     H23754   1.501   9.550   4.174 -1.5431 -0.9112  0.6008
  180MOL0     H23755   1.347   9.600   4.121 -0.3494  2.3847  1.0662
  180MOL0     H23756   1.266   9.521   4.368  1.1709  0.7833  1.8256
  180MOL0     H23757   1.318   9.390   4.261  0.3912 -0.5936 -1.1152
  180MOL0     H23758   1.619   9.453   4.570  1.0207  0.2703 -1.3151
  180MOL0     H23759   1.098   9.878   3.992  0.4074 -0.7650  0.6805
  180MOL0     H23760   0.860   9.890   4.003  0.5464  0.0007 -0.0510
  181MOL0     O23761   7.439   0.052   0.063  0.2387 -0.6226  0.3090
  181MOL0     C23762   7.524  -0.034   0.033  0.1404  0.5240  0.0901
  181MOL0     O23763   7.503  -0.164   0.033  0.4087  0.6413 -0.0827
  181MOL0     C23764   7.387  -0.221   0.059 -0.1582  0.4726  0.0744
  181MOL0     C23765   7.258  -0.173   0.035  0.0675  0.1735  0.4136
  181MOL0     C23766   7.147  -0.251   0.069  0.6645 -0.5046  1.1572
  181MOL0     C23767   7.166  -0.379   0.134 -0.0678 -0.4941 -0.4125
  181MOL0     O23768   7.068  -0.453   0.193 -0.2101  0.4066  0.0344
  181MOL0     C23769   6.939  -0.426   0.144 -0.3672  0.2337 -0.3973
  181MOL0     C23770   6.867  -0.551   0.196  0.7749  0.7637  0.0171
  181MOL0     C23771   6.715  -0.563   0.160 -0.1975  0.6270  0.2285
  181MOL0     C23772   6.627  -0.658   0.249  0.6272  0.2743 -0.1759
  181MOL0     C23773   6.503  -0.707   0.182  0.5741 -0.5555  1.4461
  181MOL0     C23774   6.445  -0.822   0.275  0.0720  0.0746 -0.0235
  181MOL0     C23775   6.292  -0.852   0.249  0.0553 -0.7520 -0.2881
  181MOL0     C23776   6.254  -0.969   0.337 -0.2475  0.8221  0.0296
  181MOL0     N23777   6.114  -0.981   0.354  0.3130 -0.0381  0.0323
  181MOL0     C23778   6.050  -0.976   0.483 -0.2076  0.0000  0.6660
  181MOL0     C23779   5.925  -1.022   0.461  0.1642  0.2552 -0.2529
  181MOL0     C23780   5.843  -1.042   0.582 -0.1458  0.9537 -0.1505
  181MOL0     C23781   5.696  -1.086   0.558  0.0023 -0.1724  0.3126
  181MOL0     C23782   5.639  -1.107   0.692  0.1931 -0.3282 -0.6830
  181MOL0     C23783   5.488  -1.142   0.686  0.0207 -0.0348 -0.0494
  181MOL0     O23784   5.433  -1.178   0.818 -0.3675 -0.2192 -0.4315
  181MOL0     C23785   5.300  -1.165   0.836  0.2919  0.8350  1.0503
  181MOL0     C23786   5.210  -1.169   0.727  0.3725 -0.2532  0.3580
  181MOL0     C23787   5.074  -1.180   0.757 -0.7248 -0.2403 -0.4335
  181MOL0     C23788   5.020  -1.190   0.887 -0.2673  0.1408  0.3365
  181MOL0     C23789   4.880  -1.184   0.928  0.6383  0.2419  0.7655
  181MOL0     O23790   4.852  -1.216   1.055  0.0105  1.1078 -0.3275
  181MOL0     C23791   4.733  -1.211   1.123  0.1987 -0.1084 -0.3984
  181MOL0     C23792   4.743  -1.246   1.258  0.4837 -0.0959  0.5851
  181MOL0     C23793   4.638  -1.252   1.343 -0.2022  0.2954  0.0036
  181MOL0     C23794   4.515  -1.223   1.296 -0.1204  0.0016  0.8045
  181MOL0     O23795   4.404  -1.242   1.368 -0.5062  0.3847 -0.3493
  181MOL0     C23796   4.332  -1.365   1.341 -0.6422 -0.0479 -0.2915
  181MOL0     C23797   4.183  -1.341   1.331  0.3375  0.5201 -0.1461
  181MOL0     C23798   4.143  -1.235   1.442  0.2818  0.0123  0.0125
  181MOL0     C23799   3.999  -1.188   1.444  0.2532 -0.4641  0.6069
  181MOL0     C23800   3.969  -1.074   1.555 -0.3628 -0.1217  1.0572
  181MOL0     C23801   4.008  -1.124   1.697 -1.2038 -0.0023  0.4770
  181MOL0     C23802   3.942  -1.047   1.804  0.2753 -0.0542 -0.1244
  181MOL0     C23803   3.970  -1.082   1.948 -0.2102 -0.4245 -0.2487
  181MOL0    Cl23804   4.138  -1.034   1.974  0.1341  0.1411  0.1407
  181MOL0     C23805   4.500  -1.188   1.154  0.4778 -0.2124 -0.8622
  181MOL0     C23806   4.611  -1.187   1.065  0.3408 -0.5122 -0.2892
  181MOL0     O23807   4.803  -1.158   0.835  1.1758 -0.1979  0.3955
  181MOL0     C23808   5.112  -1.198   0.991 -0.2903 -0.1846 -0.0092
  181MOL0     C23809   5.255  -1.177   0.968  0.5560  0.0639 -0.2018
  181MOL0     N23810   5.906  -1.047   0.330 -0.6526  0.3493 -0.2660
  181MOL0     N23811   6.019  -1.022   0.265 -0.3378  0.0327 -0.6126
  181MOL0     C23812   7.295  -0.429   0.148 -0.4221 -0.7896 -0.2777
  181MOL0     C23813   7.407  -0.352   0.110  0.0206 -0.2963 -0.4013
  181MOL0     C23814   7.653   0.007  -0.026 -0.1873 -0.5612 -0.2717
  181MOL0     C23815   7.759  -0.085  -0.050 -0.3952  0.1108 -0.1292
  181MOL0     C23816   7.883  -0.034  -0.088 -0.3573  0.3925 -0.3625
  181MOL0     C23817   7.906   0.101  -0.107  1.1820 -0.0480 -0.7447
  181MOL0     O23818   8.027   0.154  -0.143 -0.0853 -1.0831 -0.1262
  181MOL0     C23819   8.153   0.092  -0.120 -0.2343  0.1548  0.1640
  181MOL0     C23820   8.269   0.180  -0.152 -0.2712  0.4795  0.1948
  181MOL0     C23821   8.225   0.329  -0.121  0.8975  0.7007  1.3535
  181MOL0     C23822   8.346   0.423  -0.141 -0.4995  0.3617  0.4021
  181MOL0     C23823   8.285   0.555  -0.143 -0.3465 -0.3050 -0.7980
  181MOL0     C23824   8.226   0.657  -0.122 -0.4035 -0.6798 -0.9699
  181MOL0     C23825   7.800   0.187  -0.094 -0.4944 -0.5152 -0.6342
  181MOL0     C23826   7.676   0.144  -0.052 -0.2299 -0.0239  0.3745
  181MOL0     H23827   7.247  -0.078  -0.017 -4.0034 -0.7931 -0.9021
  181MOL0     H23828   7.051  -0.216   0.032 -1.1131 -2.2418  3.7728
  181MOL0     H23829   6.929  -0.422   0.035 -1.0108 -0.4580 -0.3781
  181MOL0     H23830   6.897  -0.336   0.188  1.6669  0.2481  1.7409
  181MOL0     H23831   6.877  -0.535   0.303 -3.7860  2.6570  0.3963
  181MOL0     H23832   6.914  -0.645   0.166 -1.5039 -0.6397  0.5830
  181MOL0     H23833   6.711  -0.604   0.058 -0.8392 -2.0664  1.2451
  181MOL0     H23834   6.681  -0.460   0.156  0.6187  0.8931 -2.9682
  181MOL0     H23835   6.685  -0.742   0.289 -1.0621  0.2698  2.4948
  181MOL0     H23836   6.609  -0.599   0.339 -0.4826  0.7419 -0.6972
  181MOL0     H23837   6.518  -0.752   0.083 -0.7164 -0.8238  1.3625
  181MOL0     H23838   6.436  -0.622   0.169  3.0016  1.0871 -2.0603
  181MOL0     H23839   6.465  -0.796   0.379 -0.0527  0.4177 -0.0808
  181MOL0     H23840   6.501  -0.914   0.259 -0.3960 -0.8410  3.0536
  181MOL0     H23841   6.233  -0.763   0.275  2.0936  0.7846 -0.6899
  181MOL0     H23842   6.269  -0.873   0.144  0.9688  0.2379 -0.7070
  181MOL0     H23843   6.309  -0.975   0.432  0.0797 -0.8946 -0.2314
  181MOL0     H23844   6.280  -1.057   0.279 -1.5016  1.2085 -1.1632
  181MOL0     H23845   6.093  -0.944   0.577 -2.4207 -0.6900  1.9915
  181MOL0     H23846   5.839  -0.956   0.649 -1.7905 -0.2448  1.3721
  181MOL0     H23847   5.875  -1.133   0.632 -0.0839  1.2996  0.4481
  181MOL0     H23848   5.699  -1.176   0.496 -1.7812 -0.6798  0.9157
  181MOL0     H23849   5.654  -1.002   0.503  0.2188 -0.8617 -0.9473
  181MOL0     H23850   5.679  -1.198   0.737  1.0592  0.4840  0.2146
  181MOL0     H23851   5.660  -1.024   0.759 -1.5603  0.2996 -0.8581
  181MOL0     H23852   5.481  -1.231   0.622 -0.5113  0.1347 -0.2320
  181MOL0     H23853   5.427  -1.063   0.641  2.7865  0.0375 -4.1690
  181MOL0     H23854   5.230  -1.183   0.622  2.8574  1.8644  0.4461
  181MOL0     H23855   5.000  -1.179   0.677  0.1056 -1.7407 -1.2633
  181MOL0     H23856   4.835  -1.281   1.303  1.3524  1.5737  0.1826
  181MOL0     H23857   4.652  -1.286   1.445 -5.0809  2.0239  1.5260
  181MOL0     H23858   4.355  -1.415   1.436 -4.4059 -1.5482  0.0114
  181MOL0     H23859   4.366  -1.420   1.253  1.5933  1.0557 -0.1839
  181MOL0     H23860   4.139  -1.442   1.331  0.9998  0.0029 -5.1152
  181MOL0     H23861   4.161  -1.298   1.233 -0.3637 -2.0429 -1.1955
  181MOL0     H23862   4.201  -1.143   1.441  1.3201 -0.5804  1.5258
  181MOL0     H23863   4.163  -1.292   1.534  0.7457 -1.1220 -0.7746
  181MOL0     H23864   3.978  -1.150   1.343 -1.6804  0.4423  1.3001
  181MOL0     H23865   3.923  -1.265   1.459  0.2412 -0.2823  1.5816
  181MOL0     H23866   3.862  -1.051   1.558 -0.2072  0.8278 -0.0925
  181MOL0     H23867   4.023  -0.982   1.528  0.2390 -0.7720 -0.0528
  181MOL0     H23868   4.117  -1.131   1.701 -1.1109  0.1586 -1.1919
  181MOL0     H23869   3.962  -1.223   1.693  0.4274 -0.7416 -1.9796
  181MOL0     H23870   3.981  -0.945   1.796  2.1700 -0.1686  4.6329
  181MOL0     H23871   3.833  -1.054   1.795  0.2384 -2.4107  1.5211
  181MOL0     H23872   3.937  -1.185   1.964  1.0584 -0.8354 -0.1630
  181MOL0     H23873   3.892  -1.028   2.003 -1.9717 -2.6182 -0.4485
  181MOL0     H23874   4.406  -1.179   1.102  0.1127 -0.2284 -0.2216
  181MOL0     H23875   4.600  -1.174   0.958 -0.9072 -2.2916 -0.4230
  181MOL0     H23876   5.084  -1.222   1.094 -0.7419 -1.3910 -0.3937
  181MOL0     H23877   5.336  -1.170   1.041  0.4615  0.1861 -0.1056
  181MOL0     H23878   7.318  -0.529   0.185  1.3030 -0.0703  0.7496
  181MOL0     H23879   7.505  -0.397   0.121  0.6655  1.3760  1.4196
  181MOL0     H23880   7.745  -0.193  -0.042  2.3893 -0.1935  2.2906
  181MOL0     H23881   7.962  -0.107  -0.098 -1.0963 -0.6869  1.1395
  181MOL0     H23882   8.157  -0.002  -0.176  2.0016  0.7868 -0.8552
  181MOL0     H23883   8.168   0.058  -0.017 -0.4293 -0.3177  0.0397
  181MOL0     H23884   8.350   0.151  -0.084 -0.6029  1.2333  0.9386
  181MOL0     H23885   8.307   0.167  -0.254  1.7491 -3.6432  1.2524
  181MOL0     H23886   8.194   0.340  -0.017 -0.5058  2.0305  0.8251
  181MOL0     H23887   8.136   0.355  -0.179  0.1796 -0.6534  1.7951
  181MOL0     H23888   8.420   0.420  -0.060 -1.9264 -2.0402  1.7333
  181MOL0     H23889   8.400   0.412  -0.236  0.0293 -2.2599  0.9163
  181MOL0     H23890   8.179   0.748  -0.091 -0.4573 -1.7503  2.5415
  181MOL0     H23891   7.816   0.292  -0.118  3.5388 -0.3327  1.9216
  181MOL0     H23892   7.596   0.215  -0.035 -0.4842  0.0711 -1.0785
  182MOL0     O23893   8.774  10.104   7.500 -0.2987  0.3880 -0.5337
  182MOL0     C23894   8.853  10.198   7.480 -0.4291 -0.1885  0.6167
  182MOL0     O23895   8.850  10.284   7.374  0.9926  0.0728 -0.0241
  182MOL0     C23896   8.781  10.263   7.257 -0.2596  0.3039  0.4680
  182MOL0     C23897   8.782  10.374   7.173  0.7667  0.4954 -0.7372
  182MOL0     C23898   8.715  10.364   7.050  1.1608  0.0122  0.2937
  182MOL0     C23899   8.642  10.251   7.006  0.1759 -0.1538 -0.4687
  182MOL0     O23900   8.573  10.254   6.887 -0.3894  0.4185  0.0483
  182MOL0     C23901   8.517  10.378   6.832 -0.3845  1.1568 -0.3848
  182MOL0     C23902   8.449  10.357   6.698 -0.0227 -0.1075 -0.1396
  182MOL0     C23903   8.309  10.299   6.720 -0.9447 -0.0809 -0.0288
  182MOL0     C23904   8.205  10.401   6.783  0.1827 -0.4978  0.0400
  182MOL0     C23905   8.065  10.360   6.736  1.0409  0.1833 -0.6215
  182MOL0     C23906   7.963  10.444   6.814 -0.5395  0.2627 -0.3531
  182MOL0     C23907   7.822  10.398   6.769 -0.4126  0.1451  0.2887
  182MOL0     C23908   7.761  10.297   6.865  0.1157 -0.0355  0.3356
  182MOL0     N23909   7.750  10.340   7.008  0.6445  0.5620 -0.5047
  182MOL0     C23910   7.762  10.261   7.120 -0.1119 -0.0002 -0.2211
  182MOL0     C23911   7.723  10.332   7.223  0.5266  0.3902  0.8492
  182MOL0     C23912   7.723  10.303   7.375  0.0217 -1.1314 -0.2400
  182MOL0     C23913   7.607  10.214   7.427 -0.4811 -0.0467 -0.1571
  182MOL0     C23914   7.482  10.299   7.422 -0.1496  0.0968  0.5789
  182MOL0     C23915   7.351  10.214   7.428  0.4126  0.2771 -0.0879
  182MOL0     O23916   7.235  10.295   7.455  0.4243  0.2596 -0.4183
  182MOL0     C23917   7.111  10.225   7.462 -1.2949 -0.2746 -0.2709
  182MOL0     C23918   7.011  10.297   7.526  0.4996  0.0664 -0.6041
  182MOL0     C23919   6.883  10.246   7.543  0.3915 -0.0694 -0.6810
  182MOL0     C23920   6.844  10.116   7.509  0.0677  0.0839 -0.7426
  182MOL0     C23921   6.713  10.057   7.536  0.6060  0.5749 -0.7002
  182MOL0     O23922   6.623  10.136   7.608 -0.6268  0.0913 -0.6789
  182MOL0     C23923   6.505  10.090   7.655 -0.1496  0.5724 -0.5416
  182MOL0     C23924   6.497  10.039   7.784 -0.1863  0.1851 -0.2214
  182MOL0     C23925   6.372   9.996   7.833 -0.3862 -0.3317 -0.0445
  182MOL0     C23926   6.258  10.003   7.758  0.2504  0.0559 -0.3462
  182MOL0     O23927   6.142   9.944   7.811 -0.1330 -0.3976  0.5974
  182MOL0     C23928   6.039   9.909   7.717  0.5856 -0.7382 -0.1147
  182MOL0     C23929   5.944  10.032   7.707  0.0045  0.2745 -0.1444
  182MOL0     C23930   5.863  10.016   7.574 -0.7579 -0.1769  1.0569
  182MOL0     C23931   5.734  10.107   7.550  0.2447  0.0749 -0.4529
  182MOL0     C23932   5.649  10.144   7.679  0.3427  0.4816 -0.2925
  182MOL0     C23933   5.532  10.238   7.667  0.7929 -0.5340  0.4385
  182MOL0     C23934   5.443  10.202   7.543 -0.6014  0.1050  0.2131
  182MOL0     C23935   5.318  10.274   7.524 -0.2563 -0.0167 -0.1016
  182MOL0    Cl23936   5.351  10.451   7.471  0.2279  0.1156 -0.0262
  182MOL0     C23937   6.267  10.063   7.633  0.3249  0.6868  1.3688
  182MOL0     C23938   6.388  10.101   7.576  0.0849 -1.0592  0.2499
  182MOL0     O23939   6.687   9.946   7.495  0.4095 -0.0812  0.0156
  182MOL0     C23940   6.957  10.041   7.458  0.2377 -0.1380 -1.1480
  182MOL0     C23941   7.081  10.098   7.426  0.2961 -0.3814  0.9545
  182MOL0     N23942   7.687  10.458   7.173 -0.2767 -0.2444 -0.3274
  182MOL0     N23943   7.705  10.468   7.044  0.1702  0.3659  0.6253
  182MOL0     C23944   8.646  10.140   7.090  0.0304 -0.5898 -0.2154
  182MOL0     C23945   8.716  10.142   7.214 -0.7285 -0.2031  0.2430
  182MOL0     C23946   8.975  10.207   7.576  0.1582  0.1458  0.5138
  182MOL0     C23947   9.082  10.296   7.542  0.0906 -0.0519  0.2709
  182MOL0     C23948   9.207  10.281   7.610  0.1410 -1.2450 -0.6386
  182MOL0     C23949   9.234  10.190   7.707 -0.6558  0.1374  0.0168
  182MOL0     O23950   9.356  10.179   7.773  0.0809 -0.0857 -1.1651
  182MOL0     C23951   9.438  10.292   7.781 -0.2891 -0.0141  0.1504
  182MOL0     C23952   9.558  10.262   7.883 -0.3361 -0.4050  0.3355
  182MOL0     C23953   9.535  10.304   8.027 -0.1735 -0.4719  0.2794
  182MOL0     C23954   9.635  10.245   8.132 -0.7671 -0.4200  0.0130
  182MOL0     C23955   9.770  10.288   8.126 -0.4691  0.2541 -0.5057
  182MOL0     C23956   9.884  10.314   8.105  0.1764 -0.4062  0.0380
  182MOL0     C23957   9.122  10.111   7.743 -0.3068  0.9089  0.1371
  182MOL0     C23958   9.000  10.117   7.680  0.5935 -0.4900  0.5310
  182MOL0     H23959   8.828  10.471   7.188 -1.5318  1.4860  0.5574
  182MOL0     H23960   8.713  10.443   6.976 -1.6647 -0.9180 -0.7546
  182MOL0     H23961   8.594  10.455   6.816 -1.3987  1.8867 -2.0321
  182MOL0     H23962   8.441  10.410   6.903 -0.4599 -2.1681  1.1832
  182MOL0     H23963   8.502  10.273   6.652  0.3932 -1.2088  2.2120
  182MOL0     H23964   8.440  10.444   6.631 -1.3476 -2.2263 -2.9304
  182MOL0     H23965   8.313  10.204   6.774 -1.2986 -1.2105 -1.9073
  182MOL0     H23966   8.278  10.271   6.619 -2.0553 -3.6460  1.1095
  182MOL0     H23967   8.214  10.418   6.890 -5.0827  2.9784  0.2764
  182MOL0     H23968   8.224  10.502   6.748  1.3716 -1.4141 -2.1838
  182MOL0     H23969   8.043  10.254   6.752 -1.2458  0.5763 -0.7645
  182MOL0     H23970   8.049  10.381   6.630  1.8900 -2.1437 -1.2897
  182MOL0     H23971   7.985  10.550   6.802  1.4548 -0.0816 -0.0675
  182MOL0     H23972   7.975  10.422   6.920 -0.0823  1.0381 -0.2378
  182MOL0     H23973   7.750  10.480   6.779 -1.6544 -0.9904  0.9801
  182MOL0     H23974   7.825  10.351   6.670  0.8366  3.0963 -1.2002
  182MOL0     H23975   7.817  10.204   6.857 -1.2405 -0.8685  0.0811
  182MOL0     H23976   7.663  10.277   6.821 -0.2766 -1.7026  1.8244
  182MOL0     H23977   7.795  10.158   7.131 -0.4493 -0.1801 -0.8114
  182MOL0     H23978   7.715  10.403   7.418 -2.7621 -0.1437 -2.6692
  182MOL0     H23979   7.811  10.243   7.401  0.3365  0.0631  1.5674
  182MOL0     H23980   7.630  10.183   7.529 -0.0699 -3.9563 -1.2453
  182MOL0     H23981   7.599  10.127   7.361 -3.0836  0.9756 -1.3110
  182MOL0     H23982   7.488  10.365   7.508 -1.3283  0.3557  0.4876
  182MOL0     H23983   7.472  10.365   7.336 -1.6250  0.6488  1.1346
  182MOL0     H23984   7.377  10.144   7.508  1.9205 -1.3744 -1.9062
  182MOL0     H23985   7.345  10.161   7.332 -1.5180 -0.9270  0.6400
  182MOL0     H23986   7.021  10.402   7.552  1.9900  0.1093 -1.2237
  182MOL0     H23987   6.818  10.326   7.579  0.5444  0.1380 -0.8618
  182MOL0     H23988   6.585  10.041   7.847 -0.7755  1.3259  0.6117
  182MOL0     H23989   6.366   9.956   7.933 -0.1910 -1.4371 -0.4597
  182MOL0     H23990   5.988   9.826   7.767 -0.4112  0.3809  0.7790
  182MOL0     H23991   6.086   9.881   7.622  3.7332  0.2573  1.0142
  182MOL0     H23992   5.997  10.128   7.704  0.1135  0.2368  0.5887
  182MOL0     H23993   5.864  10.036   7.781 -2.9498  0.2473 -3.0955
  182MOL0     H23994   5.832   9.911   7.566 -2.2491  0.3110  0.0585
  182MOL0     H23995   5.936  10.043   7.498  0.3787 -0.2292  2.0957
  182MOL0     H23996   5.766  10.208   7.521 -0.5355  1.2961  2.5103
  182MOL0     H23997   5.671  10.067   7.471 -0.4921 -0.9541  0.6299
  182MOL0     H23998   5.716  10.178   7.758  0.8684  1.3029 -1.0707
  182MOL0     H23999   5.611  10.045   7.706 -2.1462  0.5004 -3.1839
  182MOL0     H24000   5.564  10.342   7.653 -0.4887 -0.4407 -2.8138
  182MOL0     H24001   5.474  10.218   7.757  2.1101 -1.2178  1.1507
  182MOL0     H24002   5.498  10.232   7.453  2.8688  1.8016  2.6473
  182MOL0     H24003   5.427  10.094   7.546  0.1761 -0.0011  0.6187
  182MOL0     H24004   5.271  10.272   7.623 -1.7177  1.7293 -0.7057
  182MOL0     H24005   5.253  10.228   7.449  1.2697  0.3510 -1.7178
  182MOL0     H24006   6.178  10.073   7.573  1.1379 -0.7794 -0.1749
  182MOL0     H24007   6.397  10.149   7.479 -0.1095 -3.0445 -0.7999
  182MOL0     H24008   6.929   9.939   7.432 -1.8594 -2.3150  6.8512
  182MOL0     H24009   7.153  10.032   7.380  1.3616  0.7420  0.9610
  182MOL0     H24010   8.604  10.041   7.074  0.5430 -0.6732 -1.1127
  182MOL0     H24011   8.709  10.057   7.281  0.5602  0.1184  0.8203
  182MOL0     H24012   9.063  10.363   7.459  1.8645  0.1918  0.0138
  182MOL0     H24013   9.282  10.358   7.589  1.6246 -2.6054 -0.5459
  182MOL0     H24014   9.382  10.375   7.825  2.6924  1.0351  2.2602
  182MOL0     H24015   9.474  10.331   7.685 -1.3059  1.6126  0.3904
  182MOL0     H24016   9.583  10.156   7.873  2.4946  0.2740 -0.7053
  182MOL0     H24017   9.643  10.321   7.847  0.9829 -0.2685  3.4001
  182MOL0     H24018   9.432  10.290   8.062 -0.4340 -1.6051 -0.8492
  182MOL0     H24019   9.547  10.412   8.024 -2.4389 -0.1612  0.6186
  182MOL0     H24020   9.610  10.290   8.228  3.8778  1.0210  0.7793
  182MOL0     H24021   9.622  10.137   8.147 -0.1092 -0.1670  2.7997
  182MOL0     H24022   9.984  10.343   8.077 -0.6679  1.1732 -1.5273
  182MOL0     H24023   9.136  10.037   7.822 -1.0951  0.2509 -0.3148
  182MOL0     H24024   8.926  10.038   7.688 -1.3454  1.3075  1.0446
  183MOL0     O24025   3.226   5.534   3.437  0.5127  0.3603  0.0512
  183MOL0     C24026   3.166   5.431   3.436 -0.0443 -0.6678  0.1114
  183MOL0     O24027   3.222   5.300   3.427  0.2394  0.4192  0.2890
  183MOL0     C24028   3.355   5.278   3.429 -0.1296 -0.6172 -0.0601
  183MOL0     C24029   3.430   5.200   3.331  0.1032  0.9872 -0.3817
  183MOL0     C24030   3.567   5.184   3.342 -0.3346 -0.2885  0.7820
  183MOL0     C24031   3.643   5.224   3.456 -0.0643 -0.4383  0.8098
  183MOL0     O24032   3.779   5.218   3.484 -0.4448 -0.4255 -0.1331
  183MOL0     C24033   3.842   5.113   3.423  0.2673  0.6430  0.9654
  183MOL0     C24034   3.927   5.045   3.528 -0.8217  0.6239  0.8386
  183MOL0     C24035   3.866   4.911   3.564 -0.5921  0.6164  0.0210
  183MOL0     C24036   3.733   4.931   3.631 -0.1085 -0.4735  0.3161
  183MOL0     C24037   3.670   4.790   3.641  0.5595  0.2639 -0.2184
  183MOL0     C24038   3.591   4.763   3.512  0.9464  0.6215 -0.1708
  183MOL0     C24039   3.458   4.677   3.519  0.8637 -0.1810 -0.1652
  183MOL0     C24040   3.479   4.540   3.481  0.1478 -0.2070  0.0614
  183MOL0     N24041   3.347   4.472   3.479 -0.1050  0.2928 -0.1676
  183MOL0     C24042   3.314   4.373   3.570 -0.2819  0.5047  0.4270
  183MOL0     C24043   3.192   4.332   3.533  0.5278  0.2713  0.9104
  183MOL0     C24044   3.101   4.254   3.618  0.8954 -0.0743 -0.1321
  183MOL0     C24045   2.965   4.232   3.561 -0.9262 -0.1565 -0.2835
  183MOL0     C24046   2.898   4.122   3.647 -0.2167 -0.6330 -0.1502
  183MOL0     C24047   2.768   4.080   3.585 -0.4822  0.2079 -0.9721
  183MOL0     O24048   2.661   4.178   3.620 -0.7435  0.0112  0.1439
  183MOL0     C24049   2.523   4.162   3.598 -0.5764 -0.7223  0.3399
  183MOL0     C24050   2.480   4.057   3.520  1.3163 -0.5666 -0.1173
  183MOL0     C24051   2.348   4.049   3.484  0.3099  0.3570  0.5911
  183MOL0     C24052   2.263   4.157   3.501  0.1379  1.3147  0.9442
  183MOL0     C24053   2.130   4.168   3.444 -0.0362 -0.1933 -0.6030
  183MOL0     O24054   2.030   4.224   3.521 -0.2755 -0.2054  0.4129
  183MOL0     C24055   1.900   4.181   3.498 -0.6752 -0.1181 -0.9959
  183MOL0     C24056   1.799   4.277   3.477  0.0027 -0.2421  0.7819
  183MOL0     C24057   1.662   4.238   3.473  0.1168  0.1455  0.5637
  183MOL0     C24058   1.625   4.102   3.480  0.4088 -0.3235 -0.6616
  183MOL0     O24059   1.493   4.056   3.466  0.0665  0.5088  0.6759
  183MOL0     C24060   1.385   4.140   3.464  0.1081  0.0704  0.2995
  183MOL0     C24061   1.258   4.073   3.418  0.5192  0.0387  0.0974
  183MOL0     C24062   1.121   4.148   3.448 -0.1733  1.2471  0.0544
  183MOL0     C24063   1.088   4.248   3.338 -1.3824  0.6317 -0.5408
  183MOL0     C24064   0.953   4.308   3.339 -0.2803 -0.8830 -0.8258
  183MOL0     C24065   0.929   4.402   3.218  0.3957  0.3571 -0.7142
  183MOL0     C24066   0.811   4.488   3.255  0.1825 -0.2025 -0.1715
  183MOL0     C24067   0.678   4.411   3.275 -0.4502  0.0789  1.1251
  183MOL0    Cl24068   0.522   4.496   3.247 -0.0294  0.1759  0.1543
  183MOL0     C24069   1.719   4.009   3.507 -0.9286  0.3632  0.1836
  183MOL0     C24070   1.862   4.043   3.514 -0.0360 -0.0502 -0.9238
  183MOL0     O24071   2.110   4.103   3.341 -0.5515  0.3634 -0.1620
  183MOL0     C24072   2.304   4.263   3.581  0.4178  0.3944 -1.2923
  183MOL0     C24073   2.431   4.260   3.633 -0.5905 -1.0091  0.1841
  183MOL0     N24074   3.155   4.401   3.424  1.0945  0.3195  0.5306
  183MOL0     N24075   3.248   4.480   3.390  0.4559  0.4561  0.0027
  183MOL0     C24076   3.560   5.282   3.560 -0.0686  0.4131 -0.4457
  183MOL0     C24077   3.425   5.317   3.541 -0.2950 -0.3655 -1.0018
  183MOL0     C24078   3.016   5.428   3.432  0.6610  0.6108  0.5456
  183MOL0     C24079   2.950   5.303   3.432 -0.0582 -0.0931  0.1529
  183MOL0     C24080   2.809   5.297   3.448  0.5222  0.6687  0.1801
  183MOL0     C24081   2.741   5.411   3.470 -0.0734  0.3191 -0.2399
  183MOL0     O24082   2.605   5.401   3.491 -0.0541 -0.1603 -0.3155
  183MOL0     C24083   2.520   5.507   3.528  0.1359  0.9737  0.9377
  183MOL0     C24084   2.389   5.446   3.591  0.1743 -0.7347  0.7602
  183MOL0     C24085   2.416   5.363   3.716 -0.0179 -0.8604  0.5302
  183MOL0     C24086   2.298   5.314   3.773  1.2850 -0.4580  0.9187
  183MOL0     C24087   2.326   5.236   3.893  1.2175  0.7297  0.3767
  183MOL0     C24088   2.365   5.156   3.979 -0.1865 -1.5260  0.3348
  183MOL0     C24089   2.802   5.531   3.456  0.4132  0.4328  1.5701
  183MOL0     C24090   2.936   5.542   3.440  0.6219  0.1154 -0.8514
  183MOL0     H24091   3.382   5.147   3.249  2.6418 -0.2458 -1.2014
  183MOL0     H24092   3.612   5.124   3.264 -2.4532 -0.4654 -0.3449
  183MOL0     H24093   3.905   5.139   3.337  0.7694 -0.1247  1.0944
  183MOL0     H24094   3.771   5.038   3.388  2.2401 -1.2853  0.8605
  183MOL0     H24095   3.958   5.107   3.612 -2.8446  1.2754  1.1561
  183MOL0     H24096   4.021   5.018   3.479 -0.1973 -2.7600  3.4625
  183MOL0     H24097   3.930   4.848   3.627  0.3193  1.7741  0.3102
  183MOL0     H24098   3.861   4.858   3.469  1.5546  2.4781 -1.2480
  183MOL0     H24099   3.749   4.980   3.728  1.7805  0.9533 -0.6513
  183MOL0     H24100   3.678   5.004   3.572  1.1337 -1.4873 -2.2300
  183MOL0     H24101   3.597   4.798   3.722  0.0937  0.3016 -0.6370
  183MOL0     H24102   3.744   4.714   3.670 -0.1170  0.3721  1.9539
  183MOL0     H24103   3.650   4.705   3.441 -2.2538 -1.1726 -1.6036
  183MOL0     H24104   3.565   4.862   3.474  2.3932  2.3500  2.9341
  183MOL0     H24105   3.416   4.681   3.620  0.2000  0.2232 -0.4486
  183MOL0     H24106   3.379   4.719   3.456 -1.6535  2.4823  4.2117
  183MOL0     H24107   3.553   4.487   3.543  1.2167 -2.4619 -2.8883
  183MOL0     H24108   3.510   4.545   3.376 -1.7160  0.9532 -0.4763
  183MOL0     H24109   3.372   4.329   3.651  2.6724  0.7547 -1.4114
  183MOL0     H24110   3.094   4.298   3.718 -1.9637 -0.4495 -0.0811
  183MOL0     H24111   3.155   4.162   3.637 -0.4497 -0.7876  0.4057
  183MOL0     H24112   2.975   4.193   3.459 -0.1216  2.8813 -1.4861
  183MOL0     H24113   2.900   4.320   3.556 -0.5639  0.4094  2.9656
  183MOL0     H24114   2.968   4.038   3.654 -0.4867 -0.8853 -0.4720
  183MOL0     H24115   2.868   4.159   3.746 -0.4140  2.8106 -1.3505
  183MOL0     H24116   2.735   3.983   3.626 -0.0054  0.9376  1.2555
  183MOL0     H24117   2.788   4.055   3.480  2.6778  0.5142 -0.5391
  183MOL0     H24118   2.533   3.967   3.492 -3.2261 -3.1115 -1.3241
  183MOL0     H24119   2.317   3.965   3.423  0.1773  1.0177 -0.2753
  183MOL0     H24120   1.820   4.383   3.469  0.2089 -0.3307  0.0806
  183MOL0     H24121   1.593   4.320   3.457 -0.9139 -0.8566 -0.2669
  183MOL0     H24122   1.408   4.225   3.400  2.3670 -0.4493  0.3406
  183MOL0     H24123   1.365   4.180   3.564  0.5317  0.9047  0.0625
  183MOL0     H24124   1.257   3.979   3.473  0.8418 -0.3353 -0.5166
  183MOL0     H24125   1.268   4.046   3.312 -2.6705  3.8461 -1.4066
  183MOL0     H24126   1.132   4.194   3.547  1.3126 -0.7896  0.9202
  183MOL0     H24127   1.040   4.073   3.444  1.2995 -0.4460  0.5201
  183MOL0     H24128   1.147   4.339   3.351 -2.4771  1.0476  2.0770
  183MOL0     H24129   1.111   4.209   3.238  1.8587  3.3856 -1.0318
  183MOL0     H24130   0.950   4.359   3.436 -1.2077 -0.3477 -1.1289
  183MOL0     H24131   0.885   4.224   3.354 -0.4912 -0.4417  0.9052
  183MOL0     H24132   0.896   4.333   3.139  0.5510 -0.6664  0.0936
  183MOL0     H24133   1.013   4.464   3.184 -1.0407  2.2974 -0.8392
  183MOL0     H24134   0.833   4.551   3.341 -0.6916 -0.2201  0.0792
  183MOL0     H24135   0.797   4.557   3.171 -1.2608 -2.9633 -2.4045
  183MOL0     H24136   0.666   4.373   3.377 -0.3907  0.4539  1.2739
  183MOL0     H24137   0.684   4.320   3.215  3.0842  0.9544 -0.0465
  183MOL0     H24138   1.680   3.908   3.501 -1.5163  0.6619 -1.7041
  183MOL0     H24139   1.932   3.960   3.522 -2.0727 -1.7049  0.7278
  183MOL0     H24140   2.229   4.338   3.602 -0.1570 -0.1016 -1.5109
  183MOL0     H24141   2.456   4.337   3.705 -1.1141  1.1506 -1.8065
  183MOL0     H24142   3.612   5.303   3.653 -1.9795 -0.3554  0.8529
  183MOL0     H24143   3.374   5.357   3.628 -0.8719 -1.4719 -0.8157
  183MOL0     H24144   2.998   5.206   3.419 -1.0231 -0.6262  0.4470
  183MOL0     H24145   2.762   5.200   3.462  2.0139 -0.4697 -2.1086
  183MOL0     H24146   2.495   5.551   3.431  1.3952  1.8361  0.9816
  183MOL0     H24147   2.563   5.579   3.597 -1.6080  2.2539  0.7704
  183MOL0     H24148   2.324   5.529   3.617  1.7028  1.0215 -0.7421
  183MOL0     H24149   2.338   5.395   3.509  0.0983  0.0566  0.3073
  183MOL0     H24150   2.471   5.422   3.791 -0.8098  2.4722 -1.2995
  183MOL0     H24151   2.472   5.277   3.679  0.1550  0.2932 -2.0490
  183MOL0     H24152   2.226   5.394   3.794  1.9035  0.1708  0.6944
  183MOL0     H24153   2.244   5.260   3.695 -0.1893  1.0465  0.8374
  183MOL0     H24154   2.412   5.094   4.052  0.4970 -0.3397  0.9410
  183MOL0     H24155   2.743   5.622   3.452 -2.0124 -1.0719 -0.3549
  183MOL0     H24156   2.979   5.642   3.428 -1.5397  1.1378 -0.5064
  184MOL0     O24157   4.889   1.739   2.249  1.2147  0.4580  0.6498
  184MOL0     C24158   4.928   1.845   2.199 -1.2171 -0.5457 -0.0791
  184MOL0     O24159   4.849   1.948   2.162 -0.2505 -0.4197  0.4966
  184MOL0     C24160   4.709   1.939   2.151 -0.4911 -0.3036  0.2701
  184MOL0     C24161   4.639   2.060   2.125 -0.3671  0.2312 -0.0594
  184MOL0     C24162   4.497   2.061   2.108  0.6673  0.4380 -0.7133
  184MOL0     C24163   4.429   1.939   2.118 -0.4183  0.2464  0.0965
  184MOL0     O24164   4.291   1.931   2.087 -0.1096  0.3960 -0.2017
  184MOL0     C24165   4.212   1.869   2.188 -0.0895  0.3297  0.0923
  184MOL0     C24166   4.076   1.828   2.112 -0.4074  0.2403 -0.4318
  184MOL0     C24167   3.965   1.797   2.207 -0.0698  0.2925 -0.5540
  184MOL0     C24168   3.828   1.789   2.142 -0.5081 -0.7485  0.5628
  184MOL0     C24169   3.703   1.778   2.226  0.4032 -0.0454  1.4611
  184MOL0     C24170   3.575   1.766   2.142 -0.0879  1.3497 -0.0921
  184MOL0     C24171   3.546   1.898   2.068  0.3756 -0.5841  0.6867
  184MOL0     C24172   3.407   1.913   1.992 -0.4202  0.1651 -0.4499
  184MOL0     N24173   3.303   1.966   2.091  0.1626 -0.6308 -0.6106
  184MOL0     C24174   3.183   1.909   2.135 -0.2640  0.3122  0.1114
  184MOL0     C24175   3.134   1.992   2.227 -0.2417 -0.0535 -0.4189
  184MOL0     C24176   3.018   1.965   2.320 -0.1576  0.0625  0.8935
  184MOL0     C24177   2.886   1.958   2.249 -0.0507 -0.1851  0.7734
  184MOL0     C24178   2.761   1.975   2.335 -0.0006 -0.6163 -1.1617
  184MOL0     C24179   2.651   2.031   2.253 -0.7672 -0.0904  0.2203
  184MOL0     O24180   2.661   2.177   2.238  0.2163 -0.3488  0.4523
  184MOL0     C24181   2.645   2.246   2.119 -0.2433  0.3533 -0.1415
  184MOL0     C24182   2.677   2.382   2.139  0.5586  0.5135  0.1690
  184MOL0     C24183   2.669   2.467   2.035 -0.1142  0.4854  0.2215
  184MOL0     C24184   2.604   2.426   1.913  0.9475  0.2623 -0.7528
  184MOL0     C24185   2.568   2.525   1.808 -0.5382  0.5911  0.0059
  184MOL0     O24186   2.572   2.660   1.849 -0.1137  0.5369 -0.4975
  184MOL0     C24187   2.544   2.751   1.748  0.8271 -1.0318  0.5538
  184MOL0     C24188   2.619   2.872   1.744  0.8596 -0.1141 -1.2109
  184MOL0     C24189   2.594   2.973   1.646 -0.9822  0.4979 -0.0312
  184MOL0     C24190   2.492   2.953   1.553  0.3192  0.3599  0.4883
  184MOL0     O24191   2.474   3.050   1.457 -0.4224  0.5877 -0.6046
  184MOL0     C24192   2.335   3.089   1.441 -0.1090  0.4651 -0.0545
  184MOL0     C24193   2.331   3.238   1.462  0.0730  0.1722  0.1807
  184MOL0     C24194   2.187   3.287   1.467 -0.9694 -0.6073 -0.2537
  184MOL0     C24195   2.125   3.306   1.609  0.3791 -0.4360 -0.5502
  184MOL0     C24196   1.972   3.308   1.577  0.5077 -0.1878  0.0036
  184MOL0     C24197   1.905   3.343   1.712 -0.5051 -0.4207 -0.0405
  184MOL0     C24198   1.764   3.392   1.672  0.1846 -0.0065 -0.7118
  184MOL0     C24199   1.664   3.400   1.792  0.3942  0.0322  0.5335
  184MOL0    Cl24200   1.664   3.259   1.901  0.1201 -0.2336 -0.0900
  184MOL0     C24201   2.408   2.839   1.561  0.1977  0.2747 -0.0459
  184MOL0     C24202   2.434   2.738   1.654  0.2889  0.9887  0.0378
  184MOL0     O24203   2.544   2.484   1.694  0.3144  0.2695 -0.4213
  184MOL0     C24204   2.569   2.289   1.898 -0.6003 -0.0595  0.6002
  184MOL0     C24205   2.596   2.198   1.998 -1.2781  0.0908 -1.2434
  184MOL0     N24206   3.211   2.107   2.231  0.2094  0.3478 -0.2261
  184MOL0     N24207   3.307   2.094   2.144  0.2404  0.6771  0.1118
  184MOL0     C24208   4.497   1.813   2.132 -0.1846  0.1800 -0.5151
  184MOL0     C24209   4.633   1.816   2.150  0.1389 -0.9717 -0.2163
  184MOL0     C24210   5.075   1.855   2.179  0.2345 -0.2992  0.2399
  184MOL0     C24211   5.167   1.755   2.202  0.2093  0.0379  0.3463
  184MOL0     C24212   5.304   1.777   2.206  0.3823 -0.1403  0.9334
  184MOL0     C24213   5.355   1.902   2.176 -0.1587 -0.3963  0.2001
  184MOL0     O24214   5.491   1.910   2.145  0.2333 -0.3734  0.1740
  184MOL0     C24215   5.569   2.033   2.131 -0.1364 -1.1062 -0.6889
  184MOL0     C24216   5.661   2.033   2.260 -0.1862 -0.6257 -0.2726
  184MOL0     C24217   5.762   1.920   2.275 -0.9789 -0.0441  0.1275
  184MOL0     C24218   5.789   1.826   2.153 -0.4210  0.2797  0.3580
  184MOL0     C24219   5.895   1.729   2.186 -0.5066  0.2014  1.4338
  184MOL0     C24220   5.987   1.653   2.207 -0.2282  0.4545  0.7110
  184MOL0     C24221   5.269   2.002   2.141 -0.1541 -0.3374 -1.2635
  184MOL0     C24222   5.134   1.988   2.144  0.9146 -0.4993  0.7924
  184MOL0     H24223   4.704   2.146   2.112  2.3247 -1.3820  1.5746
  184MOL0     H24224   4.450   2.157   2.089  0.7591  0.8030  0.8186
  184MOL0     H24225   4.187   1.944   2.263  0.5763 -0.4144  1.0849
  184MOL0     H24226   4.263   1.795   2.251  1.4225  1.2360 -0.0051
  184MOL0     H24227   4.096   1.747   2.041 -1.3415  0.8279 -1.3816
  184MOL0     H24228   4.050   1.915   2.052 -4.4091 -1.8191 -2.0449
  184MOL0     H24229   3.952   1.871   2.286 -0.3619 -0.9885  0.6431
  184MOL0     H24230   3.977   1.696   2.248 -3.4921  0.0798  0.1951
  184MOL0     H24231   3.814   1.872   2.073  0.5192  0.2467  1.5184
  184MOL0     H24232   3.832   1.703   2.074  2.1176 -0.0372 -0.3096
  184MOL0     H24233   3.695   1.869   2.287 -1.8911 -0.0975  1.3289
  184MOL0     H24234   3.711   1.696   2.298  0.5411  0.8441  2.4921
  184MOL0     H24235   3.489   1.755   2.209  0.6538  1.6959  0.9420
  184MOL0     H24236   3.589   1.684   2.071  3.4350  1.4680  0.3039
  184MOL0     H24237   3.541   1.981   2.140 -0.3678 -0.9357  1.0530
  184MOL0     H24238   3.623   1.908   1.991  1.1455 -3.0105  1.0791
  184MOL0     H24239   3.368   1.823   1.943  1.5636 -0.6656 -0.6008
  184MOL0     H24240   3.417   1.981   1.908  0.1836 -0.9982 -1.3492
  184MOL0     H24241   3.150   1.811   2.100 -0.4002  0.3678  0.0851
  184MOL0     H24242   3.001   2.026   2.409 -2.2530 -0.5489  0.9816
  184MOL0     H24243   3.028   1.866   2.364 -1.8321 -1.0830 -1.1291
  184MOL0     H24244   2.877   1.861   2.199 -1.0873 -1.1860  2.8172
  184MOL0     H24245   2.885   2.043   2.179  0.0458 -0.9356 -0.1531
  184MOL0     H24246   2.721   1.883   2.379 -0.2222  0.1908  0.3822
  184MOL0     H24247   2.776   2.050   2.413 -2.5751  0.1000 -1.2908
  184MOL0     H24248   2.557   2.022   2.308 -0.7729 -2.7264 -0.1094
  184MOL0     H24249   2.645   1.974   2.160  2.2923 -0.4925  0.1661
  184MOL0     H24250   2.714   2.412   2.236  2.3021 -0.1217 -0.2644
  184MOL0     H24251   2.690   2.571   2.058  0.6472 -0.2234  3.1039
  184MOL0     H24252   2.703   2.884   1.811  1.4067  1.8208 -2.1874
  184MOL0     H24253   2.652   3.065   1.650 -0.4323  0.2751 -1.9227
  184MOL0     H24254   2.269   3.044   1.516  3.3632 -3.0213  1.3164
  184MOL0     H24255   2.293   3.054   1.346  1.1781 -1.5308  0.0448
  184MOL0     H24256   2.381   3.272   1.370  0.4117 -0.0689  0.2739
  184MOL0     H24257   2.379   3.272   1.554  0.3176  0.0594  0.0954
  184MOL0     H24258   2.136   3.213   1.405 -0.9623 -1.2861  0.5397
  184MOL0     H24259   2.183   3.379   1.407  2.2645  0.4413  0.9194
  184MOL0     H24260   2.151   3.232   1.686  1.3192  1.4427  1.0048
  184MOL0     H24261   2.158   3.400   1.653  2.2788 -1.3414  0.0500
  184MOL0     H24262   1.947   3.212   1.530 -1.9633  1.1172 -1.5795
  184MOL0     H24263   1.949   3.381   1.499 -0.1711 -1.2002 -0.7695
  184MOL0     H24264   1.955   3.419   1.773 -2.2079 -2.5279  4.4630
  184MOL0     H24265   1.899   3.252   1.773 -0.6206 -0.7292 -0.5057
  184MOL0     H24266   1.777   3.487   1.620  0.8258  0.1899 -0.1968
  184MOL0     H24267   1.723   3.328   1.593  1.8404 -0.9111 -0.8776
  184MOL0     H24268   1.561   3.425   1.765  0.1391 -1.1805  0.3391
  184MOL0     H24269   1.695   3.485   1.853  1.7447  0.5586 -0.8042
  184MOL0     H24270   2.329   2.840   1.487 -0.2938  0.5641  0.4764
  184MOL0     H24271   2.364   2.656   1.660 -1.4518  2.1069 -2.7433
  184MOL0     H24272   2.518   2.254   1.809 -2.2018  1.7344  0.7343
  184MOL0     H24273   2.567   2.095   1.979 -1.7507  0.5406 -3.2281
  184MOL0     H24274   4.439   1.721   2.135 -2.3544  1.5218  1.5649
  184MOL0     H24275   4.678   1.720   2.173  0.3405 -0.8299 -0.0195
  184MOL0     H24276   5.129   1.660   2.239 -1.2272  0.1651 -0.7275
  184MOL0     H24277   5.365   1.698   2.247  2.5142  1.1884  0.5432
  184MOL0     H24278   5.499   2.115   2.118 -0.7362 -1.4044  0.4721
  184MOL0     H24279   5.634   2.038   2.043 -2.0931  2.7383 -2.1259
  184MOL0     H24280   5.715   2.128   2.266  0.5913 -1.0155 -0.9992
  184MOL0     H24281   5.602   2.034   2.353  0.8942 -1.2370  0.4403
  184MOL0     H24282   5.733   1.859   2.362 -0.6324  0.2331  0.4393
  184MOL0     H24283   5.855   1.972   2.298 -1.3065  1.8431 -2.4528
  184MOL0     H24284   5.703   1.760   2.148  1.0037 -1.6282 -0.3969
  184MOL0     H24285   5.810   1.881   2.060  2.3261 -0.9354  0.1449
  184MOL0     H24286   6.060   1.575   2.219 -2.5122 -1.6279  1.9835
  184MOL0     H24287   5.313   2.097   2.110  0.9523 -0.3144  0.2892
  184MOL0     H24288   5.077   2.075   2.114 -0.9678 -2.7446 -2.8832
  185MOL0     O24289   8.867   0.890   8.641  0.1451 -0.1101 -0.4151
  185MOL0     C24290   8.856   0.827   8.535 -1.0477 -0.5120  0.5040
  185MOL0     O24291   8.750   0.828   8.453 -0.9376  0.5058 -0.2248
  185MOL0     C24292   8.639   0.912   8.456  0.1735  0.7293 -0.2249
  185MOL0     C24293   8.570   0.917   8.330  0.5195 -0.1483 -0.2862
  185MOL0     C24294   8.446   0.993   8.319  0.8971  0.3637  0.5043
  185MOL0     C24295   8.392   1.059   8.423  0.7253 -0.1580 -0.2713
  185MOL0     O24296   8.279   1.134   8.423  0.0066 -0.6965  0.6480
  185MOL0     C24297   8.154   1.055   8.408 -0.2503 -0.1145  0.5143
  185MOL0     C24298   8.111   0.989   8.538 -0.1445  0.2875 -0.3157
  185MOL0     C24299   7.999   0.894   8.512  0.0281  0.3565 -0.3303
  185MOL0     C24300   7.958   0.817   8.636  0.5177 -0.1647 -0.3604
  185MOL0     C24301   7.825   0.736   8.623 -0.0383  0.0360 -0.0780
  185MOL0     C24302   7.845   0.614   8.529 -0.0651  0.1202 -0.8098
  185MOL0     C24303   7.713   0.539   8.515  0.3577 -1.3047  0.0268
  185MOL0     C24304   7.732   0.403   8.450  0.2242 -0.0664  0.6285
  185MOL0     N24305   7.598   0.332   8.433 -0.8204 -0.0308  0.3926
  185MOL0     C24306   7.501   0.363   8.340 -1.0263 -0.1429 -0.3109
  185MOL0     C24307   7.407   0.273   8.365 -0.0146  0.0571  0.5060
  185MOL0     C24308   7.287   0.268   8.284  0.4525 -0.0363  0.0583
  185MOL0     C24309   7.212   0.391   8.304 -0.0442 -0.0689  0.6467
  185MOL0     C24310   7.064   0.389   8.266 -0.7926 -0.7824 -0.1805
  185MOL0     C24311   6.996   0.534   8.244  0.0610  0.7299  0.5688
  185MOL0     O24312   6.856   0.508   8.227 -0.2721 -0.3735  0.3524
  185MOL0     C24313   6.774   0.609   8.185 -0.0369  0.1534 -1.5475
  185MOL0     C24314   6.812   0.740   8.153  0.6235 -0.8073  0.5345
  185MOL0     C24315   6.712   0.833   8.134 -0.6230  0.1990  0.3439
  185MOL0     C24316   6.576   0.783   8.112 -0.9466 -0.2818 -0.0647
  185MOL0     C24317   6.470   0.873   8.083  0.1519 -1.1068 -0.1560
  185MOL0     O24318   6.342   0.819   8.074 -0.1461  0.3016 -0.0363
  185MOL0     C24319   6.237   0.897   8.093  0.7115  0.4479  0.8435
  185MOL0     C24320   6.130   0.884   8.004  0.1947 -0.5289  0.1451
  185MOL0     C24321   6.007   0.942   8.031 -0.0597  0.7035 -1.4217
  185MOL0     C24322   5.990   1.025   8.145  0.3428  0.3845 -0.3818
  185MOL0     O24323   5.854   1.056   8.182  0.3415 -0.0408  0.0909
  185MOL0     C24324   5.826   1.082   8.315  0.2997  0.8775  0.0937
  185MOL0     C24325   5.677   1.092   8.359  0.5509 -0.6003 -0.8471
  185MOL0     C24326   5.590   1.161   8.263  0.1812 -0.4774  0.9379
  185MOL0     C24327   5.628   1.309   8.224  0.4589  0.4024  0.7853
  185MOL0     C24328   5.533   1.375   8.128  0.7063 -0.7564  0.0613
  185MOL0     C24329   5.535   1.317   7.985  1.0482  0.2349  0.0308
  185MOL0     C24330   5.486   1.423   7.879  0.2926  0.1059  1.1753
  185MOL0     C24331   5.337   1.467   7.901 -0.3411  0.3804  0.0161
  185MOL0    Cl24332   5.312   1.559   7.742  0.4867  0.2132 -0.0505
  185MOL0     C24333   6.099   1.057   8.223 -0.5909 -0.6798 -0.9047
  185MOL0     C24334   6.224   0.992   8.201 -0.1588  0.0542 -0.3111
  185MOL0     O24335   6.497   1.000   8.099  0.4215  0.6424  0.3275
  185MOL0     C24336   6.550   0.643   8.123  0.5694 -0.4159  0.0069
  185MOL0     C24337   6.644   0.562   8.173 -0.5466 -0.6345  0.5291
  185MOL0     N24338   7.450   0.183   8.465 -0.8621  0.3468  0.2099
  185MOL0     N24339   7.563   0.221   8.513 -0.3489 -0.0905 -0.1789
  185MOL0     C24340   8.459   1.056   8.550 -0.9653 -0.2969  0.1865
  185MOL0     C24341   8.588   0.991   8.565  1.0357 -0.2351 -0.0845
  185MOL0     C24342   8.958   0.725   8.519 -1.1222  0.5894  1.1260
  185MOL0     C24343   9.069   0.709   8.613 -1.1079  0.2399 -1.3020
  185MOL0     C24344   9.168   0.615   8.597  0.0760  0.4836 -0.0898
  185MOL0     C24345   9.170   0.542   8.480  0.8614 -1.2590  0.3657
  185MOL0     O24346   9.264   0.449   8.468  0.5833 -0.0469  0.0264
  185MOL0     C24347   9.385   0.490   8.393 -0.4472  0.2695 -0.2480
  185MOL0     C24348   9.494   0.501   8.490 -0.4275 -0.4635 -0.4853
  185MOL0     C24349   9.570   0.370   8.532 -0.6053 -0.4834 -0.2746
  185MOL0     C24350   9.668   0.377   8.654  0.2592  0.2661  1.0071
  185MOL0     C24351   9.706   0.245   8.706  0.6921 -0.1826  0.3941
  185MOL0     C24352   9.736   0.137   8.760  0.7190 -0.7450 -0.4853
  185MOL0     C24353   9.067   0.549   8.383  0.3499 -0.9920  0.4719
  185MOL0     C24354   8.964   0.638   8.404 -0.1140 -0.7516  0.1651
  185MOL0     H24355   8.618   0.877   8.241  0.3116  0.5128 -0.7050
  185MOL0     H24356   8.394   0.999   8.224  1.6550  0.0715  0.0693
  185MOL0     H24357   8.173   0.971   8.342  2.0839 -1.5597  2.8277
  185MOL0     H24358   8.079   1.124   8.367 -0.1023  0.8831  1.8105
  185MOL0     H24359   8.073   1.066   8.605 -1.4325 -0.0208 -0.6736
  185MOL0     H24360   8.198   0.937   8.579 -1.5943  0.0358  2.6805
  185MOL0     H24361   8.040   0.818   8.444  0.7611 -2.0738  2.6083
  185MOL0     H24362   7.910   0.947   8.477 -0.3910  0.4771  0.8749
  185MOL0     H24363   8.038   0.751   8.672 -0.6088 -2.2582 -1.4599
  185MOL0     H24364   7.932   0.889   8.713  0.0160 -0.2214 -0.4767
  185MOL0     H24365   7.753   0.803   8.575  0.7842  1.7525  0.9648
  185MOL0     H24366   7.792   0.692   8.718 -1.6163 -0.3860 -0.7920
  185MOL0     H24367   7.921   0.547   8.572 -1.9946 -0.3553  2.1057
  185MOL0     H24368   7.875   0.657   8.433  0.8997 -0.9061 -0.9878
  185MOL0     H24369   7.666   0.531   8.613 -2.2652 -1.2073 -1.1576
  185MOL0     H24370   7.651   0.602   8.452  2.2143  0.9707  0.3368
  185MOL0     H24371   7.804   0.336   8.499  2.9554  0.4671 -2.2557
  185MOL0     H24372   7.766   0.421   8.347 -1.7414  1.6669  0.2266
  185MOL0     H24373   7.506   0.421   8.248 -1.5124  2.6499  1.3009
  185MOL0     H24374   7.235   0.185   8.332  1.5292  1.6319  4.6853
  185MOL0     H24375   7.308   0.256   8.178  3.8203  0.8635  0.5096
  185MOL0     H24376   7.271   0.451   8.233  2.1718 -3.2790 -0.4370
  185MOL0     H24377   7.207   0.419   8.410 -0.3233 -3.7682  1.7530
  185MOL0     H24378   7.058   0.346   8.166 -0.0850 -0.1923 -0.4839
  185MOL0     H24379   7.023   0.331   8.349  1.0786  2.2239  3.1273
  185MOL0     H24380   7.035   0.575   8.150  0.3647 -1.3285 -0.2623
  185MOL0     H24381   7.021   0.605   8.324  3.3595 -1.5337  1.8024
  185MOL0     H24382   6.913   0.780   8.160  0.3718  0.5859 -2.3464
  185MOL0     H24383   6.734   0.937   8.114 -2.0278  0.3719 -0.4070
  185MOL0     H24384   6.137   0.796   7.941 -0.5584 -0.4011 -0.1321
  185MOL0     H24385   5.919   0.901   7.983  1.4212 -1.4660 -2.4779
  185MOL0     H24386   5.876   1.177   8.335 -1.0932  2.3848 -2.9593
  185MOL0     H24387   5.876   1.010   8.380 -0.6244  0.6732  0.6015
  185MOL0     H24388   5.670   1.155   8.448 -0.0042 -0.7941 -0.7530
  185MOL0     H24389   5.646   0.988   8.376  3.8288 -1.2396  2.6421
  185MOL0     H24390   5.492   1.160   8.311 -0.0137  3.6871  0.9352
  185MOL0     H24391   5.590   1.106   8.168  4.5808 -0.8590  0.9750
  185MOL0     H24392   5.640   1.380   8.306 -2.5232  2.0949 -0.0779
  185MOL0     H24393   5.726   1.306   8.176  1.5292 -1.9025  2.8984
  185MOL0     H24394   5.560   1.480   8.110 -1.3149 -0.6839 -3.3892
  185MOL0     H24395   5.436   1.365   8.178  1.3785 -1.4711  1.2821
  185MOL0     H24396   5.477   1.224   7.983  4.0156 -1.7908  0.7096
  185MOL0     H24397   5.639   1.289   7.967  0.9492 -0.0284 -0.1317
  185MOL0     H24398   5.547   1.514   7.877 -0.1591  0.4472 -1.2908
  185MOL0     H24399   5.506   1.379   7.780  1.8309  3.9920 -0.4353
  185MOL0     H24400   5.339   1.533   7.988  1.4891  2.8740 -1.7748
  185MOL0     H24401   5.279   1.375   7.915 -0.4736  0.6224  1.1240
  185MOL0     H24402   6.095   1.123   8.309  1.3258 -3.0627  1.1927
  185MOL0     H24403   6.307   1.006   8.270 -1.8819  1.5660  1.5773
  185MOL0     H24404   6.450   0.604   8.109  0.4179 -1.1664  2.6246
  185MOL0     H24405   6.646   0.455   8.192  3.3767 -0.5507  1.4014
  185MOL0     H24406   8.431   1.126   8.628  1.8609  2.7325 -1.2687
  185MOL0     H24407   8.643   0.994   8.659  2.6349  0.0452 -0.9973
  185MOL0     H24408   9.082   0.786   8.689  2.6534  1.5083 -3.0260
  185MOL0     H24409   9.240   0.596   8.676  3.9439  0.5214 -3.2462
  185MOL0     H24410   9.380   0.584   8.338  1.8377  0.9770  0.6257
  185MOL0     H24411   9.415   0.407   8.327 -1.6765  0.3769 -0.9637
  185MOL0     H24412   9.572   0.550   8.431 -0.5063 -1.7320 -1.6849
  185MOL0     H24413   9.458   0.571   8.566  0.7097 -2.3577  1.9420
  185MOL0     H24414   9.636   0.334   8.453  1.1712 -2.4363  1.9362
  185MOL0     H24415   9.498   0.292   8.557 -0.5734 -0.3624  0.2022
  185MOL0     H24416   9.760   0.432   8.632  1.9323 -1.8792  2.2970
  185MOL0     H24417   9.613   0.430   8.732 -3.1697  1.2749 -1.7912
  185MOL0     H24418   9.758   0.042   8.805  3.2714  0.8774  2.0210
  185MOL0     H24419   9.055   0.482   8.298 -1.3376  0.3858 -0.4458
  185MOL0     H24420   8.890   0.643   8.325 -0.0491  1.5425  0.1697
  186MOL0     O24421   9.517   4.486   0.893 -0.4398 -0.4571  0.1091
  186MOL0     C24422   9.530   4.586   0.820  0.8627 -0.5838 -0.8553
  186MOL0     O24423   9.432   4.639   0.732  0.3243  0.3193  0.4574
  186MOL0     C24424   9.315   4.572   0.719  1.1742 -0.3099 -0.2012
  186MOL0     C24425   9.237   4.611   0.604  0.0690  0.1238  0.3031
  186MOL0     C24426   9.115   4.544   0.569 -0.3064  0.3430 -0.5195
  186MOL0     C24427   9.064   4.440   0.654 -0.2861  0.5574  0.0445
  186MOL0     O24428   8.966   4.356   0.616  0.1965 -0.4195  0.2166
  186MOL0     C24429   8.858   4.419   0.563  0.6052 -0.5784 -0.4334
  186MOL0     C24430   8.742   4.314   0.536 -0.5356 -0.0302  0.0448
  186MOL0     C24431   8.675   4.277   0.667 -0.1769 -0.2209 -0.2391
  186MOL0     C24432   8.553   4.192   0.622 -0.7158  0.2178  1.0563
  186MOL0     C24433   8.457   4.169   0.731 -1.2777 -0.9346 -0.2298
  186MOL0     C24434   8.507   4.089   0.860 -0.6171  0.0566 -0.0533
  186MOL0     C24435   8.415   4.077   0.981  0.2964 -0.1790  0.3361
  186MOL0     C24436   8.296   3.988   0.960 -0.2681 -0.3069  0.5655
  186MOL0     N24437   8.215   3.968   1.080  0.6534  0.8909  0.4836
  186MOL0     C24438   8.207   3.846   1.142 -0.2392  0.6659 -0.5945
  186MOL0     C24439   8.099   3.862   1.229  0.5859 -0.5537 -0.7936
  186MOL0     C24440   8.044   3.751   1.300  0.1594  0.8768 -1.2524
  186MOL0     C24441   7.940   3.786   1.404 -0.8056  0.0768  0.0629
  186MOL0     C24442   7.805   3.829   1.345 -0.1163  0.2012  0.3116
  186MOL0     C24443   7.682   3.810   1.430 -0.9704 -0.0848 -0.4187
  186MOL0     O24444   7.569   3.849   1.359 -0.2702  0.3755 -0.2342
  186MOL0     C24445   7.517   3.756   1.264 -0.4457 -0.7367 -1.2090
  186MOL0     C24446   7.406   3.807   1.201  0.4608  0.9017  0.6355
  186MOL0     C24447   7.342   3.739   1.097 -0.1245  0.6456 -0.0035
  186MOL0     C24448   7.402   3.609   1.053  0.0199 -0.5611 -0.4772
  186MOL0     C24449   7.347   3.547   0.933 -0.6691  1.0039  0.6642
  186MOL0     O24450   7.222   3.590   0.902 -0.5062 -0.5889 -0.3778
  186MOL0     C24451   7.155   3.552   0.795  0.0821  1.6738 -0.5757
  186MOL0     C24452   7.019   3.530   0.816 -0.4753  1.2079 -0.1458
  186MOL0     C24453   6.935   3.484   0.713  1.0923 -0.7843  0.2726
  186MOL0     C24454   6.984   3.477   0.579 -0.2639 -0.5964  0.1786
  186MOL0     O24455   6.907   3.458   0.467  0.3468  0.7006 -0.1054
  186MOL0     C24456   6.766   3.441   0.491 -0.4108 -0.3776  0.7226
  186MOL0     C24457   6.692   3.574   0.512  0.7551  0.1399  0.6273
  186MOL0     C24458   6.548   3.555   0.559  0.4093  0.6611  0.6552
  186MOL0     C24459   6.459   3.453   0.486 -0.3993 -0.1112  0.1840
  186MOL0     C24460   6.311   3.483   0.520 -0.1293 -0.0665 -0.2980
  186MOL0     C24461   6.213   3.414   0.422 -0.0927  0.8959  0.3726
  186MOL0     C24462   6.072   3.456   0.453  0.2514  0.3251 -0.2457
  186MOL0     C24463   5.969   3.339   0.415 -0.4934 -0.5801 -0.0244
  186MOL0    Cl24464   5.807   3.398   0.438 -0.2626  0.5947  0.4966
  186MOL0     C24465   7.124   3.490   0.562  1.2537 -0.7553  0.5928
  186MOL0     C24466   7.212   3.522   0.664  0.3371 -0.5593 -0.1572
  186MOL0     O24467   7.412   3.462   0.867 -0.1593  0.7801 -0.5362
  186MOL0     C24468   7.515   3.564   1.119  0.3710  0.7615 -0.3359
  186MOL0     C24469   7.567   3.628   1.226 -0.0057 -0.4514 -0.4069
  186MOL0     N24470   8.041   3.990   1.210  0.0784 -0.6019  1.0161
  186MOL0     N24471   8.113   4.055   1.120  0.3647  0.0996  0.2729
  186MOL0     C24472   9.142   4.409   0.766  0.6694 -0.6640  0.6843
  186MOL0     C24473   9.254   4.477   0.809 -0.2880 -0.5644  0.0669
  186MOL0     C24474   9.650   4.654   0.829 -0.4291  0.5663  0.0266
  186MOL0     C24475   9.652   4.796   0.801  0.2356 -0.3215 -0.5431
  186MOL0     C24476   9.777   4.865   0.813  0.7181 -0.5846 -0.8659
  186MOL0     C24477   9.894   4.800   0.854  0.9333 -0.1617  0.0598
  186MOL0     O24478  10.018   4.862   0.870  0.9649  0.7051  0.2279
  186MOL0     C24479  10.021   4.998   0.827  0.1228  0.3750 -0.0032
  186MOL0     C24480  10.167   5.035   0.792 -0.4014 -0.0098 -0.6667
  186MOL0     C24481  10.247   5.047   0.921  0.3860  0.4660 -0.1485
  186MOL0     C24482  10.390   5.097   0.903  0.7866  0.0550  0.6516
  186MOL0     C24483  10.407   5.214   0.827 -0.3838  0.4030  0.1481
  186MOL0     C24484  10.424   5.314   0.768 -0.2099  0.3541  0.2572
  186MOL0     C24485   9.889   4.666   0.893 -0.4585 -0.6382  0.1806
  186MOL0     C24486   9.769   4.593   0.880  0.0005 -1.0341 -0.4957
  186MOL0     H24487   9.274   4.683   0.533  1.2711 -1.7886 -1.1224
  186MOL0     H24488   9.074   4.559   0.469  0.7944 -0.0588 -1.0366
  186MOL0     H24489   8.883   4.465   0.466 -0.4017 -0.9697 -0.8967
  186MOL0     H24490   8.820   4.500   0.626 -0.6893  1.3172 -3.4137
  186MOL0     H24491   8.782   4.222   0.493  4.5109  1.8116  0.1539
  186MOL0     H24492   8.668   4.352   0.465  0.5529 -0.9990 -1.6745
  186MOL0     H24493   8.641   4.371   0.712 -0.8883  1.8952 -4.5679
  186MOL0     H24494   8.740   4.225   0.737 -0.0980 -1.2594 -1.0586
  186MOL0     H24495   8.500   4.243   0.542  1.0221 -0.8480 -0.8621
  186MOL0     H24496   8.586   4.096   0.582  1.0970  1.2553 -0.0849
  186MOL0     H24497   8.377   4.115   0.678  0.0023 -1.7853 -1.3637
  186MOL0     H24498   8.427   4.270   0.759  2.0240  0.9381 -2.7558
  186MOL0     H24499   8.602   4.136   0.890  1.0519 -2.2806 -1.3706
  186MOL0     H24500   8.540   3.990   0.829 -1.4541 -0.8138  1.7022
  186MOL0     H24501   8.471   4.041   1.068  1.1596 -0.3986 -0.2920
  186MOL0     H24502   8.372   4.172   1.014 -0.4702 -0.3214 -0.2280
  186MOL0     H24503   8.345   3.893   0.937  2.0939  0.9120  0.3262
  186MOL0     H24504   8.233   4.020   0.877 -0.8897  1.5549  1.6945
  186MOL0     H24505   8.254   3.749   1.135  1.9642  1.2996  2.7524
  186MOL0     H24506   8.120   3.699   1.359 -0.7990  3.1247  2.2504
  186MOL0     H24507   8.005   3.688   1.219 -0.1658 -0.6368  0.0194
  186MOL0     H24508   7.973   3.860   1.477 -0.0205  1.2081 -1.3928
  186MOL0     H24509   7.917   3.695   1.461  2.9263  0.6957  2.9944
  186MOL0     H24510   7.810   3.938   1.329  2.7425  0.3528  1.6789
  186MOL0     H24511   7.778   3.781   1.250 -1.0906 -1.5170  1.4118
  186MOL0     H24512   7.692   3.881   1.513  2.4232 -2.9496  1.9117
  186MOL0     H24513   7.674   3.708   1.470  1.2102  0.4573  1.6514
  186MOL0     H24514   7.365   3.900   1.239  2.0169  1.9888 -0.1988
  186MOL0     H24515   7.260   3.787   1.044 -1.0212 -0.9261 -0.0969
  186MOL0     H24516   6.980   3.532   0.917  2.5832 -1.3232  1.2451
  186MOL0     H24517   6.837   3.450   0.743  0.5412 -0.4200 -1.0508
  186MOL0     H24518   6.746   3.378   0.578 -0.1022 -3.0971 -1.0690
  186MOL0     H24519   6.714   3.386   0.411  0.2751  0.6464 -0.4615
  186MOL0     H24520   6.691   3.623   0.415  5.9411 -0.3668  0.0307
  186MOL0     H24521   6.749   3.627   0.589 -1.4221 -1.1972  3.3635
  186MOL0     H24522   6.506   3.655   0.540  1.5095  0.6624 -2.4325
  186MOL0     H24523   6.546   3.540   0.667 -0.6651  3.5392  1.1181
  186MOL0     H24524   6.472   3.464   0.378  1.2718 -0.8506  0.2680
  186MOL0     H24525   6.490   3.352   0.516 -3.4894 -1.2760 -0.2470
  186MOL0     H24526   6.298   3.591   0.511  2.5579  0.4477  1.0463
  186MOL0     H24527   6.291   3.435   0.616  2.9708 -1.0355 -0.0431
  186MOL0     H24528   6.224   3.305   0.421 -1.2915  0.7494 -0.6468
  186MOL0     H24529   6.231   3.450   0.320  1.8530  0.8333  0.6709
  186MOL0     H24530   6.072   3.468   0.561  3.0653 -0.9310 -0.0146
  186MOL0     H24531   6.043   3.550   0.404  3.0281  0.8899 -1.0053
  186MOL0     H24532   6.000   3.253   0.475 -2.1567  0.6521  2.7938
  186MOL0     H24533   5.976   3.328   0.306 -0.3245 -1.1085  0.0403
  186MOL0     H24534   7.160   3.469   0.462  1.5262 -2.0512  0.9353
  186MOL0     H24535   7.317   3.532   0.637  0.7248 -0.8985  1.1566
  186MOL0     H24536   7.548   3.461   1.110  1.1098  0.6319  2.6856
  186MOL0     H24537   7.651   3.584   1.279 -1.2460 -0.0557  2.0226
  186MOL0     H24538   9.105   4.330   0.831  1.2278 -2.6227 -1.2336
  186MOL0     H24539   9.296   4.442   0.903  0.6988 -1.9416 -0.8467
  186MOL0     H24540   9.556   4.847   0.793  1.6130  2.4780 -0.2433
  186MOL0     H24541   9.770   4.973   0.796  0.0243 -0.5865 -0.6423
  186MOL0     H24542   9.970   5.066   0.896  0.6139  0.0438  0.6909
  186MOL0     H24543   9.974   5.001   0.728 -0.4240 -0.4993  0.2213
  186MOL0     H24544  10.214   4.964   0.723  1.7053  2.0217 -1.4707
  186MOL0     H24545  10.167   5.133   0.742 -2.3996  1.4981  1.9754
  186MOL0     H24546  10.243   4.953   0.977  0.4915  0.5018 -0.0795
  186MOL0     H24547  10.187   5.109   0.988 -0.0018 -1.8682  1.8151
  186MOL0     H24548  10.431   5.104   1.004  0.0210  2.3584  0.8728
  186MOL0     H24549  10.445   5.022   0.846  1.1158 -0.4525  1.6258
  186MOL0     H24550  10.426   5.398   0.702  1.0728  0.6947  0.7058
  186MOL0     H24551   9.975   4.625   0.945  0.0117 -1.9564 -1.5421
  186MOL0     H24552   9.780   4.487   0.899  1.5805 -0.6941  0.7383
  187MOL0     O24553   3.572   4.339   7.660 -0.3906 -0.0872 -0.2937
  187MOL0     C24554   3.554   4.316   7.542 -0.0331  0.3155  1.0334
  187MOL0     O24555   3.441   4.361   7.470 -0.1924  0.8989 -0.1622
  187MOL0     C24556   3.363   4.451   7.535 -0.2061  1.0426  0.5184
  187MOL0     C24557   3.355   4.587   7.488 -0.5805  0.0168 -0.4409
  187MOL0     C24558   3.264   4.672   7.548 -0.2081 -1.3645  0.5515
  187MOL0     C24559   3.175   4.627   7.652  0.0931 -0.1503  0.0747
  187MOL0     O24560   3.074   4.699   7.717  0.0972 -0.6961 -0.7235
  187MOL0     C24561   2.952   4.725   7.643 -0.4377  0.0847 -0.7758
  187MOL0     C24562   2.840   4.764   7.758  0.0280 -0.6189 -0.0023
  187MOL0     C24563   2.703   4.787   7.692 -0.0260  0.2064  0.7201
  187MOL0     C24564   2.580   4.794   7.775  0.5130  0.5899  0.1384
  187MOL0     C24565   2.468   4.878   7.718 -0.3752 -0.0278  0.5468
  187MOL0     C24566   2.345   4.843   7.799 -0.1359  0.8495  0.3227
  187MOL0     C24567   2.219   4.920   7.743 -0.0305  0.4134 -0.0693
  187MOL0     C24568   2.070   4.892   7.801  0.0933 -0.1807 -0.3376
  187MOL0     N24569   2.052   4.949   7.945  0.2017 -0.3572  0.3751
  187MOL0     C24570   1.984   5.071   7.968 -1.0934 -0.1621  0.1667
  187MOL0     C24571   1.977   5.084   8.094  0.7079 -0.0308 -0.3249
  187MOL0     C24572   1.898   5.201   8.159 -0.1833  0.1068  0.4968
  187MOL0     C24573   1.770   5.168   8.237  0.3683  0.7758 -0.1274
  187MOL0     C24574   1.795   5.108   8.380  0.8465  1.0420  0.4822
  187MOL0     C24575   1.653   5.100   8.448 -0.3756 -0.0432  0.5687
  187MOL0     O24576   1.545   5.086   8.358 -0.6577  0.1655  0.2866
  187MOL0     C24577   1.421   5.064   8.407  0.2116 -0.1460  0.6513
  187MOL0     C24578   1.332   4.988   8.345 -0.1064 -0.3890  0.2932
  187MOL0     C24579   1.196   4.976   8.383  0.4456  0.0045 -0.2182
  187MOL0     C24580   1.144   5.052   8.491  0.3095 -0.1574  0.2332
  187MOL0     C24581   1.012   5.038   8.552 -0.3849 -0.3479  0.3788
  187MOL0     O24582   0.934   4.942   8.498 -0.1491  0.8230  0.4413
  187MOL0     C24583   0.797   4.924   8.525 -0.2623  0.3318  0.1025
  187MOL0     C24584   0.744   4.796   8.496 -0.5189  0.3765 -0.0214
  187MOL0     C24585   0.614   4.758   8.525  1.3515 -0.1816 -0.2018
  187MOL0     C24586   0.526   4.849   8.582 -1.0583 -0.0176 -0.1474
  187MOL0     O24587   0.402   4.817   8.620 -0.0022 -0.1111  0.8618
  187MOL0     C24588   0.297   4.860   8.528 -0.0044 -0.3320  0.6343
  187MOL0     C24589   0.161   4.820   8.575  0.9814 -0.8346 -1.1617
  187MOL0     C24590   0.121   4.677   8.541 -1.3646 -0.6244  0.1194
  187MOL0     C24591  -0.019   4.634   8.583  0.3008  0.6265 -0.4717
  187MOL0     C24592  -0.038   4.483   8.611  0.0652  0.0840  0.7363
  187MOL0     C24593  -0.179   4.461   8.655  0.2004  0.2784  0.0113
  187MOL0     C24594  -0.232   4.320   8.664 -0.1996  0.0072  0.5977
  187MOL0     C24595  -0.382   4.320   8.697  0.1812 -0.4000  0.4711
  187MOL0    Cl24596  -0.469   4.383   8.565 -0.0573  0.7091  0.0014
  187MOL0     C24597   0.582   4.981   8.610  0.2788 -0.6363  0.2782
  187MOL0     C24598   0.713   5.014   8.587  0.2833 -0.8626  0.0772
  187MOL0     O24599   0.973   5.129   8.626  0.7235  0.5090 -0.3653
  187MOL0     C24600   1.244   5.131   8.556  0.3273 -0.4120  0.2190
  187MOL0     C24601   1.378   5.142   8.513 -0.0984  0.3506 -0.6368
  187MOL0     N24602   2.036   4.969   8.157 -0.6535  0.6369  0.1712
  187MOL0     N24603   2.086   4.895   8.062  0.3347  0.5780 -0.2764
  187MOL0     C24604   3.193   4.495   7.700  1.8374  0.4273  0.3936
  187MOL0     C24605   3.287   4.409   7.642  0.8815  0.3287  0.1789
  187MOL0     C24606   3.667   4.238   7.463 -0.2222  0.7616 -0.3299
  187MOL0     C24607   3.801   4.238   7.514  0.2358 -0.2690 -0.6515
  187MOL0     C24608   3.901   4.185   7.434  0.2523  0.1469 -0.0730
  187MOL0     C24609   3.871   4.113   7.311  0.4807  0.6995  0.3519
  187MOL0     O24610   3.975   4.057   7.230  0.4892  0.1190 -0.0570
  187MOL0     C24611   4.102   4.114   7.241 -0.6690 -0.4480 -0.1024
  187MOL0     C24612   4.194   4.034   7.327  0.2470 -0.0981  0.7174
  187MOL0     C24613   4.337   4.104   7.316 -0.6130  0.2281 -0.6344
  187MOL0     C24614   4.440   4.035   7.403 -0.6282  1.1457 -0.6683
  187MOL0     C24615   4.443   3.888   7.366 -0.9703  0.2344 -0.2372
  187MOL0     C24616   4.446   3.773   7.329  0.9451  0.9130 -0.8012
  187MOL0     C24617   3.738   4.105   7.265 -0.0001  0.7426  0.3184
  187MOL0     C24618   3.637   4.163   7.344 -0.2374 -0.5119  0.2273
  187MOL0     H24619   3.425   4.609   7.408  0.9201 -0.6074  0.6552
  187MOL0     H24620   3.252   4.772   7.507 -1.3065 -0.9477  1.7935
  187MOL0     H24621   2.935   4.635   7.584 -0.1505 -1.9695  2.0625
  187MOL0     H24622   2.956   4.805   7.568 -1.7948 -0.5110 -1.5202
  187MOL0     H24623   2.877   4.855   7.807  0.7485 -1.9686  2.0961
  187MOL0     H24624   2.826   4.684   7.830 -2.4264  1.0221  1.4918
  187MOL0     H24625   2.678   4.720   7.609  0.9621  2.2850 -1.4060
  187MOL0     H24626   2.704   4.883   7.639  2.3203  0.3966  1.0192
  187MOL0     H24627   2.552   4.689   7.788  1.0999  0.7985  4.5230
  187MOL0     H24628   2.607   4.827   7.876  1.6668  0.0195  0.0320
  187MOL0     H24629   2.451   4.848   7.614  0.1233 -1.8688  0.9549
  187MOL0     H24630   2.482   4.985   7.735 -2.5663  0.1153  1.7787
  187MOL0     H24631   2.368   4.870   7.903  1.2734  0.4161  0.1471
  187MOL0     H24632   2.334   4.735   7.787  4.0515  0.4606 -1.6827
  187MOL0     H24633   2.229   5.029   7.740  0.2697  0.3804 -0.3243
  187MOL0     H24634   2.216   4.887   7.639 -1.4706 -1.9475  0.6433
  187MOL0     H24635   2.033   4.789   7.796 -2.3767  0.6299  0.1732
  187MOL0     H24636   1.994   4.947   7.746  0.4810  0.5676 -0.1375
  187MOL0     H24637   1.947   5.139   7.891 -2.3113  0.4347  1.2470
  187MOL0     H24638   1.870   5.266   8.076  2.1207 -0.3132 -0.7007
  187MOL0     H24639   1.970   5.261   8.216  2.8891 -3.6709  1.0160
  187MOL0     H24640   1.707   5.107   8.171  0.0137  1.2273 -0.2105
  187MOL0     H24641   1.713   5.261   8.245  0.3066  0.9337 -2.0000
  187MOL0     H24642   1.844   5.011   8.392  1.8148  1.6457  1.6075
  187MOL0     H24643   1.862   5.181   8.426  0.4329  1.1740  0.8855
  187MOL0     H24644   1.641   5.202   8.484 -0.6951  0.4202 -0.7962
  187MOL0     H24645   1.661   5.029   8.531 -0.2739  0.2319  0.7957
  187MOL0     H24646   1.363   4.943   8.251  0.0916  0.7114 -0.1835
  187MOL0     H24647   1.132   4.911   8.324  1.9890 -1.2234 -0.6071
  187MOL0     H24648   0.806   4.715   8.459 -0.5034  0.3764  0.0039
  187MOL0     H24649   0.582   4.654   8.526  1.7798 -0.3324  1.3466
  187MOL0     H24650   0.302   4.819   8.426 -3.9966  2.1759 -0.7950
  187MOL0     H24651   0.316   4.967   8.515  1.3760 -0.7798 -1.7053
  187MOL0     H24652   0.090   4.890   8.530  1.0413 -1.5692 -2.4489
  187MOL0     H24653   0.151   4.828   8.683 -1.4832 -0.9155 -1.3335
  187MOL0     H24654   0.185   4.612   8.602 -0.5652 -0.1060 -0.1527
  187MOL0     H24655   0.137   4.674   8.433 -0.9096 -0.0251  0.1678
  187MOL0     H24656  -0.050   4.691   8.671  1.7880  1.4932 -0.4879
  187MOL0     H24657  -0.086   4.663   8.501  2.8256 -0.9244 -3.2842
  187MOL0     H24658   0.031   4.443   8.686  1.0094  0.2643 -0.0150
  187MOL0     H24659  -0.026   4.428   8.517 -1.5939  1.0816 -0.0984
  187MOL0     H24660  -0.248   4.516   8.591 -0.9442  0.1578  1.0966
  187MOL0     H24661  -0.199   4.503   8.753 -0.7873 -3.0342  1.3834
  187MOL0     H24662  -0.221   4.264   8.571  1.2031  0.7811  0.2726
  187MOL0     H24663  -0.185   4.267   8.747 -1.1934 -0.2840  0.9979
  187MOL0     H24664  -0.402   4.380   8.786 -2.1180  1.3038 -1.0868
  187MOL0     H24665  -0.415   4.216   8.712 -4.1122  1.1238  3.3953
  187MOL0     H24666   0.516   5.051   8.659 -1.4843 -2.3738  0.5125
  187MOL0     H24667   0.749   5.115   8.605 -0.6922  0.0761 -2.7711
  187MOL0     H24668   1.231   5.193   8.644  3.0569 -2.0665  1.9589
  187MOL0     H24669   1.443   5.208   8.569  1.7414 -1.3758 -0.5942
  187MOL0     H24670   3.138   4.466   7.789 -1.0072  3.5961 -0.1387
  187MOL0     H24671   3.290   4.310   7.687  1.7930  0.9064  1.4616
  187MOL0     H24672   3.834   4.288   7.605  3.0487 -2.8376 -0.1274
  187MOL0     H24673   4.002   4.193   7.471  1.5447  0.9161 -3.4794
  187MOL0     H24674   4.093   4.219   7.272  2.5139  0.1036 -0.7747
  187MOL0     H24675   4.150   4.122   7.143  0.0207 -2.7560 -0.0001
  187MOL0     H24676   4.160   4.035   7.431 -5.4662  0.7211 -0.8387
  187MOL0     H24677   4.193   3.931   7.290 -2.7864 -0.3294  1.2193
  187MOL0     H24678   4.333   4.206   7.355  3.2239  0.2136  0.1941
  187MOL0     H24679   4.365   4.113   7.211 -4.1816  0.1756 -1.7234
  187MOL0     H24680   4.532   4.087   7.373  0.3942  0.0891  0.5379
  187MOL0     H24681   4.424   4.055   7.509  0.8304 -0.2521 -0.1315
  187MOL0     H24682   4.435   3.672   7.295  1.3385 -0.5051  2.8222
  187MOL0     H24683   3.713   4.060   7.170  0.2357  1.4855 -0.1068
  187MOL0     H24684   3.534   4.154   7.313  0.4933  1.7607 -3.4318
  188MOL0     O24685   7.569   1.341   1.862  0.2157  0.3267  0.7523
  188MOL0     C24686   7.604   1.317   1.746  0.0750 -0.3829 -0.5119
  188MOL0     O24687   7.546   1.368   1.632  0.4240  0.1551 -0.1076
  188MOL0     C24688   7.445   1.454   1.639 -0.1188  0.4393  0.2975
  188MOL0     C24689   7.458   1.559   1.549  0.3971 -0.5706  0.6482
  188MOL0     C24690   7.340   1.632   1.521 -0.1656  0.1201  0.8236
  188MOL0     C24691   7.213   1.606   1.578 -0.2255 -0.1080 -0.4300
  188MOL0     O24692   7.115   1.697   1.542 -0.0966  0.2968  0.4386
  188MOL0     C24693   6.985   1.656   1.587 -0.0005 -0.5925 -0.1795
  188MOL0     C24694   6.886   1.781   1.548 -0.1446 -0.0823  0.3778
  188MOL0     C24695   6.750   1.750   1.608  1.1586 -0.1911 -0.3509
  188MOL0     C24696   6.659   1.874   1.637  0.5165  0.5391 -0.2995
  188MOL0     C24697   6.599   1.938   1.505  0.2727  0.3532  0.4174
  188MOL0     C24698   6.480   2.020   1.538  0.9455  1.0953 -0.4762
  188MOL0     C24699   6.415   2.105   1.432  0.0519  0.6538  0.1762
  188MOL0     C24700   6.484   2.244   1.415  1.0181 -0.3190  0.3005
  188MOL0     N24701   6.388   2.338   1.349  0.2655 -0.6029 -0.3712
  188MOL0     C24702   6.264   2.374   1.388  0.8993  0.1309 -0.7901
  188MOL0     C24703   6.222   2.458   1.299  0.1211  0.0091 -0.5556
  188MOL0     C24704   6.084   2.508   1.300  0.0474 -0.3692 -0.4701
  188MOL0     C24705   5.991   2.412   1.208 -0.7145 -0.3036  0.3682
  188MOL0     C24706   5.945   2.292   1.288 -0.0885 -0.2330 -0.0583
  188MOL0     C24707   5.890   2.180   1.191  0.6218 -0.8928  0.2653
  188MOL0     O24708   5.780   2.237   1.114 -0.0148  0.1463  0.3819
  188MOL0     C24709   5.659   2.262   1.175  0.9595 -1.1654  0.4180
  188MOL0     C24710   5.585   2.381   1.121  0.3305  0.6092 -0.3212
  188MOL0     C24711   5.460   2.409   1.178  0.6252 -0.4318  0.1325
  188MOL0     C24712   5.400   2.335   1.283 -0.2774  0.3540 -0.5210
  188MOL0     C24713   5.275   2.366   1.343  0.4331  0.1180  0.9473
  188MOL0     O24714   5.199   2.460   1.274  0.1008 -0.2351  0.8624
  188MOL0     C24715   5.087   2.530   1.316 -0.4231  0.1521 -0.5619
  188MOL0     C24716   4.995   2.581   1.221 -0.2872  0.3532  0.5166
  188MOL0     C24717   4.869   2.630   1.253 -0.4930  0.3747  0.0604
  188MOL0     C24718   4.836   2.651   1.386 -0.1821 -0.5213  0.4368
  188MOL0     O24719   4.711   2.705   1.424  0.1761 -0.0707 -0.1164
  188MOL0     C24720   4.607   2.723   1.321 -0.0669 -0.4066 -0.6482
  188MOL0     C24721   4.471   2.753   1.387  0.3279 -0.6241  0.6051
  188MOL0     C24722   4.355   2.790   1.283 -0.5022 -1.0470 -0.0939
  188MOL0     C24723   4.224   2.779   1.356  0.8700  0.1526 -0.4529
  188MOL0     C24724   4.103   2.805   1.267  0.6096 -0.0753 -0.8149
  188MOL0     C24725   3.978   2.828   1.346  0.7584  0.0703  0.2032
  188MOL0     C24726   3.860   2.826   1.244 -0.3114 -0.7871 -0.1643
  188MOL0     C24727   3.740   2.866   1.335  0.0725  0.8626  0.0160
  188MOL0    Cl24728   3.724   3.044   1.340  0.0317 -0.1145 -0.2925
  188MOL0     C24729   4.921   2.611   1.488 -0.4102  0.0504 -0.5787
  188MOL0     C24730   5.046   2.553   1.453 -0.3645 -0.0108 -0.8993
  188MOL0     O24731   5.227   2.301   1.432 -0.1260 -0.4115 -0.1221
  188MOL0     C24732   5.481   2.225   1.321 -0.0922 -0.4213 -0.4243
  188MOL0     C24733   5.606   2.185   1.272  0.5191 -0.3425 -0.2934
  188MOL0     N24734   6.314   2.477   1.209  0.3836  0.1136  0.0784
  188MOL0     N24735   6.418   2.413   1.239  0.4374  0.1249  0.1355
  188MOL0     C24736   7.206   1.506   1.684 -0.4955 -0.3737  0.0767
  188MOL0     C24737   7.321   1.431   1.714  0.5058 -0.5451  0.9980
  188MOL0     C24738   7.724   1.236   1.728 -0.9476  0.6241 -0.0273
  188MOL0     C24739   7.813   1.218   1.829  0.5039 -0.6446  0.0054
  188MOL0     C24740   7.929   1.149   1.806 -0.2219 -1.3982 -0.7102
  188MOL0     C24741   7.953   1.078   1.685  0.0097 -0.1412 -0.1804
  188MOL0     O24742   8.058   1.003   1.654 -0.6982  1.7234  0.3157
  188MOL0     C24743   8.153   0.972   1.752 -0.4390  0.4134 -0.3740
  188MOL0     C24744   8.208   0.842   1.722 -1.3849 -0.2638  0.5410
  188MOL0     C24745   8.334   0.806   1.802 -0.6477  0.4276 -0.2815
  188MOL0     C24746   8.350   0.656   1.839 -0.0638  0.0112  0.1472
  188MOL0     C24747   8.436   0.653   1.959 -0.1155 -0.2158 -0.8283
  188MOL0     C24748   8.510   0.656   2.061 -0.2094 -0.6775  1.1288
  188MOL0     C24749   7.851   1.090   1.586 -0.8994  1.4758  0.4791
  188MOL0     C24750   7.739   1.166   1.609  0.0550 -0.6475 -0.6598
  188MOL0     H24751   7.548   1.590   1.497  1.6628 -0.5344  2.7624
  188MOL0     H24752   7.339   1.717   1.454  0.2797  1.5973  2.6345
  188MOL0     H24753   6.972   1.639   1.695 -1.5098  2.0378  0.1328
  188MOL0     H24754   6.945   1.562   1.547  2.3319 -2.5844  1.7549
  188MOL0     H24755   6.872   1.785   1.440 -1.2354 -2.1161  0.3793
  188MOL0     H24756   6.922   1.874   1.593  0.9401 -0.3646  0.1178
  188MOL0     H24757   6.760   1.703   1.706 -3.0356 -1.0036 -0.1265
  188MOL0     H24758   6.690   1.683   1.545  0.6705  0.5643 -0.6934
  188MOL0     H24759   6.583   1.838   1.707 -1.4408  1.1076 -2.0404
  188MOL0     H24760   6.715   1.950   1.691  4.3659 -0.5483 -2.3809
  188MOL0     H24761   6.564   1.869   1.428  2.0060 -0.4255  0.2709
  188MOL0     H24762   6.677   1.996   1.455  0.2701  0.3585  0.4191
  188MOL0     H24763   6.508   2.088   1.619  1.2158 -1.1100  1.3975
  188MOL0     H24764   6.407   1.947   1.575  1.4968 -0.7833 -2.8011
  188MOL0     H24765   6.418   2.047   1.339  1.4687  1.1775 -0.1304
  188MOL0     H24766   6.309   2.115   1.459 -0.0234 -0.5317  0.3597
  188MOL0     H24767   6.575   2.226   1.358  0.8953  1.4279 -0.4789
  188MOL0     H24768   6.517   2.271   1.516  0.1204  0.6715  0.3480
  188MOL0     H24769   6.213   2.341   1.478  2.0705  2.2719  0.7679
  188MOL0     H24770   6.079   2.612   1.266 -0.8000 -0.1959  0.1332
  188MOL0     H24771   6.044   2.505   1.402  1.5475  2.4078  0.2901
  188MOL0     H24772   6.067   2.385   1.133  1.1201  1.0113  1.6626
  188MOL0     H24773   5.904   2.467   1.172  1.6765  2.2174 -2.1000
  188MOL0     H24774   6.026   2.247   1.347  3.2305  0.4946 -3.6698
  188MOL0     H24775   5.856   2.326   1.341 -0.6498  1.1156 -1.8091
  188MOL0     H24776   5.847   2.088   1.233 -0.0707 -1.2454 -1.1485
  188MOL0     H24777   5.967   2.150   1.120 -0.5934 -1.7812 -0.7316
  188MOL0     H24778   5.628   2.441   1.041 -1.3893 -1.8393 -3.3064
  188MOL0     H24779   5.406   2.492   1.133  0.2747 -1.2247 -0.9528
  188MOL0     H24780   5.012   2.565   1.115 -0.9126  3.2149 -0.0953
  188MOL0     H24781   4.818   2.654   1.161  1.1943  0.5615 -0.8700
  188MOL0     H24782   4.598   2.630   1.264  0.3204 -0.4916 -0.5718
  188MOL0     H24783   4.631   2.811   1.260  0.2962 -0.3238 -0.3912
  188MOL0     H24784   4.477   2.834   1.459 -1.5125 -0.7295  0.9341
  188MOL0     H24785   4.444   2.665   1.447  0.6663 -0.5187  0.9088
  188MOL0     H24786   4.357   2.731   1.191  2.0589 -1.5299  0.2068
  188MOL0     H24787   4.362   2.892   1.244  0.3941 -0.5098  1.3759
  188MOL0     H24788   4.219   2.683   1.408 -1.2367  0.3512 -0.1788
  188MOL0     H24789   4.226   2.861   1.428  0.1889 -2.0396  2.2265
  188MOL0     H24790   4.090   2.718   1.201 -1.4556  0.6063 -1.3931
  188MOL0     H24791   4.115   2.894   1.204 -0.5133  0.8536  0.2447
  188MOL0     H24792   3.977   2.928   1.390  2.8007 -0.7619  2.3722
  188MOL0     H24793   3.953   2.748   1.415 -0.8972 -1.8846 -2.4545
  188MOL0     H24794   3.875   2.897   1.162  0.2364 -1.8221 -0.9834
  188MOL0     H24795   3.854   2.732   1.190 -0.9695  0.5211 -2.4864
  188MOL0     H24796   3.748   2.814   1.431 -0.3088 -0.3336 -0.5769
  188MOL0     H24797   3.648   2.833   1.286  2.0976 -0.1329 -3.4786
  188MOL0     H24798   4.904   2.640   1.591  1.4571  3.3180 -1.0640
  188MOL0     H24799   5.116   2.543   1.536 -0.9436  2.0427 -0.0964
  188MOL0     H24800   5.443   2.155   1.394  0.9866 -2.1597 -1.4611
  188MOL0     H24801   5.657   2.093   1.296  4.0020  1.3769 -0.4846
  188MOL0     H24802   7.119   1.485   1.746  0.7752  1.4148  2.6647
  188MOL0     H24803   7.310   1.348   1.783  0.0727 -1.5644 -0.2568
  188MOL0     H24804   7.792   1.263   1.926 -2.1433  0.0845 -0.8127
  188MOL0     H24805   7.988   1.126   1.894  2.5011 -0.6743 -2.2384
  188MOL0     H24806   8.101   0.955   1.847 -0.7327 -0.4761 -0.6891
  188MOL0     H24807   8.217   1.060   1.757 -0.6074  0.5136  0.1203
  188MOL0     H24808   8.130   0.766   1.728  1.6749 -3.6090  1.5543
  188MOL0     H24809   8.241   0.846   1.617 -1.7189 -1.0747  0.3960
  188MOL0     H24810   8.314   0.866   1.892 -1.1315  0.5303 -0.4522
  188MOL0     H24811   8.421   0.840   1.745 -0.9636 -0.8048 -1.5552
  188MOL0     H24812   8.252   0.633   1.882  0.4130 -0.2266  1.1562
  188MOL0     H24813   8.386   0.587   1.762 -2.1401  0.6969 -1.5386
  188MOL0     H24814   8.573   0.665   2.147 -0.1230 -0.2409  1.0218
  188MOL0     H24815   7.861   1.046   1.487 -0.9485  1.7979  0.3280
  188MOL0     H24816   7.669   1.180   1.528 -0.4502  1.0162  0.0160
  189MOL0     O24817   5.834   9.995   8.506  0.2300  0.0231 -0.1081
  189MOL0     C24818   5.902   9.889   8.514  0.4674 -0.1340  0.2216
  189MOL0     O24819   5.850   9.762   8.531 -0.1101 -0.4922  0.4950
  189MOL0     C24820   5.713   9.743   8.552  0.2917  1.0493 -0.1230
  189MOL0     C24821   5.698   9.607   8.587 -0.1919  0.1487 -0.2828
  189MOL0     C24822   5.579   9.558   8.627  1.1974  0.4587  0.0731
  189MOL0     C24823   5.466   9.636   8.647 -0.0691  0.0237  0.5049
  189MOL0     O24824   5.347   9.593   8.689 -0.2922 -0.5829 -0.1362
  189MOL0     C24825   5.305   9.465   8.639  0.1235  0.3296 -0.2507
  189MOL0     C24826   5.150   9.457   8.647  0.3844  0.2654  0.0796
  189MOL0     C24827   5.092   9.347   8.555  0.1503 -0.1240 -0.5608
  189MOL0     C24828   4.940   9.339   8.581 -0.3907 -0.1483  0.5570
  189MOL0     C24829   4.879   9.218   8.510 -0.3433  0.0110 -0.9584
  189MOL0     C24830   4.731   9.204   8.530 -0.6540 -1.0463  0.3192
  189MOL0     C24831   4.682   9.161   8.669  0.1757  0.1451  0.3708
  189MOL0     C24832   4.548   9.076   8.664  0.1591  0.0909  0.2728
  189MOL0     N24833   4.560   8.958   8.580  0.3186 -0.0858  0.6602
  189MOL0     C24834   4.662   8.864   8.604 -0.1243 -0.2748  0.3405
  189MOL0     C24835   4.678   8.797   8.482 -0.3326 -0.1342  0.7160
  189MOL0     C24836   4.783   8.695   8.437  0.3421 -0.2910  0.0066
  189MOL0     C24837   4.871   8.748   8.318  0.6524  0.1755  0.2751
  189MOL0     C24838   4.966   8.860   8.375 -0.9871  0.1033  1.0336
  189MOL0     C24839   5.078   8.894   8.269 -0.0749 -1.3465  0.8103
  189MOL0     O24840   5.184   8.959   8.324 -0.3926 -0.4017 -0.2040
  189MOL0     C24841   5.287   8.992   8.239 -0.0037  1.2586  0.0438
  189MOL0     C24842   5.336   8.908   8.136  0.7218  0.1510  0.1727
  189MOL0     C24843   5.442   8.950   8.053  0.1320 -0.4987 -0.0432
  189MOL0     C24844   5.525   9.052   8.098 -0.9142 -0.8484  0.2675
  189MOL0     C24845   5.643   9.090   8.014  0.4023 -0.6393  0.3671
  189MOL0     O24846   5.711   8.995   7.939  0.6996 -0.6697  0.0101
  189MOL0     C24847   5.783   9.034   7.824  0.1854 -0.5951  0.1309
  189MOL0     C24848   5.731   9.046   7.699  0.4608  0.2543  0.0744
  189MOL0     C24849   5.813   9.072   7.588  0.1254  0.2321 -0.0063
  189MOL0     C24850   5.952   9.091   7.605 -0.1368 -0.9205 -0.1801
  189MOL0     O24851   6.038   9.088   7.497 -0.2921  0.8502 -0.6934
  189MOL0     C24852   6.174   9.130   7.525 -0.0926  0.1301 -0.8813
  189MOL0     C24853   6.248   9.129   7.396 -0.0630  0.6769 -0.0328
  189MOL0     C24854   6.388   9.166   7.416  0.3567 -0.2466 -0.1565
  189MOL0     C24855   6.473   9.042   7.454  0.1914  0.4702  0.6498
  189MOL0     C24856   6.608   9.079   7.511  0.2029 -0.0764 -0.6176
  189MOL0     C24857   6.677   8.950   7.550  0.2150 -0.4531  0.5078
  189MOL0     C24858   6.816   8.958   7.605 -0.3481 -0.2682 -0.1271
  189MOL0     C24859   6.890   8.815   7.616  1.3372 -0.4883  0.1116
  189MOL0    Cl24860   6.811   8.724   7.740  0.1897 -0.0206 -0.2231
  189MOL0     C24861   5.997   9.074   7.735 -0.1518  0.1123 -0.4473
  189MOL0     C24862   5.919   9.047   7.849  0.3228 -0.7125  0.3146
  189MOL0     O24863   5.649   9.210   7.987  0.3764  0.2036  0.0678
  189MOL0     C24864   5.483   9.130   8.209 -0.8334  0.5114  0.5988
  189MOL0     C24865   5.362   9.106   8.273  0.6827 -0.3944  1.0119
  189MOL0     N24866   4.583   8.847   8.391  0.7581 -0.7326 -0.0907
  189MOL0     N24867   4.511   8.935   8.449 -0.4138  0.4661 -0.3607
  189MOL0     C24868   5.485   9.770   8.619 -0.1981  0.0463  0.1968
  189MOL0     C24869   5.601   9.826   8.559 -1.2770 -0.3944 -0.1053
  189MOL0     C24870   6.041   9.906   8.538 -1.3615 -0.4010 -0.5101
  189MOL0     C24871   6.102  10.016   8.605 -0.6143 -0.5120  0.4593
  189MOL0     C24872   6.236  10.035   8.611 -0.2918 -0.5977  0.1328
  189MOL0     C24873   6.323   9.933   8.554 -0.7832 -0.5247 -0.5635
  189MOL0     O24874   6.462   9.948   8.552  0.7559 -0.0643 -0.1281
  189MOL0     C24875   6.536  10.007   8.659 -0.1771  0.1263  0.4664
  189MOL0     C24876   6.676   9.955   8.670  0.1097  0.2404 -0.2134
  189MOL0     C24877   6.765   9.983   8.550  0.9227 -0.1335  0.5321
  189MOL0     C24878   6.875   9.872   8.534 -0.2483 -0.8300  0.5806
  189MOL0     C24879   6.954   9.892   8.413 -0.4022  0.5186 -0.6323
  189MOL0     C24880   7.027   9.904   8.315 -0.0909  0.1309  0.4375
  189MOL0     C24881   6.260   9.830   8.483 -0.2829  0.5024  0.5606
  189MOL0     C24882   6.120   9.819   8.473  0.0510 -0.0163  0.0254
  189MOL0     H24883   5.790   9.549   8.586 -1.3809 -1.8560 -2.0864
  189MOL0     H24884   5.581   9.454   8.658  0.7219  0.5579  0.4638
  189MOL0     H24885   5.342   9.382   8.700  0.2630  1.4079  1.1813
  189MOL0     H24886   5.332   9.458   8.533 -1.9533  1.9777 -0.9678
  189MOL0     H24887   5.124   9.551   8.598  0.5062 -0.3858 -1.3144
  189MOL0     H24888   5.112   9.451   8.749  0.5940  1.2356  0.2226
  189MOL0     H24889   5.136   9.249   8.572  0.8651 -0.3757 -3.3450
  189MOL0     H24890   5.111   9.363   8.449 -1.2301 -4.1614 -1.5940
  189MOL0     H24891   4.926   9.334   8.690  2.2431  1.2141  1.0468
  189MOL0     H24892   4.891   9.432   8.552  0.4837  1.4528  3.6865
  189MOL0     H24893   4.924   9.120   8.527  0.8653  0.0532 -3.4995
  189MOL0     H24894   4.891   9.237   8.403 -0.8646  2.7125 -0.6107
  189MOL0     H24895   4.707   9.126   8.456 -0.7675 -2.2127  1.5465
  189MOL0     H24896   4.681   9.292   8.489 -0.1824 -1.0869 -0.3684
  189MOL0     H24897   4.758   9.102   8.720  1.3580  0.6266 -0.7616
  189MOL0     H24898   4.666   9.254   8.725  0.2971  0.5365 -0.2226
  189MOL0     H24899   4.478   9.147   8.618  0.5041 -0.5252 -1.2396
  189MOL0     H24900   4.514   9.051   8.765  1.2385 -1.3525  0.3100
  189MOL0     H24901   4.736   8.853   8.683  1.0066 -2.0897 -0.8732
  189MOL0     H24902   4.723   8.609   8.408 -1.0286  1.6913 -3.7236
  189MOL0     H24903   4.840   8.668   8.527  0.3332  2.2654  0.8880
  189MOL0     H24904   4.810   8.785   8.235  1.1766  1.1964  0.3261
  189MOL0     H24905   4.932   8.666   8.280  0.0688 -0.4906  0.7570
  189MOL0     H24906   4.912   8.951   8.405 -2.4341 -0.9846  1.8466
  189MOL0     H24907   5.010   8.823   8.467  0.9300 -0.2118  0.0381
  189MOL0     H24908   5.032   8.954   8.190 -0.9385 -0.9791  1.5741
  189MOL0     H24909   5.111   8.798   8.227  0.6766 -1.0665  0.7544
  189MOL0     H24910   5.287   8.814   8.111 -1.3751  0.6379  2.0892
  189MOL0     H24911   5.466   8.893   7.964  1.0942 -0.5255  0.2305
  189MOL0     H24912   5.626   9.023   7.686  0.7128 -0.2031 -1.2235
  189MOL0     H24913   5.784   9.060   7.485 -1.6886 -0.1079  0.5157
  189MOL0     H24914   6.211   9.051   7.590  1.0623  0.7148 -0.7982
  189MOL0     H24915   6.178   9.229   7.572 -2.9216 -0.2346  0.3712
  189MOL0     H24916   6.196   9.195   7.325  1.0777  0.2457 -1.3075
  189MOL0     H24917   6.231   9.026   7.362  1.2216  1.1913 -2.5316
  189MOL0     H24918   6.404   9.241   7.494 -0.0085 -1.1549  0.8196
  189MOL0     H24919   6.432   9.192   7.319  0.0538 -0.5217 -0.3681
  189MOL0     H24920   6.417   8.983   7.528  1.4289 -0.5034  0.8400
  189MOL0     H24921   6.476   8.966   7.376 -1.4397  0.4284  0.5924
  189MOL0     H24922   6.610   9.149   7.595 -2.6371 -0.3574 -0.2105
  189MOL0     H24923   6.661   9.129   7.430  1.8827 -0.6289  0.0884
  189MOL0     H24924   6.671   8.872   7.474 -2.6038 -0.2146  0.3815
  189MOL0     H24925   6.610   8.926   7.633 -1.1170 -0.7438 -0.6142
  189MOL0     H24926   6.871   9.029   7.543 -0.7702  0.2409  0.0724
  189MOL0     H24927   6.824   9.007   7.703 -1.4933  0.2138 -0.2534
  189MOL0     H24928   6.998   8.823   7.631  1.4505 -0.5530 -0.6392
  189MOL0     H24929   6.882   8.773   7.516  1.0980  0.3577 -0.2343
  189MOL0     H24930   6.102   9.090   7.759  0.2126 -0.9683 -1.2593
  189MOL0     H24931   5.956   9.036   7.950  0.3166  1.3230  0.5642
  189MOL0     H24932   5.541   9.214   8.246 -0.0523 -1.4571  4.3205
  189MOL0     H24933   5.322   9.158   8.359 -0.6401 -0.5764  0.5151
  189MOL0     H24934   5.396   9.830   8.636 -1.1260 -1.3925  0.6626
  189MOL0     H24935   5.601   9.932   8.535  0.3615 -0.5273 -0.8278
  189MOL0     H24936   6.034  10.088   8.648  1.2702  0.7169  1.5250
  189MOL0     H24937   6.272  10.119   8.670 -2.9067  0.9517 -0.2976
  189MOL0     H24938   6.493   9.957   8.747 -1.5368 -1.2592 -0.9313
  189MOL0     H24939   6.531  10.116   8.657 -0.6950  0.1157 -2.1494
  189MOL0     H24940   6.734   9.991   8.755  0.4799 -1.0794  0.1194
  189MOL0     H24941   6.666   9.846   8.671  3.2651 -0.1355 -0.1299
  189MOL0     H24942   6.819  10.078   8.555  1.8854 -0.6267 -0.2616
  189MOL0     H24943   6.699   9.989   8.464 -2.4906 -0.6623  2.9253
  189MOL0     H24944   6.944   9.880   8.618 -2.2426 -1.7947  2.4398
  189MOL0     H24945   6.824   9.775   8.534  0.7422 -1.3690  1.6120
  189MOL0     H24946   7.093   9.915   8.232  0.2451 -0.6127  0.5927
  189MOL0     H24947   6.328   9.770   8.422 -0.0912  2.7666 -1.6287
  189MOL0     H24948   6.074   9.739   8.415  0.1874  0.0995 -0.2429
  190MOL0     O24949   5.317   6.693   5.623 -0.6894  0.4120 -0.7870
  190MOL0     C24950   5.429   6.662   5.582  0.3981 -0.1159  0.3500
  190MOL0     O24951   5.478   6.694   5.460  0.1746 -0.2477  0.0339
  190MOL0     C24952   5.423   6.783   5.377  1.1281 -0.0050 -0.0137
  190MOL0     C24953   5.275   6.790   5.348  0.6149 -0.1587  0.4722
  190MOL0     C24954   5.221   6.887   5.267 -0.4911 -0.0327 -1.0588
  190MOL0     C24955   5.307   6.983   5.215  0.0222  0.5122  0.4605
  190MOL0     O24956   5.262   7.087   5.133  1.0335 -0.7053 -0.2626
  190MOL0     C24957   5.131   7.128   5.096  0.1689  0.3307  0.3215
  190MOL0     C24958   5.066   7.203   5.209  0.2293 -0.5256  0.0504
  190MOL0     C24959   5.096   7.354   5.218  0.6667  0.6139  0.6996
  190MOL0     C24960   5.238   7.364   5.251 -0.4412 -0.0291 -0.2122
  190MOL0     C24961   5.282   7.507   5.296  0.1331  0.1980  1.0881
  190MOL0     C24962   5.420   7.497   5.354  0.1884 -0.5892  0.4530
  190MOL0     C24963   5.541   7.501   5.255 -0.2878  0.0922 -0.0363
  190MOL0     C24964   5.541   7.615   5.160 -0.2168  0.3181 -0.0934
  190MOL0     N24965   5.559   7.736   5.237 -0.8041 -0.6289 -0.4313
  190MOL0     C24966   5.681   7.792   5.271  0.7955  0.2125 -0.0625
  190MOL0     C24967   5.639   7.896   5.346 -0.8773 -0.3711 -0.3289
  190MOL0     C24968   5.730   8.005   5.411 -0.3273  0.0529 -0.4573
  190MOL0     C24969   5.637   8.095   5.491  0.2440  0.3172 -0.7047
  190MOL0     C24970   5.708   8.201   5.576 -0.2417  0.4084  0.0157
  190MOL0     C24971   5.605   8.292   5.644  0.7301  0.0501 -0.4671
  190MOL0     O24972   5.522   8.353   5.546 -0.1755 -0.3014 -0.3002
  190MOL0     C24973   5.422   8.420   5.600 -0.1100 -0.5984 -0.6897
  190MOL0     C24974   5.419   8.559   5.571 -0.0195  0.0083  0.2227
  190MOL0     C24975   5.307   8.640   5.607 -0.8757 -0.1760 -0.6213
  190MOL0     C24976   5.197   8.583   5.675 -0.2368 -0.5174  1.0526
  190MOL0     C24977   5.079   8.655   5.711 -0.3558 -0.6110 -0.0804
  190MOL0     O24978   5.049   8.772   5.636  0.6063 -0.0528  0.1179
  190MOL0     C24979   4.944   8.846   5.666  0.1247  0.1827 -0.4206
  190MOL0     C24980   4.810   8.805   5.682  0.6364  0.2048 -0.1553
  190MOL0     C24981   4.712   8.905   5.708 -0.1601 -0.3729 -0.3781
  190MOL0     C24982   4.737   9.035   5.713  0.0356 -0.1493  0.3840
  190MOL0     O24983   4.639   9.130   5.739  0.1466  0.0931 -0.5218
  190MOL0     C24984   4.524   9.136   5.650 -0.1532 -0.4521 -0.2733
  190MOL0     C24985   4.526   9.277   5.601 -0.1260 -0.0609 -0.0859
  190MOL0     C24986   4.482   9.384   5.707  0.2351  0.4063  0.3332
  190MOL0     C24987   4.325   9.415   5.694  0.9598 -0.3981 -0.1679
  190MOL0     C24988   4.295   9.569   5.710  0.5062  0.4051 -1.0098
  190MOL0     C24989   4.148   9.598   5.710 -0.0975  0.4708 -0.9957
  190MOL0     C24990   4.131   9.749   5.703  0.3656  0.1761 -0.1743
  190MOL0     C24991   3.977   9.786   5.697  0.1788  0.4504  0.5693
  190MOL0    Cl24992   3.945   9.960   5.734 -0.5476 -0.4914  0.4532
  190MOL0     C24993   4.875   9.069   5.704 -0.0125 -0.6458 -0.4015
  190MOL0     C24994   4.975   8.978   5.675  0.2074 -0.8308 -0.6420
  190MOL0     O24995   5.010   8.607   5.804 -0.4861 -0.1263 -0.0693
  190MOL0     C24996   5.208   8.441   5.703  0.3099  0.2500  0.8777
  190MOL0     C24997   5.324   8.366   5.687  0.0985 -0.3225  0.3566
  190MOL0     N24998   5.506   7.911   5.347  0.0439 -0.6004  0.3951
  190MOL0     N24999   5.459   7.819   5.275  0.3283  0.6525 -0.0262
  190MOL0     C25000   5.447   6.975   5.243  0.1951  0.1986 -0.5338
  190MOL0     C25001   5.504   6.877   5.317 -0.0717 -0.1746  1.0812
  190MOL0     C25002   5.510   6.575   5.675  1.0526  0.0458 -0.0049
  190MOL0     C25003   5.453   6.547   5.797  0.5465  0.1914 -0.1813
  190MOL0     C25004   5.539   6.480   5.887  0.0203  0.0954 -0.0530
  190MOL0     C25005   5.659   6.427   5.848  0.5036  0.2698 -0.2006
  190MOL0     O25006   5.720   6.369   5.949 -0.0963 -0.3336 -0.1917
  190MOL0     C25007   5.832   6.285   5.921 -0.1510  0.2723 -0.2148
  190MOL0     C25008   5.896   6.235   6.058 -0.2097  0.2425 -0.0066
  190MOL0     C25009   5.795   6.173   6.147 -0.0742  0.4098  0.3019
  190MOL0     C25010   5.843   6.101   6.271  0.3928 -0.2822  1.2214
  190MOL0     C25011   5.725   6.039   6.347 -0.3404 -0.0033  0.8195
  190MOL0     C25012   5.655   5.991   6.425  0.5063  0.1928  1.2996
  190MOL0     C25013   5.699   6.438   5.718 -0.4637  0.2525 -0.8948
  190MOL0     C25014   5.636   6.527   5.637  0.5206  0.0185  0.3250
  190MOL0     H25015   5.205   6.715   5.384  2.9501 -2.3523  0.7006
  190MOL0     H25016   5.114   6.892   5.252 -0.1787  2.6375 -3.1180
  190MOL0     H25017   5.078   7.036   5.070  1.4180 -0.0235 -1.1400
  190MOL0     H25018   5.132   7.192   5.007  1.4641 -0.5883 -0.3563
  190MOL0     H25019   5.102   7.160   5.303 -0.3303  0.2184  0.6071
  190MOL0     H25020   4.959   7.196   5.191  0.3975 -2.8615 -0.3884
  190MOL0     H25021   5.034   7.398   5.296 -2.1457  1.0164 -1.5956
  190MOL0     H25022   5.064   7.401   5.124 -1.3139  1.9498  1.9676
  190MOL0     H25023   5.261   7.292   5.330 -0.4597  0.1911 -0.0054
  190MOL0     H25024   5.292   7.337   5.159  1.9795 -0.5166  1.2576
  190MOL0     H25025   5.210   7.524   5.377 -0.9297 -2.4522  0.8065
  190MOL0     H25026   5.288   7.592   5.226  1.3900 -1.7679 -1.3289
  190MOL0     H25027   5.430   7.401   5.406  1.1656  2.3772  6.5878
  190MOL0     H25028   5.430   7.580   5.424  2.5883  1.1232 -1.7236
  190MOL0     H25029   5.623   7.506   5.327 -1.4002  0.5121  1.2571
  190MOL0     H25030   5.545   7.407   5.200  0.3472 -2.0225  3.3616
  190MOL0     H25031   5.445   7.619   5.107  2.3106 -1.5024 -5.6197
  190MOL0     H25032   5.615   7.608   5.079 -1.1547 -0.1393 -0.9256
  190MOL0     H25033   5.781   7.757   5.249  1.0465  0.7264  0.2321
  190MOL0     H25034   5.784   8.063   5.336 -0.4384 -0.2985 -0.8179
  190MOL0     H25035   5.797   7.957   5.484 -0.1726  0.2509 -0.4699
  190MOL0     H25036   5.574   8.036   5.558 -0.4403 -1.8835 -3.0997
  190MOL0     H25037   5.562   8.142   5.427 -0.5584  0.7131  0.5075
  190MOL0     H25038   5.761   8.147   5.655  2.3926  4.0415  0.9879
  190MOL0     H25039   5.774   8.265   5.517 -1.8932  3.4151  1.2086
  190MOL0     H25040   5.651   8.365   5.712  0.4797 -1.3115  1.2171
  190MOL0     H25041   5.548   8.232   5.715  0.1188  1.2496  0.0943
  190MOL0     H25042   5.502   8.600   5.514  0.3209 -0.2760  0.5104
  190MOL0     H25043   5.291   8.744   5.580  0.1972  0.4532  1.0246
  190MOL0     H25044   4.783   8.701   5.668 -1.6737  0.8926 -1.3300
  190MOL0     H25045   4.615   8.863   5.734 -0.1315  0.7527  1.7811
  190MOL0     H25046   4.434   9.103   5.703  1.4773 -1.2492  2.1806
  190MOL0     H25047   4.525   9.076   5.559 -3.0467  1.0788 -1.4102
  190MOL0     H25048   4.468   9.273   5.509 -2.0363 -1.7200  1.1168
  190MOL0     H25049   4.628   9.293   5.564  1.0703 -4.5804  0.5975
  190MOL0     H25050   4.544   9.473   5.702  1.1400 -0.1964  0.6091
  190MOL0     H25051   4.503   9.343   5.806  0.1332 -0.5399 -0.0251
  190MOL0     H25052   4.289   9.378   5.598 -1.9827  1.9172 -0.1225
  190MOL0     H25053   4.261   9.371   5.771 -0.0614 -1.5826 -1.6326
  190MOL0     H25054   4.344   9.634   5.638  2.1080  0.0297 -0.2938
  190MOL0     H25055   4.336   9.604   5.806 -0.9614  0.9936 -0.5543
  190MOL0     H25056   4.121   9.557   5.808  2.0679 -0.7157 -0.8454
  190MOL0     H25057   4.084   9.538   5.643 -0.5759 -1.0381  0.7162
  190MOL0     H25058   4.158   9.793   5.799 -4.2723 -0.2849  1.5766
  190MOL0     H25059   4.192   9.789   5.621 -0.3963 -0.4656 -1.0815
  190MOL0     H25060   3.918   9.737   5.775  0.6621  1.5046  1.6449
  190MOL0     H25061   3.932   9.749   5.605 -3.9785  1.0751  2.1202
  190MOL0     H25062   4.904   9.173   5.706  2.3255 -1.0612 -3.4616
  190MOL0     H25063   5.079   9.006   5.661  0.0932 -0.8856 -1.6194
  190MOL0     H25064   5.129   8.378   5.743  0.6420  0.4421  1.8850
  190MOL0     H25065   5.325   8.260   5.709  1.5332 -0.3545  0.2132
  190MOL0     H25066   5.512   7.052   5.203  0.2130  1.2573  1.4177
  190MOL0     H25067   5.612   6.873   5.325  0.0297 -1.9122 -0.4153
  190MOL0     H25068   5.354   6.576   5.828 -0.1011 -1.8701 -0.1629
  190MOL0     H25069   5.500   6.458   5.986 -3.1585  0.0535 -1.2105
  190MOL0     H25070   5.902   6.343   5.861  2.0775  2.3997  3.9889
  190MOL0     H25071   5.793   6.198   5.866 -0.6939  1.2661 -1.4573
  190MOL0     H25072   5.968   6.157   6.032  1.7051  2.2290 -0.9719
  190MOL0     H25073   5.945   6.313   6.118  1.2844  0.4500 -1.4344
  190MOL0     H25074   5.737   6.107   6.082 -1.4771  0.5517  1.3608
  190MOL0     H25075   5.722   6.248   6.177  0.7593  1.3934 -0.0798
  190MOL0     H25076   5.919   6.036   6.226 -0.3434 -0.2670 -0.0990
  190MOL0     H25077   5.895   6.171   6.338  0.8742 -1.0444  1.6671
  190MOL0     H25078   5.594   5.947   6.501 -2.3684  0.6124 -0.6226
  190MOL0     H25079   5.796   6.405   5.683 -2.3115 -3.0779 -3.3911
  190MOL0     H25080   5.691   6.560   5.549  3.1309 -0.6713  1.5862
  191MOL0     O25081   3.999   1.457   1.222 -0.6206  0.4550  0.0517
  191MOL0     C25082   4.045   1.342   1.238 -0.5438  0.1066  0.0904
  191MOL0     O25083   3.989   1.219   1.194 -0.3270  1.3095 -0.2867
  191MOL0     C25084   3.875   1.218   1.129  0.5725  0.1316  0.7033
  191MOL0     C25085   3.771   1.134   1.174 -0.1083  0.0671 -0.7017
  191MOL0     C25086   3.647   1.133   1.107 -0.8010 -0.8021  0.0402
  191MOL0     C25087   3.620   1.210   0.995 -0.9976  0.7515  0.2397
  191MOL0     O25088   3.499   1.216   0.936  0.5046  0.3789 -0.0990
  191MOL0     C25089   3.385   1.154   0.999  0.0901  0.0051  0.7327
  191MOL0     C25090   3.251   1.206   0.936 -0.5139  0.1581 -0.1123
  191MOL0     C25091   3.134   1.126   0.991 -0.0099 -0.4378  0.3700
  191MOL0     C25092   3.014   1.190   0.933 -0.0833 -0.2624  0.0792
  191MOL0     C25093   2.882   1.125   0.969  0.0846  0.2946 -0.9109
  191MOL0     C25094   2.767   1.208   0.908 -0.3575 -0.3371 -0.2438
  191MOL0     C25095   2.627   1.146   0.959  0.3797  0.3428  0.2487
  191MOL0     C25096   2.591   1.022   0.877  0.4470  1.2661  0.0958
  191MOL0     N25097   2.453   0.981   0.891  0.4476  0.2423  0.5754
  191MOL0     C25098   2.412   0.928   1.010  0.3613  0.4669  1.2595
  191MOL0     C25099   2.279   0.906   0.996 -0.2395 -0.0807 -0.5028
  191MOL0     C25100   2.178   0.850   1.097  0.2038 -0.7988  0.3471
  191MOL0     C25101   2.066   0.783   1.016  0.3076  0.4154  0.4736
  191MOL0     C25102   1.954   0.722   1.097  0.0484 -0.1400  0.4800
  191MOL0     C25103   1.867   0.619   1.022 -0.1317 -0.6806 -0.4388
  191MOL0     O25104   1.782   0.574   1.124  0.0773  0.3608 -0.3436
  191MOL0     C25105   1.663   0.514   1.097  0.3897 -1.4141  0.3678
  191MOL0     C25106   1.569   0.514   1.204 -0.1939 -1.1629  0.1836
  191MOL0     C25107   1.431   0.486   1.177  0.2231  0.6838 -0.5829
  191MOL0     C25108   1.385   0.460   1.046 -0.0940  0.0434 -0.1182
  191MOL0     C25109   1.242   0.445   1.017 -0.1419 -0.1368 -0.1086
  191MOL0     O25110   1.210   0.389   0.903 -0.2955  0.3669 -0.1124
  191MOL0     C25111   1.082   0.355   0.889 -0.6773 -0.0696  0.5434
  191MOL0     C25112   0.988   0.451   0.891 -0.4930  0.8183 -0.0647
  191MOL0     C25113   0.851   0.411   0.874  0.7825 -0.0350  0.2445
  191MOL0     C25114   0.811   0.281   0.867  0.8454 -0.1433  0.2114
  191MOL0     O25115   0.680   0.240   0.867  0.2605  0.2732 -0.1002
  191MOL0     C25116   0.583   0.344   0.876  0.0547  0.9005 -0.0864
  191MOL0     C25117   0.444   0.285   0.863  1.1520  0.4398  0.0940
  191MOL0     C25118   0.413   0.163   0.949 -0.3772  0.7629 -1.0051
  191MOL0     C25119   0.265   0.136   0.952  1.0556 -0.2446 -0.1726
  191MOL0     C25120   0.216   0.010   1.031  0.4155 -0.0096  0.0559
  191MOL0     C25121   0.059  -0.013   1.056 -0.0616  0.0576  0.3791
  191MOL0     C25122   0.042  -0.131   1.158  0.5825 -0.2121  0.6314
  191MOL0     C25123  -0.110  -0.141   1.201  0.3572 -0.5247 -0.0032
  191MOL0    Cl25124  -0.190  -0.208   1.067 -0.0219 -0.6431 -0.1512
  191MOL0     C25125   0.909   0.185   0.846  0.7591  0.0337  0.5575
  191MOL0     C25126   1.047   0.218   0.859  0.1615 -0.1950  0.0564
  191MOL0     O25127   1.162   0.477   1.100 -0.3104 -0.0403 -0.5605
  191MOL0     C25128   1.490   0.442   0.949  0.4939  0.0396 -0.7229
  191MOL0     C25129   1.629   0.471   0.968  0.9491  0.0249 -0.1828
  191MOL0     N25130   2.235   0.945   0.867  0.8255 -0.1972  0.2274
  191MOL0     N25131   2.340   1.000   0.808 -0.0151 -0.3233  0.2012
  191MOL0     C25132   3.721   1.297   0.954  0.3943 -0.8596 -0.3484
  191MOL0     C25133   3.847   1.296   1.016  0.4667 -0.7273  0.9291
  191MOL0     C25134   4.176   1.321   1.311 -0.1388 -0.5623  1.3191
  191MOL0     C25135   4.247   1.196   1.308 -0.3219  0.8330  0.5299
  191MOL0     C25136   4.354   1.167   1.389 -0.5385  0.3419  0.0699
  191MOL0     C25137   4.407   1.269   1.466  0.8680 -0.3346  0.2645
  191MOL0     O25138   4.521   1.246   1.537 -0.0918  0.2989 -0.9304
  191MOL0     C25139   4.545   1.309   1.661  1.1017 -1.2791  1.0866
  191MOL0     C25140   4.593   1.219   1.770 -0.1582  0.6897 -0.8525
  191MOL0     C25141   4.484   1.120   1.816  1.0246  0.0241  0.6651
  191MOL0     C25142   4.510   1.052   1.951 -0.2659  0.0054  0.4123
  191MOL0     C25143   4.628   0.966   1.937  0.3818 -0.6935  0.3183
  191MOL0     C25144   4.726   0.905   1.912 -0.4371  0.1335  0.4157
  191MOL0     C25145   4.349   1.400   1.453 -1.1504  0.4241  0.9899
  191MOL0     C25146   4.234   1.422   1.386 -0.9514  0.3012  0.1378
  191MOL0     H25147   3.792   1.073   1.262 -0.5868 -0.4260 -0.9234
  191MOL0     H25148   3.574   1.060   1.142  2.3655 -4.8878 -1.1091
  191MOL0     H25149   3.392   1.187   1.103  1.1815  0.9534  0.3788
  191MOL0     H25150   3.387   1.046   0.985 -0.3435 -0.3939  3.2516
  191MOL0     H25151   3.259   1.180   0.830 -0.4159  0.7864 -0.2673
  191MOL0     H25152   3.246   1.315   0.945  1.1332  0.3885 -1.4222
  191MOL0     H25153   3.135   1.124   1.101  1.2804  1.8279  0.4661
  191MOL0     H25154   3.157   1.023   0.959  1.5213 -0.7246  2.2073
  191MOL0     H25155   3.013   1.294   0.967  0.9362 -0.0321 -0.5709
  191MOL0     H25156   3.023   1.196   0.824  1.1634  1.0815  0.2336
  191MOL0     H25157   2.875   1.135   1.077 -0.7582 -0.0528 -0.9259
  191MOL0     H25158   2.867   1.020   0.942 -1.5303 -0.4544  2.4266
  191MOL0     H25159   2.771   1.211   0.799 -1.1712 -1.1003 -0.3079
  191MOL0     H25160   2.769   1.311   0.945 -0.0944 -0.2620 -0.4691
  191MOL0     H25161   2.614   1.130   1.066  1.3474 -0.3768  0.2704
  191MOL0     H25162   2.544   1.214   0.938 -1.0976 -0.6018  2.6337
  191MOL0     H25163   2.647   0.931   0.899  0.3773  0.2663 -3.2678
  191MOL0     H25164   2.611   1.035   0.770 -0.1014 -1.4581 -0.4140
  191MOL0     H25165   2.456   0.906   1.107 -1.8006 -1.0512  1.9959
  191MOL0     H25166   2.133   0.923   1.164 -1.3697  2.5028 -3.8572
  191MOL0     H25167   2.228   0.776   1.160  1.1949 -0.7486 -0.3667
  191MOL0     H25168   2.107   0.708   0.948  0.8470  1.7127 -0.7044
  191MOL0     H25169   2.016   0.856   0.951  0.6149  0.9091  0.7894
  191MOL0     H25170   1.996   0.670   1.184 -1.1037  0.3837  1.3853
  191MOL0     H25171   1.882   0.803   1.114 -1.3109 -0.7205 -2.0149
  191MOL0     H25172   1.940   0.540   1.001 -0.9695 -1.5778 -0.0601
  191MOL0     H25173   1.826   0.661   0.930 -0.9792 -0.7518 -0.0977
  191MOL0     H25174   1.611   0.550   1.297  0.2575 -2.1028  0.3592
  191MOL0     H25175   1.357   0.484   1.256  0.3639 -0.8871 -0.4565
  191MOL0     H25176   1.020   0.554   0.903 -2.4130  2.1662 -4.3520
  191MOL0     H25177   0.778   0.491   0.868 -0.1079 -0.7919  0.7514
  191MOL0     H25178   0.595   0.414   0.793 -1.0488 -0.0353 -1.0898
  191MOL0     H25179   0.591   0.401   0.968  2.4966  0.0271  0.3145
  191MOL0     H25180   0.423   0.267   0.757 -2.8359  1.7348  0.4881
  191MOL0     H25181   0.375   0.362   0.897 -1.0746  0.0735 -3.0886
  191MOL0     H25182   0.462   0.157   1.047 -2.1384 -3.3946 -0.1821
  191MOL0     H25183   0.439   0.065   0.908 -0.4904  0.1782  0.2844
  191MOL0     H25184   0.222   0.211   1.019 -4.0294 -4.1768  1.5775
  191MOL0     H25185   0.229   0.147   0.849 -2.5338 -3.9674  0.4316
  191MOL0     H25186   0.270   0.028   1.124  1.1854 -0.3844 -0.3100
  191MOL0     H25187   0.257  -0.080   0.983  0.4709 -0.3752  0.7799
  191MOL0     H25188   0.011  -0.040   0.961  0.3491  1.6904 -0.3159
  191MOL0     H25189   0.014   0.081   1.088 -3.0743 -1.4235  0.8622
  191MOL0     H25190   0.065  -0.219   1.097  0.5921  1.0331 -1.2460
  191MOL0     H25191   0.103  -0.131   1.248 -2.4078  0.7987  2.8151
  191MOL0     H25192  -0.146  -0.042   1.231 -0.6909 -1.8610  3.7102
  191MOL0     H25193  -0.111  -0.214   1.282 -2.3931 -1.8506 -1.1166
  191MOL0     H25194   0.887   0.082   0.819 -1.5843  0.7922 -0.6985
  191MOL0     H25195   1.134   0.152   0.860  1.3738  1.1695  3.8953
  191MOL0     H25196   1.465   0.390   0.857  2.8891 -1.1926 -0.7848
  191MOL0     H25197   1.713   0.455   0.902  3.7020 -1.7287  3.4001
  191MOL0     H25198   3.695   1.362   0.871 -1.2937  0.8926  1.4518
  191MOL0     H25199   3.913   1.377   0.986 -3.6500  2.2613 -1.1215
  191MOL0     H25200   4.201   1.118   1.248  0.3501  0.3291  0.6583
  191MOL0     H25201   4.400   1.070   1.399  1.7958  1.4105  0.4499
  191MOL0     H25202   4.457   1.365   1.693  1.5546  1.3891 -1.8306
  191MOL0     H25203   4.615   1.392   1.647 -1.5504  0.7135 -1.8012
  191MOL0     H25204   4.677   1.156   1.741 -0.7592 -0.0837 -0.9229
  191MOL0     H25205   4.628   1.280   1.854  1.6848 -0.2793 -0.8659
  191MOL0     H25206   4.474   1.045   1.737  1.4127  0.5669  0.0932
  191MOL0     H25207   4.388   1.173   1.823  1.8417  1.4453  1.4553
  191MOL0     H25208   4.537   1.129   2.023  2.1050  0.4632 -0.8896
  191MOL0     H25209   4.423   0.989   1.972  0.2388 -1.7182 -2.1444
  191MOL0     H25210   4.806   0.843   1.877 -1.7741 -0.5775 -1.5817
  191MOL0     H25211   4.387   1.474   1.523  0.3260 -0.9835  1.7562
  191MOL0     H25212   4.196   1.524   1.391 -2.5503 -0.2956  0.6235
  192MOL0     O25213  11.239   1.665   3.880 -0.3195  0.2164 -0.0302
  192MOL0     C25214  11.246   1.782   3.846  0.0823  0.0518  0.2812
  192MOL0     O25215  11.160   1.881   3.867 -0.4293  0.1138  0.1941
  192MOL0     C25216  11.048   1.847   3.939  0.2664 -0.5159 -0.2660
  192MOL0     C25217  10.922   1.842   3.868  0.2604  0.4973  0.0189
  192MOL0     C25218  10.805   1.816   3.943 -0.0910  0.1280 -0.5363
  192MOL0     C25219  10.800   1.818   4.082  0.0689  0.4825  1.0206
  192MOL0     O25220  10.695   1.779   4.161  0.0835 -0.1854  0.9137
  192MOL0     C25221  10.567   1.778   4.094  0.2868  0.1380  0.4647
  192MOL0     C25222  10.470   1.733   4.199  0.5051 -0.3432  0.3500
  192MOL0     C25223  10.331   1.774   4.190 -0.5334 -0.1073  0.7943
  192MOL0     C25224  10.243   1.696   4.283 -0.4844  0.2805 -0.1472
  192MOL0     C25225  10.095   1.756   4.288  0.2058  0.8983  0.6444
  192MOL0     C25226  10.003   1.732   4.417 -0.6928  0.0219  0.0165
  192MOL0     C25227   9.873   1.815   4.411  0.3135  0.5503 -1.0811
  192MOL0     C25228   9.774   1.794   4.531 -0.7364 -0.1216  0.1342
  192MOL0     N25229   9.674   1.895   4.572  0.6556 -0.7541  0.2113
  192MOL0     C25230   9.630   1.914   4.697  0.9396 -0.2918 -0.3963
  192MOL0     C25231   9.541   2.017   4.692  0.1857 -0.4781  0.0017
  192MOL0     C25232   9.482   2.098   4.812  0.3560 -0.2692 -0.0048
  192MOL0     C25233   9.345   2.169   4.786  1.0061  0.4913  0.5832
  192MOL0     C25234   9.233   2.063   4.776  0.6352 -0.2058 -0.4864
  192MOL0     C25235   9.097   2.120   4.799 -0.4337  0.4176  0.4178
  192MOL0     O25236   9.004   2.032   4.741 -0.2016  0.2915 -0.1061
  192MOL0     C25237   8.864   2.046   4.745  0.4149  0.8331 -0.6752
  192MOL0     C25238   8.790   1.938   4.702  0.3265  1.1088  0.4016
  192MOL0     C25239   8.647   1.938   4.718  0.2060 -0.3228 -1.1013
  192MOL0     C25240   8.578   2.047   4.786 -0.0991  0.1131 -0.3077
  192MOL0     C25241   8.436   2.066   4.788  0.1484 -0.1323  0.1610
  192MOL0     O25242   8.388   2.189   4.820  0.0376  1.2101 -0.1640
  192MOL0     C25243   8.252   2.193   4.841  0.0850 -0.3470  0.0980
  192MOL0     C25244   8.201   2.202   4.975 -1.0693 -0.2330  1.1039
  192MOL0     C25245   8.067   2.178   5.004 -0.6511  0.7062 -0.2731
  192MOL0     C25246   7.977   2.154   4.902  0.1476 -0.9293  0.6131
  192MOL0     O25247   7.846   2.124   4.942  0.3964  0.1981 -0.4626
  192MOL0     C25248   7.740   2.078   4.855  0.0216 -0.4647  0.7492
  192MOL0     C25249   7.613   2.043   4.936 -0.4946  0.0111 -0.4722
  192MOL0     C25250   7.513   1.986   4.833  0.2670  0.7622 -0.2276
  192MOL0     C25251   7.379   1.944   4.906 -0.9972  0.2085 -1.2001
  192MOL0     C25252   7.285   1.877   4.811  0.4346  0.2095  0.0736
  192MOL0     C25253   7.154   1.847   4.885 -0.4146 -0.2207  0.5029
  192MOL0     C25254   7.062   1.782   4.784 -0.8364 -0.0591  0.3822
  192MOL0     C25255   6.919   1.777   4.835  0.5169  0.0968 -0.4254
  192MOL0    Cl25256   6.831   1.659   4.738 -0.1611 -0.4216 -0.1632
  192MOL0     C25257   8.020   2.175   4.773  0.4363  0.9123 -0.0105
  192MOL0     C25258   8.158   2.194   4.738 -0.4405  0.2486  0.1227
  192MOL0     O25259   8.368   1.969   4.748  0.0024 -0.1957  0.7463
  192MOL0     C25260   8.668   2.152   4.840  0.6776  0.4331  0.9491
  192MOL0     C25261   8.805   2.148   4.821  0.6174 -0.5690 -0.3589
  192MOL0     N25262   9.527   2.053   4.559 -0.3838  0.2494  0.0034
  192MOL0     N25263   9.613   1.981   4.489 -0.4298 -0.5280  0.3009
  192MOL0     C25264  10.921   1.811   4.148 -1.1761 -0.2816 -0.1233
  192MOL0     C25265  11.044   1.827   4.084 -0.1416  0.1037  1.2615
  192MOL0     C25266  11.373   1.816   3.777  0.0785  0.6220 -0.5161
  192MOL0     C25267  11.496   1.746   3.817  0.3719  0.2459  0.3414
  192MOL0     C25268  11.612   1.765   3.746 -0.3337 -0.8150  0.2258
  192MOL0     C25269  11.623   1.854   3.638 -0.2292  0.5302  0.1461
  192MOL0     O25270  11.740   1.871   3.582 -0.6023  0.6978  0.1086
  192MOL0     C25271  11.821   1.975   3.644  0.2418  0.5081  0.1172
  192MOL0     C25272  11.954   1.990   3.572  0.5205 -0.7834 -0.7128
  192MOL0     C25273  12.042   1.861   3.590 -0.5972 -0.6014  0.4790
  192MOL0     C25274  12.176   1.884   3.500  0.9131  0.4920 -0.3793
  192MOL0     C25275  12.283   1.796   3.555 -0.0478 -0.0917  0.8705
  192MOL0     C25276  12.381   1.744   3.608 -0.0262  0.3922  0.1035
  192MOL0     C25277  11.507   1.916   3.601  0.9485 -0.2210 -0.2069
  192MOL0     C25278  11.382   1.903   3.674 -0.1255  0.8069  0.5973
  192MOL0     H25279  10.918   1.845   3.759  2.7370  1.4250 -0.1252
  192MOL0     H25280  10.721   1.798   3.876  1.0535 -0.5831 -1.8417
  192MOL0     H25281  10.562   1.706   4.012  1.0172 -1.6640  1.9439
  192MOL0     H25282  10.540   1.877   4.057  0.0384 -1.0392 -2.9453
  192MOL0     H25283  10.505   1.786   4.288 -1.4901  1.1374  0.3443
  192MOL0     H25284  10.475   1.626   4.224 -1.4269 -0.4623  0.3818
  192MOL0     H25285  10.297   1.765   4.087  0.5937  0.2829  0.3709
  192MOL0     H25286  10.333   1.881   4.209  1.9012  0.0324  0.0722
  192MOL0     H25287  10.230   1.591   4.258 -1.1986  0.1116  0.8361
  192MOL0     H25288  10.301   1.699   4.376  0.1670 -0.6490 -0.5166
  192MOL0     H25289  10.044   1.713   4.200  1.8326 -0.9268  0.5222
  192MOL0     H25290  10.088   1.865   4.285  2.8272  1.1046 -1.7688
  192MOL0     H25291  10.075   1.763   4.493 -1.1859  1.6153 -0.1408
  192MOL0     H25292   9.973   1.628   4.433 -0.7863 -1.0183 -5.1143
  192MOL0     H25293   9.909   1.918   4.413 -0.5036  0.8384 -1.0057
  192MOL0     H25294   9.811   1.793   4.323 -0.7156 -2.0222  0.1685
  192MOL0     H25295   9.843   1.762   4.610 -0.6553 -2.3716 -0.7789
  192MOL0     H25296   9.720   1.701   4.512 -0.8220 -0.3426  1.3529
  192MOL0     H25297   9.668   1.866   4.786  0.2804  0.9280  0.5778
  192MOL0     H25298   9.558   2.173   4.839  2.0983 -1.2385 -1.9361
  192MOL0     H25299   9.465   2.034   4.898 -0.0891  0.3088  0.3436
  192MOL0     H25300   9.356   2.229   4.696  0.7983  0.2376  0.3885
  192MOL0     H25301   9.318   2.238   4.867  0.5731 -0.7026  1.4987
  192MOL0     H25302   9.229   2.014   4.679  3.1752 -1.9917  0.2092
  192MOL0     H25303   9.243   1.979   4.845 -0.3283 -1.0061 -1.2997
  192MOL0     H25304   9.090   2.219   4.755  2.8750 -0.5240 -2.6839
  192MOL0     H25305   9.081   2.112   4.907 -1.7820 -1.4623  0.1366
  192MOL0     H25306   8.838   1.860   4.645  0.7422  0.9435  0.9704
  192MOL0     H25307   8.590   1.856   4.676  1.0002 -1.7194  0.4606
  192MOL0     H25308   8.272   2.217   5.056 -0.7219 -2.4955  1.2628
  192MOL0     H25309   8.038   2.164   5.108  0.7646 -0.4700  0.0014
  192MOL0     H25310   7.775   1.990   4.800  0.1972  2.1209 -3.8112
  192MOL0     H25311   7.726   2.154   4.778  3.9573 -1.7992 -1.5770
  192MOL0     H25312   7.590   2.146   4.965  3.3766  1.1481 -0.8541
  192MOL0     H25313   7.633   1.980   5.023 -0.3424  0.5554 -0.1078
  192MOL0     H25314   7.559   1.895   4.794 -1.2971 -0.0909 -0.1523
  192MOL0     H25315   7.490   2.046   4.745 -0.4823 -1.1475 -1.3871
  192MOL0     H25316   7.409   1.873   4.983 -0.1426  1.4415 -0.3648
  192MOL0     H25317   7.325   2.021   4.961  3.2576  0.3366  3.5155
  192MOL0     H25318   7.330   1.781   4.785  0.8341  1.3068 -3.7891
  192MOL0     H25319   7.255   1.932   4.722 -2.6025  1.9634  1.9984
  192MOL0     H25320   7.114   1.938   4.930  2.6594  1.0514  0.9109
  192MOL0     H25321   7.161   1.786   4.976  0.6174 -1.0750 -0.1233
  192MOL0     H25322   7.060   1.833   4.687 -1.2061  1.3045  1.0743
  192MOL0     H25323   7.098   1.681   4.766 -0.2675  0.2700 -0.3921
  192MOL0     H25324   6.858   1.868   4.832 -0.0506 -0.2743 -0.4540
  192MOL0     H25325   6.915   1.750   4.940 -1.7948  2.5325  0.2475
  192MOL0     H25326   7.948   2.168   4.692  0.5656 -1.6709  0.0401
  192MOL0     H25327   8.191   2.216   4.636 -0.8730  2.9711  0.4760
  192MOL0     H25328   8.631   2.241   4.891 -2.3696 -0.8619  1.1976
  192MOL0     H25329   8.868   2.230   4.853  0.1261 -0.6529  0.8743
  192MOL0     H25330  10.925   1.796   4.256  0.0658 -1.3180 -0.2861
  192MOL0     H25331  11.136   1.824   4.142 -0.5971 -4.1211  2.1137
  192MOL0     H25332  11.499   1.676   3.900  2.1694  0.5892  0.6239
  192MOL0     H25333  11.701   1.714   3.784 -0.6452  0.0822  2.2739
  192MOL0     H25334  11.834   1.957   3.752  1.2992 -1.6398 -0.3061
  192MOL0     H25335  11.765   2.068   3.634 -0.6242  0.5263  3.7311
  192MOL0     H25336  11.935   2.000   3.465 -0.8359  0.8693 -0.3470
  192MOL0     H25337  11.996   2.082   3.613 -1.5481 -0.3194  0.4655
  192MOL0     H25338  11.995   1.772   3.548  0.8805 -1.9173  1.4791
  192MOL0     H25339  12.075   1.854   3.694  0.3553  2.7435  0.5451
  192MOL0     H25340  12.158   1.857   3.396 -5.0225 -2.4159  0.9609
  192MOL0     H25341  12.216   1.986   3.507 -0.9234  1.1410  2.9978
  192MOL0     H25342  12.457   1.689   3.660  1.2425  0.7367 -1.3157
  192MOL0     H25343  11.508   1.985   3.517  0.9328  1.7063  1.3069
  192MOL0     H25344  11.294   1.962   3.650  2.1233  3.6314 -1.2571
  193MOL0     O25345   4.079   1.048   7.180  0.0628  0.6393  0.0038
  193MOL0     C25346   4.169   0.980   7.125  0.2281 -0.1532  0.4889
  193MOL0     O25347   4.166   0.925   6.998 -0.0100 -0.2556 -0.2101
  193MOL0     C25348   4.046   0.929   6.922 -0.3825  0.1264  0.2708
  193MOL0     C25349   3.920   0.891   6.981  0.4618  0.1426  0.3439
  193MOL0     C25350   3.810   0.896   6.898  0.2470 -0.1939 -0.7225
  193MOL0     C25351   3.809   0.939   6.767 -0.4951  0.4894  0.7605
  193MOL0     O25352   3.698   0.948   6.681 -0.3645  1.4704 -0.3361
  193MOL0     C25353   3.563   0.922   6.731 -0.7614  0.0032  0.3947
  193MOL0     C25354   3.469   0.960   6.613 -0.6415  0.1870  0.2531
  193MOL0     C25355   3.332   1.003   6.659 -0.0579 -0.8811  0.2123
  193MOL0     C25356   3.277   1.104   6.560 -0.1396 -0.5747 -0.1224
  193MOL0     C25357   3.168   1.183   6.626 -0.1884  0.0169  1.3192
  193MOL0     C25358   3.040   1.098   6.657 -0.1049  0.0948 -0.3633
  193MOL0     C25359   2.957   1.194   6.746 -0.2762 -0.2178 -0.1012
  193MOL0     C25360   2.828   1.135   6.817  0.3451 -0.4463 -0.0332
  193MOL0     N25361   2.712   1.150   6.717  0.1112  0.1245  0.2693
  193MOL0     C25362   2.651   1.268   6.677  0.8612  0.2636  0.4217
  193MOL0     C25363   2.544   1.218   6.600 -0.2489  0.1971 -0.5117
  193MOL0     C25364   2.431   1.299   6.545 -0.7448  0.1910 -0.7305
  193MOL0     C25365   2.355   1.382   6.652 -0.4131 -0.5204 -0.1126
  193MOL0     C25366   2.295   1.300   6.771 -0.3209 -0.6527 -0.0013
  193MOL0     C25367   2.200   1.179   6.743  0.3547 -0.3994 -0.3990
  193MOL0     O25368   2.150   1.120   6.867  0.1109  0.2984  0.1848
  193MOL0     C25369   2.011   1.114   6.879  0.3138  0.4893  0.8589
  193MOL0     C25370   1.920   1.090   6.772  0.1275 -0.1028 -0.7088
  193MOL0     C25371   1.781   1.093   6.796  1.4114  0.7297 -0.7205
  193MOL0     C25372   1.729   1.128   6.923 -0.3812 -0.4658  0.2557
  193MOL0     C25373   1.578   1.135   6.950 -1.0428 -0.6575 -0.3761
  193MOL0     O25374   1.542   1.239   7.026 -0.4114  0.3582  0.2131
  193MOL0     C25375   1.416   1.259   7.060  0.2351  0.0257 -0.3682
  193MOL0     C25376   1.376   1.395   7.074 -0.3234 -0.5649 -0.1636
  193MOL0     C25377   1.249   1.437   7.119  0.3491  0.2499  0.6570
  193MOL0     C25378   1.160   1.329   7.150  0.2601  0.2252 -0.6047
  193MOL0     O25379   1.023   1.350   7.178 -0.2294  0.1127  0.6018
  193MOL0     C25380   0.976   1.489   7.191  0.5052 -0.2554 -0.3989
  193MOL0     C25381   0.832   1.467   7.223 -0.7998  0.8149  0.3704
  193MOL0     C25382   0.758   1.588   7.264  0.1795  1.0105  0.1573
  193MOL0     C25383   0.715   1.659   7.148 -0.0779 -0.7221 -0.3287
  193MOL0     C25384   0.649   1.797   7.165  0.9441 -0.1562  0.0407
  193MOL0     C25385   0.517   1.802   7.261 -0.6621 -0.3224  0.0096
  193MOL0     C25386   0.408   1.708   7.221  1.0190  0.0006 -0.2354
  193MOL0     C25387   0.274   1.770   7.239 -0.3938  0.5762  0.7604
  193MOL0    Cl25388   0.138   1.661   7.198  0.1073  0.2148  0.0054
  193MOL0     C25389   1.206   1.195   7.139 -1.3247  0.7142  0.0750
  193MOL0     C25390   1.338   1.152   7.109 -0.5095 -0.7045  0.4178
  193MOL0     O25391   1.505   1.067   6.875  0.5954 -0.7820  0.4486
  193MOL0     C25392   1.818   1.162   7.023 -0.1065  0.6282 -0.0522
  193MOL0     C25393   1.958   1.147   7.005  0.0056 -0.2564  0.4678
  193MOL0     N25394   2.555   1.083   6.588  0.7118  0.5698 -0.2892
  193MOL0     N25395   2.652   1.040   6.659 -0.3111  0.3315  0.1211
  193MOL0     C25396   3.936   0.970   6.717 -0.5475 -0.8909  0.2449
  193MOL0     C25397   4.054   0.961   6.789  0.4745 -0.0931 -1.0447
  193MOL0     C25398   4.295   0.949   7.206 -0.3305 -0.6406  0.8290
  193MOL0     C25399   4.298   0.963   7.351 -0.4501 -0.0285  0.2512
  193MOL0     C25400   4.410   0.920   7.422 -0.2860  0.3194  0.2062
  193MOL0     C25401   4.519   0.867   7.354  0.3893 -0.5558 -0.1240
  193MOL0     O25402   4.618   0.834   7.435 -0.4610  0.0759  0.1179
  193MOL0     C25403   4.751   0.780   7.383  0.2227 -0.3544 -0.4423
  193MOL0     C25404   4.811   0.692   7.487 -0.2206  0.2694 -0.2145
  193MOL0     C25405   4.932   0.626   7.422  0.4422 -0.0947 -0.2067
  193MOL0     C25406   5.056   0.715   7.421 -0.4323 -0.5721  0.1421
  193MOL0     C25407   5.101   0.730   7.562  0.8950 -0.6716 -0.3481
  193MOL0     C25408   5.121   0.727   7.683 -0.2964 -0.5280 -0.8964
  193MOL0     C25409   4.526   0.863   7.212 -0.0188  0.3060  0.4605
  193MOL0     C25410   4.414   0.903   7.134  0.3111  0.1024 -0.5895
  193MOL0     H25411   3.905   0.848   7.079  1.2983 -2.1779 -0.4741
  193MOL0     H25412   3.718   0.870   6.948  0.7501  0.0447  0.3510
  193MOL0     H25413   3.550   0.990   6.816  2.0362  0.6357  0.4089
  193MOL0     H25414   3.544   0.820   6.765  1.7011 -1.5825 -2.5429
  193MOL0     H25415   3.461   0.872   6.548 -0.5591  2.2944 -2.7896
  193MOL0     H25416   3.520   1.037   6.556 -0.2967 -0.7724 -0.7582
  193MOL0     H25417   3.331   1.042   6.761 -0.0949 -1.1058  0.2982
  193MOL0     H25418   3.259   0.922   6.669 -1.1949  0.3070  2.1130
  193MOL0     H25419   3.352   1.174   6.524 -0.5303  0.2854  0.7061
  193MOL0     H25420   3.237   1.043   6.478 -0.8485 -1.6875  0.9940
  193MOL0     H25421   3.135   1.256   6.552 -0.5950 -0.2346  1.2478
  193MOL0     H25422   3.199   1.252   6.704 -0.4937  1.6436  0.0496
  193MOL0     H25423   3.058   0.999   6.699  0.6599 -0.0234 -0.9502
  193MOL0     H25424   2.983   1.069   6.568 -1.1624 -0.3007  0.4257
  193MOL0     H25425   3.020   1.237   6.825 -0.7767 -2.3249  1.5566
  193MOL0     H25426   2.928   1.282   6.689 -0.9334  0.0971  0.6921
  193MOL0     H25427   2.801   1.204   6.897  1.0270 -1.1571  0.8384
  193MOL0     H25428   2.834   1.032   6.853 -0.7083 -0.9738 -1.2988
  193MOL0     H25429   2.678   1.369   6.706  1.4241 -0.2936  1.9625
  193MOL0     H25430   2.358   1.236   6.494 -2.9121  0.2034  2.0677
  193MOL0     H25431   2.477   1.362   6.469 -0.3377 -2.9444 -3.3203
  193MOL0     H25432   2.260   1.412   6.609 -1.8003 -1.4121  2.1528
  193MOL0     H25433   2.402   1.475   6.686 -2.4230  0.7578 -0.6615
  193MOL0     H25434   2.375   1.266   6.838 -1.1398 -2.0324  0.3117
  193MOL0     H25435   2.229   1.370   6.822 -1.3939  0.6353 -2.9216
  193MOL0     H25436   2.263   1.114   6.682  1.5691  0.1290  0.2549
  193MOL0     H25437   2.115   1.218   6.685 -0.6629 -0.2379  1.1616
  193MOL0     H25438   1.955   1.059   6.674 -1.0624 -2.3281 -0.4961
  193MOL0     H25439   1.720   1.061   6.712  0.5037  1.0366 -0.1985
  193MOL0     H25440   1.455   1.465   7.049  1.2054 -1.5245  1.7818
  193MOL0     H25441   1.228   1.544   7.123 -1.5082 -0.1307  2.3947
  193MOL0     H25442   0.979   1.548   7.099 -2.9731  0.4839 -0.1675
  193MOL0     H25443   1.026   1.541   7.274  2.5404 -2.5170 -0.1122
  193MOL0     H25444   0.828   1.403   7.311  1.7305  2.1524  1.5579
  193MOL0     H25445   0.784   1.416   7.139 -0.0585  1.5375 -0.5097
  193MOL0     H25446   0.823   1.643   7.333  2.5013 -2.6354  1.1470
  193MOL0     H25447   0.671   1.561   7.326  0.9386  1.4203  1.4369
  193MOL0     H25448   0.807   1.689   7.097 -0.4612 -0.1278 -0.6844
  193MOL0     H25449   0.648   1.606   7.080  0.1273  0.7903 -1.7826
  193MOL0     H25450   0.618   1.834   7.066 -0.4961 -2.1940 -0.3413
  193MOL0     H25451   0.728   1.862   7.204 -0.3753  1.6467 -0.1052
  193MOL0     H25452   0.476   1.903   7.273  1.7362  0.8971 -1.4165
  193MOL0     H25453   0.548   1.770   7.361 -0.2756 -0.9243 -0.2934
  193MOL0     H25454   0.404   1.668   7.119 -1.3339 -2.5078  0.7038
  193MOL0     H25455   0.409   1.619   7.285  0.8377  0.0551 -0.1558
  193MOL0     H25456   0.263   1.852   7.167  3.7101  0.2556 -0.4944
  193MOL0     H25457   0.266   1.806   7.341 -1.1137  2.7802 -0.0185
  193MOL0     H25458   1.131   1.124   7.173 -0.0642 -0.3681  0.7265
  193MOL0     H25459   1.378   1.051   7.114  1.5844 -0.0709 -1.8796
  193MOL0     H25460   1.768   1.189   7.115 -1.4255 -0.4459 -0.4187
  193MOL0     H25461   2.026   1.181   7.082 -0.6899  1.5150  0.3343
  193MOL0     H25462   3.932   0.995   6.611 -1.4360 -0.6869  0.3158
  193MOL0     H25463   4.152   0.970   6.742 -0.4422  0.1240 -2.9901
  193MOL0     H25464   4.219   1.003   7.413 -1.6686 -1.8995 -0.0176
  193MOL0     H25465   4.417   0.923   7.530 -0.9268 -1.4229  0.3288
  193MOL0     H25466   4.809   0.869   7.355  0.0375 -1.2771 -4.3655
  193MOL0     H25467   4.739   0.726   7.289 -0.1293 -0.5683 -0.2760
  193MOL0     H25468   4.835   0.744   7.581 -0.6748 -1.4170  0.8831
  193MOL0     H25469   4.742   0.610   7.508  2.2189 -2.5640 -2.4545
  193MOL0     H25470   4.920   0.598   7.317  0.5176  0.3871 -0.3436
  193MOL0     H25471   4.967   0.534   7.469 -0.0109 -1.3516 -2.2045
  193MOL0     H25472   5.133   0.671   7.357 -1.0129 -0.6818 -0.4866
  193MOL0     H25473   5.034   0.817   7.386 -3.3246 -1.1735  0.0033
  193MOL0     H25474   5.112   0.726   7.789 -2.8910 -0.7141 -1.0684
  193MOL0     H25475   4.623   0.840   7.170  0.6084  0.5633  1.7282
  193MOL0     H25476   4.417   0.898   7.026 -1.1406 -1.7287 -0.5882
  194MOL0     O25477   8.063  10.270   2.256  0.3764  0.1490  0.0939
  194MOL0     C25478   8.082  10.286   2.131  0.4634  0.3304 -0.1781
  194MOL0     O25479   7.983  10.284   2.033  0.3392  0.1085  0.3685
  194MOL0     C25480   7.857  10.243   2.065 -0.3425  0.3205 -0.6353
  194MOL0     C25481   7.832  10.121   2.139 -0.0025  0.3059 -0.1871
  194MOL0     C25482   7.701  10.085   2.154  0.3794  0.5140 -0.2271
  194MOL0     C25483   7.594  10.156   2.113  0.0936 -0.8904  0.4020
  194MOL0     O25484   7.469  10.107   2.133  0.5173 -0.5181 -0.0429
  194MOL0     C25485   7.364  10.171   2.054  0.2583 -0.2830  0.5656
  194MOL0     C25486   7.261  10.065   2.011  0.3800 -0.9708 -0.4058
  194MOL0     C25487   7.137  10.122   1.927  0.6658 -0.3712 -0.1631
  194MOL0     C25488   7.045  10.000   1.901 -0.0539  0.0759 -0.3237
  194MOL0     C25489   6.926  10.034   1.802  0.1404 -0.3498 -0.3812
  194MOL0     C25490   6.977  10.081   1.679  0.1025  0.1347  1.1728
  194MOL0     C25491   6.875  10.084   1.565  0.3462 -0.9710 -0.1474
  194MOL0     C25492   6.945  10.135   1.439  0.9075  0.0473 -0.1681
  194MOL0     N25493   6.856  10.119   1.316  0.1816  0.4211  0.1488
  194MOL0     C25494   6.727  10.060   1.302 -0.1749  0.1530 -0.0386
  194MOL0     C25495   6.685  10.086   1.175  0.4171  0.0637 -0.2773
  194MOL0     C25496   6.554  10.052   1.106 -0.0895  1.3080 -0.4420
  194MOL0     C25497   6.485   9.921   1.159  0.4128 -0.5478  0.2982
  194MOL0     C25498   6.429   9.940   1.299 -1.5535  0.2012 -0.4218
  194MOL0     C25499   6.268   9.950   1.305 -0.4795  0.8446  0.0081
  194MOL0     O25500   6.227   9.810   1.304  0.2246  0.9573 -0.0777
  194MOL0     C25501   6.098   9.781   1.345 -0.0495  0.3544  1.1336
  194MOL0     C25502   6.073   9.663   1.409 -0.1807 -0.1539  0.5411
  194MOL0     C25503   5.944   9.625   1.435  0.0366 -0.5957  0.4435
  194MOL0     C25504   5.830   9.699   1.409  0.7529  0.0113  0.5619
  194MOL0     C25505   5.694   9.638   1.442 -0.5619  0.3441 -0.5918
  194MOL0     O25506   5.687   9.498   1.467 -0.6569 -0.2468  1.1252
  194MOL0     C25507   5.566   9.445   1.517  0.4770 -0.2349 -0.0151
  194MOL0     C25508   5.576   9.341   1.608  0.1918  1.0958  0.3896
  194MOL0     C25509   5.469   9.277   1.667 -0.9600  0.0727  0.3153
  194MOL0     C25510   5.344   9.323   1.635 -0.1430  0.4354 -0.2748
  194MOL0     O25511   5.234   9.259   1.693  0.2407 -0.1099  0.3968
  194MOL0     C25512   5.107   9.311   1.708 -0.4653 -0.2133  0.3519
  194MOL0     C25513   5.013   9.211   1.749  0.4750 -0.0768  0.5846
  194MOL0     C25514   5.010   9.182   1.900 -0.3028 -0.7408 -0.4523
  194MOL0     C25515   4.905   9.076   1.925 -0.6883  0.5209  0.8169
  194MOL0     C25516   4.895   9.031   2.069 -0.2436  0.1613  0.1679
  194MOL0     C25517   4.791   8.920   2.061 -0.2463 -0.1803 -0.7504
  194MOL0     C25518   4.758   8.877   2.201 -0.3714 -0.0568  0.0709
  194MOL0     C25519   4.695   8.736   2.203 -0.5526 -0.1142 -0.3017
  194MOL0    Cl25520   4.541   8.710   2.100 -0.3646  0.0851 -0.1973
  194MOL0     C25521   5.327   9.429   1.538  0.4196 -0.5423 -0.0499
  194MOL0     C25522   5.438   9.488   1.489 -0.8179 -0.4162 -0.2469
  194MOL0     O25523   5.608   9.728   1.475  0.0188 -0.0168  0.1409
  194MOL0     C25524   5.849   9.827   1.363  0.3045 -0.5315 -0.2073
  194MOL0     C25525   5.981   9.870   1.335  0.5855 -0.0106  1.1720
  194MOL0     N25526   6.786  10.158   1.119 -0.0695 -1.3732 -0.1113
  194MOL0     N25527   6.884  10.173   1.194 -1.0629  1.3566  0.2128
  194MOL0     C25528   7.622  10.277   2.039 -0.2958  0.8381 -0.1817
  194MOL0     C25529   7.757  10.319   2.025 -0.6503  0.4859  0.1953
  194MOL0     C25530   8.220  10.295   2.088 -0.0193 -0.6825  0.3165
  194MOL0     C25531   8.263  10.274   1.952 -0.5348  0.3291 -0.6840
  194MOL0     C25532   8.401  10.281   1.921  0.1715 -0.1376  0.2049
  194MOL0     C25533   8.493  10.303   2.024 -0.7139 -0.1793  0.2639
  194MOL0     O25534   8.627  10.318   2.002  0.1496  0.1764  0.6718
  194MOL0     C25535   8.682  10.273   1.878 -0.1698  0.1087  0.6587
  194MOL0     C25536   8.830  10.298   1.896 -0.2923  0.3878  0.1750
  194MOL0     C25537   8.907  10.304   1.764  0.0425 -0.5434 -0.4351
  194MOL0     C25538   8.900  10.181   1.673 -0.5680  0.2968  0.9807
  194MOL0     C25539   8.999  10.077   1.713 -0.9425 -0.3261 -0.1729
  194MOL0     C25540   9.082   9.995   1.734  0.3170  0.4264  0.2484
  194MOL0     C25541   8.453  10.310   2.153  0.1899 -0.8437 -0.1986
  194MOL0     C25542   8.322  10.310   2.186  0.1258 -0.2731  0.0461
  194MOL0     H25543   7.909  10.058   2.182 -0.0306  0.1931 -0.3041
  194MOL0     H25544   7.680   9.996   2.213 -0.9201  0.4424 -0.7583
  194MOL0     H25545   7.401  10.216   1.962  2.3039  1.0222  1.9406
  194MOL0     H25546   7.319  10.243   2.123  0.6299  1.3637 -0.8448
  194MOL0     H25547   7.224  10.026   2.106  0.7788  3.5599  1.9325
  194MOL0     H25548   7.310   9.986   1.955  1.0872  1.6338 -3.8252
  194MOL0     H25549   7.175  10.163   1.833  1.0878 -0.2433  0.0573
  194MOL0     H25550   7.096  10.204   1.988  2.0927 -0.2117  0.6274
  194MOL0     H25551   7.099   9.916   1.857 -0.4553  0.3100 -1.2778
  194MOL0     H25552   7.000   9.958   1.992  1.2263 -0.5813  0.0214
  194MOL0     H25553   6.858  10.110   1.841 -1.6148 -0.7653 -2.3921
  194MOL0     H25554   6.881   9.936   1.785  0.1959 -0.7325  1.4598
  194MOL0     H25555   7.051  10.005   1.652  1.4247  0.8449  2.6851
  194MOL0     H25556   7.028  10.177   1.687  1.3571 -0.5479  1.5450
  194MOL0     H25557   6.840   9.981   1.556 -2.3472 -0.2757  1.2992
  194MOL0     H25558   6.793  10.155   1.580  1.7528  0.4521  1.1329
  194MOL0     H25559   7.039  10.079   1.425  0.1592 -1.4177  0.4406
  194MOL0     H25560   6.959  10.241   1.461 -2.0417  0.3192  0.7761
  194MOL0     H25561   6.672   9.997   1.371 -2.2879 -2.8150 -3.9780
  194MOL0     H25562   6.570  10.030   1.000 -1.6510  0.9926 -0.6423
  194MOL0     H25563   6.479  10.132   1.115 -1.6129 -0.1996  1.0153
  194MOL0     H25564   6.556   9.838   1.158 -3.6606 -4.4158 -1.1803
  194MOL0     H25565   6.410   9.888   1.086  0.7847  0.5007 -0.5990
  194MOL0     H25566   6.471   9.859   1.359 -0.9051  0.5392 -0.4108
  194MOL0     H25567   6.474  10.025   1.350  1.8285 -1.9722  0.5899
  194MOL0     H25568   6.224   9.995   1.215 -2.2464 -0.3446  0.2137
  194MOL0     H25569   6.237  10.009   1.392 -0.7919  2.1796 -0.9707
  194MOL0     H25570   6.157   9.595   1.419 -0.2683 -1.4532 -4.7403
  194MOL0     H25571   5.939   9.521   1.466  1.1265 -0.7734  0.0492
  194MOL0     H25572   5.670   9.293   1.634  0.2248  1.2787  0.6068
  194MOL0     H25573   5.480   9.189   1.729 -0.4181 -0.3187 -0.3320
  194MOL0     H25574   5.084   9.349   1.608 -0.9119 -0.5283  0.3300
  194MOL0     H25575   5.119   9.395   1.777  2.1482 -1.1308  1.1207
  194MOL0     H25576   5.032   9.119   1.693 -1.5006 -1.2087  1.6690
  194MOL0     H25577   4.913   9.247   1.723  0.2610 -1.5585 -0.7951
  194MOL0     H25578   4.983   9.266   1.964 -1.5787 -2.0871  0.8685
  194MOL0     H25579   5.109   9.141   1.921 -1.1997 -2.0194  1.6571
  194MOL0     H25580   4.807   9.114   1.895 -1.2074 -1.7481 -0.5448
  194MOL0     H25581   4.930   8.994   1.857  2.4819  0.0993  2.2874
  194MOL0     H25582   4.867   9.112   2.136  1.5224  0.5706  0.4739
  194MOL0     H25583   4.991   8.994   2.107 -0.3482  1.2779  1.5854
  194MOL0     H25584   4.841   8.835   2.013 -0.2950 -0.2290 -0.7164
  194MOL0     H25585   4.697   8.938   2.007  0.0370 -0.4166 -1.3405
  194MOL0     H25586   4.848   8.871   2.263 -2.1600  0.0461  2.8283
  194MOL0     H25587   4.693   8.956   2.240 -0.3044 -0.3674  0.8238
  194MOL0     H25588   4.669   8.700   2.303 -2.6435  0.0715 -0.7419
  194MOL0     H25589   4.773   8.667   2.171 -1.2132 -0.0198 -2.2132
  194MOL0     H25590   5.231   9.472   1.512 -0.1022 -1.1421  0.8033
  194MOL0     H25591   5.415   9.572   1.425 -2.6310  0.3996  1.3427
  194MOL0     H25592   5.762   9.892   1.359  1.9052  2.3226  4.0028
  194MOL0     H25593   6.006   9.965   1.289  2.2924 -1.5132 -1.1955
  194MOL0     H25594   7.554  10.337   1.979  1.2701  0.2122 -2.6975
  194MOL0     H25595   7.788  10.403   1.964 -0.3689 -0.0023 -0.3477
  194MOL0     H25596   8.196  10.261   1.868 -0.4994  1.4469 -0.8977
  194MOL0     H25597   8.428  10.262   1.818 -0.7935 -2.2983  0.2873
  194MOL0     H25598   8.636  10.320   1.791  1.3567  0.7715  0.1785
  194MOL0     H25599   8.664  10.166   1.874 -2.5764  0.4799 -2.4195
  194MOL0     H25600   8.845  10.391   1.951 -2.0720 -0.7355  2.7683
  194MOL0     H25601   8.873  10.212   1.948 -1.0513  0.8023  1.5327
  194MOL0     H25602   9.010  10.337   1.777  0.3510 -2.3028  2.3582
  194MOL0     H25603   8.853  10.383   1.710  0.5572  0.7989  0.9321
  194MOL0     H25604   8.802  10.132   1.677 -1.0659  0.9638 -1.5087
  194MOL0     H25605   8.913  10.215   1.570 -1.4347  2.5028  1.5634
  194MOL0     H25606   9.167   9.936   1.762  0.6703 -0.7951 -2.9375
  194MOL0     H25607   8.526  10.331   2.231 -0.6410  0.3483  0.2770
  194MOL0     H25608   8.293  10.336   2.288  1.2040  1.1582  0.0285
  195MOL0     O25609   3.612   6.542   9.470 -0.0925 -0.5659  0.1326
  195MOL0     C25610   3.606   6.657   9.507  0.2734  0.6947  0.3882
  195MOL0     O25611   3.481   6.720   9.535 -0.7956 -0.3923  0.2488
  195MOL0     C25612   3.353   6.664   9.526 -1.1557  0.7376  0.3758
  195MOL0     C25613   3.245   6.752   9.512 -0.5747  0.4995  1.0294
  195MOL0     C25614   3.114   6.703   9.519 -0.6865 -0.5845 -0.1818
  195MOL0     C25615   3.099   6.564   9.524 -0.4556 -0.5799 -0.2117
  195MOL0     O25616   2.965   6.528   9.524  0.5137  0.1186  0.4154
  195MOL0     C25617   2.925   6.410   9.597 -0.7018  0.4990  0.4834
  195MOL0     C25618   2.775   6.414   9.609 -0.3271 -0.5813 -0.1203
  195MOL0     C25619   2.694   6.290   9.641 -0.3855  0.3167  0.7126
  195MOL0     C25620   2.697   6.244   9.789 -0.2375 -0.1806 -0.5786
  195MOL0     C25621   2.611   6.124   9.809 -0.0305  0.5493 -0.8484
  195MOL0     C25622   2.454   6.138   9.790  0.1260 -0.3811  0.6388
  195MOL0     C25623   2.396   5.997   9.819 -0.2930  0.2096  0.7234
  195MOL0     C25624   2.246   5.976   9.807  0.6850  0.2523 -0.0891
  195MOL0     N25625   2.201   5.955   9.664  0.1725  0.7876  0.2295
  195MOL0     C25626   2.177   5.834   9.603  0.1098  0.8227  0.6876
  195MOL0     C25627   2.124   5.860   9.484  0.1886 -0.1320  0.0931
  195MOL0     C25628   2.094   5.762   9.369  0.9538 -0.8232  0.6827
  195MOL0     C25629   1.947   5.717   9.379 -0.2025  1.0086  0.1659
  195MOL0     C25630   1.913   5.634   9.247  0.3034 -0.5430 -0.4802
  195MOL0     C25631   1.767   5.628   9.216 -0.0642  0.1451  0.7172
  195MOL0     O25632   1.697   5.557   9.307 -0.0630 -0.0898 -0.2844
  195MOL0     C25633   1.559   5.552   9.298 -0.5991 -0.2934 -1.2556
  195MOL0     C25634   1.488   5.490   9.404 -0.0436 -1.0513  0.5435
  195MOL0     C25635   1.349   5.469   9.399 -0.6969 -0.5894  0.3380
  195MOL0     C25636   1.279   5.538   9.295 -0.1701 -0.6239 -0.2183
  195MOL0     C25637   1.129   5.513   9.277 -0.2914  0.9203  0.1861
  195MOL0     O25638   1.069   5.433   9.369  0.0135  1.0626  0.1662
  195MOL0     C25639   0.935   5.397   9.351 -0.6678 -0.8188 -0.5351
  195MOL0     C25640   0.885   5.280   9.401  0.2001  0.0549  0.0789
  195MOL0     C25641   0.748   5.254   9.418 -0.6631  0.0709  0.5177
  195MOL0     C25642   0.655   5.346   9.364 -0.4504 -0.2553  0.5471
  195MOL0     O25643   0.523   5.329   9.389  0.0272  0.0752 -1.3815
  195MOL0     C25644   0.447   5.297   9.273  0.4342  0.1605 -0.0661
  195MOL0     C25645   0.296   5.275   9.308 -0.2454  1.4126 -0.1823
  195MOL0     C25646   0.270   5.148   9.384  0.1693  0.0330 -0.2085
  195MOL0     C25647   0.119   5.134   9.423 -0.1771 -0.3657 -0.9690
  195MOL0     C25648   0.068   4.988   9.423 -0.0786 -0.9229 -0.4129
  195MOL0     C25649  -0.060   4.963   9.510  0.0441  0.3631  0.2501
  195MOL0     C25650  -0.186   5.018   9.446 -0.4366 -0.4684 -1.9221
  195MOL0     C25651  -0.274   4.907   9.385 -0.3947 -0.6421 -0.1736
  195MOL0    Cl25652  -0.410   4.991   9.317 -0.1375 -0.0948 -0.2398
  195MOL0     C25653   0.701   5.459   9.297  1.0480 -0.2339 -0.5189
  195MOL0     C25654   0.840   5.488   9.290 -0.5738 -0.3107  0.0016
  195MOL0     O25655   1.085   5.541   9.161  0.0214  0.1231  0.7777
  195MOL0     C25656   1.349   5.607   9.192  0.6987 -0.2936  0.1942
  195MOL0     C25657   1.491   5.610   9.187 -0.1025  0.4450 -0.8449
  195MOL0     N25658   2.107   5.995   9.468 -0.7067 -0.0536  0.1981
  195MOL0     N25659   2.153   6.057   9.578  0.7648  0.1188  0.0061
  195MOL0     C25660   3.201   6.483   9.545 -0.3806  0.1795  0.1165
  195MOL0     C25661   3.333   6.531   9.541 -0.2384  0.3574  0.3903
  195MOL0     C25662   3.726   6.726   9.546  0.7230  0.0943 -0.5698
  195MOL0     C25663   3.718   6.860   9.587 -0.1958  0.2218  0.6901
  195MOL0     C25664   3.835   6.926   9.623  0.0108  0.0244  0.9030
  195MOL0     C25665   3.962   6.868   9.612  0.3750  0.2116 -0.6614
  195MOL0     O25666   4.078   6.933   9.648 -0.3002  0.4648 -0.2768
  195MOL0     C25667   4.096   7.073   9.662  0.4817 -0.1228  0.4995
  195MOL0     C25668   4.178   7.129   9.543  0.2252  0.7974  0.1066
  195MOL0     C25669   4.246   7.264   9.575  0.3832  0.6461  0.6187
  195MOL0     C25670   4.161   7.382   9.581  0.7784  0.6761  0.2461
  195MOL0     C25671   4.088   7.388   9.716  0.6171 -0.0569  0.5895
  195MOL0     C25672   4.018   7.406   9.815  0.1761 -0.7192 -0.0790
  195MOL0     C25673   3.968   6.730   9.576 -0.7448 -0.0618  0.5544
  195MOL0     C25674   3.850   6.657   9.546 -0.6527 -1.1682  0.3212
  195MOL0     H25675   3.274   6.854   9.489  0.7772 -0.0336  0.2138
  195MOL0     H25676   3.030   6.769   9.505 -0.0559  0.0914 -0.9003
  195MOL0     H25677   2.976   6.415   9.694  2.3163  3.0595 -1.0826
  195MOL0     H25678   2.946   6.314   9.551 -0.3992  1.0255 -0.4969
  195MOL0     H25679   2.739   6.442   9.509 -0.5822  0.8266  0.3479
  195MOL0     H25680   2.752   6.496   9.677 -0.4692 -0.3643 -0.4284
  195MOL0     H25681   2.741   6.209   9.584 -0.0922  0.9069  0.1086
  195MOL0     H25682   2.588   6.302   9.617 -0.7025 -2.0876  0.6247
  195MOL0     H25683   2.798   6.236   9.832 -0.7310  0.6714  0.8388
  195MOL0     H25684   2.652   6.325   9.847  1.2218  0.5870 -0.4560
  195MOL0     H25685   2.620   6.103   9.916 -0.8845  1.0944 -0.6589
  195MOL0     H25686   2.636   6.037   9.748 -2.3909 -1.8061  1.3018
  195MOL0     H25687   2.439   6.173   9.687  1.5023  1.6134  1.0721
  195MOL0     H25688   2.403   6.209   9.856 -2.6253  0.3831 -2.0646
  195MOL0     H25689   2.450   5.927   9.755  3.4001  2.0304  1.5977
  195MOL0     H25690   2.420   5.989   9.925  1.3082  4.1094  0.8311
  195MOL0     H25691   2.200   6.068   9.842  0.3266  0.2192 -0.4681
  195MOL0     H25692   2.220   5.888   9.867  0.6448  0.5717  0.3570
  195MOL0     H25693   2.204   5.735   9.637  5.3869  1.5155 -0.6703
  195MOL0     H25694   2.161   5.676   9.363 -1.2187 -2.5147 -1.4563
  195MOL0     H25695   2.101   5.819   9.276 -2.8836 -0.1948  0.6017
  195MOL0     H25696   1.881   5.804   9.379 -2.3380 -0.5275  1.6317
  195MOL0     H25697   1.926   5.655   9.467 -2.2514  0.2875 -0.7906
  195MOL0     H25698   1.960   5.690   9.165  1.9994  0.1386  0.8702
  195MOL0     H25699   1.954   5.533   9.250  3.1033  0.4934 -0.6079
  195MOL0     H25700   1.767   5.583   9.117  1.2177  0.3829  0.5862
  195MOL0     H25701   1.733   5.732   9.212  2.3830  0.9541 -0.8463
  195MOL0     H25702   1.533   5.443   9.492  0.4065 -3.6217 -0.9472
  195MOL0     H25703   1.302   5.408   9.476 -0.3090  0.5399  1.4969
  195MOL0     H25704   0.960   5.221   9.452 -0.2846 -1.8153 -1.2740
  195MOL0     H25705   0.724   5.158   9.463 -1.1399 -0.5675 -1.0403
  195MOL0     H25706   0.499   5.207   9.239  0.0216 -0.8297  1.7857
  195MOL0     H25707   0.453   5.364   9.186  1.5057 -1.7027 -1.4970
  195MOL0     H25708   0.243   5.261   9.213 -1.7613 -0.7615  0.9036
  195MOL0     H25709   0.257   5.359   9.367 -1.9553  0.7159 -0.2764
  195MOL0     H25710   0.327   5.144   9.477  4.4224 -3.1903 -2.5807
  195MOL0     H25711   0.318   5.064   9.332  0.6556  1.4319 -2.1521
  195MOL0     H25712   0.103   5.179   9.521  2.0683 -1.5315  0.0224
  195MOL0     H25713   0.065   5.181   9.341  1.7152  2.2730 -0.8306
  195MOL0     H25714   0.150   4.927   9.461  1.0575  2.5102  3.4186
  195MOL0     H25715   0.048   4.956   9.320 -2.1730  0.9252 -0.6607
  195MOL0     H25716  -0.046   5.001   9.612 -3.7562  1.0942  0.6435
  195MOL0     H25717  -0.067   4.854   9.514  0.2787  0.2949 -0.8805
  195MOL0     H25718  -0.232   5.069   9.531  0.9321 -0.7468 -0.9905
  195MOL0     H25719  -0.148   5.084   9.368  0.9300  0.4634 -0.5225
  195MOL0     H25720  -0.321   4.834   9.450  0.5712 -0.2979  0.9597
  195MOL0     H25721  -0.224   4.856   9.302 -1.1209  1.7577 -2.2197
  195MOL0     H25722   0.637   5.539   9.263  0.9710 -1.5400 -3.7493
  195MOL0     H25723   0.869   5.584   9.250 -0.8519 -0.7846 -1.3889
  195MOL0     H25724   1.291   5.647   9.110 -0.5638  2.2813  2.1686
  195MOL0     H25725   1.547   5.657   9.108  0.6757 -1.0371 -1.2009
  195MOL0     H25726   3.195   6.379   9.575 -1.1566  0.6091  1.5430
  195MOL0     H25727   3.410   6.455   9.549 -0.8142 -0.3436 -0.5079
  195MOL0     H25728   3.616   6.898   9.591  0.4396  2.3550 -1.3536
  195MOL0     H25729   3.831   7.027   9.662 -2.5442 -0.3594  1.8050
  195MOL0     H25730   4.151   7.082   9.756  0.5100 -0.0484  0.4748
  195MOL0     H25731   4.002   7.129   9.662 -0.3224 -1.4259 -0.0195
  195MOL0     H25732   4.258   7.055   9.532 -0.7300 -0.2473 -0.0685
  195MOL0     H25733   4.118   7.114   9.452  0.7601 -3.1865  0.2121
  195MOL0     H25734   4.312   7.273   9.488  0.3361 -2.1209  0.2255
  195MOL0     H25735   4.306   7.262   9.667  0.3715 -1.1143  0.6209
  195MOL0     H25736   4.230   7.467   9.578 -0.3122  1.6325  1.0537
  195MOL0     H25737   4.098   7.382   9.492  1.6114 -1.0799 -0.3855
  195MOL0     H25738   3.957   7.431   9.899  2.9527  2.2941  1.2697
  195MOL0     H25739   4.062   6.677   9.585  1.2787  3.4640  2.4111
  195MOL0     H25740   3.844   6.556   9.507  0.0294 -0.3112 -2.2117
  196MOL0     O25741   4.897   2.587   5.722 -0.1835 -0.2606 -0.0096
  196MOL0     C25742   4.979   2.586   5.818 -0.6345  0.4724 -0.4155
  196MOL0     O25743   4.949   2.593   5.948  0.4739  0.4938 -0.3656
  196MOL0     C25744   4.823   2.622   6.000  0.0982 -0.0676 -0.7236
  196MOL0     C25745   4.834   2.722   6.098  0.3821 -0.0531  0.2455
  196MOL0     C25746   4.729   2.769   6.172  0.1768  0.0305 -0.0871
  196MOL0     C25747   4.603   2.717   6.138  1.2622 -1.1332 -0.2857
  196MOL0     O25748   4.478   2.750   6.206 -0.8732 -0.6670 -0.4122
  196MOL0     C25749   4.473   2.845   6.310  0.2967  0.7568 -0.6050
  196MOL0     C25750   4.479   2.767   6.443  0.6870 -0.2726 -0.8173
  196MOL0     C25751   4.516   2.879   6.558  0.1378  0.4281  0.5269
  196MOL0     C25752   4.405   2.989   6.577  0.0799 -0.3758  0.5818
  196MOL0     C25753   4.271   2.948   6.636  0.6282  0.0251 -0.0411
  196MOL0     C25754   4.292   2.883   6.776  0.5041  0.2867  0.4851
  196MOL0     C25755   4.155   2.875   6.857 -0.0103  0.9875  0.8428
  196MOL0     C25756   4.026   2.857   6.760  0.1661  0.1530 -0.1177
  196MOL0     N25757   3.910   2.813   6.848  0.2721  0.6037  0.2254
  196MOL0     C25758   3.901   2.693   6.920 -0.0634 -0.3362 -0.7396
  196MOL0     C25759   3.783   2.695   6.983 -0.0653  0.0864 -0.2963
  196MOL0     C25760   3.725   2.573   7.069  0.3796  0.3800  0.0851
  196MOL0     C25761   3.628   2.624   7.181  0.1402 -0.0393 -1.0100
  196MOL0     C25762   3.485   2.627   7.134 -0.1450 -0.0805 -0.1700
  196MOL0     C25763   3.391   2.662   7.249 -0.2934  0.3582 -0.0346
  196MOL0     O25764   3.255   2.659   7.191  0.4933  0.0285 -0.6528
  196MOL0     C25765   3.146   2.673   7.274  1.0245 -0.2721  0.2845
  196MOL0     C25766   3.148   2.662   7.416  0.2974  0.2040  0.9734
  196MOL0     C25767   3.020   2.675   7.485 -1.0631 -0.6369  0.4736
  196MOL0     C25768   2.897   2.694   7.421  0.3063 -0.2050  0.2115
  196MOL0     C25769   2.773   2.700   7.498 -0.4838  0.9328 -0.1096
  196MOL0     O25770   2.785   2.699   7.636 -0.7976 -0.1752  0.8029
  196MOL0     C25771   2.665   2.697   7.694 -0.3567  0.1250  0.2314
  196MOL0     C25772   2.614   2.574   7.739 -0.3103  0.2363  0.1355
  196MOL0     C25773   2.491   2.568   7.789  0.8540  0.9338  0.4975
  196MOL0     C25774   2.417   2.687   7.822 -0.0927 -0.6174  0.2942
  196MOL0     O25775   2.292   2.685   7.885  0.5434  0.1768  0.0110
  196MOL0     C25776   2.221   2.559   7.881 -0.2569 -0.8586  0.0118
  196MOL0     C25777   2.070   2.584   7.881 -0.3877 -0.4995 -0.4892
  196MOL0     C25778   2.024   2.651   7.745  0.1493 -0.0424 -1.0146
  196MOL0     C25779   1.873   2.639   7.725 -0.0854  0.8188  0.8906
  196MOL0     C25780   1.788   2.749   7.794  0.6013  0.3240 -0.4234
  196MOL0     C25781   1.644   2.741   7.749 -0.7229 -0.0846 -0.2486
  196MOL0     C25782   1.566   2.848   7.822 -0.7255 -0.2548  0.3170
  196MOL0     C25783   1.444   2.890   7.744 -0.3233  0.1048 -0.4888
  196MOL0    Cl25784   1.373   2.760   7.661 -0.3045 -0.2437  0.1564
  196MOL0     C25785   2.462   2.807   7.766 -0.7772 -0.1729 -0.2548
  196MOL0     C25786   2.589   2.813   7.714  0.4676 -0.3293  1.2200
  196MOL0     O25787   2.665   2.713   7.442  0.0396  0.2545  0.1979
  196MOL0     C25788   2.900   2.700   7.278 -0.3944  0.8407  0.1085
  196MOL0     C25789   3.019   2.698   7.206 -0.3476 -0.2779 -0.4135
  196MOL0     N25790   3.727   2.819   6.954  0.6835  0.5018  0.2070
  196MOL0     N25791   3.801   2.899   6.879  0.4729 -0.5529 -0.6517
  196MOL0     C25792   4.584   2.625   6.036 -0.4730 -0.5246 -1.0634
  196MOL0     C25793   4.696   2.575   5.966 -0.1065  0.1272 -0.8367
  196MOL0     C25794   5.123   2.554   5.784  0.1084 -0.1202 -0.5703
  196MOL0     C25795   5.169   2.551   5.655 -0.1740 -0.0706  0.7622
  196MOL0     C25796   5.298   2.515   5.619  0.0115  0.7602  0.2556
  196MOL0     C25797   5.386   2.471   5.709  0.0014 -0.1392 -0.7947
  196MOL0     O25798   5.507   2.424   5.677 -0.3619  0.6013 -0.5333
  196MOL0     C25799   5.555   2.382   5.544  0.1532  0.1594 -0.6014
  196MOL0     C25800   5.631   2.496   5.466  0.3958  0.9008  0.2087
  196MOL0     C25801   5.779   2.489   5.488  0.6550 -0.5433  0.0154
  196MOL0     C25802   5.859   2.585   5.394  0.5717  0.7965 -0.5119
  196MOL0     C25803   6.004   2.580   5.418  0.7905 -0.2779 -0.1562
  196MOL0     C25804   6.123   2.579   5.437 -0.5889  0.1344  0.4286
  196MOL0     C25805   5.347   2.476   5.846  0.3302  0.2954 -0.3002
  196MOL0     C25806   5.213   2.522   5.884 -0.5007  0.9046  0.3169
  196MOL0     H25807   4.927   2.775   6.116  0.2401  0.5942 -0.8356
  196MOL0     H25808   4.737   2.846   6.248  0.8069 -1.1504  1.0940
  196MOL0     H25809   4.375   2.893   6.311 -0.2478 -0.2572 -2.1210
  196MOL0     H25810   4.549   2.924   6.302 -0.5986  1.5334 -1.8834
  196MOL0     H25811   4.562   2.696   6.430  1.3336 -0.1631  2.1506
  196MOL0     H25812   4.381   2.719   6.448  0.1704  0.4221 -2.9410
  196MOL0     H25813   4.613   2.920   6.529  0.3441 -0.6356 -0.3440
  196MOL0     H25814   4.544   2.829   6.652  3.8019 -0.6090 -0.9605
  196MOL0     H25815   4.443   3.071   6.638 -0.8831  0.7246 -0.2585
  196MOL0     H25816   4.381   3.025   6.476  0.9453 -2.9916 -0.6512
  196MOL0     H25817   4.213   2.883   6.571 -1.0343  0.6859  0.7261
  196MOL0     H25818   4.211   3.039   6.645  0.9757  0.4458 -1.6842
  196MOL0     H25819   4.354   2.951   6.834  4.2473  1.0116 -3.8626
  196MOL0     H25820   4.339   2.784   6.769  2.4979  1.2915 -1.1721
  196MOL0     H25821   4.171   2.786   6.919  0.6386  1.8067  1.8703
  196MOL0     H25822   4.155   2.961   6.925  1.8544 -0.2365  2.4997
  196MOL0     H25823   4.044   2.784   6.680  0.9702  1.3586 -1.0761
  196MOL0     H25824   4.010   2.954   6.713 -1.5673 -1.0351 -2.1301
  196MOL0     H25825   3.966   2.606   6.928 -0.2223 -0.4104 -0.2055
  196MOL0     H25826   3.813   2.525   7.113 -1.7335 -2.0877  2.0043
  196MOL0     H25827   3.682   2.500   7.000  1.5158  1.0343 -1.3566
  196MOL0     H25828   3.666   2.723   7.209 -0.6024  0.1051 -0.5034
  196MOL0     H25829   3.638   2.546   7.257  1.8636 -1.0728 -2.2084
  196MOL0     H25830   3.478   2.709   7.063  1.5960  0.1585 -0.1285
  196MOL0     H25831   3.452   2.531   7.093  2.2081 -0.3266 -1.7193
  196MOL0     H25832   3.418   2.760   7.289 -3.3440  0.8849  1.0367
  196MOL0     H25833   3.403   2.588   7.328  2.8244 -0.9008 -1.5474
  196MOL0     H25834   3.232   2.628   7.475  0.0261 -1.1189  0.6364
  196MOL0     H25835   3.036   2.673   7.592  1.0208 -1.6019  0.1937
  196MOL0     H25836   2.675   2.486   7.724  0.5220  0.8595 -0.2209
  196MOL0     H25837   2.458   2.471   7.824  2.1780 -0.2691 -1.3999
  196MOL0     H25838   2.241   2.499   7.971  0.5913 -0.3711  0.1552
  196MOL0     H25839   2.248   2.508   7.788  1.2983  0.8893 -0.5481
  196MOL0     H25840   2.052   2.661   7.956  0.9325  0.8214 -1.4694
  196MOL0     H25841   2.007   2.499   7.908  0.5774 -1.1914 -0.3219
  196MOL0     H25842   2.077   2.603   7.663  0.3487  0.9426 -1.4825
  196MOL0     H25843   2.061   2.754   7.741 -0.5929  0.2282 -1.0765
  196MOL0     H25844   1.855   2.638   7.617  0.8487  1.7627  0.7079
  196MOL0     H25845   1.846   2.543   7.770  1.5391  0.2375  0.6877
  196MOL0     H25846   1.829   2.841   7.752  0.2789  0.1143 -1.2132
  196MOL0     H25847   1.798   2.746   7.903 -1.8252 -0.7812 -0.1597
  196MOL0     H25848   1.604   2.640   7.757  1.0713 -0.8873 -0.7803
  196MOL0     H25849   1.651   2.775   7.645 -2.7695  6.2274  1.1911
  196MOL0     H25850   1.543   2.802   7.918  1.0109  0.3207  1.0438
  196MOL0     H25851   1.628   2.937   7.836 -0.6818  0.3337 -2.7513
  196MOL0     H25852   1.467   2.972   7.675  0.3512  0.7899  0.5200
  196MOL0     H25853   1.373   2.937   7.811  0.8657  3.7753 -1.5961
  196MOL0     H25854   2.403   2.898   7.775 -0.2607  0.1298  0.1148
  196MOL0     H25855   2.641   2.900   7.675  1.0217 -1.3075 -0.3267
  196MOL0     H25856   2.803   2.704   7.231 -1.2871 -0.6864  1.6868
  196MOL0     H25857   3.030   2.701   7.098 -0.3961 -0.5731 -0.4282
  196MOL0     H25858   4.488   2.580   6.011 -0.0172 -2.0485 -0.2306
  196MOL0     H25859   4.668   2.505   5.888  0.8811 -2.2575  0.8331
  196MOL0     H25860   5.096   2.586   5.583  0.9615  2.0552  0.5650
  196MOL0     H25861   5.309   2.522   5.511 -2.4658  1.6773 -0.0211
  196MOL0     H25862   5.463   2.362   5.489 -0.7624 -1.1046  1.2901
  196MOL0     H25863   5.618   2.294   5.562 -0.8890 -0.2274  1.4406
  196MOL0     H25864   5.616   2.474   5.360 -0.8667 -1.9232  0.8839
  196MOL0     H25865   5.598   2.596   5.493 -1.6875 -0.0062  1.2230
  196MOL0     H25866   5.804   2.386   5.461 -0.9348 -0.7001 -1.0307
  196MOL0     H25867   5.803   2.513   5.592  1.2532  2.4560 -0.7138
  196MOL0     H25868   5.823   2.569   5.292  0.3418  2.4586 -0.7172
  196MOL0     H25869   5.821   2.686   5.414  0.5382  0.4945  1.1620
  196MOL0     H25870   6.230   2.571   5.435 -0.6496 -6.2862 -2.8858
  196MOL0     H25871   5.415   2.428   5.915  2.4092 -0.4972 -2.7683
  196MOL0     H25872   5.189   2.519   5.990 -1.3637  0.0158  0.1095
  197MOL0     O25873   3.951  10.560   7.345 -0.4252 -0.5269  0.4113
  197MOL0     C25874   3.988  10.475   7.429 -0.2821  0.0004 -0.0174
  197MOL0     O25875   3.917  10.434   7.538  0.1870  0.7586 -0.6497
  197MOL0     C25876   3.791  10.478   7.585  0.0913  0.4631  0.4206
  197MOL0     C25877   3.678  10.489   7.500 -1.1810 -0.1433  0.1275
  197MOL0     C25878   3.549  10.523   7.555 -0.4863  0.0277 -0.5096
  197MOL0     C25879   3.541  10.546   7.701  0.1245 -0.3612  0.9548
  197MOL0     O25880   3.423  10.573   7.764  0.0765  1.3375 -0.0368
  197MOL0     C25881   3.313  10.489   7.725 -0.6617  0.1348 -0.6026
  197MOL0     C25882   3.198  10.528   7.821  0.4969 -1.1443 -0.0449
  197MOL0     C25883   3.145  10.675   7.818 -0.2374  0.0624 -0.0355
  197MOL0     C25884   3.092  10.735   7.687  0.2820  0.1612  0.1865
  197MOL0     C25885   2.981  10.661   7.602 -0.1671 -0.6527  0.4249
  197MOL0     C25886   2.916  10.760   7.501 -0.2743 -0.8726  0.3224
  197MOL0     C25887   3.016  10.796   7.381  0.2608  0.7959 -0.2469
  197MOL0     C25888   3.054  10.670   7.295 -0.2804  0.2679  0.4508
  197MOL0     N25889   2.946  10.621   7.205  0.6437 -0.0249  0.5646
  197MOL0     C25890   2.838  10.541   7.237  0.0299 -0.2618 -0.9930
  197MOL0     C25891   2.767  10.532   7.128  0.7173 -0.6631 -0.1614
  197MOL0     C25892   2.647  10.448   7.099  0.2869  0.0322  0.4926
  197MOL0     C25893   2.526  10.531   7.127 -0.4365 -0.6471 -0.9785
  197MOL0     C25894   2.412  10.449   7.071  0.8819 -0.7115  0.5323
  197MOL0     C25895   2.264  10.497   7.064  0.3417 -0.9208 -0.5302
  197MOL0     O25896   2.192  10.405   6.975  0.1355  0.1374 -0.5740
  197MOL0     C25897   2.056  10.441   6.954 -0.3524  0.3320  0.5003
  197MOL0     C25898   1.982  10.346   6.887 -0.3841  0.2867 -0.0219
  197MOL0     C25899   1.839  10.362   6.877 -0.0285  0.8755  0.0305
  197MOL0     C25900   1.775  10.453   6.958  0.2239 -1.7275 -0.0143
  197MOL0     C25901   1.627  10.462   6.967  0.2162  0.2238  0.2801
  197MOL0     O25902   1.578  10.556   7.053  0.5264 -0.0739  0.0597
  197MOL0     C25903   1.443  10.587   7.060 -0.7865  0.5075 -0.2035
  197MOL0     C25904   1.408  10.715   7.111 -0.8006  0.0355 -0.3951
  197MOL0     C25905   1.271  10.758   7.121 -1.1875  0.1034  0.6423
  197MOL0     C25906   1.166  10.675   7.076 -0.4161 -0.5190 -0.1749
  197MOL0     O25907   1.029  10.713   7.079  0.1893  0.4006 -0.3167
  197MOL0     C25908   0.993  10.841   7.129  0.7027 -0.6153 -0.6079
  197MOL0     C25909   0.843  10.861   7.115  0.5488 -0.2508 -0.9398
  197MOL0     C25910   0.761  10.784   7.214  0.7047  0.7458 -0.6357
  197MOL0     C25911   0.631  10.858   7.252 -0.4143 -0.6854 -0.6342
  197MOL0     C25912   0.564  10.802   7.380  0.3477  1.0769  0.0680
  197MOL0     C25913   0.433  10.861   7.417  0.2118 -0.8889 -0.2596
  197MOL0     C25914   0.442  11.013   7.452 -0.2396  0.0001  0.0541
  197MOL0     C25915   0.310  11.051   7.528  0.4733  0.8126 -0.2388
  197MOL0    Cl25916   0.343  11.125   7.690 -0.3119  0.2456 -0.1649
  197MOL0     C25917   1.198  10.538   7.047 -0.0854  1.0128  1.0879
  197MOL0     C25918   1.334  10.496   7.041  0.6468  0.0551 -0.1173
  197MOL0     O25919   1.571  10.371   6.902  0.8117 -0.6200  0.1564
  197MOL0     C25920   1.846  10.555   7.021  0.0486 -0.7222 -0.1375
  197MOL0     C25921   1.991  10.550   7.013 -0.0042 -0.0128  0.3954
  197MOL0     N25922   2.819  10.607   7.031  0.2067  0.9631  0.0904
  197MOL0     N25923   2.930  10.653   7.073 -0.5615  0.6425  0.5078
  197MOL0     C25924   3.650  10.515   7.777 -0.4760 -0.1716 -0.3384
  197MOL0     C25925   3.774  10.486   7.723 -0.4159 -0.6845  0.1652
  197MOL0     C25926   4.123  10.414   7.401  0.7398 -0.0124 -0.4969
  197MOL0     C25927   4.155  10.291   7.468  0.0242 -0.1384 -0.4782
  197MOL0     C25928   4.278  10.225   7.449 -0.2414  0.1614  0.2267
  197MOL0     C25929   4.376  10.288   7.371  0.6911 -0.2458 -0.2557
  197MOL0     O25930   4.500  10.235   7.356 -0.2839  0.7093 -0.2691
  197MOL0     C25931   4.615  10.299   7.303 -0.1440 -0.6782 -0.8312
  197MOL0     C25932   4.675  10.400   7.401  0.4661 -0.1602 -0.1313
  197MOL0     C25933   4.777  10.331   7.503  0.1623  0.5367  0.1141
  197MOL0     C25934   4.918  10.378   7.488  0.1041 -0.3644 -0.2283
  197MOL0     C25935   4.978  10.360   7.355 -0.5688 -0.7466 -0.0358
  197MOL0     C25936   5.011  10.351   7.238 -0.7978 -0.1160  0.2772
  197MOL0     C25937   4.341  10.413   7.312 -0.6185  0.6325 -0.8771
  197MOL0     C25938   4.221  10.469   7.325 -0.6938  0.3427 -1.5217
  197MOL0     H25939   3.700  10.479   7.395  0.7341  2.1606  0.2166
  197MOL0     H25940   3.473  10.548   7.482  0.9792 -0.4670 -2.2766
  197MOL0     H25941   3.338  10.382   7.726 -2.9035 -0.5141 -2.7689
  197MOL0     H25942   3.284  10.514   7.623 -1.3619  0.0465 -0.4316
  197MOL0     H25943   3.221  10.502   7.924  0.5098 -0.9479  0.0025
  197MOL0     H25944   3.111  10.466   7.797 -1.8064  1.4790  1.0013
  197MOL0     H25945   3.235  10.727   7.853 -1.3148  1.3407  0.9572
  197MOL0     H25946   3.078  10.681   7.905  2.3610 -0.2220  2.1061
  197MOL0     H25947   3.058  10.838   7.700  2.6295  1.5079 -2.8530
  197MOL0     H25948   3.175  10.731   7.616 -0.4208  0.3323 -0.6620
  197MOL0     H25949   2.911  10.620   7.674  1.4153 -1.2476  1.6874
  197MOL0     H25950   3.019  10.569   7.556  0.4881  0.2144 -0.8466
  197MOL0     H25951   2.902  10.850   7.562  3.6704 -0.0157  0.2186
  197MOL0     H25952   2.821  10.723   7.463  0.0832  0.4022 -2.0218
  197MOL0     H25953   2.982  10.871   7.309  2.9179  1.4916 -0.8787
  197MOL0     H25954   3.107  10.836   7.427  3.4658 -0.5163 -4.7650
  197MOL0     H25955   3.106  10.598   7.358  5.3720 -0.1043 -3.8745
  197MOL0     H25956   3.139  10.682   7.227  1.1888 -4.0275  1.1980
  197MOL0     H25957   2.826  10.486   7.330 -2.1251 -0.4521 -1.3499
  197MOL0     H25958   2.652  10.365   7.170  0.1515  0.4594  1.0093
  197MOL0     H25959   2.667  10.415   6.996 -1.5133 -2.6984  0.9275
  197MOL0     H25960   2.538  10.630   7.084  1.5592 -1.3428 -2.1388
  197MOL0     H25961   2.512  10.547   7.235  0.9908  0.2704 -0.9175
  197MOL0     H25962   2.436  10.416   6.969 -2.0599  0.5477 -0.7047
  197MOL0     H25963   2.404  10.352   7.121 -3.5006 -1.0033 -0.3432
  197MOL0     H25964   2.249  10.603   7.040 -0.3842 -1.3327 -2.0154
  197MOL0     H25965   2.216  10.475   7.159  1.8752 -2.8012 -0.1396
  197MOL0     H25966   2.036  10.263   6.842  2.4738  2.3854 -0.7815
  197MOL0     H25967   1.788  10.292   6.812  0.9342 -0.2669  0.4790
  197MOL0     H25968   1.487  10.779   7.151 -1.5830  0.9591 -0.2728
  197MOL0     H25969   1.246  10.861   7.141  1.5798  1.1530 -0.8294
  197MOL0     H25970   1.037  10.919   7.066 -0.8592  1.4541  0.7121
  197MOL0     H25971   1.027  10.852   7.232 -1.3122 -0.4433  0.0861
  197MOL0     H25972   0.811  10.841   7.012 -3.0413  2.7637 -0.6364
  197MOL0     H25973   0.821  10.965   7.140 -0.4580 -0.5632 -0.4802
  197MOL0     H25974   0.819  10.758   7.303 -1.5318  0.1471  0.7103
  197MOL0     H25975   0.739  10.683   7.177 -3.0866  0.0473  2.8239
  197MOL0     H25976   0.662  10.960   7.277  0.8931 -1.2966  0.3784
  197MOL0     H25977   0.562  10.868   7.168 -1.2233  0.0590  0.0885
  197MOL0     H25978   0.634  10.792   7.464 -1.3551 -3.5699  1.2299
  197MOL0     H25979   0.544  10.699   7.350  2.2584  0.4225  0.8485
  197MOL0     H25980   0.392  10.805   7.501 -1.1818  0.7568  0.2049
  197MOL0     H25981   0.372  10.838   7.330  2.2739 -1.9141 -1.5214
  197MOL0     H25982   0.532  11.048   7.504 -0.5791 -1.0952  1.4338
  197MOL0     H25983   0.444  11.073   7.361 -0.4052  1.7356  1.1506
  197MOL0     H25984   0.248  10.961   7.538 -0.4768  1.6190  1.8465
  197MOL0     H25985   0.256  11.131   7.475  0.6032 -0.5437 -2.5413
  197MOL0     H25986   1.114  10.472   7.027  1.1615  0.2422 -2.3578
  197MOL0     H25987   1.343  10.397   6.999  0.2292  0.6388 -1.6526
  197MOL0     H25988   1.804  10.634   7.083  1.3999  0.4844 -0.7134
  197MOL0     H25989   2.045  10.623   7.073  1.5398 -0.9569  0.2034
  197MOL0     H25990   3.647  10.524   7.885 -2.0567  0.0740 -0.3784
  197MOL0     H25991   3.853  10.468   7.796 -0.7574  3.2832  1.7516
  197MOL0     H25992   4.072  10.250   7.525  1.6071  2.2907  4.0521
  197MOL0     H25993   4.289  10.123   7.485 -0.1296  0.7466  1.9351
  197MOL0     H25994   4.592  10.344   7.206 -1.4116  0.6865  0.0649
  197MOL0     H25995   4.679  10.211   7.292 -1.3896 -1.6564 -0.5753
  197MOL0     H25996   4.729  10.485   7.359  0.7544  0.5514  1.5802
  197MOL0     H25997   4.593  10.434   7.464  0.0144 -1.7256  0.1658
  197MOL0     H25998   4.764  10.222   7.498 -0.8534  0.6977 -1.3915
  197MOL0     H25999   4.739  10.350   7.604  1.8172 -2.8232  1.5409
  197MOL0     H26000   4.918  10.487   7.494 -2.2072 -0.1612 -2.3006
  197MOL0     H26001   4.977  10.333   7.569  3.7201 -1.1022 -3.0278
  197MOL0     H26002   5.044  10.339   7.137  0.8162 -0.5726  0.8225
  197MOL0     H26003   4.410  10.476   7.257  1.3328  2.0254  2.8110
  197MOL0     H26004   4.223  10.564   7.271  0.1457  1.0643 -0.2684
  198MOL0     O26005   2.758   6.669  10.110  0.2598 -0.5460 -0.0234
  198MOL0     C26006   2.813   6.717  10.012  0.4738 -0.0527  0.6345
  198MOL0     O26007   2.750   6.759   9.890  0.0845  0.4902 -0.2946
  198MOL0     C26008   2.616   6.740   9.880 -0.1392 -0.5743  0.5377
  198MOL0     C26009   2.566   6.615   9.904  0.6190  0.2625 -0.6027
  198MOL0     C26010   2.423   6.591   9.899 -0.4478 -0.3401 -1.2683
  198MOL0     C26011   2.342   6.699   9.870 -0.5996  0.3484  0.8551
  198MOL0     O26012   2.203   6.698   9.851  0.3362 -0.2070 -0.0580
  198MOL0     C26013   2.135   6.605   9.936 -0.0158  1.7950  0.0775
  198MOL0     C26014   1.984   6.632   9.924 -0.7966  0.5781  0.3583
  198MOL0     C26015   1.957   6.776   9.973 -0.0046  0.7131  0.2417
  198MOL0     C26016   1.806   6.800   9.971  0.0676 -0.3664 -0.3140
  198MOL0     C26017   1.770   6.941  10.035  0.7478 -0.3208  0.5129
  198MOL0     C26018   1.623   6.963  10.017  0.6491 -1.2424 -0.1871
  198MOL0     C26019   1.549   7.091  10.077 -0.9232  0.0502 -0.4916
  198MOL0     C26020   1.576   7.131  10.224 -1.3805 -0.5509  0.3862
  198MOL0     N26021   1.538   7.035  10.323  0.9360 -0.8060 -0.1426
  198MOL0     C26022   1.414   6.978  10.332 -0.1397  0.2463  0.0506
  198MOL0     C26023   1.426   6.881  10.431 -0.1164  0.4119 -0.5104
  198MOL0     C26024   1.318   6.807  10.514  0.0303  0.4026  0.7075
  198MOL0     C26025   1.195   6.891  10.517 -0.1162 -1.0772 -0.5278
  198MOL0     C26026   1.090   6.892  10.633  0.2707  0.1389 -0.3778
  198MOL0     C26027   0.970   6.982  10.610  0.5299 -1.0793  0.7090
  198MOL0     O26028   0.880   6.939  10.505  0.6546  0.1583  0.0813
  198MOL0     C26029   0.750   6.983  10.495 -0.1898  0.3028 -0.0840
  198MOL0     C26030   0.663   6.893  10.437 -0.0083 -0.5800  0.3924
  198MOL0     C26031   0.532   6.933  10.401 -0.3759 -0.0001  0.0342
  198MOL0     C26032   0.486   7.059  10.426  0.7584 -0.5710  0.2769
  198MOL0     C26033   0.343   7.099  10.402 -0.8014  0.5779 -0.1802
  198MOL0     O26034   0.253   7.010  10.358  0.2895  0.2234 -0.5259
  198MOL0     C26035   0.128   7.059  10.328  0.7839 -0.1637  0.1519
  198MOL0     C26036   0.088   7.096  10.198 -0.3897 -1.3738  0.3830
  198MOL0     C26037  -0.037   7.157  10.179  0.2127  0.7390  0.2141
  198MOL0     C26038  -0.127   7.177  10.282 -0.6901 -0.4471  0.5322
  198MOL0     O26039  -0.255   7.217  10.273 -0.1338  0.1528 -0.8807
  198MOL0     C26040  -0.306   7.262  10.155  0.1016  0.0011  0.9178
  198MOL0     C26041  -0.446   7.312  10.174  0.5513  0.7055 -0.3974
  198MOL0     C26042  -0.547   7.206  10.227 -0.0905  0.3191 -0.4597
  198MOL0     C26043  -0.688   7.268  10.223 -0.0375 -0.7096  0.6047
  198MOL0     C26044  -0.802   7.167  10.260 -0.4343  1.3001 -0.4782
  198MOL0     C26045  -0.932   7.238  10.251  0.1403  0.0976 -0.0397
  198MOL0     C26046  -1.046   7.132  10.291 -0.8113 -0.2062 -0.4957
  198MOL0     C26047  -1.192   7.169  10.256  0.6325 -0.3920  0.2419
  198MOL0    Cl26048  -1.231   7.336  10.308 -0.1319 -0.2468 -0.1270
  198MOL0     C26049  -0.083   7.126  10.409 -0.1094 -0.2299  0.4034
  198MOL0     C26050   0.044   7.077  10.427  0.1140 -0.6030 -0.3109
  198MOL0     O26051   0.322   7.219  10.405 -0.4836 -0.8081  0.6689
  198MOL0     C26052   0.573   7.144  10.493  0.2608 -0.5041  0.0655
  198MOL0     C26053   0.702   7.112  10.524  0.7132 -0.2281 -0.5104
  198MOL0     N26054   1.555   6.865  10.465 -0.0817 -0.3198  0.6332
  198MOL0     N26055   1.619   6.953  10.391  0.6201  0.5060  0.3114
  198MOL0     C26056   2.399   6.822   9.845 -0.5661  0.1402  0.2046
  198MOL0     C26057   2.534   6.849   9.845 -0.2332  0.7307 -0.2197
  198MOL0     C26058   2.962   6.713  10.006  1.2634  0.5670 -0.1789
  198MOL0     C26059   3.040   6.708  10.121  1.3720  0.4390 -0.8644
  198MOL0     C26060   3.180   6.699  10.100  0.6682  0.2449 -0.8276
  198MOL0     C26061   3.243   6.683   9.978  0.2499  0.2874 -0.3021
  198MOL0     O26062   3.385   6.678   9.963 -0.1272 -0.0480 -0.5486
  198MOL0     C26063   3.467   6.791  10.000  0.4062 -0.7765 -0.0848
  198MOL0     C26064   3.611   6.754   9.982 -0.4625 -0.1384 -0.3499
  198MOL0     C26065   3.643   6.622   9.911  0.0002  0.1239  0.3370
  198MOL0     C26066   3.793   6.597   9.899  1.0407  0.1680  0.9782
  198MOL0     C26067   3.803   6.455   9.878  0.3452  0.1126  1.3939
  198MOL0     C26068   3.799   6.334   9.876  1.0407  1.1623  0.2472
  198MOL0     C26069   3.161   6.704   9.864  0.4029  1.1381 -0.1157
  198MOL0     C26070   3.024   6.703   9.876 -0.0767 -0.2798  0.9524
  198MOL0     H26071   2.635   6.534   9.924  0.3495  0.4497  1.2965
  198MOL0     H26072   2.377   6.494   9.909 -2.3611  0.5535 -0.9416
  198MOL0     H26073   2.170   6.605  10.039 -1.2467 -1.5572  0.6078
  198MOL0     H26074   2.155   6.501   9.908  1.4988  1.8172  0.9739
  198MOL0     H26075   1.931   6.557   9.983  1.4102 -1.7699 -0.4890
  198MOL0     H26076   1.954   6.620   9.820  0.8376  1.1684 -0.2202
  198MOL0     H26077   2.013   6.838   9.901  0.7961 -0.8745 -0.5586
  198MOL0     H26078   1.999   6.791  10.073  0.4056 -0.5307  0.2697
  198MOL0     H26079   1.778   6.794   9.865  0.7954 -0.4616 -0.5050
  198MOL0     H26080   1.763   6.716  10.026  1.6781 -0.8763  0.2309
  198MOL0     H26081   1.822   7.019   9.978  2.6275 -0.5174  1.8767
  198MOL0     H26082   1.806   6.939  10.138 -1.6084 -2.3900  1.3929
  198MOL0     H26083   1.581   6.878  10.071  4.2435 -2.0831  1.6450
  198MOL0     H26084   1.599   6.954   9.911  0.4714  0.9035 -0.3891
  198MOL0     H26085   1.577   7.180  10.021  0.6194 -0.9227 -1.3433
  198MOL0     H26086   1.441   7.078  10.066 -0.9934 -0.0543  0.2253
  198MOL0     H26087   1.526   7.225  10.246 -0.3385  0.3118 -0.7516
  198MOL0     H26088   1.681   7.153  10.243 -1.9706  1.6300  1.4304
  198MOL0     H26089   1.317   7.009  10.294 -1.0641  1.4524  3.0625
  198MOL0     H26090   1.363   6.786  10.612  1.3456  1.8871  0.4616
  198MOL0     H26091   1.310   6.709  10.466  0.1826 -0.0045  1.4894
  198MOL0     H26092   1.139   6.880  10.424  0.7705 -0.8453 -1.1038
  198MOL0     H26093   1.248   6.986  10.510  3.0909 -2.8023 -2.5847
  198MOL0     H26094   1.057   6.788  10.647  1.8258 -0.7196 -2.5183
  198MOL0     H26095   1.146   6.917  10.723  0.0709  0.1104 -0.2447
  198MOL0     H26096   1.018   7.072  10.571 -0.6645 -0.9077 -0.4455
  198MOL0     H26097   0.917   7.000  10.704  0.3239 -1.1200  0.6022
  198MOL0     H26098   0.696   6.794  10.405  1.4048 -0.7355  2.1721
  198MOL0     H26099   0.465   6.869  10.346 -0.0653  2.0791 -3.0768
  198MOL0     H26100   0.162   7.095  10.119 -0.6864  4.3368 -0.3557
  198MOL0     H26101  -0.066   7.181  10.077  2.2326 -1.5961 -1.0340
  198MOL0     H26102  -0.312   7.180  10.084  1.0987 -0.3709  1.2404
  198MOL0     H26103  -0.239   7.334  10.107 -2.7974  1.2159 -1.6509
  198MOL0     H26104  -0.482   7.343  10.075 -1.0924  1.3892  0.3869
  198MOL0     H26105  -0.444   7.393  10.247 -0.5841  1.4778 -1.1878
  198MOL0     H26106  -0.528   7.171  10.329 -1.5608  1.0306  0.0977
  198MOL0     H26107  -0.541   7.118  10.162  4.1879 -2.3281  2.9432
  198MOL0     H26108  -0.687   7.348  10.297  0.7755 -0.8826  0.7934
  198MOL0     H26109  -0.704   7.311  10.124  1.3598 -1.6484 -0.0664
  198MOL0     H26110  -0.782   7.109  10.350  2.1385 -1.0643 -2.3890
  198MOL0     H26111  -0.794   7.089  10.183  0.6081 -0.4878  1.3620
  198MOL0     H26112  -0.956   7.268  10.148 -0.9200 -1.0372 -0.1528
  198MOL0     H26113  -0.935   7.327  10.313  0.8978 -1.1053  1.8033
  198MOL0     H26114  -1.029   7.037  10.242 -0.1108 -0.2253 -0.2171
  198MOL0     H26115  -1.027   7.122  10.399  2.1462 -0.9716 -1.0153
  198MOL0     H26116  -1.254   7.093  10.306  0.7818 -1.6490 -1.3811
  198MOL0     H26117  -1.209   7.162  10.148  1.3662 -0.2596  0.1136
  198MOL0     H26118  -0.161   7.135  10.483  0.0246  1.1227  0.4116
  198MOL0     H26119   0.090   7.055  10.523 -0.4878  3.8735  1.2417
  198MOL0     H26120   0.538   7.242  10.525 -2.1139 -0.4662 -2.2563
  198MOL0     H26121   0.778   7.181  10.560  2.3938 -2.0616 -0.3525
  198MOL0     H26122   2.335   6.903   9.811 -0.8816 -0.6605 -1.1837
  198MOL0     H26123   2.583   6.946   9.838 -3.2425  2.4831  0.9207
  198MOL0     H26124   2.996   6.719  10.220 -0.5840  0.4097 -1.6982
  198MOL0     H26125   3.247   6.710  10.185 -0.3614 -0.6684  0.1271
  198MOL0     H26126   3.465   6.819  10.105  1.9446  0.6024 -0.3807
  198MOL0     H26127   3.435   6.884   9.950 -0.4966 -1.3455 -0.5968
  198MOL0     H26128   3.657   6.837   9.927 -1.2136  0.2394 -0.4262
  198MOL0     H26129   3.660   6.748  10.079  3.2121 -0.1881 -2.0400
  198MOL0     H26130   3.605   6.639   9.810 -4.4303 -0.0202  1.7861
  198MOL0     H26131   3.581   6.547   9.960  0.1376  3.0886  5.8410
  198MOL0     H26132   3.833   6.648   9.811  0.2747 -1.4800 -0.3790
  198MOL0     H26133   3.848   6.631   9.987  0.1811  0.4316  1.4230
  198MOL0     H26134   3.805   6.228   9.882 -0.4531  1.0955  0.7987
  198MOL0     H26135   3.215   6.687   9.771 -2.1408 -3.6859 -1.0244
  198MOL0     H26136   2.967   6.702   9.784 -2.5022  0.0892  2.3581
  199MOL0     O26137   1.324   9.526   0.861  0.2700  0.1291 -0.2732
  199MOL0     C26138   1.345   9.529   0.976 -0.2174  1.3147  1.0760
  199MOL0     O26139   1.298   9.618   1.071  0.5438  0.1760  0.3111
  199MOL0     C26140   1.208   9.719   1.042  0.0151  0.5017 -0.0171
  199MOL0     C26141   1.205   9.771   0.911 -0.0968 -0.6167 -0.2935
  199MOL0     C26142   1.117   9.879   0.884 -0.5961  0.8290 -0.2155
  199MOL0     C26143   1.046   9.936   0.984  0.0677  0.0175  0.0839
  199MOL0     O26144   0.969  10.043   0.974 -0.5158 -0.0276 -0.0324
  199MOL0     C26145   0.843  10.003   0.920 -0.1730 -0.1026  0.6687
  199MOL0     C26146   0.757  10.131   0.938  0.7050  0.4990  0.1798
  199MOL0     C26147   0.608  10.109   0.899  0.0242 -0.0743 -0.2838
  199MOL0     C26148   0.540  10.246   0.866 -0.4662  1.0870 -0.2885
  199MOL0     C26149   0.386  10.222   0.833 -1.6305 -0.3892  1.0522
  199MOL0     C26150   0.337  10.327   0.741  0.1376  0.2364 -0.2135
  199MOL0     C26151   0.187  10.336   0.732 -0.1326 -0.3776 -0.4484
  199MOL0     C26152   0.110  10.214   0.673  0.4173 -0.4258  0.2951
  199MOL0     N26153  -0.032  10.236   0.694 -0.7577  0.3240  0.0567
  199MOL0     C26154  -0.096  10.216   0.811 -0.2485  0.1868 -0.1040
  199MOL0     C26155  -0.214  10.257   0.798  0.3798 -0.3914  0.8472
  199MOL0     C26156  -0.328  10.257   0.900  0.0136 -1.0270  0.4569
  199MOL0     C26157  -0.440  10.160   0.870 -0.1264  0.5439 -0.6164
  199MOL0     C26158  -0.389  10.011   0.853 -0.4143  0.1917  0.6928
  199MOL0     C26159  -0.495   9.929   0.781 -1.2234  0.7801 -0.4402
  199MOL0     O26160  -0.514   9.971   0.645  0.2796  0.0994 -0.4295
  199MOL0     C26161  -0.644   9.959   0.595 -0.1216  0.6378 -0.2807
  199MOL0     C26162  -0.760   9.895   0.653  0.4314  0.6478 -0.1268
  199MOL0     C26163  -0.887   9.901   0.588 -0.4061 -0.4008 -0.4672
  199MOL0     C26164  -0.904   9.968   0.464 -1.2630  0.4385  0.0055
  199MOL0     C26165  -1.036   9.978   0.394  0.8435 -0.4632 -0.5032
  199MOL0     O26166  -1.147   9.926   0.465  0.3030 -0.5295  0.0160
  199MOL0     C26167  -1.262   9.905   0.396 -0.2253 -0.4139 -0.6583
  199MOL0     C26168  -1.276   9.858   0.262 -0.3609 -0.8544 -0.6593
  199MOL0     C26169  -1.400   9.833   0.208 -0.0379  0.0473  0.5184
  199MOL0     C26170  -1.517   9.861   0.275 -0.0879  0.2573 -0.0953
  199MOL0     O26171  -1.634   9.809   0.221  0.4259 -0.3233 -0.5055
  199MOL0     C26172  -1.763   9.832   0.280  0.5690  0.7275 -1.0605
  199MOL0     C26173  -1.878   9.792   0.193  0.0860 -0.9039  0.0914
  199MOL0     C26174  -1.894   9.636   0.165 -0.2263  0.0670  0.4991
  199MOL0     C26175  -2.038   9.590   0.131 -0.7788  0.4728  0.7815
  199MOL0     C26176  -2.062   9.468   0.040  0.5349  1.3356  0.5954
  199MOL0     C26177  -2.079   9.337   0.115  0.6562  0.2442  0.8443
  199MOL0     C26178  -1.947   9.296   0.183  0.2075 -0.0331  0.2005
  199MOL0     C26179  -1.869   9.190   0.096  0.1842  0.5396  0.4816
  199MOL0    Cl26180  -1.967   9.048   0.080 -0.4287  0.1638  0.3559
  199MOL0     C26181  -1.509   9.904   0.408 -1.0720  0.1267  0.3629
  199MOL0     C26182  -1.382   9.917   0.469 -0.2555  0.1429  0.2289
  199MOL0     O26183  -1.042  10.034   0.285 -0.1836  0.1263  0.7338
  199MOL0     C26184  -0.793  10.035   0.412  0.3478  0.7060  0.5612
  199MOL0     C26185  -0.668  10.025   0.473  0.3571  0.9375 -0.4060
  199MOL0     N26186  -0.224  10.304   0.666 -0.7812 -0.3134  0.1382
  199MOL0     N26187  -0.113  10.286   0.604 -0.0591 -0.0227  0.4378
  199MOL0     C26188   1.058   9.890   1.116 -0.1524  0.1922 -0.5499
  199MOL0     C26189   1.137   9.783   1.152  0.5057 -1.7102 -0.2729
  199MOL0     C26190   1.440   9.422   1.013 -0.8714  0.3043 -0.4378
  199MOL0     C26191   1.471   9.401   1.151 -0.5465  0.4161  0.6810
  199MOL0     C26192   1.544   9.295   1.187  0.6301  0.3636 -0.4927
  199MOL0     C26193   1.603   9.213   1.096  0.1183 -0.3276 -0.6293
  199MOL0     O26194   1.679   9.106   1.138 -1.0654  0.0413  0.8207
  199MOL0     C26195   1.731   9.007   1.048  0.6179 -0.6827  0.1949
  199MOL0     C26196   1.607   8.917   1.013  0.4510  0.6753 -0.1208
  199MOL0     C26197   1.633   8.778   0.953  0.4066  0.5353 -0.1213
  199MOL0     C26198   1.509   8.719   0.884 -0.2415  0.9596  0.3961
  199MOL0     C26199   1.415   8.661   0.989  0.0425 -0.5607  0.2277
  199MOL0     C26200   1.329   8.631   1.078  0.9037 -0.0933  0.3313
  199MOL0     C26201   1.587   9.244   0.958  0.6046  0.3228  0.3502
  199MOL0     C26202   1.504   9.350   0.917 -0.0645 -0.0837 -0.4286
  199MOL0     H26203   1.264   9.738   0.826 -2.3411 -1.5338 -1.5746
  199MOL0     H26204   1.105   9.921   0.785  0.9389 -0.4244 -0.9708
  199MOL0     H26205   0.802   9.915   0.970  1.9275 -2.1365 -1.0196
  199MOL0     H26206   0.848   9.980   0.814 -0.6902 -0.2069  0.6632
  199MOL0     H26207   0.808  10.204   0.875  0.7827 -0.4079 -0.8272
  199MOL0     H26208   0.767  10.171   1.040  1.3968  0.4108  0.1517
  199MOL0     H26209   0.549  10.043   0.963  0.1527 -2.6859 -2.6808
  199MOL0     H26210   0.603  10.048   0.808 -1.9864  0.9305 -0.8910
  199MOL0     H26211   0.555  10.315   0.950 -0.7465 -0.4149  1.0565
  199MOL0     H26212   0.591  10.285   0.778 -1.7389  1.3273 -0.9301
  199MOL0     H26213   0.330  10.232   0.926 -1.6188  3.8545  0.8205
  199MOL0     H26214   0.374  10.119   0.800  2.5120 -0.7848  0.2089
  199MOL0     H26215   0.374  10.331   0.638 -1.3253 -1.1066 -0.8251
  199MOL0     H26216   0.376  10.420   0.785  0.5127 -0.0985  0.1717
  199MOL0     H26217   0.148  10.352   0.833  1.2978  1.5390 -0.1524
  199MOL0     H26218   0.162  10.427   0.677  1.8604 -0.2627 -1.2369
  199MOL0     H26219   0.144  10.119   0.714  0.7874 -0.2937  0.2973
  199MOL0     H26220   0.122  10.216   0.564 -1.7865  0.1528  0.0268
  199MOL0     H26221  -0.047  10.182   0.901  0.1707  0.3602 -0.2609
  199MOL0     H26222  -0.361  10.362   0.903  1.0294 -0.7126  1.8466
  199MOL0     H26223  -0.280  10.226   0.993  0.6155 -0.8947  0.1955
  199MOL0     H26224  -0.483  10.188   0.773 -1.2092 -1.1294 -0.6586
  199MOL0     H26225  -0.522  10.153   0.942 -1.3891 -1.2861 -2.1478
  199MOL0     H26226  -0.298  10.018   0.792 -0.9930 -2.4167 -0.5863
  199MOL0     H26227  -0.360   9.957   0.943  0.0086 -0.8902 -0.0692
  199MOL0     H26228  -0.582   9.931   0.847 -0.6870  1.3723  0.2582
  199MOL0     H26229  -0.469   9.822   0.777 -4.4284 -0.1007 -0.6533
  199MOL0     H26230  -0.751   9.844   0.749 -3.5665 -1.2316 -0.5532
  199MOL0     H26231  -0.973   9.851   0.630 -0.5422  0.6918  0.6248
  199MOL0     H26232  -1.190   9.833   0.201  0.3606 -0.4507  0.1807
  199MOL0     H26233  -1.395   9.794   0.106  2.4931 -2.3018  1.4069
  199MOL0     H26234  -1.773   9.939   0.299 -1.9697  0.3358  0.1776
  199MOL0     H26235  -1.771   9.764   0.365 -2.4742  0.0814 -1.7563
  199MOL0     H26236  -1.855   9.854   0.106 -1.2117  1.1019  1.1041
  199MOL0     H26237  -1.965   9.839   0.240  0.9109 -0.4229  1.1798
  199MOL0     H26238  -1.854   9.581   0.250 -0.0528  2.0403  1.7692
  199MOL0     H26239  -1.834   9.608   0.079  0.4211  1.2492  0.5535
  199MOL0     H26240  -2.089   9.578   0.226 -0.3035 -1.4230  0.8397
  199MOL0     H26241  -2.071   9.670   0.064  0.8756 -0.0514 -0.7674
  199MOL0     H26242  -1.974   9.456  -0.022 -0.2272 -1.7242 -0.0248
  199MOL0     H26243  -2.153   9.495  -0.014 -0.5544  1.9584  2.6128
  199MOL0     H26244  -2.118   9.260   0.048  1.8722  1.0887 -0.9193
  199MOL0     H26245  -2.158   9.352   0.190  0.4717  1.2706  0.4636
  199MOL0     H26246  -1.882   9.383   0.200 -0.0627  0.5241 -1.4783
  199MOL0     H26247  -1.949   9.243   0.279  4.0834 -0.4230  0.2495
  199MOL0     H26248  -1.767   9.161   0.125  1.9896  0.8614 -4.5251
  199MOL0     H26249  -1.846   9.227  -0.004  0.8618 -1.8711 -0.3414
  199MOL0     H26250  -1.596   9.927   0.468 -1.2338  0.4004  0.0278
  199MOL0     H26251  -1.377   9.940   0.575 -3.3508  1.2015  0.2503
  199MOL0     H26252  -0.802  10.091   0.319  2.0736  1.4628  0.8091
  199MOL0     H26253  -0.578  10.061   0.425  1.6283 -2.8834 -1.2113
  199MOL0     H26254   1.004   9.948   1.189 -0.2460  1.3973 -1.5532
  199MOL0     H26255   1.144   9.742   1.253 -1.3357  1.7692  1.4768
  199MOL0     H26256   1.439   9.477   1.221 -0.6921 -0.0387  1.1160
  199MOL0     H26257   1.547   9.285   1.295  0.1466  3.0652 -0.1524
  199MOL0     H26258   1.814   8.960   1.102  1.7136  1.0546  0.0945
  199MOL0     H26259   1.763   9.044   0.950 -2.9624 -0.0698 -0.8764
  199MOL0     H26260   1.548   8.896   1.103  0.3678  1.9046  0.1291
  199MOL0     H26261   1.541   8.973   0.946 -1.1533 -0.7367  0.2137
  199MOL0     H26262   1.669   8.701   1.022  0.2884 -0.8360 -1.5093
  199MOL0     H26263   1.705   8.782   0.870 -1.9785  0.6691 -2.3207
  199MOL0     H26264   1.464   8.788   0.813  0.7220 -0.8442 -2.1051
  199MOL0     H26265   1.541   8.634   0.823  0.0126  2.4483 -1.6164
  199MOL0     H26266   1.242   8.615   1.139  0.2745  0.9133 -0.2825
  199MOL0     H26267   1.629   9.173   0.887 -1.2145 -1.1134  0.6457
  199MOL0     H26268   1.486   9.355   0.810 -1.6537 -0.0393 -0.1745
  200MOL0     O26269   9.143   5.925   4.565 -0.2773  0.0443  0.8516
  200MOL0     C26270   9.132   6.046   4.599 -0.4426  0.0617 -0.7736
  200MOL0     O26271   9.017   6.118   4.600 -0.3020 -0.3862 -0.0356
  200MOL0     C26272   8.903   6.054   4.578 -0.1643  0.6935 -0.9032
  200MOL0     C26273   8.878   6.017   4.444 -0.6579  0.5400 -0.5570
  200MOL0     C26274   8.743   5.966   4.423 -0.6590 -0.2262  0.3033
  200MOL0     C26275   8.646   5.954   4.517 -0.0320  0.1851 -0.3626
  200MOL0     O26276   8.521   5.919   4.495 -0.0494  0.0929  0.4900
  200MOL0     C26277   8.521   5.774   4.469  0.0878  0.4151 -0.2214
  200MOL0     C26278   8.379   5.721   4.468  0.3446  0.2801 -0.1721
  200MOL0     C26279   8.394   5.572   4.429  0.2972  0.6127  0.1335
  200MOL0     C26280   8.259   5.509   4.411  0.5534  0.0460  0.1494
  200MOL0     C26281   8.264   5.348   4.402  0.1381  0.1589  0.0016
  200MOL0     C26282   8.148   5.272   4.354  0.7275 -0.0094  0.3612
  200MOL0     C26283   8.031   5.267   4.459  0.4198  1.5847 -0.4013
  200MOL0     C26284   7.902   5.181   4.420  0.6636 -1.0498  0.9041
  200MOL0     N26285   7.781   5.224   4.494 -0.1161 -0.2295 -0.0835
  200MOL0     C26286   7.711   5.150   4.588 -0.3782  0.2984  0.0446
  200MOL0     C26287   7.605   5.222   4.628 -0.5642  0.2499  0.4691
  200MOL0     C26288   7.499   5.173   4.732 -0.6275  0.1032  0.1598
  200MOL0     C26289   7.359   5.122   4.687  0.2498  0.0059 -0.0191
  200MOL0     C26290   7.261   5.221   4.619 -0.3552 -0.9513 -0.4597
  200MOL0     C26291   7.120   5.166   4.597 -0.4810  0.2966 -0.2816
  200MOL0     O26292   7.105   5.096   4.468 -0.0394 -0.4212 -0.2288
  200MOL0     C26293   6.976   5.051   4.451 -0.4310 -0.4370 -0.0853
  200MOL0     C26294   6.867   5.130   4.455 -0.7900 -0.5457  0.2152
  200MOL0     C26295   6.746   5.075   4.430  0.1996  0.4666 -0.0928
  200MOL0     C26296   6.736   4.941   4.384  0.8470  0.2780 -0.4827
  200MOL0     C26297   6.609   4.876   4.349 -0.6561  0.9224 -1.0030
  200MOL0     O26298   6.612   4.741   4.310 -0.1533 -0.4224  0.3867
  200MOL0     C26299   6.499   4.665   4.277 -0.0240 -0.0383  0.5585
  200MOL0     C26300   6.502   4.526   4.297  0.2128  0.2438 -0.2553
  200MOL0     C26301   6.394   4.443   4.266  0.4018 -0.2155 -0.0782
  200MOL0     C26302   6.278   4.500   4.215 -0.1606 -0.7940 -0.2755
  200MOL0     O26303   6.173   4.416   4.201  0.8813  0.1572  0.9702
  200MOL0     C26304   6.193   4.311   4.109  0.1377  0.3971  0.2925
  200MOL0     C26305   6.121   4.345   3.981  0.1676 -0.5655  0.2849
  200MOL0     C26306   5.962   4.358   3.982  0.0807 -0.8818 -0.4638
  200MOL0     C26307   5.900   4.237   4.054 -0.0721 -0.2801  0.0874
  200MOL0     C26308   5.750   4.228   4.036 -1.0224  0.7069 -0.1454
  200MOL0     C26309   5.696   4.204   3.900  0.1854  0.0975  0.2419
  200MOL0     C26310   5.736   4.071   3.823  0.1917 -0.0450 -0.7812
  200MOL0     C26311   5.655   3.943   3.873  0.5010 -0.6329 -0.3297
  200MOL0    Cl26312   5.473   3.971   3.846 -0.1488  0.3184  0.2707
  200MOL0     C26313   6.267   4.635   4.214 -0.0829 -0.6023 -0.6370
  200MOL0     C26314   6.378   4.718   4.235  0.5790 -0.8108  0.5065
  200MOL0     O26315   6.518   4.948   4.351  0.8257  0.2565 -0.1229
  200MOL0     C26316   6.850   4.863   4.392 -0.5534 -0.0646 -0.1623
  200MOL0     C26317   6.971   4.913   4.428 -0.2804 -0.3102  0.1685
  200MOL0     N26318   7.611   5.337   4.555 -0.4985 -0.3711 -0.7927
  200MOL0     N26319   7.706   5.337   4.473  0.0974 -0.1911 -0.7456
  200MOL0     C26320   8.680   5.985   4.652 -0.2388  0.3924 -0.0386
  200MOL0     C26321   8.808   6.030   4.682 -0.3107  0.1231  0.4793
  200MOL0     C26322   9.261   6.117   4.621 -0.1388 -0.2253  0.5397
  200MOL0     C26323   9.266   6.251   4.639  0.8046 -0.2531 -0.4852
  200MOL0     C26324   9.389   6.315   4.685 -1.0312 -0.2243  1.0553
  200MOL0     C26325   9.512   6.250   4.685 -0.5028  0.2024  0.6214
  200MOL0     O26326   9.633   6.323   4.684  0.1460  0.6193 -0.7796
  200MOL0     C26327   9.748   6.243   4.704 -0.2876 -0.1740  1.3988
  200MOL0     C26328   9.855   6.347   4.766 -0.3851  0.6909 -0.4675
  200MOL0     C26329   9.808   6.406   4.906  0.1416  0.4123 -0.5911
  200MOL0     C26330   9.917   6.450   5.000  0.3977 -0.0647 -0.8005
  200MOL0     C26331  10.003   6.548   4.933  1.0536  0.9398 -0.2842
  200MOL0     C26332  10.070   6.639   4.889  0.3925 -0.6081  0.9512
  200MOL0     C26333   9.505   6.106   4.670  0.0984 -0.4397 -0.7019
  200MOL0     C26334   9.383   6.048   4.638 -0.2165 -0.4750  0.1230
  200MOL0     H26335   8.937   6.017   4.352 -2.7944  2.1652 -2.0399
  200MOL0     H26336   8.724   5.937   4.320  0.2417 -3.0346  0.8501
  200MOL0     H26337   8.582   5.714   4.537 -1.8401 -1.8067 -0.3252
  200MOL0     H26338   8.554   5.761   4.366 -0.6478 -0.6554 -0.3359
  200MOL0     H26339   8.309   5.772   4.402 -1.1809  1.4818  2.2354
  200MOL0     H26340   8.342   5.736   4.570  0.1426 -1.6183  0.0809
  200MOL0     H26341   8.445   5.507   4.500 -2.5709 -2.2566 -0.1570
  200MOL0     H26342   8.444   5.556   4.333  1.8996 -0.0718  1.0510
  200MOL0     H26343   8.190   5.537   4.492 -1.8002 -1.3836 -1.2658
  200MOL0     H26344   8.211   5.555   4.324  1.8316  0.8709 -0.1503
  200MOL0     H26345   8.277   5.307   4.503 -1.5038 -1.3732 -0.3591
  200MOL0     H26346   8.351   5.323   4.341 -0.5273 -1.0831 -0.4580
  200MOL0     H26347   8.180   5.170   4.332  1.5491  0.2763  0.2227
  200MOL0     H26348   8.108   5.321   4.265  1.6675  2.9203  1.4422
  200MOL0     H26349   8.060   5.237   4.560 -3.8400  0.1126  0.6293
  200MOL0     H26350   7.991   5.368   4.466 -2.5557  0.3975  2.6150
  200MOL0     H26351   7.915   5.073   4.431  1.7268 -0.9724  0.5493
  200MOL0     H26352   7.897   5.196   4.312 -1.2278 -1.9434  0.8321
  200MOL0     H26353   7.727   5.045   4.609  2.8401  0.9581  1.4399
  200MOL0     H26354   7.485   5.259   4.798 -0.2275  1.0600 -0.9745
  200MOL0     H26355   7.541   5.097   4.798 -0.8642 -0.4721 -0.3351
  200MOL0     H26356   7.312   5.084   4.779  0.1647 -1.5833 -0.6755
  200MOL0     H26357   7.372   5.046   4.609 -0.6556  1.2866 -1.4581
  200MOL0     H26358   7.261   5.314   4.676  2.1591 -0.1758 -1.5909
  200MOL0     H26359   7.296   5.257   4.522 -0.0796  0.2410  0.0685
  200MOL0     H26360   7.050   5.250   4.603  0.7269  1.3952 -1.0708
  200MOL0     H26361   7.102   5.100   4.682  3.2423  1.4485  1.6040
  200MOL0     H26362   6.873   5.234   4.485 -1.3328  0.0605 -1.6284
  200MOL0     H26363   6.666   5.148   4.439 -0.7151  0.0030 -3.1149
  200MOL0     H26364   6.593   4.471   4.319  0.7947  0.5978 -1.7032
  200MOL0     H26365   6.388   4.337   4.285  1.2526 -0.1766  0.4335
  200MOL0     H26366   6.151   4.215   4.143 -0.9483  0.2301 -1.4074
  200MOL0     H26367   6.300   4.291   4.095  1.6687  6.0847  1.6383
  200MOL0     H26368   6.136   4.270   3.902  1.4001  2.4762 -2.6288
  200MOL0     H26369   6.167   4.439   3.952  1.3174 -0.2741  2.8010
  200MOL0     H26370   5.939   4.349   3.876  2.3588 -1.9756 -0.9292
  200MOL0     H26371   5.939   4.455   4.027  6.1267  0.2850  1.1371
  200MOL0     H26372   5.964   4.153   4.024  0.5251 -0.5572  2.0125
  200MOL0     H26373   5.911   4.263   4.159 -2.8138 -0.3410  0.4644
  200MOL0     H26374   5.703   4.318   4.077  0.3997  2.2352 -1.7196
  200MOL0     H26375   5.712   4.145   4.096  1.6519  0.2152  0.9626
  200MOL0     H26376   5.728   4.286   3.834  3.5583 -2.6289 -1.9248
  200MOL0     H26377   5.587   4.207   3.896  0.2190  0.4598 -2.4491
  200MOL0     H26378   5.698   4.080   3.721 -1.9890 -1.3692 -0.1612
  200MOL0     H26379   5.845   4.062   3.823  0.3143 -0.0042 -4.2328
  200MOL0     H26380   5.672   3.927   3.980  0.5637 -0.8747 -0.3746
  200MOL0     H26381   5.685   3.851   3.821 -1.1916 -1.3742 -0.0375
  200MOL0     H26382   6.166   4.673   4.201  0.2296 -0.1268 -1.7604
  200MOL0     H26383   6.360   4.824   4.218  0.2984 -0.6215  1.8845
  200MOL0     H26384   6.839   4.756   4.380  1.5833 -0.6347  2.1272
  200MOL0     H26385   7.057   4.848   4.439 -0.8036 -0.9152  0.8095
  200MOL0     H26386   8.608   5.966   4.731  0.5050 -2.6301  0.0362
  200MOL0     H26387   8.839   6.065   4.780  1.5058  0.7941 -0.2729
  200MOL0     H26388   9.187   6.324   4.624  0.0590 -0.5650  1.5565
  200MOL0     H26389   9.389   6.423   4.677 -2.1389 -0.2323  0.7832
  200MOL0     H26390   9.773   6.219   4.600 -4.2686  3.7311 -0.8260
  200MOL0     H26391   9.733   6.151   4.761 -1.0393 -0.4828  0.7082
  200MOL0     H26392   9.949   6.292   4.779  0.2973  1.2437 -2.5596
  200MOL0     H26393   9.879   6.423   4.691  1.9021 -0.9094 -1.4942
  200MOL0     H26394   9.739   6.340   4.960  0.1682  1.0485  0.2417
  200MOL0     H26395   9.746   6.495   4.890  3.3723  3.0259  0.2695
  200MOL0     H26396   9.883   6.496   5.093 -0.9937  3.0037 -2.6706
  200MOL0     H26397   9.978   6.364   5.031 -0.0819  1.3337  5.2348
  200MOL0     H26398  10.127   6.723   4.857 -0.6664  0.6280  2.1728
  200MOL0     H26399   9.589   6.038   4.671  0.3672 -0.2414  3.0659
  200MOL0     H26400   9.388   5.940   4.626  2.1683 -0.2383 -1.8828
  201MOL0     O26401   9.410   8.254   6.486 -0.2731  0.2244 -0.0525
  201MOL0     C26402   9.499   8.338   6.480  0.6235  0.3864  0.1639
  201MOL0     O26403   9.482   8.472   6.443  0.9466 -0.8416 -0.5853
  201MOL0     C26404   9.366   8.506   6.374 -0.4308 -0.0953  0.2342
  201MOL0     C26405   9.239   8.485   6.427  0.6466  0.1128  0.1174
  201MOL0     C26406   9.125   8.515   6.351 -0.7167 -0.3908  0.0679
  201MOL0     C26407   9.142   8.542   6.219  0.3731 -0.0642 -0.4532
  201MOL0     O26408   9.025   8.532   6.146  0.5172  0.1250  0.2310
  201MOL0     C26409   9.017   8.489   6.010 -0.2316 -0.3601 -0.5026
  201MOL0     C26410   8.871   8.494   5.966 -0.0630  0.5727 -0.6373
  201MOL0     C26411   8.767   8.417   6.059  0.3044  0.2704 -0.8748
  201MOL0     C26412   8.620   8.449   6.029  0.0501  1.1472  0.7606
  201MOL0     C26413   8.541   8.353   6.101  0.4337  0.0020 -0.3404
  201MOL0     C26414   8.394   8.413   6.100  0.8478 -0.1691 -0.1292
  201MOL0     C26415   8.298   8.305   6.161 -0.6234 -0.2087  0.4318
  201MOL0     C26416   8.164   8.369   6.162 -0.1109  0.1445 -0.3797
  201MOL0     N26417   8.056   8.281   6.213 -0.1017  0.8403 -0.2429
  201MOL0     C26418   7.940   8.320   6.261  0.0088  0.3261  0.1703
  201MOL0     C26419   7.863   8.208   6.267  0.6338  0.6750  0.9364
  201MOL0     C26420   7.712   8.196   6.299 -0.0112 -1.0411 -0.2324
  201MOL0     C26421   7.618   8.308   6.237 -0.8180 -0.6790  0.2414
  201MOL0     C26422   7.483   8.286   6.319  0.2991  0.1444  0.0673
  201MOL0     C26423   7.382   8.392   6.277  0.1110  0.1044  0.5228
  201MOL0     O26424   7.253   8.370   6.341 -0.0685  0.3244  0.5373
  201MOL0     C26425   7.144   8.311   6.279 -0.1378  0.2025  0.0102
  201MOL0     C26426   7.150   8.255   6.150  0.0048 -0.6530  0.0106
  201MOL0     C26427   7.031   8.181   6.107  0.5312 -0.0058  0.2038
  201MOL0     C26428   6.918   8.164   6.189 -0.1022  0.0455  0.2616
  201MOL0     C26429   6.802   8.083   6.148 -0.4010  0.9767 -0.1984
  201MOL0     O26430   6.701   8.075   6.241 -0.1081 -0.7076  0.0819
  201MOL0     C26431   6.592   7.997   6.221  0.4791 -0.5882 -0.7702
  201MOL0     C26432   6.474   8.037   6.146 -1.0668 -0.0914 -1.0781
  201MOL0     C26433   6.370   7.943   6.119  0.2735 -0.2608  1.1644
  201MOL0     C26434   6.367   7.824   6.186 -0.5032  0.5959  0.4844
  201MOL0     O26435   6.275   7.723   6.172  0.6462 -0.0014  0.3715
  201MOL0     C26436   6.221   7.697   6.041 -0.1159  0.5656 -0.1444
  201MOL0     C26437   6.122   7.589   6.036 -0.5899  0.8580 -0.0114
  201MOL0     C26438   5.985   7.615   6.095  0.3254 -0.0305  0.7293
  201MOL0     C26439   5.939   7.763   6.092 -0.3533  0.9679  0.0963
  201MOL0     C26440   5.788   7.762   6.109  0.1214 -0.3865 -0.0929
  201MOL0     C26441   5.744   7.900   6.166  0.8178 -0.0583  0.6092
  201MOL0     C26442   5.770   7.914   6.320  0.4210  0.0201  0.8640
  201MOL0     C26443   5.682   8.032   6.374 -0.1586 -1.0194  0.0270
  201MOL0    Cl26444   5.506   8.018   6.367 -0.0452 -0.0469 -0.4865
  201MOL0     C26445   6.472   7.786   6.271  0.6611 -0.2302  0.4472
  201MOL0     C26446   6.577   7.871   6.287  0.5994 -0.4854 -0.5567
  201MOL0     O26447   6.805   8.014   6.048 -0.0812  0.5529  0.0866
  201MOL0     C26448   6.919   8.219   6.319 -0.1044  0.5211 -0.2030
  201MOL0     C26449   7.027   8.296   6.356  0.1511 -0.4519 -0.0797
  201MOL0     N26450   7.939   8.096   6.220 -0.1007  0.0441  0.1410
  201MOL0     N26451   8.057   8.143   6.198  0.1467  1.0073  0.1515
  201MOL0     C26452   9.266   8.557   6.156 -0.0174 -0.4488 -0.3158
  201MOL0     C26453   9.382   8.553   6.240  0.6906  1.0346  0.2336
  201MOL0     C26454   9.629   8.283   6.516  0.0890 -0.2375  0.8326
  201MOL0     C26455   9.747   8.368   6.510  0.1429 -0.7418 -0.5828
  201MOL0     C26456   9.868   8.317   6.541  0.1008  0.8637  0.0623
  201MOL0     C26457   9.888   8.190   6.601  0.2881 -0.2497 -0.4878
  201MOL0     O26458  10.011   8.165   6.640  0.0336  0.4377 -0.2448
  201MOL0     C26459  10.045   8.029   6.684  0.7147  0.6174  0.0566
  201MOL0     C26460  10.184   8.015   6.716  0.3567 -0.1662 -0.1753
  201MOL0     C26461  10.285   8.055   6.615 -0.5574  0.2438  1.3375
  201MOL0     C26462  10.424   7.988   6.633  0.1755  0.5986  1.0080
  201MOL0     C26463  10.528   8.050   6.547 -0.4436  0.8031  0.1353
  201MOL0     C26464  10.622   8.093   6.484 -0.6046  0.4653  0.3260
  201MOL0     C26465   9.774   8.111   6.618  0.2318 -0.1473  0.0930
  201MOL0     C26466   9.644   8.158   6.581  0.0060 -0.2385 -0.3578
  201MOL0     H26467   9.230   8.452   6.530  5.9002  1.4054  1.2507
  201MOL0     H26468   9.027   8.493   6.393  0.6409 -2.6064  2.3961
  201MOL0     H26469   9.066   8.392   6.003  3.8664  1.4573  0.3849
  201MOL0     H26470   9.064   8.561   5.942 -1.4037  0.1189 -0.8327
  201MOL0     H26471   8.878   8.454   5.865 -2.8637 -0.3149 -0.5668
  201MOL0     H26472   8.828   8.595   5.970  1.1332  1.0768  0.6060
  201MOL0     H26473   8.780   8.442   6.164  1.2398 -0.7942 -0.7238
  201MOL0     H26474   8.784   8.309   6.047  0.1743 -0.1074  1.7390
  201MOL0     H26475   8.594   8.545   6.074 -2.9829  0.1956  1.2436
  201MOL0     H26476   8.597   8.444   5.922 -1.4036  2.8679  0.9337
  201MOL0     H26477   8.579   8.342   6.203 -1.3413 -1.4010  0.2178
  201MOL0     H26478   8.553   8.253   6.060  1.3873 -0.8926  1.9353
  201MOL0     H26479   8.361   8.416   5.996 -3.2329 -1.2205  0.9268
  201MOL0     H26480   8.390   8.511   6.149 -1.7194  0.8662 -2.1777
  201MOL0     H26481   8.304   8.216   6.096  2.0213 -0.5083  0.9952
  201MOL0     H26482   8.337   8.283   6.260  0.2956  1.9227  0.5794
  201MOL0     H26483   8.133   8.411   6.066 -3.1157  1.9848  1.2535
  201MOL0     H26484   8.164   8.452   6.233 -2.1479  0.2342 -0.4187
  201MOL0     H26485   7.921   8.422   6.291  2.2502  1.1906 -1.0762
  201MOL0     H26486   7.695   8.206   6.407  1.6399  2.0519 -0.1437
  201MOL0     H26487   7.681   8.103   6.250  0.6179 -1.2384 -0.2710
  201MOL0     H26488   7.612   8.304   6.128  2.9915  3.3420 -0.4156
  201MOL0     H26489   7.663   8.404   6.264 -1.6608 -0.3357  0.4267
  201MOL0     H26490   7.446   8.188   6.286  2.9761 -0.4935 -1.3441
  201MOL0     H26491   7.501   8.281   6.426  2.2916 -0.3324 -0.2512
  201MOL0     H26492   7.372   8.402   6.168 -0.6752  1.2278  0.6722
  201MOL0     H26493   7.411   8.491   6.313 -1.5970 -0.4897  4.0079
  201MOL0     H26494   7.233   8.273   6.082 -0.0753  1.4616  0.4282
  201MOL0     H26495   7.021   8.139   6.008 -1.0285 -0.4946  0.5326
  201MOL0     H26496   6.486   8.136   6.104  0.7636 -0.5746 -1.7830
  201MOL0     H26497   6.288   7.980   6.058 -0.5373 -1.3675  1.5451
  201MOL0     H26498   6.315   7.665   5.995 -0.7371 -2.3180  0.4018
  201MOL0     H26499   6.181   7.780   5.981  0.6022  0.8603 -0.2264
  201MOL0     H26500   6.149   7.494   6.081 -2.7585  1.2058  2.2228
  201MOL0     H26501   6.099   7.574   5.930 -2.7430  0.1333  0.5117
  201MOL0     H26502   5.969   7.571   6.194 -0.7696 -0.0066  0.5795
  201MOL0     H26503   5.923   7.537   6.049  0.9458 -0.4579  0.6111
  201MOL0     H26504   5.985   7.816   6.176  1.8752 -1.3160  0.4554
  201MOL0     H26505   5.967   7.820   6.003 -0.8318  2.6497  0.9744
  201MOL0     H26506   5.751   7.677   6.167 -0.7091  1.5668  2.4281
  201MOL0     H26507   5.739   7.766   6.012  1.5818  3.2798 -0.8458
  201MOL0     H26508   5.635   7.902   6.163  0.8488  0.7203 -1.1256
  201MOL0     H26509   5.781   7.988   6.113 -1.3341  1.5438  1.6033
  201MOL0     H26510   5.745   7.821   6.373  2.4051 -0.9866  0.1552
  201MOL0     H26511   5.877   7.934   6.325  0.7151 -0.2989 -2.3151
  201MOL0     H26512   5.703   8.124   6.319 -3.1719  0.4987  1.1449
  201MOL0     H26513   5.708   8.050   6.479 -2.8020  0.4689  0.5365
  201MOL0     H26514   6.468   7.693   6.327 -0.5588  1.4127  3.2824
  201MOL0     H26515   6.654   7.837   6.355  1.0281 -3.4153 -2.3566
  201MOL0     H26516   6.824   8.226   6.372 -0.8672  1.7295 -1.6469
  201MOL0     H26517   7.021   8.360   6.444 -1.2262 -1.3727  0.5417
  201MOL0     H26518   9.261   8.580   6.051  0.2885 -0.5421 -0.3528
  201MOL0     H26519   9.481   8.566   6.198  1.6829 -2.1460  1.2913
  201MOL0     H26520   9.741   8.467   6.467 -0.0594  0.7328  2.5624
  201MOL0     H26521   9.957   8.373   6.515 -0.4266  0.7993 -2.0883
  201MOL0     H26522  10.016   7.954   6.610  1.7871 -1.8164  1.9956
  201MOL0     H26523   9.998   8.004   6.779 -0.1679  1.3202 -0.1736
  201MOL0     H26524  10.201   8.069   6.809 -1.8083 -2.4148  1.6549
  201MOL0     H26525  10.190   7.909   6.742 -0.3324 -0.6458 -1.8074
  201MOL0     H26526  10.293   8.164   6.615  0.4252  0.2331 -0.9104
  201MOL0     H26527  10.250   8.031   6.514 -2.1335  0.3882  1.8324
  201MOL0     H26528  10.446   7.990   6.740 -3.5465  1.0272  1.9212
  201MOL0     H26529  10.426   7.881   6.610 -0.1316  0.5026  1.4168
  201MOL0     H26530  10.690   8.142   6.418  1.7023 -1.9330  0.7559
  201MOL0     H26531   9.781   8.013   6.664  1.2099 -1.3376 -2.3949
  201MOL0     H26532   9.559   8.094   6.602  0.5121 -0.3644  1.4984
  202MOL0     O26533   3.914   7.743   3.623 -0.2624  0.1991 -0.2912
  202MOL0     C26534   3.902   7.865   3.632  0.1349  0.1799 -1.3036
  202MOL0     O26535   4.008   7.950   3.634 -1.0636  0.2585 -0.4901
  202MOL0     C26536   4.138   7.913   3.619 -0.7057 -0.2937 -0.2211
  202MOL0     C26537   4.175   7.826   3.514  0.4937 -0.5246  0.3606
  202MOL0     C26538   4.312   7.802   3.499 -0.0645 -0.6536  0.7808
  202MOL0     C26539   4.407   7.873   3.575  0.8270  0.2205 -0.8614
  202MOL0     O26540   4.536   7.839   3.561  0.2807 -0.8991  0.3426
  202MOL0     C26541   4.603   7.906   3.451  0.1978 -0.6265 -0.4310
  202MOL0     C26542   4.753   7.906   3.497 -0.2856  0.4004 -0.3512
  202MOL0     C26543   4.846   7.982   3.399 -0.0219 -0.5846  0.1874
  202MOL0     C26544   4.993   7.951   3.437  0.0211  0.0997  0.6544
  202MOL0     C26545   5.082   8.028   3.350 -0.8233 -0.0541  0.1310
  202MOL0     C26546   5.231   8.019   3.388 -0.1979 -0.1259  0.0113
  202MOL0     C26547   5.321   8.068   3.279 -0.2533  0.2985 -0.3222
  202MOL0     C26548   5.468   8.024   3.307 -0.4087  0.3988  0.0310
  202MOL0     N26549   5.556   8.063   3.196  0.6814 -0.2343 -0.2571
  202MOL0     C26550   5.575   7.999   3.081  0.1918 -0.5660 -0.1698
  202MOL0     C26551   5.667   8.072   3.009  0.5331  0.3765 -0.4771
  202MOL0     C26552   5.720   8.027   2.875 -0.2393 -0.2946  0.2320
  202MOL0     C26553   5.879   8.029   2.873 -0.7881  0.4971  0.5742
  202MOL0     C26554   5.931   7.992   2.734  0.5570 -0.3681  0.1033
  202MOL0     C26555   6.077   8.007   2.720 -0.5215  0.1382 -0.3149
  202MOL0     O26556   6.165   7.939   2.822 -0.0481 -0.3439 -0.0690
  202MOL0     C26557   6.302   7.942   2.805  0.1616 -0.6219  0.6207
  202MOL0     C26558   6.374   8.052   2.763  0.0385  0.6254  0.3924
  202MOL0     C26559   6.505   8.034   2.736  0.1949 -0.7428 -0.4315
  202MOL0     C26560   6.579   7.933   2.804  0.0844 -0.3340 -0.0934
  202MOL0     C26561   6.726   7.932   2.799  0.8565  0.2426 -0.8920
  202MOL0     O26562   6.782   8.046   2.754 -0.4850  0.0695 -0.2199
  202MOL0     C26563   6.921   8.042   2.729  0.3464 -0.2588 -1.3569
  202MOL0     C26564   7.007   8.025   2.842  0.2455  0.6465 -0.0544
  202MOL0     C26565   7.143   8.031   2.817 -0.4789 -0.5963 -0.2142
  202MOL0     C26566   7.197   8.070   2.697  1.1031  0.2980  0.1528
  202MOL0     O26567   7.329   8.049   2.666 -0.1289 -0.0898  0.0047
  202MOL0     C26568   7.393   8.152   2.590 -0.2077 -0.6581  0.8531
  202MOL0     C26569   7.545   8.139   2.580 -1.1155  0.4065  0.3168
  202MOL0     C26570   7.594   7.994   2.548  0.0937  0.2953  0.5106
  202MOL0     C26571   7.751   7.985   2.541  0.6207 -0.3235  0.8634
  202MOL0     C26572   7.819   8.015   2.670  0.3378  0.2990 -0.9122
  202MOL0     C26573   7.927   7.907   2.687  0.1647  0.0196 -0.1263
  202MOL0     C26574   8.055   7.942   2.765 -0.1597 -0.0715  0.8146
  202MOL0     C26575   8.173   7.988   2.667 -0.1708  0.3181 -0.0347
  202MOL0    Cl26576   8.325   7.974   2.757 -0.2206 -0.2910 -0.3775
  202MOL0     C26577   7.103   8.108   2.599  0.7925  0.5607  0.1320
  202MOL0     C26578   6.967   8.093   2.614  0.3613  0.0978 -0.0945
  202MOL0     O26579   6.788   7.832   2.830 -0.4398 -0.3636 -0.8267
  202MOL0     C26580   6.508   7.826   2.859  0.4525  0.6125  0.0630
  202MOL0     C26581   6.363   7.832   2.863 -0.4253  0.5071 -0.0528
  202MOL0     N26582   5.689   8.184   3.087 -1.2705 -0.0281 -0.2988
  202MOL0     N26583   5.627   8.178   3.198 -0.0129  0.5782  0.4730
  202MOL0     C26584   4.371   7.963   3.674  1.6160 -0.0477  1.3066
  202MOL0     C26585   4.231   7.988   3.694 -0.6558  0.1311  0.2609
  202MOL0     C26586   3.761   7.914   3.639 -0.5013 -0.4943 -0.1222
  202MOL0     C26587   3.725   8.047   3.684  0.6198  0.7081 -0.3624
  202MOL0     C26588   3.594   8.086   3.685 -0.9197  0.0920  0.6714
  202MOL0     C26589   3.493   8.006   3.649  0.9177  0.1853 -0.8477
  202MOL0     O26590   3.368   8.064   3.658  0.2309  0.1160  0.9433
  202MOL0     C26591   3.260   7.975   3.665  0.5561  0.9474  0.2754
  202MOL0     C26592   3.129   8.047   3.697  0.1277  0.1889  0.4567
  202MOL0     C26593   3.118   8.124   3.830 -0.5068  0.6670 -0.9005
  202MOL0     C26594   3.142   8.273   3.816  0.9162  0.5302 -0.2830
  202MOL0     C26595   3.017   8.326   3.764  0.0221  0.4452  0.0339
  202MOL0     C26596   2.912   8.372   3.721  0.1069  0.1093  0.4316
  202MOL0     C26597   3.519   7.875   3.602  0.1120  0.0987  0.2218
  202MOL0     C26598   3.652   7.828   3.599 -0.2844 -0.7409  0.2848
  202MOL0     H26599   4.096   7.785   3.451  0.5613 -0.3684  0.1714
  202MOL0     H26600   4.355   7.734   3.426 -0.5022 -0.1271  0.0158
  202MOL0     H26601   4.568   8.009   3.444  3.2746  0.5413 -0.5025
  202MOL0     H26602   4.599   7.859   3.352 -1.3349  0.0879 -0.7180
  202MOL0     H26603   4.791   7.804   3.492  2.2707  1.3334 -2.6411
  202MOL0     H26604   4.768   7.954   3.594 -3.4394  2.8415 -0.8889
  202MOL0     H26605   4.833   8.090   3.407  1.4829 -0.4171  0.6204
  202MOL0     H26606   4.823   7.964   3.294 -0.8729  1.2451  0.0254
  202MOL0     H26607   5.008   7.980   3.541 -1.0589  0.0274  0.8334
  202MOL0     H26608   5.011   7.843   3.427 -2.5479 -0.1628 -3.8238
  202MOL0     H26609   5.052   8.133   3.357 -3.8143 -0.9098  5.1371
  202MOL0     H26610   5.063   7.992   3.248 -0.0671 -0.7303  0.2226
  202MOL0     H26611   5.254   7.913   3.405 -1.7918 -0.4640  0.2576
  202MOL0     H26612   5.256   8.067   3.483  1.8125 -1.6986  0.3586
  202MOL0     H26613   5.299   8.017   3.185 -3.2363  0.4890  0.1589
  202MOL0     H26614   5.306   8.176   3.272 -0.1007  0.3224 -0.2710
  202MOL0     H26615   5.482   7.916   3.321  0.7674  0.2682 -1.8666
  202MOL0     H26616   5.500   8.075   3.398  0.5789  2.4301 -1.3818
  202MOL0     H26617   5.523   7.910   3.049 -4.4595  1.0298  2.1295
  202MOL0     H26618   5.678   8.091   2.798  0.3145 -0.4624 -0.2174
  202MOL0     H26619   5.703   7.923   2.847  1.1054 -0.4725  0.0307
  202MOL0     H26620   5.915   7.952   2.941 -0.3169  0.5583  0.3971
  202MOL0     H26621   5.912   8.126   2.911 -0.9467 -0.2166  2.6777
  202MOL0     H26622   5.904   7.888   2.716  0.0643 -0.5270  1.5990
  202MOL0     H26623   5.876   8.062   2.670  0.0455  0.2499  1.1916
  202MOL0     H26624   6.103   8.112   2.734  0.5974 -0.5168  3.6422
  202MOL0     H26625   6.115   7.974   2.623  0.5761 -0.9343  0.4543
  202MOL0     H26626   6.326   8.136   2.713 -1.2377 -0.3721 -0.1163
  202MOL0     H26627   6.534   8.122   2.680 -2.1157 -0.3570 -1.1301
  202MOL0     H26628   6.978   7.982   2.937  0.6341  1.1425  0.2939
  202MOL0     H26629   7.205   8.006   2.902 -2.9653 -1.5182  1.4457
  202MOL0     H26630   7.363   8.245   2.640 -1.4373 -0.3693 -0.3364
  202MOL0     H26631   7.350   8.144   2.489  1.5832 -4.1501  0.2171
  202MOL0     H26632   7.595   8.167   2.674  0.9502  0.2853 -0.6864
  202MOL0     H26633   7.580   8.197   2.494 -0.4126 -0.2811  0.1294
  202MOL0     H26634   7.553   7.967   2.451  0.1410  0.2020  0.5168
  202MOL0     H26635   7.552   7.938   2.633  0.6744 -0.1316  0.5211
  202MOL0     H26636   7.775   7.885   2.503 -0.0213 -1.2321  2.7425
  202MOL0     H26637   7.789   8.054   2.465  0.9107  2.5714  3.4695
  202MOL0     H26638   7.744   8.015   2.749  0.8170  3.8019 -0.3279
  202MOL0     H26639   7.874   8.109   2.660  0.9587  0.1030  0.4617
  202MOL0     H26640   7.960   7.857   2.596  1.6063  1.6282 -0.5572
  202MOL0     H26641   7.869   7.833   2.741 -0.9147  1.0391  0.1391
  202MOL0     H26642   8.032   8.016   2.841  2.1959  4.2877 -2.3165
  202MOL0     H26643   8.087   7.845   2.804 -1.8271 -0.7901  0.5012
  202MOL0     H26644   8.161   8.082   2.613  2.2345  0.3261 -0.6577
  202MOL0     H26645   8.172   7.910   2.590 -0.4033  0.0573  0.2271
  202MOL0     H26646   7.137   8.132   2.499 -0.4708  2.1214  0.0305
  202MOL0     H26647   6.902   8.112   2.529 -0.3539 -3.5441 -0.5181
  202MOL0     H26648   6.558   7.737   2.897 -2.1047 -1.8012 -1.7497
  202MOL0     H26649   6.320   7.749   2.918  0.7944 -0.6477 -0.7797
  202MOL0     H26650   4.444   8.001   3.745 -0.1841  0.6225  2.8787
  202MOL0     H26651   4.193   8.050   3.775  1.4926 -1.2186  2.4435
  202MOL0     H26652   3.800   8.105   3.736 -0.1538 -1.7240  3.9761
  202MOL0     H26653   3.576   8.185   3.726 -0.5643  0.0070  1.0445
  202MOL0     H26654   3.284   7.899   3.739 -1.4099  1.4044  1.4627
  202MOL0     H26655   3.244   7.926   3.569 -1.6674  0.2904  0.9229
  202MOL0     H26656   3.125   8.118   3.614  1.8779  0.0261  0.1785
  202MOL0     H26657   3.044   7.979   3.694 -0.0585  0.3763  1.3147
  202MOL0     H26658   3.196   8.085   3.896 -1.0408 -1.8969 -1.6889
  202MOL0     H26659   3.026   8.087   3.875  1.0530 -1.2533  0.9400
  202MOL0     H26660   3.158   8.304   3.920 -0.0130  0.7195 -0.1837
  202MOL0     H26661   3.219   8.305   3.746  0.0182  0.1068 -1.5105
  202MOL0     H26662   2.812   8.402   3.699  0.7371  1.0251 -1.4194
  202MOL0     H26663   3.436   7.818   3.563 -0.8291  0.7438  1.2109
  202MOL0     H26664   3.671   7.731   3.555 -2.6084 -0.1869 -2.2626
  203MOL0     O26665   7.687   8.720   5.625 -0.1785  0.3111  0.3892
  203MOL0     C26666   7.691   8.831   5.684 -0.8158 -0.3576  0.2001
  203MOL0     O26667   7.578   8.907   5.720 -0.8770 -0.2759  0.1222
  203MOL0     C26668   7.445   8.868   5.702 -0.4682  0.0461 -0.3595
  203MOL0     C26669   7.359   8.980   5.689 -0.8904  0.0364  0.2582
  203MOL0     C26670   7.230   8.954   5.662 -0.8214 -1.1083 -0.0989
  203MOL0     C26671   7.174   8.829   5.633  0.4203 -0.0514 -0.0812
  203MOL0     O26672   7.040   8.819   5.620  0.3553  0.0385 -0.7317
  203MOL0     C26673   6.982   8.689   5.590 -0.2959 -0.3008 -0.2313
  203MOL0     C26674   6.842   8.709   5.545  0.1813 -0.2352  0.3926
  203MOL0     C26675   6.773   8.574   5.515 -0.1951 -0.2815  0.4439
  203MOL0     C26676   6.630   8.592   5.473  0.3564 -0.9967  0.4873
  203MOL0     C26677   6.586   8.461   5.413  0.6271 -0.2060  0.1235
  203MOL0     C26678   6.438   8.471   5.372 -0.4671 -0.2472  1.5631
  203MOL0     C26679   6.378   8.328   5.348 -0.1614  0.2120 -0.1800
  203MOL0     C26680   6.248   8.301   5.263 -0.9288  0.0282  0.6972
  203MOL0     N26681   6.132   8.370   5.319  0.1278  0.2357 -0.4085
  203MOL0     C26682   6.056   8.465   5.266 -0.2672 -0.5337  0.7341
  203MOL0     C26683   5.965   8.505   5.365 -0.5222  0.1435  0.9502
  203MOL0     C26684   5.849   8.601   5.348  0.7608  0.3868 -0.5781
  203MOL0     C26685   5.727   8.510   5.330  0.4007  0.4850  0.0147
  203MOL0     C26686   5.726   8.477   5.176  0.3954 -0.6617 -0.4790
  203MOL0     C26687   5.635   8.370   5.137  0.3276  0.4219 -0.1143
  203MOL0     O26688   5.495   8.427   5.145 -0.3752 -0.1121 -0.0134
  203MOL0     C26689   5.394   8.360   5.087  1.1318 -0.1634  0.4632
  203MOL0     C26690   5.382   8.219   5.093  0.9884  0.4282 -0.1769
  203MOL0     C26691   5.271   8.143   5.041 -1.1542  0.1326 -0.4381
  203MOL0     C26692   5.174   8.213   4.979  0.0269 -0.4863  0.0081
  203MOL0     C26693   5.061   8.138   4.914 -0.4317  0.2256  0.6896
  203MOL0     O26694   4.949   8.212   4.898 -0.5032  0.0810  0.4539
  203MOL0     C26695   4.838   8.171   4.828  0.0290  0.4327 -0.7636
  203MOL0     C26696   4.832   8.064   4.732  1.0493  0.1205  0.1011
  203MOL0     C26697   4.718   8.027   4.673  0.5353 -0.3369 -0.2914
  203MOL0     C26698   4.598   8.088   4.714  0.1533 -0.3587  0.2470
  203MOL0     O26699   4.472   8.040   4.668  0.1470 -0.0084 -0.1595
  203MOL0     C26700   4.460   7.916   4.585 -0.2023  0.2920 -0.3361
  203MOL0     C26701   4.317   7.891   4.544  0.1565 -0.0762 -0.3253
  203MOL0     C26702   4.224   7.996   4.473 -0.7878 -0.4858  0.7972
  203MOL0     C26703   4.086   7.929   4.435 -0.5135  0.1538 -0.9022
  203MOL0     C26704   4.016   7.992   4.312 -0.0540 -0.1219 -1.0265
  203MOL0     C26705   3.937   8.118   4.354 -0.3323  0.0242  0.1572
  203MOL0     C26706   3.962   8.224   4.237 -0.7027 -0.2505 -0.4710
  203MOL0     C26707   4.073   8.331   4.259  0.4828 -0.5103 -0.1155
  203MOL0    Cl26708   4.224   8.267   4.185 -0.2358 -0.0497 -0.1384
  203MOL0     C26709   4.597   8.193   4.811 -0.7421 -0.2346  0.0854
  203MOL0     C26710   4.722   8.229   4.874 -0.0662  0.4094  0.2118
  203MOL0     O26711   5.078   8.024   4.882  0.3944  0.1672 -0.3641
  203MOL0     C26712   5.183   8.350   4.976  0.2474 -0.1430  0.2257
  203MOL0     C26713   5.283   8.428   5.037  0.0267 -0.0739  0.0588
  203MOL0     N26714   5.993   8.420   5.479  0.2323 -0.1580  0.3537
  203MOL0     N26715   6.090   8.341   5.443 -0.2654 -0.2933  0.6964
  203MOL0     C26716   7.265   8.725   5.632  0.6314 -0.7729  0.1923
  203MOL0     C26717   7.399   8.738   5.665 -0.3698  0.2887 -0.2679
  203MOL0     C26718   7.819   8.900   5.712 -0.0164  0.7655 -0.7463
  203MOL0     C26719   7.946   8.871   5.652  0.0268 -0.0182  0.6826
  203MOL0     C26720   8.054   8.966   5.674  0.3546 -0.3553 -0.2699
  203MOL0     C26721   8.038   9.076   5.752  0.5329 -0.8209 -0.0489
  203MOL0     O26722   8.137   9.169   5.773 -0.2201 -0.2969  0.4600
  203MOL0     C26723   8.278   9.146   5.721  0.2483  0.3152 -0.8848
  203MOL0     C26724   8.350   9.040   5.818 -0.5586 -0.4899  0.5595
  203MOL0     C26725   8.492   9.012   5.779  0.3421 -0.5211 -0.0390
  203MOL0     C26726   8.579   8.933   5.884  0.5150 -0.7446 -0.7825
  203MOL0     C26727   8.705   8.872   5.843  0.1485  0.2557  0.4131
  203MOL0     C26728   8.812   8.832   5.799 -0.4247 -0.9015 -0.5530
  203MOL0     C26729   7.919   9.094   5.822 -0.5381 -0.1470 -0.8073
  203MOL0     C26730   7.810   9.005   5.805 -0.3116 -0.2612  0.0717
  203MOL0     H26731   7.387   9.084   5.697 -0.7307  0.2830 -2.4453
  203MOL0     H26732   7.162   9.039   5.659 -0.0541 -0.4260  0.8529
  203MOL0     H26733   6.990   8.625   5.678  2.6046 -1.4348 -1.2008
  203MOL0     H26734   7.036   8.652   5.502  0.8561  2.1735 -0.6691
  203MOL0     H26735   6.852   8.762   5.450  2.1433 -2.8829 -1.0250
  203MOL0     H26736   6.781   8.767   5.614  3.9994  1.1722  2.9228
  203MOL0     H26737   6.796   8.501   5.594 -0.5116  1.3427  2.0842
  203MOL0     H26738   6.820   8.535   5.424 -0.0586 -1.6042  1.0550
  203MOL0     H26739   6.562   8.603   5.558 -1.1668 -3.1878 -0.3486
  203MOL0     H26740   6.618   8.673   5.401 -1.3317 -0.1601  1.6451
  203MOL0     H26741   6.605   8.380   5.484  1.8412  0.1149  0.2050
  203MOL0     H26742   6.639   8.439   5.320 -3.0296 -3.4048 -1.4641
  203MOL0     H26743   6.428   8.531   5.282 -1.4017  1.6024  2.8313
  203MOL0     H26744   6.380   8.506   5.458 -4.3567 -1.3651 -0.3462
  203MOL0     H26745   6.460   8.273   5.303 -1.0805 -0.5290 -0.9872
  203MOL0     H26746   6.357   8.295   5.451  0.4523  5.2829  1.8715
  203MOL0     H26747   6.245   8.193   5.251 -1.3830  0.1849 -0.8756
  203MOL0     H26748   6.258   8.336   5.160 -1.9338  3.6294  1.6771
  203MOL0     H26749   6.066   8.507   5.167  0.9048  2.0068  1.8387
  203MOL0     H26750   5.854   8.676   5.269  0.1584  0.1463 -0.8541
  203MOL0     H26751   5.836   8.647   5.447  2.2779  1.1596 -0.7143
  203MOL0     H26752   5.629   8.544   5.364 -0.5003 -2.5392  0.7340
  203MOL0     H26753   5.739   8.413   5.378  1.8187 -1.8659 -4.5637
  203MOL0     H26754   5.691   8.562   5.117 -0.0064 -1.8080 -1.9570
  203MOL0     H26755   5.825   8.441   5.145  1.8452  1.8571  0.8990
  203MOL0     H26756   5.655   8.287   5.206 -0.1523 -0.8187 -1.4146
  203MOL0     H26757   5.665   8.334   5.038  2.8303 -2.4662  1.5135
  203MOL0     H26758   5.456   8.151   5.135  1.3476  0.0760 -1.3481
  203MOL0     H26759   5.278   8.036   5.029  1.6660  0.3356 -1.3139
  203MOL0     H26760   4.921   8.014   4.694  0.2104 -1.7794  0.5125
  203MOL0     H26761   4.721   7.947   4.599 -1.9489 -0.6559 -0.1181
  203MOL0     H26762   4.494   7.827   4.638  1.7835  3.1553  3.6761
  203MOL0     H26763   4.520   7.936   4.496  0.1270  1.9500  0.2196
  203MOL0     H26764   4.266   7.866   4.638  1.6946 -0.3657  0.4618
  203MOL0     H26765   4.323   7.806   4.476  3.1223  0.4543 -0.8368
  203MOL0     H26766   4.271   8.035   4.383 -2.1567  0.6551  0.5362
  203MOL0     H26767   4.216   8.088   4.533  3.7032 -0.4256  1.5863
  203MOL0     H26768   4.116   7.831   4.400  0.1133 -0.2316  0.6154
  203MOL0     H26769   4.023   7.920   4.525  0.9263  1.2706  0.2789
  203MOL0     H26770   3.954   7.915   4.266  1.3673 -1.2088 -1.1822
  203MOL0     H26771   4.099   8.018   4.246  0.2824 -0.7660 -0.8631
  203MOL0     H26772   3.957   8.155   4.455 -4.6526 -2.2042  2.0835
  203MOL0     H26773   3.830   8.099   4.343 -0.1480 -1.3182  0.5766
  203MOL0     H26774   3.960   8.185   4.135 -1.8289  1.9460 -1.3507
  203MOL0     H26775   3.875   8.289   4.245 -0.2500  0.1372  3.8467
  203MOL0     H26776   4.084   8.362   4.364  0.6000 -0.8738 -0.0172
  203MOL0     H26777   4.041   8.423   4.211  2.4722 -0.5121 -1.5790
  203MOL0     H26778   4.509   8.251   4.837 -0.1978  0.9603 -0.6674
  203MOL0     H26779   4.740   8.304   4.950  0.8316  0.4589 -0.0411
  203MOL0     H26780   5.101   8.397   4.922  1.1403 -0.8064 -1.8178
  203MOL0     H26781   5.278   8.536   5.029  0.7671 -0.1125 -1.4037
  203MOL0     H26782   7.226   8.626   5.612 -3.2143  0.6983 -0.4994
  203MOL0     H26783   7.470   8.655   5.666 -1.4933 -0.7199 -0.9645
  203MOL0     H26784   7.968   8.788   5.584 -1.1074  1.1536 -1.2042
  203MOL0     H26785   8.144   8.950   5.616  0.0457 -0.2893 -0.7654
  203MOL0     H26786   8.331   9.242   5.729  0.6806 -0.0049  0.4175
  203MOL0     H26787   8.288   9.112   5.618  0.3405  2.6524 -1.7161
  203MOL0     H26788   8.348   9.078   5.920 -0.2685 -4.8072  2.4131
  203MOL0     H26789   8.293   8.947   5.813 -1.9975  0.4097 -0.8217
  203MOL0     H26790   8.535   9.110   5.761 -2.8828  1.0667  0.2239
  203MOL0     H26791   8.493   8.957   5.685  2.3331 -1.5859  0.5367
  203MOL0     H26792   8.598   9.003   5.965  2.7580 -2.8557  0.6859
  203MOL0     H26793   8.529   8.854   5.941  1.2745  0.8725  2.3831
  203MOL0     H26794   8.908   8.812   5.755 -0.3297 -1.1233 -0.2489
  203MOL0     H26795   7.910   9.183   5.883 -3.5398 -0.5266 -0.5775
  203MOL0     H26796   7.718   9.015   5.861 -0.5818 -1.1388 -0.1950
  204MOL0     O26797   4.683   2.498   3.691  0.0849  0.5594 -0.3949
  204MOL0     C26798   4.726   2.409   3.764  0.1773  0.2182  0.6346
  204MOL0     O26799   4.655   2.349   3.855  0.5767 -0.1020  0.2077
  204MOL0     C26800   4.522   2.334   3.824 -0.2123 -0.2056 -0.3593
  204MOL0     C26801   4.435   2.423   3.871 -0.2073  1.3357  0.2027
  204MOL0     C26802   4.294   2.409   3.855 -0.4445 -0.9999  0.5674
  204MOL0     C26803   4.247   2.280   3.806 -0.5205  0.4289 -0.8864
  204MOL0     O26804   4.111   2.265   3.813 -0.1660  0.3765  0.0414
  204MOL0     C26805   4.052   2.162   3.740  0.2937  0.4553  0.2014
  204MOL0     C26806   3.904   2.161   3.746  0.5388 -0.2468  0.6427
  204MOL0     C26807   3.847   2.296   3.693 -0.4150 -0.7318 -0.4180
  204MOL0     C26808   3.703   2.320   3.738 -0.1466  0.3064  0.4341
  204MOL0     C26809   3.603   2.220   3.678 -1.0006 -0.2713  0.7192
  204MOL0     C26810   3.467   2.287   3.687  0.2472 -0.3919 -0.0797
  204MOL0     C26811   3.350   2.188   3.677 -0.3754 -0.8624 -0.5774
  204MOL0     C26812   3.351   2.106   3.546 -0.9115 -0.7748 -0.1171
  204MOL0     N26813   3.243   2.006   3.531  0.2577 -0.7237  0.2727
  204MOL0     C26814   3.246   1.914   3.434 -1.0870 -0.2560 -0.0694
  204MOL0     C26815   3.147   1.832   3.455  0.1097 -0.1049  0.1745
  204MOL0     C26816   3.107   1.716   3.373  0.5489  0.4053 -1.0932
  204MOL0     C26817   3.056   1.603   3.470 -0.1856  0.6506 -0.0825
  204MOL0     C26818   3.044   1.474   3.398 -0.6442 -0.7583 -0.0681
  204MOL0     C26819   2.936   1.466   3.294 -0.5242 -0.5782  0.6488
  204MOL0     O26820   2.927   1.340   3.223  0.4429  0.0328 -0.0458
  204MOL0     C26821   2.821   1.311   3.134 -0.5327 -0.4088 -0.5093
  204MOL0     C26822   2.710   1.397   3.107 -0.1445 -0.2096 -0.4391
  204MOL0     C26823   2.609   1.359   3.024 -0.9684 -0.2453  0.8376
  204MOL0     C26824   2.608   1.234   2.961  0.4901 -0.1648  0.7152
  204MOL0     C26825   2.483   1.206   2.883  0.3790  0.3236 -0.2617
  204MOL0     O26826   2.365   1.230   2.937 -0.0510  0.2145 -0.5534
  204MOL0     C26827   2.238   1.196   2.881  0.2305  0.1973 -0.7853
  204MOL0     C26828   2.120   1.260   2.938 -0.6804  0.2659  0.6115
  204MOL0     C26829   1.996   1.227   2.899  0.3335  0.5996 -0.0753
  204MOL0     C26830   1.985   1.140   2.791  0.9834 -0.4004 -0.7369
  204MOL0     O26831   1.862   1.109   2.729  0.0851  0.2745 -0.2445
  204MOL0     C26832   1.739   1.115   2.800 -0.3476 -0.7910  0.2720
  204MOL0     C26833   1.632   1.135   2.694  1.1146 -0.4745  0.2951
  204MOL0     C26834   1.488   1.147   2.760  0.1756  0.9562  0.7730
  204MOL0     C26835   1.380   1.176   2.656 -0.6699 -0.3706  0.1181
  204MOL0     C26836   1.231   1.167   2.688  0.3415 -0.0978 -0.2426
  204MOL0     C26837   1.195   1.030   2.755 -0.7036  0.4037 -0.8026
  204MOL0     C26838   1.040   1.002   2.750  0.1526  0.6760 -0.3912
  204MOL0     C26839   1.011   0.853   2.776  0.2949 -0.6029 -0.1162
  204MOL0    Cl26840   1.067   0.794   2.932  0.2936 -0.1632 -0.1275
  204MOL0     C26841   2.090   1.077   2.734  0.1214  0.1959 -0.8423
  204MOL0     C26842   2.214   1.103   2.782  0.9754  0.3047 -0.1271
  204MOL0     O26843   2.495   1.160   2.773  0.1082  0.4687  0.4585
  204MOL0     C26844   2.712   1.142   2.990  0.2591 -0.1922  0.0285
  204MOL0     C26845   2.814   1.180   3.080  0.0677 -0.2093 -0.2838
  204MOL0     N26846   3.086   1.868   3.572 -0.4064  0.0381 -0.0303
  204MOL0     N26847   3.142   1.977   3.619  0.3752 -0.5703 -0.1472
  204MOL0     C26848   4.337   2.186   3.750  0.1955  0.2138 -0.2281
  204MOL0     C26849   4.478   2.214   3.763  0.0830 -1.1351  0.2490
  204MOL0     C26850   4.871   2.377   3.749 -0.5119  0.9566 -1.0429
  204MOL0     C26851   4.956   2.431   3.648  0.6156  0.6311  0.0846
  204MOL0     C26852   5.090   2.398   3.637  0.1929  0.0615  0.5414
  204MOL0     C26853   5.150   2.324   3.745 -0.1516  0.8663  0.0174
  204MOL0     O26854   5.279   2.274   3.756 -0.0591 -0.8913  0.1770
  204MOL0     C26855   5.378   2.325   3.667 -0.4155 -0.3615 -1.1533
  204MOL0     C26856   5.510   2.324   3.726 -1.2376 -0.3240 -0.3430
  204MOL0     C26857   5.623   2.345   3.623 -0.3978  0.2377  0.7264
  204MOL0     C26858   5.755   2.328   3.693 -1.0170 -0.1698  0.2616
  204MOL0     C26859   5.851   2.345   3.580 -0.7120  0.1074 -0.1216
  204MOL0     C26860   5.930   2.373   3.486  0.1886  0.2836  0.8836
  204MOL0     C26861   5.067   2.272   3.842 -1.3060 -0.1897 -0.5034
  204MOL0     C26862   4.932   2.301   3.842  0.0009  0.2192  0.0777
  204MOL0     H26863   4.465   2.527   3.881  2.0536  0.9894 -1.9944
  204MOL0     H26864   4.219   2.481   3.883 -1.6239 -0.5877 -3.1052
  204MOL0     H26865   4.077   2.062   3.778 -3.9292 -0.3922  1.2336
  204MOL0     H26866   4.089   2.167   3.637 -0.2744 -2.3188 -0.2128
  204MOL0     H26867   3.887   2.160   3.855  3.2466 -0.1544  1.1217
  204MOL0     H26868   3.856   2.072   3.705  1.2741 -1.2565  1.8922
  204MOL0     H26869   3.851   2.300   3.584 -0.8697 -1.2113 -0.4587
  204MOL0     H26870   3.905   2.381   3.728  1.2503 -1.2792 -1.7048
  204MOL0     H26871   3.707   2.315   3.847  1.1996 -3.6314  0.3480
  204MOL0     H26872   3.689   2.420   3.697  1.3756 -0.7972 -3.1740
  204MOL0     H26873   3.598   2.128   3.738 -1.0844  0.6205  2.1217
  204MOL0     H26874   3.627   2.200   3.573 -3.3194 -0.0357  0.1011
  204MOL0     H26875   3.456   2.372   3.619  1.3841  0.9368  1.3151
  204MOL0     H26876   3.464   2.338   3.784  0.8510  2.1586 -1.3194
  204MOL0     H26877   3.361   2.116   3.759  0.9383 -1.0801 -0.9121
  204MOL0     H26878   3.264   2.255   3.683 -0.1643 -0.3236 -2.7612
  204MOL0     H26879   3.446   2.056   3.523 -1.6235 -1.9626 -0.5380
  204MOL0     H26880   3.327   2.180   3.469  0.1289  1.0655  1.2260
  204MOL0     H26881   3.319   1.908   3.354 -0.4634  2.3587  0.2243
  204MOL0     H26882   3.192   1.682   3.313  0.7133 -0.2183 -0.5245
  204MOL0     H26883   3.030   1.747   3.303 -1.2360 -0.5032  0.3830
  204MOL0     H26884   2.963   1.627   3.523 -1.9474  2.9630 -3.7690
  204MOL0     H26885   3.142   1.588   3.537 -0.3738  0.7458  0.1817
  204MOL0     H26886   3.142   1.449   3.356  0.3515  2.0514  0.3857
  204MOL0     H26887   3.029   1.385   3.461  0.1348  1.1550  3.0315
  204MOL0     H26888   2.969   1.538   3.218  0.8734 -0.7862  1.0300
  204MOL0     H26889   2.839   1.481   3.341 -0.1210 -0.6065  1.5140
  204MOL0     H26890   2.694   1.497   3.147  0.2204 -0.4401  0.2936
  204MOL0     H26891   2.527   1.429   3.008 -1.9930 -1.0919  2.1136
  204MOL0     H26892   2.150   1.330   3.016  1.2027 -0.5853  0.7077
  204MOL0     H26893   1.912   1.285   2.937  0.2694  0.3891  0.1061
  204MOL0     H26894   1.728   1.204   2.863 -0.0943  0.0013 -0.7729
  204MOL0     H26895   1.717   1.025   2.858 -2.0430  1.0380  2.6612
  204MOL0     H26896   1.629   1.043   2.636  0.6748 -0.9709  1.0809
  204MOL0     H26897   1.642   1.227   2.636 -2.0152 -1.7790 -2.6116
  204MOL0     H26898   1.497   1.220   2.840  1.9092 -0.8782  2.3735
  204MOL0     H26899   1.471   1.048   2.803  1.5489  0.6507  0.6681
  204MOL0     H26900   1.393   1.275   2.612 -1.7388 -0.8525 -1.3538
  204MOL0     H26901   1.388   1.099   2.580 -4.6123 -1.4807  0.5926
  204MOL0     H26902   1.178   1.173   2.592  1.3153  3.7425 -0.6791
  204MOL0     H26903   1.196   1.251   2.749  1.4823  1.4469 -1.6473
  204MOL0     H26904   1.236   1.034   2.856 -3.0653 -3.4443  0.5227
  204MOL0     H26905   1.233   0.946   2.697 -3.2402 -2.6291  1.5748
  204MOL0     H26906   0.995   1.063   2.829 -1.7502 -2.5034  1.1594
  204MOL0     H26907   1.011   1.021   2.646 -2.4112 -1.3572 -0.1384
  204MOL0     H26908   1.052   0.783   2.703  1.4304 -0.1525  0.0834
  204MOL0     H26909   0.901   0.847   2.781  0.2103  1.2382  1.8725
  204MOL0     H26910   2.080   1.010   2.649  0.4630 -0.1426 -0.6166
  204MOL0     H26911   2.284   1.039   2.728  0.8215 -1.9046  2.1239
  204MOL0     H26912   2.706   1.042   2.948 -1.5743  0.2624 -0.9253
  204MOL0     H26913   2.902   1.121   3.104  0.3976  0.2831 -0.2594
  204MOL0     H26914   4.304   2.088   3.717  0.5277 -0.0741  0.2950
  204MOL0     H26915   4.560   2.156   3.723  0.5960 -2.2030  2.6574
  204MOL0     H26916   4.908   2.492   3.572  2.2191  2.2862  0.3337
  204MOL0     H26917   5.149   2.414   3.547 -0.5758  0.6263  0.1214
  204MOL0     H26918   5.350   2.429   3.644 -1.5312 -0.6211 -1.0387
  204MOL0     H26919   5.381   2.263   3.577  0.6684 -1.1658 -0.5783
  204MOL0     H26920   5.515   2.403   3.801 -2.6373  0.4523 -1.0175
  204MOL0     H26921   5.527   2.226   3.771 -1.0676 -0.3478 -0.4599
  204MOL0     H26922   5.617   2.443   3.574  0.8100 -0.2727 -0.5150
  204MOL0     H26923   5.619   2.264   3.549 -0.3197  0.5075  0.4264
  204MOL0     H26924   5.771   2.407   3.767  0.4067  2.0047 -2.1864
  204MOL0     H26925   5.778   2.230   3.736  2.7331 -0.2606 -1.5663
  204MOL0     H26926   5.977   2.397   3.393 -1.4237 -2.5025 -0.7871
  204MOL0     H26927   5.096   2.210   3.927 -2.1645  0.0048 -0.0481
  204MOL0     H26928   4.874   2.273   3.930 -0.0484  0.8014  0.2362
  205MOL0     O26929   5.601   2.615   7.014 -0.1140  0.2953 -0.2365
  205MOL0     C26930   5.562   2.681   6.915 -0.2460 -1.0759 -0.3090
  205MOL0     O26931   5.443   2.716   6.885 -0.2810  0.8812 -0.2338
  205MOL0     C26932   5.335   2.652   6.943  0.1254 -0.4727 -0.6399
  205MOL0     C26933   5.230   2.724   6.986  0.6026  0.2975 -0.5228
  205MOL0     C26934   5.111   2.664   7.034  0.4307 -0.8453  0.1170
  205MOL0     C26935   5.099   2.527   7.036  0.0020  0.2983  0.3216
  205MOL0     O26936   4.971   2.476   7.064 -0.2936 -0.4426 -0.1179
  205MOL0     C26937   4.964   2.336   7.114 -0.5608  0.1318  0.2960
  205MOL0     C26938   4.840   2.276   7.040  0.1080 -0.4935  0.2739
  205MOL0     C26939   4.814   2.127   7.068  0.0492  0.1198 -1.4841
  205MOL0     C26940   4.671   2.094   7.027 -0.6452 -0.4509 -0.2479
  205MOL0     C26941   4.650   1.940   7.016 -0.2400 -0.3872  0.0253
  205MOL0     C26942   4.511   1.897   6.981  0.5035  0.2272  0.2086
  205MOL0     C26943   4.424   1.907   7.110  0.3295 -0.3535 -0.3282
  205MOL0     C26944   4.291   1.824   7.093 -0.2134  0.2964  0.5531
  205MOL0     N26945   4.186   1.872   7.181  0.4603 -0.4039 -0.6270
  205MOL0     C26946   4.184   1.885   7.321 -0.1315  0.6462 -0.2960
  205MOL0     C26947   4.059   1.914   7.359  0.0400  0.6862 -0.5738
  205MOL0     C26948   4.016   1.962   7.495 -0.5680  0.6713 -0.7445
  205MOL0     C26949   4.057   2.105   7.521  0.7963 -0.2625  0.1095
  205MOL0     C26950   3.982   2.184   7.632 -0.3414  0.0588 -0.5148
  205MOL0     C26951   3.841   2.206   7.610  0.3565  0.1274  1.0174
  205MOL0     O26952   3.798   2.284   7.720  0.1547  0.2592 -0.3362
  205MOL0     C26953   3.666   2.327   7.735 -0.7079 -1.1750 -0.8642
  205MOL0     C26954   3.646   2.422   7.833 -0.0781  0.2580 -0.6887
  205MOL0     C26955   3.515   2.469   7.854  0.2529 -0.6907 -1.1255
  205MOL0     C26956   3.404   2.437   7.777 -0.0281  0.5284  0.2114
  205MOL0     C26957   3.268   2.494   7.810 -0.9330  0.4179  0.2175
  205MOL0     O26958   3.248   2.563   7.925 -0.6944  0.2980  0.3509
  205MOL0     C26959   3.111   2.580   7.963 -0.5819  0.9042  1.0629
  205MOL0     C26960   3.044   2.472   8.029 -0.3441 -0.8696  0.5708
  205MOL0     C26961   2.909   2.477   8.057  0.1561 -0.2544  0.2776
  205MOL0     C26962   2.834   2.583   8.014  0.2034  0.5504  0.3893
  205MOL0     O26963   2.699   2.600   8.041 -0.5097 -0.4830 -0.2099
  205MOL0     C26964   2.632   2.519   8.144 -0.3446  0.3115  0.3701
  205MOL0     C26965   2.487   2.563   8.169 -0.0678  0.4021 -0.4754
  205MOL0     C26966   2.421   2.466   8.262  0.6391 -0.3967 -0.5968
  205MOL0     C26967   2.276   2.515   8.285 -0.5139  0.6928 -0.2036
  205MOL0     C26968   2.200   2.453   8.402 -0.0424  0.2680 -0.5006
  205MOL0     C26969   2.049   2.479   8.405  0.1635 -0.1244  0.4706
  205MOL0     C26970   2.006   2.418   8.546 -0.4666 -0.5550  0.3627
  205MOL0     C26971   1.878   2.479   8.601  0.5650  0.5162  0.3738
  205MOL0    Cl26972   1.813   2.401   8.746 -0.0671 -0.2939 -0.1166
  205MOL0     C26973   2.901   2.685   7.948  0.9078  0.2226 -0.4307
  205MOL0     C26974   3.036   2.687   7.926 -0.0048 -0.0354 -0.0285
  205MOL0     O26975   3.182   2.461   7.730  0.2639 -0.0921  0.0244
  205MOL0     C26976   3.441   2.349   7.669  0.1581  0.0066 -0.1302
  205MOL0     C26977   3.564   2.288   7.655 -0.3414 -0.5527  0.3979
  205MOL0     N26978   3.977   1.902   7.246 -0.0173  0.3662 -0.2445
  205MOL0     N26979   4.055   1.877   7.141 -0.1765 -0.1483 -0.1297
  205MOL0     C26980   5.202   2.449   6.987 -0.3119 -0.3200 -0.9046
  205MOL0     C26981   5.321   2.512   6.947  0.2330  0.5561  0.7246
  205MOL0     C26982   5.669   2.735   6.823 -1.0421  0.2045 -1.2370
  205MOL0     C26983   5.634   2.848   6.740  0.0010 -0.8506  0.2621
  205MOL0     C26984   5.733   2.902   6.648 -0.5995 -0.7476  0.4752
  205MOL0     C26985   5.855   2.837   6.643 -0.3262  0.3296  0.3457
  205MOL0     O26986   5.950   2.875   6.553  0.6807  0.9221 -0.3438
  205MOL0     C26987   6.018   3.002   6.576  0.9086 -0.0099 -1.2456
  205MOL0     C26988   6.124   2.994   6.677  0.0100  0.3156 -0.3234
  205MOL0     C26989   6.234   2.902   6.619 -0.8095 -0.6599  0.0660
  205MOL0     C26990   6.346   2.868   6.716 -0.9335 -0.2427 -0.6297
  205MOL0     C26991   6.291   2.786   6.828  0.8954  0.0539 -0.3243
  205MOL0     C26992   6.239   2.717   6.912  1.0072 -0.3525 -0.3986
  205MOL0     C26993   5.891   2.737   6.731  0.2431  0.2971  0.5025
  205MOL0     C26994   5.802   2.686   6.829 -0.7461  0.0184  0.6912
  205MOL0     H26995   5.244   2.832   6.975  2.1972  0.0247 -1.5520
  205MOL0     H26996   5.028   2.731   7.053  0.7144 -0.7342  1.0341
  205MOL0     H26997   4.951   2.339   7.223  0.1659 -3.4052  0.6109
  205MOL0     H26998   5.054   2.274   7.100 -0.5525  0.7631 -3.2478
  205MOL0     H26999   4.838   2.302   6.934  0.4123  2.3020  0.8666
  205MOL0     H27000   4.761   2.332   7.092  1.1244 -0.3547  1.7228
  205MOL0     H27001   4.834   2.095   7.170  0.4722 -2.9153 -2.4169
  205MOL0     H27002   4.882   2.063   7.012 -0.5887 -3.7592  1.7414
  205MOL0     H27003   4.590   2.140   7.086  0.2837  3.6158 -1.7882
  205MOL0     H27004   4.664   2.137   6.927  2.5972  0.3228 -0.2556
  205MOL0     H27005   4.687   1.900   7.111  2.3469  1.9348  0.1441
  205MOL0     H27006   4.719   1.890   6.947 -1.0612 -1.9362  0.2962
  205MOL0     H27007   4.517   1.792   6.949  3.5566 -0.4109  2.4288
  205MOL0     H27008   4.461   1.958   6.906  4.3732 -0.1380 -2.9839
  205MOL0     H27009   4.476   1.859   7.194 -2.6826 -0.1780  1.8082
  205MOL0     H27010   4.403   2.009   7.144 -2.5629 -0.7746 -0.5347
  205MOL0     H27011   4.328   1.726   7.123  3.9486  0.8087 -2.0933
  205MOL0     H27012   4.253   1.822   6.991 -0.5060  2.9664  0.5208
  205MOL0     H27013   4.273   1.867   7.380 -0.6617 -3.1493 -0.4133
  205MOL0     H27014   4.058   1.898   7.573 -2.0796 -0.1140 -0.5453
  205MOL0     H27015   3.908   1.949   7.490 -0.4097 -1.9752  0.6873
  205MOL0     H27016   4.040   2.153   7.424 -1.6112 -1.7153 -0.3033
  205MOL0     H27017   4.164   2.101   7.543  0.7768  1.0832  0.4835
  205MOL0     H27018   3.994   2.142   7.733 -0.7752  1.1591  0.0108
  205MOL0     H27019   4.045   2.273   7.630  0.6890 -0.5264  1.9465
  205MOL0     H27020   3.786   2.113   7.621  0.2993 -0.4869 -2.9604
  205MOL0     H27021   3.832   2.250   7.510  3.2419 -0.4014  0.4372
  205MOL0     H27022   3.727   2.455   7.897 -0.6995 -0.7125  0.6428
  205MOL0     H27023   3.502   2.549   7.926  0.1776 -1.3882 -0.3417
  205MOL0     H27024   3.091   2.377   8.053 -0.7266 -0.7107  2.1131
  205MOL0     H27025   2.876   2.394   8.119 -1.1556 -0.1541 -0.2617
  205MOL0     H27026   2.693   2.517   8.235  0.8576  2.4134 -0.3277
  205MOL0     H27027   2.624   2.417   8.107  3.5186  1.0149 -3.0812
  205MOL0     H27028   2.436   2.559   8.072 -1.6872  2.4408  0.2026
  205MOL0     H27029   2.501   2.665   8.206 -0.4176  0.3817 -0.2795
  205MOL0     H27030   2.475   2.462   8.357 -2.0298 -0.3203  1.0099
  205MOL0     H27031   2.436   2.367   8.216  3.4815 -0.6946  0.7507
  205MOL0     H27032   2.260   2.622   8.298 -2.6175  0.4597 -0.4928
  205MOL0     H27033   2.223   2.481   8.195 -0.3888 -2.5161  0.8009
  205MOL0     H27034   2.253   2.480   8.494  2.7406 -2.3696 -1.1449
  205MOL0     H27035   2.208   2.344   8.390 -2.8319  0.0447 -0.9531
  205MOL0     H27036   1.996   2.432   8.321 -3.8312  2.3390  1.3292
  205MOL0     H27037   2.025   2.586   8.406 -1.0868 -0.3864  0.7380
  205MOL0     H27038   1.993   2.310   8.537 -0.2763 -0.6833  1.4518
  205MOL0     H27039   2.080   2.449   8.620  0.0130  2.0226 -1.0559
  205MOL0     H27040   1.814   2.473   8.512 -0.0275  5.8272  0.0928
  205MOL0     H27041   1.893   2.584   8.629 -2.4075  0.8549  1.0376
  205MOL0     H27042   2.847   2.764   7.896 -0.2783 -0.1817  0.1556
  205MOL0     H27043   3.085   2.771   7.877  1.4131 -0.0692  1.2608
  205MOL0     H27044   3.368   2.329   7.592  0.7497 -0.9607 -0.4559
  205MOL0     H27045   3.578   2.205   7.586  1.8499  1.0032 -1.1728
  205MOL0     H27046   5.186   2.342   6.975 -3.5290  0.1679 -2.0441
  205MOL0     H27047   5.398   2.451   6.902  0.7681  1.2427  0.6922
  205MOL0     H27048   5.536   2.895   6.740 -0.1028 -0.9927  2.2468
  205MOL0     H27049   5.721   2.995   6.594 -0.0579 -1.9106 -1.7648
  205MOL0     H27050   5.937   3.070   6.604 -0.9518 -2.3575 -0.5917
  205MOL0     H27051   6.066   3.033   6.482  0.6607 -0.4973 -1.5356
  205MOL0     H27052   6.167   3.093   6.697  2.8198 -0.7240 -0.8600
  205MOL0     H27053   6.087   2.958   6.774 -0.4134 -0.4691 -0.7653
  205MOL0     H27054   6.272   2.935   6.522 -0.5934 -2.5902 -0.5388
  205MOL0     H27055   6.196   2.804   6.589  0.7416 -1.1551 -0.3762
  205MOL0     H27056   6.423   2.808   6.667 -0.0223  1.0422 -0.8233
  205MOL0     H27057   6.391   2.957   6.762  1.9367 -2.2397  0.6898
  205MOL0     H27058   6.214   2.645   6.987 -0.1826 -0.7865 -1.1767
  205MOL0     H27059   5.984   2.686   6.707  0.3401 -0.4701  2.3046
  205MOL0     H27060   5.830   2.599   6.887  0.5120  1.4919  2.4433
  206MOL0     O27061   8.030  10.799   0.122  0.3919  0.2118  0.3068
  206MOL0     C27062   7.988  10.874   0.211 -0.0468 -0.8393 -0.5795
  206MOL0     O27063   7.871  10.859   0.285 -0.1285  0.1836 -0.4922
  206MOL0     C27064   7.771  10.765   0.246  0.5316  0.0195 -0.2724
  206MOL0     C27065   7.752  10.712   0.112 -0.3119  0.4799  0.0199
  206MOL0     C27066   7.634  10.638   0.088  0.2554 -0.5983 -0.2613
  206MOL0     C27067   7.536  10.608   0.187  1.0867 -0.1286 -0.3610
  206MOL0     O27068   7.429  10.534   0.148  0.8214 -0.1212 -0.3523
  206MOL0     C27069   7.322  10.513   0.249 -0.3812 -0.8189  0.1145
  206MOL0     C27070   7.223  10.415   0.192 -0.8643 -0.4920  0.0851
  206MOL0     C27071   7.088  10.410   0.267  1.0559 -0.8884  0.0509
  206MOL0     C27072   7.048  10.262   0.268  0.4259 -0.5695 -1.1679
  206MOL0     C27073   6.898  10.243   0.299 -0.2304  1.5640 -0.7056
  206MOL0     C27074   6.802  10.292   0.196  0.5971  0.2186  0.0264
  206MOL0     C27075   6.778  10.183   0.082 -0.0148  0.1091  0.1540
  206MOL0     C27076   6.711  10.229  -0.042  0.1433  0.0939 -0.4254
  206MOL0     N27077   6.581  10.163  -0.077  0.1951  0.1736  0.0510
  206MOL0     C27078   6.459  10.206  -0.023 -0.9518 -0.4944 -0.2549
  206MOL0     C27079   6.364  10.130  -0.089 -0.6901 -0.0794  0.3414
  206MOL0     C27080   6.212  10.128  -0.058 -0.1535  0.5707  0.3178
  206MOL0     C27081   6.146   9.987  -0.037  0.5290 -0.5975  0.3603
  206MOL0     C27082   6.002  10.001   0.002  0.2688  0.9810 -0.3383
  206MOL0     C27083   5.923  10.068  -0.115 -0.4657 -0.1873 -0.1050
  206MOL0     O27084   5.791  10.031  -0.137 -0.2577  0.6429  0.5043
  206MOL0     C27085   5.694  10.053  -0.041 -0.1444 -0.2853  0.0191
  206MOL0     C27086   5.708  10.128   0.072 -0.3329  0.0752 -0.5248
  206MOL0     C27087   5.606  10.145   0.169 -0.1450  0.5384 -0.2655
  206MOL0     C27088   5.487  10.081   0.154  1.0372  0.0518  0.0814
  206MOL0     C27089   5.376  10.101   0.250  0.3994 -0.6343 -0.1490
  206MOL0     O27090   5.253  10.056   0.201  0.2247 -0.9509 -0.0646
  206MOL0     C27091   5.136  10.090   0.264  0.0428  0.5070  0.4699
  206MOL0     C27092   5.060  10.209   0.246  0.4338 -0.6816 -0.8219
  206MOL0     C27093   4.942  10.231   0.321  0.3700 -0.2192  0.1921
  206MOL0     C27094   4.884  10.126   0.392 -0.5223  0.5914  0.4457
  206MOL0     O27095   4.763  10.120   0.442  0.5746 -0.8405  0.1242
  206MOL0     C27096   4.662  10.034   0.376 -0.0671 -0.4586 -0.1111
  206MOL0     C27097   4.549  10.135   0.337  0.2042 -0.4970 -0.4932
  206MOL0     C27098   4.415  10.062   0.313 -0.4986  0.2778  0.0351
  206MOL0     C27099   4.326  10.164   0.266  1.1257 -0.0226  0.2376
  206MOL0     C27100   4.200  10.098   0.219  0.3737  0.1196  0.1638
  206MOL0     C27101   4.085  10.191   0.164 -0.3563 -0.2859 -0.5501
  206MOL0     C27102   3.975  10.101   0.103  0.0548 -0.2347 -0.5399
  206MOL0     C27103   3.856  10.179   0.054 -0.2829  0.6465 -0.1117
  206MOL0    Cl27104   3.707  10.086   0.045  0.0935 -0.1569  0.2822
  206MOL0     C27105   4.963  10.011   0.408  0.3374 -0.4751  0.3440
  206MOL0     C27106   5.083   9.997   0.344 -0.6449 -0.0019  0.7906
  206MOL0     O27107   5.396  10.156   0.358  0.0504 -0.1697  0.1536
  206MOL0     C27108   5.460  10.014   0.032 -0.5388  0.9021 -0.0093
  206MOL0     C27109   5.569  10.001  -0.061 -0.2942 -0.8461 -0.7143
  206MOL0     N27110   6.431  10.041  -0.174 -0.0873 -0.4526 -0.2907
  206MOL0     N27111   6.561  10.064  -0.171 -0.0412 -0.0529 -0.1102
  206MOL0     C27112   7.570  10.664   0.311 -0.5659 -0.5626 -0.0781
  206MOL0     C27113   7.679  10.747   0.347  0.6972 -0.5153  0.1929
  206MOL0     C27114   8.087  10.965   0.266  0.5520  0.5400  0.4756
  206MOL0     C27115   8.108  10.983   0.399 -0.4252 -0.5102  0.0605
  206MOL0     C27116   8.200  11.076   0.445 -0.2362  0.4864  0.0689
  206MOL0     C27117   8.269  11.155   0.356 -0.2067 -0.0797 -0.5574
  206MOL0     O27118   8.367  11.248   0.383  0.2631 -0.3710  1.0158
  206MOL0     C27119   8.373  11.275   0.524  0.5621 -0.0188  0.5595
  206MOL0     C27120   8.474  11.386   0.552 -0.3557 -0.0211  0.7558
  206MOL0     C27121   8.625  11.360   0.516  0.7619 -0.2308  0.2482
  206MOL0     C27122   8.702  11.471   0.581  0.4256  0.4009  0.5040
  206MOL0     C27123   8.851  11.452   0.566  1.0146 -0.7849  0.8170
  206MOL0     C27124   8.968  11.445   0.543  0.6894 -0.6602  0.2797
  206MOL0     C27125   8.260  11.119   0.224 -0.0691 -0.1829  0.2432
  206MOL0     C27126   8.173  11.030   0.175  0.0725  0.8616 -0.4370
  206MOL0     H27127   7.832  10.715   0.038  1.9198 -1.2781  2.1881
  206MOL0     H27128   7.620  10.582  -0.004 -0.3713  0.1450 -0.6264
  206MOL0     H27129   7.261  10.603   0.265 -4.0499 -2.8310 -1.3659
  206MOL0     H27130   7.355  10.489   0.350 -1.2470 -0.6902  0.4365
  206MOL0     H27131   7.275  10.320   0.179  0.6285  0.2193  0.5102
  206MOL0     H27132   7.211  10.451   0.089  0.1871  1.4283  0.5825
  206MOL0     H27133   7.009  10.469   0.221  2.6142  1.1374 -0.1870
  206MOL0     H27134   7.094  10.453   0.367 -0.4798 -0.1650 -0.1517
  206MOL0     H27135   7.074  10.219   0.171  2.3087  2.2745 -2.0447
  206MOL0     H27136   7.095  10.213   0.353  1.5710  0.9887 -0.8653
  206MOL0     H27137   6.877  10.286   0.397  0.0928  2.2297 -0.9192
  206MOL0     H27138   6.882  10.136   0.306 -1.5458  1.5243 -3.0281
  206MOL0     H27139   6.832  10.386   0.149  1.7128 -1.4311 -2.8297
  206MOL0     H27140   6.699  10.300   0.232  1.1580  1.4447  1.4028
  206MOL0     H27141   6.880  10.166   0.046  0.0940  2.2850 -0.7175
  206MOL0     H27142   6.736  10.091   0.124 -2.0762 -0.2752 -2.5143
  206MOL0     H27143   6.786  10.199  -0.116  0.2155 -3.1254  0.8274
  206MOL0     H27144   6.706  10.338  -0.053  1.0995  0.1873  0.0168
  206MOL0     H27145   6.441  10.274   0.060  1.6843 -0.8971  0.7389
  206MOL0     H27146   6.165  10.184  -0.140 -2.0933 -3.6272 -1.7062
  206MOL0     H27147   6.186  10.173   0.039  2.1743  0.9246  0.8317
  206MOL0     H27148   6.199   9.927   0.038  1.7702 -0.1026 -0.0852
  206MOL0     H27149   6.157   9.938  -0.134 -2.3883  0.2086 -0.4776
  206MOL0     H27150   5.976   9.895   0.013  0.9761  0.8261 -0.1435
  206MOL0     H27151   5.993  10.060   0.093 -0.8003  1.6629 -0.8581
  206MOL0     H27152   5.978  10.042  -0.205 -1.1902 -3.0482  0.1797
  206MOL0     H27153   5.923  10.177  -0.107 -2.5176 -0.1856  0.6030
  206MOL0     H27154   5.795  10.189   0.094 -1.9963  2.6099 -0.5389
  206MOL0     H27155   5.615  10.208   0.256 -1.0434 -0.7713  0.8196
  206MOL0     H27156   5.095  10.285   0.178 -2.4979  3.2300  1.5759
  206MOL0     H27157   4.875  10.316   0.311 -0.7216 -0.8629  1.6835
  206MOL0     H27158   4.625   9.963   0.452 -2.2201  0.0989 -0.5641
  206MOL0     H27159   4.703   9.978   0.292 -1.3236 -3.0547  0.8903
  206MOL0     H27160   4.584  10.204   0.260  2.2010 -1.4224 -0.4780
  206MOL0     H27161   4.534  10.197   0.426 -1.6670 -0.1920 -0.9775
  206MOL0     H27162   4.377  10.020   0.407  0.0340  1.7256  0.9344
  206MOL0     H27163   4.416   9.974   0.249  1.3674  0.4083 -0.1724
  206MOL0     H27164   4.296  10.225   0.352  1.2625 -2.3883  2.0800
  206MOL0     H27165   4.367  10.229   0.189  1.5663 -2.1412 -1.3946
  206MOL0     H27166   4.164  10.032   0.299 -1.7651 -0.7107 -1.3864
  206MOL0     H27167   4.229  10.030   0.138  0.2948  1.7963 -1.3291
  206MOL0     H27168   4.136  10.247   0.085  0.4726 -2.2840 -1.4853
  206MOL0     H27169   4.051  10.258   0.243  2.2625  1.6060 -0.8649
  206MOL0     H27170   4.018  10.047   0.019 -0.7493 -0.8661 -0.5428
  206MOL0     H27171   3.952  10.026   0.180 -0.4275 -0.0468 -0.5009
  206MOL0     H27172   3.888  10.224  -0.040 -0.3174 -1.8554 -1.3799
  206MOL0     H27173   3.839  10.265   0.120 -0.8004  0.1194  0.4630
  206MOL0     H27174   4.919   9.925   0.457  1.9985 -3.0708 -2.4104
  206MOL0     H27175   5.149   9.911   0.340  1.4479  1.5067  1.0770
  206MOL0     H27176   5.359   9.983   0.008  0.0185 -0.9164 -0.1896
  206MOL0     H27177   5.571   9.945  -0.153 -0.0620 -0.3350 -1.0257
  206MOL0     H27178   7.515  10.642   0.402 -1.4078 -0.4247 -0.5448
  206MOL0     H27179   7.685  10.789   0.447  0.4082  0.9815 -0.3966
  206MOL0     H27180   8.040  10.934   0.469 -3.0939  2.7273 -0.0456
  206MOL0     H27181   8.194  11.101   0.550  1.0881  1.4296 -0.0550
  206MOL0     H27182   8.404  11.190   0.585 -0.1191 -0.3308  0.4815
  206MOL0     H27183   8.282  11.310   0.575  0.8857  2.3428 -0.3242
  206MOL0     H27184   8.439  11.470   0.491 -0.7821  0.6271  1.8558
  206MOL0     H27185   8.475  11.404   0.660  2.4631  1.1237  0.6039
  206MOL0     H27186   8.643  11.359   0.408  1.8881 -0.9113  0.4206
  206MOL0     H27187   8.649  11.262   0.560  0.7637 -0.5368 -0.4142
  206MOL0     H27188   8.684  11.566   0.530 -3.2825 -1.3381 -1.7979
  206MOL0     H27189   8.683  11.469   0.689 -0.3793  0.1422  0.3588
  206MOL0     H27190   9.068  11.437   0.504  1.2074  1.7421  0.9677
  206MOL0     H27191   8.319  11.173   0.151  1.5795 -0.0834  1.5887
  206MOL0     H27192   8.162  11.010   0.069 -1.6126 -2.9595  0.2858
  207MOL0     O27193  10.445   8.749   3.583  0.8281 -0.1020  1.0450
  207MOL0     C27194  10.427   8.792   3.470  0.3655 -0.3345  0.0620
  207MOL0     O27195  10.306   8.818   3.417  0.4643 -0.0709  0.3788
  207MOL0     C27196  10.183   8.805   3.484  1.0174  0.0698  0.1633
  207MOL0     C27197  10.156   8.729   3.595  0.1209 -0.0693 -0.5817
  207MOL0     C27198  10.030   8.704   3.649  0.4423 -0.4559 -0.8420
  207MOL0     C27199   9.918   8.760   3.584  0.4439 -0.3870  0.6687
  207MOL0     O27200   9.785   8.724   3.611  0.6364  0.2232  0.0237
  207MOL0     C27201   9.754   8.679   3.742  0.2394  0.0960  0.8565
  207MOL0     C27202   9.639   8.585   3.738  0.1058  1.0910 -0.5306
  207MOL0     C27203   9.667   8.463   3.650  0.8591  0.6322  0.3762
  207MOL0     C27204   9.775   8.376   3.712  0.6563  0.1007 -0.2245
  207MOL0     C27205   9.840   8.275   3.620  1.0619 -0.5184  0.0666
  207MOL0     C27206   9.950   8.195   3.689 -0.3173 -0.3694  0.5842
  207MOL0     C27207  10.077   8.275   3.729 -0.3439 -0.5814 -0.0843
  207MOL0     C27208  10.165   8.308   3.608 -0.6642 -0.6441 -0.4380
  207MOL0     N27209  10.309   8.335   3.636  0.0379  1.2257  0.1418
  207MOL0     C27210  10.403   8.383   3.545 -1.1283  0.6348 -0.5813
  207MOL0     C27211  10.515   8.403   3.626 -0.9331  0.5345 -0.0036
  207MOL0     C27212  10.655   8.447   3.574 -0.2937 -0.0620 -0.1036
  207MOL0     C27213  10.754   8.498   3.683 -0.4127 -0.5691  0.3161
  207MOL0     C27214  10.891   8.528   3.626  0.0980 -0.6490  0.3935
  207MOL0     C27215  10.971   8.398   3.627  0.7331  1.0374  0.1801
  207MOL0     O27216  11.097   8.411   3.566 -0.7129 -0.0749 -0.0622
  207MOL0     C27217  11.171   8.294   3.554  0.4390 -1.0660 -0.5993
  207MOL0     C27218  11.289   8.291   3.477 -0.5004 -0.4973 -0.5440
  207MOL0     C27219  11.366   8.180   3.459 -0.0489 -0.3844  0.5705
  207MOL0     C27220  11.325   8.056   3.510  0.1992 -0.9622  1.2669
  207MOL0     C27221  11.397   7.932   3.457 -0.3748  1.2067 -0.4261
  207MOL0     O27222  11.537   7.945   3.476 -0.0673  0.2058  0.4607
  207MOL0     C27223  11.613   7.834   3.436 -0.7018 -0.4527  0.5184
  207MOL0     C27224  11.598   7.787   3.301 -0.3910 -0.9093 -0.2684
  207MOL0     C27225  11.656   7.667   3.258 -0.3181  0.7885 -0.2655
  207MOL0     C27226  11.741   7.606   3.357  1.0038 -0.9484 -0.0276
  207MOL0     O27227  11.792   7.476   3.323 -0.0495 -0.5194  0.1072
  207MOL0     C27228  11.886   7.482   3.214 -0.0065  0.0074 -0.9165
  207MOL0     C27229  11.911   7.340   3.170  0.3066 -0.2568  0.4862
  207MOL0     C27230  12.044   7.326   3.102  1.1227  0.7547  0.0083
  207MOL0     C27231  12.062   7.185   3.049 -0.1483 -0.4586 -0.7460
  207MOL0     C27232  12.207   7.169   3.013 -0.3433 -0.5533  0.5996
  207MOL0     C27233  12.242   7.246   2.890  0.1068  0.2129  0.5607
  207MOL0     C27234  12.392   7.234   2.845  0.1795 -0.2377  0.3292
  207MOL0     C27235  12.398   7.283   2.701 -0.1275  0.2462 -0.1214
  207MOL0    Cl27236  12.566   7.306   2.660  0.2465 -0.2290  0.6365
  207MOL0     C27237  11.764   7.664   3.479 -0.2128 -0.2775 -0.2430
  207MOL0     C27238  11.700   7.780   3.524  0.1168  0.2593 -0.3290
  207MOL0     O27239  11.334   7.829   3.417 -0.1208  0.5461 -0.1455
  207MOL0     C27240  11.207   8.049   3.581 -0.6099 -0.2814 -0.3195
  207MOL0     C27241  11.136   8.169   3.613  0.6940  0.5713  0.6352
  207MOL0     N27242  10.487   8.384   3.762  0.8126  0.2461 -0.0413
  207MOL0     N27243  10.365   8.345   3.760 -0.0917 -0.5277  0.6630
  207MOL0     C27244   9.939   8.843   3.472  0.2639  0.0644 -0.5410
  207MOL0     C27245  10.071   8.862   3.423 -0.7907 -0.8079 -0.8563
  207MOL0     C27246  10.551   8.829   3.383  0.4115  1.0540  0.5486
  207MOL0     C27247  10.533   8.851   3.243  0.0858 -0.1557 -0.2125
  207MOL0     C27248  10.635   8.873   3.154  0.1632 -0.4226 -0.1759
  207MOL0     C27249  10.766   8.870   3.208  0.4693 -0.2060  0.2353
  207MOL0     O27250  10.887   8.889   3.144  0.0242  0.0918 -0.1069
  207MOL0     C27251  10.879   8.974   3.031 -0.5313  0.1732 -0.2129
  207MOL0     C27252  11.003   9.056   3.004 -0.4679  0.3635  0.0107
  207MOL0     C27253  11.137   8.973   3.024 -0.6224  0.3443  0.8209
  207MOL0     C27254  11.252   9.065   2.973 -0.5173 -0.9622  0.1371
  207MOL0     C27255  11.264   9.061   2.820  0.2840 -1.0785 -0.3200
  207MOL0     C27256  11.259   9.057   2.702 -0.0728 -1.1217 -0.0880
  207MOL0     C27257  10.786   8.836   3.339 -0.3868 -0.8192 -0.3013
  207MOL0     C27258  10.682   8.821   3.435 -0.5066 -0.3115 -0.2104
  207MOL0     H27259  10.237   8.665   3.627  0.1696 -0.9973 -2.4325
  207MOL0     H27260  10.024   8.634   3.731  3.5565  0.3625  0.2203
  207MOL0     H27261   9.719   8.762   3.804 -4.6671 -0.6553 -0.4592
  207MOL0     H27262   9.835   8.633   3.799 -0.4025  0.3427  1.9962
  207MOL0     H27263   9.552   8.637   3.696 -1.7761 -1.6481 -0.3073
  207MOL0     H27264   9.613   8.551   3.839  0.0875 -0.0365 -0.8978
  207MOL0     H27265   9.697   8.495   3.550  1.6469 -0.6243  0.1796
  207MOL0     H27266   9.581   8.397   3.638 -0.0884  2.1098 -1.4244
  207MOL0     H27267   9.857   8.441   3.743 -0.1174  0.0493  2.0675
  207MOL0     H27268   9.748   8.333   3.809  2.5170  0.6116  0.5688
  207MOL0     H27269   9.888   8.327   3.537 -1.1646 -0.0817 -1.0044
  207MOL0     H27270   9.754   8.217   3.588 -0.2945  0.6774  1.3534
  207MOL0     H27271   9.979   8.125   3.610  0.8841 -1.8354  2.2655
  207MOL0     H27272   9.921   8.144   3.781  1.8202 -0.6906  1.1179
  207MOL0     H27273  10.057   8.368   3.783 -1.4557 -1.7461  1.6135
  207MOL0     H27274  10.136   8.204   3.786 -1.1553 -3.5982 -2.6992
  207MOL0     H27275  10.114   8.390   3.556  0.7498  1.5584  1.4576
  207MOL0     H27276  10.164   8.220   3.543 -0.2924  0.7701 -2.4359
  207MOL0     H27277  10.397   8.398   3.438 -1.2669  0.4633 -0.5974
  207MOL0     H27278  10.648   8.530   3.504 -2.0258  0.5453  0.7268
  207MOL0     H27279  10.693   8.364   3.514 -1.7975  1.3174 -3.1738
  207MOL0     H27280  10.761   8.437   3.774  3.8257  0.3173  0.8125
  207MOL0     H27281  10.707   8.589   3.722 -1.9724 -1.1389 -0.1634
  207MOL0     H27282  10.879   8.573   3.527 -2.0216 -2.2798 -0.1663
  207MOL0     H27283  10.941   8.602   3.690 -1.1518  1.6200 -1.1317
  207MOL0     H27284  10.921   8.317   3.573  1.6837  0.6722 -0.1886
  207MOL0     H27285  10.977   8.366   3.731 -0.4887  0.3816  0.0702
  207MOL0     H27286  11.322   8.379   3.424  1.0997 -0.5999  0.2353
  207MOL0     H27287  11.446   8.188   3.385 -1.9756 -2.2181 -1.8733
  207MOL0     H27288  11.535   7.856   3.245 -0.7822 -0.3118  0.8680
  207MOL0     H27289  11.645   7.618   3.162  1.1822 -2.0090  0.8681
  207MOL0     H27290  11.984   7.522   3.240  0.2780 -1.4728  0.4489
  207MOL0     H27291  11.853   7.545   3.130 -2.2731 -1.3907 -1.1644
  207MOL0     H27292  11.828   7.310   3.104  1.5630  1.2375 -1.9089
  207MOL0     H27293  11.918   7.281   3.262  1.6250  3.0945  2.7066
  207MOL0     H27294  12.128   7.348   3.168  1.2224 -4.3362  1.9796
  207MOL0     H27295  12.047   7.390   3.014  0.8794  0.1620 -0.4332
  207MOL0     H27296  12.026   7.122   3.131 -1.1460 -0.2718 -1.0306
  207MOL0     H27297  12.003   7.175   2.958  2.3695 -0.9413 -2.4293
  207MOL0     H27298  12.237   7.067   2.987  5.1721  1.3595 -2.1900
  207MOL0     H27299  12.273   7.190   3.097  2.1345  1.0260 -1.5795
  207MOL0     H27300  12.225   7.352   2.913 -1.0447  0.4759 -1.3171
  207MOL0     H27301  12.177   7.227   2.804  1.5432 -1.2625 -0.2538
  207MOL0     H27302  12.458   7.300   2.902  1.9040 -0.0983 -1.7233
  207MOL0     H27303  12.410   7.127   2.853 -1.1167 -0.4522  0.7249
  207MOL0     H27304  12.360   7.386   2.696 -1.5671 -0.1952  1.2743
  207MOL0     H27305  12.339   7.226   2.629 -1.9712  1.0869  0.6738
  207MOL0     H27306  11.833   7.610   3.543 -1.0830 -0.2576  0.7461
  207MOL0     H27307  11.715   7.831   3.619  1.8702  2.1764 -1.5521
  207MOL0     H27308  11.172   7.958   3.628  1.7063  0.1127  2.4206
  207MOL0     H27309  11.044   8.169   3.671  0.9999  0.3992  1.1230
  207MOL0     H27310   9.845   8.882   3.435  1.3076  2.2910 -0.9768
  207MOL0     H27311  10.083   8.942   3.351  0.2644  0.1553  0.3494
  207MOL0     H27312  10.438   8.837   3.193  0.5725 -0.7203 -0.9977
  207MOL0     H27313  10.600   8.889   3.052 -0.2674  1.2455  0.1999
  207MOL0     H27314  10.796   9.043   3.047 -0.2907 -0.0118  2.2636
  207MOL0     H27315  10.860   8.903   2.951  0.5798 -1.4372  0.8994
  207MOL0     H27316  10.992   9.104   2.906  0.5995  0.8502  0.1218
  207MOL0     H27317  11.003   9.139   3.074  2.3366  0.6463 -0.1984
  207MOL0     H27318  11.133   8.876   2.973 -1.1162  0.7942 -0.0224
  207MOL0     H27319  11.153   8.956   3.131 -0.0657  0.1600  0.7118
  207MOL0     H27320  11.245   9.170   3.003 -1.1127  1.1417 -5.9472
  207MOL0     H27321  11.343   9.024   3.017 -0.7502 -0.0296  1.5304
  207MOL0     H27322  11.255   9.052   2.595 -0.1329  0.0260 -0.1597
  207MOL0     H27323  10.884   8.834   3.386  0.1616 -1.1068 -1.4374
  207MOL0     H27324  10.696   8.792   3.538 -3.7436  2.5295  1.2174
  208MOL0     O27325  10.904   5.294   1.002 -0.4228  0.2653 -0.1269
  208MOL0     C27326  10.889   5.319   1.121  0.7977 -0.3566  0.5141
  208MOL0     O27327  10.985   5.321   1.211 -0.1289 -0.4831 -0.5820
  208MOL0     C27328  11.110   5.280   1.169  0.4608 -0.4039  0.4141
  208MOL0     C27329  11.183   5.186   1.233 -0.7462 -0.5423 -0.1384
  208MOL0     C27330  11.306   5.143   1.197  0.0102 -0.3170 -0.8402
  208MOL0     C27331  11.377   5.209   1.091  0.8297  0.6399  1.1379
  208MOL0     O27332  11.506   5.162   1.064 -0.4153 -0.5783  0.5168
  208MOL0     C27333  11.564   5.212   0.939  0.1138  1.1857  0.1554
  208MOL0     C27334  11.667   5.104   0.903 -0.1275  0.5622  0.0360
  208MOL0     C27335  11.804   5.112   0.968 -0.3314  0.2468 -0.8412
  208MOL0     C27336  11.915   5.020   0.914  0.1232  0.2332  0.2953
  208MOL0     C27337  12.045   5.052   0.998  0.3906  0.5603  0.8054
  208MOL0     C27338  12.163   4.990   0.925 -0.1078 -0.3906 -1.4090
  208MOL0     C27339  12.296   5.026   0.996 -0.1699 -0.2133 -0.8292
  208MOL0     C27340  12.405   4.956   0.917 -0.6347 -0.5789 -0.3975
  208MOL0     N27341  12.531   4.945   0.991 -0.0601 -0.3117 -0.4609
  208MOL0     C27342  12.579   5.053   1.060  0.1916 -1.1531  0.3332
  208MOL0     C27343  12.696   5.002   1.111 -1.0890 -0.2552  0.2738
  208MOL0     C27344  12.809   5.075   1.188  0.4450  0.1483 -0.3908
  208MOL0     C27345  12.951   5.029   1.165  0.5982 -0.0498  0.8180
  208MOL0     C27346  12.999   5.053   1.020  0.1478  0.3524  0.1119
  208MOL0     C27347  13.149   5.046   0.990  0.5981  0.0835  0.0396
  208MOL0     O27348  13.199   5.173   1.035  0.5904 -0.7669  0.0794
  208MOL0     C27349  13.332   5.176   1.070  0.5910  0.1390  0.4278
  208MOL0     C27350  13.424   5.169   0.967  0.0057  0.5912 -0.4122
  208MOL0     C27351  13.555   5.177   1.006 -0.4388 -0.5118 -0.5341
  208MOL0     C27352  13.593   5.195   1.141 -0.4992  0.0973  0.0766
  208MOL0     C27353  13.743   5.185   1.186 -0.0768  0.4298 -0.6476
  208MOL0     O27354  13.827   5.219   1.087  0.5267  0.1004 -0.2531
  208MOL0     C27355  13.955   5.250   1.123 -0.5509  0.5357  0.1900
  208MOL0     C27356  13.981   5.357   1.217  0.5246  1.0569  0.0291
  208MOL0     C27357  14.109   5.383   1.260 -0.3594  0.2139 -0.0610
  208MOL0     C27358  14.210   5.303   1.206 -0.6622  0.5382 -0.1638
  208MOL0     O27359  14.346   5.312   1.243  1.1149 -0.3191  0.6109
  208MOL0     C27360  14.381   5.382   1.362  0.0172 -0.2238  0.7294
  208MOL0     C27361  14.365   5.539   1.341 -0.1246 -0.0593  0.2683
  208MOL0     C27362  14.500   5.614   1.335 -0.1689  0.1792  0.4041
  208MOL0     C27363  14.501   5.741   1.413  0.4470  0.2096  0.4009
  208MOL0     C27364  14.653   5.800   1.409  0.1003 -0.5913  0.7076
  208MOL0     C27365  14.735   5.761   1.539  0.0562 -0.6731 -0.0569
  208MOL0     C27366  14.670   5.833   1.657 -0.0542 -0.0990 -0.0201
  208MOL0     C27367  14.764   5.832   1.779 -0.4363  0.8273  0.3444
  208MOL0    Cl27368  14.733   5.970   1.887  0.1528 -0.1051 -0.0645
  208MOL0     C27369  14.186   5.205   1.112 -0.2360 -0.2073  0.6630
  208MOL0     C27370  14.054   5.177   1.067 -0.7769  0.5694  0.2544
  208MOL0     O27371  13.765   5.174   1.308 -0.3708  0.2328 -0.2134
  208MOL0     C27372  13.495   5.210   1.240  0.4829  0.5648  0.2593
  208MOL0     C27373  13.361   5.207   1.204  0.8295 -0.7717  1.2188
  208MOL0     N27374  12.721   4.874   1.069 -0.6913  0.2078  0.0127
  208MOL0     N27375  12.615   4.831   1.002 -0.9652  0.5314 -0.5353
  208MOL0     C27376  11.298   5.303   1.017  0.5645  0.4133 -0.0591
  208MOL0     C27377  11.173   5.341   1.055  0.0364 -0.0398  0.1430
  208MOL0     C27378  10.750   5.347   1.171 -0.7356 -0.2838  0.5394
  208MOL0     C27379  10.714   5.331   1.309  0.5130  0.1783  0.8511
  208MOL0     C27380  10.582   5.343   1.356 -0.8895 -0.5665 -0.5596
  208MOL0     C27381  10.475   5.382   1.270 -0.1555 -0.6622 -0.2233
  208MOL0     O27382  10.341   5.395   1.305 -0.0990  0.1802  0.1019
  208MOL0     C27383  10.296   5.417   1.439  0.0301  0.4015  0.0447
  208MOL0     C27384  10.194   5.528   1.440 -0.0923 -0.1395  0.5444
  208MOL0     C27385  10.142   5.557   1.581  0.4251  0.0228  0.2520
  208MOL0     C27386  10.047   5.678   1.583 -0.3233  0.3654 -0.3152
  208MOL0     C27387   9.914   5.631   1.545 -0.3277 -0.5743 -0.9112
  208MOL0     C27388   9.798   5.612   1.511 -0.4678 -0.5508 -0.7660
  208MOL0     C27389  10.512   5.399   1.136  0.4223  0.4744 -0.1768
  208MOL0     C27390  10.648   5.381   1.082  1.0199 -1.5272 -0.9698
  208MOL0     H27391  11.138   5.150   1.325 -1.3992 -0.0062 -0.2468
  208MOL0     H27392  11.362   5.071   1.255  0.3349 -0.2427 -1.0563
  208MOL0     H27393  11.613   5.310   0.938  0.0924  1.1972 -0.3450
  208MOL0     H27394  11.479   5.221   0.870 -1.2307  1.3258  1.7737
  208MOL0     H27395  11.684   5.096   0.795  0.4770 -0.2812  0.1783
  208MOL0     H27396  11.628   5.007   0.936  0.8567  0.1778  0.1105
  208MOL0     H27397  11.788   5.089   1.074  2.6897 -2.8292 -0.8841
  208MOL0     H27398  11.837   5.216   0.967 -0.4860  0.2937 -1.7539
  208MOL0     H27399  11.892   4.914   0.920  1.0912 -0.2307 -2.8209
  208MOL0     H27400  11.923   5.040   0.807 -1.6240  1.2003  0.3107
  208MOL0     H27401  12.025   5.027   1.103  0.6281 -0.4376  0.6245
  208MOL0     H27402  12.054   5.161   1.007  2.8934  0.6225 -1.3535
  208MOL0     H27403  12.170   5.022   0.821  1.2694 -2.6694 -2.0951
  208MOL0     H27404  12.158   4.880   0.926  5.4950 -0.9878  0.9714
  208MOL0     H27405  12.314   5.134   1.006 -1.5720 -0.1389  1.8103
  208MOL0     H27406  12.300   4.980   1.095  2.2845 -0.0104 -0.7766
  208MOL0     H27407  12.432   5.024   0.836 -0.3601 -0.2361 -0.0227
  208MOL0     H27408  12.363   4.870   0.864 -1.6628  0.2347 -0.9286
  208MOL0     H27409  12.551   5.158   1.065 -0.9780 -1.4399  0.0717
  208MOL0     H27410  12.782   5.086   1.293 -0.7251  3.2631 -0.9058
  208MOL0     H27411  12.805   5.178   1.152 -2.0451  1.4809  3.1585
  208MOL0     H27412  12.965   4.925   1.194 -1.6972 -0.6190  0.1073
  208MOL0     H27413  13.017   5.085   1.232 -0.3799  3.3235 -0.8019
  208MOL0     H27414  12.935   4.994   0.954 -0.1858  0.2201  0.5442
  208MOL0     H27415  12.978   5.154   0.985  0.7728  0.4514  0.0165
  208MOL0     H27416  13.164   5.034   0.882  0.2952  0.1313 -0.0094
  208MOL0     H27417  13.205   4.964   1.036 -1.7559 -1.4951  0.2957
  208MOL0     H27418  13.391   5.149   0.865 -1.6273 -3.2921  0.6824
  208MOL0     H27419  13.639   5.166   0.939  1.4756  0.0703  1.6385
  208MOL0     H27420  13.891   5.410   1.248  0.5666  0.1718  1.7820
  208MOL0     H27421  14.128   5.463   1.330  1.4932 -1.2501  1.2227
  208MOL0     H27422  14.478   5.342   1.392 -0.1103 -0.7377  0.4690
  208MOL0     H27423  14.316   5.357   1.446 -1.0882  0.1209  0.0014
  208MOL0     H27424  14.307   5.585   1.421  0.7360 -0.2837  1.0372
  208MOL0     H27425  14.329   5.551   1.238  1.3098  1.5717 -0.0868
  208MOL0     H27426  14.532   5.618   1.230 -1.6928 -2.3186 -0.2474
  208MOL0     H27427  14.574   5.557   1.392  1.8788  1.5254 -0.7863
  208MOL0     H27428  14.439   5.809   1.354  1.8830  1.0448 -0.1759
  208MOL0     H27429  14.446   5.727   1.507 -0.5320 -0.6550 -0.2700
  208MOL0     H27430  14.650   5.909   1.405 -5.2075 -0.4786  0.7806
  208MOL0     H27431  14.698   5.769   1.314 -1.1554  0.6128 -0.3169
  208MOL0     H27432  14.841   5.786   1.528  0.0682 -1.0311 -0.8418
  208MOL0     H27433  14.729   5.651   1.542 -0.0988 -0.6773 -0.4319
  208MOL0     H27434  14.655   5.936   1.622 -0.2362  0.2871  1.1411
  208MOL0     H27435  14.572   5.797   1.688  0.9987 -2.4441  0.7641
  208MOL0     H27436  14.869   5.843   1.751  0.4781  2.9789  3.9397
  208MOL0     H27437  14.753   5.733   1.824 -2.0452  0.3579 -0.9935
  208MOL0     H27438  14.268   5.157   1.059 -0.5974  1.0339 -1.1181
  208MOL0     H27439  14.044   5.109   0.983  4.8677  0.2188 -0.5172
  208MOL0     H27440  13.528   5.220   1.343 -0.4585  2.5364  0.4169
  208MOL0     H27441  13.282   5.249   1.265  1.9645  1.2542  1.3569
  208MOL0     H27442  11.339   5.346   0.926  0.6372  0.1397 -0.1594
  208MOL0     H27443  11.123   5.418   0.998 -1.2299 -0.9746 -0.0415
  208MOL0     H27444  10.782   5.313   1.391  1.8113  3.2922  0.6206
  208MOL0     H27445  10.555   5.326   1.460  0.9294 -1.8029 -0.2622
  208MOL0     H27446  10.382   5.443   1.501 -0.7081 -1.6694  2.1375
  208MOL0     H27447  10.236   5.333   1.477  0.2299  0.5911  0.7930
  208MOL0     H27448  10.235   5.616   1.391 -2.6993  0.3741 -0.8634
  208MOL0     H27449  10.110   5.497   1.377  2.6142 -5.3051 -1.1304
  208MOL0     H27450  10.230   5.582   1.640  1.1593 -0.3236 -0.6673
  208MOL0     H27451  10.101   5.464   1.621 -0.4557  0.5831  0.6755
  208MOL0     H27452  10.034   5.721   1.683  0.0052 -0.6947  0.1913
  208MOL0     H27453  10.079   5.750   1.506 -3.4207 -1.2300 -3.3817
  208MOL0     H27454   9.691   5.608   1.499 -0.3910 -0.7599 -1.4171
  208MOL0     H27455  10.434   5.414   1.063 -0.7117  0.4711  0.9905
  208MOL0     H27456  10.669   5.400   0.978 -0.1030  3.1729 -0.5512
  209MOL0     O27457   9.439   4.154   5.056 -0.2455  1.1111 -0.0534
  209MOL0     C27458   9.507   4.249   5.073 -0.8840 -0.3426  0.1544
  209MOL0     O27459   9.451   4.370   5.096  0.0006 -0.5109  0.2798
  209MOL0     C27460   9.314   4.385   5.096  0.0103 -0.3315 -0.7377
  209MOL0     C27461   9.247   4.406   5.216  0.3136 -0.4736 -0.7360
  209MOL0     C27462   9.105   4.426   5.224 -0.5223  0.9321 -0.0909
  209MOL0     C27463   9.033   4.442   5.097  1.2533 -1.0380 -0.3292
  209MOL0     O27464   8.896   4.466   5.114 -0.0006 -0.3345  0.1654
  209MOL0     C27465   8.799   4.434   5.008 -0.6542 -0.0712 -0.7974
  209MOL0     C27466   8.743   4.561   4.959  0.3401  0.0109 -0.7140
  209MOL0     C27467   8.618   4.539   4.872 -0.3608 -0.1213  0.4388
  209MOL0     C27468   8.527   4.652   4.823  0.2667  0.1153  0.5515
  209MOL0     C27469   8.390   4.578   4.792  0.6952  0.7824  0.3356
  209MOL0     C27470   8.396   4.475   4.685  0.0534 -0.6884  0.5455
  209MOL0     C27471   8.257   4.432   4.652  0.6318 -0.1924 -1.3890
  209MOL0     C27472   8.272   4.322   4.539 -0.7068 -0.2531  0.4556
  209MOL0     N27473   8.147   4.250   4.508 -0.1225 -0.4317  0.8067
  209MOL0     C27474   8.138   4.114   4.492 -0.2673  0.2604  0.6716
  209MOL0     C27475   8.007   4.090   4.469  0.4171  0.2893 -0.2565
  209MOL0     C27476   7.943   3.965   4.431  1.0179  0.5396  0.0345
  209MOL0     C27477   7.809   3.987   4.360  0.4847  0.0454  0.4668
  209MOL0     C27478   7.718   3.867   4.360  0.4290  0.7328 -0.5514
  209MOL0     C27479   7.579   3.894   4.291  0.2414 -0.5456  0.1568
  209MOL0     O27480   7.556   3.799   4.185  0.2658  0.2263  0.5852
  209MOL0     C27481   7.445   3.803   4.098  0.4940 -0.1321  0.0262
  209MOL0     C27482   7.418   3.689   4.022 -0.4951  0.4041 -0.5243
  209MOL0     C27483   7.328   3.691   3.921  0.8853  0.2236 -0.4923
  209MOL0     C27484   7.247   3.803   3.894  0.5893  0.1445 -0.9406
  209MOL0     C27485   7.145   3.804   3.789  0.4595  0.2181 -0.4102
  209MOL0     O27486   7.044   3.897   3.797  0.8891 -0.6185 -0.1449
  209MOL0     C27487   6.930   3.866   3.731 -0.4967 -0.8489 -0.5667
  209MOL0     C27488   6.837   3.775   3.770  0.2856  0.3747 -0.7882
  209MOL0     C27489   6.715   3.744   3.700 -0.4617  0.5950 -0.5908
  209MOL0     C27490   6.696   3.817   3.578 -0.1988 -0.0304 -0.9817
  209MOL0     O27491   6.584   3.785   3.506  0.2595  0.6640  0.7395
  209MOL0     C27492   6.585   3.670   3.422 -0.3460 -0.0969 -0.6303
  209MOL0     C27493   6.448   3.631   3.376  0.4752  0.4975 -0.7082
  209MOL0     C27494   6.356   3.592   3.494  1.0838  0.1831  0.2129
  209MOL0     C27495   6.209   3.599   3.441 -0.4519  0.3966 -0.0649
  209MOL0     C27496   6.169   3.485   3.361 -0.7126  0.0762  0.2426
  209MOL0     C27497   6.034   3.509   3.275 -0.0748  0.2937 -1.4355
  209MOL0     C27498   6.038   3.637   3.196  0.0661  0.1875  0.4627
  209MOL0     C27499   5.905   3.649   3.118 -0.7603  0.0136 -0.1429
  209MOL0    Cl27500   5.868   3.520   2.995  0.1105  0.1938 -0.3708
  209MOL0     C27501   6.795   3.905   3.533  0.9608 -0.7477 -0.4368
  209MOL0     C27502   6.912   3.937   3.606  0.5591 -0.2076 -0.0802
  209MOL0     O27503   7.159   3.710   3.703  0.6063 -0.0911 -0.1822
  209MOL0     C27504   7.254   3.911   3.989 -0.4086  0.2322  0.7192
  209MOL0     C27505   7.360   3.916   4.084 -0.2538  1.1177 -0.7267
  209MOL0     N27506   7.938   4.207   4.479 -0.0403 -0.2554 -0.4892
  209MOL0     N27507   8.016   4.303   4.487 -0.3423 -0.4408  0.9248
  209MOL0     C27508   9.104   4.433   4.980  0.3058  0.0128 -0.0731
  209MOL0     C27509   9.238   4.412   4.981  0.0248  0.1918  0.8843
  209MOL0     C27510   9.650   4.233   5.077 -0.7523  2.0101 -0.0792
  209MOL0     C27511   9.720   4.331   5.141 -0.7020 -0.0639  0.4542
  209MOL0     C27512   9.857   4.322   5.170  0.9027  0.1570 -0.0367
  209MOL0     C27513   9.928   4.210   5.136  0.3255  0.3451 -0.2404
  209MOL0     O27514  10.052   4.199   5.187  0.4806 -0.1139  0.7236
  209MOL0     C27515  10.165   4.133   5.121  0.3193 -0.0883 -0.0868
  209MOL0     C27516  10.291   4.218   5.112 -0.0251 -0.2125  0.5267
  209MOL0     C27517  10.251   4.358   5.051  0.7411  0.2224 -0.5656
  209MOL0     C27518  10.341   4.385   4.926  0.1266  0.1106  0.3200
  209MOL0     C27519  10.481   4.428   4.964  0.6027 -0.7383  0.0808
  209MOL0     C27520  10.585   4.467   5.013  0.5283  0.9299  0.4533
  209MOL0     C27521   9.861   4.107   5.061  0.0302 -0.6180 -0.8122
  209MOL0     C27522   9.722   4.112   5.045  0.1326 -0.1007 -0.7097
  209MOL0     H27523   9.304   4.384   5.305  0.3280  0.1880 -0.5758
  209MOL0     H27524   9.041   4.425   5.312 -1.4391 -1.5821 -0.7121
  209MOL0     H27525   8.726   4.364   5.049 -1.1290  0.1573 -1.2440
  209MOL0     H27526   8.856   4.382   4.930  1.3565  4.3065 -2.5453
  209MOL0     H27527   8.812   4.620   4.898 -0.0935 -4.0248 -5.8158
  209MOL0     H27528   8.712   4.622   5.045  0.4103 -1.7150  0.5993
  209MOL0     H27529   8.560   4.459   4.919 -0.9925  0.4264  0.6077
  209MOL0     H27530   8.663   4.492   4.784  0.8255  2.4026 -0.3796
  209MOL0     H27531   8.531   4.728   4.901 -0.3724  1.3195 -0.5620
  209MOL0     H27532   8.558   4.691   4.726 -0.3638  4.0623  1.7702
  209MOL0     H27533   8.318   4.653   4.758  0.6771  0.2326 -0.8863
  209MOL0     H27534   8.343   4.533   4.880 -0.0772 -2.1409 -1.4434
  209MOL0     H27535   8.453   4.387   4.714  1.4197  0.4721  1.4902
  209MOL0     H27536   8.447   4.511   4.595 -0.1554  1.0992  1.1080
  209MOL0     H27537   8.202   4.394   4.739  0.7607  2.7748  0.1085
  209MOL0     H27538   8.185   4.508   4.621  0.1011 -0.4437 -0.8266
  209MOL0     H27539   8.349   4.252   4.571 -0.4423  0.1381  0.6884
  209MOL0     H27540   8.316   4.368   4.450 -0.6378  0.6373  0.9293
  209MOL0     H27541   8.222   4.046   4.475 -2.2168 -1.8928 -0.9455
  209MOL0     H27542   7.919   3.910   4.523  0.3140  1.1425  0.2150
  209MOL0     H27543   8.003   3.920   4.352 -2.0076 -1.8636 -1.0987
  209MOL0     H27544   7.825   4.017   4.255 -0.7169 -0.8011  0.0226
  209MOL0     H27545   7.749   4.061   4.414 -0.3795 -1.4878  1.6663
  209MOL0     H27546   7.772   3.784   4.313 -0.2715 -0.2692  0.3550
  209MOL0     H27547   7.702   3.833   4.463  0.4535  1.5374 -0.2760
  209MOL0     H27548   7.584   3.996   4.251  4.3540 -0.1518  1.1598
  209MOL0     H27549   7.498   3.884   4.363  1.6145 -0.5262  1.7618
  209MOL0     H27550   7.475   3.598   4.040 -2.2943 -0.3752  1.6895
  209MOL0     H27551   7.310   3.597   3.870 -0.7339  0.7039 -0.8777
  209MOL0     H27552   6.853   3.726   3.865  2.7654  1.7151 -0.4179
  209MOL0     H27553   6.640   3.677   3.742 -1.8354  1.2061 -1.9412
  209MOL0     H27554   6.644   3.594   3.474  0.4762  1.1413  0.3224
  209MOL0     H27555   6.642   3.689   3.331  0.5903 -3.5478 -0.9066
  209MOL0     H27556   6.454   3.549   3.304 -2.1240  1.0094 -1.6053
  209MOL0     H27557   6.401   3.711   3.318  0.4291  1.1433  0.1880
  209MOL0     H27558   6.358   3.672   3.570 -1.2010  1.4945 -1.0050
  209MOL0     H27559   6.385   3.493   3.529  1.0177  0.6202  1.5738
  209MOL0     H27560   6.141   3.601   3.527  0.8168 -1.0173  1.0225
  209MOL0     H27561   6.192   3.696   3.393 -1.0376  0.0893 -0.4888
  209MOL0     H27562   6.150   3.401   3.428 -1.9550  0.4935  0.4534
  209MOL0     H27563   6.251   3.473   3.289  0.5767  1.2793  1.4576
  209MOL0     H27564   5.958   3.522   3.353  2.5925  1.6330  1.1383
  209MOL0     H27565   6.019   3.425   3.207  3.6533 -2.0531  0.3467
  209MOL0     H27566   6.052   3.725   3.259 -0.2700  0.1630  0.5739
  209MOL0     H27567   6.120   3.628   3.124  1.1509  1.1384  1.5401
  209MOL0     H27568   5.897   3.745   3.066 -0.6998  1.6800  2.7569
  209MOL0     H27569   5.822   3.647   3.189  0.4510 -3.1585  1.3662
  209MOL0     H27570   6.765   3.978   3.459  3.7739  1.4584  0.4188
  209MOL0     H27571   6.982   4.014   3.578  0.9742  0.1625  1.8251
  209MOL0     H27572   7.179   3.989   3.983  0.0264  0.8526  2.5558
  209MOL0     H27573   7.370   3.994   4.159  1.2637  0.4637 -0.2063
  209MOL0     H27574   9.056   4.437   4.883  1.2929 -1.7314 -0.6789
  209MOL0     H27575   9.298   4.407   4.890 -1.7458 -2.5774 -0.2633
  209MOL0     H27576   9.671   4.412   5.194  1.0758 -0.1814  2.3813
  209MOL0     H27577   9.920   4.402   5.209  2.7643 -0.3869 -1.7523
  209MOL0     H27578  10.132   4.115   5.019 -2.0159 -1.3062  0.8206
  209MOL0     H27579  10.179   4.031   5.157 -1.7247 -0.6830 -0.8543
  209MOL0     H27580  10.337   4.237   5.209 -1.0478 -0.7071  1.1184
  209MOL0     H27581  10.363   4.168   5.046 -2.6150 -1.5706 -1.4693
  209MOL0     H27582  10.250   4.440   5.123 -0.0166  0.4537 -0.8223
  209MOL0     H27583  10.146   4.348   5.021  0.2388 -1.6165  1.5090
  209MOL0     H27584  10.341   4.297   4.862  4.5590 -3.2435  4.1735
  209MOL0     H27585  10.295   4.474   4.882 -2.4963 -0.0988  2.3934
  209MOL0     H27586  10.687   4.497   5.027  0.4469  1.6694 -0.4387
  209MOL0     H27587   9.902   4.018   5.016 -0.1045 -0.5826 -1.0053
  209MOL0     H27588   9.674   4.029   4.995 -0.5230  0.6887 -1.4151
  210MOL0     O27589   4.816   9.349   2.420  0.3110  0.5477 -0.7661
  210MOL0     C27590   4.875   9.247   2.449 -0.9690 -1.1836  0.0428
  210MOL0     O27591   4.817   9.151   2.523 -0.7465  0.3325  0.6648
  210MOL0     C27592   4.702   9.186   2.584  0.0244  0.0252 -0.3599
  210MOL0     C27593   4.583   9.129   2.544 -0.9729  0.2315 -0.7949
  210MOL0     C27594   4.463   9.159   2.612  0.5089  0.3811  0.2036
  210MOL0     C27595   4.467   9.251   2.721 -0.7561  0.4496  0.1517
  210MOL0     O27596   4.343   9.271   2.767  0.3349  0.7885 -0.9500
  210MOL0     C27597   4.315   9.350   2.882 -0.2951 -0.0250  0.1016
  210MOL0     C27598   4.327   9.498   2.848  0.1132  0.3424  0.1608
  210MOL0     C27599   4.294   9.589   2.970  0.0916  0.2960  0.3203
  210MOL0     C27600   4.318   9.736   2.942 -0.5930  0.2207 -0.0160
  210MOL0     C27601   4.191   9.814   2.955  0.0089 -0.3166 -0.4254
  210MOL0     C27602   4.117   9.790   2.829 -0.0284 -0.2410  1.1330
  210MOL0     C27603   3.996   9.881   2.814 -0.7907  0.1916 -1.1049
  210MOL0     C27604   3.908   9.835   2.693 -0.2223  0.2831 -0.5481
  210MOL0     N27605   3.788   9.907   2.670 -0.0745  0.3848 -1.1413
  210MOL0     C27606   3.701   9.880   2.561 -0.7267  0.0002  0.3948
  210MOL0     C27607   3.580   9.929   2.597  0.3154  0.1356 -0.7371
  210MOL0     C27608   3.438   9.922   2.533  1.0307  0.1432  0.2615
  210MOL0     C27609   3.329   9.930   2.644 -0.0670 -0.8732  0.3905
  210MOL0     C27610   3.201   9.882   2.582  0.0118 -0.0157 -0.8336
  210MOL0     C27611   3.096   9.893   2.683  0.1254 -0.0834  0.1284
  210MOL0     O27612   2.980   9.833   2.626 -0.4028 -0.4433 -0.4653
  210MOL0     C27613   2.863   9.838   2.691 -0.2487  0.6093  0.4290
  210MOL0     C27614   2.757   9.818   2.609 -0.1672 -0.2793  0.0053
  210MOL0     C27615   2.621   9.838   2.657 -0.0943  0.5719 -0.3117
  210MOL0     C27616   2.594   9.873   2.793  0.4775 -0.6028 -0.0648
  210MOL0     C27617   2.453   9.882   2.840  0.2818  0.4648  0.3476
  210MOL0     O27618   2.436   9.893   2.976 -0.9936  0.1618 -0.5238
  210MOL0     C27619   2.311   9.890   3.023  0.4147  0.1003 -0.0449
  210MOL0     C27620   2.294   9.830   3.151  0.8207 -0.1605  0.6138
  210MOL0     C27621   2.163   9.819   3.201  0.0220  0.0891  0.7289
  210MOL0     C27622   2.045   9.858   3.128 -0.5365  0.7341  0.0943
  210MOL0     O27623   1.920   9.849   3.179 -0.0384 -0.0188 -0.2199
  210MOL0     C27624   1.891   9.743   3.273  0.1821  0.1928  0.0270
  210MOL0     C27625   1.739   9.727   3.289  0.5133 -0.3406  0.5829
  210MOL0     C27626   1.679   9.847   3.356  0.1147  0.7511  0.1261
  210MOL0     C27627   1.528   9.827   3.363 -0.5539 -1.0648  0.5878
  210MOL0     C27628   1.468   9.950   3.427  0.6376 -1.1263  0.3802
  210MOL0     C27629   1.327   9.916   3.477  0.3042  0.1395  0.9848
  210MOL0     C27630   1.242  10.040   3.535 -0.0639 -0.9224  0.4018
  210MOL0     C27631   1.155   9.989   3.653  0.5649  0.0289  0.2673
  210MOL0    Cl27632   1.241   9.922   3.801 -0.1979 -0.4118 -0.1044
  210MOL0     C27633   2.065   9.936   3.017  0.2025 -0.6805  0.4078
  210MOL0     C27634   2.194   9.954   2.966 -0.3082  0.3630 -0.3251
  210MOL0     O27635   2.364   9.874   2.749 -0.4313  0.0419 -0.1249
  210MOL0     C27636   2.705   9.893   2.875 -0.2588 -0.9465  0.3755
  210MOL0     C27637   2.836   9.892   2.821  0.4177  1.2977  0.2811
  210MOL0     N27638   3.603   9.987   2.728  0.3687  0.3161 -0.2805
  210MOL0     N27639   3.728   9.967   2.769 -0.3767 -0.2582  0.4697
  210MOL0     C27640   4.580   9.315   2.754 -0.1154 -0.1704 -0.2031
  210MOL0     C27641   4.701   9.276   2.690 -0.0207  0.1893 -0.1393
  210MOL0     C27642   5.006   9.226   2.395 -0.5565 -0.1124  0.2740
  210MOL0     C27643   5.057   9.318   2.298 -0.2309  0.3696 -0.3664
  210MOL0     C27644   5.175   9.289   2.235  0.7279 -0.0397  0.1401
  210MOL0     C27645   5.255   9.194   2.281 -0.1645  1.4189 -0.5194
  210MOL0     O27646   5.375   9.159   2.224  0.1897  0.2373 -0.0472
  210MOL0     C27647   5.454   9.284   2.221  0.2823 -0.1205 -0.6013
  210MOL0     C27648   5.468   9.326   2.069 -0.5779  0.0686 -0.5397
  210MOL0     C27649   5.527   9.470   2.050 -0.9907  0.1767  0.2165
  210MOL0     C27650   5.672   9.491   2.102  0.0444  0.0359 -0.1903
  210MOL0     C27651   5.699   9.630   2.106 -0.0984 -0.6403 -0.4158
  210MOL0     C27652   5.712   9.748   2.100  0.0098 -0.1713 -0.3958
  210MOL0     C27653   5.209   9.111   2.390 -1.1230 -0.3166 -0.1586
  210MOL0     C27654   5.079   9.118   2.430 -1.0021 -0.1774 -0.2408
  210MOL0     H27655   4.581   9.056   2.464  1.3330 -0.9696  0.1433
  210MOL0     H27656   4.369   9.120   2.573 -0.8208  3.7024 -0.3328
  210MOL0     H27657   4.377   9.314   2.964 -0.7282  1.9861  1.3802
  210MOL0     H27658   4.215   9.328   2.919 -0.9268 -0.1655 -1.5820
  210MOL0     H27659   4.258   9.526   2.768 -1.5854 -0.2475  1.3681
  210MOL0     H27660   4.425   9.526   2.808 -0.4032 -1.9182 -3.1347
  210MOL0     H27661   4.363   9.571   3.053  1.1697  3.0032  0.1047
  210MOL0     H27662   4.190   9.583   3.002  0.1867 -0.8981  0.4518
  210MOL0     H27663   4.383   9.779   3.019 -2.2705 -0.2921  1.7515
  210MOL0     H27664   4.365   9.744   2.844  1.1695 -0.2979  0.7398
  210MOL0     H27665   4.216   9.920   2.966 -0.9007 -0.2074  0.8022
  210MOL0     H27666   4.140   9.779   3.045  0.8496 -2.7506 -0.8020
  210MOL0     H27667   4.088   9.686   2.816 -0.3619 -0.3032  2.2368
  210MOL0     H27668   4.183   9.822   2.748 -1.5709 -0.3580 -0.1973
  210MOL0     H27669   3.929   9.874   2.901  0.2565  0.9243 -0.2111
  210MOL0     H27670   4.030   9.984   2.807  0.2133  0.4946  3.9564
  210MOL0     H27671   3.882   9.729   2.702  0.9380 -0.6611 -5.2825
  210MOL0     H27672   3.966   9.829   2.600  1.3221 -1.1439  0.4644
  210MOL0     H27673   3.717   9.816   2.475  1.0444 -1.1665  1.5320
  210MOL0     H27674   3.440   9.833   2.469  1.2546  1.9339 -2.3609
  210MOL0     H27675   3.423  10.011   2.471 -2.0439 -0.1970  0.3395
  210MOL0     H27676   3.324  10.037   2.666  1.0996 -0.2737 -1.9198
  210MOL0     H27677   3.365   9.867   2.725  4.0390 -1.2334 -1.4974
  210MOL0     H27678   3.166   9.936   2.494 -0.1501 -2.3179 -2.2793
  210MOL0     H27679   3.214   9.776   2.560 -2.9679 -0.5866 -0.3183
  210MOL0     H27680   3.090  10.001   2.703  0.7829  0.2805 -1.4596
  210MOL0     H27681   3.137   9.846   2.773  0.1668 -0.1526  0.0730
  210MOL0     H27682   2.777   9.781   2.509  2.0400 -1.4016  0.7997
  210MOL0     H27683   2.539   9.814   2.589 -0.7161  0.6889  0.3759
  210MOL0     H27684   2.374   9.783   3.208  0.8070 -0.0653  0.7114
  210MOL0     H27685   2.157   9.761   3.293  0.8487 -0.0152  0.7226
  210MOL0     H27686   1.947   9.757   3.366  0.4012  0.5013 -0.1488
  210MOL0     H27687   1.927   9.655   3.218 -2.2858  1.0069 -3.1837
  210MOL0     H27688   1.716   9.629   3.331  0.8286 -0.3012  0.8482
  210MOL0     H27689   1.698   9.727   3.187 -0.7900  0.6447  1.0731
  210MOL0     H27690   1.711   9.941   3.311  2.5093 -0.9163 -1.9831
  210MOL0     H27691   1.707   9.840   3.462 -1.1444  0.3664  0.4502
  210MOL0     H27692   1.484   9.815   3.263 -1.7804  0.3618  0.9236
  210MOL0     H27693   1.513   9.739   3.427 -0.8504  0.8267  3.2712
  210MOL0     H27694   1.461  10.032   3.356  3.4294 -0.7479  0.4377
  210MOL0     H27695   1.538   9.971   3.508 -0.5338 -1.2796  1.4841
  210MOL0     H27696   1.337   9.841   3.556  0.0873 -2.3562 -1.1747
  210MOL0     H27697   1.280   9.865   3.391  0.9502 -0.5769  1.0468
  210MOL0     H27698   1.316  10.115   3.564  0.7668 -1.5974  0.0900
  210MOL0     H27699   1.182  10.074   3.451  2.0109  0.0717 -0.7444
  210MOL0     H27700   1.078   9.930   3.602 -0.6693  2.8044 -1.2611
  210MOL0     H27701   1.095  10.072   3.691  0.3939 -0.0386  0.1451
  210MOL0     H27702   1.980   9.982   2.967  0.2805 -2.1223 -1.1530
  210MOL0     H27703   2.212  10.020   2.881 -1.3927  0.4195 -0.5257
  210MOL0     H27704   2.690   9.945   2.969 -1.7655  1.4357 -1.0783
  210MOL0     H27705   2.924   9.927   2.873  1.8624  0.9916 -1.8454
  210MOL0     H27706   4.581   9.389   2.833 -2.1467 -0.8828  0.5549
  210MOL0     H27707   4.796   9.303   2.733 -0.1474 -1.2506  1.1165
  210MOL0     H27708   4.999   9.407   2.275 -3.9912 -1.1580  2.2676
  210MOL0     H27709   5.198   9.349   2.147  0.4009 -1.7602 -1.1851
  210MOL0     H27710   5.547   9.263   2.275 -0.3400  1.0279  0.9955
  210MOL0     H27711   5.430   9.374   2.278  3.2022  0.8168 -0.6752
  210MOL0     H27712   5.525   9.250   2.015 -1.1818 -1.3693  0.7819
  210MOL0     H27713   5.371   9.322   2.020 -0.8520  1.1384 -0.1223
  210MOL0     H27714   5.465   9.549   2.093 -0.4475  3.0516 -3.7127
  210MOL0     H27715   5.525   9.496   1.944  5.0669 -1.8984 -0.7698
  210MOL0     H27716   5.674   9.449   2.203 -0.5485 -1.4090 -0.7548
  210MOL0     H27717   5.742   9.440   2.035  0.6782  1.3459 -0.5556
  210MOL0     H27718   5.732   9.853   2.108 -0.5792 -0.1821  1.9649
  210MOL0     H27719   5.278   9.040   2.437  1.0566  1.0984 -1.0795
  210MOL0     H27720   5.042   9.048   2.505 -1.4930  0.2483 -0.0817
  211MOL0     O27721   5.085   0.373   7.285 -0.1945  0.6692 -0.2633
  211MOL0     C27722   5.051   0.253   7.313 -0.5967 -0.6471  0.3633
  211MOL0     O27723   4.925   0.201   7.299 -0.4621 -0.5640 -0.3445
  211MOL0     C27724   4.834   0.299   7.252 -0.5040  0.3650  0.4944
  211MOL0     C27725   4.741   0.351   7.338  0.9515 -0.2558  0.3260
  211MOL0     C27726   4.638   0.437   7.303  0.6600  0.1179  0.1409
  211MOL0     C27727   4.635   0.483   7.170  0.1307  0.8565 -1.2409
  211MOL0     O27728   4.520   0.556   7.144  0.1384  0.3475  0.1593
  211MOL0     C27729   4.471   0.541   7.003 -0.5508 -0.1186 -0.1506
  211MOL0     C27730   4.320   0.540   7.019 -0.1836 -0.2616  0.1102
  211MOL0     C27731   4.249   0.504   6.886  0.2497  0.6191  0.2714
  211MOL0     C27732   4.099   0.542   6.881 -0.6644  0.5980 -0.0996
  211MOL0     C27733   4.017   0.479   6.758 -0.1675  0.0998  0.0370
  211MOL0     C27734   4.010   0.576   6.640  0.6194 -0.5784 -0.1601
  211MOL0     C27735   3.897   0.547   6.541 -0.0570 -0.6638  0.0714
  211MOL0     C27736   3.794   0.655   6.565  0.7208  0.4012 -0.1602
  211MOL0     N27737   3.669   0.629   6.493  0.3157 -0.1746 -0.6384
  211MOL0     C27738   3.604   0.705   6.399 -0.0614  0.2729 -0.8014
  211MOL0     C27739   3.498   0.625   6.360  0.5991 -0.3289 -0.0221
  211MOL0     C27740   3.398   0.653   6.248 -0.5736  0.7496 -0.0234
  211MOL0     C27741   3.274   0.735   6.294 -0.0192  0.1927 -0.1033
  211MOL0     C27742   3.190   0.758   6.165 -0.1041  0.2787 -0.0210
  211MOL0     C27743   3.074   0.843   6.194 -0.5469 -0.6350  0.6446
  211MOL0     O27744   2.985   0.768   6.282 -0.1677 -0.8106  0.5997
  211MOL0     C27745   2.854   0.752   6.238  0.2273 -0.1630  0.6613
  211MOL0     C27746   2.758   0.792   6.331 -0.2664  0.3890 -0.0749
  211MOL0     C27747   2.621   0.771   6.302  0.3988  0.4810 -0.1224
  211MOL0     C27748   2.581   0.713   6.179  0.1839  0.2683 -0.1170
  211MOL0     C27749   2.440   0.688   6.152  0.0495 -1.5562  0.7997
  211MOL0     O27750   2.341   0.762   6.212  0.6678  0.1622  1.3945
  211MOL0     C27751   2.212   0.725   6.178  0.1493 -1.0473 -1.0629
  211MOL0     C27752   2.148   0.607   6.212  0.4851  0.2185 -0.2170
  211MOL0     C27753   2.022   0.572   6.159 -0.0810 -0.0121  0.1359
  211MOL0     C27754   1.950   0.665   6.079  0.4493  0.8509  1.1103
  211MOL0     O27755   1.826   0.643   6.018  0.3239  0.3235 -0.0779
  211MOL0     C27756   1.785   0.500   6.020 -0.1392  0.0184  0.2011
  211MOL0     C27757   1.664   0.473   5.925  0.4908  0.3347  1.0166
  211MOL0     C27758   1.534   0.558   5.926  0.1172 -0.1494 -0.4568
  211MOL0     C27759   1.481   0.603   5.797 -0.0669 -0.8207 -0.3060
  211MOL0     C27760   1.370   0.709   5.813  0.1733 -0.8502  0.3011
  211MOL0     C27761   1.239   0.651   5.880  0.3351 -0.8924  0.2317
  211MOL0     C27762   1.116   0.735   5.845  0.1227 -0.9618 -0.2853
  211MOL0     C27763   1.128   0.865   5.922  0.0294 -0.5182  0.3329
  211MOL0    Cl27764   1.160   0.852   6.093  0.1213 -0.3009  0.5339
  211MOL0     C27765   2.010   0.783   6.053  0.2905  0.8930 -0.0887
  211MOL0     C27766   2.136   0.810   6.104 -0.4606  0.5775  0.5118
  211MOL0     O27767   2.420   0.597   6.078  0.5927  0.0307 -0.1273
  211MOL0     C27768   2.673   0.676   6.083 -0.3144 -1.3355  0.4199
  211MOL0     C27769   2.812   0.699   6.112  1.1129  0.5620 -0.6400
  211MOL0     N27770   3.487   0.516   6.444 -0.3818 -0.0683  0.0316
  211MOL0     N27771   3.591   0.517   6.514  0.2332 -0.3639  0.6616
  211MOL0     C27772   4.729   0.438   7.079  0.0916 -0.8402  0.1717
  211MOL0     C27773   4.824   0.347   7.117 -0.2903  0.0459 -0.0719
  211MOL0     C27774   5.153   0.167   7.378 -0.6797  0.0359 -0.4394
  211MOL0     C27775   5.117   0.035   7.431  1.1497 -0.9218  0.1123
  211MOL0     C27776   5.210  -0.044   7.497  0.1938 -0.1969  0.2240
  211MOL0     C27777   5.338   0.000   7.514  0.2113  0.1197 -0.4102
  211MOL0     O27778   5.421  -0.073   7.594  0.8121 -0.7271 -0.3390
  211MOL0     C27779   5.551  -0.080   7.555 -0.2470  0.0018 -0.0384
  211MOL0     C27780   5.636   0.012   7.638 -0.0653  0.2114 -0.9007
  211MOL0     C27781   5.789  -0.022   7.635 -0.4313 -0.6057 -0.5465
  211MOL0     C27782   5.869   0.018   7.514  0.1053  0.0255 -0.7075
  211MOL0     C27783   5.870   0.167   7.506  0.3260  0.0241  0.3283
  211MOL0     C27784   5.876   0.286   7.498  0.6629 -0.5095 -1.7717
  211MOL0     C27785   5.374   0.128   7.468  0.0893 -0.0131 -0.2001
  211MOL0     C27786   5.281   0.207   7.405 -0.7164  0.0759  0.3232
  211MOL0     H27787   4.752   0.311   7.438  2.2455  1.0194  0.7193
  211MOL0     H27788   4.553   0.464   7.364 -1.0943 -0.8633 -1.7456
  211MOL0     H27789   4.510   0.462   6.938  0.9992 -0.0775  0.6930
  211MOL0     H27790   4.501   0.635   6.956 -1.0487  0.9319  1.5565
  211MOL0     H27791   4.299   0.640   7.058  2.6685  1.4859 -2.3690
  211MOL0     H27792   4.298   0.457   7.088 -0.8688 -1.1497 -1.1297
  211MOL0     H27793   4.262   0.398   6.863  0.5195  1.3727 -3.7350
  211MOL0     H27794   4.307   0.567   6.818  0.1371 -1.0703 -1.4718
  211MOL0     H27795   4.055   0.505   6.974  0.3317 -0.9068 -0.1875
  211MOL0     H27796   4.091   0.651   6.879  0.2318  0.6660 -1.1066
  211MOL0     H27797   3.916   0.458   6.792 -0.4765 -0.0281 -0.9059
  211MOL0     H27798   4.062   0.384   6.725  0.9564  0.6909 -0.2007
  211MOL0     H27799   4.107   0.564   6.591 -0.1058 -1.5703 -1.3991
  211MOL0     H27800   4.015   0.677   6.680  0.4614 -2.0579  4.1713
  211MOL0     H27801   3.939   0.550   6.440 -1.7096  2.8588 -0.6737
  211MOL0     H27802   3.856   0.446   6.551  1.3893 -1.2392  0.5007
  211MOL0     H27803   3.834   0.754   6.540  1.7179  0.5102  1.6622
  211MOL0     H27804   3.773   0.654   6.673 -0.8076 -0.0915 -0.4352
  211MOL0     H27805   3.638   0.796   6.350  0.0941  0.1904 -0.8443
  211MOL0     H27806   3.373   0.560   6.198  3.7593  0.5321 -2.2817
  211MOL0     H27807   3.445   0.712   6.169  0.7220 -3.0240 -2.3094
  211MOL0     H27808   3.301   0.835   6.328  1.1291  0.2828 -1.2274
  211MOL0     H27809   3.216   0.679   6.367  0.4326 -2.2381 -1.4904
  211MOL0     H27810   3.253   0.797   6.084  1.3695  0.7283  1.3010
  211MOL0     H27811   3.146   0.666   6.126 -0.7026  1.1890 -1.6090
  211MOL0     H27812   3.021   0.885   6.107  0.0386 -1.2771 -0.0321
  211MOL0     H27813   3.112   0.931   6.246  1.3972 -0.3207 -1.1604
  211MOL0     H27814   2.794   0.842   6.421  2.5741  0.1107 -0.9429
  211MOL0     H27815   2.550   0.799   6.380 -0.1128 -1.2706  0.0725
  211MOL0     H27816   2.204   0.544   6.281 -0.6460  0.1176  0.6404
  211MOL0     H27817   1.974   0.481   6.196  4.1212 -1.5810  2.3715
  211MOL0     H27818   1.749   0.474   6.120 -0.5589 -0.5025 -0.0785
  211MOL0     H27819   1.865   0.435   5.984 -0.0358 -0.1788  0.7765
  211MOL0     H27820   1.631   0.373   5.953 -3.1132  1.6851  2.1266
  211MOL0     H27821   1.696   0.476   5.820  0.8820  0.9087  1.1462
  211MOL0     H27822   1.544   0.642   5.995 -0.1807 -2.1062  2.1006
  211MOL0     H27823   1.459   0.487   5.961  0.6120 -0.4285  0.0577
  211MOL0     H27824   1.555   0.640   5.726  4.6641 -5.5538  1.4799
  211MOL0     H27825   1.446   0.519   5.736 -2.2097  1.4460 -2.4122
  211MOL0     H27826   1.349   0.749   5.713 -3.9715  1.8795  1.9606
  211MOL0     H27827   1.400   0.795   5.874 -1.4005 -0.0508  0.0008
  211MOL0     H27828   1.247   0.641   5.988 -0.8196 -1.1643  0.3052
  211MOL0     H27829   1.220   0.547   5.853  1.7785 -0.7427 -1.6074
  211MOL0     H27830   1.100   0.743   5.737 -0.9363  1.0941 -0.0285
  211MOL0     H27831   1.032   0.682   5.891 -0.1548 -0.6894 -0.4789
  211MOL0     H27832   1.033   0.915   5.902  1.1274  1.2368 -0.6956
  211MOL0     H27833   1.202   0.929   5.874 -0.3804  0.7443  1.3391
  211MOL0     H27834   1.950   0.858   6.003 -2.7200 -0.0418  1.8346
  211MOL0     H27835   2.194   0.900   6.087  2.7956 -1.1815  1.4130
  211MOL0     H27836   2.643   0.640   5.985 -1.4923  0.5962  0.0202
  211MOL0     H27837   2.890   0.663   6.047  0.5059  1.2837 -1.7914
  211MOL0     H27838   4.735   0.469   6.975  3.1378 -0.3965  0.3692
  211MOL0     H27839   4.903   0.315   7.050 -0.9443  1.2518 -1.4795
  211MOL0     H27840   5.014   0.007   7.410 -0.0047  2.1583  1.0515
  211MOL0     H27841   5.188  -0.145   7.530  0.5154 -0.4796 -0.4148
  211MOL0     H27842   5.565  -0.052   7.450  3.3127 -0.8001  0.1065
  211MOL0     H27843   5.594  -0.180   7.562  0.7915  0.3181 -1.5139
  211MOL0     H27844   5.623   0.118   7.611 -0.0081  1.0977  2.1654
  211MOL0     H27845   5.603  -0.006   7.741  0.6081 -1.7035 -0.9895
  211MOL0     H27846   5.806  -0.125   7.666  0.1925 -0.2736  0.2379
  211MOL0     H27847   5.832   0.030   7.721  1.3559  0.2133 -1.8879
  211MOL0     H27848   5.974  -0.014   7.519  0.6771  1.8288  3.1709
  211MOL0     H27849   5.827  -0.039   7.431  1.7220  0.4949 -1.8900
  211MOL0     H27850   5.879   0.393   7.495  0.4154 -0.4483 -0.2957
  211MOL0     H27851   5.474   0.171   7.477  1.2353 -2.7900  1.7055
  211MOL0     H27852   5.307   0.303   7.361 -2.3727  0.3347 -0.1589
  212MOL0     O27853   2.605   8.216   2.090 -0.6823 -0.3456 -0.4650
  212MOL0     C27854   2.651   8.224   2.202 -0.8672 -0.5174 -0.5910
  212MOL0     O27855   2.584   8.245   2.316  0.0967 -0.2042 -0.0303
  212MOL0     C27856   2.451   8.280   2.311  1.2411  0.8769 -0.2400
  212MOL0     C27857   2.407   8.374   2.216 -0.4105 -0.3790 -0.3572
  212MOL0     C27858   2.280   8.433   2.208 -0.0370 -0.4201 -0.0377
  212MOL0     C27859   2.184   8.388   2.291 -0.3021  0.3219 -0.3086
  212MOL0     O27860   2.061   8.437   2.313 -0.5668 -0.0782  0.8397
  212MOL0     C27861   1.994   8.503   2.199 -0.7149  0.5609  0.5262
  212MOL0     C27862   1.860   8.426   2.164  0.5516  0.4181  0.4846
  212MOL0     C27863   1.770   8.491   2.059  0.1855 -0.6031  0.4686
  212MOL0     C27864   1.695   8.617   2.110  0.8029  0.4871 -0.1341
  212MOL0     C27865   1.574   8.639   2.009 -0.2365  0.0786  0.5974
  212MOL0     C27866   1.621   8.679   1.864 -0.2595 -0.1387 -0.5688
  212MOL0     C27867   1.508   8.684   1.762 -0.3354 -0.0532 -0.4496
  212MOL0     C27868   1.386   8.776   1.791  1.1924  0.6293 -0.1779
  212MOL0     N27869   1.305   8.776   1.666 -0.0625 -0.6143 -0.2169
  212MOL0     C27870   1.269   8.664   1.594  0.2524 -0.3355  0.2618
  212MOL0     C27871   1.157   8.694   1.531  0.4115 -0.8422 -0.5290
  212MOL0     C27872   1.068   8.605   1.444  0.3811  0.3036 -0.3918
  212MOL0     C27873   0.941   8.565   1.520 -0.2541  0.7297  0.3566
  212MOL0     C27874   0.832   8.525   1.426  0.4275  0.3834  0.0486
  212MOL0     C27875   0.687   8.526   1.489  0.8547 -0.3793 -0.8699
  212MOL0     O27876   0.678   8.426   1.596 -0.8626 -0.6349  0.3234
  212MOL0     C27877   0.555   8.403   1.655  0.0498 -0.5021  0.4672
  212MOL0     C27878   0.556   8.308   1.757 -0.0048 -0.6729 -0.1460
  212MOL0     C27879   0.438   8.262   1.810  0.0646 -0.3064  0.6508
  212MOL0     C27880   0.317   8.305   1.761  0.1017  0.2716 -0.3077
  212MOL0     C27881   0.188   8.265   1.816  0.5956 -0.0807 -0.4247
  212MOL0     O27882   0.075   8.336   1.803  0.4215 -0.3420 -0.2928
  212MOL0     C27883  -0.047   8.284   1.849  0.4379 -0.4233  0.2501
  212MOL0     C27884  -0.146   8.366   1.902 -0.4508 -1.0717 -0.5201
  212MOL0     C27885  -0.271   8.324   1.942  0.1221  0.0727 -0.3111
  212MOL0     C27886  -0.301   8.187   1.932  0.2880 -0.5121  0.6411
  212MOL0     O27887  -0.428   8.131   1.964  0.3685 -0.7790 -0.5957
  212MOL0     C27888  -0.520   8.198   2.049  0.7394 -0.4990 -0.1211
  212MOL0     C27889  -0.622   8.274   1.969  1.5070  0.4503 -0.1691
  212MOL0     C27890  -0.707   8.176   1.894 -0.2680  0.4307 -0.9335
  212MOL0     C27891  -0.816   8.249   1.819  0.2096  0.0748  0.7090
  212MOL0     C27892  -0.850   8.184   1.682 -0.0495 -0.6935 -0.3985
  212MOL0     C27893  -0.969   8.259   1.624 -0.2920 -0.8401 -0.4693
  212MOL0     C27894  -1.102   8.237   1.697  1.0674 -0.3960  0.4088
  212MOL0     C27895  -1.211   8.287   1.602 -0.0081  0.4322 -0.0450
  212MOL0    Cl27896  -1.229   8.465   1.590  0.3769 -0.5882  0.1164
  212MOL0     C27897  -0.220   8.111   1.858 -0.8933  0.1054 -0.4841
  212MOL0     C27898  -0.094   8.154   1.815 -0.0767 -0.5647  0.7299
  212MOL0     O27899   0.191   8.155   1.873 -0.0288  0.2231 -0.6718
  212MOL0     C27900   0.314   8.400   1.655  0.2710 -0.2162 -0.9377
  212MOL0     C27901   0.432   8.450   1.607 -0.7857 -1.2379 -0.2175
  212MOL0     N27902   1.131   8.836   1.557 -0.0840  0.7887 -0.0406
  212MOL0     N27903   1.216   8.881   1.641 -0.1018 -0.0246 -0.8744
  212MOL0     C27904   2.223   8.280   2.378 -0.2848 -1.1238 -1.1014
  212MOL0     C27905   2.346   8.222   2.388 -0.5806  0.5945  1.0591
  212MOL0     C27906   2.799   8.198   2.213  0.8818 -0.0482 -0.2367
  212MOL0     C27907   2.874   8.161   2.100 -0.5130  0.9779 -0.2658
  212MOL0     C27908   3.012   8.142   2.107  0.6551 -0.7112  0.0809
  212MOL0     C27909   3.081   8.162   2.231  0.7481 -0.0455 -0.0158
  212MOL0     O27910   3.219   8.165   2.246 -0.0130  0.1938  0.5322
  212MOL0     C27911   3.312   8.153   2.134  0.6339  0.4037 -0.2142
  212MOL0     C27912   3.332   8.004   2.104  0.5380 -1.2110 -0.4476
  212MOL0     C27913   3.398   7.907   2.209 -0.7862 -0.0371  0.0851
  212MOL0     C27914   3.378   7.766   2.157  0.3970  0.7398 -0.2563
  212MOL0     C27915   3.427   7.736   2.030 -0.1219 -0.0049  0.9120
  212MOL0     C27916   3.491   7.714   1.926  0.7188  0.1438 -0.3234
  212MOL0     C27917   3.001   8.196   2.347 -0.8645  0.1046 -0.4745
  212MOL0     C27918   2.861   8.214   2.334 -0.8800 -0.4185 -0.2737
  212MOL0     H27919   2.471   8.412   2.137 -2.0687  2.5634 -0.4352
  212MOL0     H27920   2.258   8.511   2.136 -1.9191 -3.1460 -2.6585
  212MOL0     H27921   2.064   8.497   2.115 -0.7666 -1.1049  0.5651
  212MOL0     H27922   1.967   8.605   2.226 -0.5658  0.7244  0.0715
  212MOL0     H27923   1.801   8.415   2.255 -3.2030  3.4844 -1.3016
  212MOL0     H27924   1.885   8.324   2.132 -1.0440  0.5614 -1.4016
  212MOL0     H27925   1.697   8.414   2.031 -0.9104  0.3904  0.5302
  212MOL0     H27926   1.827   8.524   1.971  2.0123  2.6774  2.6958
  212MOL0     H27927   1.641   8.594   2.202 -0.1567  1.1822 -0.4996
  212MOL0     H27928   1.755   8.707   2.126 -1.4400  2.3297 -1.4433
  212MOL0     H27929   1.510   8.718   2.048 -0.6624  0.0933 -0.1294
  212MOL0     H27930   1.511   8.552   1.994 -0.2372 -0.5848  3.6560
  212MOL0     H27931   1.688   8.607   1.818 -1.3827 -0.7286 -1.3261
  212MOL0     H27932   1.668   8.778   1.855 -0.8267 -0.0171 -2.8578
  212MOL0     H27933   1.557   8.735   1.678  0.4957  0.1240  0.1260
  212MOL0     H27934   1.483   8.577   1.753 -1.2276 -0.3174  3.4497
  212MOL0     H27935   1.407   8.882   1.808 -1.3151  0.8932  1.9993
  212MOL0     H27936   1.338   8.738   1.882  1.9203 -1.6341 -0.6635
  212MOL0     H27937   1.318   8.567   1.604 -0.5100 -0.7533 -0.0434
  212MOL0     H27938   1.125   8.521   1.403  3.1507 -0.0936  3.6981
  212MOL0     H27939   1.042   8.664   1.355  2.4488  2.9753  0.6200
  212MOL0     H27940   0.910   8.642   1.591 -1.9448 -1.9332  2.7294
  212MOL0     H27941   0.972   8.476   1.576 -0.3021 -1.3857 -2.7424
  212MOL0     H27942   0.824   8.599   1.346  1.2991  0.3000 -0.1290
  212MOL0     H27943   0.857   8.432   1.374 -3.2772  0.6298 -2.5314
  212MOL0     H27944   0.600   8.515   1.424 -0.5418  0.9991  0.6844
  212MOL0     H27945   0.668   8.627   1.527  2.4802  0.7450 -2.8430
  212MOL0     H27946   0.649   8.273   1.798  0.0344 -1.3342 -0.7736
  212MOL0     H27947   0.429   8.181   1.882 -0.4584 -0.3005  0.5945
  212MOL0     H27948  -0.120   8.469   1.927  3.3664 -1.9520 -0.2640
  212MOL0     H27949  -0.344   8.395   1.979 -0.7721 -0.4340 -1.0522
  212MOL0     H27950  -0.456   8.259   2.112  2.7376 -4.0541  1.6126
  212MOL0     H27951  -0.582   8.135   2.113  0.5983  3.3353  3.9326
  212MOL0     H27952  -0.571   8.337   1.895  1.5179 -0.6697 -1.1402
  212MOL0     H27953  -0.684   8.330   2.039 -0.1616 -1.5832  0.0736
  212MOL0     H27954  -0.744   8.101   1.964  0.5741  0.8911  0.0357
  212MOL0     H27955  -0.647   8.120   1.821 -0.1966 -0.8682  0.0995
  212MOL0     H27956  -0.900   8.263   1.888 -0.0706  0.1366  0.3534
  212MOL0     H27957  -0.782   8.349   1.791  2.6666 -1.0883 -0.7343
  212MOL0     H27958  -0.877   8.078   1.690  0.6758 -1.0771 -2.5284
  212MOL0     H27959  -0.762   8.193   1.619  1.7978 -0.5946  2.0498
  212MOL0     H27960  -0.969   8.224   1.520 -1.5135  1.2773 -1.2331
  212MOL0     H27961  -0.952   8.367   1.629 -0.4636 -0.7805 -1.1030
  212MOL0     H27962  -1.125   8.134   1.724 -0.2134  0.0315  1.0645
  212MOL0     H27963  -1.107   8.297   1.789  0.2227  0.7808 -0.3675
  212MOL0     H27964  -1.304   8.243   1.641  0.3041 -1.7577 -1.5890
  212MOL0     H27965  -1.183   8.247   1.504 -1.3406 -2.8462  0.7623
  212MOL0     H27966  -0.258   8.012   1.834 -0.1767 -0.5539  0.9721
  212MOL0     H27967  -0.036   8.088   1.752 -1.8152 -1.4533 -0.0172
  212MOL0     H27968   0.218   8.437   1.622 -0.4861 -1.6635 -0.4582
  212MOL0     H27969   0.414   8.506   1.516 -0.3779  0.6573  0.8166
  212MOL0     H27970   2.149   8.262   2.456 -1.1824  2.6428 -0.8467
  212MOL0     H27971   2.365   8.142   2.459 -1.3444  1.2484  2.0373
  212MOL0     H27972   2.825   8.147   2.004 -3.5446 -1.0808  1.4059
  212MOL0     H27973   3.050   8.108   2.011  1.6230  0.6548 -0.0526
  212MOL0     H27974   3.407   8.204   2.152  0.7650 -0.2492  1.1389
  212MOL0     H27975   3.270   8.196   2.043 -0.4575 -2.1646 -1.0107
  212MOL0     H27976   3.235   7.964   2.075  1.7242 -4.8766  0.1650
  212MOL0     H27977   3.388   8.007   2.010 -1.7323  1.6806 -1.8841
  212MOL0     H27978   3.352   7.919   2.308 -2.4560  0.4805 -0.7124
  212MOL0     H27979   3.505   7.932   2.211 -0.6617  0.4321 -4.0557
  212MOL0     H27980   3.424   7.703   2.233 -2.0030  1.5730  2.0760
  212MOL0     H27981   3.272   7.738   2.153  1.0600 -1.8524 -1.4596
  212MOL0     H27982   3.534   7.691   1.830  0.6149  0.0278 -0.3424
  212MOL0     H27983   3.072   8.216   2.427  0.1159 -1.9376 -0.7811
  212MOL0     H27984   2.809   8.245   2.424  0.4758 -3.0103  1.5554
  213MOL0     O27985   6.506  10.207   7.233  0.0119 -0.2317 -1.2248
  213MOL0     C27986   6.549  10.171   7.126 -0.1304 -0.6663  0.6204
  213MOL0     O27987   6.482  10.099   7.031  0.0552 -0.1158  0.3199
  213MOL0     C27988   6.357  10.053   7.068  0.5403  0.6664 -0.1793
  213MOL0     C27989   6.346   9.936   7.136 -0.1615  0.3745 -0.4980
  213MOL0     C27990   6.217   9.884   7.164  0.2547 -0.4584 -1.0581
  213MOL0     C27991   6.101   9.963   7.122  0.9148 -0.0771 -0.4019
  213MOL0     O27992   5.968   9.925   7.148 -0.4323 -0.0160 -0.7604
  213MOL0     C27993   5.924   9.790   7.126 -0.2988 -0.1250 -0.9250
  213MOL0     C27994   5.839   9.747   7.249 -0.4596 -0.6627 -0.9410
  213MOL0     C27995   5.707   9.824   7.267 -0.5819 -0.0086  0.1429
  213MOL0     C27996   5.628   9.757   7.386 -0.5581  0.0876  0.6651
  213MOL0     C27997   5.488   9.817   7.410  0.9254 -0.1991 -0.2502
  213MOL0     C27998   5.399   9.738   7.507 -0.2722 -0.1451  0.1885
  213MOL0     C27999   5.477   9.697   7.636  0.1956  0.3650 -0.2676
  213MOL0     C28000   5.389   9.648   7.754  0.7042  0.1936  0.6988
  213MOL0     N28001   5.313   9.759   7.806 -0.2067 -0.8472 -0.0537
  213MOL0     C28002   5.371   9.864   7.869 -0.5051 -0.1113 -0.1399
  213MOL0     C28003   5.271   9.952   7.889 -0.1956 -0.5688 -0.1688
  213MOL0     C28004   5.276  10.090   7.954 -0.1125 -0.6014 -0.2703
  213MOL0     C28005   5.381  10.119   8.066  0.2280 -0.1055 -0.3050
  213MOL0     C28006   5.398  10.004   8.181  0.9382 -0.9011  0.1184
  213MOL0     C28007   5.266   9.996   8.267 -0.1104 -0.1506  0.3336
  213MOL0     O28008   5.248  10.117   8.332  0.8795 -0.2859  0.0713
  213MOL0     C28009   5.121  10.175   8.348  0.0041 -0.9854 -0.5125
  213MOL0     C28010   5.119  10.313   8.380 -0.7026  0.3335 -0.2078
  213MOL0     C28011   5.003  10.389   8.401  0.4514  0.4116  0.4370
  213MOL0     C28012   4.877  10.328   8.389 -0.3721 -0.0619 -0.5069
  213MOL0     C28013   4.759  10.408   8.392 -0.8358  0.2340  0.9485
  213MOL0     O28014   4.746  10.522   8.462 -0.0482 -0.2377  0.0807
  213MOL0     C28015   4.661  10.619   8.439  0.5863 -0.5237 -0.2123
  213MOL0     C28016   4.597  10.682   8.551 -0.4118  0.5117  0.1448
  213MOL0     C28017   4.504  10.788   8.523  0.0643  0.2004  0.7090
  213MOL0     C28018   4.460  10.822   8.393 -0.5146  0.9548 -0.5791
  213MOL0     O28019   4.358  10.913   8.367  0.5014  0.0411 -0.7472
  213MOL0     C28020   4.330  10.953   8.236  0.1326 -0.0234 -0.4000
  213MOL0     C28021   4.202  11.035   8.225  1.3535  0.0751 -0.1171
  213MOL0     C28022   4.200  11.170   8.307  0.0590 -0.0341  0.8427
  213MOL0     C28023   4.074  11.239   8.280 -0.5051  0.4068  0.8079
  213MOL0     C28024   4.084  11.389   8.318 -0.4471 -0.1632  0.0710
  213MOL0     C28025   3.964  11.456   8.286  0.8402 -1.0325  0.6591
  213MOL0     C28026   3.944  11.601   8.336  0.3287  0.2924  0.0420
  213MOL0     C28027   3.821  11.674   8.280  0.5423 -0.3658  0.4736
  213MOL0    Cl28028   3.679  11.611   8.355  0.0484 -0.1897  0.0249
  213MOL0     C28029   4.528  10.755   8.293  0.2579  1.2327  1.4323
  213MOL0     C28030   4.629  10.660   8.316  0.5580 -0.2486  0.6754
  213MOL0     O28031   4.660  10.350   8.358  0.1957 -0.6142 -0.3678
  213MOL0     C28032   4.871  10.192   8.359 -0.1962  1.2043 -0.4149
  213MOL0     C28033   4.996  10.121   8.335  0.0514 -0.1588 -0.9435
  213MOL0     N28034   5.165   9.909   7.808  0.0074 -0.1449  0.1796
  213MOL0     N28035   5.188   9.793   7.765  0.2060  0.1356  0.2283
  213MOL0     C28036   6.115  10.093   7.074 -0.6407 -0.0425 -1.0179
  213MOL0     C28037   6.247  10.132   7.045  0.3974  0.0916  0.5880
  213MOL0     C28038   6.689  10.197   7.096  0.0413  0.1062 -0.4277
  213MOL0     C28039   6.748  10.184   6.970  0.1331 -0.0242 -0.3193
  213MOL0     C28040   6.881  10.211   6.937  0.8543  0.1717 -0.1226
  213MOL0     C28041   6.968  10.246   7.038 -0.1941  0.1087  0.7436
  213MOL0     O28042   7.101  10.251   7.001  0.0633 -0.4506  0.2738
  213MOL0     C28043   7.161  10.385   7.031  0.2035  0.1206  0.1500
  213MOL0     C28044   7.301  10.409   6.956 -0.6270  0.6133 -1.0049
  213MOL0     C28045   7.301  10.428   6.810 -0.3051  0.6082  0.1280
  213MOL0     C28046   7.264  10.571   6.760 -0.1517  0.4827 -0.3182
  213MOL0     C28047   7.262  10.582   6.616 -0.1571 -0.0576  0.8162
  213MOL0     C28048   7.284  10.578   6.491 -0.4935 -0.1116  0.0406
  213MOL0     C28049   6.920  10.257   7.171  0.3907  0.4978 -0.1037
  213MOL0     C28050   6.781  10.243   7.201 -0.6263  1.1014 -0.2795
  213MOL0     H28051   6.434   9.878   7.161 -0.3951  0.1053 -0.2859
  213MOL0     H28052   6.215   9.783   7.204  4.9352 -0.1264  0.6345
  213MOL0     H28053   6.006   9.721   7.105 -0.4915 -0.8870  0.6926
  213MOL0     H28054   5.857   9.779   7.041 -0.2507 -1.4445 -0.8088
  213MOL0     H28055   5.910   9.763   7.330  1.8066 -2.3784 -2.4844
  213MOL0     H28056   5.820   9.640   7.239  1.4344 -0.9441 -1.8056
  213MOL0     H28057   5.649   9.814   7.174 -0.2071 -1.6200  0.0505
  213MOL0     H28058   5.730   9.926   7.298 -1.1363  0.3130 -0.4939
  213MOL0     H28059   5.625   9.651   7.361  0.5567 -0.0747  1.1482
  213MOL0     H28060   5.683   9.761   7.481 -2.6587  0.8987  1.9108
  213MOL0     H28061   5.441   9.837   7.314 -3.6093  1.2448  2.0014
  213MOL0     H28062   5.496   9.908   7.469  0.0098 -3.0026  4.8262
  213MOL0     H28063   5.373   9.644   7.457  2.9230 -1.5917  0.9953
  213MOL0     H28064   5.312   9.794   7.541 -1.3606 -0.7723 -1.4452
  213MOL0     H28065   5.545   9.616   7.607 -0.3588  0.2122 -1.1807
  213MOL0     H28066   5.550   9.770   7.674 -0.1159 -0.4112  1.9681
  213MOL0     H28067   5.457   9.622   7.836 -0.0692  0.1931  1.3554
  213MOL0     H28068   5.318   9.569   7.727 -0.0020  0.7627  0.8367
  213MOL0     H28069   5.476   9.868   7.897  0.1151 -1.7285 -1.9283
  213MOL0     H28070   5.174  10.110   7.986  0.2147 -1.3539  1.3340
  213MOL0     H28071   5.304  10.162   7.876  3.7046 -0.1468  1.3123
  213MOL0     H28072   5.349  10.209   8.119 -0.8492 -2.0176  2.5774
  213MOL0     H28073   5.475  10.132   8.011 -0.3625 -0.9491 -1.5442
  213MOL0     H28074   5.414   9.907   8.132  1.8126 -1.8381  2.1227
  213MOL0     H28075   5.486  10.022   8.242  0.6418  1.5371 -0.0720
  213MOL0     H28076   5.270   9.911   8.335 -1.8597 -1.2217 -0.8199
  213MOL0     H28077   5.176   9.980   8.207  0.1558  1.5986 -0.5916
  213MOL0     H28078   5.212  10.369   8.381 -1.2171  1.2539 -1.1018
  213MOL0     H28079   4.991  10.495   8.421 -4.1859  0.3395 -0.8054
  213MOL0     H28080   4.626  10.653   8.651  1.1173 -3.9778 -1.3412
  213MOL0     H28081   4.451  10.825   8.611 -2.6607  0.8516 -1.0943
  213MOL0     H28082   4.315  10.860   8.179  0.7365 -2.2169  2.7451
  213MOL0     H28083   4.409  11.007   8.184  1.0380 -1.6056 -0.7561
  213MOL0     H28084   4.123  10.970   8.265  1.5398  1.2632  2.3236
  213MOL0     H28085   4.178  11.061   8.121  1.9658 -1.5421 -0.7035
  213MOL0     H28086   4.289  11.223   8.272 -0.7974  0.9872  0.1656
  213MOL0     H28087   4.222  11.142   8.411  0.6081  0.2282  0.8057
  213MOL0     H28088   4.053  11.234   8.173  0.0024  0.6463  0.6959
  213MOL0     H28089   4.000  11.192   8.346 -1.4163 -4.2340 -2.9427
  213MOL0     H28090   4.166  11.427   8.256  0.2187 -0.7882  0.5434
  213MOL0     H28091   4.106  11.404   8.424  2.5403  1.5384 -0.6772
  213MOL0     H28092   3.881  11.394   8.321  0.7025 -1.0245  0.3587
  213MOL0     H28093   3.955  11.453   8.177  1.9153 -3.6652  0.5590
  213MOL0     H28094   3.929  11.608   8.444 -1.1309  0.2887 -0.1435
  213MOL0     H28095   4.032  11.654   8.300  0.8675 -2.6254 -3.5611
  213MOL0     H28096   3.817  11.669   8.170 -3.6721  1.1378  0.3627
  213MOL0     H28097   3.832  11.780   8.304 -0.9126 -0.3729  1.3140
  213MOL0     H28098   4.495  10.770   8.190 -2.2469 -2.0996  1.5887
  213MOL0     H28099   4.681  10.623   8.229 -2.6931 -0.1228 -1.4819
  213MOL0     H28100   4.776  10.145   8.334  1.2980 -0.9462 -2.5780
  213MOL0     H28101   4.980  10.018   8.306 -0.8954  0.2452 -1.9265
  213MOL0     H28102   6.032  10.145   7.026  1.3082  1.7077 -2.6940
  213MOL0     H28103   6.269  10.227   6.998 -1.1291  0.4136  0.4750
  213MOL0     H28104   6.685  10.161   6.884  0.5814 -1.6527 -0.2363
  213MOL0     H28105   6.927  10.197   6.839  3.7390  1.1691  0.9874
  213MOL0     H28106   7.183  10.401   7.136 -1.8396 -1.3474  0.8611
  213MOL0     H28107   7.093  10.469   7.009 -0.1587 -0.1545  0.2151
  213MOL0     H28108   7.345  10.501   6.998  2.2858 -0.7154 -0.8778
  213MOL0     H28109   7.372  10.330   6.982  0.8709  2.5154  1.1618
  213MOL0     H28110   7.240  10.348   6.767  0.9961 -0.6870  0.5976
  213MOL0     H28111   7.400  10.407   6.768 -0.1013 -2.1741  1.7524
  213MOL0     H28112   7.171  10.607   6.806  0.6426 -0.9486  2.6379
  213MOL0     H28113   7.348  10.631   6.797  1.0903 -1.9189  0.9423
  213MOL0     H28114   7.311  10.579   6.388  1.0771  0.5467  0.4216
  213MOL0     H28115   6.985  10.297   7.248 -2.1376  1.5920  1.5929
  213MOL0     H28116   6.747  10.266   7.302 -0.3799 -0.5476  0.2021
  214MOL0     O28117   5.309   2.498   3.369 -0.0657 -0.1731 -0.5877
  214MOL0     C28118   5.307   2.524   3.250  0.6803  0.4746  0.0197
  214MOL0     O28119   5.205   2.508   3.172  0.1063  0.6095  0.1244
  214MOL0     C28120   5.088   2.443   3.204 -0.0852  0.5667  0.1806
  214MOL0     C28121   4.979   2.489   3.135 -0.7251  0.2363 -0.2121
  214MOL0     C28122   4.855   2.425   3.157  0.1525 -0.5543 -0.7113
  214MOL0     C28123   4.853   2.303   3.233  1.3227  0.1683  0.2029
  214MOL0     O28124   4.740   2.226   3.252 -0.0608 -0.4012 -0.4311
  214MOL0     C28125   4.616   2.282   3.217  1.3508 -0.6772 -0.3452
  214MOL0     C28126   4.574   2.237   3.074 -1.0820  0.2615  0.2171
  214MOL0     C28127   4.418   2.212   3.058  0.2796 -0.7203  0.1851
  214MOL0     C28128   4.368   2.079   3.117 -0.3567  0.1152 -0.8010
  214MOL0     C28129   4.210   2.074   3.112 -0.8008  0.6741  1.1045
  214MOL0     C28130   4.140   2.116   3.242  0.1133 -0.0919  0.0739
  214MOL0     C28131   3.983   2.096   3.249  0.2923 -0.4244  0.4755
  214MOL0     C28132   3.940   1.945   3.226  0.7803  0.6089  0.9495
  214MOL0     N28133   3.783   1.955   3.226  0.1332 -0.0966 -0.0802
  214MOL0     C28134   3.692   2.011   3.128 -0.9062 -0.4382 -0.4218
  214MOL0     C28135   3.575   2.005   3.190 -0.1007  0.3696  1.1559
  214MOL0     C28136   3.455   2.052   3.123 -0.4680 -1.1492 -0.7454
  214MOL0     C28137   3.400   1.963   3.012 -0.6694 -0.6618 -0.1746
  214MOL0     C28138   3.264   2.009   2.972 -0.4847 -0.3067 -0.2170
  214MOL0     C28139   3.161   1.916   3.024 -0.4371  0.7538 -0.2347
  214MOL0     O28140   3.170   1.803   2.940 -0.0050 -0.1687 -0.0276
  214MOL0     C28141   3.055   1.779   2.875 -0.3765 -0.2429 -0.7728
  214MOL0     C28142   2.949   1.724   2.943 -0.2038 -0.7517 -0.7531
  214MOL0     C28143   2.826   1.692   2.891 -0.3581  0.1908 -0.3218
  214MOL0     C28144   2.801   1.718   2.757  0.6843 -0.3499  0.0705
  214MOL0     C28145   2.669   1.699   2.696 -1.1413  0.5882 -0.3998
  214MOL0     O28146   2.657   1.735   2.573  0.4160 -0.2469 -0.0287
  214MOL0     C28147   2.542   1.702   2.511  0.1328  0.5473  1.0526
  214MOL0     C28148   2.529   1.573   2.459  0.1388 -0.0135 -0.5094
  214MOL0     C28149   2.425   1.564   2.364  0.2893 -0.3342 -0.6579
  214MOL0     C28150   2.334   1.660   2.327 -0.6709 -0.5656 -0.4493
  214MOL0     O28151   2.239   1.628   2.227  0.3784  0.1211  0.6631
  214MOL0     C28152   2.118   1.703   2.234  1.0094  0.1211 -0.4694
  214MOL0     C28153   1.997   1.599   2.207 -0.7913  0.3963 -0.8026
  214MOL0     C28154   1.882   1.687   2.170  0.0598 -0.4362  0.6022
  214MOL0     C28155   1.743   1.620   2.182 -0.1541  0.2153  0.2477
  214MOL0     C28156   1.637   1.719   2.132 -0.5636  0.2887  0.7975
  214MOL0     C28157   1.503   1.642   2.114  0.1360 -0.6992  0.3746
  214MOL0     C28158   1.396   1.742   2.053  0.3173 -0.2056 -0.4737
  214MOL0     C28159   1.253   1.684   2.067  0.1759 -0.6654  0.8570
  214MOL0    Cl28160   1.145   1.787   1.960  0.0453  0.0740 -0.5483
  214MOL0     C28161   2.356   1.790   2.382 -0.2277 -0.5155  0.7993
  214MOL0     C28162   2.456   1.808   2.475 -0.0975 -0.1906 -1.2527
  214MOL0     O28163   2.581   1.648   2.763  0.0928  0.0591  0.2204
  214MOL0     C28164   2.914   1.771   2.675  0.4739 -0.5904 -0.5564
  214MOL0     C28165   3.035   1.806   2.738  0.1124  0.0725  0.5065
  214MOL0     N28166   3.586   1.944   3.311 -0.2304  0.5120 -0.2011
  214MOL0     N28167   3.712   1.928   3.335  0.9291  0.1892 -0.0661
  214MOL0     C28168   4.963   2.264   3.297  0.0404  0.7502  0.2802
  214MOL0     C28169   5.087   2.326   3.279 -0.4060  0.4339  0.0697
  214MOL0     C28170   5.424   2.582   3.185  0.3536  0.0488 -0.3867
  214MOL0     C28171   5.432   2.632   3.048 -0.8191  0.0012 -0.6613
  214MOL0     C28172   5.551   2.693   3.003  0.7567 -0.1042  0.2731
  214MOL0     C28173   5.658   2.699   3.086  0.4273 -0.4667  0.5082
  214MOL0     O28174   5.770   2.762   3.032  0.2570 -1.2094  0.1348
  214MOL0     C28175   5.892   2.755   3.110  0.0932  0.1969  0.0112
  214MOL0     C28176   5.965   2.616   3.109 -0.2974  0.3765  0.5724
  214MOL0     C28177   6.108   2.636   3.129 -0.3446  0.5514 -0.7825
  214MOL0     C28178   6.198   2.507   3.167  0.5318 -0.4686  0.8792
  214MOL0     C28179   6.337   2.550   3.168 -0.2794  0.6586  0.1317
  214MOL0     C28180   6.451   2.586   3.174 -0.5637  0.1301  0.6949
  214MOL0     C28181   5.653   2.641   3.211 -0.8901  0.8799 -0.3650
  214MOL0     C28182   5.541   2.595   3.267 -0.3290  0.8376  0.3488
  214MOL0     H28183   4.980   2.582   3.078 -0.2228  0.8782  0.8218
  214MOL0     H28184   4.769   2.457   3.099 -0.5028 -3.8353 -1.7640
  214MOL0     H28185   4.608   2.389   3.234 -0.6748 -0.8381 -0.0841
  214MOL0     H28186   4.547   2.234   3.288  0.9997  0.7955  0.3408
  214MOL0     H28187   4.631   2.152   3.038 -1.3165  0.5727 -0.9382
  214MOL0     H28188   4.615   2.310   3.004  1.6563  0.4180  1.8334
  214MOL0     H28189   4.390   2.220   2.952 -2.5335 -0.9275  0.8430
  214MOL0     H28190   4.372   2.301   3.101  1.8562  0.0771  0.3149
  214MOL0     H28191   4.411   1.988   3.074  2.5896  1.8942 -1.9301
  214MOL0     H28192   4.383   2.080   3.225  1.6263 -1.1680 -1.0186
  214MOL0     H28193   4.180   1.971   3.088  2.0636  0.0486 -0.2990
  214MOL0     H28194   4.178   2.136   3.028  4.4765  1.0937 -0.9752
  214MOL0     H28195   4.172   2.216   3.271 -0.3214 -0.0385  0.3831
  214MOL0     H28196   4.178   2.058   3.327  1.7897  0.2459 -0.4019
  214MOL0     H28197   3.948   2.134   3.346  1.0404 -0.0541  0.6113
  214MOL0     H28198   3.935   2.156   3.171  4.7847  2.1221 -0.6991
  214MOL0     H28199   3.967   1.883   3.312 -2.2972 -2.8868 -0.3407
  214MOL0     H28200   3.976   1.904   3.131  0.3723  1.6115  0.3430
  214MOL0     H28201   3.713   2.051   3.029 -0.1637  0.3982  0.0610
  214MOL0     H28202   3.474   2.149   3.076 -2.8088  0.2123  0.9232
  214MOL0     H28203   3.382   2.073   3.201  0.6268  4.1776 -0.7803
  214MOL0     H28204   3.408   1.856   3.031 -0.5960 -0.6507 -0.1420
  214MOL0     H28205   3.464   1.980   2.925 -1.9481  1.0379 -0.8576
  214MOL0     H28206   3.236   2.107   3.010  0.8557  0.6057 -1.4902
  214MOL0     H28207   3.259   2.004   2.863  0.3534 -1.9416 -0.2184
  214MOL0     H28208   3.066   1.970   3.017 -0.9418 -0.1218 -0.2030
  214MOL0     H28209   3.174   1.888   3.129 -1.0804  0.5751 -0.2014
  214MOL0     H28210   2.966   1.707   3.049 -0.2049  3.9436  0.2257
  214MOL0     H28211   2.745   1.646   2.946 -1.4178 -0.4733 -2.3631
  214MOL0     H28212   2.597   1.491   2.479  0.6713 -0.2506 -3.0353
  214MOL0     H28213   2.415   1.466   2.319  0.3143  0.0492 -1.5072
  214MOL0     H28214   2.122   1.786   2.163 -0.7956 -0.1949 -0.9983
  214MOL0     H28215   2.094   1.742   2.333  0.2049  0.3635 -0.7486
  214MOL0     H28216   1.975   1.538   2.295 -2.4912 -1.6780 -2.5355
  214MOL0     H28217   2.008   1.539   2.116 -1.8051  0.8879 -1.2647
  214MOL0     H28218   1.894   1.726   2.068 -1.1971 -1.7872 -0.0948
  214MOL0     H28219   1.881   1.768   2.243 -3.2172 -1.0410  1.3661
  214MOL0     H28220   1.744   1.541   2.106 -2.2688 -0.2090  0.6224
  214MOL0     H28221   1.722   1.582   2.282  0.1274 -1.5769 -0.3361
  214MOL0     H28222   1.662   1.765   2.036 -1.3978  2.5942  1.6007
  214MOL0     H28223   1.622   1.805   2.198 -2.6205  0.7833 -0.2333
  214MOL0     H28224   1.463   1.593   2.203 -0.6967  1.4306  1.2351
  214MOL0     H28225   1.511   1.562   2.039  4.1252  2.0841 -2.6197
  214MOL0     H28226   1.404   1.838   2.103  0.8530  1.0319 -2.7758
  214MOL0     H28227   1.412   1.769   1.948 -0.0153  0.7393 -0.2872
  214MOL0     H28228   1.224   1.692   2.172  0.1994  1.0548  0.7649
  214MOL0     H28229   1.240   1.582   2.030 -3.3577  0.4492 -1.5444
  214MOL0     H28230   2.303   1.881   2.356 -1.2695 -0.7283  2.0674
  214MOL0     H28231   2.477   1.911   2.505  0.5408 -1.2336  2.5021
  214MOL0     H28232   2.902   1.800   2.571  2.0891  1.2955 -0.2704
  214MOL0     H28233   3.110   1.855   2.676  3.1019 -4.7128 -0.2030
  214MOL0     H28234   4.953   2.170   3.351 -2.0903  0.6594 -0.1825
  214MOL0     H28235   5.180   2.296   3.327 -0.7731  1.1981  1.3014
  214MOL0     H28236   5.345   2.621   2.985 -0.7567  0.3788 -0.8185
  214MOL0     H28237   5.554   2.743   2.907 -1.9844  0.1350  0.2576
  214MOL0     H28238   5.868   2.785   3.213 -0.6552  0.2553 -0.1703
  214MOL0     H28239   5.967   2.823   3.070  0.7680 -1.0042 -0.8556
  214MOL0     H28240   5.921   2.543   3.177  1.8380 -2.3815 -0.8118
  214MOL0     H28241   5.961   2.589   3.003 -0.2320  1.7657  0.1942
  214MOL0     H28242   6.104   2.701   3.217 -0.2136 -0.0327 -0.3380
  214MOL0     H28243   6.161   2.675   3.042  0.2658 -0.8628 -1.0716
  214MOL0     H28244   6.170   2.479   3.269  1.8432 -0.1351  1.3373
  214MOL0     H28245   6.183   2.427   3.093 -0.0464  0.2499  0.1993
  214MOL0     H28246   6.556   2.606   3.179 -0.3062 -0.8912 -0.1426
  214MOL0     H28247   5.733   2.636   3.285 -2.6725  0.7215  1.6281
  214MOL0     H28248   5.550   2.564   3.371  1.1804  0.4766  0.1252
  215MOL0     O28249   5.768   3.102   5.071  0.5226  0.2813  0.0931
  215MOL0     C28250   5.845   3.028   5.140 -0.0485  0.0976  0.2317
  215MOL0     O28251   5.806   2.929   5.232 -0.1311  0.2785  0.1680
  215MOL0     C28252   5.672   2.917   5.249  1.6902  0.2323 -1.0018
  215MOL0     C28253   5.614   2.978   5.361  0.2043  0.3512 -1.2294
  215MOL0     C28254   5.486   2.957   5.388  0.2544  0.9654 -0.3081
  215MOL0     C28255   5.408   2.866   5.320  0.2019  0.0030 -0.2694
  215MOL0     O28256   5.273   2.856   5.349  0.0951  0.0413 -0.1820
  215MOL0     C28257   5.179   2.804   5.249  0.0751 -0.7780 -0.2538
  215MOL0     C28258   5.053   2.743   5.320 -0.1761  0.3160  0.8552
  215MOL0     C28259   4.959   2.842   5.399 -0.4362  0.1739 -0.2979
  215MOL0     C28260   4.821   2.776   5.434  0.8816 -0.7618  0.6158
  215MOL0     C28261   4.734   2.887   5.498 -0.0551 -0.3144  1.3883
  215MOL0     C28262   4.753   2.885   5.651 -0.4070  0.4578 -0.1786
  215MOL0     C28263   4.713   3.009   5.732 -0.1165 -0.2146 -0.3798
  215MOL0     C28264   4.674   2.968   5.874  0.1686 -0.3217 -0.4496
  215MOL0     N28265   4.556   3.054   5.925 -0.3359 -0.7226  0.2559
  215MOL0     C28266   4.428   3.032   5.885 -0.5057  0.5731  0.1322
  215MOL0     C28267   4.362   3.107   5.967  0.5557 -0.7809  0.6628
  215MOL0     C28268   4.220   3.128   5.986  0.6297  0.1821  1.0874
  215MOL0     C28269   4.169   3.039   6.093 -1.0354 -0.1038 -0.6323
  215MOL0     C28270   4.010   3.036   6.097  0.1939 -0.1958  1.0054
  215MOL0     C28271   3.946   2.991   6.228  0.0745  0.0026  0.1549
  215MOL0     O28272   3.799   2.993   6.219 -0.8212 -0.0383 -0.4535
  215MOL0     C28273   3.713   3.018   6.327 -0.1654  0.9120 -0.0781
  215MOL0     C28274   3.575   2.994   6.302  0.0380  0.2455  1.0285
  215MOL0     C28275   3.479   2.997   6.406 -0.5185  0.1631 -0.2500
  215MOL0     C28276   3.527   3.001   6.539  0.5910  0.4333 -0.1114
  215MOL0     C28277   3.429   2.989   6.650  0.1576 -0.1498 -0.0436
  215MOL0     O28278   3.458   3.040   6.772 -0.3777 -0.1457 -0.0528
  215MOL0     C28279   3.356   3.047   6.866 -1.2099  0.1604 -0.2128
  215MOL0     C28280   3.372   2.990   6.999 -0.1037  0.2408 -1.2373
  215MOL0     C28281   3.271   3.002   7.096 -1.0678 -0.4585 -0.0537
  215MOL0     C28282   3.158   3.074   7.059  0.6608 -1.0961  0.2248
  215MOL0     O28283   3.060   3.097   7.153 -0.4338 -0.6439 -0.0168
  215MOL0     C28284   2.934   3.032   7.113 -0.2893  0.1973 -0.0252
  215MOL0     C28285   2.839   3.145   7.137 -0.1376  0.7630  0.1284
  215MOL0     C28286   2.802   3.163   7.292 -0.1052 -0.6053  0.3265
  215MOL0     C28287   2.678   3.252   7.309  0.5726 -0.8724  0.4643
  215MOL0     C28288   2.645   3.289   7.460 -0.2426  0.1327  0.0993
  215MOL0     C28289   2.541   3.185   7.521 -0.4448  0.4316 -0.6622
  215MOL0     C28290   2.458   3.242   7.635 -0.3332 -0.1937 -0.1115
  215MOL0     C28291   2.328   3.314   7.584 -0.3110  0.2215 -0.3171
  215MOL0    Cl28292   2.274   3.413   7.728  0.2866  0.4458 -0.6892
  215MOL0     C28293   3.141   3.133   6.932  0.3484 -0.3476 -0.0849
  215MOL0     C28294   3.242   3.116   6.833  0.8738  0.0415  0.1884
  215MOL0     O28295   3.323   2.930   6.621  0.4284 -0.1178  0.4360
  215MOL0     C28296   3.662   3.040   6.556  0.0313  0.2221 -0.4960
  215MOL0     C28297   3.756   3.041   6.458  0.0870 -0.3777  0.0277
  215MOL0     N28298   4.444   3.179   6.052  0.1419  0.5602  0.3544
  215MOL0     N28299   4.558   3.145   6.030 -0.1218 -0.3822 -0.0160
  215MOL0     C28300   5.470   2.789   5.223  0.0645 -0.6982 -0.6301
  215MOL0     C28301   5.604   2.815   5.186  1.0717  0.4614 -0.3258
  215MOL0     C28302   5.988   3.066   5.149  0.1379  0.0832 -0.5763
  215MOL0     C28303   6.042   3.169   5.081  1.0646  1.0253  0.3848
  215MOL0     C28304   6.173   3.202   5.073 -0.4493  0.2414  0.1358
  215MOL0     C28305   6.256   3.128   5.158 -0.0331 -0.1070 -1.0573
  215MOL0     O28306   6.389   3.164   5.152  0.5693 -0.0927  1.0043
  215MOL0     C28307   6.487   3.061   5.171 -0.2052 -0.4160  0.0166
  215MOL0     C28308   6.626   3.117   5.133  0.0300  0.2136  0.4098
  215MOL0     C28309   6.693   3.202   5.244  0.7625  0.4883 -0.5178
  215MOL0     C28310   6.845   3.222   5.228  1.0715  1.0378  0.2238
  215MOL0     C28311   6.876   3.293   5.102 -0.2865  0.2269 -1.0568
  215MOL0     C28312   6.875   3.361   5.005  0.5604  0.1216 -0.2581
  215MOL0     C28313   6.213   3.032   5.249  0.5782 -0.6173  0.1827
  215MOL0     C28314   6.075   2.997   5.241 -0.5772 -0.5811  0.6140
  215MOL0     H28315   5.673   3.041   5.427  0.0344 -0.1986 -0.5423
  215MOL0     H28316   5.436   3.021   5.461  0.0855 -2.5895  2.9623
  215MOL0     H28317   5.222   2.726   5.186 -0.5927 -1.6445  0.3376
  215MOL0     H28318   5.142   2.886   5.186 -1.1826  0.9319  2.5066
  215MOL0     H28319   5.083   2.666   5.392 -1.7819 -1.1361  0.0491
  215MOL0     H28320   4.986   2.700   5.244 -1.0273  3.5169 -0.3932
  215MOL0     H28321   4.929   2.934   5.348 -0.4377  0.3888  0.0834
  215MOL0     H28322   5.015   2.872   5.488 -3.3192  5.2293  0.2189
  215MOL0     H28323   4.772   2.749   5.340 -2.4511  1.0745  1.6484
  215MOL0     H28324   4.829   2.696   5.508 -1.0886 -1.6254 -0.0496
  215MOL0     H28325   4.630   2.858   5.482 -0.3203 -0.2577  2.8203
  215MOL0     H28326   4.745   2.990   5.463 -2.6710 -1.0596 -2.1577
  215MOL0     H28327   4.857   2.870   5.681 -0.5915 -3.7845 -1.0071
  215MOL0     H28328   4.705   2.792   5.680  1.7662 -1.0543 -1.1630
  215MOL0     H28329   4.794   3.082   5.729 -1.6705  1.5564 -2.7567
  215MOL0     H28330   4.630   3.059   5.681 -0.1516  2.2494  1.8997
  215MOL0     H28331   4.762   2.992   5.935  0.5817  1.5889 -1.7168
  215MOL0     H28332   4.639   2.865   5.887 -1.3688  0.3160  0.8616
  215MOL0     H28333   4.378   2.965   5.816 -0.3064  0.9576 -0.3844
  215MOL0     H28334   4.171   3.103   5.892  0.4719  2.9207  0.3633
  215MOL0     H28335   4.183   3.231   5.990 -1.2835 -0.3329 -1.0474
  215MOL0     H28336   4.216   3.074   6.185  1.4468  1.5047 -2.3757
  215MOL0     H28337   4.196   2.933   6.082 -1.9791 -0.3687 -0.4661
  215MOL0     H28338   3.981   3.138   6.071  0.5689 -0.2173  0.4811
  215MOL0     H28339   3.964   2.974   6.018  0.4801  1.2205 -0.3322
  215MOL0     H28340   3.987   3.046   6.313 -2.3488  2.2310  0.0078
  215MOL0     H28341   3.967   2.886   6.249  0.2582 -0.4367 -1.9598
  215MOL0     H28342   3.549   2.975   6.198  0.3064  0.2471  0.9591
  215MOL0     H28343   3.375   2.981   6.381 -1.5593 -0.9283  3.9905
  215MOL0     H28344   3.463   2.938   7.028  1.0253  1.9340 -1.5996
  215MOL0     H28345   3.272   2.973   7.200  1.2452  3.3806  1.1829
  215MOL0     H28346   2.900   2.952   7.180 -1.1375 -1.7600 -2.6167
  215MOL0     H28347   2.923   2.999   7.009  1.5688 -0.1932 -0.1337
  215MOL0     H28348   2.752   3.120   7.076 -0.9913  2.0904  0.7567
  215MOL0     H28349   2.880   3.240   7.100  1.6843 -0.6330 -1.6593
  215MOL0     H28350   2.887   3.197   7.352  1.0122 -2.6143 -0.0390
  215MOL0     H28351   2.794   3.067   7.345 -0.9788 -1.9502 -2.0641
  215MOL0     H28352   2.703   3.346   7.259 -3.0618 -0.1301 -0.2926
  215MOL0     H28353   2.592   3.213   7.253  1.3512  0.3586 -1.7075
  215MOL0     H28354   2.616   3.392   7.483  0.9951  0.3869  0.6077
  215MOL0     H28355   2.744   3.277   7.506 -0.2574 -0.1736  0.0509
  215MOL0     H28356   2.591   3.100   7.569 -0.2694  0.6151 -0.5223
  215MOL0     H28357   2.463   3.140   7.458 -1.3447  0.2643  0.5390
  215MOL0     H28358   2.412   3.165   7.697  1.5410 -1.8208 -0.6345
  215MOL0     H28359   2.520   3.308   7.696 -0.5237  1.2383 -1.3928
  215MOL0     H28360   2.250   3.243   7.557 -0.2870  0.1535 -0.2079
  215MOL0     H28361   2.345   3.385   7.503 -3.7076  2.7589  0.9628
  215MOL0     H28362   3.046   3.184   6.920 -0.9244 -0.8054  5.3270
  215MOL0     H28363   3.226   3.160   6.735  2.2215  0.2569  0.0446
  215MOL0     H28364   3.676   3.070   6.659 -2.4803 -0.7398  0.2078
  215MOL0     H28365   3.860   3.072   6.465  0.9333 -2.8432 -0.6414
  215MOL0     H28366   5.424   2.705   5.173 -0.7568 -1.4318  1.2790
  215MOL0     H28367   5.651   2.756   5.108  0.1281  0.4442 -0.9033
  215MOL0     H28368   5.977   3.212   5.005 -0.0417 -0.4937  0.4368
  215MOL0     H28369   6.196   3.270   4.992 -0.6553 -0.0452 -0.1656
  215MOL0     H28370   6.455   2.974   5.113 -1.0095  0.2467 -0.5514
  215MOL0     H28371   6.483   3.033   5.277 -0.9036 -0.0152  0.1062
  215MOL0     H28372   6.684   3.029   5.104 -1.1436 -0.3843 -0.1828
  215MOL0     H28373   6.613   3.180   5.044  1.0448 -0.9842 -0.6137
  215MOL0     H28374   6.675   3.145   5.336  0.7533 -0.5775 -1.1621
  215MOL0     H28375   6.637   3.296   5.256 -1.0996 -0.7341  1.0110
  215MOL0     H28376   6.879   3.264   5.323 -0.1132 -2.7983  2.5637
  215MOL0     H28377   6.903   3.129   5.229 -2.3794 -1.2992  0.3023
  215MOL0     H28378   6.865   3.413   4.911 -2.2808  0.2494  0.0437
  215MOL0     H28379   6.287   2.980   5.310  1.4190 -3.5015 -2.9696
  215MOL0     H28380   6.036   2.912   5.297 -0.6088  0.7537  2.7222
  216MOL0     O28381   8.423   0.746   3.822 -0.7088 -0.3266  0.2113
  216MOL0     C28382   8.491   0.839   3.866  0.9223 -0.2327 -0.5440
  216MOL0     O28383   8.444   0.938   3.945  0.1714  0.5230  0.4951
  216MOL0     C28384   8.316   0.926   3.991  0.2564  0.4114  0.3822
  216MOL0     C28385   8.283   0.928   4.125  0.2168 -0.2792 -0.2387
  216MOL0     C28386   8.149   0.940   4.169 -0.0623  0.0018 -0.5151
  216MOL0     C28387   8.039   0.929   4.084  0.6060  0.3424 -0.6213
  216MOL0     O28388   7.903   0.945   4.118  0.1197 -0.1051 -0.0077
  216MOL0     C28389   7.872   0.923   4.258 -0.3901  0.5303  0.0086
  216MOL0     C28390   7.722   0.935   4.280  0.3872  0.1143  0.1718
  216MOL0     C28391   7.631   0.845   4.188  0.6328 -0.0754 -0.2821
  216MOL0     C28392   7.506   0.795   4.266  0.6996 -0.3796  0.3916
  216MOL0     C28393   7.376   0.772   4.185  0.7539 -0.4544 -0.2368
  216MOL0     C28394   7.384   0.658   4.081  0.5990 -0.1944 -0.7710
  216MOL0     C28395   7.365   0.513   4.127 -0.4149  0.3708 -0.3892
  216MOL0     C28396   7.222   0.488   4.173  0.1640  0.5305  0.0662
  216MOL0     N28397   7.186   0.354   4.210  0.0406  0.3537  0.4178
  216MOL0     C28398   7.274   0.253   4.213 -0.1934  0.4803  0.0173
  216MOL0     C28399   7.202   0.132   4.199  0.1033 -0.4957 -1.3623
  216MOL0     C28400   7.255  -0.008   4.216 -0.4754  0.1313  0.1223
  216MOL0     C28401   7.295  -0.047   4.352 -0.2582 -0.8857 -0.4985
  216MOL0     C28402   7.312  -0.202   4.377  0.8174 -0.4207 -1.0233
  216MOL0     C28403   7.305  -0.242   4.532 -1.3087  0.6671 -0.0952
  216MOL0     O28404   7.217  -0.159   4.603  0.9849 -0.1671  0.1251
  216MOL0     C28405   7.140  -0.235   4.688  0.4519 -0.1566 -0.3762
  216MOL0     C28406   7.033  -0.165   4.748  0.3416  0.9005  0.1540
  216MOL0     C28407   6.959  -0.225   4.854  0.1791  0.5385 -0.2600
  216MOL0     C28408   6.991  -0.348   4.908  0.8483  0.4007 -0.3674
  216MOL0     C28409   6.915  -0.394   5.031 -0.1636  0.0627  0.4704
  216MOL0     O28410   6.805  -0.317   5.068 -0.2779  0.4832  0.2296
  216MOL0     C28411   6.720  -0.351   5.171 -0.2224 -0.6349 -0.2411
  216MOL0     C28412   6.658  -0.241   5.241 -0.1453 -0.0511  0.1052
  216MOL0     C28413   6.565  -0.259   5.344  0.1756 -0.0844  0.3967
  216MOL0     C28414   6.550  -0.386   5.389 -0.8120 -0.1768 -0.0606
  216MOL0     O28415   6.466  -0.428   5.490 -0.0931 -1.1039 -0.9660
  216MOL0     C28416   6.439  -0.336   5.597 -0.1726  0.7259  0.6682
  216MOL0     C28417   6.340  -0.399   5.691  0.0284 -0.5493 -0.1354
  216MOL0     C28418   6.207  -0.433   5.622 -0.6340  0.7997  0.4918
  216MOL0     C28419   6.105  -0.492   5.714  0.1434  0.3953  0.1100
  216MOL0     C28420   5.964  -0.503   5.649 -0.5133 -0.7621 -1.1528
  216MOL0     C28421   5.874  -0.581   5.754  0.4919  0.0420  0.0615
  216MOL0     C28422   5.724  -0.552   5.731  0.5362 -0.1711 -0.3991
  216MOL0     C28423   5.627  -0.631   5.825  0.7279  1.3934  1.2099
  216MOL0    Cl28424   5.468  -0.624   5.756 -0.4034 -0.0757  0.1170
  216MOL0     C28425   6.606  -0.489   5.323 -0.3973 -0.0497 -0.3517
  216MOL0     C28426   6.704  -0.480   5.223 -0.2536 -0.5334  1.0345
  216MOL0     O28427   6.958  -0.500   5.086  0.1570 -0.1392 -0.1843
  216MOL0     C28428   7.097  -0.417   4.856 -0.5278  0.4203 -0.0219
  216MOL0     C28429   7.168  -0.359   4.748  0.0937  0.8122 -0.8039
  216MOL0     N28430   7.072   0.168   4.159 -0.7558 -0.3286  0.5546
  216MOL0     N28431   7.070   0.294   4.172 -0.1069 -0.4858  0.4527
  216MOL0     C28432   8.075   0.929   3.946 -0.6285  1.0079 -0.6189
  216MOL0     C28433   8.206   0.932   3.908 -0.0836  0.3220  0.3764
  216MOL0     C28434   8.638   0.847   3.837  1.0319 -0.3518 -0.6545
  216MOL0     C28435   8.713   0.958   3.888 -0.3134  0.1859 -0.2922
  216MOL0     C28436   8.846   0.975   3.861  0.3194  0.8864  0.2124
  216MOL0     C28437   8.902   0.890   3.775 -0.4803 -0.7170  0.2411
  216MOL0     O28438   9.036   0.915   3.758 -0.0897 -0.0192  0.5008
  216MOL0     C28439   9.124   0.806   3.734  0.5491  0.5077  0.0517
  216MOL0     C28440   9.270   0.833   3.760 -0.2674 -0.9447  0.1284
  216MOL0     C28441   9.319   0.959   3.694  0.4626 -0.0049  0.0336
  216MOL0     C28442   9.352   0.942   3.538  0.7203  0.3970 -0.0577
  216MOL0     C28443   9.450   0.840   3.519 -0.1191 -0.0328  0.0951
  216MOL0     C28444   9.544   0.763   3.510  0.4081  0.0402 -0.8219
  216MOL0     C28445   8.836   0.776   3.729 -0.2441  0.0077 -0.9022
  216MOL0     C28446   8.699   0.751   3.761  0.0308  0.8101  0.8876
  216MOL0     H28447   8.371   0.915   4.187  0.2693 -0.7773 -0.4161
  216MOL0     H28448   8.130   0.937   4.276 -0.5755  0.2100 -0.5920
  216MOL0     H28449   7.924   1.001   4.315 -0.2949  0.6939 -0.2985
  216MOL0     H28450   7.907   0.827   4.298 -3.0721 -0.4967  0.0513
  216MOL0     H28451   7.693   1.036   4.247  0.4401 -0.2999 -1.2080
  216MOL0     H28452   7.702   0.910   4.384  0.4578 -1.2763 -0.1325
  216MOL0     H28453   7.684   0.758   4.149 -3.0139 -2.3935 -0.5562
  216MOL0     H28454   7.586   0.914   4.115  0.1587 -0.9809 -0.8703
  216MOL0     H28455   7.536   0.699   4.310  1.1157 -0.2048  0.4908
  216MOL0     H28456   7.477   0.870   4.340 -2.6984 -0.4404 -0.6777
  216MOL0     H28457   7.368   0.870   4.138  1.0908 -0.7233 -0.8516
  216MOL0     H28458   7.296   0.761   4.260  1.6878 -3.1346  0.4584
  216MOL0     H28459   7.487   0.658   4.044  0.7883  3.4867 -0.6603
  216MOL0     H28460   7.322   0.685   3.995 -0.3759 -0.5750 -0.1963
  216MOL0     H28461   7.381   0.455   4.035  0.3937 -0.2143  0.0997
  216MOL0     H28462   7.438   0.487   4.204 -2.9014 -0.8854  1.6794
  216MOL0     H28463   7.165   0.520   4.086  0.4153 -0.5249 -0.5038
  216MOL0     H28464   7.198   0.553   4.258  2.3148 -0.3522  1.4590
  216MOL0     H28465   7.383   0.249   4.210 -0.2348 -1.2427 -0.5165
  216MOL0     H28466   7.345  -0.018   4.154 -1.4859 -1.6361 -1.1658
  216MOL0     H28467   7.191  -0.090   4.180  0.7469 -0.6791 -0.2741
  216MOL0     H28468   7.214  -0.019   4.421 -0.3470 -2.1903 -0.0406
  216MOL0     H28469   7.379   0.014   4.388 -1.2415 -0.7628  1.7607
  216MOL0     H28470   7.222  -0.246   4.332 -0.6074  1.2831  0.0540
  216MOL0     H28471   7.396  -0.257   4.333  0.1178 -0.7810 -1.9460
  216MOL0     H28472   7.408  -0.238   4.568 -1.3833  4.0205  0.0416
  216MOL0     H28473   7.290  -0.350   4.534 -0.5341  0.5608  0.4416
  216MOL0     H28474   7.008  -0.064   4.718 -1.0221  1.1166  1.8491
  216MOL0     H28475   6.881  -0.162   4.894 -3.3055 -0.8747 -4.1530
  216MOL0     H28476   6.678  -0.141   5.204 -2.0185  0.3364  0.0678
  216MOL0     H28477   6.513  -0.173   5.383  2.4220  1.9495 -0.7889
  216MOL0     H28478   6.384  -0.248   5.563 -2.4499 -0.3292  1.4566
  216MOL0     H28479   6.530  -0.312   5.653 -0.7371  2.8381  0.7667
  216MOL0     H28480   6.319  -0.324   5.767  0.7990  1.5307 -1.8952
  216MOL0     H28481   6.380  -0.484   5.747 -0.6899  0.5941  2.2509
  216MOL0     H28482   6.218  -0.497   5.534 -1.1711  0.2615  0.8077
  216MOL0     H28483   6.162  -0.339   5.588 -1.2074  0.3769  0.0577
  216MOL0     H28484   6.135  -0.595   5.734  0.0031  1.0291  4.6197
  216MOL0     H28485   6.117  -0.437   5.807  4.9008 -0.7875  0.4300
  216MOL0     H28486   5.961  -0.563   5.557 -0.5763 -4.2506  0.9534
  216MOL0     H28487   5.927  -0.401   5.631 -1.0795 -0.4517  1.4271
  216MOL0     H28488   5.895  -0.555   5.859 -4.9298 -0.3017  1.5635
  216MOL0     H28489   5.884  -0.690   5.750  1.7292 -0.2465  4.8197
  216MOL0     H28490   5.702  -0.446   5.747 -2.5175 -0.1721 -3.3463
  216MOL0     H28491   5.701  -0.580   5.627  0.0734 -1.4300  0.0167
  216MOL0     H28492   5.627  -0.576   5.919 -5.0963  1.2686  1.6440
  216MOL0     H28493   5.661  -0.735   5.834  0.6747  1.3196  0.6297
  216MOL0     H28494   6.595  -0.583   5.376 -1.3216  1.2302  1.8601
  216MOL0     H28495   6.759  -0.565   5.184  3.9199  2.2838  0.1189
  216MOL0     H28496   7.127  -0.512   4.898  1.8399  2.7465  4.3394
  216MOL0     H28497   7.250  -0.425   4.721  0.5474  0.4035  1.3847
  216MOL0     H28498   8.003   0.941   3.866 -0.7777 -0.8810 -0.8057
  216MOL0     H28499   8.226   0.957   3.805 -0.7533 -1.1753 -0.1415
  216MOL0     H28500   8.657   1.032   3.945 -0.4547 -1.4462  1.8407
  216MOL0     H28501   8.902   1.063   3.893  1.7510  1.8162 -4.0942
  216MOL0     H28502   9.110   0.770   3.632  0.5596 -1.4951  0.6968
  216MOL0     H28503   9.093   0.716   3.789  0.3280  2.3920  3.2532
  216MOL0     H28504   9.288   0.849   3.866 -3.1144 -2.9332  1.0514
  216MOL0     H28505   9.331   0.755   3.714  0.8383  0.5507 -1.0302
  216MOL0     H28506   9.413   0.984   3.745 -0.5299  2.0223  0.9664
  216MOL0     H28507   9.248   1.041   3.702  0.4947  0.0922 -0.6455
  216MOL0     H28508   9.266   0.896   3.489  2.7373 -2.0211 -1.5901
  216MOL0     H28509   9.382   1.037   3.491  0.7561  1.0147  1.1735
  216MOL0     H28510   9.622   0.690   3.499 -0.5271 -1.1762  0.2665
  216MOL0     H28511   8.891   0.719   3.655  1.3170 -0.2463  0.3974
  216MOL0     H28512   8.646   0.664   3.724  0.7223  0.8821 -0.3234
  217MOL0     O28513   8.600   1.316   5.327  0.2003  0.0024  0.6014
  217MOL0     C28514   8.560   1.425   5.288 -0.4295 -1.3176 -0.7918
  217MOL0     O28515   8.431   1.474   5.275 -0.1361 -0.2981 -1.1986
  217MOL0     C28516   8.325   1.405   5.326 -0.5065  0.4849  0.1155
  217MOL0     C28517   8.195   1.426   5.265  0.0129  0.2524 -0.2109
  217MOL0     C28518   8.076   1.363   5.321 -0.2659 -0.2224 -0.5529
  217MOL0     C28519   8.093   1.282   5.432  0.5647  0.9675 -0.3220
  217MOL0     O28520   7.996   1.196   5.465  0.2551 -0.3645  0.1616
  217MOL0     C28521   7.881   1.262   5.519 -0.4689 -0.2499  0.2431
  217MOL0     C28522   7.752   1.256   5.437 -0.0661  0.2498  0.1103
  217MOL0     C28523   7.628   1.277   5.518  0.6109 -0.9555 -0.2249
  217MOL0     C28524   7.502   1.239   5.430 -0.1899 -0.1396 -0.0174
  217MOL0     C28525   7.475   1.091   5.432 -0.4071 -0.0375 -0.0192
  217MOL0     C28526   7.351   1.034   5.358  1.1141 -0.2100 -0.1112
  217MOL0     C28527   7.351   1.059   5.206 -0.3500  0.3515 -0.6268
  217MOL0     C28528   7.457   0.980   5.139  0.0222  0.3709 -0.1534
  217MOL0     N28529   7.462   0.982   4.990 -0.2046 -0.9416  0.0829
  217MOL0     C28530   7.368   0.925   4.902 -0.8255 -0.5713 -0.2124
  217MOL0     C28531   7.417   0.912   4.775  0.3818 -1.6952 -0.3107
  217MOL0     C28532   7.344   0.838   4.667 -0.6520  0.1151 -0.1960
  217MOL0     C28533   7.271   0.710   4.706 -0.3482 -0.1634 -0.1234
  217MOL0     C28534   7.199   0.658   4.582  0.7298  0.0792  0.0020
  217MOL0     C28535   7.054   0.623   4.608 -0.0996 -0.0830  0.3536
  217MOL0     O28536   6.958   0.729   4.606  0.6440 -0.2675 -0.4565
  217MOL0     C28537   6.824   0.692   4.595  0.0111 -0.4524  0.7025
  217MOL0     C28538   6.782   0.558   4.615 -0.4669  0.0797  0.5011
  217MOL0     C28539   6.644   0.525   4.607  0.6148 -0.9719  0.5214
  217MOL0     C28540   6.542   0.622   4.596 -0.6336 -0.2097 -0.0312
  217MOL0     C28541   6.399   0.580   4.592  0.4630  0.3428 -0.0715
  217MOL0     O28542   6.376   0.450   4.591  0.0120  0.1912 -0.0605
  217MOL0     C28543   6.261   0.389   4.547 -0.3712  0.0553  0.0101
  217MOL0     C28544   6.178   0.431   4.443 -0.1740  0.3319  0.4355
  217MOL0     C28545   6.087   0.337   4.394 -1.1191 -0.0497 -0.5445
  217MOL0     C28546   6.069   0.213   4.451  0.0983 -0.2976 -1.0053
  217MOL0     O28547   5.966   0.122   4.423  0.7285  0.6688  0.3661
  217MOL0     C28548   5.896   0.132   4.301  1.0737  0.0803 -0.4523
  217MOL0     C28549   5.798   0.014   4.311  0.6731 -0.7264  0.9901
  217MOL0     C28550   5.716  -0.005   4.180 -0.3872  0.1583 -0.9020
  217MOL0     C28551   5.585  -0.084   4.221 -0.6638 -0.3168 -0.2092
  217MOL0     C28552   5.509  -0.133   4.100  0.5681  0.2054 -0.1848
  217MOL0     C28553   5.375  -0.215   4.139  0.8651  0.1556  0.0023
  217MOL0     C28554   5.401  -0.327   4.240  0.0123 -0.2022 -0.6165
  217MOL0     C28555   5.277  -0.415   4.266 -0.3170  0.0776 -0.1354
  217MOL0    Cl28556   5.119  -0.326   4.283  0.1197 -0.1496 -0.4118
  217MOL0     C28557   6.158   0.174   4.550  0.8881  0.9069 -0.0855
  217MOL0     C28558   6.249   0.265   4.603 -0.2174 -0.0355 -0.4278
  217MOL0     O28559   6.316   0.670   4.598  0.0708  0.8531 -0.7191
  217MOL0     C28560   6.580   0.759   4.581  0.2670  1.0225 -0.0997
  217MOL0     C28561   6.720   0.792   4.583 -0.2842 -0.1472 -0.0733
  217MOL0     N28562   7.533   0.975   4.779  0.4530 -0.5854 -0.0668
  217MOL0     N28563   7.560   1.007   4.909 -0.7367 -0.2768  0.3093
  217MOL0     C28564   8.211   1.273   5.508  0.8763 -0.1473  0.4085
  217MOL0     C28565   8.322   1.344   5.460  0.1201 -0.0332  0.2985
  217MOL0     C28566   8.666   1.514   5.252 -0.1735  1.1590  0.6049
  217MOL0     C28567   8.794   1.461   5.218 -0.9680 -0.2605  0.4041
  217MOL0     C28568   8.894   1.561   5.185  0.1906 -0.4167  0.3496
  217MOL0     C28569   8.872   1.698   5.174  0.2157 -0.1231 -0.2403
  217MOL0     O28570   8.962   1.790   5.142  0.1357  0.0580  0.2747
  217MOL0     C28571   9.096   1.762   5.107  0.5866 -0.0991  0.3024
  217MOL0     C28572   9.114   1.694   4.974  0.3111  0.1958  0.7112
  217MOL0     C28573   9.269   1.668   4.953  0.6163  0.7110  0.5953
  217MOL0     C28574   9.306   1.632   4.811 -0.2452 -0.3237  0.8358
  217MOL0     C28575   9.445   1.592   4.795  0.1632 -0.2781  0.6311
  217MOL0     C28576   9.561   1.569   4.781 -0.1027 -0.4575 -0.4598
  217MOL0     C28577   8.749   1.739   5.219 -0.3089  0.0030  0.5204
  217MOL0     C28578   8.647   1.648   5.247  1.0360  0.4557 -0.3281
  217MOL0     H28579   8.194   1.479   5.171  2.0633  4.3468  1.7780
  217MOL0     H28580   7.985   1.368   5.261 -1.1828  0.9296  0.8496
  217MOL0     H28581   7.895   1.370   5.525 -3.2146  0.1814  0.0902
  217MOL0     H28582   7.873   1.222   5.620 -0.1293  0.5727  0.5987
  217MOL0     H28583   7.746   1.162   5.382 -1.7345  0.2799  0.1949
  217MOL0     H28584   7.751   1.329   5.355  0.9970  1.8300  1.4246
  217MOL0     H28585   7.615   1.382   5.546  0.1245 -1.8440  3.2727
  217MOL0     H28586   7.635   1.211   5.604  2.0439  0.6189  0.9250
  217MOL0     H28587   7.419   1.288   5.481  0.5604  0.3893  0.7330
  217MOL0     H28588   7.524   1.276   5.329 -1.8257 -4.2406 -2.0632
  217MOL0     H28589   7.456   1.062   5.536 -1.3906 -0.5506 -0.3263
  217MOL0     H28590   7.563   1.035   5.401 -1.6229 -2.4711  0.6966
  217MOL0     H28591   7.256   1.071   5.399  1.1152 -0.9069  0.5536
  217MOL0     H28592   7.348   0.926   5.375  2.3094 -0.4876 -1.4837
  217MOL0     H28593   7.253   1.034   5.164 -1.5438  1.6344  1.2525
  217MOL0     H28594   7.359   1.166   5.186 -1.0851  0.8669  1.5497
  217MOL0     H28595   7.470   0.878   5.176 -0.5957  1.6281  3.9580
  217MOL0     H28596   7.555   1.016   5.171  0.7562 -2.7022  1.3753
  217MOL0     H28597   7.272   0.881   4.928  0.5065 -4.1272 -0.7280
  217MOL0     H28598   7.406   0.821   4.578  2.1467  2.9253  1.0255
  217MOL0     H28599   7.269   0.910   4.632 -2.0576 -1.7057 -1.1302
  217MOL0     H28600   7.204   0.728   4.790 -0.0404  1.2267 -0.1520
  217MOL0     H28601   7.328   0.623   4.740 -3.4306 -2.2499  0.1245
  217MOL0     H28602   7.198   0.739   4.509  0.8329 -0.6708 -0.8395
  217MOL0     H28603   7.248   0.567   4.546 -2.0904 -1.6720  0.2121
  217MOL0     H28604   7.040   0.572   4.704  0.5175  1.4458  1.3097
  217MOL0     H28605   7.026   0.552   4.530  1.4264  0.0527 -0.3535
  217MOL0     H28606   6.850   0.476   4.635  0.9033  0.5209 -1.8882
  217MOL0     H28607   6.611   0.422   4.609 -0.1540 -0.7444  0.0181
  217MOL0     H28608   6.203   0.527   4.401 -0.4073 -0.4010 -1.4683
  217MOL0     H28609   6.021   0.373   4.316 -2.1358 -2.1569 -0.7229
  217MOL0     H28610   5.961   0.124   4.213  2.4823  0.1092  0.5410
  217MOL0     H28611   5.831   0.218   4.288 -0.4177 -0.4590  2.5160
  217MOL0     H28612   5.730   0.019   4.397 -0.0393  2.2845  0.3711
  217MOL0     H28613   5.863  -0.074   4.319  1.6692  0.0837  2.2092
  217MOL0     H28614   5.778  -0.052   4.102 -0.6964  3.3270 -3.2348
  217MOL0     H28615   5.688   0.095   4.148  3.2250  1.1174 -1.5519
  217MOL0     H28616   5.618  -0.166   4.285 -1.0599  1.6003  2.6200
  217MOL0     H28617   5.521  -0.012   4.273 -2.0012 -1.6109  0.0138
  217MOL0     H28618   5.570  -0.186   4.026 -1.9340 -3.0056 -0.1759
  217MOL0     H28619   5.473  -0.049   4.040  1.2863  0.0099 -0.9153
  217MOL0     H28620   5.321  -0.245   4.049  0.9462 -1.2301  0.3922
  217MOL0     H28621   5.315  -0.141   4.193 -1.5364  0.5496 -2.9061
  217MOL0     H28622   5.481  -0.387   4.194  0.4972  1.0678 -1.4805
  217MOL0     H28623   5.424  -0.299   4.343 -4.0882 -2.5082  1.1682
  217MOL0     H28624   5.283  -0.473   4.358 -6.0045  0.6684  1.0105
  217MOL0     H28625   5.264  -0.475   4.176 -2.7057  0.9911 -0.4891
  217MOL0     H28626   6.137   0.076   4.590  0.9939 -0.2614 -2.6866
  217MOL0     H28627   6.323   0.232   4.675  1.9366  1.0509 -2.0341
  217MOL0     H28628   6.513   0.843   4.567  0.3807  0.9382 -1.2096
  217MOL0     H28629   6.749   0.896   4.579  2.8099 -0.9697 -3.1225
  217MOL0     H28630   8.193   1.214   5.597 -2.8006  0.7659  0.4119
  217MOL0     H28631   8.412   1.352   5.521  0.0104 -2.0073  0.7944
  217MOL0     H28632   8.825   1.357   5.213  6.4278  1.4337 -1.7350
  217MOL0     H28633   8.996   1.526   5.169 -0.2004 -2.8215  2.3966
  217MOL0     H28634   9.132   1.693   5.184  2.2164 -0.1446 -0.4595
  217MOL0     H28635   9.149   1.856   5.097 -2.7877  2.0419  0.8340
  217MOL0     H28636   9.066   1.595   4.967 -0.7817  0.8375 -2.7267
  217MOL0     H28637   9.071   1.758   4.897  2.0652 -0.3081 -0.7291
  217MOL0     H28638   9.301   1.581   5.012 -1.0478 -0.2535  0.1359
  217MOL0     H28639   9.327   1.760   4.967  2.4844 -0.2118 -0.7159
  217MOL0     H28640   9.240   1.555   4.771  0.1749  0.2025 -0.9719
  217MOL0     H28641   9.303   1.729   4.759 -1.6308 -1.3813 -1.2044
  217MOL0     H28642   9.662   1.536   4.765  0.1867  1.1667 -2.3391
  217MOL0     H28643   8.726   1.845   5.227 -3.9855 -0.6494  0.1830
  217MOL0     H28644   8.552   1.690   5.276  0.6018 -1.7964  1.8287
  218MOL0     O28645   3.669   4.819  11.126 -0.1716  0.1141 -0.5430
  218MOL0     C28646   3.654   4.730  11.052 -0.3407  0.3925  0.5382
  218MOL0     O28647   3.537   4.671  11.027  0.5323  0.3134  0.0988
  218MOL0     C28648   3.418   4.713  11.078  0.0166  0.5821 -0.2933
  218MOL0     C28649   3.312   4.719  10.983  0.1683  0.3464 -0.5601
  218MOL0     C28650   3.180   4.748  11.027 -0.2435  1.2220  0.6249
  218MOL0     C28651   3.144   4.750  11.158 -1.1930  0.1933 -0.6780
  218MOL0     O28652   3.015   4.752  11.195  0.2496 -0.2934 -0.4072
  218MOL0     C28653   2.992   4.823  11.318  0.2922  0.2240  0.1413
  218MOL0     C28654   2.872   4.919  11.314  0.5677  0.4901  0.7005
  218MOL0     C28655   2.754   4.836  11.248 -0.6694 -1.0988  0.7339
  218MOL0     C28656   2.632   4.928  11.246 -0.1001  0.6906  0.0803
  218MOL0     C28657   2.645   5.032  11.130  0.5636  0.0464  0.0472
  218MOL0     C28658   2.513   5.101  11.119 -0.3144  0.7021 -0.2801
  218MOL0     C28659   2.505   5.218  11.019 -0.8413  0.1331  0.5825
  218MOL0     C28660   2.501   5.169  10.864  0.0946 -0.4031 -0.8076
  218MOL0     N28661   2.460   5.277  10.768  0.4554 -0.1559 -0.6715
  218MOL0     C28662   2.328   5.294  10.733 -0.2274 -1.4178 -0.6322
  218MOL0     C28663   2.332   5.413  10.663 -0.8129  0.8416  0.0400
  218MOL0     C28664   2.212   5.455  10.589 -0.3142  0.4363  0.8271
  218MOL0     C28665   2.191   5.608  10.593  0.7059 -0.1129  0.4047
  218MOL0     C28666   2.038   5.641  10.552 -0.7439  0.3851  0.0496
  218MOL0     C28667   2.008   5.787  10.552  0.0951  0.2340  0.2108
  218MOL0     O28668   1.991   5.827  10.685  0.1517  0.2045 -0.0408
  218MOL0     C28669   1.859   5.860  10.720 -0.2775  0.0767  0.1462
  218MOL0     C28670   1.794   5.962  10.659 -0.5350  0.2224 -0.2156
  218MOL0     C28671   1.657   5.982  10.676  0.4619 -0.2055  1.1615
  218MOL0     C28672   1.589   5.900  10.762  0.3635 -0.3229 -0.2560
  218MOL0     C28673   1.438   5.894  10.774 -0.3158  0.3890  0.5071
  218MOL0     O28674   1.373   5.775  10.815 -0.5103 -0.5849  0.5426
  218MOL0     C28675   1.239   5.781  10.808  0.2170 -0.5318 -0.0302
  218MOL0     C28676   1.167   5.831  10.701 -0.8379 -0.7967  0.1236
  218MOL0     C28677   1.026   5.830  10.699  0.3020 -0.7699 -0.3604
  218MOL0     C28678   0.952   5.769  10.799  0.2022  0.6135  0.9374
  218MOL0     O28679   0.814   5.769  10.797  0.2792 -0.0584 -0.3420
  218MOL0     C28680   0.745   5.690  10.895 -0.4159 -0.0831  0.0283
  218MOL0     C28681   0.596   5.699  10.858  0.0601 -0.6042 -0.2744
  218MOL0     C28682   0.493   5.637  10.955  0.5829  0.0007  0.6916
  218MOL0     C28683   0.361   5.650  10.888  1.1201  0.0582  0.6769
  218MOL0     C28684   0.243   5.636  10.992 -1.3492  0.9103  1.2496
  218MOL0     C28685   0.114   5.619  10.926  0.2967  0.6777  0.3741
  218MOL0     C28686  -0.002   5.655  11.020 -0.1834  0.4560 -0.1899
  218MOL0     C28687   0.014   5.615  11.168  0.5148  0.0093  1.1676
  218MOL0    Cl28688  -0.012   5.443  11.182  0.2156  0.0202 -0.2713
  218MOL0     C28689   1.022   5.725  10.911 -0.0313  0.3742  0.3770
  218MOL0     C28690   1.164   5.731  10.923  0.3655 -0.4882  0.2477
  218MOL0     O28691   1.381   6.004  10.755  0.1124  1.0141  0.0991
  218MOL0     C28692   1.658   5.795  10.828  0.2944 -0.4478 -0.4257
  218MOL0     C28693   1.790   5.782  10.810  0.0797  1.1057  0.3833
  218MOL0     N28694   2.459   5.461  10.658 -0.3904 -0.2898 -0.0282
  218MOL0     N28695   2.531   5.381  10.725 -0.5318  0.2760 -1.4673
  218MOL0     C28696   3.249   4.739  11.254  0.6824 -0.3180 -0.1166
  218MOL0     C28697   3.385   4.738  11.212 -0.6119  0.1366 -0.9550
  218MOL0     C28698   3.775   4.664  10.992  0.1628  0.1490  0.3953
  218MOL0     C28699   3.898   4.688  11.040 -0.6284  0.7822  0.1189
  218MOL0     C28700   4.011   4.633  10.977  0.4259  0.2809  0.6669
  218MOL0     C28701   4.002   4.528  10.888  0.1370  0.1787  0.0962
  218MOL0     O28702   4.114   4.457  10.858 -0.4960 -0.4034 -0.3414
  218MOL0     C28703   4.119   4.364  10.741  0.8439  0.2214 -0.4619
  218MOL0     C28704   4.260   4.326  10.702  0.3574 -0.0675  0.2375
  218MOL0     C28705   4.268   4.298  10.551  0.0842  0.2806  0.2952
  218MOL0     C28706   4.393   4.224  10.505  0.0968 -1.0925 -0.1146
  218MOL0     C28707   4.400   4.097  10.581 -0.4218  0.3313  0.1441
  218MOL0     C28708   4.426   3.989  10.639  0.8646 -0.0379  0.1348
  218MOL0     C28709   3.877   4.508  10.827  0.0549  1.0110 -0.1166
  218MOL0     C28710   3.765   4.574  10.881  1.0319 -0.1351  0.1705
  218MOL0     H28711   3.347   4.706  10.881  0.5252  0.5666 -0.4656
  218MOL0     H28712   3.110   4.766  10.946  1.2039  1.8326 -0.5380
  218MOL0     H28713   3.073   4.887  11.353  1.2908 -2.3321  2.9162
  218MOL0     H28714   2.968   4.749  11.395 -0.2152  1.6938  1.4409
  218MOL0     H28715   2.902   5.006  11.255 -3.4147 -0.4015 -3.1820
  218MOL0     H28716   2.838   4.959  11.410 -1.5529 -1.1584  0.7091
  218MOL0     H28717   2.746   4.737  11.294  3.1663 -2.0176 -0.2339
  218MOL0     H28718   2.779   4.816  11.143 -3.4202 -0.6240 -0.0846
  218MOL0     H28719   2.540   4.870  11.231  0.0917 -0.0296  1.5346
  218MOL0     H28720   2.619   4.971  11.346 -0.9654 -2.8960  1.6627
  218MOL0     H28721   2.682   4.996  11.033  1.8321  0.0457  0.5037
  218MOL0     H28722   2.718   5.108  11.159 -1.3550  2.1194 -0.3365
  218MOL0     H28723   2.488   5.150  11.214  0.7477  3.6576 -1.3886
  218MOL0     H28724   2.439   5.025  11.093 -0.3896 -0.1803  2.2138
  218MOL0     H28725   2.417   5.277  11.045 -3.7939 -4.1973  1.4600
  218MOL0     H28726   2.597   5.275  11.036 -0.9563 -0.1221  2.2578
  218MOL0     H28727   2.429   5.088  10.859  0.3772 -0.5980 -2.0373
  218MOL0     H28728   2.591   5.120  10.824  1.3460  1.6350 -0.6815
  218MOL0     H28729   2.241   5.232  10.755 -2.4885  1.1804 -1.6571
  218MOL0     H28730   2.120   5.415  10.633 -2.2460  1.3314 -2.1110
  218MOL0     H28731   2.222   5.419  10.486  1.7700 -0.3063  1.2435
  218MOL0     H28732   2.263   5.662  10.532 -0.7063  0.7968 -0.5098
  218MOL0     H28733   2.209   5.642  10.695  2.1015  1.3154 -0.2795
  218MOL0     H28734   2.033   5.601  10.450  0.8127 -3.1068  1.2000
  218MOL0     H28735   1.968   5.588  10.618  0.7027 -1.8818 -0.1034
  218MOL0     H28736   1.918   5.808  10.494  1.3734  1.4061 -1.4422
  218MOL0     H28737   2.088   5.840  10.500 -0.1359  0.5355  0.1612
  218MOL0     H28738   1.836   6.020  10.577 -1.4590 -0.5731 -1.2695
  218MOL0     H28739   1.596   6.047  10.614 -0.5781  0.2591  2.6075
  218MOL0     H28740   1.212   5.861  10.607 -1.3300  3.0411  0.9633
  218MOL0     H28741   0.967   5.860  10.613  1.2495 -0.8694 -1.0743
  218MOL0     H28742   0.759   5.727  10.997 -1.8751 -0.5969  0.4512
  218MOL0     H28743   0.779   5.586  10.894 -0.8457 -0.2481  1.1224
  218MOL0     H28744   0.596   5.669  10.753  3.1399  3.6573 -1.7808
  218MOL0     H28745   0.582   5.808  10.860  2.5378 -0.1956 -1.4332
  218MOL0     H28746   0.487   5.681  11.055 -2.3672  2.9545 -0.6059
  218MOL0     H28747   0.514   5.529  10.958  3.5924  0.4034 -1.0745
  218MOL0     H28748   0.353   5.753  10.853  2.6542  0.3937  1.2585
  218MOL0     H28749   0.351   5.576  10.808 -0.2960  0.3132  0.5862
  218MOL0     H28750   0.250   5.728  11.050  0.5174  0.6627  1.4914
  218MOL0     H28751   0.265   5.554  11.061 -0.3611 -0.0820 -0.1637
  218MOL0     H28752   0.111   5.525  10.870  1.9559  0.3400  0.8048
  218MOL0     H28753   0.089   5.690  10.846  0.9740 -1.5728 -1.9870
  218MOL0     H28754  -0.004   5.764  11.021 -0.0348  0.5194  2.9810
  218MOL0     H28755  -0.100   5.622  10.983 -1.6545  2.4107  1.7380
  218MOL0     H28756  -0.060   5.666  11.230 -0.9792 -1.6700  0.8545
  218MOL0     H28757   0.106   5.657  11.209  0.3167  1.8661 -0.1260
  218MOL0     H28758   0.968   5.680  10.994 -0.0525 -0.5593 -0.1212
  218MOL0     H28759   1.209   5.690  11.012  2.8105  2.1212  0.3778
  218MOL0     H28760   1.610   5.722  10.892 -0.0832 -0.6155 -0.8849
  218MOL0     H28761   1.846   5.706  10.864 -0.9189  1.0491  1.3530
  218MOL0     H28762   3.242   4.719  11.361  0.1522  0.2865 -0.0340
  218MOL0     H28763   3.462   4.742  11.288 -0.7592  1.8762 -0.8591
  218MOL0     H28764   3.916   4.766  11.114 -1.0683  1.4726 -0.4823
  218MOL0     H28765   4.104   4.681  11.006  0.8211  0.1418 -0.3297
  218MOL0     H28766   4.081   4.426  10.660 -2.2616 -1.9677 -0.8646
  218MOL0     H28767   4.070   4.269  10.765 -0.1335  0.2644 -2.1496
  218MOL0     H28768   4.329   4.403  10.738 -3.5829  3.0500  1.9511
  218MOL0     H28769   4.271   4.229  10.752 -1.3651 -0.0791  0.6635
  218MOL0     H28770   4.250   4.396  10.506  2.9183  1.7980  2.1244
  218MOL0     H28771   4.184   4.233  10.527  0.5644 -0.4178  0.4732
  218MOL0     H28772   4.383   4.201  10.398  1.2806 -2.9762  0.1379
  218MOL0     H28773   4.484   4.283  10.516 -0.6601 -0.3102  2.7179
  218MOL0     H28774   4.441   3.899  10.695 -2.5243 -0.2971  0.8737
  218MOL0     H28775   3.861   4.440  10.744 -1.2226  1.7591 -0.4984
  218MOL0     H28776   3.674   4.548  10.829  1.2129  1.0277 -0.7788
  219MOL0     O28777   7.919   8.315   6.926  0.0459 -0.4447  0.6557
  219MOL0     C28778   7.921   8.205   6.985  0.2902 -0.1548  1.3405
  219MOL0     O28779   7.804   8.144   7.041 -0.0181 -0.6728  0.6372
  219MOL0     C28780   7.686   8.207   7.009  0.0159 -0.9767 -0.2349
  219MOL0     C28781   7.641   8.225   6.877  0.0143  0.9261  0.2898
  219MOL0     C28782   7.525   8.290   6.850 -0.0590  0.6637  1.0114
  219MOL0     C28783   7.430   8.320   6.950  0.7535  0.3635 -0.5807
  219MOL0     O28784   7.314   8.383   6.912  0.2901  0.0456  0.0711
  219MOL0     C28785   7.205   8.397   7.006  0.5980  1.1104  1.1459
  219MOL0     C28786   7.222   8.527   7.084 -0.3763  0.0267  0.3636
  219MOL0     C28787   7.086   8.567   7.144 -1.0873 -0.6935 -0.3588
  219MOL0     C28788   7.031   8.469   7.244  0.4821 -0.2112 -0.0179
  219MOL0     C28789   6.895   8.513   7.298  1.0074 -0.4747  0.4692
  219MOL0     C28790   6.861   8.440   7.426  0.2696 -0.2032 -0.5247
  219MOL0     C28791   6.717   8.449   7.475  1.0492  0.1776  0.3334
  219MOL0     C28792   6.624   8.384   7.381  0.4661  0.3112 -0.2846
  219MOL0     N28793   6.497   8.366   7.443  1.2072  0.1768 -0.4985
  219MOL0     C28794   6.436   8.251   7.488  0.6386 -0.4207 -0.6568
  219MOL0     C28795   6.325   8.308   7.545 -0.2558 -0.9988 -0.5046
  219MOL0     C28796   6.218   8.226   7.619 -0.0463 -1.2139  0.0567
  219MOL0     C28797   6.193   8.294   7.757  0.0197 -0.2346  0.4122
  219MOL0     C28798   6.167   8.204   7.885  0.1322  0.9662 -0.7820
  219MOL0     C28799   6.037   8.123   7.860  0.1606  0.1617  0.2869
  219MOL0     O28800   5.921   8.207   7.849 -0.9717  0.3621 -0.0478
  219MOL0     C28801   5.801   8.146   7.836 -0.6004  0.3447 -0.3846
  219MOL0     C28802   5.707   8.229   7.886 -0.3300 -0.2092  0.5978
  219MOL0     C28803   5.573   8.185   7.894 -0.4979 -0.0372 -0.2902
  219MOL0     C28804   5.534   8.059   7.839  0.4118 -0.1827 -0.0822
  219MOL0     C28805   5.387   8.014   7.850 -1.0265 -1.1779  1.0285
  219MOL0     O28806   5.302   8.093   7.923 -0.0306 -1.2622 -0.0493
  219MOL0     C28807   5.165   8.071   7.921  0.9096 -0.7213 -0.0778
  219MOL0     C28808   5.111   7.996   8.015  0.9543  0.8305  0.4631
  219MOL0     C28809   4.973   7.967   8.021 -0.2377  0.1814  0.2668
  219MOL0     C28810   4.895   8.024   7.920  0.9065 -0.4112  0.3643
  219MOL0     O28811   4.760   7.998   7.909  0.0355 -0.2700  0.5962
  219MOL0     C28812   4.716   7.866   7.923 -0.2469 -0.4769  0.1101
  219MOL0     C28813   4.682   7.801   7.787  0.6007 -0.3823  0.2193
  219MOL0     C28814   4.815   7.776   7.709  1.0018 -0.2885  0.3903
  219MOL0     C28815   4.910   7.675   7.782  0.1900 -0.5506 -0.0066
  219MOL0     C28816   5.057   7.666   7.718 -0.4727 -0.4524  0.2388
  219MOL0     C28817   5.050   7.599   7.583 -0.2540 -0.1159  0.2121
  219MOL0     C28818   5.187   7.627   7.510 -0.1008 -0.3424  0.1593
  219MOL0     C28819   5.322   7.604   7.572  0.0607 -0.2789 -0.3465
  219MOL0    Cl28820   5.342   7.422   7.582 -0.1140  0.1529  0.2486
  219MOL0     C28821   4.953   8.114   7.828  0.4644 -0.0850 -0.5463
  219MOL0     C28822   5.085   8.136   7.823 -0.1805 -0.3463 -0.6154
  219MOL0     O28823   5.354   7.921   7.776  0.3211  0.7692 -0.4881
  219MOL0     C28824   5.631   7.974   7.783 -0.5922 -1.2861  0.1373
  219MOL0     C28825   5.764   8.020   7.789  0.4142  0.6116 -0.5682
  219MOL0     N28826   6.301   8.442   7.515 -0.6921 -0.6004  0.3985
  219MOL0     N28827   6.409   8.469   7.455 -0.0100 -0.7600 -0.2295
  219MOL0     C28828   7.464   8.289   7.086 -0.2678  0.6851 -0.5375
  219MOL0     C28829   7.597   8.240   7.115  0.2981  0.4355  0.5452
  219MOL0     C28830   8.054   8.149   7.001  0.1836 -0.0902 -0.0982
  219MOL0     C28831   8.063   8.048   7.094 -0.1792 -0.9212  0.0300
  219MOL0     C28832   8.193   7.991   7.121  0.3350 -0.8642  0.5476
  219MOL0     C28833   8.305   8.034   7.049  0.5703  0.2293  0.3541
  219MOL0     O28834   8.434   7.975   7.064 -0.2125 -0.9039  0.9916
  219MOL0     C28835   8.441   7.846   6.998 -0.0170  0.3553  0.5783
  219MOL0     C28836   8.584   7.793   6.996 -0.0017  0.4235 -0.0835
  219MOL0     C28837   8.638   7.778   7.131 -0.1820 -0.2549  0.2366
  219MOL0     C28838   8.783   7.734   7.140 -0.5683 -0.3077 -0.0872
  219MOL0     C28839   8.860   7.842   7.064  1.0298  0.4454 -0.6181
  219MOL0     C28840   8.916   7.937   7.006 -0.4946  0.3748 -0.2140
  219MOL0     C28841   8.288   8.127   6.953  1.0232 -0.0025  0.4906
  219MOL0     C28842   8.166   8.194   6.934  0.8073 -0.8690  0.4878
  219MOL0     H28843   7.712   8.191   6.803 -2.1810 -1.7346 -0.7487
  219MOL0     H28844   7.500   8.322   6.749 -0.2887 -1.6673  0.2646
  219MOL0     H28845   7.201   8.307   7.068  0.9128  0.1795 -0.1455
  219MOL0     H28846   7.108   8.396   6.954  0.7818 -1.8789  0.6829
  219MOL0     H28847   7.248   8.608   7.015  0.5455 -0.3337  0.2773
  219MOL0     H28848   7.306   8.517   7.153 -0.1625  2.0644  0.4670
  219MOL0     H28849   7.019   8.581   7.058  0.8190 -0.2736 -1.8477
  219MOL0     H28850   7.095   8.665   7.192 -0.9727 -0.2022 -1.3601
  219MOL0     H28851   7.014   8.371   7.199  3.0857 -0.7741  0.0957
  219MOL0     H28852   7.100   8.476   7.328  1.5438 -1.3590 -0.7714
  219MOL0     H28853   6.822   8.509   7.217 -0.8585 -1.3023  2.1057
  219MOL0     H28854   6.890   8.621   7.316 -3.4397 -0.3647 -0.4225
  219MOL0     H28855   6.908   8.496   7.507 -0.8378  1.0172 -0.6983
  219MOL0     H28856   6.886   8.334   7.425  1.8054 -0.0145  2.9058
  219MOL0     H28857   6.705   8.406   7.575  1.2639 -0.8143 -0.0552
  219MOL0     H28858   6.696   8.556   7.483 -1.0087 -0.2715  1.5474
  219MOL0     H28859   6.665   8.284   7.361 -0.0244  0.0998 -0.2486
  219MOL0     H28860   6.601   8.443   7.292  0.7604 -0.5128 -0.9218
  219MOL0     H28861   6.484   8.154   7.501  1.7396 -0.0640 -1.9053
  219MOL0     H28862   6.256   8.124   7.627  0.7130 -0.9618 -0.2003
  219MOL0     H28863   6.118   8.220   7.574 -0.1444 -1.5166  0.3146
  219MOL0     H28864   6.107   8.362   7.758 -0.9871 -1.4678  2.0285
  219MOL0     H28865   6.274   8.365   7.778 -0.8314  0.3303  1.9886
  219MOL0     H28866   6.248   8.131   7.895  0.5147  1.3147 -1.3273
  219MOL0     H28867   6.154   8.264   7.975  1.4262  0.0554  0.0475
  219MOL0     H28868   6.031   8.050   7.942 -1.3917  1.3533  1.2786
  219MOL0     H28869   6.054   8.067   7.767  0.7661  1.6543 -0.5273
  219MOL0     H28870   5.739   8.327   7.919 -1.3050 -0.2489  1.7469
  219MOL0     H28871   5.498   8.255   7.929 -0.5259  1.0848 -2.4394
  219MOL0     H28872   5.171   7.934   8.081 -0.4357 -2.1823 -0.9072
  219MOL0     H28873   4.917   7.911   8.096  1.2866  1.0472  2.1550
  219MOL0     H28874   4.631   7.874   7.990 -0.6049  1.4731 -0.5274
  219MOL0     H28875   4.784   7.798   7.975  1.1026  1.7324  1.3730
  219MOL0     H28876   4.613   7.859   7.725 -1.2925 -3.0700 -0.3470
  219MOL0     H28877   4.630   7.706   7.799  0.8810 -0.5574  0.0563
  219MOL0     H28878   4.863   7.870   7.682  1.7317 -1.3238 -2.3279
  219MOL0     H28879   4.774   7.726   7.620 -4.4156 -0.1376  2.3959
  219MOL0     H28880   4.926   7.711   7.884 -3.0064 -4.0132  1.9817
  219MOL0     H28881   4.859   7.580   7.798 -0.2065 -0.3867 -0.2631
  219MOL0     H28882   5.121   7.593   7.769 -0.7865 -3.0389 -2.7329
  219MOL0     H28883   5.105   7.764   7.710 -0.6515 -0.5454 -4.5128
  219MOL0     H28884   4.971   7.650   7.529 -2.8958 -1.3012  2.6916
  219MOL0     H28885   5.025   7.493   7.573 -0.0860 -0.0683 -0.8558
  219MOL0     H28886   5.198   7.595   7.407  1.8896 -1.6287  0.7292
  219MOL0     H28887   5.183   7.736   7.505 -0.5911 -0.3859 -0.4505
  219MOL0     H28888   5.312   7.650   7.671 -3.8457 -0.7759 -0.3659
  219MOL0     H28889   5.406   7.655   7.524  0.0185 -0.0024 -0.1329
  219MOL0     H28890   4.906   8.164   7.744  1.6377 -0.3344 -1.3736
  219MOL0     H28891   5.124   8.198   7.743  0.2052  1.4893  0.9259
  219MOL0     H28892   5.609   7.870   7.759 -0.9348 -1.1107 -0.3300
  219MOL0     H28893   5.849   7.957   7.764 -0.6111 -0.2384 -2.1091
  219MOL0     H28894   7.400   8.313   7.170  2.3228  4.4333  0.6409
  219MOL0     H28895   7.638   8.227   7.215  0.5092  0.8533  0.5125
  219MOL0     H28896   7.978   8.014   7.153 -1.7413  1.3179 -0.7704
  219MOL0     H28897   8.205   7.912   7.194 -2.7429  1.5505  4.0472
  219MOL0     H28898   8.421   7.860   6.891  2.8492  0.0771 -0.0685
  219MOL0     H28899   8.367   7.778   7.041  1.1977 -0.4994  1.3676
  219MOL0     H28900   8.584   7.693   6.952  0.3530 -0.9464  2.7720
  219MOL0     H28901   8.639   7.862   6.932 -4.0801  0.3568 -4.1746
  219MOL0     H28902   8.594   7.690   7.178  1.3138 -0.0726  2.1378
  219MOL0     H28903   8.611   7.859   7.199  1.0253 -0.0175  0.4609
  219MOL0     H28904   8.810   7.748   7.245 -3.1744  3.5651  0.2917
  219MOL0     H28905   8.791   7.630   7.107 -0.8057 -1.1822  2.4295
  219MOL0     H28906   8.952   8.024   6.955 -1.9700  2.3783  1.9309
  219MOL0     H28907   8.377   8.162   6.903  0.0228  0.9684 -0.6588
  219MOL0     H28908   8.156   8.277   6.864 -1.6890 -1.3260  0.1989
  220MOL0     O28909   8.595   7.156   2.839  0.3523  0.6193  0.4557
  220MOL0     C28910   8.571   7.109   2.951 -0.0413 -0.7414  0.0225
  220MOL0     O28911   8.463   7.122   3.018  0.5805 -0.5981  0.7745
  220MOL0     C28912   8.336   7.120   2.956 -0.1192  0.0713 -0.5316
  220MOL0     C28913   8.312   7.103   2.824  1.0443 -0.7326 -0.7368
  220MOL0     C28914   8.181   7.094   2.767 -0.5183  0.0883 -0.1896
  220MOL0     C28915   8.070   7.123   2.845 -0.2710 -1.1344  0.2112
  220MOL0     O28916   7.942   7.149   2.783 -0.1711  0.3110 -0.0628
  220MOL0     C28917   7.840   7.224   2.859  0.0723 -0.3159  0.0621
  220MOL0     C28918   7.729   7.265   2.764  0.2888  0.2287 -1.1667
  220MOL0     C28919   7.672   7.140   2.686 -0.2408  0.8300 -0.0534
  220MOL0     C28920   7.576   7.186   2.580 -0.3991 -0.0713 -0.1024
  220MOL0     C28921   7.465   7.274   2.631 -0.0581  0.5576  0.0489
  220MOL0     C28922   7.367   7.299   2.521  0.5364 -0.4124  1.7558
  220MOL0     C28923   7.290   7.175   2.491  0.6121  0.6329  0.2038
  220MOL0     C28924   7.147   7.232   2.451  0.1572  0.0490 -0.3728
  220MOL0     N28925   7.047   7.126   2.410 -0.8937  0.5786  0.1176
  220MOL0     C28926   6.973   7.041   2.490  0.1652 -0.9593  0.2141
  220MOL0     C28927   6.884   7.001   2.407  0.2796  0.1169 -0.1317
  220MOL0     C28928   6.765   6.924   2.457  0.2898 -0.3011  0.3843
  220MOL0     C28929   6.688   6.863   2.339 -0.6667  0.3080  0.5606
  220MOL0     C28930   6.610   6.967   2.261  0.1275  0.8748 -0.3468
  220MOL0     C28931   6.545   6.908   2.134 -0.9229  0.0378 -0.7637
  220MOL0     O28932   6.468   7.014   2.077  0.0533 -0.0665 -0.0936
  220MOL0     C28933   6.407   6.987   1.952 -0.8092  0.9344 -0.4026
  220MOL0     C28934   6.427   6.878   1.867 -0.1874 -1.1166 -0.4152
  220MOL0     C28935   6.349   6.850   1.753  0.1315 -0.3263  0.3612
  220MOL0     C28936   6.251   6.944   1.715  0.1430 -0.0248 -0.2113
  220MOL0     C28937   6.180   6.941   1.587  0.7976 -0.0017 -0.3063
  220MOL0     O28938   6.081   7.030   1.564 -0.0393 -0.5711 -0.1619
  220MOL0     C28939   5.996   7.015   1.457 -0.1814  0.2146 -0.2264
  220MOL0     C28940   5.968   7.128   1.368  0.3853  0.1018 -1.1611
  220MOL0     C28941   5.861   7.115   1.272  0.0738 -0.2075 -0.1509
  220MOL0     C28942   5.797   6.992   1.263  1.1221 -0.3563 -0.3267
  220MOL0     O28943   5.680   6.975   1.193  0.3253  0.0552  0.4583
  220MOL0     C28944   5.622   7.079   1.114 -0.5985  1.0806  0.6721
  220MOL0     C28945   5.482   7.040   1.066 -0.8349 -0.2102 -0.1927
  220MOL0     C28946   5.394   7.012   1.194  0.3549 -0.0761 -0.6241
  220MOL0     C28947   5.250   7.028   1.157 -0.5997 -0.1583 -0.5489
  220MOL0     C28948   5.135   7.023   1.265 -0.1407 -0.3122  0.2627
  220MOL0     C28949   5.147   6.885   1.337  0.0876  0.6364  0.6465
  220MOL0     C28950   5.023   6.870   1.424 -0.2256 -0.1535 -0.0849
  220MOL0     C28951   5.018   6.726   1.501 -0.2318  0.0116  0.8954
  220MOL0    Cl28952   4.858   6.697   1.575  0.3118  0.2401 -0.6561
  220MOL0     C28953   5.828   6.887   1.343  0.6017  0.7546  0.2833
  220MOL0     C28954   5.920   6.897   1.443  0.1979  0.5173  0.4015
  220MOL0     O28955   6.212   6.850   1.515  0.1111  0.2296  0.0157
  220MOL0     C28956   6.234   7.059   1.800 -0.0678  0.1901  0.5263
  220MOL0     C28957   6.307   7.079   1.915  0.7546  0.4300  0.2056
  220MOL0     N28958   6.923   7.019   2.277  0.2697 -0.5964  0.5693
  220MOL0     N28959   7.009   7.108   2.283 -0.1725 -0.4761  0.8974
  220MOL0     C28960   8.097   7.148   2.990 -0.1915  0.3394  0.4749
  220MOL0     C28961   8.227   7.141   3.041  0.2316  0.3456 -0.2431
  220MOL0     C28962   8.688   7.079   3.030  0.1678 -0.0539 -0.4407
  220MOL0     C28963   8.815   7.055   2.967  0.0102 -0.9218 -0.0201
  220MOL0     C28964   8.936   7.054   3.032 -0.0712 -0.0082 -0.8252
  220MOL0     C28965   8.934   7.058   3.173  0.6357 -0.2796  0.1509
  220MOL0     O28966   9.044   7.024   3.254  0.1879 -0.3887 -0.0514
  220MOL0     C28967   9.174   6.983   3.202  0.9405 -0.3845  0.4444
  220MOL0     C28968   9.245   6.919   3.319  0.1707  0.5605  0.2072
  220MOL0     C28969   9.287   7.025   3.427 -0.3988  0.0406  0.1937
  220MOL0     C28970   9.383   7.132   3.379  0.5436  0.5995  0.1727
  220MOL0     C28971   9.492   7.072   3.310  0.3447  1.2079  0.4503
  220MOL0     C28972   9.581   7.030   3.241 -0.9222  0.2458 -0.6191
  220MOL0     C28973   8.813   7.086   3.242 -0.3388  0.3741  0.4814
  220MOL0     C28974   8.694   7.091   3.177 -0.7875 -0.3036  0.5951
  220MOL0     H28975   8.397   7.084   2.760  0.4270  2.1639 -2.5932
  220MOL0     H28976   8.140   7.073   2.669  1.3583  2.1077 -1.4976
  220MOL0     H28977   7.881   7.320   2.892 -0.1750  0.0070 -0.5393
  220MOL0     H28978   7.795   7.167   2.940 -4.4761  1.0708 -1.2114
  220MOL0     H28979   7.765   7.334   2.687  0.6159  3.4028  1.5951
  220MOL0     H28980   7.645   7.308   2.819 -1.0065 -1.4290 -1.7628
  220MOL0     H28981   7.619   7.074   2.755 -2.5341  1.1183 -1.4090
  220MOL0     H28982   7.751   7.080   2.641 -1.0475 -2.2607  2.2768
  220MOL0     H28983   7.627   7.251   2.508  0.1698  0.8040  1.0549
  220MOL0     H28984   7.538   7.095   2.532  2.8309 -1.3345 -0.5548
  220MOL0     H28985   7.511   7.370   2.657  0.7889  0.8167 -2.1434
  220MOL0     H28986   7.401   7.238   2.712 -0.0451  0.9757  0.2439
  220MOL0     H28987   7.419   7.327   2.429 -2.0530  2.6484  1.0630
  220MOL0     H28988   7.310   7.386   2.555  0.4601  0.2070  0.1216
  220MOL0     H28989   7.328   7.117   2.406 -1.3184 -0.3861 -0.0183
  220MOL0     H28990   7.279   7.112   2.579 -0.8989  1.8402  0.9166
  220MOL0     H28991   7.144   7.316   2.381  0.8064 -0.0243 -0.5009
  220MOL0     H28992   7.113   7.275   2.546  0.3446 -3.6798  1.5529
  220MOL0     H28993   6.966   7.025   2.597  0.2892  0.6146  0.4785
  220MOL0     H28994   6.711   6.999   2.515  0.4998  1.4065 -1.5039
  220MOL0     H28995   6.791   6.842   2.524 -2.1501 -3.3114 -2.0177
  220MOL0     H28996   6.621   6.784   2.373 -2.7218 -0.1718 -3.8869
  220MOL0     H28997   6.762   6.805   2.282 -1.1901 -3.4869  3.3401
  220MOL0     H28998   6.523   6.992   2.322  0.3374 -0.4258  0.5458
  220MOL0     H28999   6.668   7.058   2.242  0.5855  0.8547  0.8688
  220MOL0     H29000   6.480   6.827   2.169  0.1982  0.2438  2.0801
  220MOL0     H29001   6.614   6.870   2.058  0.0231  0.2263 -0.0325
  220MOL0     H29002   6.510   6.813   1.892  1.7988  1.1160 -0.7735
  220MOL0     H29003   6.368   6.775   1.677  1.0107  0.4638 -0.2103
  220MOL0     H29004   6.012   7.227   1.366 -1.5640  1.0007 -1.9842
  220MOL0     H29005   5.846   7.197   1.202 -0.4973  1.9940  2.3546
  220MOL0     H29006   5.687   7.098   1.028 -2.0925  0.7143 -0.5800
  220MOL0     H29007   5.607   7.176   1.162  1.0897  1.2557  0.9179
  220MOL0     H29008   5.483   6.957   0.994 -0.3890 -0.0409 -0.3830
  220MOL0     H29009   5.437   7.123   1.011 -0.1257  1.2093  1.2851
  220MOL0     H29010   5.420   7.078   1.277  5.2170 -0.8293 -1.2572
  220MOL0     H29011   5.415   6.910   1.228 -0.5957 -0.2430 -0.4877
  220MOL0     H29012   5.246   7.127   1.110  2.3485 -0.1803 -1.0643
  220MOL0     H29013   5.220   6.955   1.082  0.4481  0.0345 -1.1791
  220MOL0     H29014   5.043   7.035   1.205  1.0108 -1.9390 -1.9720
  220MOL0     H29015   5.142   7.103   1.339  1.1802 -1.9718  2.0019
  220MOL0     H29016   5.239   6.877   1.396  0.3768 -0.6446  0.0690
  220MOL0     H29017   5.152   6.803   1.264  1.2605 -0.8561  2.3071
  220MOL0     H29018   5.000   6.954   1.490 -0.3602 -0.0107 -0.3179
  220MOL0     H29019   4.937   6.864   1.357 -0.2013  1.0639 -0.2432
  220MOL0     H29020   5.102   6.716   1.570  1.6228 -0.8831 -1.3697
  220MOL0     H29021   5.045   6.647   1.431  1.0839  0.7688  0.5149
  220MOL0     H29022   5.781   6.790   1.341  3.2205 -0.6341 -2.2717
  220MOL0     H29023   5.936   6.814   1.511 -1.2652 -0.0883  0.0375
  220MOL0     H29024   6.164   7.141   1.786 -2.8421 -1.8685  1.4306
  220MOL0     H29025   6.302   7.174   1.968  0.2828  0.7959 -0.4833
  220MOL0     H29026   8.019   7.151   3.065  0.6280 -1.5496  1.4856
  220MOL0     H29027   8.245   7.148   3.148  0.2813 -0.5890 -0.1820
  220MOL0     H29028   8.820   7.059   2.858  1.8559  0.8012  0.0868
  220MOL0     H29029   9.026   7.033   2.974 -1.3082 -1.5468 -2.3068
  220MOL0     H29030   9.226   7.069   3.159  1.3167 -1.1743 -0.7167
  220MOL0     H29031   9.160   6.909   3.123  1.2038 -0.0995  0.1298
  220MOL0     H29032   9.177   6.849   3.368  2.7535 -1.2730  1.3771
  220MOL0     H29033   9.329   6.867   3.273 -0.6815 -0.3625 -0.3407
  220MOL0     H29034   9.340   6.978   3.510  0.9380  1.9617  0.4711
  220MOL0     H29035   9.200   7.086   3.454  0.8122  2.3487 -0.8062
  220MOL0     H29036   9.328   7.201   3.314 -1.5125 -0.1678  1.0317
  220MOL0     H29037   9.411   7.206   3.455  1.2683  1.5028 -0.9426
  220MOL0     H29038   9.665   7.014   3.177  1.3968  0.8293  2.0610
  220MOL0     H29039   8.816   7.093   3.350  1.8601  0.8433  0.4376
  220MOL0     H29040   8.601   7.110   3.229 -0.1439  1.1752  1.2828
  221MOL0     O29041   6.101   8.488   4.915 -0.2377  0.7481  0.0122
  221MOL0     C29042   6.141   8.551   4.819  0.4650 -0.0890  0.4810
  221MOL0     O29043   6.072   8.581   4.701 -0.2444  0.6557 -1.0078
  221MOL0     C29044   5.941   8.532   4.688  0.4235  0.1844  0.0232
  221MOL0     C29045   5.899   8.508   4.551 -0.1360 -0.0947 -1.1627
  221MOL0     C29046   5.767   8.468   4.520  0.1962  0.4956 -0.7406
  221MOL0     C29047   5.668   8.460   4.620 -0.0454 -0.2128 -0.5358
  221MOL0     O29048   5.537   8.410   4.609 -0.1330 -0.8127  0.4484
  221MOL0     C29049   5.526   8.283   4.668  0.8623  0.0949 -0.3016
  221MOL0     C29050   5.398   8.200   4.643  0.1766  0.3749 -0.5049
  221MOL0     C29051   5.272   8.275   4.604 -0.9057 -1.1306  0.3277
  221MOL0     C29052   5.171   8.186   4.524 -0.3254 -0.1573 -0.4465
  221MOL0     C29053   5.039   8.259   4.495  0.8386  0.3242  0.4701
  221MOL0     C29054   4.941   8.203   4.393 -0.3161  0.8376  0.6628
  221MOL0     C29055   4.844   8.308   4.356 -0.4145  0.6547  0.2179
  221MOL0     C29056   4.756   8.348   4.473 -1.4297 -0.7710 -0.1821
  221MOL0     N29057   4.656   8.448   4.442 -0.1891 -0.4718 -0.4073
  221MOL0     C29058   4.551   8.424   4.348  0.5456  0.1232 -0.2268
  221MOL0     C29059   4.501   8.549   4.318  0.0915  0.1913  0.1210
  221MOL0     C29060   4.413   8.584   4.213 -0.7248 -0.0701  0.6204
  221MOL0     C29061   4.277   8.643   4.255  0.5920 -0.5313 -0.5272
  221MOL0     C29062   4.195   8.720   4.141 -0.3710 -0.5765 -0.7531
  221MOL0     C29063   4.083   8.806   4.196  0.4724  0.1084  0.0808
  221MOL0     O29064   4.012   8.733   4.296 -0.5411 -0.0365  0.5037
  221MOL0     C29065   3.891   8.775   4.344  0.9208  0.1934 -0.5676
  221MOL0     C29066   3.843   8.910   4.331 -0.4835  0.0364  0.3691
  221MOL0     C29067   3.714   8.934   4.382 -0.4044 -0.1753 -1.5534
  221MOL0     C29068   3.642   8.847   4.462  0.8992  0.0229 -0.0119
  221MOL0     C29069   3.511   8.891   4.528 -0.8428  0.1637  0.4892
  221MOL0     O29070   3.424   8.969   4.451  0.2436 -0.2271 -0.0791
  221MOL0     C29071   3.309   9.009   4.524  0.0516  0.5470  1.3938
  221MOL0     C29072   3.318   9.119   4.610  0.7858  0.2217 -0.0499
  221MOL0     C29073   3.200   9.181   4.663  0.5511 -0.2706  0.4736
  221MOL0     C29074   3.075   9.128   4.624 -0.3101  0.1317 -1.0710
  221MOL0     O29075   2.965   9.207   4.670  0.0010 -0.3414  1.1868
  221MOL0     C29076   2.842   9.195   4.594  0.2604  0.4741 -0.1366
  221MOL0     C29077   2.765   9.318   4.644 -0.3020 -0.1333 -0.0547
  221MOL0     C29078   2.623   9.325   4.585 -0.5316  0.4737 -0.3695
  221MOL0     C29079   2.541   9.442   4.637 -0.1859  0.0301 -0.5635
  221MOL0     C29080   2.416   9.464   4.559  0.6687  0.0047  0.5693
  221MOL0     C29081   2.323   9.574   4.617 -0.7454 -0.3471 -0.1188
  221MOL0     C29082   2.220   9.508   4.718  0.7534 -1.3950  0.1859
  221MOL0     C29083   2.180   9.603   4.828 -0.1185  1.1917 -0.8947
  221MOL0    Cl29084   2.096   9.754   4.769 -0.1818 -0.2423  0.2068
  221MOL0     C29085   3.063   9.017   4.537  0.1820  0.1808 -0.7356
  221MOL0     C29086   3.178   8.961   4.490  0.8942  0.6971 -0.2917
  221MOL0     O29087   3.491   8.847   4.642  0.4419  0.5786  0.3328
  221MOL0     C29088   3.698   8.720   4.488  0.1101  0.0862 -0.0673
  221MOL0     C29089   3.821   8.690   4.430 -0.1717  0.5630  0.4736
  221MOL0     N29090   4.588   8.635   4.389  0.5146 -0.7601 -0.2349
  221MOL0     N29091   4.673   8.575   4.467 -0.7063  0.3733  0.0193
  221MOL0     C29092   5.705   8.504   4.755  0.2654  0.0865  0.1661
  221MOL0     C29093   5.839   8.533   4.785  0.8049  0.6407 -0.3287
  221MOL0     C29094   6.286   8.582   4.823  0.3850 -1.0369  1.2346
  221MOL0     C29095   6.344   8.656   4.717  1.4022  0.3632 -0.1578
  221MOL0     C29096   6.474   8.710   4.721  0.0606 -1.7272  0.7177
  221MOL0     C29097   6.554   8.703   4.834 -1.0475 -0.8573  0.1072
  221MOL0     O29098   6.682   8.759   4.832  0.1962 -0.5755  0.4747
  221MOL0     C29099   6.758   8.724   4.943 -1.2578 -0.5543  0.1342
  221MOL0     C29100   6.890   8.793   4.929  0.2449  0.3468 -0.8291
  221MOL0     C29101   6.984   8.750   5.041 -0.3248 -0.7712  0.2161
  221MOL0     C29102   7.122   8.815   5.026 -0.6161 -0.0574  0.2272
  221MOL0     C29103   7.119   8.968   4.999 -0.2700  0.7876  0.1369
  221MOL0     C29104   7.129   9.091   5.002  0.2318  0.1338  0.0643
  221MOL0     C29105   6.501   8.629   4.939 -0.0398  0.3680 -0.3316
  221MOL0     C29106   6.367   8.577   4.938 -0.2409  0.0656  0.0883
  221MOL0     H29107   5.975   8.514   4.473  1.0994 -1.1234 -0.0900
  221MOL0     H29108   5.745   8.442   4.417 -0.8253 -0.3462 -0.3321
  221MOL0     H29109   5.540   8.294   4.775  1.2364 -1.9255 -0.0898
  221MOL0     H29110   5.607   8.220   4.629  0.1461 -1.4976  0.6788
  221MOL0     H29111   5.379   8.129   4.724  0.5796  0.3946 -0.3904
  221MOL0     H29112   5.426   8.140   4.556 -0.1328 -2.3382  1.1320
  221MOL0     H29113   5.298   8.361   4.542 -0.0246 -0.9920  0.8820
  221MOL0     H29114   5.233   8.307   4.701 -0.2986  1.7575 -0.3036
  221MOL0     H29115   5.224   8.150   4.436 -0.7141  1.9818 -1.6217
  221MOL0     H29116   5.147   8.097   4.583 -1.2797 -0.4549 -1.2474
  221MOL0     H29117   5.062   8.360   4.460 -0.2234 -0.3410 -2.4448
  221MOL0     H29118   4.987   8.264   4.591 -1.6451  4.7859 -0.7794
  221MOL0     H29119   4.892   8.115   4.435  0.1433  0.0571 -0.3955
  221MOL0     H29120   5.001   8.187   4.303  0.0305  0.2150  0.9964
  221MOL0     H29121   4.894   8.397   4.316 -2.3383  1.7255  0.0660
  221MOL0     H29122   4.775   8.274   4.278 -1.0697  0.3824  0.9048
  221MOL0     H29123   4.821   8.388   4.552 -1.3077 -0.8621 -0.2371
  221MOL0     H29124   4.700   8.260   4.508  1.1313 -2.0467  0.9723
  221MOL0     H29125   4.523   8.328   4.304 -2.1084  0.9099 -0.4262
  221MOL0     H29126   4.383   8.493   4.161  0.3261 -0.4745  0.7021
  221MOL0     H29127   4.466   8.654   4.147 -0.8091 -0.6514 -0.0856
  221MOL0     H29128   4.300   8.715   4.334 -0.8038 -0.3921 -0.2238
  221MOL0     H29129   4.210   8.567   4.297 -1.6946  1.0814 -1.0873
  221MOL0     H29130   4.263   8.779   4.079 -1.2493  3.4326  1.6920
  221MOL0     H29131   4.149   8.657   4.065  0.4691  1.0869 -2.7236
  221MOL0     H29132   4.016   8.823   4.111  1.5978  0.2297 -0.8055
  221MOL0     H29133   4.128   8.893   4.244 -0.7696 -0.2446  2.0136
  221MOL0     H29134   3.894   8.980   4.266 -0.4809 -2.4923 -2.5836
  221MOL0     H29135   3.662   9.028   4.372 -1.3077 -0.1046  2.1206
  221MOL0     H29136   3.414   9.165   4.627  1.8991 -1.9779 -0.1050
  221MOL0     H29137   3.205   9.263   4.734  4.2137 -1.8021  2.2422
  221MOL0     H29138   2.797   9.099   4.623  3.0799 -1.3756 -1.3574
  221MOL0     H29139   2.847   9.180   4.485 -0.0385 -1.5520  0.0885
  221MOL0     H29140   2.832   9.396   4.606  2.6332 -1.6102  1.6934
  221MOL0     H29141   2.756   9.331   4.752  2.2419  2.0108  0.0041
  221MOL0     H29142   2.563   9.235   4.603 -0.4653  0.0236 -2.1711
  221MOL0     H29143   2.636   9.328   4.477 -0.4658 -1.5746 -0.4625
  221MOL0     H29144   2.520   9.434   4.744  0.8803 -1.7692 -0.4492
  221MOL0     H29145   2.595   9.535   4.616 -2.9920  1.7521 -0.6253
  221MOL0     H29146   2.370   9.365   4.552 -0.9816  0.7755 -0.0526
  221MOL0     H29147   2.449   9.494   4.459  1.9678  0.0165  0.9770
  221MOL0     H29148   2.269   9.615   4.531 -0.1681  1.3879  0.3033
  221MOL0     H29149   2.392   9.647   4.662 -1.4787  0.0350  0.3959
  221MOL0     H29150   2.138   9.478   4.653  0.5993 -0.2482 -0.1798
  221MOL0     H29151   2.258   9.424   4.777 -2.7411 -2.3138  1.3935
  221MOL0     H29152   2.275   9.638   4.870 -0.2570 -0.0144  0.5283
  221MOL0     H29153   2.130   9.554   4.913  2.5382  0.8303  0.5950
  221MOL0     H29154   2.970   8.974   4.503  0.4171 -0.6199 -0.4007
  221MOL0     H29155   3.181   8.873   4.427  0.0656 -1.0266  1.9208
  221MOL0     H29156   3.648   8.639   4.541 -0.5945  1.7688  1.9565
  221MOL0     H29157   3.843   8.584   4.437 -1.9064 -0.0967 -2.4724
  221MOL0     H29158   5.627   8.508   4.830  1.5312 -1.8220  1.6629
  221MOL0     H29159   5.839   8.571   4.887 -0.4981 -1.8428  0.6986
  221MOL0     H29160   6.289   8.672   4.625  1.2138  1.2306  0.0967
  221MOL0     H29161   6.509   8.780   4.646 -2.0363 -1.2892  0.0867
  221MOL0     H29162   6.789   8.619   4.945  1.9722  0.2835 -0.8014
  221MOL0     H29163   6.706   8.737   5.039  0.3444  0.5665  0.9040
  221MOL0     H29164   6.943   8.760   4.838  1.5758  0.2515 -0.0430
  221MOL0     H29165   6.871   8.900   4.925  1.3322  0.5893  0.0930
  221MOL0     H29166   6.988   8.641   5.042 -0.2557 -0.7724  1.7717
  221MOL0     H29167   6.941   8.786   5.135  2.0212  1.4324  0.5754
  221MOL0     H29168   7.181   8.801   5.117  1.3770 -1.8935 -1.2419
  221MOL0     H29169   7.173   8.771   4.940 -0.5470 -2.0175  1.2138
  221MOL0     H29170   7.133   9.193   5.034 -1.1447  0.2407 -0.0429
  221MOL0     H29171   6.540   8.627   5.040 -2.0826  0.5345  0.5152
  221MOL0     H29172   6.339   8.523   5.028  0.8831 -3.8124 -1.6649
  222MOL0     O29173   7.265   4.350   2.832  0.2152  0.7668  0.4992
  222MOL0     C29174   7.261   4.230   2.825  0.7444  0.1639 -0.0360
  222MOL0     O29175   7.176   4.158   2.749  0.4218 -0.6304 -0.0562
  222MOL0     C29176   7.056   4.214   2.713 -0.4963  0.5740 -0.5675
  222MOL0     C29177   7.055   4.321   2.629  0.0563  0.1658 -0.0964
  222MOL0     C29178   6.926   4.358   2.587  0.3290 -0.0820  0.3601
  222MOL0     C29179   6.803   4.306   2.641 -0.7081 -0.3353 -0.3039
  222MOL0     O29180   6.690   4.373   2.595 -0.3200 -0.4367 -1.0252
  222MOL0     C29181   6.567   4.378   2.675 -0.3508  0.0347 -0.5797
  222MOL0     C29182   6.457   4.358   2.577 -0.0864  0.3941  0.0226
  222MOL0     C29183   6.449   4.214   2.525  0.5126 -0.0868  0.6165
  222MOL0     C29184   6.397   4.117   2.638 -0.0858  0.4808  0.9623
  222MOL0     C29185   6.346   3.984   2.574  0.5359 -0.6822 -0.0829
  222MOL0     C29186   6.204   4.003   2.520 -1.4501 -0.1760  0.6989
  222MOL0     C29187   6.163   3.870   2.445 -0.1223 -0.4150 -0.6938
  222MOL0     C29188   6.178   3.871   2.293  0.3854  0.3757  1.0497
  222MOL0     N29189   6.316   3.843   2.264 -0.1136  0.1641 -0.3084
  222MOL0     C29190   6.405   3.943   2.254  0.2519  0.3096 -0.5450
  222MOL0     C29191   6.524   3.878   2.238 -0.2059  0.1830  0.5880
  222MOL0     C29192   6.666   3.931   2.261 -0.3130  0.2468 -1.1376
  222MOL0     C29193   6.723   3.877   2.386 -1.0189 -0.9084  0.3473
  222MOL0     C29194   6.869   3.919   2.406  0.7448 -0.2759  0.7855
  222MOL0     C29195   6.951   3.837   2.501 -0.1105  0.6079  0.1630
  222MOL0     O29196   6.891   3.867   2.633 -0.2832 -0.6573 -0.3546
  222MOL0     C29197   6.952   3.812   2.741  0.2070 -0.1410 -0.9623
  222MOL0     C29198   7.081   3.764   2.749 -0.1345 -0.9996 -0.6839
  222MOL0     C29199   7.127   3.697   2.865  1.2464 -0.4497 -0.7415
  222MOL0     C29200   7.044   3.696   2.982 -0.4611 -0.1861 -0.3702
  222MOL0     C29201   7.097   3.644   3.110 -0.5750  0.4698 -0.4766
  222MOL0     O29202   7.233   3.620   3.120  0.0329  0.9447  0.2255
  222MOL0     C29203   7.299   3.576   3.241  0.2613 -0.5767  0.1975
  222MOL0     C29204   7.417   3.509   3.223  0.7793  0.0052 -0.5244
  222MOL0     C29205   7.495   3.468   3.332 -0.3308 -0.3174 -0.8113
  222MOL0     C29206   7.449   3.483   3.459  0.2698  0.2406 -0.4832
  222MOL0     O29207   7.534   3.437   3.569 -0.2792 -0.0245 -0.3041
  222MOL0     C29208   7.493   3.325   3.650 -0.1420  0.4435  0.2353
  222MOL0     C29209   7.516   3.192   3.572 -0.2585 -0.0477 -0.3485
  222MOL0     C29210   7.665   3.169   3.532  0.6409  0.3799 -1.1499
  222MOL0     C29211   7.687   3.026   3.483 -0.7942  0.0813  1.0932
  222MOL0     C29212   7.828   3.010   3.434 -0.3683  0.1140  0.2125
  222MOL0     C29213   7.928   2.984   3.550 -0.1616 -0.6704 -0.4790
  222MOL0     C29214   8.058   2.926   3.489 -0.3558  0.3662  1.0993
  222MOL0     C29215   8.157   2.868   3.598 -0.5791 -0.0645 -0.6203
  222MOL0    Cl29216   8.235   3.005   3.698 -0.1409  0.2758 -0.4447
  222MOL0     C29217   7.325   3.553   3.482  0.3486  0.6084  0.0419
  222MOL0     C29218   7.253   3.598   3.368 -0.2246  0.2239 -0.9027
  222MOL0     O29219   7.015   3.604   3.195 -0.0322 -0.8230  0.2995
  222MOL0     C29220   6.918   3.743   2.977  0.2716  0.3662  0.6986
  222MOL0     C29221   6.872   3.795   2.852  0.4915  0.0883 -0.5453
  222MOL0     N29222   6.495   3.738   2.235  0.6314 -0.7231 -0.0588
  222MOL0     N29223   6.375   3.717   2.257 -0.2494 -0.4851 -0.1274
  222MOL0     C29224   6.814   4.195   2.728  0.1880  0.0439 -0.0278
  222MOL0     C29225   6.939   4.148   2.753 -0.4677  0.0706 -0.6172
  222MOL0     C29226   7.370   4.156   2.887  0.6231  0.8078  0.7487
  222MOL0     C29227   7.390   4.030   2.839 -0.6582 -0.9629  0.3728
  222MOL0     C29228   7.467   3.942   2.913 -0.1297 -1.0545  0.4589
  222MOL0     C29229   7.549   3.985   3.018  0.0144 -1.0650  0.6409
  222MOL0     O29230   7.629   3.904   3.096 -0.4477  0.9398  0.3173
  222MOL0     C29231   7.633   3.761   3.082  1.1297  0.6437  0.4853
  222MOL0     C29232   7.715   3.695   3.194  0.3443 -0.5447 -0.5147
  222MOL0     C29233   7.869   3.733   3.179  1.1580  0.2682  0.9518
  222MOL0     C29234   7.955   3.678   3.295 -0.6228 -0.3928 -0.1498
  222MOL0     C29235   7.969   3.533   3.296  0.1801  0.0065  0.1391
  222MOL0     C29236   7.993   3.411   3.306 -0.7251  0.6102 -0.6935
  222MOL0     C29237   7.535   4.119   3.061 -0.5058 -0.5866  1.9126
  222MOL0     C29238   7.445   4.200   2.999  0.6910 -0.0481  0.6588
  222MOL0     H29239   7.148   4.359   2.588  0.9714  0.7594  2.3321
  222MOL0     H29240   6.914   4.441   2.518 -0.1024 -0.6645 -0.2732
  222MOL0     H29241   6.555   4.475   2.724 -0.5161 -0.1652 -0.2133
  222MOL0     H29242   6.567   4.304   2.756  1.1588 -2.9666 -3.0919
  222MOL0     H29243   6.486   4.424   2.494  1.4804 -3.2040 -2.5737
  222MOL0     H29244   6.365   4.391   2.626 -1.5344 -2.7651 -0.3540
  222MOL0     H29245   6.544   4.179   2.484  0.9222 -0.3427  1.7370
  222MOL0     H29246   6.381   4.222   2.440  0.8217  1.1351  0.4677
  222MOL0     H29247   6.477   4.098   2.710  2.6290  1.8219 -1.4865
  222MOL0     H29248   6.315   4.178   2.678  0.0308  1.8155 -0.6926
  222MOL0     H29249   6.366   3.903   2.644  2.3165  0.4138  0.7547
  222MOL0     H29250   6.420   3.965   2.495  1.4291 -0.4580  0.6881
  222MOL0     H29251   6.182   4.087   2.453 -2.3190 -1.2728 -0.4518
  222MOL0     H29252   6.142   4.000   2.610 -1.3877  0.3790  0.7625
  222MOL0     H29253   6.229   3.790   2.480 -1.2861 -1.8891 -1.7588
  222MOL0     H29254   6.062   3.851   2.482  0.8487 -3.3484  0.7675
  222MOL0     H29255   6.149   3.967   2.250  1.7966 -0.6273 -2.4607
  222MOL0     H29256   6.123   3.784   2.256 -0.4195 -0.4754  3.9393
  222MOL0     H29257   6.391   4.048   2.277  0.2011  0.3304 -0.6736
  222MOL0     H29258   6.655   4.040   2.255  1.8463  0.6362  0.7139
  222MOL0     H29259   6.719   3.887   2.175 -0.3228 -0.1146 -0.9593
  222MOL0     H29260   6.719   3.770   2.411 -0.5898 -0.3447  3.1307
  222MOL0     H29261   6.652   3.922   2.455 -1.3765  0.3308 -0.7839
  222MOL0     H29262   6.920   3.911   2.310 -0.5494 -1.7748  0.1824
  222MOL0     H29263   6.876   4.025   2.434 -0.5067 -0.0408  0.2539
  222MOL0     H29264   7.052   3.879   2.497 -0.0574  0.8304  2.4267
  222MOL0     H29265   6.944   3.731   2.476  0.7001  1.0751 -2.2615
  222MOL0     H29266   7.150   3.776   2.665 -2.0960  3.5859 -1.9782
  222MOL0     H29267   7.227   3.654   2.873  0.8772 -1.2599 -0.3567
  222MOL0     H29268   7.470   3.493   3.129  0.4056 -2.3907 -0.3701
  222MOL0     H29269   7.590   3.420   3.307 -0.0547 -0.7757  1.0036
  222MOL0     H29270   7.388   3.327   3.680 -0.4908  0.8851 -0.9353
  222MOL0     H29271   7.554   3.324   3.740  0.3195  0.4748 -0.0695
  222MOL0     H29272   7.456   3.188   3.480 -2.0010 -3.7972  0.7602
  222MOL0     H29273   7.485   3.109   3.636  1.7576 -0.3222  0.3515
  222MOL0     H29274   7.739   3.190   3.610  1.0815  1.3793 -1.8164
  222MOL0     H29275   7.688   3.240   3.452  3.7955  1.1288  0.2707
  222MOL0     H29276   7.661   2.954   3.561 -1.9387 -0.6698  0.0610
  222MOL0     H29277   7.622   2.999   3.399  1.1303 -1.2396 -0.0491
  222MOL0     H29278   7.862   3.090   3.368  2.0670 -1.2594 -0.3209
  222MOL0     H29279   7.821   2.920   3.373 -2.3036  0.7804 -0.6172
  222MOL0     H29280   7.887   2.903   3.611 -2.8568 -0.8622 -2.3835
  222MOL0     H29281   7.944   3.069   3.618 -0.0258 -0.9656 -0.1351
  222MOL0     H29282   8.032   2.842   3.423  0.3440  1.0043 -0.0256
  222MOL0     H29283   8.113   3.001   3.431  0.7956 -0.4770  1.0701
  222MOL0     H29284   8.239   2.816   3.549  0.7116  2.8797 -1.8131
  222MOL0     H29285   8.108   2.797   3.666  0.6343  0.0288  0.3838
  222MOL0     H29286   7.285   3.562   3.582 -2.1181 -1.2336 -0.6884
  222MOL0     H29287   7.160   3.649   3.390  0.4075  1.8035 -1.7453
  222MOL0     H29288   6.852   3.750   3.063  0.4986 -0.4617  0.9561
  222MOL0     H29289   6.766   3.820   2.857 -0.1298 -1.9017 -2.3961
  222MOL0     H29290   6.728   4.149   2.777  0.3384 -0.7692 -0.5169
  222MOL0     H29291   6.930   4.063   2.821 -2.8105  2.8171  2.9070
  222MOL0     H29292   7.338   3.980   2.758 -0.3150  1.2665 -1.3096
  222MOL0     H29293   7.478   3.839   2.882  0.5400 -0.5618 -0.9975
  222MOL0     H29294   7.659   3.732   2.980 -0.6385  0.3081  0.1071
  222MOL0     H29295   7.530   3.725   3.085  0.6107  2.0708  2.4873
  222MOL0     H29296   7.668   3.738   3.283 -0.6408 -3.0948  0.2901
  222MOL0     H29297   7.710   3.586   3.194  2.5944 -0.7589 -3.0144
  222MOL0     H29298   7.874   3.843   3.176 -1.2871  0.4200 -0.8575
  222MOL0     H29299   7.900   3.699   3.080 -1.9821 -1.7453  0.5090
  222MOL0     H29300   8.052   3.728   3.295 -1.2026  1.1972  4.7027
  222MOL0     H29301   7.914   3.708   3.392 -0.4471  1.6176 -0.6424
  222MOL0     H29302   8.010   3.306   3.320  0.7614  1.0959  1.6851
  222MOL0     H29303   7.588   4.154   3.150 -1.1943  2.1115  1.3332
  222MOL0     H29304   7.429   4.302   3.032 -0.8847  0.2090 -0.7697
  223MOL0     O29305   6.468   7.968   7.752  0.3334  0.1332 -0.3855
  223MOL0     C29306   6.546   7.901   7.693 -0.0070 -0.6880 -0.1646
  223MOL0     O29307   6.509   7.805   7.602 -0.2721 -0.3420 -0.3108
  223MOL0     C29308   6.373   7.786   7.589  0.1851 -0.5220  0.5394
  223MOL0     C29309   6.291   7.869   7.514 -0.4006  0.7212 -0.0076
  223MOL0     C29310   6.155   7.860   7.509  0.7648  0.5101  0.4809
  223MOL0     C29311   6.087   7.762   7.587 -0.2547  0.7453 -0.8202
  223MOL0     O29312   5.953   7.747   7.586 -0.5425  0.3788 -0.7287
  223MOL0     C29313   5.919   7.609   7.565 -1.0082  0.7309  0.5697
  223MOL0     C29314   5.767   7.603   7.558  0.6850 -0.4278  0.4248
  223MOL0     C29315   5.706   7.469   7.532  0.4315  0.0659 -0.2661
  223MOL0     C29316   5.738   7.352   7.630  0.0313  0.5359  0.1509
  223MOL0     C29317   5.677   7.223   7.607 -0.1047  0.2358  1.4464
  223MOL0     C29318   5.707   7.156   7.469  0.9480 -0.4718  0.3449
  223MOL0     C29319   5.605   7.041   7.433  0.2957 -0.4012  0.1978
  223MOL0     C29320   5.589   6.932   7.545 -0.1315 -0.3444 -0.4335
  223MOL0     N29321   5.502   6.809   7.518 -0.4780  0.1468 -0.4125
  223MOL0     C29322   5.360   6.816   7.509 -0.0068  0.2691  0.6886
  223MOL0     C29323   5.318   6.704   7.445  0.1460  0.3110 -0.1567
  223MOL0     C29324   5.175   6.676   7.448 -0.4930  1.6538  0.4925
  223MOL0     C29325   5.156   6.534   7.387 -0.0266 -0.1535 -0.1368
  223MOL0     C29326   5.018   6.475   7.423 -0.1193  0.1524  0.1354
  223MOL0     C29327   4.896   6.540   7.343  1.2692 -0.0188  0.3846
  223MOL0     O29328   4.769   6.462   7.346  0.2456  1.3561 -0.0814
  223MOL0     C29329   4.659   6.521   7.291  0.2718  0.9637 -0.2843
  223MOL0     C29330   4.543   6.444   7.286 -0.6667  0.8054  1.2571
  223MOL0     C29331   4.426   6.501   7.241  0.1077 -0.2308 -0.1244
  223MOL0     C29332   4.425   6.629   7.171  0.1187 -0.7542  1.0923
  223MOL0     C29333   4.300   6.692   7.125 -0.5865  0.1042 -0.1310
  223MOL0     O29334   4.305   6.817   7.079  0.0509  0.2381 -0.2046
  223MOL0     C29335   4.194   6.873   7.023 -0.0226 -0.0469  0.2713
  223MOL0     C29336   4.133   6.808   6.917 -0.0692 -0.4143  0.1139
  223MOL0     C29337   4.021   6.869   6.858 -0.1576 -0.5205  0.6728
  223MOL0     C29338   3.976   6.998   6.901 -0.5534  0.6372 -0.7656
  223MOL0     O29339   3.871   7.067   6.853  0.2202 -0.1154  0.2222
  223MOL0     C29340   3.805   7.020   6.739 -0.2094 -0.2724  0.0758
  223MOL0     C29341   3.703   7.125   6.703  0.2484 -0.1068 -0.0169
  223MOL0     C29342   3.596   7.076   6.600  0.2687 -0.4298  0.0838
  223MOL0     C29343   3.642   7.076   6.453  0.7701  0.0226  0.0112
  223MOL0     C29344   3.531   7.040   6.351  1.1237 -0.1224 -0.6784
  223MOL0     C29345   3.415   7.139   6.330  0.0536  0.2734 -0.0784
  223MOL0     C29346   3.282   7.096   6.385  0.8688  0.5005  0.1090
  223MOL0     C29347   3.167   7.204   6.370 -0.1677  0.2240  0.2014
  223MOL0    Cl29348   3.032   7.147   6.478 -0.0685 -0.0748  0.1507
  223MOL0     C29349   4.052   7.064   7.003 -0.3421 -0.0828  0.2997
  223MOL0     C29350   4.158   7.002   7.066 -0.4827 -0.2306 -0.3633
  223MOL0     O29351   4.200   6.622   7.127  0.3204 -0.1249  0.0308
  223MOL0     C29352   4.543   6.700   7.163 -0.0112  0.0200  0.0314
  223MOL0     C29353   4.653   6.650   7.235  0.0928  0.0431 -1.1942
  223MOL0     N29354   5.435   6.627   7.419  0.7487  0.3997  0.5070
  223MOL0     N29355   5.542   6.699   7.450  0.4086 -0.7506  0.1921
  223MOL0     C29356   6.171   7.675   7.651 -0.2434 -0.2410 -0.0324
  223MOL0     C29357   6.311   7.687   7.655 -0.0997  0.9549 -0.0056
  223MOL0     C29358   6.687   7.947   7.685  0.0761  0.0671  0.3790
  223MOL0     C29359   6.725   8.073   7.736  0.2519  0.8772 -0.2679
  223MOL0     C29360   6.858   8.112   7.727 -0.8236  0.4376  0.0431
  223MOL0     C29361   6.952   8.033   7.658 -0.5628 -0.0697 -0.6624
  223MOL0     O29362   7.085   8.071   7.642  0.0544 -0.0978 -0.5466
  223MOL0     C29363   7.183   7.960   7.622  0.1747 -0.7670 -0.5849
  223MOL0     C29364   7.324   8.009   7.664  0.0901  0.0441 -0.3463
  223MOL0     C29365   7.369   8.146   7.607  0.0085  0.3938 -0.4344
  223MOL0     C29366   7.369   8.153   7.454  0.4460  0.1995  0.1700
  223MOL0     C29367   7.450   8.055   7.380  0.0066  0.1824 -0.8823
  223MOL0     C29368   7.524   7.972   7.322  0.0714  0.5565  0.2785
  223MOL0     C29369   6.915   7.910   7.607 -0.3755  0.1468  0.3820
  223MOL0     C29370   6.781   7.868   7.622  0.4905  0.5506 -0.5346
  223MOL0     H29371   6.329   7.926   7.430  1.5550 -0.3933  0.0684
  223MOL0     H29372   6.093   7.916   7.440  1.6224  1.4820  0.4776
  223MOL0     H29373   5.954   7.540   7.642 -0.8319  1.2364  0.9439
  223MOL0     H29374   5.968   7.570   7.475 -1.0664  1.5605  0.1701
  223MOL0     H29375   5.728   7.662   7.475  1.4417 -0.2056  0.2163
  223MOL0     H29376   5.720   7.644   7.648  0.9641  0.6578  0.0887
  223MOL0     H29377   5.736   7.452   7.428  1.5804  0.8786 -0.0885
  223MOL0     H29378   5.598   7.487   7.533  0.1684 -1.1845 -1.7215
  223MOL0     H29379   5.846   7.331   7.628 -0.4098 -1.9626 -2.3521
  223MOL0     H29380   5.708   7.387   7.729  1.4849  1.0245  0.4400
  223MOL0     H29381   5.569   7.235   7.611 -0.7783 -3.1118 -1.5505
  223MOL0     H29382   5.709   7.151   7.684 -0.7261  0.2683  1.7380
  223MOL0     H29383   5.805   7.108   7.461  0.7656 -0.5495 -1.8388
  223MOL0     H29384   5.703   7.243   7.403  0.7906 -0.3540  0.5081
  223MOL0     H29385   5.505   7.077   7.407  0.1852 -1.6341 -1.2864
  223MOL0     H29386   5.641   6.997   7.339 -0.5596 -1.9664  0.5575
  223MOL0     H29387   5.550   6.970   7.640 -1.6404 -1.4069 -0.5917
  223MOL0     H29388   5.693   6.899   7.554  0.5500  1.2896 -1.6559
  223MOL0     H29389   5.289   6.892   7.538 -1.9700 -1.0577 -0.3708
  223MOL0     H29390   5.112   6.740   7.385 -0.4493  0.0013 -1.3134
  223MOL0     H29391   5.145   6.673   7.553  1.1077  1.1982  0.9627
  223MOL0     H29392   5.235   6.463   7.414 -0.7878 -0.6500  0.7917
  223MOL0     H29393   5.172   6.548   7.279  4.0260  2.7162  0.5997
  223MOL0     H29394   5.022   6.374   7.382  1.7444 -1.2841  3.4413
  223MOL0     H29395   5.008   6.473   7.532  1.1928  2.8090  0.3923
  223MOL0     H29396   4.915   6.553   7.236 -2.2375 -3.4181 -0.8814
  223MOL0     H29397   4.879   6.637   7.390  1.6726  1.2529 -1.9191
  223MOL0     H29398   4.549   6.345   7.329  0.7552  0.0697 -0.4925
  223MOL0     H29399   4.345   6.431   7.259 -0.3776  1.0366  3.2834
  223MOL0     H29400   4.161   6.707   6.891  0.2196 -0.8114  1.8188
  223MOL0     H29401   3.969   6.818   6.777  0.1066 -2.3638  1.6168
  223MOL0     H29402   3.766   6.921   6.761  1.2510 -1.7483 -3.2745
  223MOL0     H29403   3.874   7.015   6.654  1.1291  2.3351  0.9069
  223MOL0     H29404   3.742   7.215   6.654 -0.1650 -0.5772 -1.2735
  223MOL0     H29405   3.652   7.170   6.788  2.5905 -0.7323  1.8006
  223MOL0     H29406   3.506   7.139   6.598  1.1991  0.9760  0.6956
  223MOL0     H29407   3.551   6.979   6.622 -0.8459 -0.3367 -1.6311
  223MOL0     H29408   3.677   7.178   6.432  2.1667 -0.4347  0.0399
  223MOL0     H29409   3.740   7.029   6.442  1.0064  0.1829  1.3721
  223MOL0     H29410   3.483   6.946   6.379 -0.6884  1.4920  2.1437
  223MOL0     H29411   3.583   7.035   6.255  1.3834  1.2871 -0.6225
  223MOL0     H29412   3.410   7.159   6.223 -3.2705 -0.2713 -0.1395
  223MOL0     H29413   3.440   7.236   6.375  2.5938 -0.8155  1.1141
  223MOL0     H29414   3.255   6.995   6.353 -1.7151 -0.0283  3.4084
  223MOL0     H29415   3.292   7.084   6.494 -0.2979  4.5287  0.8066
  223MOL0     H29416   3.128   7.206   6.268 -0.2986  0.6306  0.2572
  223MOL0     H29417   3.201   7.304   6.398 -0.2121 -0.1671  1.8032
  223MOL0     H29418   4.005   7.157   7.032 -1.2892 -0.7633  1.0026
  223MOL0     H29419   4.205   7.054   7.149 -0.3879  0.8050 -1.0457
  223MOL0     H29420   4.534   6.799   7.118  0.8651  0.4147  0.6807
  223MOL0     H29421   4.735   6.720   7.248 -1.2372  1.4359  0.1331
  223MOL0     H29422   6.132   7.589   7.705 -1.4780  0.4427  0.2050
  223MOL0     H29423   6.362   7.607   7.709 -0.8548 -2.0331 -3.3207
  223MOL0     H29424   6.655   8.136   7.790  0.8542 -0.7660  2.6456
  223MOL0     H29425   6.899   8.203   7.770 -0.3971  0.1469  0.2562
  223MOL0     H29426   7.194   7.947   7.514 -2.5040 -0.7890 -0.9040
  223MOL0     H29427   7.156   7.869   7.675 -0.8641 -0.1218  0.0273
  223MOL0     H29428   7.305   8.020   7.771 -0.1587  1.1553 -0.4956
  223MOL0     H29429   7.403   7.935   7.651 -1.5779 -1.6382 -1.5852
  223MOL0     H29430   7.471   8.153   7.644 -0.8882 -0.4520  2.4433
  223MOL0     H29431   7.313   8.229   7.652  0.4072  0.3486  0.1550
  223MOL0     H29432   7.265   8.151   7.418  0.3575 -0.9897  0.4621
  223MOL0     H29433   7.402   8.256   7.434 -1.8354  0.6626 -1.7361
  223MOL0     H29434   7.577   7.912   7.251  0.4856  2.1370 -0.8148
  223MOL0     H29435   6.983   7.847   7.550  0.5591 -1.1155  2.7619
  223MOL0     H29436   6.759   7.774   7.572 -0.5725 -1.2168  2.9357
  224MOL0     O29437   4.997   5.461   1.493  1.6113  0.1140  0.6796
  224MOL0     C29438   4.967   5.463   1.370 -0.4896 -0.6594  0.1574
  224MOL0     O29439   4.858   5.411   1.309  0.2657 -0.2252  0.0954
  224MOL0     C29440   4.769   5.335   1.380 -0.1854  0.3078 -0.1488
  224MOL0     C29441   4.807   5.232   1.460 -0.1242 -0.5959 -1.4182
  224MOL0     C29442   4.713   5.143   1.519  0.0425  0.1433  0.4372
  224MOL0     C29443   4.577   5.172   1.500 -0.7407  0.1757  0.0065
  224MOL0     O29444   4.477   5.103   1.558 -0.6145  0.4147  0.6494
  224MOL0     C29445   4.440   5.100   1.702 -0.5317 -0.2503 -0.0372
  224MOL0     C29446   4.368   4.976   1.746  0.4324  0.2216 -1.1871
  224MOL0     C29447   4.455   4.847   1.727 -0.6206  0.3279 -0.2857
  224MOL0     C29448   4.374   4.723   1.761 -0.0206 -0.5345  0.1393
  224MOL0     C29449   4.444   4.590   1.742  0.1602 -0.1220  0.8889
  224MOL0     C29450   4.366   4.474   1.799 -1.0982 -0.5440  0.5635
  224MOL0     C29451   4.425   4.341   1.757  0.6714 -0.3836  0.7970
  224MOL0     C29452   4.345   4.225   1.800 -0.2927  0.1208 -0.1440
  224MOL0     N29453   4.355   4.191   1.943 -0.6873  0.4279  0.6095
  224MOL0     C29454   4.299   4.080   2.001 -0.2008  0.2097  0.5547
  224MOL0     C29455   4.314   4.095   2.134 -1.2838 -0.7027 -0.7501
  224MOL0     C29456   4.264   4.002   2.239 -0.6831  0.1406 -0.5633
  224MOL0     C29457   4.113   4.027   2.263 -0.6235  0.8040 -0.1806
  224MOL0     C29458   4.092   4.156   2.341 -0.2220  0.7929  0.0410
  224MOL0     C29459   3.942   4.151   2.377  0.0281 -0.4598 -0.3429
  224MOL0     O29460   3.855   4.198   2.270  0.2573  0.4540 -0.2338
  224MOL0     C29461   3.726   4.198   2.294  0.3763 -0.3592  0.6518
  224MOL0     C29462   3.663   4.175   2.421  0.0924  0.5819 -0.8045
  224MOL0     C29463   3.526   4.171   2.439  0.1948  0.0732  0.4272
  224MOL0     C29464   3.439   4.171   2.328 -0.6410 -0.5804 -0.4741
  224MOL0     C29465   3.299   4.142   2.340  0.6476  0.3371 -0.1490
  224MOL0     O29466   3.233   4.181   2.462 -0.0945 -0.2538  0.0383
  224MOL0     C29467   3.101   4.157   2.497 -0.3667 -0.3100  0.5406
  224MOL0     C29468   3.031   4.044   2.458  0.7500  0.6453  0.1455
  224MOL0     C29469   2.894   4.032   2.504 -0.2350  0.6592  0.4887
  224MOL0     C29470   2.826   4.133   2.573  0.4490  0.2471  0.0735
  224MOL0     O29471   2.691   4.116   2.602 -0.1976 -0.2440  0.4230
  224MOL0     C29472   2.628   4.207   2.693  0.3352 -0.4070  0.2263
  224MOL0     C29473   2.480   4.169   2.717  0.2468  0.1772  0.1249
  224MOL0     C29474   2.469   4.062   2.829 -0.1069 -0.7154  0.1913
  224MOL0     C29475   2.453   4.119   2.967  0.6322  0.2756  0.0281
  224MOL0     C29476   2.536   4.033   3.070 -0.9783 -0.3350  0.6707
  224MOL0     C29477   2.480   3.893   3.094  0.6213  0.0108  0.3272
  224MOL0     C29478   2.547   3.827   3.216 -0.4408 -0.0182  0.3582
  224MOL0     C29479   2.519   3.680   3.238 -0.6071  0.1930  0.1730
  224MOL0    Cl29480   2.564   3.564   3.102 -0.3106 -0.5708 -0.1933
  224MOL0     C29481   2.904   4.243   2.607 -0.2872 -0.7411 -0.0138
  224MOL0     C29482   3.043   4.258   2.576  0.6040  0.4224 -0.9992
  224MOL0     O29483   3.253   4.067   2.256 -0.3292 -0.3565  0.3139
  224MOL0     C29484   3.504   4.183   2.210  0.6839  0.4730  0.7013
  224MOL0     C29485   3.642   4.200   2.188  0.5154  0.6812 -0.2895
  224MOL0     N29486   4.367   4.221   2.152  0.5585  1.0014 -0.3290
  224MOL0     N29487   4.410   4.267   2.036  0.5254 -0.1262 -0.3390
  224MOL0     C29488   4.544   5.271   1.412  0.6073  0.9047 -1.0756
  224MOL0     C29489   4.636   5.351   1.352 -0.0801  0.3042  0.8380
  224MOL0     C29490   5.054   5.541   1.275 -0.5928 -0.5890 -0.7335
  224MOL0     C29491   5.181   5.597   1.317  0.6914  0.5914 -0.5889
  224MOL0     C29492   5.262   5.659   1.223  0.0367 -0.1932 -0.5991
  224MOL0     C29493   5.227   5.674   1.087 -0.2420  0.0383 -0.5310
  224MOL0     O29494   5.310   5.744   0.997  0.4904  0.5432 -0.3090
  224MOL0     C29495   5.253   5.845   0.913 -1.2624 -0.1284  0.5450
  224MOL0     C29496   5.367   5.950   0.891  0.1298  0.2837  0.0457
  224MOL0     C29497   5.375   6.054   1.001 -0.1196  0.0287  0.6019
  224MOL0     C29498   5.505   6.133   0.985 -0.0687  1.0075 -0.3105
  224MOL0     C29499   5.497   6.231   0.880 -0.1754 -0.0934  0.2604
  224MOL0     C29500   5.502   6.322   0.793  0.2081  0.6969 -0.5482
  224MOL0     C29501   5.111   5.612   1.044 -0.5005  0.0155  0.4513
  224MOL0     C29502   5.025   5.554   1.139  0.1866  0.8610 -0.2400
  224MOL0     H29503   4.912   5.214   1.483 -0.0310  2.2645  1.0480
  224MOL0     H29504   4.732   5.051   1.572  4.2728 -1.2291 -2.8585
  224MOL0     H29505   4.374   5.187   1.712  0.8071  0.9018 -0.7245
  224MOL0     H29506   4.529   5.121   1.763  0.8581 -1.1185 -1.6704
  224MOL0     H29507   4.283   4.967   1.677 -1.7788  0.5546  1.3010
  224MOL0     H29508   4.329   4.981   1.848  0.0749  1.1297 -1.3623
  224MOL0     H29509   4.541   4.844   1.794 -0.3678  0.1840 -0.6122
  224MOL0     H29510   4.500   4.845   1.627 -0.3553 -2.3461 -0.1923
  224MOL0     H29511   4.349   4.733   1.867 -1.7673 -0.5970 -0.2356
  224MOL0     H29512   4.279   4.723   1.707  0.1640  3.2396 -0.4442
  224MOL0     H29513   4.536   4.605   1.800 -0.5418  0.8577  1.8077
  224MOL0     H29514   4.463   4.576   1.636 -3.0769  0.5374  0.0902
  224MOL0     H29515   4.264   4.474   1.760 -1.0344  1.1700  0.3228
  224MOL0     H29516   4.357   4.482   1.907 -4.7405  0.4369  0.3142
  224MOL0     H29517   4.427   4.337   1.647 -0.7640 -0.2512  0.7541
  224MOL0     H29518   4.526   4.330   1.797  0.0317 -2.1712  2.0764
  224MOL0     H29519   4.384   4.138   1.746  1.8405  0.2842  1.0124
  224MOL0     H29520   4.240   4.242   1.775  0.1999  2.6063 -0.7794
  224MOL0     H29521   4.258   3.996   1.945  1.6401 -0.6546  0.4211
  224MOL0     H29522   4.313   4.016   2.335 -0.2086 -2.5257 -0.3443
  224MOL0     H29523   4.282   3.895   2.228  0.4270  0.2122  0.4289
  224MOL0     H29524   4.070   3.938   2.309  1.1224  0.8603  1.6692
  224MOL0     H29525   4.070   4.029   2.162  3.9566 -0.3970 -2.4552
  224MOL0     H29526   4.154   4.162   2.430  0.5743  1.8561 -0.5647
  224MOL0     H29527   4.107   4.244   2.277  3.8725 -0.4911 -1.0597
  224MOL0     H29528   3.932   4.218   2.462 -1.5708 -1.2717  0.1391
  224MOL0     H29529   3.907   4.052   2.408  0.7471 -0.1783  1.4611
  224MOL0     H29530   3.717   4.180   2.515 -1.4937  1.6176  0.0896
  224MOL0     H29531   3.490   4.157   2.540  1.3458 -1.8849  0.6262
  224MOL0     H29532   3.071   3.961   2.400  0.9561 -1.4132  2.9883
  224MOL0     H29533   2.841   3.943   2.471 -0.7277 -0.4553  3.8441
  224MOL0     H29534   2.627   4.307   2.650 -3.5654  0.8323  2.6961
  224MOL0     H29535   2.683   4.220   2.786  0.8942 -0.6332 -0.0681
  224MOL0     H29536   2.430   4.131   2.628  0.0350 -2.2157  1.1605
  224MOL0     H29537   2.418   4.258   2.733 -0.3248 -0.3458  0.9516
  224MOL0     H29538   2.560   4.002   2.822 -0.3349 -0.9018 -1.7374
  224MOL0     H29539   2.392   3.988   2.804  2.5899 -3.9424  0.6364
  224MOL0     H29540   2.486   4.223   2.973 -0.1309  0.6048 -1.1287
  224MOL0     H29541   2.347   4.125   2.994  1.4110  0.5679  3.4671
  224MOL0     H29542   2.548   4.085   3.166 -1.7622 -0.1848  0.6999
  224MOL0     H29543   2.638   4.020   3.033 -0.5429 -2.0009  2.3091
  224MOL0     H29544   2.493   3.831   3.004  2.2353  0.8669 -0.0682
  224MOL0     H29545   2.379   3.904   3.132  1.4918  0.7507  2.6099
  224MOL0     H29546   2.656   3.839   3.211 -0.0660 -2.2127  1.7897
  224MOL0     H29547   2.512   3.879   3.307  3.1632  2.0430  0.7625
  224MOL0     H29548   2.411   3.666   3.248 -0.8000  0.5241 -1.3057
  224MOL0     H29549   2.572   3.650   3.329 -3.2408 -1.8898  1.1632
  224MOL0     H29550   2.861   4.326   2.661  0.2519 -0.4722  0.0060
  224MOL0     H29551   3.097   4.350   2.599 -1.4634  1.7839 -1.2969
  224MOL0     H29552   3.445   4.167   2.120  2.3390  0.2412 -0.3941
  224MOL0     H29553   3.689   4.199   2.090  2.8356  0.5559  0.7670
  224MOL0     H29554   4.441   5.283   1.380  0.1105 -0.3588 -0.0351
  224MOL0     H29555   4.604   5.432   1.288  1.2703  0.2700  0.0765
  224MOL0     H29556   5.208   5.584   1.422  0.1100 -1.5756 -0.6556
  224MOL0     H29557   5.356   5.694   1.264  0.0601  1.4485 -1.9078
  224MOL0     H29558   5.162   5.886   0.958 -1.9955  0.5420 -1.4263
  224MOL0     H29559   5.222   5.806   0.815 -2.6808  0.4214  0.7605
  224MOL0     H29560   5.463   5.898   0.886 -0.4305 -0.7769  0.0767
  224MOL0     H29561   5.341   6.007   0.802 -3.0213 -1.8849 -0.5789
  224MOL0     H29562   5.367   5.997   1.094 -2.0489  0.6322  0.8666
  224MOL0     H29563   5.285   6.116   1.007  2.0591  3.6946 -1.1240
  224MOL0     H29564   5.511   6.178   1.084 -2.0550 -2.0382  1.3642
  224MOL0     H29565   5.586   6.060   0.979 -0.7569  0.2181 -0.2870
  224MOL0     H29566   5.490   6.391   0.712 -0.7858 -0.4408 -1.4040
  224MOL0     H29567   5.085   5.609   0.939 -1.6892 -1.7931  0.7372
  224MOL0     H29568   4.942   5.500   1.095  1.4715  0.2697 -2.0536
  225MOL0     O29569   0.720   7.553   2.718  0.5520 -0.0840 -0.4377
  225MOL0     C29570   0.686   7.457   2.646 -0.4377  0.7670  0.4718
  225MOL0     O29571   0.582   7.374   2.656 -0.6827  0.2529 -0.4177
  225MOL0     C29572   0.490   7.387   2.747  1.0652 -1.1145 -0.3174
  225MOL0     C29573   0.448   7.520   2.766 -0.7137  0.1845  0.0674
  225MOL0     C29574   0.333   7.539   2.847 -0.6700  0.2415 -0.6673
  225MOL0     C29575   0.266   7.438   2.912 -0.1194 -0.2440  0.8061
  225MOL0     O29576   0.158   7.478   2.996  0.7587 -0.3608  0.4609
  225MOL0     C29577   0.054   7.386   3.031  0.0466 -0.0355 -0.0084
  225MOL0     C29578   0.041   7.404   3.185  0.2876 -0.2026  0.6149
  225MOL0     C29579   0.143   7.308   3.251  0.0682 -0.1696 -0.7229
  225MOL0     C29580   0.151   7.344   3.403 -0.4257 -0.0895  0.5112
  225MOL0     C29581   0.260   7.251   3.467  0.2764  0.1864 -0.5610
  225MOL0     C29582   0.201   7.119   3.511  0.1490 -0.2753 -0.3648
  225MOL0     C29583   0.145   7.121   3.650  0.4379 -0.4209 -0.2966
  225MOL0     C29584   0.024   7.022   3.676  0.1965 -0.2871 -0.2979
  225MOL0     N29585  -0.109   7.091   3.674  0.0118  0.1780 -0.2611
  225MOL0     C29586  -0.183   7.113   3.568  0.2298  0.2144  0.3497
  225MOL0     C29587  -0.296   7.174   3.611 -0.3658  0.7166 -0.2973
  225MOL0     C29588  -0.407   7.219   3.524 -0.2085 -0.4284  0.0479
  225MOL0     C29589  -0.358   7.312   3.420 -0.3251 -0.3463  0.3736
  225MOL0     C29590  -0.471   7.391   3.348  0.8973  0.2346  0.1181
  225MOL0     C29591  -0.548   7.322   3.240  0.0778 -0.0461  0.4685
  225MOL0     O29592  -0.635   7.218   3.284  0.5372  0.0630 -0.0044
  225MOL0     C29593  -0.732   7.259   3.376 -1.0410  0.8161  0.4594
  225MOL0     C29594  -0.776   7.163   3.467  0.7865 -0.5929 -0.4601
  225MOL0     C29595  -0.887   7.192   3.554  0.3315 -0.2858  0.2063
  225MOL0     C29596  -0.944   7.318   3.543 -0.0192 -0.0405  0.1333
  225MOL0     C29597  -1.063   7.349   3.629 -0.2232 -0.3264 -0.0915
  225MOL0     O29598  -1.132   7.240   3.673 -0.3495 -0.4224  0.6936
  225MOL0     C29599  -1.250   7.271   3.743  0.1038  0.0787  0.0813
  225MOL0     C29600  -1.359   7.342   3.692 -1.0145 -0.6506  0.7568
  225MOL0     C29601  -1.481   7.365   3.765  0.0683 -0.2716 -0.4554
  225MOL0     C29602  -1.510   7.292   3.876  0.4662 -0.4125  0.5560
  225MOL0     O29603  -1.632   7.300   3.946 -0.2271  0.0155 -0.1783
  225MOL0     C29604  -1.719   7.416   3.926  0.6376 -1.4793 -0.3663
  225MOL0     C29605  -1.806   7.440   4.050 -0.6461  0.5002 -0.0282
  225MOL0     C29606  -1.738   7.494   4.170  0.1244  0.7684  0.4027
  225MOL0     C29607  -1.833   7.515   4.286 -1.1460 -0.8897  0.2516
  225MOL0     C29608  -1.750   7.585   4.404 -0.1655  0.1487  0.6737
  225MOL0     C29609  -1.840   7.661   4.502 -0.3018  0.0066 -0.6315
  225MOL0     C29610  -1.747   7.718   4.618  0.3323 -0.5982  0.3795
  225MOL0     C29611  -1.835   7.780   4.734 -0.1595  0.8046  0.0277
  225MOL0    Cl29612  -1.730   7.890   4.839 -0.2823 -0.0290  0.0430
  225MOL0     C29613  -1.405   7.209   3.924  0.0018 -0.0958  0.3164
  225MOL0     C29614  -1.274   7.210   3.864  0.8070 -0.3493 -0.2475
  225MOL0     O29615  -1.089   7.463   3.642 -0.4817 -0.6829 -0.5288
  225MOL0     C29616  -0.888   7.408   3.457 -1.0542 -1.0130 -0.5037
  225MOL0     C29617  -0.791   7.377   3.370  0.3181 -0.7232 -0.0314
  225MOL0     N29618  -0.278   7.185   3.748 -0.0437  0.3369 -0.2107
  225MOL0     N29619  -0.170   7.140   3.789 -0.2407  0.2518  0.0279
  225MOL0     C29620   0.311   7.309   2.890  0.3618  0.3275 -0.2955
  225MOL0     C29621   0.416   7.278   2.805  0.5076 -0.0664 -0.5281
  225MOL0     C29622   0.785   7.414   2.546 -1.0868  0.1094 -0.3604
  225MOL0     C29623   0.771   7.283   2.482 -0.3012 -0.0189  0.5208
  225MOL0     C29624   0.876   7.245   2.401 -0.5604 -0.1678 -0.2009
  225MOL0     C29625   0.995   7.316   2.366  1.2533 -0.2800  0.3226
  225MOL0     O29626   1.097   7.259   2.291 -0.1879  0.1254 -0.3590
  225MOL0     C29627   1.236   7.307   2.312 -0.1648 -0.8611 -0.2623
  225MOL0     C29628   1.347   7.204   2.329  1.1790  0.5807 -0.5131
  225MOL0     C29629   1.482   7.281   2.329 -0.4875 -0.1528 -0.3191
  225MOL0     C29630   1.599   7.178   2.335  0.6474  0.9237 -0.1065
  225MOL0     C29631   1.720   7.252   2.307  0.6424  0.0732  0.1836
  225MOL0     C29632   1.819   7.309   2.261 -0.3885  0.4152 -0.4551
  225MOL0     C29633   0.994   7.445   2.417  0.4787 -0.4636  0.3960
  225MOL0     C29634   0.901   7.491   2.511  0.6473  0.5417 -0.2591
  225MOL0     H29635   0.492   7.607   2.719 -1.3039 -0.2295 -1.2955
  225MOL0     H29636   0.304   7.635   2.888  0.2566 -0.5691  2.1634
  225MOL0     H29637   0.089   7.285   3.008  2.7984  1.2299 -2.0120
  225MOL0     H29638  -0.042   7.413   2.988 -0.3653  1.0192  1.4697
  225MOL0     H29639  -0.064   7.391   3.213 -0.2767  0.1422 -1.2120
  225MOL0     H29640   0.065   7.509   3.202  0.1685  0.3025 -1.9793
  225MOL0     H29641   0.240   7.316   3.202  1.7145 -2.7173  1.7968
  225MOL0     H29642   0.116   7.202   3.245  2.0200 -0.9400  1.8553
  225MOL0     H29643   0.174   7.451   3.414 -1.6118  0.3596 -1.1069
  225MOL0     H29644   0.057   7.321   3.453  0.9981 -2.0139  2.5304
  225MOL0     H29645   0.314   7.303   3.547 -0.4784 -0.1122  0.1504
  225MOL0     H29646   0.327   7.231   3.383  0.7298 -0.4301 -0.0647
  225MOL0     H29647   0.286   7.051   3.513  3.6327  3.6469  1.7134
  225MOL0     H29648   0.129   7.075   3.442  0.7983  0.3595 -1.4748
  225MOL0     H29649   0.213   7.096   3.731  0.7648 -2.6105 -1.1834
  225MOL0     H29650   0.106   7.222   3.670 -1.1926 -1.3957  1.8684
  225MOL0     H29651   0.041   6.992   3.780 -1.0143 -1.1942 -0.3388
  225MOL0     H29652   0.035   6.929   3.619  0.2881  0.5811 -1.7191
  225MOL0     H29653  -0.157   7.092   3.464 -1.3747  3.5729 -0.9135
  225MOL0     H29654  -0.474   7.271   3.593  1.3778 -0.1478  1.4236
  225MOL0     H29655  -0.466   7.136   3.483 -1.7767  1.0298 -0.7294
  225MOL0     H29656  -0.300   7.247   3.354  1.4783  2.3152 -0.8426
  225MOL0     H29657  -0.289   7.392   3.447 -2.0032  1.8748 -1.5714
  225MOL0     H29658  -0.547   7.428   3.417 -0.0425  2.0774 -1.7881
  225MOL0     H29659  -0.428   7.484   3.312 -0.7809  2.6098  3.7049
  225MOL0     H29660  -0.482   7.269   3.171  0.9894 -0.7143  1.8103
  225MOL0     H29661  -0.598   7.399   3.181  1.3616  1.5585  1.3992
  225MOL0     H29662  -0.727   7.067   3.461  1.2045 -0.4419  0.3874
  225MOL0     H29663  -0.937   7.120   3.618  0.3633  0.4758  1.1030
  225MOL0     H29664  -1.348   7.390   3.595 -0.9225  0.8544  1.4864
  225MOL0     H29665  -1.548   7.438   3.721 -0.1969 -0.2606 -0.0461
  225MOL0     H29666  -1.793   7.407   3.845 -1.6509  2.7637  0.9128
  225MOL0     H29667  -1.659   7.506   3.910 -1.0975 -0.1834  0.0128
  225MOL0     H29668  -1.859   7.345   4.069 -3.2030  1.9394  0.5196
  225MOL0     H29669  -1.884   7.515   4.032 -0.7886  0.9989  2.3222
  225MOL0     H29670  -1.701   7.585   4.121 -1.1311  1.8939  1.4471
  225MOL0     H29671  -1.656   7.426   4.193  1.4417  0.8492 -3.3484
  225MOL0     H29672  -1.924   7.571   4.261 -1.8466 -2.8410 -1.9200
  225MOL0     H29673  -1.874   7.417   4.311  2.1913 -2.7948 -1.0174
  225MOL0     H29674  -1.672   7.654   4.370  2.2752 -1.1900  3.1378
  225MOL0     H29675  -1.691   7.507   4.452 -0.9951 -0.4091  0.7981
  225MOL0     H29676  -1.921   7.604   4.549  1.3328 -0.3916  1.9033
  225MOL0     H29677  -1.887   7.740   4.443 -1.2791 -0.5613 -0.6384
  225MOL0     H29678  -1.682   7.642   4.662  1.8599  0.8381  0.7039
  225MOL0     H29679  -1.678   7.797   4.587  0.9442 -0.9354  0.8532
  225MOL0     H29680  -1.872   7.692   4.787 -0.9907  3.1977  3.8218
  225MOL0     H29681  -1.924   7.837   4.703 -1.4411  0.1514  2.2632
  225MOL0     H29682  -1.409   7.159   4.020  1.8183 -1.6120 -0.3342
  225MOL0     H29683  -1.191   7.157   3.912 -0.0616 -2.3365 -0.8219
  225MOL0     H29684  -0.933   7.504   3.432  1.7753  0.6024  0.1660
  225MOL0     H29685  -0.770   7.452   3.295 -2.7402  1.6460  1.2194
  225MOL0     H29686   0.270   7.216   2.928  2.3799  0.1785  1.7047
  225MOL0     H29687   0.458   7.179   2.791  1.7501  0.3306  0.2069
  225MOL0     H29688   0.683   7.221   2.495  0.0626 -1.3733 -2.6310
  225MOL0     H29689   0.871   7.142   2.367 -1.2765 -0.8489  1.8259
  225MOL0     H29690   1.246   7.368   2.403 -0.8302 -1.5622  0.2949
  225MOL0     H29691   1.264   7.359   2.220 -1.9369  0.3710 -0.1708
  225MOL0     H29692   1.339   7.150   2.424 -3.0708 -0.4960 -1.2797
  225MOL0     H29693   1.327   7.130   2.251  0.6333  0.3652 -0.1763
  225MOL0     H29694   1.486   7.359   2.405  0.4214  0.3804 -0.9025
  225MOL0     H29695   1.486   7.335   2.234 -0.6804  1.8992  0.7808
  225MOL0     H29696   1.616   7.136   2.435  3.1417 -2.5076 -1.7346
  225MOL0     H29697   1.597   7.102   2.256  3.5157  0.3837  0.2225
  225MOL0     H29698   1.905   7.366   2.230  1.4528 -0.7808  2.0747
  225MOL0     H29699   1.074   7.508   2.379  2.8200 -3.6640 -0.4172
  225MOL0     H29700   0.902   7.585   2.565 -0.5094 -0.8251  2.3700
  226MOL0     O29701  10.944   1.884   6.404  0.6316 -0.7074 -0.2428
  226MOL0     C29702  11.000   1.892   6.294 -0.0176  0.4353 -0.5552
  226MOL0     O29703  10.978   1.983   6.196 -0.0696 -0.8919 -0.1956
  226MOL0     C29704  10.858   2.040   6.170 -0.0921 -0.1172 -0.1395
  226MOL0     C29705  10.792   2.008   6.053 -0.1030  0.7810 -0.3766
  226MOL0     C29706  10.662   2.047   6.030  0.7818  0.0620 -0.2330
  226MOL0     C29707  10.595   2.119   6.128 -0.7262 -0.5355  0.4544
  226MOL0     O29708  10.459   2.133   6.111  0.4721  0.3871 -0.4149
  226MOL0     C29709  10.381   2.208   6.208 -0.2999 -0.5336 -0.5202
  226MOL0     C29710  10.261   2.264   6.143  0.6075 -0.8696 -0.5827
  226MOL0     C29711  10.144   2.179   6.115  0.1659  0.3508  0.4518
  226MOL0     C29712  10.028   2.258   6.069  0.0736  0.4086 -0.3434
  226MOL0     C29713   9.983   2.370   6.168  0.6243 -0.3576  0.1674
  226MOL0     C29714   9.856   2.439   6.118  0.4239  0.1837  0.0001
  226MOL0     C29715   9.844   2.580   6.174 -0.5236 -0.0114  0.1507
  226MOL0     C29716   9.698   2.627   6.129 -0.4404  0.0240 -0.2663
  226MOL0     N29717   9.712   2.693   5.999  1.2086 -0.0814 -0.1033
  226MOL0     C29718   9.715   2.831   5.982 -0.4354  0.2046  0.4935
  226MOL0     C29719   9.709   2.851   5.845  0.7392  0.0228 -0.0357
  226MOL0     C29720   9.712   2.982   5.771  0.1620  0.0931  0.5146
  226MOL0     C29721   9.581   2.997   5.697 -0.1556  0.2223 -0.3581
  226MOL0     C29722   9.561   3.128   5.618  0.0877  0.5170 -0.1243
  226MOL0     C29723   9.431   3.148   5.540 -0.0825 -0.2132  0.5441
  226MOL0     O29724   9.317   3.132   5.627  0.3280  0.4786 -0.3988
  226MOL0     C29725   9.190   3.158   5.567  0.4797 -1.0627 -0.5038
  226MOL0     C29726   9.083   3.170   5.660  0.6517 -0.0361 -0.0287
  226MOL0     C29727   8.958   3.188   5.610  0.2293  0.0634 -0.3828
  226MOL0     C29728   8.933   3.204   5.474  0.0750  0.2151 -0.5317
  226MOL0     C29729   8.797   3.205   5.421  0.2779 -0.3639 -1.4577
  226MOL0     O29730   8.705   3.241   5.512  0.4975 -1.3214 -1.0274
  226MOL0     C29731   8.576   3.230   5.482  0.4193 -0.5229 -0.1012
  226MOL0     C29732   8.509   3.248   5.362 -0.4131 -0.5843 -0.2140
  226MOL0     C29733   8.369   3.224   5.350  0.6052 -0.0120 -0.1032
  226MOL0     C29734   8.291   3.191   5.465  0.0189  1.1788  0.2583
  226MOL0     O29735   8.155   3.172   5.450  0.1554  0.6245  0.0297
  226MOL0     C29736   8.064   3.251   5.525  0.4396 -0.3959 -1.7208
  226MOL0     C29737   7.937   3.287   5.455  1.1145 -0.0075 -0.3615
  226MOL0     C29738   7.850   3.161   5.432  0.3149 -0.3590  0.0446
  226MOL0     C29739   7.705   3.193   5.396  0.1631  0.3987 -0.4425
  226MOL0     C29740   7.607   3.070   5.387  0.0524 -0.3626 -0.0495
  226MOL0     C29741   7.502   3.073   5.277  0.3656 -0.1262 -0.0258
  226MOL0     C29742   7.416   3.205   5.267 -1.0755  0.4554  0.2128
  226MOL0     C29743   7.307   3.213   5.378  0.7052 -0.0889 -0.6036
  226MOL0    Cl29744   7.162   3.294   5.297  0.2448 -0.1998 -0.2393
  226MOL0     C29745   8.358   3.179   5.582  0.2391  0.5363 -1.0584
  226MOL0     C29746   8.494   3.200   5.598 -0.1899 -0.0118  1.0954
  226MOL0     O29747   8.785   3.177   5.311  0.0399 -0.0388 -0.0291
  226MOL0     C29748   9.037   3.192   5.382 -0.2369 -0.7026 -0.6983
  226MOL0     C29749   9.174   3.181   5.423  0.2360 -0.7412  0.4771
  226MOL0     N29750   9.697   2.722   5.788  0.4315 -1.1156  0.3749
  226MOL0     N29751   9.690   2.629   5.881 -0.6282 -0.1277 -0.2714
  226MOL0     C29752  10.668   2.163   6.238  0.7855 -0.6296  0.0737
  226MOL0     C29753  10.798   2.123   6.262  1.0073 -0.2559  0.2643
  226MOL0     C29754  11.085   1.781   6.265 -0.0326 -0.6082 -0.7130
  226MOL0     C29755  11.109   1.742   6.130  0.3159  0.1967 -0.2496
  226MOL0     C29756  11.195   1.645   6.093 -0.2522  0.8902  0.2972
  226MOL0     C29757  11.268   1.579   6.194 -0.0220  0.0835 -0.0666
  226MOL0     O29758  11.375   1.509   6.152  0.0298  0.1149 -0.5392
  226MOL0     C29759  11.436   1.411   6.240 -0.5028  0.1824  0.3677
  226MOL0     C29760  11.561   1.488   6.287 -1.0967 -0.4526 -0.2509
  226MOL0     C29761  11.691   1.427   6.327 -0.0299  0.3109  0.0132
  226MOL0     C29762  11.784   1.510   6.425  1.6365 -0.3850  0.4962
  226MOL0     C29763  11.869   1.608   6.350 -0.0526 -0.8774 -0.1055
  226MOL0     C29764  11.944   1.690   6.304  0.2893 -0.1143 -0.0457
  226MOL0     C29765  11.242   1.616   6.331  0.3697 -0.3963  0.1524
  226MOL0     C29766  11.158   1.718   6.363 -0.6690 -0.3584  0.2135
  226MOL0     H29767  10.851   1.947   5.985  0.1206  0.8587 -0.2534
  226MOL0     H29768  10.603   2.014   5.945  0.1010 -0.8452  0.5660
  226MOL0     H29769  10.441   2.299   6.221 -1.1582 -0.2934  2.5369
  226MOL0     H29770  10.383   2.159   6.306  3.6856 -1.7381 -1.0071
  226MOL0     H29771  10.293   2.316   6.052 -2.3655 -1.7801 -2.2928
  226MOL0     H29772  10.225   2.339   6.215  0.3350 -3.4774  2.1786
  226MOL0     H29773  10.122   2.128   6.209  0.4705 -2.1828 -0.7623
  226MOL0     H29774  10.163   2.106   6.035 -0.3503  1.2212 -0.4912
  226MOL0     H29775  10.049   2.304   5.972  1.1115  0.9345  0.1203
  226MOL0     H29776   9.943   2.194   6.043  0.4859  0.1050 -0.9658
  226MOL0     H29777  10.048   2.457   6.182 -2.7000  2.3672  0.1043
  226MOL0     H29778   9.953   2.332   6.266 -0.6856  0.2647  0.0368
  226MOL0     H29779   9.771   2.374   6.140 -0.7671  1.5867 -0.3101
  226MOL0     H29780   9.874   2.447   6.010  1.2731 -2.5938 -0.1709
  226MOL0     H29781   9.856   2.592   6.282  0.2830  0.6057  0.0028
  226MOL0     H29782   9.929   2.643   6.148  1.5703 -2.3221  0.9196
  226MOL0     H29783   9.663   2.696   6.207  1.7593  2.7927 -1.5349
  226MOL0     H29784   9.628   2.544   6.118 -0.3260 -0.0970 -0.0767
  226MOL0     H29785   9.717   2.915   6.051  0.9434 -0.7663  1.6987
  226MOL0     H29786   9.790   2.974   5.694  0.3369 -0.9604  0.7828
  226MOL0     H29787   9.721   3.068   5.837 -1.8809  1.4165 -0.7978
  226MOL0     H29788   9.510   3.001   5.780 -0.4868  0.9232 -0.6654
  226MOL0     H29789   9.555   2.913   5.633  2.5438 -0.8697 -0.1745
  226MOL0     H29790   9.578   3.215   5.681 -0.2975  0.6801 -0.2426
  226MOL0     H29791   9.644   3.121   5.547 -1.1546  0.0122 -1.5917
  226MOL0     H29792   9.430   3.069   5.464  0.0128 -1.6922  2.0385
  226MOL0     H29793   9.439   3.250   5.499  3.1299 -1.3784 -2.2754
  226MOL0     H29794   9.107   3.154   5.764  4.1075 -0.3407 -0.7655
  226MOL0     H29795   8.882   3.170   5.686 -0.5388  1.9747 -0.6360
  226MOL0     H29796   8.563   3.289   5.278  1.4077  0.0091  1.1830
  226MOL0     H29797   8.321   3.238   5.253 -0.7342 -0.0108  0.5404
  226MOL0     H29798   8.111   3.343   5.561 -2.8679  0.1812  1.7220
  226MOL0     H29799   8.036   3.199   5.617 -0.1389  1.1822 -0.9573
  226MOL0     H29800   7.937   3.342   5.361  0.6635  0.1193 -0.2912
  226MOL0     H29801   7.881   3.355   5.520 -0.8937 -0.6401 -1.3178
  226MOL0     H29802   7.838   3.101   5.523 -0.4969 -1.9056 -1.0425
  226MOL0     H29803   7.890   3.086   5.363  1.0135  1.9339 -2.1959
  226MOL0     H29804   7.656   3.276   5.447 -0.6387 -1.5898  2.2546
  226MOL0     H29805   7.721   3.239   5.298  0.2277  1.7823  0.1958
  226MOL0     H29806   7.553   3.072   5.483  1.9061 -1.3514  1.0674
  226MOL0     H29807   7.680   2.989   5.382  1.3183  0.7883 -0.5056
  226MOL0     H29808   7.430   2.996   5.305 -0.5082 -0.2347 -2.3089
  226MOL0     H29809   7.557   3.053   5.184 -0.9909  1.2419 -1.1796
  226MOL0     H29810   7.486   3.289   5.265  2.4493 -2.2118  0.8631
  226MOL0     H29811   7.356   3.218   5.177 -1.0787 -1.5242 -0.1283
  226MOL0     H29812   7.342   3.254   5.473  1.9674  1.5474 -1.7147
  226MOL0     H29813   7.283   3.108   5.395 -1.3340 -0.0005 -2.4266
  226MOL0     H29814   8.305   3.160   5.675  0.9640 -0.5615 -0.8485
  226MOL0     H29815   8.538   3.178   5.695  2.5642  0.6716  0.0759
  226MOL0     H29816   9.010   3.217   5.280 -0.2831 -1.1074 -0.7883
  226MOL0     H29817   9.258   3.191   5.356 -2.2878 -0.5274 -2.9368
  226MOL0     H29818  10.623   2.219   6.319 -0.1631 -1.0893 -0.1139
  226MOL0     H29819  10.852   2.158   6.350  1.2456  1.2780 -0.4640
  226MOL0     H29820  11.068   1.792   6.043  2.0207  0.9527 -0.6725
  226MOL0     H29821  11.226   1.630   5.990  1.1796 -0.3437  0.8661
  226MOL0     H29822  11.451   1.324   6.175  2.0700  1.9350 -1.5955
  226MOL0     H29823  11.387   1.384   6.334 -2.4054 -3.3331 -1.4467
  226MOL0     H29824  11.589   1.550   6.202 -1.0585 -4.4073 -3.4144
  226MOL0     H29825  11.516   1.541   6.371 -2.6539 -3.7099  1.1751
  226MOL0     H29826  11.754   1.399   6.242  0.0859  1.6487 -0.3699
  226MOL0     H29827  11.674   1.330   6.375 -2.1504  0.5443 -0.2024
  226MOL0     H29828  11.710   1.568   6.481  1.1672 -0.1807 -0.3145
  226MOL0     H29829  11.840   1.445   6.492  2.9074  0.5030  0.3229
  226MOL0     H29830  12.011   1.761   6.261  0.3560 -1.1307 -1.7071
  226MOL0     H29831  11.299   1.572   6.412  0.9129 -1.2422 -0.6785
  226MOL0     H29832  11.144   1.740   6.469 -3.0322 -0.6155  0.0056
  227MOL0     O29833   3.991   1.503   4.667 -0.4135  0.4157  0.3735
  227MOL0     C29834   4.035   1.547   4.566  0.0788 -0.6922  0.2105
  227MOL0     O29835   3.980   1.524   4.441 -0.5851  0.5599  0.1351
  227MOL0     C29836   3.859   1.475   4.415 -0.5530 -0.2250 -0.2880
  227MOL0     C29837   3.758   1.429   4.506 -0.1628 -0.6518  1.1258
  227MOL0     C29838   3.643   1.358   4.455  0.6951  0.3651 -0.6715
  227MOL0     C29839   3.620   1.356   4.315  0.1245  0.3008 -0.0050
  227MOL0     O29840   3.499   1.288   4.288 -0.0510 -0.1411 -0.3798
  227MOL0     C29841   3.412   1.342   4.187 -0.0455 -0.6012 -1.2313
  227MOL0     C29842   3.358   1.478   4.238  0.5481  0.6009  0.2349
  227MOL0     C29843   3.235   1.529   4.167  0.2639  0.0216  0.2596
  227MOL0     C29844   3.273   1.594   4.041 -0.1106 -0.5961  0.1424
  227MOL0     C29845   3.140   1.633   3.974  0.1553 -0.6326  0.3518
  227MOL0     C29846   3.091   1.515   3.896  0.3364  0.5448 -1.0617
  227MOL0     C29847   2.950   1.544   3.838  0.0694  0.5349  0.6616
  227MOL0     C29848   2.913   1.425   3.742  0.5483 -0.2155 -0.1430
  227MOL0     N29849   2.793   1.441   3.667 -0.6163  0.5906  0.7649
  227MOL0     C29850   2.717   1.336   3.615 -0.4213  0.2478  0.2427
  227MOL0     C29851   2.623   1.404   3.537 -1.2448 -0.5230 -0.2571
  227MOL0     C29852   2.531   1.324   3.453 -1.0326  0.0168  0.0369
  227MOL0     C29853   2.386   1.370   3.463 -0.0539 -1.0918 -0.6547
  227MOL0     C29854   2.297   1.295   3.356 -0.4816  0.5012 -0.0353
  227MOL0     C29855   2.151   1.305   3.383 -0.4479 -0.4131  0.6431
  227MOL0     O29856   2.093   1.245   3.267  0.2190 -0.3068  0.0377
  227MOL0     C29857   1.959   1.223   3.263 -0.1398  0.3743 -0.1363
  227MOL0     C29858   1.875   1.326   3.271 -0.7656  0.3470  0.3394
  227MOL0     C29859   1.736   1.305   3.256  0.8915  0.1913 -1.6494
  227MOL0     C29860   1.678   1.181   3.214 -0.2629 -0.7475 -0.4770
  227MOL0     C29861   1.539   1.164   3.169  0.0600  0.1828 -0.0596
  227MOL0     O29862   1.454   1.272   3.162 -0.5491  0.0324  0.5831
  227MOL0     C29863   1.325   1.273   3.111  0.9493  0.5399 -0.7336
  227MOL0     C29864   1.227   1.191   3.176  0.2097 -0.1647  0.2686
  227MOL0     C29865   1.091   1.188   3.127 -0.5998  0.1640 -0.5335
  227MOL0     C29866   1.053   1.284   3.030  0.2688 -0.4319 -0.0976
  227MOL0     O29867   0.920   1.285   3.010  0.0041  0.3754 -0.3848
  227MOL0     C29868   0.861   1.375   2.910 -0.4775  0.4069 -0.1347
  227MOL0     C29869   0.705   1.373   2.934  0.2767  0.9385 -1.2068
  227MOL0     C29870   0.638   1.461   2.826  0.7261 -0.3612  0.3836
  227MOL0     C29871   0.488   1.445   2.823  0.7846 -1.0838  0.1730
  227MOL0     C29872   0.424   1.303   2.834 -0.3961  0.4940  0.8607
  227MOL0     C29873   0.477   1.219   2.722  0.4764  0.2300  0.2519
  227MOL0     C29874   0.372   1.103   2.684  0.1858 -0.3470  0.5400
  227MOL0     C29875   0.427   1.019   2.565 -0.4127  0.7589 -0.2346
  227MOL0    Cl29876   0.432   1.123   2.423 -0.5570 -0.3598  0.1180
  227MOL0     C29877   1.152   1.376   2.978  0.6526  0.4529  0.3572
  227MOL0     C29878   1.281   1.365   3.012 -0.0457  0.1566 -0.5904
  227MOL0     O29879   1.499   1.052   3.148  0.3467  0.3633 -0.1579
  227MOL0     C29880   1.776   1.073   3.204 -0.6305 -0.0902 -0.1007
  227MOL0     C29881   1.908   1.095   3.240  0.2117  0.2403 -0.3928
  227MOL0     N29882   2.639   1.544   3.556  0.6747  1.4982 -0.0783
  227MOL0     N29883   2.739   1.559   3.632 -0.5711 -0.5688  0.0229
  227MOL0     C29884   3.715   1.416   4.228  0.0501  0.4136 -0.3240
  227MOL0     C29885   3.834   1.473   4.277  0.4959  0.2136 -0.4112
  227MOL0     C29886   4.162   1.620   4.580 -0.2043 -0.0328 -0.0717
  227MOL0     C29887   4.231   1.659   4.467 -0.4839 -0.7626 -0.5602
  227MOL0     C29888   4.359   1.718   4.482 -0.3911  0.6776  0.0463
  227MOL0     C29889   4.417   1.749   4.605  0.6780  0.0529  0.7106
  227MOL0     O29890   4.512   1.835   4.615 -0.0921  0.1835  0.3222
  227MOL0     C29891   4.639   1.779   4.581  0.3382  0.4604  0.0781
  227MOL0     C29892   4.719   1.739   4.706  0.1324  0.4516  0.0815
  227MOL0     C29893   4.741   1.586   4.711 -0.1307 -0.9871 -0.2385
  227MOL0     C29894   4.848   1.540   4.613 -0.1799 -0.0934 -0.0302
  227MOL0     C29895   4.813   1.551   4.466 -0.3815  0.7686 -0.1207
  227MOL0     C29896   4.804   1.559   4.344  0.1885  0.4950 -0.4952
  227MOL0     C29897   4.351   1.703   4.718  0.1422 -1.1864  0.9643
  227MOL0     C29898   4.227   1.634   4.703 -0.7503 -0.9142 -0.5114
  227MOL0     H29899   3.767   1.430   4.614  1.8670 -2.8260  1.0477
  227MOL0     H29900   3.581   1.314   4.532  1.1045  2.1593  0.7515
  227MOL0     H29901   3.331   1.270   4.172 -0.8897 -0.8034  3.0420
  227MOL0     H29902   3.468   1.364   4.096 -0.5078 -3.0458 -2.1696
  227MOL0     H29903   3.445   1.544   4.242  2.2810 -1.5994  1.0587
  227MOL0     H29904   3.322   1.468   4.341 -0.0966  0.0263 -0.0370
  227MOL0     H29905   3.188   1.606   4.229  0.0225 -0.1387  0.2754
  227MOL0     H29906   3.168   1.446   4.147  1.0300 -1.1183  2.1372
  227MOL0     H29907   3.338   1.678   4.067  1.0434 -1.5117  0.3036
  227MOL0     H29908   3.326   1.528   3.972  0.3669  1.7786 -1.9685
  227MOL0     H29909   3.157   1.721   3.911  0.2498  2.1104  3.9233
  227MOL0     H29910   3.065   1.680   4.037 -3.4444  0.3991 -4.1556
  227MOL0     H29911   3.100   1.423   3.954  0.9447 -0.0531 -2.0638
  227MOL0     H29912   3.150   1.497   3.806 -0.1837 -1.1495 -1.0914
  227MOL0     H29913   2.873   1.552   3.915 -1.1658  0.8725 -0.5716
  227MOL0     H29914   2.956   1.643   3.791  4.4113  0.1299 -0.0997
  227MOL0     H29915   2.904   1.337   3.805  3.4335 -0.3113  0.2442
  227MOL0     H29916   2.991   1.412   3.667 -1.2636 -0.9103 -2.0326
  227MOL0     H29917   2.745   1.233   3.632 -0.3202  0.2133 -0.1255
  227MOL0     H29918   2.542   1.219   3.480  0.8674  0.1778  0.0406
  227MOL0     H29919   2.567   1.338   3.351 -1.1916  0.5939  0.0550
  227MOL0     H29920   2.373   1.478   3.456  2.1902 -0.8602 -2.5266
  227MOL0     H29921   2.344   1.343   3.560  0.5834 -1.5093 -0.4857
  227MOL0     H29922   2.316   1.335   3.256 -1.0638 -3.2174 -1.7993
  227MOL0     H29923   2.323   1.189   3.363 -3.7728 -0.3538  1.0822
  227MOL0     H29924   2.120   1.408   3.404  0.0433 -0.3004  0.8300
  227MOL0     H29925   2.139   1.252   3.478 -1.1527 -1.6956 -0.1392
  227MOL0     H29926   1.912   1.428   3.283 -1.9268  0.8306 -0.0294
  227MOL0     H29927   1.673   1.392   3.268  2.1642  0.9604 -0.1444
  227MOL0     H29928   1.263   1.131   3.258  0.4769 -0.2226  0.1093
  227MOL0     H29929   1.015   1.117   3.159 -0.0372 -0.7530 -1.1809
  227MOL0     H29930   0.883   1.340   2.809 -0.8923  0.0831 -0.1160
  227MOL0     H29931   0.885   1.479   2.933  0.7214  0.0625  0.2939
  227MOL0     H29932   0.688   1.413   3.035  1.1374 -1.3789 -0.0631
  227MOL0     H29933   0.669   1.270   2.931 -3.2833  2.0497 -1.3310
  227MOL0     H29934   0.670   1.446   2.723  2.1845  3.1058  0.1838
  227MOL0     H29935   0.667   1.564   2.850 -1.1009  0.0274  1.0770
  227MOL0     H29936   0.450   1.495   2.913  0.1338  1.3243 -1.3358
  227MOL0     H29937   0.448   1.489   2.731  0.2408  0.2140  1.0029
  227MOL0     H29938   0.316   1.306   2.814 -1.4117  0.8769  5.3119
  227MOL0     H29939   0.436   1.259   2.933  1.9475 -2.0017 -0.3949
  227MOL0     H29940   0.570   1.177   2.760  0.8222  2.1203  1.6218
  227MOL0     H29941   0.499   1.288   2.641 -0.3474 -0.4623 -0.5854
  227MOL0     H29942   0.363   1.045   2.776  1.2037 -0.8272  0.3499
  227MOL0     H29943   0.277   1.155   2.669 -0.1494 -0.5542  1.7857
  227MOL0     H29944   0.356   0.936   2.551 -1.1667  1.0129  1.7567
  227MOL0     H29945   0.529   0.984   2.585  0.3482  4.1797  2.8053
  227MOL0     H29946   1.127   1.454   2.907  1.6544  0.0276 -0.4896
  227MOL0     H29947   1.353   1.435   2.970  0.6131  0.4890  1.0065
  227MOL0     H29948   1.757   0.970   3.176  3.1393 -0.6084 -1.3341
  227MOL0     H29949   1.986   1.020   3.235 -0.0254  0.0621 -3.3629
  227MOL0     H29950   3.687   1.424   4.123 -0.8420  0.2328 -0.1085
  227MOL0     H29951   3.901   1.523   4.208 -0.0620  1.9614  0.2576
  227MOL0     H29952   4.190   1.648   4.367  1.8667  0.2048 -1.7101
  227MOL0     H29953   4.411   1.742   4.389 -0.9355 -0.9870 -0.7223
  227MOL0     H29954   4.692   1.859   4.526  0.1956  1.0148  0.7318
  227MOL0     H29955   4.627   1.695   4.512 -1.1503  1.8056 -1.4040
  227MOL0     H29956   4.817   1.785   4.696 -1.5368  4.1143 -1.1715
  227MOL0     H29957   4.667   1.771   4.797  1.5396  2.4504  0.2659
  227MOL0     H29958   4.642   1.541   4.693 -2.2358  3.1576 -0.0991
  227MOL0     H29959   4.769   1.557   4.813 -0.1079  1.9696  0.6845
  227MOL0     H29960   4.944   1.592   4.624 -0.4912  0.0853  2.2957
  227MOL0     H29961   4.864   1.433   4.631 -0.9367 -0.4615 -1.4194
  227MOL0     H29962   4.792   1.557   4.238 -2.8198  1.4359 -0.2623
  227MOL0     H29963   4.380   1.722   4.820 -0.8360  1.6729  0.8140
  227MOL0     H29964   4.176   1.595   4.790  1.4965  1.1024  1.8766
  228MOL0     O29965   0.219   1.546   7.507 -0.0677  0.0164 -0.4572
  228MOL0     C29966   0.155   1.445   7.475 -1.2935 -0.7729  0.3397
  228MOL0     O29967   0.204   1.318   7.463 -0.9572  0.0489 -0.6286
  228MOL0     C29968   0.332   1.266   7.489 -0.0639  0.1512  0.1411
  228MOL0     C29969   0.352   1.126   7.481 -0.2820  0.2016 -0.3479
  228MOL0     C29970   0.473   1.062   7.522 -0.4713 -0.1039  0.0400
  228MOL0     C29971   0.585   1.143   7.556  0.0159 -0.6236  0.2955
  228MOL0     O29972   0.701   1.092   7.599 -0.3186  0.0330 -0.2869
  228MOL0     C29973   0.745   0.960   7.555  0.7808 -0.1021  1.4341
  228MOL0     C29974   0.895   0.978   7.532  0.7814  0.3152 -0.5306
  228MOL0     C29975   0.966   0.840   7.498 -1.0062  0.1830 -0.6321
  228MOL0     C29976   1.116   0.856   7.455 -0.5514 -0.2386  0.3305
  228MOL0     C29977   1.175   0.713   7.440 -0.1025 -0.4902 -0.0653
  228MOL0     C29978   1.315   0.709   7.399  0.1276 -0.0830 -0.2494
  228MOL0     C29979   1.349   0.767   7.256  0.7334  0.3857 -0.1517
  228MOL0     C29980   1.493   0.745   7.195 -0.2820  0.1591 -0.3841
  228MOL0     N29981   1.590   0.818   7.278 -0.7044  0.7035  0.5947
  228MOL0     C29982   1.659   0.776   7.390 -1.2294  1.0603 -0.2026
  228MOL0     C29983   1.736   0.878   7.420 -0.6822  1.1600 -1.0275
  228MOL0     C29984   1.835   0.875   7.531 -0.1932 -0.1392 -1.0650
  228MOL0     C29985   1.764   0.826   7.665 -0.4557  0.0460 -0.0938
  228MOL0     C29986   1.707   0.926   7.765  0.3860  0.0441  0.3023
  228MOL0     C29987   1.801   1.040   7.799  0.0205 -0.0383 -0.6029
  228MOL0     O29988   1.778   1.083   7.936  1.0349  0.2725  0.4274
  228MOL0     C29989   1.656   1.149   7.966 -0.5149 -0.3985 -0.5930
  228MOL0     C29990   1.569   1.215   7.876  0.6658  0.0978 -0.4264
  228MOL0     C29991   1.444   1.258   7.910 -0.2069  1.0104  0.4745
  228MOL0     C29992   1.401   1.257   8.046 -0.1345 -0.5967  1.3056
  228MOL0     C29993   1.267   1.317   8.081 -0.2238 -1.4275 -0.2756
  228MOL0     O29994   1.180   1.360   7.982 -0.1555 -0.1561 -1.0047
  228MOL0     C29995   1.053   1.398   8.016  0.1782 -0.4662 -0.3633
  228MOL0     C29996   0.947   1.328   7.950 -0.3322 -0.7309 -0.2572
  228MOL0     C29997   0.814   1.367   7.959  0.1471  0.0820  0.4165
  228MOL0     C29998   0.778   1.492   8.026 -0.6263 -0.5935 -0.4916
  228MOL0     O29999   0.648   1.536   8.046 -0.0882 -0.5535 -0.7891
  228MOL0     C30000   0.542   1.474   7.976  0.0147  0.4454  0.7702
  228MOL0     C30001   0.529   1.516   7.823  0.3435 -1.0974 -0.3293
  228MOL0     C30002   0.509   1.668   7.815  0.6949  0.2669 -0.6031
  228MOL0     C30003   0.388   1.732   7.893  0.7643  0.5102 -0.3680
  228MOL0     C30004   0.268   1.742   7.801  0.1785 -0.7619  0.4703
  228MOL0     C30005   0.135   1.795   7.858 -0.0264 -0.9418  0.6277
  228MOL0     C30006   0.005   1.776   7.766 -0.7661 -0.7484 -0.2346
  228MOL0     C30007  -0.118   1.837   7.837  0.6045  0.4293  0.6247
  228MOL0    Cl30008  -0.224   1.903   7.717 -0.5598 -0.2596 -0.1091
  228MOL0     C30009   0.880   1.557   8.094  0.3081 -0.0092  0.4973
  228MOL0     C30010   1.007   1.508   8.086 -0.2506 -0.1714 -0.0792
  228MOL0     O30011   1.234   1.313   8.202 -0.4218  0.4571 -0.3508
  228MOL0     C30012   1.496   1.205   8.143  1.1778 -0.1715  0.7019
  228MOL0     C30013   1.615   1.149   8.100  0.0612 -0.3327 -0.0914
  228MOL0     N30014   1.705   0.986   7.340  0.0272 -0.0659  0.2753
  228MOL0     N30015   1.623   0.948   7.250  0.0251 -0.4888  0.9710
  228MOL0     C30016   0.565   1.276   7.550 -0.9862 -0.8754  0.9502
  228MOL0     C30017   0.447   1.345   7.523 -0.2037  0.2282 -0.3673
  228MOL0     C30018   0.020   1.466   7.438  0.2383 -0.6286 -0.0819
  228MOL0     C30019  -0.064   1.371   7.383 -0.7883 -0.4696 -0.4099
  228MOL0     C30020  -0.199   1.389   7.358  0.5660  0.0952  0.2297
  228MOL0     C30021  -0.259   1.510   7.386 -0.4051  0.7134 -0.0405
  228MOL0     O30022  -0.381   1.546   7.347  0.3729  0.9426  0.0466
  228MOL0     C30023  -0.468   1.448   7.282 -0.6952 -0.5111 -0.2758
  228MOL0     C30024  -0.589   1.417   7.367 -0.1319  0.3144 -0.5072
  228MOL0     C30025  -0.542   1.315   7.470 -0.2124  0.8205  0.3967
  228MOL0     C30026  -0.666   1.272   7.552  0.2622 -0.6796  0.0426
  228MOL0     C30027  -0.756   1.375   7.609  0.6694 -0.4363  0.4679
  228MOL0     C30028  -0.834   1.446   7.674  0.1266 -0.7218  0.2427
  228MOL0     C30029  -0.181   1.614   7.443  0.1415  0.0995  0.0163
  228MOL0     C30030  -0.045   1.588   7.472  0.3217 -0.6462  0.3530
  228MOL0     H30031   0.258   1.074   7.466  0.5697 -0.9807 -1.7392
  228MOL0     H30032   0.465   0.955   7.534 -0.3432 -0.2520 -1.1370
  228MOL0     H30033   0.695   0.937   7.460  1.8158  1.1429  0.5644
  228MOL0     H30034   0.725   0.891   7.638  0.1898  0.4759  1.7764
  228MOL0     H30035   0.934   1.018   7.626  2.6557 -0.3176 -0.9947
  228MOL0     H30036   0.915   1.044   7.447  0.7664 -1.0974 -1.6682
  228MOL0     H30037   0.916   0.780   7.421  1.1606 -2.5297 -0.0654
  228MOL0     H30038   0.957   0.787   7.593 -1.7905 -2.0645 -1.8871
  228MOL0     H30039   1.129   0.910   7.361  1.4706 -1.7291 -0.3018
  228MOL0     H30040   1.170   0.900   7.539  0.4753  0.7174 -0.7873
  228MOL0     H30041   1.122   0.642   7.376  0.5308 -1.2820  0.2600
  228MOL0     H30042   1.171   0.681   7.545  1.9781  0.7091  0.4242
  228MOL0     H30043   1.353   0.606   7.404 -1.0917 -0.7301 -2.9230
  228MOL0     H30044   1.369   0.771   7.472 -2.2591 -1.1961  2.6553
  228MOL0     H30045   1.274   0.715   7.196  2.6267 -1.4271 -1.0617
  228MOL0     H30046   1.330   0.875   7.255 -0.3088  0.2710  1.9776
  228MOL0     H30047   1.485   0.779   7.092 -0.8701 -2.5463 -1.3238
  228MOL0     H30048   1.512   0.637   7.193 -0.9034  0.0505 -0.4465
  228MOL0     H30049   1.674   0.676   7.429  0.9893  1.6574  0.6120
  228MOL0     H30050   1.877   0.975   7.542  3.6664 -1.7356  0.6530
  228MOL0     H30051   1.924   0.818   7.502  1.1443  1.0785  0.4805
  228MOL0     H30052   1.832   0.769   7.729 -0.1499 -0.3264 -0.7311
  228MOL0     H30053   1.688   0.750   7.643 -0.6903  0.5669 -1.1823
  228MOL0     H30054   1.622   0.972   7.714  2.2695  0.9592 -2.1970
  228MOL0     H30055   1.678   0.886   7.863 -3.4404  5.6218  1.9319
  228MOL0     H30056   1.802   1.125   7.731 -1.2089  1.0261  0.6255
  228MOL0     H30057   1.902   1.003   7.784  0.8765  1.8406  0.1684
  228MOL0     H30058   1.601   1.195   7.774  1.4122  0.2870 -0.2360
  228MOL0     H30059   1.370   1.274   7.832 -0.3000 -0.3604  0.2585
  228MOL0     H30060   0.959   1.242   7.884 -3.0177 -0.6710 -0.9302
  228MOL0     H30061   0.743   1.297   7.917 -0.6774  0.6258  0.8607
  228MOL0     H30062   0.447   1.511   8.014 -1.6382 -1.7173 -1.0380
  228MOL0     H30063   0.562   1.368   7.992  2.2091  0.7888  0.6838
  228MOL0     H30064   0.448   1.453   7.785 -0.8445  0.5071 -0.5859
  228MOL0     H30065   0.611   1.496   7.755  0.9719  0.0053  0.0812
  228MOL0     H30066   0.503   1.687   7.707 -0.4155 -1.3198 -0.8527
  228MOL0     H30067   0.602   1.717   7.846  1.2339 -0.5093 -0.9496
  228MOL0     H30068   0.363   1.694   7.993 -1.5749  1.5064 -0.4901
  228MOL0     H30069   0.420   1.836   7.907  1.5898  0.0552  1.3692
  228MOL0     H30070   0.248   1.642   7.760 -2.8562  1.1117 -3.2179
  228MOL0     H30071   0.302   1.782   7.705  1.2501 -2.4812  0.0909
  228MOL0     H30072   0.146   1.903   7.860  0.2831 -0.8715 -1.7082
  228MOL0     H30073   0.120   1.758   7.960 -1.0643  0.9541  1.2189
  228MOL0     H30074   0.023   1.830   7.673 -1.2856  1.8917  1.0980
  228MOL0     H30075  -0.012   1.673   7.734  2.0364 -0.0108 -5.1722
  228MOL0     H30076  -0.064   1.910   7.899  4.4791 -0.0357 -1.8723
  228MOL0     H30077  -0.173   1.764   7.897  0.5214 -2.4569 -2.6419
  228MOL0     H30078   0.858   1.642   8.157  1.4825  1.5769 -1.1255
  228MOL0     H30079   1.091   1.548   8.142  3.0152 -2.9291 -2.6062
  228MOL0     H30080   1.488   1.203   8.251 -0.9871 -2.0557  0.5881
  228MOL0     H30081   1.676   1.100   8.174 -0.0997 -0.1742  0.1451
  228MOL0     H30082   0.649   1.337   7.583 -2.3888 -0.0208  3.1578
  228MOL0     H30083   0.443   1.453   7.511 -0.6198  0.4608  1.5851
  228MOL0     H30084  -0.030   1.269   7.370 -1.7546 -1.1750  2.0669
  228MOL0     H30085  -0.266   1.307   7.337 -0.1196  1.2453 -2.6084
  228MOL0     H30086  -0.433   1.349   7.251 -0.4819  0.3423 -3.0214
  228MOL0     H30087  -0.502   1.495   7.189  1.1128  0.2493 -0.5965
  228MOL0     H30088  -0.626   1.503   7.423 -2.2343 -0.1704 -1.0640
  228MOL0     H30089  -0.681   1.391   7.315 -1.0054  2.9735 -0.4293
  228MOL0     H30090  -0.468   1.360   7.537 -0.0070  0.5986  0.3195
  228MOL0     H30091  -0.495   1.229   7.422 -1.2731  0.5527 -0.1992
  228MOL0     H30092  -0.731   1.206   7.494  1.8284 -1.6287 -0.7035
  228MOL0     H30093  -0.620   1.219   7.636  0.3847  2.4144  2.0689
  228MOL0     H30094  -0.898   1.507   7.734  0.7805  0.4063 -0.1894
  228MOL0     H30095  -0.236   1.704   7.469 -1.8909 -0.7816 -0.9712
  228MOL0     H30096   0.010   1.670   7.517  0.6529  0.1467 -1.4185
  229MOL0     O30097   3.663   5.077  10.711  0.4943  0.3654 -0.0149
  229MOL0     C30098   3.727   5.054  10.815  0.8379 -0.2293 -0.1010
  229MOL0     O30099   3.687   5.095  10.934  0.3005 -1.1137  0.1935
  229MOL0     C30100   3.560   5.137  10.956 -0.2115 -0.1794 -1.0569
  229MOL0     C30101   3.464   5.057  11.014 -0.1447  0.0174 -0.0968
  229MOL0     C30102   3.337   5.111  11.037  0.1773 -0.1062 -0.7314
  229MOL0     C30103   3.305   5.244  10.998 -0.0030 -0.3631 -0.0675
  229MOL0     O30104   3.179   5.303  11.025 -0.9344  0.8734 -0.1517
  229MOL0     C30105   3.120   5.359  10.913  0.4268  0.6765  0.0860
  229MOL0     C30106   2.978   5.411  10.957 -0.7379  0.0823 -0.5778
  229MOL0     C30107   2.891   5.446  10.833  0.2230  0.1395 -0.5683
  229MOL0     C30108   2.928   5.582  10.769  0.6700  0.1062  0.1828
  229MOL0     C30109   2.847   5.621  10.650  0.1004  0.1904  0.5161
  229MOL0     C30110   2.910   5.741  10.566  0.3405  0.4652  0.1150
  229MOL0     C30111   2.910   5.869  10.648  0.9973  0.2891  0.0408
  229MOL0     C30112   2.954   5.985  10.551  0.2477  0.5458 -0.2760
  229MOL0     N30113   2.916   6.110  10.616  0.4601  0.4652  0.1475
  229MOL0     C30114   2.974   6.170  10.724 -0.0067  0.0776 -0.4658
  229MOL0     C30115   2.909   6.285  10.733 -0.3071 -0.1535 -0.2387
  229MOL0     C30116   2.932   6.383  10.852  0.3719  0.2214  0.2399
  229MOL0     C30117   3.068   6.442  10.852  0.0112 -0.0695  0.4960
  229MOL0     C30118   3.078   6.554  10.964 -0.0210 -0.1027 -0.0807
  229MOL0     C30119   3.043   6.504  11.105 -0.8951 -0.4375 -0.5441
  229MOL0     O30120   3.068   6.606  11.204 -0.0171  0.7933 -0.8035
  229MOL0     C30121   3.035   6.556  11.330 -0.0837 -0.3899  0.4614
  229MOL0     C30122   3.076   6.634  11.435  0.1435 -0.1342  1.6354
  229MOL0     C30123   3.044   6.600  11.572  0.5879 -1.6186  0.3705
  229MOL0     C30124   2.972   6.489  11.594 -0.6223  0.1383 -1.1715
  229MOL0     C30125   2.934   6.470  11.733 -0.4568 -0.1302  0.2863
  229MOL0     O30126   2.947   6.576  11.817 -0.2313  0.8329  0.1046
  229MOL0     C30127   2.918   6.551  11.944  0.0120 -0.2608  0.4126
  229MOL0     C30128   3.025   6.549  12.029 -0.2468  0.5040 -0.6481
  229MOL0     C30129   3.008   6.511  12.166  0.2536  0.1992 -0.2318
  229MOL0     C30130   2.883   6.482  12.218  0.4321  0.6364  0.4562
  229MOL0     O30131   2.861   6.441  12.348 -0.8492  0.4635  0.0597
  229MOL0     C30132   2.955   6.484  12.447  0.0169  0.2334  0.4766
  229MOL0     C30133   2.895   6.490  12.580  0.1030 -0.4480  0.2465
  229MOL0     C30134   2.757   6.551  12.583  0.5977  0.1762  0.1398
  229MOL0     C30135   2.705   6.520  12.720 -0.2553  0.5088  0.9556
  229MOL0     C30136   2.559   6.569  12.731 -0.1141  0.1452 -0.0272
  229MOL0     C30137   2.495   6.528  12.863  0.5793  0.3225 -0.3018
  229MOL0     C30138   2.456   6.385  12.864 -0.2847  0.3615  0.0564
  229MOL0     C30139   2.347   6.354  12.967  0.1012 -0.0188  1.3858
  229MOL0    Cl30140   2.203   6.448  12.924  0.3255  0.4907  0.1702
  229MOL0     C30141   2.774   6.489  12.128  0.7258  0.1056 -0.9684
  229MOL0     C30142   2.790   6.526  11.993 -0.0691  0.0285 -0.5464
  229MOL0     O30143   2.896   6.352  11.760  0.0200  0.5086  0.1288
  229MOL0     C30144   2.927   6.405  11.490  0.2754  0.2398 -0.7718
  229MOL0     C30145   2.961   6.437  11.360 -0.8724  0.8006  0.7547
  229MOL0     N30146   2.809   6.284  10.642  0.1390  0.7466 -0.1360
  229MOL0     N30147   2.815   6.183  10.569 -0.4971  0.4123  0.4867
  229MOL0     C30148   3.406   5.325  10.938 -0.0122 -0.4037  0.5628
  229MOL0     C30149   3.530   5.271  10.922 -0.4391  0.6871 -0.0522
  229MOL0     C30150   3.857   4.986  10.806 -0.7581 -0.1311 -0.1222
  229MOL0     C30151   3.949   4.986  10.914 -1.1589  0.2703  0.1348
  229MOL0     C30152   4.082   4.941  10.896  0.0276 -0.4387  0.6741
  229MOL0     C30153   4.120   4.887  10.776 -0.0365  0.2954  0.4171
  229MOL0     O30154   4.248   4.836  10.784 -0.4093  0.4167  0.3348
  229MOL0     C30155   4.262   4.699  10.733  0.4778 -0.2915 -0.3421
  229MOL0     C30156   4.364   4.698  10.621  0.1066  1.6756  1.2521
  229MOL0     C30157   4.500   4.747  10.662 -0.4735 -0.4966  0.0956
  229MOL0     C30158   4.617   4.739  10.560  0.3777  0.1212 -0.0684
  229MOL0     C30159   4.657   4.600  10.532 -0.2215  0.0958 -0.5095
  229MOL0     C30160   4.689   4.489  10.499  0.7881  0.0505 -0.2539
  229MOL0     C30161   4.032   4.877  10.665  0.1108 -0.5036 -0.0749
  229MOL0     C30162   3.903   4.924  10.681 -0.4180 -0.3924  0.0240
  229MOL0     H30163   3.487   4.957  11.050 -1.5258 -0.2862 -0.0120
  229MOL0     H30164   3.270   5.044  11.090 -0.5535  1.1481 -0.0159
  229MOL0     H30165   3.119   5.272  10.847  0.3962 -0.5189  1.6155
  229MOL0     H30166   3.182   5.438  10.868  0.2532 -0.0351 -1.4815
  229MOL0     H30167   2.986   5.502  11.016 -2.0556 -1.1524  1.6080
  229MOL0     H30168   2.928   5.332  11.013  0.7967 -0.4740  0.0771
  229MOL0     H30169   2.791   5.463  10.874  1.0433 -0.9231  2.0790
  229MOL0     H30170   2.896   5.374  10.751 -0.6695 -0.8197  0.1969
  229MOL0     H30171   2.918   5.655  10.850  0.3359 -1.3300  1.4792
  229MOL0     H30172   3.032   5.583  10.737 -0.6884  0.6769 -5.3898
  229MOL0     H30173   2.744   5.645  10.679 -0.6287 -1.8159 -0.2852
  229MOL0     H30174   2.845   5.532  10.588  1.8269 -1.4810  2.6748
  229MOL0     H30175   2.852   5.748  10.474 -3.1348  1.4605  2.2068
  229MOL0     H30176   3.016   5.721  10.547  0.1311  1.3906 -2.3958
  229MOL0     H30177   2.806   5.886  10.678  0.3901  1.9073 -2.6276
  229MOL0     H30178   2.964   5.864  10.743  1.2096 -1.9318 -0.1415
  229MOL0     H30179   2.904   5.977  10.454  0.3331 -1.3260 -0.2064
  229MOL0     H30180   3.060   5.996  10.526 -0.5060  1.7225 -3.5168
  229MOL0     H30181   3.056   6.129  10.782 -2.0919  1.0990  3.5222
  229MOL0     H30182   2.916   6.325  10.944  1.7099  1.5393  1.3609
  229MOL0     H30183   2.864   6.466  10.833 -1.3348 -1.5777 -2.2154
  229MOL0     H30184   3.103   6.478  10.755  0.2757 -4.1141 -1.0920
  229MOL0     H30185   3.142   6.365  10.874  1.4307  0.7269 -1.2434
  229MOL0     H30186   3.179   6.595  10.965 -0.1437  0.3310 -1.7843
  229MOL0     H30187   3.014   6.642  10.957 -1.5567 -1.2048 -0.4231
  229MOL0     H30188   3.111   6.426  11.140 -2.9540 -0.6803  3.5231
  229MOL0     H30189   2.943   6.460  11.097 -0.1744 -1.7631 -3.6170
  229MOL0     H30190   3.138   6.720  11.411 -1.1326  0.5498  0.7094
  229MOL0     H30191   3.078   6.674  11.643 -2.9874  1.2608 -0.6278
  229MOL0     H30192   3.125   6.578  11.996  0.5765  1.4519  2.3388
  229MOL0     H30193   3.098   6.508  12.226 -0.4302  2.7242  1.0616
  229MOL0     H30194   3.001   6.583  12.432  0.2212 -0.2854 -3.4954
  229MOL0     H30195   3.033   6.408  12.444 -0.4983 -0.2871 -0.0514
  229MOL0     H30196   2.962   6.540  12.651  2.3268 -1.3232 -1.1238
  229MOL0     H30197   2.884   6.388  12.618  0.9690 -0.5240  0.3212
  229MOL0     H30198   2.691   6.503  12.510 -0.4192 -0.8405  1.6725
  229MOL0     H30199   2.755   6.660  12.573 -8.0387  1.2509  3.7635
  229MOL0     H30200   2.700   6.412  12.733  2.8342  0.2916  0.8821
  229MOL0     H30201   2.770   6.556  12.801 -2.0435  0.9202  2.2958
  229MOL0     H30202   2.486   6.533  12.658 -2.2895  3.0987  0.5121
  229MOL0     H30203   2.556   6.675  12.704 -0.4705  0.0371 -0.4278
  229MOL0     H30204   2.408   6.591  12.885  0.3497 -0.1830  0.2463
  229MOL0     H30205   2.556   6.536  12.954  1.2733 -4.0227 -0.1678
  229MOL0     H30206   2.449   6.346  12.762 -0.4223 -2.2673  1.0078
  229MOL0     H30207   2.538   6.328  12.909 -2.4232  0.0702  4.0583
  229MOL0     H30208   2.389   6.379  13.065  0.4896  0.3776  1.1197
  229MOL0     H30209   2.317   6.249  12.966 -0.4163 -0.1000 -4.0899
  229MOL0     H30210   2.674   6.460  12.157  0.0813  1.8797 -1.3306
  229MOL0     H30211   2.705   6.532  11.926  1.8672 -1.7848 -3.3956
  229MOL0     H30212   2.877   6.311  11.514  1.1104  0.6422  3.2407
  229MOL0     H30213   2.928   6.371  11.280 -1.0901  0.5063  1.0824
  229MOL0     H30214   3.403   5.427  10.901  2.0313  0.2921  2.1034
  229MOL0     H30215   3.607   5.328  10.871  0.6856 -0.5026  0.2607
  229MOL0     H30216   3.920   5.020  11.012 -1.9833 -0.5312  0.1786
  229MOL0     H30217   4.151   4.936  10.979  1.3617  0.5010 -0.3183
  229MOL0     H30218   4.169   4.656  10.695  0.7941 -1.9558  0.6395
  229MOL0     H30219   4.308   4.639  10.812 -0.0365 -0.1604  0.0580
  229MOL0     H30220   4.378   4.597  10.579 -0.9731  2.2517 -0.6126
  229MOL0     H30221   4.328   4.751  10.533  1.4066  0.2328 -0.2250
  229MOL0     H30222   4.541   4.690  10.746 -0.0354 -0.5780 -0.1736
  229MOL0     H30223   4.489   4.851  10.693 -0.0953 -0.3186 -0.3507
  229MOL0     H30224   4.578   4.798  10.475  3.0826  1.1765 -0.6708
  229MOL0     H30225   4.704   4.801  10.582 -0.7662  2.9498 -2.6994
  229MOL0     H30226   4.707   4.388  10.469 -1.8876 -0.6957  0.3826
  229MOL0     H30227   4.061   4.848  10.565  0.5363 -1.5677  0.3481
  229MOL0     H30228   3.834   4.935  10.598  0.2179  1.7675 -0.2872
  230MOL0     O30229   0.455   6.649   8.547  0.2986 -0.5348  0.3378
  230MOL0     C30230   0.432   6.545   8.499  0.9175  0.1518  1.4001
  230MOL0     O30231   0.522   6.458   8.437  0.2864 -0.3541 -0.3834
  230MOL0     C30232   0.646   6.499   8.422 -0.2130 -0.0780  0.0760
  230MOL0     C30233   0.672   6.615   8.349 -0.1668 -0.1667  0.2697
  230MOL0     C30234   0.807   6.648   8.324 -0.0195 -0.1871 -0.6064
  230MOL0     C30235   0.911   6.574   8.371 -0.3814  0.1250 -0.5887
  230MOL0     O30236   1.043   6.600   8.344  0.2284 -1.3291 -0.6155
  230MOL0     C30237   1.089   6.732   8.386  0.0848 -0.8543 -0.3880
  230MOL0     C30238   1.244   6.746   8.372 -0.0761 -0.1006  1.0800
  230MOL0     C30239   1.310   6.871   8.437 -0.1160 -0.8007 -0.3722
  230MOL0     C30240   1.451   6.888   8.377 -0.1883 -0.1233 -0.2128
  230MOL0     C30241   1.456   7.004   8.291 -0.0986 -0.2274  0.0415
  230MOL0     C30242   1.594   7.021   8.225  0.8506 -0.3007 -0.5105
  230MOL0     C30243   1.589   7.158   8.143  0.1405 -0.5450 -1.2439
  230MOL0     C30244   1.715   7.176   8.071 -0.6659 -0.1591 -0.5072
  230MOL0     N30245   1.728   7.312   8.007  0.6293  0.2568 -0.1513
  230MOL0     C30246   1.678   7.431   8.059  0.0789 -0.2920  0.5437
  230MOL0     C30247   1.722   7.532   7.986 -0.7680 -0.0444  0.2999
  230MOL0     C30248   1.682   7.685   7.982 -0.1903  0.4816  0.2061
  230MOL0     C30249   1.664   7.730   8.123  1.2127  0.0052  0.4402
  230MOL0     C30250   1.745   7.866   8.152  0.2815  0.1835 -0.5780
  230MOL0     C30251   1.747   7.901   8.302  0.1035  0.3419 -0.4475
  230MOL0     O30252   1.621   7.875   8.373 -0.2468  0.2113  0.5391
  230MOL0     C30253   1.509   7.944   8.360  0.1063  0.7736  0.1856
  230MOL0     C30254   1.490   8.063   8.285 -0.0710 -0.7364  0.3816
  230MOL0     C30255   1.364   8.123   8.267  0.3780 -0.8449 -0.9726
  230MOL0     C30256   1.257   8.061   8.332  0.8219  0.0701  0.0169
  230MOL0     C30257   1.129   8.131   8.349 -0.1023 -0.1422 -0.2421
  230MOL0     O30258   1.127   8.247   8.278 -0.6699 -0.3284 -0.2904
  230MOL0     C30259   1.011   8.322   8.283 -0.3175  0.2456 -0.3236
  230MOL0     C30260   0.947   8.375   8.176  0.4745  0.9066  0.7765
  230MOL0     C30261   0.830   8.450   8.186  0.9283 -0.5296  0.3413
  230MOL0     C30262   0.778   8.478   8.312 -0.0255 -0.6955 -0.1621
  230MOL0     O30263   0.665   8.552   8.338  0.5204  1.0212  0.3248
  230MOL0     C30264   0.548   8.490   8.285 -0.4961 -0.0150 -1.4765
  230MOL0     C30265   0.477   8.403   8.380  0.0353  0.3603  0.8961
  230MOL0     C30266   0.417   8.469   8.507 -1.1631  0.8045  0.4390
  230MOL0     C30267   0.272   8.498   8.489 -0.0839  0.3010  0.6645
  230MOL0     C30268   0.236   8.606   8.591  0.3303 -0.4638  1.0794
  230MOL0     C30269   0.086   8.620   8.597  0.3895 -0.2114  0.7310
  230MOL0     C30270   0.026   8.748   8.539  1.0470 -0.6255 -0.4678
  230MOL0     C30271  -0.126   8.716   8.543 -0.2723  0.1421 -0.3020
  230MOL0    Cl30272  -0.233   8.848   8.505  0.2463 -0.1600  0.4386
  230MOL0     C30273   0.843   8.426   8.421 -0.3248 -1.0437  0.7801
  230MOL0     C30274   0.958   8.356   8.414 -0.4197  0.5504  0.4248
  230MOL0     O30275   1.035   8.078   8.410 -0.4189  0.5451 -0.2014
  230MOL0     C30276   1.269   7.937   8.402  0.2364  0.5319  0.3100
  230MOL0     C30277   1.395   7.873   8.406 -0.0924 -0.4233  0.4802
  230MOL0     N30278   1.805   7.476   7.890  0.0220  0.4139 -1.1316
  230MOL0     N30279   1.802   7.345   7.897  0.3027  0.1623 -0.1507
  230MOL0     C30280   0.883   6.460   8.449 -1.5556 -0.2124  0.8111
  230MOL0     C30281   0.747   6.424   8.477 -0.7333  0.3649 -0.1258
  230MOL0     C30282   0.299   6.489   8.478  0.2069 -0.7740 -1.2325
  230MOL0     C30283   0.267   6.386   8.384 -0.0141  0.3973  0.2271
  230MOL0     C30284   0.138   6.332   8.357 -0.7613 -0.3884  1.3629
  230MOL0     C30285   0.033   6.365   8.447  0.3735 -0.8111  1.0057
  230MOL0     O30286  -0.084   6.299   8.424 -0.5192 -0.0160 -0.5202
  230MOL0     C30287  -0.190   6.323   8.518  0.2894 -0.3327  0.1265
  230MOL0     C30288  -0.258   6.458   8.532 -0.4502  0.7152 -0.0441
  230MOL0     C30289  -0.334   6.500   8.403 -1.0718  0.3115 -0.7881
  230MOL0     C30290  -0.242   6.557   8.302  0.4178  0.7738  1.1063
  230MOL0     C30291  -0.174   6.679   8.346  0.0545 -0.1619 -0.2540
  230MOL0     C30292  -0.115   6.776   8.386 -0.4820 -0.2869 -0.2919
  230MOL0     C30293   0.070   6.449   8.551 -0.0653 -0.9139  0.5926
  230MOL0     C30294   0.191   6.520   8.566  0.1436  0.2827  0.3045
  230MOL0     H30295   0.580   6.662   8.315 -0.8918 -0.4653  1.7087
  230MOL0     H30296   0.818   6.745   8.277 -1.8822  0.8327  0.8901
  230MOL0     H30297   1.058   6.750   8.490 -2.0466  0.3011 -1.1518
  230MOL0     H30298   1.034   6.810   8.332  1.0284  1.4343  1.7643
  230MOL0     H30299   1.265   6.739   8.265 -0.4996  2.9773  0.7117
  230MOL0     H30300   1.288   6.664   8.431  1.4566  0.0250  0.1608
  230MOL0     H30301   1.320   6.857   8.545  2.9583 -1.8289 -0.6660
  230MOL0     H30302   1.251   6.958   8.409  2.0296  1.6393  2.1599
  230MOL0     H30303   1.524   6.901   8.457 -0.8177 -0.3301  0.4043
  230MOL0     H30304   1.480   6.800   8.319 -0.4129  0.3932 -1.1258
  230MOL0     H30305   1.432   7.092   8.350 -1.9676 -1.3086  0.9674
  230MOL0     H30306   1.378   6.992   8.215  4.0051 -3.9045 -4.2442
  230MOL0     H30307   1.602   6.939   8.153 -1.3556 -1.0967  0.0561
  230MOL0     H30308   1.676   7.028   8.297  1.0610 -1.0776 -0.6678
  230MOL0     H30309   1.502   7.151   8.078 -1.6356 -2.8318  1.1182
  230MOL0     H30310   1.573   7.231   8.223 -0.3321 -1.2310 -0.7040
  230MOL0     H30311   1.718   7.095   7.998  1.8522 -1.0068  0.4672
  230MOL0     H30312   1.798   7.170   8.141 -1.2871 -0.1007  0.2470
  230MOL0     H30313   1.605   7.436   8.140  0.8287  1.7297  1.1500
  230MOL0     H30314   1.591   7.689   7.921 -0.8148  1.6555  1.1803
  230MOL0     H30315   1.752   7.748   7.926 -2.7028  2.3659 -1.0452
  230MOL0     H30316   1.701   7.650   8.188  1.6634  1.5951  2.2668
  230MOL0     H30317   1.556   7.739   8.141  0.6670 -1.8709 -1.5235
  230MOL0     H30318   1.847   7.851   8.116  0.9746 -1.8105  1.8829
  230MOL0     H30319   1.692   7.943   8.096  0.5635  0.0335 -1.0533
  230MOL0     H30320   1.773   8.004   8.328  1.1899 -0.5636  2.5321
  230MOL0     H30321   1.814   7.827   8.348  0.1414  1.1799  0.8875
  230MOL0     H30322   1.576   8.118   8.247  0.7647 -2.8223 -0.8769
  230MOL0     H30323   1.357   8.218   8.216  0.8447 -2.0716 -3.4339
  230MOL0     H30324   0.981   8.355   8.075 -0.2224  0.0672  0.6918
  230MOL0     H30325   0.783   8.496   8.100  0.4073 -1.4490  0.1121
  230MOL0     H30326   0.572   8.438   8.192  0.3181 -0.5351 -0.9809
  230MOL0     H30327   0.488   8.579   8.262 -1.4611  0.2367  1.5633
  230MOL0     H30328   0.550   8.325   8.403  2.4286  3.3809  4.8558
  230MOL0     H30329   0.410   8.345   8.316  0.7947  1.0968 -0.6198
  230MOL0     H30330   0.469   8.563   8.527 -0.1782  0.8239 -1.9765
  230MOL0     H30331   0.442   8.414   8.599  0.1737 -0.0787 -0.4167
  230MOL0     H30332   0.248   8.533   8.388 -1.7586  2.6517  1.7981
  230MOL0     H30333   0.212   8.411   8.519 -2.1240  0.8457 -1.4985
  230MOL0     H30334   0.269   8.708   8.567 -0.8559 -0.7914 -2.5002
  230MOL0     H30335   0.286   8.591   8.688  1.0762  1.4183  1.0269
  230MOL0     H30336   0.057   8.633   8.702  0.2858 -0.0239  0.6798
  230MOL0     H30337   0.035   8.529   8.565  0.8525 -0.7961  1.6395
  230MOL0     H30338   0.039   8.840   8.596 -1.8910 -1.1538  1.2693
  230MOL0     H30339   0.046   8.774   8.435 -2.1571 -0.2415 -1.0951
  230MOL0     H30340  -0.149   8.672   8.640 -3.2396 -0.1856 -1.0492
  230MOL0     H30341  -0.151   8.630   8.480  0.2083  1.3285 -2.2108
  230MOL0     H30342   0.800   8.458   8.516  2.2144  1.2822  1.2727
  230MOL0     H30343   1.013   8.344   8.507 -0.0043 -1.1667 -0.0068
  230MOL0     H30344   1.186   7.887   8.451  1.3939 -1.9196 -0.0417
  230MOL0     H30345   1.411   7.779   8.458 -1.4453 -0.2174  1.3022
  230MOL0     H30346   0.964   6.401   8.489 -1.2428 -0.6731 -0.4465
  230MOL0     H30347   0.716   6.334   8.528  1.2752  0.2627  1.0158
  230MOL0     H30348   0.338   6.370   8.303 -0.5537  1.4149 -0.4659
  230MOL0     H30349   0.126   6.264   8.273 -1.0062 -0.1654  1.2152
  230MOL0     H30350  -0.157   6.290   8.617  2.3646  2.1358  0.3580
  230MOL0     H30351  -0.270   6.262   8.476  0.5147  0.9317 -2.2737
  230MOL0     H30352  -0.337   6.448   8.606 -0.4756 -0.4123 -0.2047
  230MOL0     H30353  -0.197   6.540   8.571 -1.0687 -0.1958  3.0947
  230MOL0     H30354  -0.415   6.570   8.424 -1.1403 -0.1755  0.7214
  230MOL0     H30355  -0.380   6.415   8.352 -0.7231 -0.8711  0.7886
  230MOL0     H30356  -0.173   6.488   8.254 -2.8119 -1.3706 -0.9043
  230MOL0     H30357  -0.315   6.606   8.236  0.8639  0.9763  0.7635
  230MOL0     H30358  -0.060   6.867   8.400 -0.0853 -0.6106  0.2702
  230MOL0     H30359   0.006   6.471   8.636  0.7521 -0.0291  0.9951
  230MOL0     H30360   0.199   6.589   8.650 -0.7988  0.7171  0.0541
  231MOL0     O30361   3.397   3.639   0.635  0.5442  0.2530  0.6499
  231MOL0     C30362   3.505   3.578   0.637  0.4152 -0.3994 -0.1236
  231MOL0     O30363   3.556   3.502   0.537 -0.2164  0.1631 -0.0958
  231MOL0     C30364   3.485   3.474   0.424  0.6366  0.3151 -0.3412
  231MOL0     C30365   3.508   3.348   0.371 -0.2634  0.5347 -0.5633
  231MOL0     C30366   3.444   3.303   0.262 -0.2538 -0.0524 -0.2197
  231MOL0     C30367   3.354   3.380   0.192 -0.8881  0.4653 -0.1323
  231MOL0     O30368   3.280   3.341   0.082  0.8896  0.1901  0.3209
  231MOL0     C30369   3.253   3.204   0.064 -0.3099 -0.3277  0.0589
  231MOL0     C30370   3.117   3.193  -0.001  0.6021 -0.5181  0.3251
  231MOL0     C30371   3.005   3.227   0.097  0.2556 -0.2551  0.2443
  231MOL0     C30372   2.875   3.261   0.021  0.3921 -0.2876 -0.6257
  231MOL0     C30373   2.772   3.311   0.126  0.4904 -0.0553 -0.0248
  231MOL0     C30374   2.639   3.323   0.060 -0.6848 -0.4092 -0.0516
  231MOL0     C30375   2.531   3.396   0.149 -0.2618 -0.0010  0.8522
  231MOL0     C30376   2.396   3.370   0.088  0.2079  0.9282  0.3387
  231MOL0     N30377   2.296   3.452   0.148  0.9533  0.1584 -0.6512
  231MOL0     C30378   2.201   3.518   0.074 -0.7560  0.1145 -0.3222
  231MOL0     C30379   2.110   3.559   0.171 -0.4143 -0.5901 -0.2266
  231MOL0     C30380   1.985   3.637   0.157  0.3393 -0.2376  0.5955
  231MOL0     C30381   1.878   3.588   0.249  0.4213 -0.1281  0.1929
  231MOL0     C30382   1.749   3.665   0.239  0.2171  0.9963  0.1188
  231MOL0     C30383   1.643   3.602   0.324  0.9003 -0.6246 -0.5533
  231MOL0     O30384   1.553   3.700   0.382 -0.6263 -0.0586  0.2364
  231MOL0     C30385   1.429   3.665   0.427  0.5418 -0.3791  0.1070
  231MOL0     C30386   1.347   3.776   0.435  0.1300  0.3187 -0.1286
  231MOL0     C30387   1.214   3.764   0.482  0.0189 -0.8180  0.0980
  231MOL0     C30388   1.174   3.637   0.530 -0.2757 -0.7292 -0.2640
  231MOL0     C30389   1.042   3.625   0.583 -0.0764  0.2430  0.7635
  231MOL0     O30390   0.948   3.715   0.566 -0.1281  0.0164  0.0673
  231MOL0     C30391   0.821   3.678   0.592  0.8888 -0.2165  0.2646
  231MOL0     C30392   0.749   3.655   0.467  0.2955 -1.0245  0.3267
  231MOL0     C30393   0.609   3.631   0.466 -0.3356  0.1468 -0.4563
  231MOL0     C30394   0.543   3.613   0.590 -0.4077  0.0401 -0.8750
  231MOL0     O30395   0.408   3.598   0.574  0.8991 -0.3040  0.7197
  231MOL0     C30396   0.341   3.549   0.689  0.5612 -0.1233  0.2691
  231MOL0     C30397   0.203   3.504   0.655  0.3764 -0.4201  0.5103
  231MOL0     C30398   0.102   3.485   0.778  0.2736 -1.0408 -0.1665
  231MOL0     C30399   0.030   3.612   0.815 -0.1304  0.0583  0.1742
  231MOL0     C30400  -0.070   3.585   0.927 -0.4295 -0.2177  0.2245
  231MOL0     C30401  -0.214   3.522   0.882 -1.0124  0.2775  0.8212
  231MOL0     C30402  -0.317   3.627   0.843 -0.5044 -0.4071  0.4701
  231MOL0     C30403  -0.447   3.563   0.793 -0.3779  0.3474 -0.2654
  231MOL0    Cl30404  -0.563   3.695   0.752  0.1590  0.2710 -0.2688
  231MOL0     C30405   0.618   3.614   0.717 -0.3481  0.8463  0.3153
  231MOL0     C30406   0.755   3.643   0.714  0.5998  0.5755  0.4434
  231MOL0     O30407   1.023   3.515   0.633 -0.2678  0.3600 -0.2711
  231MOL0     C30408   1.260   3.518   0.516  0.2383 -0.6849  0.2450
  231MOL0     C30409   1.387   3.535   0.461  0.9048 -0.2165 -0.0158
  231MOL0     N30410   2.160   3.527   0.297 -0.5456  0.4812  0.0624
  231MOL0     N30411   2.259   3.456   0.278 -0.5096 -0.4591 -0.3756
  231MOL0     C30412   3.329   3.508   0.245  0.3243 -0.1025  0.0550
  231MOL0     C30413   3.401   3.553   0.357  0.3028  0.3137  0.1241
  231MOL0     C30414   3.584   3.600   0.755  0.2273  0.0839 -0.2844
  231MOL0     C30415   3.712   3.540   0.777  0.4645 -0.5622 -0.0516
  231MOL0     C30416   3.796   3.563   0.890 -0.4531 -0.0090  0.0988
  231MOL0     C30417   3.757   3.659   0.979  1.3567 -0.5389 -0.4405
  231MOL0     O30418   3.823   3.718   1.080  0.4868  1.6482 -0.3649
  231MOL0     C30419   3.943   3.657   1.118  0.7303 -0.1797  0.1871
  231MOL0     C30420   3.994   3.716   1.256  0.7425  0.5126  0.6960
  231MOL0     C30421   4.148   3.716   1.270  0.3047  0.2031 -0.4294
  231MOL0     C30422   4.196   3.564   1.265 -0.1132  0.1748 -0.2529
  231MOL0     C30423   4.336   3.559   1.302 -0.5631 -0.6644 -0.4366
  231MOL0     C30424   4.453   3.575   1.321  0.3133  1.0016  0.1484
  231MOL0     C30425   3.631   3.723   0.966 -0.6854  0.1477 -0.6921
  231MOL0     C30426   3.543   3.685   0.861  0.1137 -0.0708  0.4407
  231MOL0     H30427   3.585   3.284   0.413  0.1302  1.5650  0.3325
  231MOL0     H30428   3.472   3.206   0.221  0.3832  1.0744 -2.6072
  231MOL0     H30429   3.253   3.157   0.163  1.5054  0.7454  0.6292
  231MOL0     H30430   3.330   3.153   0.005  1.6437  0.1903  2.0050
  231MOL0     H30431   3.115   3.088  -0.033 -0.8650  0.0570 -1.5729
  231MOL0     H30432   3.106   3.255  -0.090 -2.0705 -1.7450 -0.2831
  231MOL0     H30433   3.030   3.304   0.170  0.1703  0.9140 -0.9002
  231MOL0     H30434   2.981   3.136   0.152 -4.4301  0.4465 -0.2153
  231MOL0     H30435   2.877   3.346  -0.047 -2.0298 -0.5143 -1.0793
  231MOL0     H30436   2.845   3.176  -0.040 -0.3762 -0.4609 -0.0274
  231MOL0     H30437   2.797   3.412   0.162 -3.4175  0.8030  0.8048
  231MOL0     H30438   2.769   3.248   0.215  3.7214 -1.6565 -0.9307
  231MOL0     H30439   2.600   3.226   0.028  0.7044 -0.5635 -1.3811
  231MOL0     H30440   2.647   3.384  -0.031 -1.0416  0.2612  0.3486
  231MOL0     H30441   2.529   3.349   0.248  1.5568 -0.7579  0.5661
  231MOL0     H30442   2.545   3.504   0.144  1.0885  0.0286  3.5080
  231MOL0     H30443   2.384   3.265   0.118  2.2363 -0.3575 -2.8338
  231MOL0     H30444   2.391   3.379  -0.021  0.3299  2.3543  0.4412
  231MOL0     H30445   2.201   3.539  -0.033 -1.5564  2.1134  0.0241
  231MOL0     H30446   1.953   3.631   0.052 -0.9657  1.0363  0.8911
  231MOL0     H30447   2.013   3.738   0.188 -0.8368  0.3117 -0.0621
  231MOL0     H30448   1.909   3.589   0.353  2.4970  3.5580 -0.2741
  231MOL0     H30449   1.860   3.482   0.228 -1.4452 -0.1581  1.6694
  231MOL0     H30450   1.769   3.769   0.266 -1.7532  1.3989  0.1739
  231MOL0     H30451   1.708   3.674   0.138  1.8097  1.7836 -0.5011
  231MOL0     H30452   1.693   3.541   0.400  1.1228 -0.9834 -0.9811
  231MOL0     H30453   1.577   3.553   0.251  2.2188 -0.2338 -2.0759
  231MOL0     H30454   1.390   3.869   0.400  3.4401 -0.7524  0.6958
  231MOL0     H30455   1.149   3.850   0.494  1.6941  0.3114  1.8026
  231MOL0     H30456   0.797   3.678   0.372 -2.7516  2.1220 -0.6319
  231MOL0     H30457   0.549   3.613   0.378  0.5440 -1.0479 -0.8245
  231MOL0     H30458   0.326   3.621   0.770 -1.1452  0.3033 -0.3928
  231MOL0     H30459   0.394   3.463   0.731  0.2363 -0.2289  0.4697
  231MOL0     H30460   0.215   3.413   0.596  0.1998 -0.6481  0.8192
  231MOL0     H30461   0.159   3.569   0.578 -0.6737 -2.1767 -0.4373
  231MOL0     H30462   0.150   3.433   0.861 -1.6023  0.0185  1.6653
  231MOL0     H30463   0.018   3.418   0.754 -1.4008  1.6283 -2.3877
  231MOL0     H30464   0.086   3.701   0.848 -0.6659  1.3179 -2.0781
  231MOL0     H30465  -0.029   3.642   0.728 -2.2824 -1.9982  0.8557
  231MOL0     H30466  -0.105   3.681   0.966 -4.9596 -0.7032 -2.0010
  231MOL0     H30467  -0.032   3.526   1.012 -2.6811  0.5531  1.8723
  231MOL0     H30468  -0.253   3.453   0.957 -0.0872 -0.8796  0.2559
  231MOL0     H30469  -0.196   3.466   0.790  3.5609  2.3483  0.1832
  231MOL0     H30470  -0.328   3.697   0.926 -0.6130  0.0148  0.1027
  231MOL0     H30471  -0.265   3.682   0.764 -3.2574  1.8650  0.0866
  231MOL0     H30472  -0.487   3.491   0.865  0.3851 -1.6199 -1.7030
  231MOL0     H30473  -0.429   3.509   0.699  0.1333  2.3792 -1.3923
  231MOL0     H30474   0.571   3.591   0.812  0.1703  1.0365  0.6246
  231MOL0     H30475   0.803   3.637   0.811 -0.5575  0.5919  1.0187
  231MOL0     H30476   1.226   3.422   0.554  1.4524 -1.0087  0.5568
  231MOL0     H30477   1.458   3.455   0.444 -0.0171 -0.6866 -1.8755
  231MOL0     H30478   3.252   3.559   0.189 -0.9722 -3.6832 -1.7306
  231MOL0     H30479   3.388   3.654   0.394  0.0377 -0.6205  2.8446
  231MOL0     H30480   3.755   3.486   0.693 -0.9270  0.7362 -1.6818
  231MOL0     H30481   3.887   3.505   0.887 -0.5793 -0.2238  0.3631
  231MOL0     H30482   4.026   3.682   1.051 -0.3077  1.1683 -0.6523
  231MOL0     H30483   3.919   3.551   1.129 -0.8952  0.0980 -0.3437
  231MOL0     H30484   3.962   3.820   1.264 -0.2951  0.5925 -2.7579
  231MOL0     H30485   3.950   3.662   1.340  1.3062 -0.5531  0.3330
  231MOL0     H30486   4.174   3.766   1.363 -1.3117 -0.5537  0.4814
  231MOL0     H30487   4.176   3.772   1.181 -0.5421  0.3868 -0.5954
  231MOL0     H30488   4.143   3.503   1.338  3.9901 -3.6031 -0.0865
  231MOL0     H30489   4.182   3.516   1.167 -2.5663  2.0505 -0.9359
  231MOL0     H30490   4.552   3.583   1.360  1.0786 -1.8666 -0.9076
  231MOL0     H30491   3.584   3.787   1.040  2.1807 -1.2037  2.6263
  231MOL0     H30492   3.443   3.726   0.862  0.3675  1.0542 -3.1983
  232MOL0     O30493   8.481   2.298   8.994  0.9153 -0.0505  0.5113
  232MOL0     C30494   8.504   2.197   8.924  0.6433 -0.1133 -0.9341
  232MOL0     O30495   8.424   2.095   8.910  0.1948 -0.1283  0.5521
  232MOL0     C30496   8.312   2.076   8.990 -0.1170  0.1786 -0.3431
  232MOL0     C30497   8.291   1.956   9.054  0.0217  0.3030 -0.5193
  232MOL0     C30498   8.172   1.937   9.132  0.6674 -1.0277  0.2629
  232MOL0     C30499   8.075   2.028   9.128 -0.7849  0.7653 -0.2064
  232MOL0     O30500   7.953   2.015   9.190 -0.2080 -0.8179 -0.5663
  232MOL0     C30501   7.934   1.911   9.296  0.3531 -0.0125  0.8551
  232MOL0     C30502   7.795   1.917   9.365 -0.0047  0.5963 -0.0117
  232MOL0     C30503   7.682   1.958   9.266  0.8954  0.3703  0.5983
  232MOL0     C30504   7.554   1.907   9.329  1.1194 -1.4893  0.1968
  232MOL0     C30505   7.428   1.950   9.251  0.2238 -0.1268 -0.0471
  232MOL0     C30506   7.295   1.910   9.327 -0.2875  0.7270  0.8242
  232MOL0     C30507   7.284   1.948   9.472  0.0372 -0.1002  0.7286
  232MOL0     C30508   7.282   2.103   9.479  0.3033 -0.2720  0.0471
  232MOL0     N30509   7.251   2.142   9.621  0.6355  0.5028 -0.1798
  232MOL0     C30510   7.346   2.176   9.720 -0.1799 -0.4827  0.9818
  232MOL0     C30511   7.273   2.207   9.829 -0.0538 -0.0926 -0.4435
  232MOL0     C30512   7.333   2.235   9.965  0.0214 -0.5821  0.3144
  232MOL0     C30513   7.333   2.386   9.983  0.1308 -0.0927 -0.2404
  232MOL0     C30514   7.190   2.437  10.003 -0.2818 -0.9889  0.2313
  232MOL0     C30515   7.201   2.588  10.031  0.2666 -0.4367 -0.2319
  232MOL0     O30516   7.084   2.638  10.104  0.5565  0.1348 -0.1455
  232MOL0     C30517   6.956   2.635  10.034 -0.5905 -1.0375 -0.7322
  232MOL0     C30518   6.928   2.628   9.896  0.0065 -0.8559  0.1061
  232MOL0     C30519   6.802   2.627   9.844 -0.6202  0.0443  0.1168
  232MOL0     C30520   6.691   2.648   9.921 -0.1048  0.4164  0.8469
  232MOL0     C30521   6.558   2.643   9.861  0.0664  0.8841  0.3757
  232MOL0     O30522   6.551   2.616   9.726  0.1156  0.3264 -0.3333
  232MOL0     C30523   6.426   2.640   9.669  0.3526  0.4581  0.4329
  232MOL0     C30524   6.332   2.542   9.624 -0.4093  0.1818  0.2026
  232MOL0     C30525   6.216   2.573   9.563 -0.3421 -0.1965 -0.4273
  232MOL0     C30526   6.177   2.709   9.555  0.4863 -0.4898  0.1113
  232MOL0     O30527   6.040   2.729   9.518  0.0891 -0.0541  0.3707
  232MOL0     C30528   5.997   2.858   9.490  0.3479 -0.1924  0.6016
  232MOL0     C30529   5.863   2.854   9.419  1.2293 -0.1306 -0.4414
  232MOL0     C30530   5.757   2.798   9.519 -0.0528 -0.7743 -0.1613
  232MOL0     C30531   5.613   2.793   9.464 -0.9875 -0.3797  0.5202
  232MOL0     C30532   5.510   2.756   9.581 -0.0774 -0.6832  0.0520
  232MOL0     C30533   5.368   2.753   9.515 -0.0907 -0.3021  0.8347
  232MOL0     C30534   5.254   2.708   9.611  0.1340 -0.2960 -0.0840
  232MOL0     C30535   5.250   2.774   9.756 -0.3240  0.6812  1.1171
  232MOL0    Cl30536   5.091   2.737   9.830  0.0711 -0.3278  0.7051
  232MOL0     C30537   6.265   2.809   9.596 -0.2376  0.4282 -0.5488
  232MOL0     C30538   6.390   2.774   9.649  0.3337  0.0952 -0.4240
  232MOL0     O30539   6.467   2.694   9.928  0.2985 -0.1855 -0.6754
  232MOL0     C30540   6.702   2.675  10.059  0.3956  0.0963  0.7124
  232MOL0     C30541   6.834   2.668  10.112  0.3492 -0.0117 -0.4841
  232MOL0     N30542   7.138   2.195   9.801 -0.0030 -0.6523  0.5084
  232MOL0     N30543   7.134   2.148   9.680  0.5353  0.2820 -0.3361
  232MOL0     C30544   8.100   2.151   9.060  0.7908 -0.0583  0.9313
  232MOL0     C30545   8.222   2.175   8.998 -0.9349  0.9966  0.1034
  232MOL0     C30546   8.638   2.188   8.869 -0.5138  0.1198 -0.5465
  232MOL0     C30547   8.662   2.105   8.762  0.5819  0.3143  0.1139
  232MOL0     C30548   8.790   2.078   8.711 -0.7329  0.7766  0.4085
  232MOL0     C30549   8.899   2.160   8.746  0.7864 -0.4038 -0.8242
  232MOL0     O30550   9.027   2.154   8.693  0.2164  0.7390 -0.4758
  232MOL0     C30551   9.052   2.044   8.606  0.4249  0.8103 -0.2154
  232MOL0     C30552   9.181   2.092   8.546  0.6807  0.5259 -0.2402
  232MOL0     C30553   9.256   1.970   8.503 -0.2295  0.3777  0.3009
  232MOL0     C30554   9.384   1.996   8.419  0.6529  0.2685  0.1511
  232MOL0     C30555   9.494   2.056   8.504  1.1378 -0.2133  0.2050
  232MOL0     C30556   9.579   2.116   8.569 -0.4641  0.1165 -0.0900
  232MOL0     C30557   8.878   2.250   8.846  0.9267  0.5487 -0.6885
  232MOL0     C30558   8.750   2.269   8.909 -0.6150 -0.2251 -0.3052
  232MOL0     H30559   8.368   1.880   9.053 -0.1476  0.1043  0.3205
  232MOL0     H30560   8.149   1.850   9.192 -1.4211 -0.4609  0.3651
  232MOL0     H30561   8.010   1.898   9.374 -1.6967  0.2866  3.0116
  232MOL0     H30562   7.925   1.822   9.233 -2.2311 -0.5080  1.7877
  232MOL0     H30563   7.791   1.991   9.445  0.8855  1.7807 -1.0246
  232MOL0     H30564   7.770   1.818   9.404 -0.7678  0.6948 -0.2391
  232MOL0     H30565   7.697   1.916   9.166  0.8149 -1.3745  1.2785
  232MOL0     H30566   7.670   2.067   9.270  1.4425  0.6271 -2.5305
  232MOL0     H30567   7.555   1.798   9.332  0.4816 -1.5660 -1.4943
  232MOL0     H30568   7.549   1.949   9.430 -2.1425 -0.6820 -0.2125
  232MOL0     H30569   7.430   1.918   9.146 -1.5490 -1.8445  0.3840
  232MOL0     H30570   7.415   2.058   9.239 -3.2671 -0.4898 -0.5671
  232MOL0     H30571   7.281   1.802   9.316 -1.3427  1.0722 -2.3807
  232MOL0     H30572   7.206   1.947   9.275 -1.2151 -3.6982 -1.1839
  232MOL0     H30573   7.186   1.913   9.502  0.9117 -0.3173  3.5929
  232MOL0     H30574   7.354   1.901   9.541 -1.4500 -0.8513  1.7715
  232MOL0     H30575   7.210   2.146   9.409  2.7591  0.7950 -1.9416
  232MOL0     H30576   7.380   2.144   9.457  1.6257 -4.0737 -2.1292
  232MOL0     H30577   7.454   2.185   9.711  0.0991 -0.9767  3.1980
  232MOL0     H30578   7.431   2.188   9.978 -0.1280 -0.3715  2.4334
  232MOL0     H30579   7.270   2.190  10.042  0.9288 -0.3352  1.2198
  232MOL0     H30580   7.376   2.451   9.907 -0.4233  1.0556  0.4082
  232MOL0     H30581   7.393   2.403  10.073 -0.0017  0.7835 -0.3099
  232MOL0     H30582   7.125   2.411   9.919 -0.8911 -0.1998  0.4567
  232MOL0     H30583   7.154   2.394  10.097 -0.4553  0.9993  1.1079
  232MOL0     H30584   7.211   2.645   9.938 -0.3412  2.1405  1.1719
  232MOL0     H30585   7.291   2.608  10.091  1.6493  0.1903 -2.4054
  232MOL0     H30586   7.009   2.619   9.823  2.9843  1.2864  2.8512
  232MOL0     H30587   6.786   2.601   9.740 -1.4533 -1.6089  0.6166
  232MOL0     H30588   6.360   2.438   9.637 -1.6449 -0.2458 -0.4302
  232MOL0     H30589   6.139   2.501   9.540 -1.3613  0.1830  1.5846
  232MOL0     H30590   6.068   2.911   9.425 -0.4489 -0.8411 -0.8640
  232MOL0     H30591   5.986   2.918   9.581 -0.4067 -2.3058  1.9658
  232MOL0     H30592   5.875   2.791   9.330 -1.0524 -2.2756  0.6412
  232MOL0     H30593   5.835   2.957   9.395  0.8817  0.0716  0.7866
  232MOL0     H30594   5.758   2.860   9.610 -1.6958  0.3870 -0.8857
  232MOL0     H30595   5.786   2.695   9.540  2.7291 -0.0242  0.1957
  232MOL0     H30596   5.594   2.894   9.428 -0.6650  0.7805  3.3113
  232MOL0     H30597   5.592   2.722   9.384 -0.0585  0.6912 -0.6921
  232MOL0     H30598   5.513   2.836   9.655 -0.7312 -0.6506  0.0451
  232MOL0     H30599   5.553   2.661   9.614  0.3702 -0.5822 -0.2327
  232MOL0     H30600   5.369   2.690   9.426 -0.3258  1.4978 -0.4902
  232MOL0     H30601   5.343   2.853   9.478 -2.5081 -0.7776  1.0123
  232MOL0     H30602   5.160   2.739   9.564  0.1107 -0.6911 -0.2983
  232MOL0     H30603   5.253   2.599   9.618  0.7696 -0.2268  1.4561
  232MOL0     H30604   5.277   2.878   9.733  2.6147 -0.3419 -0.6142
  232MOL0     H30605   5.333   2.739   9.818  1.8133  1.1544 -1.3228
  232MOL0     H30606   6.234   2.913   9.593 -0.5465  0.3371 -0.6025
  232MOL0     H30607   6.465   2.848   9.676 -0.0004 -0.1876  1.3789
  232MOL0     H30608   6.615   2.684  10.124 -1.8217  1.3035 -2.2127
  232MOL0     H30609   6.840   2.698  10.216 -0.8364  0.8004 -0.6341
  232MOL0     H30610   8.013   2.215   9.059  1.0450  0.3203  1.7354
  232MOL0     H30611   8.232   2.276   8.958  0.4833  0.1706 -1.7516
  232MOL0     H30612   8.579   2.042   8.731  0.2382  1.6231 -1.7787
  232MOL0     H30613   8.805   1.999   8.639 -0.8194  1.3175 -0.2150
  232MOL0     H30614   8.977   2.025   8.528 -0.6581  2.4709  0.3695
  232MOL0     H30615   9.060   1.947   8.657  1.9888  0.5691 -0.8624
  232MOL0     H30616   9.148   2.168   8.474 -1.1378  1.8995  1.9254
  232MOL0     H30617   9.248   2.152   8.608  0.1947  1.3979 -0.5402
  232MOL0     H30618   9.189   1.912   8.439 -0.7674  2.0417 -0.7021
  232MOL0     H30619   9.282   1.906   8.589  0.3085  0.8537  0.4969
  232MOL0     H30620   9.411   1.900   8.375  0.2022  0.8790 -1.5231
  232MOL0     H30621   9.370   2.055   8.328 -1.4548  0.7512  0.7337
  232MOL0     H30622   9.669   2.158   8.609  1.5460 -0.2784 -3.6918
  232MOL0     H30623   8.965   2.306   8.881  0.0570  1.5531 -0.0870
  232MOL0     H30624   8.749   2.347   8.984 -0.6319 -0.6039  0.0977
  233MOL0     O30625   2.307   0.977   2.218 -0.1715 -0.1711  0.0119
  233MOL0     C30626   2.343   1.043   2.314 -0.1525  0.2792 -0.0061
  233MOL0     O30627   2.256   1.076   2.413  0.2936 -0.2599 -0.1051
  233MOL0     C30628   2.125   1.103   2.389 -0.5458  0.1798  1.3933
  233MOL0     C30629   2.030   1.002   2.352  0.1826  0.3576  0.8895
  233MOL0     C30630   1.897   1.039   2.314 -0.7463  0.5495  0.2329
  233MOL0     C30631   1.859   1.172   2.327  0.3393  0.4139 -0.2716
  233MOL0     O30632   1.734   1.221   2.290  0.5223  0.0932  0.7527
  233MOL0     C30633   1.634   1.120   2.232 -0.4251  0.2200  0.2972
  233MOL0     C30634   1.524   1.228   2.195 -0.4538  0.2442 -0.1428
  233MOL0     C30635   1.391   1.170   2.158 -0.4909  0.1394  0.1359
  233MOL0     C30636   1.293   1.291   2.130 -0.4624  0.3433 -0.3812
  233MOL0     C30637   1.167   1.257   2.070  0.5352 -0.0152 -0.2568
  233MOL0     C30638   1.065   1.191   2.166  0.3097  0.1981 -0.4322
  233MOL0     C30639   1.038   1.269   2.289  0.3545  0.2003 -0.8087
  233MOL0     C30640   1.018   1.417   2.257 -1.6288 -0.2457 -0.8393
  233MOL0     N30641   0.910   1.447   2.175  0.8940 -0.1222  0.2497
  233MOL0     C30642   0.901   1.559   2.103  0.6380 -1.2734 -0.2336
  233MOL0     C30643   0.784   1.550   2.032 -0.2256  0.0973  0.1489
  233MOL0     C30644   0.740   1.640   1.916 -0.1460 -0.7667 -0.1854
  233MOL0     C30645   0.627   1.729   1.939  0.0268  0.5275  0.1479
  233MOL0     C30646   0.501   1.662   1.948 -0.1873  0.3743 -0.1877
  233MOL0     C30647   0.386   1.752   1.995  0.4545 -0.0090  0.2145
  233MOL0     O30648   0.266   1.682   2.009  0.3767 -0.0727  0.1784
  233MOL0     C30649   0.145   1.750   2.042  0.3388  0.0914 -0.3509
  233MOL0     C30650   0.138   1.890   2.080 -0.6104 -0.5795 -0.0258
  233MOL0     C30651   0.011   1.946   2.102 -0.9668 -1.1032  0.0616
  233MOL0     C30652  -0.106   1.873   2.105  0.2192 -0.0374 -0.7432
  233MOL0     C30653  -0.238   1.938   2.146  0.9986  0.8858  0.9833
  233MOL0     O30654  -0.236   2.075   2.156  0.0446  0.3516 -0.2545
  233MOL0     C30655  -0.353   2.131   2.205  0.1425 -0.1226 -0.3613
  233MOL0     C30656  -0.352   2.189   2.332  0.3989 -0.2704 -0.0337
  233MOL0     C30657  -0.465   2.260   2.378 -0.4217  0.7678  0.1877
  233MOL0     C30658  -0.579   2.260   2.310  0.8541 -0.0067  0.2727
  233MOL0     O30659  -0.689   2.329   2.358  0.1491 -0.0390  0.0304
  233MOL0     C30660  -0.819   2.293   2.309  0.2696  0.5925 -0.5466
  233MOL0     C30661  -0.901   2.289   2.435  0.6058 -0.3139 -0.5383
  233MOL0     C30662  -0.983   2.409   2.458  0.7129 -0.0932  1.1848
  233MOL0     C30663  -1.092   2.382   2.567  0.2818 -0.6860  0.8249
  233MOL0     C30664  -1.184   2.503   2.599 -0.7106 -0.2759  0.1852
  233MOL0     C30665  -1.261   2.452   2.723  0.2865 -0.5324 -0.2473
  233MOL0     C30666  -1.383   2.553   2.753 -0.7266  0.3868  0.4054
  233MOL0     C30667  -1.481   2.474   2.844 -0.3691 -0.2986 -0.6152
  233MOL0    Cl30668  -1.572   2.369   2.726 -0.0631  0.2665  1.0719
  233MOL0     C30669  -0.585   2.209   2.175  0.4265  0.4755  0.1990
  233MOL0     C30670  -0.467   2.142   2.125 -0.2660  0.3837  0.6718
  233MOL0     O30671  -0.335   1.866   2.153  0.5573  0.6204  0.3630
  233MOL0     C30672  -0.101   1.739   2.062  0.1154 -0.4308  0.1282
  233MOL0     C30673   0.021   1.679   2.037  0.0455  0.2057 -0.8024
  233MOL0     N30674   0.723   1.433   2.078  0.2522 -0.2136  0.9219
  233MOL0     N30675   0.793   1.368   2.159 -0.0578  0.0276 -0.9882
  233MOL0     C30676   1.955   1.267   2.371  0.6699 -0.1194  0.1539
  233MOL0     C30677   2.087   1.231   2.401 -0.0958  0.1092 -0.4809
  233MOL0     C30678   2.484   1.075   2.332 -1.0409 -0.6720  0.9104
  233MOL0     C30679   2.578   1.050   2.235  0.9769 -0.6883 -0.5315
  233MOL0     C30680   2.710   1.094   2.258 -0.0632 -0.1644 -0.3783
  233MOL0     C30681   2.750   1.178   2.364 -1.2632  0.1526 -0.3137
  233MOL0     O30682   2.878   1.226   2.359  1.0421 -0.8149 -0.6627
  233MOL0     C30683   2.985   1.133   2.381 -0.4549  0.6051  0.0471
  233MOL0     C30684   3.013   1.113   2.533 -0.7231 -0.5608 -0.0043
  233MOL0     C30685   3.146   1.032   2.559  0.5570  1.3593 -0.3488
  233MOL0     C30686   3.160   1.000   2.708 -0.0015 -0.1765 -0.1051
  233MOL0     C30687   3.299   1.010   2.750  0.3335 -0.3804  0.6959
  233MOL0     C30688   3.422   1.013   2.781  0.9035  0.6630  0.1183
  233MOL0     C30689   2.660   1.196   2.460  0.1458 -0.0181  0.1639
  233MOL0     C30690   2.527   1.154   2.445  0.3317  0.5427  0.2401
  233MOL0     H30691   2.064   0.900   2.343  2.8204  0.9208  3.1011
  233MOL0     H30692   1.830   0.963   2.274  0.7721 -1.2184  0.9195
  233MOL0     H30693   1.604   1.043   2.303  1.8498 -0.3822  0.6882
  233MOL0     H30694   1.675   1.076   2.141  1.1549 -0.0278  1.0917
  233MOL0     H30695   1.562   1.281   2.107  1.1124  2.3193  1.6773
  233MOL0     H30696   1.515   1.295   2.281  1.5145 -0.5607  0.7520
  233MOL0     H30697   1.354   1.110   2.242 -1.7868 -0.9380 -1.1376
  233MOL0     H30698   1.397   1.105   2.070  0.1733  0.7294 -0.2556
  233MOL0     H30699   1.289   1.340   2.228  1.9841  0.1884 -0.1419
  233MOL0     H30700   1.339   1.372   2.072 -0.5049  0.9403  0.3979
  233MOL0     H30701   1.192   1.178   1.998  4.8410 -0.3831  1.3721
  233MOL0     H30702   1.130   1.346   2.019 -0.1900 -0.4074 -0.4337
  233MOL0     H30703   1.082   1.085   2.186 -0.6390 -0.6551 -3.4714
  233MOL0     H30704   0.968   1.195   2.115 -1.4165  1.3287  2.7101
  233MOL0     H30705   0.947   1.238   2.339 -0.2798  2.6283 -0.3439
  233MOL0     H30706   1.119   1.248   2.360 -1.5321 -0.3509  1.2547
  233MOL0     H30707   1.106   1.469   2.219 -1.1675 -0.1466  0.3408
  233MOL0     H30708   1.001   1.465   2.353  0.5012 -0.8855 -0.1000
  233MOL0     H30709   0.966   1.646   2.089 -0.4559 -0.6890 -1.9282
  233MOL0     H30710   0.721   1.588   1.822 -0.3545  0.9701 -1.1422
  233MOL0     H30711   0.829   1.700   1.897  0.4251 -1.3185  0.6770
  233MOL0     H30712   0.640   1.793   1.851  3.3465  1.3001  1.0528
  233MOL0     H30713   0.648   1.793   2.025  0.7715  0.8363 -0.2417
  233MOL0     H30714   0.476   1.614   1.853  0.6219  3.5029 -2.1300
  233MOL0     H30715   0.513   1.588   2.028  0.8198  2.1362  1.3670
  233MOL0     H30716   0.366   1.826   1.916 -3.1352  0.0177  0.9823
  233MOL0     H30717   0.406   1.816   2.081 -1.3159  1.5755 -0.4581
  233MOL0     H30718   0.224   1.954   2.098 -2.5092  1.7297  1.4086
  233MOL0     H30719   0.008   2.045   2.146  0.5050 -1.0465  0.0924
  233MOL0     H30720  -0.259   2.182   2.386 -0.6662  1.6034  2.2070
  233MOL0     H30721  -0.458   2.312   2.473 -0.2771  0.4614  0.3476
  233MOL0     H30722  -0.825   2.195   2.261 -0.1208  1.2325 -1.8492
  233MOL0     H30723  -0.864   2.373   2.249  1.4998  1.2438 -0.6353
  233MOL0     H30724  -0.837   2.276   2.523 -0.2662  3.6886  0.8861
  233MOL0     H30725  -0.974   2.209   2.423  0.0046 -0.0051  0.8661
  233MOL0     H30726  -1.053   2.431   2.377  0.5975  1.7561  1.7372
  233MOL0     H30727  -0.916   2.495   2.454 -0.1853  0.5854 -1.3763
  233MOL0     H30728  -1.151   2.299   2.527 -3.9195  2.1363  0.4792
  233MOL0     H30729  -1.047   2.348   2.661 -1.9572 -0.5470  2.0121
  233MOL0     H30730  -1.244   2.539   2.514  2.1331  1.5223 -1.1949
  233MOL0     H30731  -1.120   2.590   2.612  0.7770 -1.3102 -0.0104
  233MOL0     H30732  -1.202   2.442   2.815  0.5619 -2.7835 -0.6023
  233MOL0     H30733  -1.305   2.359   2.687 -0.0900 -0.5697  0.2939
  233MOL0     H30734  -1.339   2.643   2.797  0.8840  0.8084 -1.8848
  233MOL0     H30735  -1.434   2.581   2.660 -3.4168 -1.0609  1.3259
  233MOL0     H30736  -1.547   2.548   2.891 -0.5355 -1.8576  1.7379
  233MOL0     H30737  -1.437   2.414   2.923  0.9556 -1.7388 -2.3607
  233MOL0     H30738  -0.675   2.204   2.115 -0.1301 -3.4331  1.0763
  233MOL0     H30739  -0.470   2.108   2.022 -2.7583  0.5812  0.6214
  233MOL0     H30740  -0.195   1.685   2.070  0.4828 -0.9954  0.7843
  233MOL0     H30741   0.028   1.574   2.010 -1.1464 -0.0890 -0.0302
  233MOL0     H30742   1.923   1.369   2.388  0.8362 -0.3140  1.8347
  233MOL0     H30743   2.161   1.307   2.422  0.6680 -0.9637  0.7940
  233MOL0     H30744   2.549   0.987   2.152 -1.0751 -1.2892  0.5600
  233MOL0     H30745   2.772   1.090   2.170 -0.1366 -1.0826 -0.3980
  233MOL0     H30746   3.075   1.172   2.333  0.6103 -0.1357  1.3741
  233MOL0     H30747   2.974   1.039   2.327 -0.3214 -0.8681  2.4255
  233MOL0     H30748   3.016   1.213   2.577 -2.4442 -0.5694  0.1955
  233MOL0     H30749   2.929   1.062   2.581 -1.2804  0.3976  0.0520
  233MOL0     H30750   3.226   1.098   2.523  0.3084  0.9046 -1.7547
  233MOL0     H30751   3.145   0.936   2.508  1.4160  1.4074 -0.4800
  233MOL0     H30752   3.098   1.074   2.761  3.8278  2.6615  0.8617
  233MOL0     H30753   3.140   0.893   2.717  1.5436 -0.6808 -2.0293
  233MOL0     H30754   3.527   1.023   2.799  0.5211  1.4042  2.2439
  233MOL0     H30755   2.681   1.253   2.550 -1.2147  1.6545 -0.5137
  233MOL0     H30756   2.456   1.191   2.519 -0.5547  3.0612 -1.7364
  234MOL0     O30757   8.025   6.682  10.088 -0.2579 -0.6110 -0.3489
  234MOL0     C30758   8.000   6.644   9.976  1.2742 -0.1395  0.1243
  234MOL0     O30759   7.872   6.610   9.931 -0.8500  0.1177 -0.4156
  234MOL0     C30760   7.785   6.550  10.014  0.9583  0.3572 -0.9734
  234MOL0     C30761   7.789   6.415  10.015  0.3815  0.5682 -0.2615
  234MOL0     C30762   7.704   6.341  10.103  0.4497 -0.2974  0.4982
  234MOL0     C30763   7.615   6.410  10.195 -0.1076  0.2031 -0.0995
  234MOL0     O30764   7.541   6.340  10.286  0.5027  0.4131 -1.2995
  234MOL0     C30765   7.399   6.386  10.309 -0.7407  1.1260  0.7491
  234MOL0     C30766   7.297   6.301  10.231 -0.0948 -0.7173 -0.2643
  234MOL0     C30767   7.156   6.339  10.277  0.4592 -0.3181  0.0814
  234MOL0     C30768   7.054   6.269  10.195 -0.3546 -0.0502  0.3616
  234MOL0     C30769   6.922   6.264  10.258  0.2039  0.3623  0.5254
  234MOL0     C30770   6.902   6.155  10.361  0.5330 -0.7319  0.4553
  234MOL0     C30771   6.757   6.147  10.417 -0.1429 -0.0190 -0.4921
  234MOL0     C30772   6.734   6.113  10.561  0.1945  0.1089 -0.3291
  234MOL0     N30773   6.602   6.123  10.612 -0.1805 -0.8761 -0.0925
  234MOL0     C30774   6.546   6.241  10.645  0.2052 -0.3365 -0.0305
  234MOL0     C30775   6.414   6.219  10.644 -0.3825 -0.9590 -0.4628
  234MOL0     C30776   6.306   6.303  10.709  1.6783 -0.3464  0.5936
  234MOL0     C30777   6.198   6.344  10.612  0.0142 -0.1864  0.1291
  234MOL0     C30778   6.114   6.226  10.565  0.7325  0.3018  0.4245
  234MOL0     C30779   6.007   6.280  10.467 -1.1734  0.0537 -0.1809
  234MOL0     O30780   5.903   6.175  10.457 -0.2998  0.0879 -0.0317
  234MOL0     C30781   5.791   6.205  10.388  0.0772 -0.3855 -0.6413
  234MOL0     C30782   5.705   6.094  10.379  0.9435 -0.8811 -0.7853
  234MOL0     C30783   5.579   6.109  10.321  0.0385  0.3246 -0.0986
  234MOL0     C30784   5.538   6.233  10.277  0.1191  0.2900 -0.0878
  234MOL0     C30785   5.395   6.247  10.232 -0.0055  0.1729 -0.3289
  234MOL0     O30786   5.314   6.133  10.223 -0.8638 -0.0181 -0.9880
  234MOL0     C30787   5.178   6.162  10.214  0.0026  0.6238 -0.0023
  234MOL0     C30788   5.109   6.249  10.302 -0.1690 -0.5540 -0.3622
  234MOL0     C30789   4.972   6.277  10.282 -0.1856 -1.7849  1.6773
  234MOL0     C30790   4.901   6.218  10.177 -0.3242  0.1759  0.1394
  234MOL0     O30791   4.766   6.227  10.163 -0.7225  0.4834  0.0353
  234MOL0     C30792   4.734   6.368  10.168  0.0928 -0.2363  0.2190
  234MOL0     C30793   4.645   6.412  10.054  0.4450 -0.0209  0.4908
  234MOL0     C30794   4.561   6.544  10.084  0.3651  0.0637 -0.2432
  234MOL0     C30795   4.647   6.676  10.096 -0.4946  0.3003 -0.1628
  234MOL0     C30796   4.570   6.787  10.160  0.1278 -0.6396 -0.3182
  234MOL0     C30797   4.596   6.788  10.314 -0.4988 -1.1551 -0.0953
  234MOL0     C30798   4.510   6.886  10.392 -0.0521 -0.0545 -0.2077
  234MOL0     C30799   4.592   7.012  10.429  0.2318  0.6180  0.6233
  234MOL0    Cl30800   4.483   7.126  10.502  0.2237  0.2153  0.2331
  234MOL0     C30801   4.967   6.110  10.103 -0.1257  0.3556 -0.4381
  234MOL0     C30802   5.103   6.084  10.130  0.6307 -0.9466  0.3629
  234MOL0     O30803   5.361   6.361  10.210  0.3719  0.4340  0.7203
  234MOL0     C30804   5.624   6.344  10.296 -0.0122 -0.3176 -0.1969
  234MOL0     C30805   5.750   6.328  10.358  0.4057  0.9795 -0.6445
  234MOL0     N30806   6.398   6.091  10.606 -0.1385 -0.3581  0.6573
  234MOL0     N30807   6.505   6.037  10.590  1.0463  1.3009 -0.5520
  234MOL0     C30808   7.620   6.556  10.189  0.0144  0.2684  0.1473
  234MOL0     C30809   7.697   6.623  10.092  0.2033 -0.8919 -0.4413
  234MOL0     C30810   8.092   6.684   9.865 -0.2805 -0.6238  0.3912
  234MOL0     C30811   8.056   6.680   9.733  0.3696 -0.0928 -0.6605
  234MOL0     C30812   8.148   6.710   9.631 -0.0683 -0.5118 -0.6586
  234MOL0     C30813   8.276   6.761   9.663  0.0483  0.1148  0.0414
  234MOL0     O30814   8.362   6.791   9.561 -0.1536 -0.8141  0.2356
  234MOL0     C30815   8.318   6.802   9.426  0.0928  0.0287 -0.0869
  234MOL0     C30816   8.438   6.782   9.325  0.1492  0.2140 -0.6889
  234MOL0     C30817   8.515   6.646   9.342 -0.5342 -0.1175  0.2513
  234MOL0     C30818   8.632   6.635   9.245  0.0528 -0.2592 -0.3451
  234MOL0     C30819   8.747   6.695   9.304  0.2620  0.3404  0.2307
  234MOL0     C30820   8.855   6.746   9.335 -0.2523 -0.7330  0.4093
  234MOL0     C30821   8.312   6.774   9.794  0.0675  0.1115  0.5673
  234MOL0     C30822   8.218   6.734   9.894 -0.4756  0.7505  0.5981
  234MOL0     H30823   7.860   6.382   9.941 -0.0930  0.5904 -0.7315
  234MOL0     H30824   7.706   6.233  10.101 -3.2411 -0.5149  1.0478
  234MOL0     H30825   7.374   6.492  10.295  0.7300  1.4750  0.5680
  234MOL0     H30826   7.371   6.360  10.411 -0.8717 -0.7914  0.2564
  234MOL0     H30827   7.331   6.197  10.243  0.8799 -0.7275 -2.5707
  234MOL0     H30828   7.303   6.325  10.124  0.2008 -0.1632 -0.1251
  234MOL0     H30829   7.143   6.447  10.262  1.0869 -0.0924  1.0958
  234MOL0     H30830   7.150   6.321  10.385 -0.8878  1.4980  0.3542
  234MOL0     H30831   7.057   6.307  10.092 -2.2654  0.9388  0.6272
  234MOL0     H30832   7.073   6.163  10.179  0.5877  0.1693 -0.0869
  234MOL0     H30833   6.843   6.248  10.184 -0.0043  0.8938  0.6262
  234MOL0     H30834   6.897   6.358  10.308 -1.0548 -0.5003  1.6018
  234MOL0     H30835   6.972   6.164  10.445 -0.0596  0.2432  0.8581
  234MOL0     H30836   6.931   6.058  10.320  0.3029 -0.4407 -0.4055
  234MOL0     H30837   6.720   6.250  10.408  2.8420  1.2372  0.3844
  234MOL0     H30838   6.700   6.071  10.362 -0.4266 -0.3767  0.2953
  234MOL0     H30839   6.795   6.177  10.625 -2.2912 -1.1871  3.6927
  234MOL0     H30840   6.771   6.012  10.578 -1.1905 -0.7384 -2.0542
  234MOL0     H30841   6.598   6.328  10.683  2.9137 -2.4153  1.3617
  234MOL0     H30842   6.348   6.390  10.760  3.6499 -2.6628  3.2271
  234MOL0     H30843   6.259   6.244  10.788  0.0296 -3.4151 -2.3768
  234MOL0     H30844   6.238   6.383  10.518  0.8081 -1.9042 -0.2951
  234MOL0     H30845   6.133   6.419  10.658 -0.5511  1.3750 -2.9447
  234MOL0     H30846   6.176   6.162  10.501  2.5499  3.0174 -0.7274
  234MOL0     H30847   6.068   6.168  10.645  0.1238  0.5586  0.2670
  234MOL0     H30848   6.045   6.298  10.366 -0.4847  0.0570  0.0723
  234MOL0     H30849   5.973   6.376  10.507 -0.6682 -1.2207  3.7467
  234MOL0     H30850   5.747   6.009  10.430 -0.5757  0.4155  2.9602
  234MOL0     H30851   5.515   6.022  10.335  2.0675 -1.4158 -1.1999
  234MOL0     H30852   5.163   6.290  10.387 -0.9430  3.9036 -1.7733
  234MOL0     H30853   4.936   6.351  10.352  2.0218  2.5529 -1.3481
  234MOL0     H30854   4.819   6.437  10.160 -1.5510  1.7651 -0.9520
  234MOL0     H30855   4.685   6.386  10.264 -2.1839 -0.7444 -0.7845
  234MOL0     H30856   4.570   6.334  10.039  1.1780 -0.2193 -3.1312
  234MOL0     H30857   4.701   6.426   9.961 -3.3803  2.7477 -1.6764
  234MOL0     H30858   4.504   6.522  10.174  1.8150  0.5202  0.8114
  234MOL0     H30859   4.482   6.558  10.009  0.0745 -0.6899 -0.0852
  234MOL0     H30860   4.741   6.665  10.150  0.5158 -0.2024 -1.9488
  234MOL0     H30861   4.684   6.716  10.001 -1.3980  0.9197 -0.2712
  234MOL0     H30862   4.464   6.772  10.135  0.3297  0.0611 -1.6953
  234MOL0     H30863   4.593   6.880  10.107  1.3775 -0.9617 -0.3658
  234MOL0     H30864   4.698   6.825  10.329 -1.2048  0.9661 -0.2357
  234MOL0     H30865   4.578   6.691  10.359 -1.3461  0.7035  4.0087
  234MOL0     H30866   4.423   6.909  10.331  1.4640 -0.8504 -2.8187
  234MOL0     H30867   4.479   6.833  10.483 -3.3535 -1.5603 -2.0296
  234MOL0     H30868   4.649   7.044  10.342  0.7807 -1.9090 -0.0234
  234MOL0     H30869   4.666   6.977  10.502  0.5388  2.5003  1.2705
  234MOL0     H30870   4.896   6.065  10.035 -1.7572  1.1892  0.6348
  234MOL0     H30871   5.139   6.005  10.065 -1.1088 -2.2057  0.8451
  234MOL0     H30872   5.586   6.437  10.256  0.2272  0.1248  0.5759
  234MOL0     H30873   5.819   6.410  10.374  0.6171  0.4457  1.4809
  234MOL0     H30874   7.551   6.613  10.250 -0.8980  0.5560 -1.1038
  234MOL0     H30875   7.691   6.730  10.079  0.3493 -0.7538  0.6033
  234MOL0     H30876   7.957   6.643   9.710  0.7969 -1.2429 -0.7058
  234MOL0     H30877   8.103   6.703   9.533 -2.0350 -0.2957  0.1878
  234MOL0     H30878   8.279   6.902   9.412 -0.5219  0.0388  1.4813
  234MOL0     H30879   8.243   6.727   9.401 -0.6476  0.9150 -0.5568
  234MOL0     H30880   8.399   6.789   9.223 -0.3679 -0.7720 -0.5617
  234MOL0     H30881   8.506   6.867   9.341  1.1087 -0.6997  0.2571
  234MOL0     H30882   8.442   6.566   9.323 -2.0818  0.8863  1.6504
  234MOL0     H30883   8.540   6.627   9.447 -4.3097  0.1197  1.3612
  234MOL0     H30884   8.660   6.530   9.227  2.1910 -0.1820  1.9879
  234MOL0     H30885   8.611   6.692   9.154  1.8938  2.9279  1.0793
  234MOL0     H30886   8.948   6.790   9.362  0.0703  2.7625 -4.9220
  234MOL0     H30887   8.415   6.801   9.817 -0.6760  3.6408  0.3707
  234MOL0     H30888   8.249   6.745   9.998 -0.1294  0.2167  0.5539
  235MOL0     O30889   4.953   1.466   6.031 -0.4140  0.3061 -0.1680
  235MOL0     C30890   5.043   1.555   6.038  0.2673  0.3121  0.7570
  235MOL0     O30891   5.031   1.676   5.983  0.0372  0.9526  0.0923
  235MOL0     C30892   4.911   1.714   5.924 -0.3640  0.4944  0.2374
  235MOL0     C30893   4.829   1.634   5.845 -0.8367  0.4972 -0.1650
  235MOL0     C30894   4.701   1.677   5.810  0.5034  0.8433  0.0331
  235MOL0     C30895   4.650   1.803   5.830 -0.6680 -1.0473  0.1494
  235MOL0     O30896   4.517   1.834   5.806 -0.1148 -1.0254 -0.4188
  235MOL0     C30897   4.441   1.914   5.904  0.4861  1.3954 -0.5372
  235MOL0     C30898   4.294   1.914   5.855  0.0405 -0.2289 -0.0310
  235MOL0     C30899   4.213   1.982   5.968  0.1905  0.1448  0.5280
  235MOL0     C30900   4.247   2.134   5.980  0.3903 -0.7181 -0.0310
  235MOL0     C30901   4.229   2.187   6.126 -0.1324  0.6004  0.2500
  235MOL0     C30902   4.255   2.334   6.133  0.1629  0.2577 -0.0726
  235MOL0     C30903   4.302   2.382   6.273  0.2078  0.3775  0.2343
  235MOL0     C30904   4.201   2.369   6.385  0.6129 -0.0021 -0.1485
  235MOL0     N30905   4.106   2.483   6.382 -0.1572  0.1858  0.1778
  235MOL0     C30906   3.989   2.494   6.318  0.5660 -0.5457 -0.0525
  235MOL0     C30907   3.920   2.604   6.355  0.0592  0.3198  0.0775
  235MOL0     C30908   3.787   2.657   6.315  0.8007  0.4144 -0.7185
  235MOL0     C30909   3.693   2.702   6.419 -0.8580 -0.1288 -0.0647
  235MOL0     C30910   3.631   2.606   6.513  0.5538  0.5086  0.0805
  235MOL0     C30911   3.647   2.637   6.661  0.2723  0.1486  0.1116
  235MOL0     O30912   3.592   2.539   6.743 -0.0397  0.1412 -0.4845
  235MOL0     C30913   3.459   2.546   6.764  0.9944  0.9504  0.3487
  235MOL0     C30914   3.388   2.660   6.787 -0.4437 -0.3667 -0.4429
  235MOL0     C30915   3.253   2.664   6.827 -0.4806  0.2762 -0.3985
  235MOL0     C30916   3.178   2.544   6.830 -0.3480 -0.6434 -0.0298
  235MOL0     C30917   3.034   2.543   6.856 -1.2761  0.5329  0.0065
  235MOL0     O30918   2.979   2.425   6.901 -0.1184 -0.4139  0.2055
  235MOL0     C30919   2.859   2.409   6.960 -0.1244 -0.6426  1.2521
  235MOL0     C30920   2.736   2.388   6.884  0.5855 -0.4222 -0.7114
  235MOL0     C30921   2.608   2.366   6.942 -0.1042  0.3844 -0.0498
  235MOL0     C30922   2.610   2.364   7.082  0.7560 -0.0527 -1.0847
  235MOL0     O30923   2.492   2.348   7.141 -0.0630  0.0221  0.5092
  235MOL0     C30924   2.412   2.466   7.176  0.4712  0.1347 -0.3583
  235MOL0     C30925   2.278   2.427   7.240 -0.9245 -0.6382  0.7764
  235MOL0     C30926   2.203   2.318   7.162 -0.1306  0.6033 -0.8274
  235MOL0     C30927   2.059   2.314   7.190 -0.2423  0.4666  0.1393
  235MOL0     C30928   2.034   2.268   7.327  0.3708  0.1892 -0.6177
  235MOL0     C30929   1.880   2.262   7.338 -0.6983  0.1408  0.2636
  235MOL0     C30930   1.815   2.401   7.378 -0.4781 -0.1105  0.6844
  235MOL0     C30931   1.667   2.383   7.390  0.2615  0.1509  0.0457
  235MOL0    Cl30932   1.587   2.506   7.487 -0.4680 -0.4454  0.5875
  235MOL0     C30933   2.724   2.390   7.161  0.1937 -0.2239 -0.8799
  235MOL0     C30934   2.846   2.402   7.099 -0.3434 -0.6025 -0.8614
  235MOL0     O30935   2.981   2.653   6.862  0.2843  0.6151 -0.0173
  235MOL0     C30936   3.243   2.425   6.805 -0.9338  0.3131  0.4074
  235MOL0     C30937   3.381   2.425   6.769 -0.6218 -0.0722 -1.5059
  235MOL0     N30938   4.013   2.677   6.429 -0.3995 -0.3340  0.3509
  235MOL0     N30939   4.123   2.606   6.443 -0.3194 -0.1656  0.2192
  235MOL0     C30940   4.744   1.898   5.885  0.5599  0.0997 -0.4241
  235MOL0     C30941   4.866   1.849   5.935 -0.5721  0.5143  0.1511
  235MOL0     C30942   5.173   1.542   6.099  0.3560  0.4628 -0.2099
  235MOL0     C30943   5.283   1.569   6.015 -0.3105 -0.2599  0.1293
  235MOL0     C30944   5.407   1.569   6.072 -0.4062  0.1040  0.3224
  235MOL0     C30945   5.430   1.512   6.202  0.0818  1.1495  0.5174
  235MOL0     O30946   5.554   1.489   6.250 -0.3173 -0.2767  0.0211
  235MOL0     C30947   5.668   1.528   6.173  0.4966  0.2363 -0.2751
  235MOL0     C30948   5.783   1.552   6.273  0.0465 -0.3747 -0.5213
  235MOL0     C30949   5.913   1.578   6.201  0.1273 -0.6381 -0.5314
  235MOL0     C30950   5.973   1.464   6.114 -0.3300 -1.0940  0.6771
  235MOL0     C30951   6.017   1.351   6.191 -0.6781  0.6501 -0.1024
  235MOL0     C30952   6.069   1.256   6.254 -0.2659 -0.3703 -0.9299
  235MOL0     C30953   5.318   1.482   6.280  0.2439  0.4851 -0.4917
  235MOL0     C30954   5.186   1.494   6.234 -0.9333  0.7180  0.6905
  235MOL0     H30955   4.847   1.529   5.822 -0.2673  0.8441 -1.4110
  235MOL0     H30956   4.641   1.603   5.758 -0.3649  0.4230  1.5834
  235MOL0     H30957   4.491   2.010   5.917  1.1272  0.8335  1.4446
  235MOL0     H30958   4.438   1.869   6.004 -3.2199  2.6930  0.1004
  235MOL0     H30959   4.256   1.814   5.835  0.4654 -0.2670 -0.6458
  235MOL0     H30960   4.281   1.974   5.765  0.4128  0.3093  0.2682
  235MOL0     H30961   4.242   1.932   6.061 -0.4508 -0.9188  0.1673
  235MOL0     H30962   4.106   1.965   5.960  0.1977  0.5916 -0.6694
  235MOL0     H30963   4.349   2.162   5.952  0.7874 -1.4536  0.6255
  235MOL0     H30964   4.180   2.188   5.913  2.2495 -0.1263 -1.5000
  235MOL0     H30965   4.294   2.130   6.193 -1.4709 -1.6610 -0.2686
  235MOL0     H30966   4.125   2.180   6.159  0.3983  0.7303  2.0958
  235MOL0     H30967   4.171   2.388   6.089  2.0159  2.6011 -0.9764
  235MOL0     H30968   4.341   2.353   6.067 -0.1615  0.9245 -0.3081
  235MOL0     H30969   4.395   2.329   6.299 -1.1304 -2.0378  0.4260
  235MOL0     H30970   4.335   2.483   6.249 -1.5262  1.1048  0.7859
  235MOL0     H30971   4.246   2.366   6.485 -1.5963  0.4637  0.9293
  235MOL0     H30972   4.146   2.276   6.374  2.0515 -0.7606 -1.2632
  235MOL0     H30973   3.956   2.424   6.241  1.6561 -0.3959 -0.6872
  235MOL0     H30974   3.723   2.578   6.275 -3.3139  3.0542  0.0133
  235MOL0     H30975   3.814   2.719   6.229  0.2651 -0.4336 -1.5127
  235MOL0     H30976   3.613   2.752   6.365 -0.5267 -2.0840 -2.5518
  235MOL0     H30977   3.744   2.778   6.479 -4.5618  2.4568  0.1317
  235MOL0     H30978   3.523   2.603   6.498  0.6611  4.0611 -3.0013
  235MOL0     H30979   3.666   2.504   6.498 -1.4569 -0.7035  2.8927
  235MOL0     H30980   3.600   2.734   6.680 -0.6327  0.3239 -2.6155
  235MOL0     H30981   3.754   2.640   6.679  0.4936  3.5495 -1.0705
  235MOL0     H30982   3.434   2.757   6.804 -0.7564 -0.4615  1.1169
  235MOL0     H30983   3.218   2.766   6.840  2.6280  1.8519 -2.7835
  235MOL0     H30984   2.760   2.388   6.778  3.2819  1.8385 -0.2346
  235MOL0     H30985   2.530   2.356   6.867  0.9465  0.7006 -1.2204
  235MOL0     H30986   2.392   2.530   7.090 -2.1739 -0.3154 -0.1861
  235MOL0     H30987   2.463   2.521   7.256  2.5195 -1.9900 -0.0981
  235MOL0     H30988   2.215   2.515   7.225 -1.9206 -1.5862 -0.9775
  235MOL0     H30989   2.304   2.390   7.339  0.2138 -1.9953  0.0037
  235MOL0     H30990   2.249   2.223   7.192 -1.2882  1.2687  3.9192
  235MOL0     H30991   2.221   2.325   7.054 -0.3709 -3.5629 -1.3081
  235MOL0     H30992   2.014   2.412   7.173 -1.1168  0.0840  0.1844
  235MOL0     H30993   2.014   2.238   7.126  0.3406  0.5548 -0.3876
  235MOL0     H30994   2.078   2.331   7.405  1.5168  0.8993 -1.8044
  235MOL0     H30995   2.068   2.165   7.341  0.5314  0.4637  1.3267
  235MOL0     H30996   1.852   2.192   7.418  1.0148 -1.0445 -0.1268
  235MOL0     H30997   1.828   2.226   7.248 -1.3779  1.3755  0.1351
  235MOL0     H30998   1.868   2.435   7.467  0.7551 -0.0717 -0.0380
  235MOL0     H30999   1.832   2.479   7.302  0.0473  0.8787  1.7711
  235MOL0     H31000   1.639   2.297   7.450 -0.6424  0.0167 -0.5467
  235MOL0     H31001   1.623   2.386   7.290  2.1358  0.8089 -0.8009
  235MOL0     H31002   2.709   2.405   7.267 -0.5017 -0.1730 -0.9847
  235MOL0     H31003   2.936   2.409   7.158 -0.9915 -0.1650  0.1054
  235MOL0     H31004   3.193   2.328   6.810  0.5439 -0.5121 -0.0989
  235MOL0     H31005   3.439   2.335   6.752 -0.4240 -0.4519  0.8896
  235MOL0     H31006   4.726   2.002   5.908  0.1574  0.1581 -0.9874
  235MOL0     H31007   4.941   1.910   5.986  0.5378 -0.0593 -0.7482
  235MOL0     H31008   5.262   1.590   5.911  0.4330  1.0323  0.2203
  235MOL0     H31009   5.484   1.595   6.000  0.5758  0.5482  1.5242
  235MOL0     H31010   5.639   1.628   6.139 -0.9874 -0.2709 -0.5334
  235MOL0     H31011   5.688   1.454   6.096 -2.1490 -0.2768 -0.5589
  235MOL0     H31012   5.744   1.638   6.328 -0.4964 -1.7690  1.3662
  235MOL0     H31013   5.799   1.474   6.349  1.1464  1.7905  1.6198
  235MOL0     H31014   5.984   1.606   6.280 -2.3941 -2.1856  2.5388
  235MOL0     H31015   5.895   1.666   6.140 -3.4333  1.0629  2.5115
  235MOL0     H31016   5.903   1.443   6.032  1.2508 -1.0343 -0.7423
  235MOL0     H31017   6.066   1.498   6.068  0.2079 -0.7278  2.0184
  235MOL0     H31018   6.101   1.183   6.326 -1.1797  0.0675 -0.0533
  235MOL0     H31019   5.322   1.435   6.378  3.1756  0.7409 -0.3886
  235MOL0     H31020   5.095   1.457   6.280 -1.2504 -4.1156 -3.0372
  236MOL0     O31021   1.196   6.857   2.851  0.1797 -0.1979 -0.8408
  236MOL0     C31022   1.297   6.798   2.811 -0.7700  0.0683 -0.7420
  236MOL0     O31023   1.301   6.663   2.796  0.2726 -0.3079  0.6701
  236MOL0     C31024   1.184   6.585   2.824 -0.5578  0.6290  0.1014
  236MOL0     C31025   1.113   6.580   2.949 -0.3279 -0.6141  0.2778
  236MOL0     C31026   0.987   6.521   2.966 -0.5575  0.2512 -0.3240
  236MOL0     C31027   0.940   6.445   2.854  0.6383 -0.5225  0.1216
  236MOL0     O31028   0.837   6.360   2.861 -0.1548  0.1288 -0.5168
  236MOL0     C31029   0.731   6.387   2.953 -0.1038  0.6440 -0.0898
  236MOL0     C31030   0.613   6.288   2.947  0.0525 -0.5351 -0.8674
  236MOL0     C31031   0.483   6.330   3.010  0.9191 -0.6346  0.4885
  236MOL0     C31032   0.409   6.424   2.913 -0.0367  0.4211  1.1400
  236MOL0     C31033   0.278   6.454   2.976 -0.1727 -0.4191 -0.0641
  236MOL0     C31034   0.215   6.562   2.882  0.4307  0.7928  0.1195
  236MOL0     C31035   0.113   6.648   2.960  0.2256 -0.5565 -0.6764
  236MOL0     C31036   0.009   6.712   2.874 -0.1504 -0.6693 -0.4926
  236MOL0     N31037   0.067   6.794   2.769 -0.1178  0.4366  0.2426
  236MOL0     C31038   0.112   6.755   2.644  0.2608  0.0113  0.0586
  236MOL0     C31039   0.169   6.867   2.601  1.5678 -0.0418  0.0450
  236MOL0     C31040   0.254   6.873   2.466  0.5169  0.3151  0.0464
  236MOL0     C31041   0.386   6.942   2.466 -0.0738 -0.7518 -0.5353
  236MOL0     C31042   0.443   6.995   2.328  0.5389 -0.1586 -0.6330
  236MOL0     C31043   0.438   6.891   2.213  0.4305 -0.0144  0.4141
  236MOL0     O31044   0.469   6.959   2.089  0.2862 -0.6142  0.7003
  236MOL0     C31045   0.600   6.991   2.057  0.2477 -0.0901 -0.5537
  236MOL0     C31046   0.629   7.062   1.945 -0.5456 -0.3334  0.3641
  236MOL0     C31047   0.757   7.087   1.896  0.5448 -0.6803 -0.2577
  236MOL0     C31048   0.872   7.047   1.973  0.0168 -0.1989 -0.9254
  236MOL0     C31049   1.006   7.079   1.939 -0.2691  0.1620  1.1157
  236MOL0     O31050   1.112   7.031   2.019  0.4869 -0.0616  0.8803
  236MOL0     C31051   1.235   7.069   1.988 -0.4560 -0.3784  0.9131
  236MOL0     C31052   1.340   6.971   1.951  0.9654 -0.2165 -0.0489
  236MOL0     C31053   1.461   7.018   1.894  0.2347 -0.3785 -0.0729
  236MOL0     C31054   1.493   7.155   1.886 -0.0470 -0.4270 -0.2492
  236MOL0     O31055   1.607   7.223   1.847  0.7105  0.1746 -0.0260
  236MOL0     C31056   1.706   7.211   1.949  0.3795  0.3109 -0.0865
  236MOL0     C31057   1.842   7.258   1.895 -0.3516  0.7211 -0.2528
  236MOL0     C31058   1.906   7.169   1.787  0.6250 -0.4840 -0.4788
  236MOL0     C31059   2.030   7.229   1.731  0.6380 -0.0921 -0.1280
  236MOL0     C31060   2.076   7.140   1.614 -0.0012  1.0089  0.1317
  236MOL0     C31061   2.225   7.150   1.594  0.0845 -0.2628  0.0579
  236MOL0     C31062   2.270   7.065   1.478  0.0448  0.4428 -0.0158
  236MOL0     C31063   2.420   7.095   1.451  0.4445 -0.4489  0.0100
  236MOL0    Cl31064   2.498   6.945   1.417  0.0604  0.5909 -0.1981
  236MOL0     C31065   1.400   7.245   1.939 -0.1327  0.3122  0.4414
  236MOL0     C31066   1.274   7.204   1.981  0.6498 -0.1738  0.5013
  236MOL0     O31067   1.018   7.168   1.851 -0.0522 -0.2490 -0.6879
  236MOL0     C31068   0.846   6.993   2.097 -0.4564 -0.2425  0.2368
  236MOL0     C31069   0.715   6.947   2.137  0.3536  0.7202 -0.3662
  236MOL0     N31070   0.156   6.973   2.690  0.0306  0.4687  0.1605
  236MOL0     N31071   0.110   6.920   2.793  0.6080  0.0654  0.0240
  236MOL0     C31072   1.008   6.446   2.734 -1.2451 -0.7446  0.1477
  236MOL0     C31073   1.127   6.516   2.719  0.6517  0.3209 -1.3059
  236MOL0     C31074   1.412   6.883   2.783 -0.5509  0.2186  0.5381
  236MOL0     C31075   1.521   6.831   2.719 -0.5882  0.0561  0.7032
  236MOL0     C31076   1.637   6.908   2.691  0.8935 -0.2132 -0.8622
  236MOL0     C31077   1.646   7.038   2.735  0.3080  0.8018 -0.1785
  236MOL0     O31078   1.760   7.107   2.705  0.2448  0.6967 -0.2886
  236MOL0     C31079   1.778   7.239   2.762 -0.2549 -0.3487 -0.5610
  236MOL0     C31080   1.895   7.317   2.709 -0.1619 -0.4031 -0.5621
  236MOL0     C31081   2.028   7.250   2.754  0.3159  0.0960 -0.1440
  236MOL0     C31082   2.145   7.317   2.682 -0.9358 -0.2385  0.1671
  236MOL0     C31083   2.256   7.229   2.688  0.1200  0.6567 -0.3027
  236MOL0     C31084   2.353   7.156   2.677  0.6243  0.0622 -0.3517
  236MOL0     C31085   1.528   7.095   2.796 -1.1342  0.4144  0.4285
  236MOL0     C31086   1.413   7.020   2.820  0.1503 -0.0670  0.2405
  236MOL0     H31087   1.140   6.637   3.037 -3.6724  1.3704  0.2066
  236MOL0     H31088   0.943   6.517   3.065 -0.2926  1.3230 -0.1457
  236MOL0     H31089   0.695   6.487   2.928  0.7255  1.6414  2.4044
  236MOL0     H31090   0.763   6.381   3.057 -0.8384 -0.1975  0.0988
  236MOL0     H31091   0.649   6.196   2.993  1.7945  0.1787 -0.7445
  236MOL0     H31092   0.596   6.261   2.842  1.4072 -0.9364 -0.9986
  236MOL0     H31093   0.506   6.389   3.099  2.4048  0.1076 -0.3503
  236MOL0     H31094   0.420   6.242   3.022  0.2259 -0.2539 -0.2355
  236MOL0     H31095   0.469   6.514   2.899 -0.9400  0.7909 -0.5753
  236MOL0     H31096   0.394   6.369   2.820 -2.1743  4.6843 -1.3337
  236MOL0     H31097   0.294   6.491   3.077 -1.5405 -1.5219  0.5997
  236MOL0     H31098   0.211   6.367   2.982 -2.3070  1.1056 -0.6558
  236MOL0     H31099   0.167   6.512   2.797  2.9243 -0.4818 -0.6264
  236MOL0     H31100   0.291   6.622   2.832 -0.1145  1.6356  0.2710
  236MOL0     H31101   0.059   6.581   3.028  2.0678 -0.1681  1.2777
  236MOL0     H31102   0.168   6.721   3.020  3.0018 -1.8017 -1.5173
  236MOL0     H31103  -0.053   6.772   2.940  2.7873  1.6736  0.3310
  236MOL0     H31104  -0.053   6.643   2.815 -2.3197  0.5557  0.2269
  236MOL0     H31105   0.120   6.656   2.602 -0.2866  0.0673 -0.1878
  236MOL0     H31106   0.196   6.933   2.395  1.1234  1.0440  0.1518
  236MOL0     H31107   0.274   6.773   2.428  0.7279  0.3802 -0.0096
  236MOL0     H31108   0.455   6.874   2.516  0.5835 -2.6663 -3.7731
  236MOL0     H31109   0.377   7.027   2.535  2.0246 -1.9027  1.2923
  236MOL0     H31110   0.378   7.079   2.304  0.5433  0.4553  1.2926
  236MOL0     H31111   0.545   7.035   2.332  0.7811 -0.8222  0.2527
  236MOL0     H31112   0.335   6.855   2.202  0.2976  0.8262 -1.6908
  236MOL0     H31113   0.488   6.796   2.234 -1.1522 -1.0130 -0.0428
  236MOL0     H31114   0.546   7.089   1.882 -0.6482 -0.8307  0.2851
  236MOL0     H31115   0.745   7.130   1.798  0.4836 -0.1156 -0.0100
  236MOL0     H31116   1.327   6.863   1.940  0.2095  0.0134 -1.7222
  236MOL0     H31117   1.541   6.949   1.869  1.5660 -0.4222  3.7431
  236MOL0     H31118   1.702   7.108   1.986  1.7700 -0.4084 -1.7574
  236MOL0     H31119   1.670   7.269   2.034 -1.6548  0.7667 -1.2122
  236MOL0     H31120   1.909   7.278   1.979 -0.6422 -1.2146  0.4859
  236MOL0     H31121   1.827   7.359   1.854 -0.6016 -0.0124 -2.0344
  236MOL0     H31122   1.830   7.143   1.714  3.3555 -3.2525 -2.5904
  236MOL0     H31123   1.936   7.075   1.835  2.3214  1.0399  1.6378
  236MOL0     H31124   2.032   7.336   1.710  0.7697  0.2840  1.6345
  236MOL0     H31125   2.096   7.221   1.818 -0.8895  0.8630  1.1840
  236MOL0     H31126   2.036   7.179   1.520  3.2980  4.3999 -0.0930
  236MOL0     H31127   2.062   7.034   1.639 -0.4870  0.5356 -1.9441
  236MOL0     H31128   2.274   7.116   1.686  2.0444  0.3265 -0.7038
  236MOL0     H31129   2.244   7.255   1.570  3.1013 -1.1854 -2.3172
  236MOL0     H31130   2.243   6.961   1.496 -0.1579  0.2904 -1.1312
  236MOL0     H31131   2.226   7.087   1.380  0.5011 -0.9922 -0.5689
  236MOL0     H31132   2.475   7.137   1.536 -1.5037 -0.6123  1.4161
  236MOL0     H31133   2.436   7.157   1.362  1.0249  0.2580  0.5925
  236MOL0     H31134   1.438   7.346   1.932  2.5046 -0.7003 -1.3910
  236MOL0     H31135   1.197   7.275   2.008  0.4329 -0.3190  0.2665
  236MOL0     H31136   0.931   6.986   2.165 -0.3275 -0.0989  0.0905
  236MOL0     H31137   0.693   6.911   2.237 -0.2680 -1.8337 -1.3398
  236MOL0     H31138   0.969   6.383   2.654  0.1458  0.5302 -1.6310
  236MOL0     H31139   1.181   6.506   2.625  0.2630  0.7529 -1.5775
  236MOL0     H31140   1.540   6.727   2.696  0.1954  0.3608 -0.0927
  236MOL0     H31141   1.723   6.867   2.639  1.9216  0.1984  0.4681
  236MOL0     H31142   1.800   7.220   2.868 -1.8379  4.0383  0.7701
  236MOL0     H31143   1.688   7.300   2.750  0.0031  0.1920  0.2193
  236MOL0     H31144   1.876   7.343   2.605 -1.9833  0.5979 -0.0324
  236MOL0     H31145   1.887   7.407   2.772 -1.7188 -0.9489  0.0864
  236MOL0     H31146   2.030   7.144   2.728 -0.8264  0.2245 -0.8316
  236MOL0     H31147   2.038   7.258   2.863  2.3672 -0.4847 -0.2479
  236MOL0     H31148   2.125   7.327   2.575  0.1951 -1.4072 -0.1800
  236MOL0     H31149   2.172   7.415   2.723  0.0467 -1.1480  1.7849
  236MOL0     H31150   2.445   7.101   2.670  1.4098  1.5325 -2.2385
  236MOL0     H31151   1.531   7.197   2.832  1.5972  0.0006  1.5667
  236MOL0     H31152   1.331   7.071   2.870  1.1413  2.1115 -0.2423
  237MOL0     O31153   8.842   6.124   5.319 -0.6932 -0.2195  0.0811
  237MOL0     C31154   8.787   6.231   5.332  0.4505 -0.2693 -0.0523
  237MOL0     O31155   8.665   6.254   5.299  0.7300 -0.3513 -0.1049
  237MOL0     C31156   8.609   6.174   5.203 -0.1735  0.0044  0.3455
  237MOL0     C31157   8.609   6.206   5.070  0.3033 -0.9742 -1.4198
  237MOL0     C31158   8.534   6.136   4.974 -0.6986  0.9677 -1.0693
  237MOL0     C31159   8.457   6.024   5.013  0.8699  0.6655 -0.2357
  237MOL0     O31160   8.388   5.951   4.916  0.0113  0.6268  0.4229
  237MOL0     C31161   8.296   5.843   4.951  0.2462 -0.0888  0.3626
  237MOL0     C31162   8.252   5.765   4.821 -0.0742  0.3692 -1.3779
  237MOL0     C31163   8.135   5.672   4.845  0.0778  0.8302  0.6275
  237MOL0     C31164   8.177   5.527   4.884 -0.4056  0.0668 -0.0589
  237MOL0     C31165   8.069   5.434   4.938  0.5145 -0.9347 -0.1982
  237MOL0     C31166   8.014   5.347   4.826  0.3396  0.0235 -0.4851
  237MOL0     C31167   7.895   5.272   4.874  0.0512  0.4669  0.6708
  237MOL0     C31168   7.934   5.174   4.988  0.9232 -0.0722 -0.2082
  237MOL0     N31169   7.847   5.053   4.993 -0.2623  0.1836  0.4040
  237MOL0     C31170   7.747   5.028   5.085  0.0124 -0.1018  0.0241
  237MOL0     C31171   7.673   4.931   5.026 -0.3463 -0.7765  0.0477
  237MOL0     C31172   7.552   4.864   5.088  0.1067 -0.0610 -0.6453
  237MOL0     C31173   7.543   4.720   5.047 -0.0870 -0.0399  0.1321
  237MOL0     C31174   7.436   4.645   5.128  0.3885  1.3455  1.0450
  237MOL0     C31175   7.460   4.494   5.138  0.1007  0.7125  0.3545
  237MOL0     O31176   7.438   4.435   5.008  0.0767  0.2241 -0.0917
  237MOL0     C31177   7.308   4.405   4.964  0.6169  0.0895  0.1195
  237MOL0     C31178   7.290   4.326   4.850 -0.3719 -0.5339 -1.0989
  237MOL0     C31179   7.169   4.300   4.789  0.2167 -1.3408  0.1125
  237MOL0     C31180   7.053   4.328   4.861  0.1973  0.0690 -0.2218
  237MOL0     C31181   6.917   4.286   4.803  0.4535 -0.2016  0.1291
  237MOL0     O31182   6.930   4.209   4.692  0.7406 -0.6976  0.2683
  237MOL0     C31183   6.818   4.173   4.640 -0.0826 -0.0139 -0.2388
  237MOL0     C31184   6.713   4.259   4.613 -0.0406  0.5086  0.3671
  237MOL0     C31185   6.599   4.216   4.541 -0.5674 -0.2080  0.3871
  237MOL0     C31186   6.582   4.082   4.504 -0.3800 -0.3470  0.3113
  237MOL0     O31187   6.470   4.017   4.447  0.1374  0.0135  0.4737
  237MOL0     C31188   6.341   4.072   4.476  0.6148  0.1333 -0.2070
  237MOL0     C31189   6.233   3.983   4.412  0.4712  0.1572  0.7524
  237MOL0     C31190   6.210   3.852   4.487 -0.7826  0.6952 -0.8966
  237MOL0     C31191   6.094   3.765   4.434 -0.5979  0.2938  0.2460
  237MOL0     C31192   5.959   3.828   4.455  0.2374 -0.4319 -0.3899
  237MOL0     C31193   5.847   3.743   4.406 -0.1542  1.1664 -0.7546
  237MOL0     C31194   5.711   3.806   4.433 -0.0412  0.3523 -0.4289
  237MOL0     C31195   5.595   3.716   4.383 -0.0755  0.6087  0.2306
  237MOL0    Cl31196   5.593   3.569   4.488 -0.3031  0.1145  0.5469
  237MOL0     C31197   6.693   3.996   4.529 -0.5233 -0.6322 -1.4562
  237MOL0     C31198   6.817   4.051   4.585 -0.1524  0.0541  0.0649
  237MOL0     O31199   6.820   4.287   4.876  0.0589 -0.2536  0.5319
  237MOL0     C31200   7.064   4.401   4.971 -0.2176 -0.6569  0.4170
  237MOL0     C31201   7.192   4.447   5.024 -0.0220  0.2936 -0.3097
  237MOL0     N31202   7.733   4.890   4.909 -0.3365  0.9222  0.6823
  237MOL0     N31203   7.838   4.963   4.890 -0.8202 -0.2327  0.2276
  237MOL0     C31204   8.460   5.995   5.154 -0.0022 -0.1937  0.0692
  237MOL0     C31205   8.532   6.066   5.245 -0.2274  0.4919  0.1804
  237MOL0     C31206   8.864   6.350   5.381 -0.2594 -0.1656  0.7285
  237MOL0     C31207   8.981   6.337   5.447  0.3905  0.8797  0.1683
  237MOL0     C31208   9.057   6.450   5.482 -0.2357 -0.0654  1.1200
  237MOL0     C31209   9.023   6.577   5.435  0.1100 -0.1239 -1.0158
  237MOL0     O31210   9.096   6.687   5.455 -0.0915 -0.1846 -0.0233
  237MOL0     C31211   9.238   6.668   5.484 -0.4520 -0.6627 -0.0452
  237MOL0     C31212   9.304   6.804   5.497 -0.5334  0.0078 -0.7777
  237MOL0     C31213   9.314   6.890   5.372 -0.5109  1.1651  0.0977
  237MOL0     C31214   9.361   7.036   5.401  0.4859 -0.6108  0.2337
  237MOL0     C31215   9.509   7.046   5.425  0.2588 -0.0836  0.7704
  237MOL0     C31216   9.625   7.061   5.426  0.0192 -0.2682 -1.5002
  237MOL0     C31217   8.901   6.596   5.370  0.5144 -0.3924 -0.4460
  237MOL0     C31218   8.817   6.483   5.353  0.0705  0.1332 -0.5731
  237MOL0     H31219   8.669   6.289   5.036  0.5415 -1.3476 -1.9241
  237MOL0     H31220   8.535   6.185   4.877 -0.0022  1.5034 -0.8094
  237MOL0     H31221   8.204   5.896   4.980  0.7521  1.3438 -0.5378
  237MOL0     H31222   8.338   5.773   5.023  0.0682 -0.8628 -0.2757
  237MOL0     H31223   8.334   5.707   4.778 -1.2758 -0.5882 -2.4616
  237MOL0     H31224   8.220   5.844   4.751 -2.5807  0.4094 -0.2800
  237MOL0     H31225   8.086   5.652   4.749  2.7212 -0.1850 -0.6093
  237MOL0     H31226   8.062   5.725   4.907  0.7307  3.0521 -0.4108
  237MOL0     H31227   8.239   5.486   4.804  0.8307  0.7961  0.4846
  237MOL0     H31228   8.246   5.553   4.966  0.2596  0.5823 -0.7655
  237MOL0     H31229   7.994   5.505   4.973  1.1493 -0.6433  0.6130
  237MOL0     H31230   8.101   5.377   5.026 -3.4227  0.1175  2.1398
  237MOL0     H31231   8.086   5.269   4.797 -3.0574 -2.0369 -4.6378
  237MOL0     H31232   7.987   5.403   4.736 -2.4307  1.8335  1.3389
  237MOL0     H31233   7.812   5.336   4.904 -0.8308 -0.6676  0.6991
  237MOL0     H31234   7.858   5.208   4.793 -1.4164  2.6321 -0.4568
  237MOL0     H31235   7.929   5.220   5.087 -0.2390  0.8760 -0.6831
  237MOL0     H31236   8.032   5.130   4.968  1.9467  2.4438 -1.1247
  237MOL0     H31237   7.724   5.080   5.177 -0.1101  2.1827 -1.2247
  237MOL0     H31238   7.459   4.906   5.048 -0.8900 -0.9051  0.7003
  237MOL0     H31239   7.539   4.876   5.195 -1.9063 -0.6413 -0.7769
  237MOL0     H31240   7.644   4.678   5.054  0.0771 -0.3547 -3.0348
  237MOL0     H31241   7.516   4.707   4.942 -1.4349  0.4599  0.3897
  237MOL0     H31242   7.430   4.677   5.232 -1.3101  2.6922  0.5656
  237MOL0     H31243   7.338   4.675   5.090  0.6462  0.6292 -0.2591
  237MOL0     H31244   7.396   4.434   5.204  0.7713 -0.4740 -0.0485
  237MOL0     H31245   7.564   4.466   5.158  0.4037  2.7671  1.9008
  237MOL0     H31246   7.383   4.289   4.807  0.1624 -0.8047  0.2233
  237MOL0     H31247   7.172   4.240   4.699 -0.0524 -1.2182  0.0205
  237MOL0     H31248   6.707   4.366   4.629 -2.8790  0.3309  0.9290
  237MOL0     H31249   6.518   4.288   4.538  0.6258  1.1524 -0.7066
  237MOL0     H31250   6.326   4.165   4.420 -0.3021 -0.7673 -1.5378
  237MOL0     H31251   6.318   4.087   4.581 -2.6848 -0.8846 -0.6864
  237MOL0     H31252   6.254   3.964   4.307  1.9783 -0.0115  1.0547
  237MOL0     H31253   6.139   4.037   4.425 -1.7003 -3.2857  0.4937
  237MOL0     H31254   6.213   3.859   4.596  0.8774 -3.0329 -0.5595
  237MOL0     H31255   6.299   3.793   4.461 -0.5960  0.8110 -0.5179
  237MOL0     H31256   6.105   3.745   4.327 -3.0281  1.6028 -0.3322
  237MOL0     H31257   6.098   3.675   4.497  1.8209  0.0975 -0.0906
  237MOL0     H31258   5.953   3.921   4.398  0.4776 -1.9158 -2.9872
  237MOL0     H31259   5.945   3.850   4.561  0.3183  0.4176 -0.5538
  237MOL0     H31260   5.857   3.647   4.458 -0.3955  2.3663  1.6357
  237MOL0     H31261   5.865   3.722   4.300 -0.3252 -1.2545 -0.3665
  237MOL0     H31262   5.699   3.830   4.538  0.5290 -1.6102  0.1294
  237MOL0     H31263   5.709   3.905   4.386  0.3962  0.6493  0.1652
  237MOL0     H31264   5.616   3.675   4.284  1.2975 -0.7923  1.0592
  237MOL0     H31265   5.493   3.757   4.378  0.4417  2.1955  1.6564
  237MOL0     H31266   6.681   3.890   4.507 -0.9125 -1.1395  0.9104
  237MOL0     H31267   6.916   4.006   4.590  0.3055  1.0106 -0.1521
  237MOL0     H31268   6.975   4.424   5.029 -0.5518 -0.0972 -0.3046
  237MOL0     H31269   7.192   4.516   5.108  3.6358 -0.6316  0.6481
  237MOL0     H31270   8.402   5.909   5.186 -1.5005 -0.1465 -2.3043
  237MOL0     H31271   8.537   6.028   5.347 -0.0486 -0.1545 -0.0710
  237MOL0     H31272   9.013   6.241   5.487  0.7925  0.9155 -0.0623
  237MOL0     H31273   9.141   6.434   5.549  3.7489 -2.1103 -3.6657
  237MOL0     H31274   9.288   6.606   5.409  2.9572 -0.5919  1.9693
  237MOL0     H31275   9.259   6.616   5.578  0.8544 -2.9299 -1.5065
  237MOL0     H31276   9.249   6.859   5.574  2.5456  5.9646 -2.2056
  237MOL0     H31277   9.403   6.790   5.542 -0.6301 -1.1739 -0.8983
  237MOL0     H31278   9.216   6.893   5.323 -0.7493  2.2872  0.6179
  237MOL0     H31279   9.391   6.850   5.305  0.3993  1.5540  0.8956
  237MOL0     H31280   9.351   7.094   5.310  0.9435  0.0311  0.5842
  237MOL0     H31281   9.303   7.092   5.475 -0.0865 -0.5567 -0.2548
  237MOL0     H31282   9.732   7.066   5.417  0.2822 -1.3435  0.5299
  237MOL0     H31283   8.863   6.696   5.350 -3.0188 -1.8327 -1.9165
  237MOL0     H31284   8.718   6.503   5.313 -1.1853  2.8184  3.2718
  238MOL0     O31285   3.512   4.615  10.632  0.1506  0.2916 -0.0385
  238MOL0     C31286   3.559   4.685  10.542 -1.0182 -0.5376  0.3144
  238MOL0     O31287   3.504   4.798  10.488  0.0539 -0.0131  0.0123
  238MOL0     C31288   3.378   4.828  10.535 -0.2209  0.6697 -0.3635
  238MOL0     C31289   3.355   4.912  10.643  0.3352  0.4855  0.0831
  238MOL0     C31290   3.227   4.967  10.669 -0.3471 -0.1192  0.3067
  238MOL0     C31291   3.123   4.941  10.582 -0.3900  0.5647 -0.1793
  238MOL0     O31292   3.010   5.010  10.603 -0.4966  0.3707  0.0542
  238MOL0     C31293   2.904   4.986  10.507 -0.3239 -0.2473  0.1846
  238MOL0     C31294   2.788   5.082  10.562 -0.1361 -0.3729 -0.5155
  238MOL0     C31295   2.658   5.086  10.482 -0.0723 -0.7203  0.3108
  238MOL0     C31296   2.582   4.952  10.483  0.2933 -0.9270 -0.0834
  238MOL0     C31297   2.431   4.965  10.497  0.0526 -0.5128  0.3383
  238MOL0     C31298   2.371   5.021  10.371  0.2618  0.2960  0.0185
  238MOL0     C31299   2.215   5.000  10.371  0.0658  0.1424 -0.1366
  238MOL0     C31300   2.143   5.077  10.474 -0.6660  0.4608  0.9191
  238MOL0     N31301   1.997   5.079  10.440 -1.2400  0.0452 -0.0777
  238MOL0     C31302   1.927   4.963  10.416  0.5436  0.7651  0.1138
  238MOL0     C31303   1.800   5.006  10.395 -0.6886  0.6987 -0.9117
  238MOL0     C31304   1.687   4.920  10.358 -0.2425  0.2737  0.2811
  238MOL0     C31305   1.542   4.961  10.405 -0.1520 -0.3677  0.2511
  238MOL0     C31306   1.537   4.971  10.561  1.1344 -0.3609 -0.1368
  238MOL0     C31307   1.525   4.843  10.646  0.2654 -0.2295  0.8581
  238MOL0     O31308   1.521   4.860  10.788  0.0952 -0.1874  0.1311
  238MOL0     C31309   1.397   4.829  10.845  0.7548 -0.8207  0.8904
  238MOL0     C31310   1.362   4.705  10.893  0.1983 -0.6221 -0.0492
  238MOL0     C31311   1.233   4.679  10.941 -0.1401 -0.0899  0.6096
  238MOL0     C31312   1.145   4.779  10.960 -0.7409 -0.1512  0.0549
  238MOL0     C31313   1.014   4.755  11.025  1.0170  0.4185  0.5851
  238MOL0     O31314   0.957   4.862  11.085  0.1455 -0.9498 -0.0053
  238MOL0     C31315   0.824   4.851  11.127 -0.0277 -0.9370 -0.0634
  238MOL0     C31316   0.782   4.824  11.262 -0.3709  0.1145 -0.1075
  238MOL0     C31317   0.645   4.810  11.286  0.0442  1.1886 -0.6404
  238MOL0     C31318   0.552   4.830  11.180  0.4751  0.0882  0.0431
  238MOL0     O31319   0.418   4.808  11.192 -0.5938  0.3956  0.1546
  238MOL0     C31320   0.384   4.670  11.198  0.1637 -0.2128 -0.6746
  238MOL0     C31321   0.238   4.658  11.170  0.6628 -0.9327 -0.6161
  238MOL0     C31322   0.197   4.647  11.020  0.4397  0.5931 -0.2729
  238MOL0     C31323   0.206   4.793  10.969  1.2130  1.4623 -0.3515
  238MOL0     C31324   0.202   4.798  10.818  1.0312  0.7595  0.7302
  238MOL0     C31325   0.345   4.765  10.768 -0.0794 -0.7511  0.5841
  238MOL0     C31326   0.378   4.814  10.622 -0.2169 -0.3381 -0.0208
  238MOL0     C31327   0.519   4.762  10.583 -0.1087  0.2538  0.0620
  238MOL0    Cl31328   0.651   4.814  10.700 -0.1809 -0.0147  0.2237
  238MOL0     C31329   0.593   4.874  11.057  0.8817  0.0503  0.1718
  238MOL0     C31330   0.727   4.883  11.032  0.3120  0.1766  0.1891
  238MOL0     O31331   0.960   4.639  11.021 -1.3167  0.2177  0.0944
  238MOL0     C31332   1.187   4.907  10.919 -0.5963  0.2204 -0.3105
  238MOL0     C31333   1.311   4.934  10.856  0.1023  0.2177 -0.4200
  238MOL0     N31334   1.807   5.140  10.392  0.2798  0.7039  0.0534
  238MOL0     N31335   1.918   5.188  10.420  0.0123  0.0144 -0.3833
  238MOL0     C31336   3.147   4.844  10.476  0.1313  0.2240 -0.9517
  238MOL0     C31337   3.272   4.784  10.464  0.5248 -0.4175  0.4502
  238MOL0     C31338   3.680   4.633  10.478  0.5187 -0.1669  0.2031
  238MOL0     C31339   3.740   4.509  10.500  0.1249  0.5798  0.3655
  238MOL0     C31340   3.862   4.470  10.440  0.6862  0.2157  0.2599
  238MOL0     C31341   3.929   4.566  10.358 -0.2442 -0.3700  0.2999
  238MOL0     O31342   4.051   4.545  10.306 -0.3676 -0.2857 -0.3850
  238MOL0     C31343   4.076   4.419  10.245 -0.6773  0.1035  0.4700
  238MOL0     C31344   4.218   4.431  10.199 -0.7858  0.0890  0.3660
  238MOL0     C31345   4.240   4.523  10.073  0.3883  0.6702 -0.2399
  238MOL0     C31346   4.169   4.467   9.951  0.2440  0.3143 -0.3352
  238MOL0     C31347   4.167   4.565   9.842 -0.2645 -0.8152 -0.3896
  238MOL0     C31348   4.164   4.654   9.762 -0.7503  0.2855  0.0016
  238MOL0     C31349   3.874   4.687  10.340 -0.7036  0.0562  0.1397
  238MOL0     C31350   3.745   4.718  10.391 -0.4456 -0.0107  0.3092
  238MOL0     H31351   3.441   4.947  10.698  0.0258  0.0998  0.8225
  238MOL0     H31352   3.207   5.051  10.735 -1.1662 -1.4366  1.8271
  238MOL0     H31353   2.862   4.885  10.502  1.1040 -1.0730  2.8788
  238MOL0     H31354   2.934   5.018  10.407 -1.6856  0.4139 -0.0401
  238MOL0     H31355   2.830   5.182  10.574 -1.4801 -0.0064  1.4974
  238MOL0     H31356   2.760   5.061  10.665  1.8646 -0.6037  0.0329
  238MOL0     H31357   2.672   5.099  10.374  1.6008  1.4762  0.7404
  238MOL0     H31358   2.601   5.174  10.514  2.1875  2.4488 -3.4676
  238MOL0     H31359   2.608   4.894  10.394 -0.5734  1.9876 -2.3695
  238MOL0     H31360   2.619   4.900  10.573  2.4866 -0.1979 -0.5004
  238MOL0     H31361   2.400   5.028  10.581 -1.2737  0.4469 -0.8203
  238MOL0     H31362   2.386   4.870  10.525 -0.9614  0.1449  1.0214
  238MOL0     H31363   2.410   4.968  10.284  2.7368  0.3365  1.0410
  238MOL0     H31364   2.388   5.129  10.373 -0.5378  0.4910 -1.9076
  238MOL0     H31365   2.182   5.033  10.273 -0.8000  1.1348  0.4661
  238MOL0     H31366   2.196   4.893  10.382 -1.3571  0.3465 -0.4977
  238MOL0     H31367   2.182   5.179  10.481 -1.8926  0.9057  1.6379
  238MOL0     H31368   2.153   5.017  10.565 -1.2965  1.4902  1.6947
  238MOL0     H31369   1.971   4.863  10.414 -2.1150 -0.6791  3.3702
  238MOL0     H31370   1.697   4.820  10.403 -3.0021 -0.6765 -0.9643
  238MOL0     H31371   1.697   4.897  10.251 -1.8379 -1.3448  0.4294
  238MOL0     H31372   1.469   4.893  10.360 -2.4697  1.2262  1.3998
  238MOL0     H31373   1.508   5.058  10.367  2.0897  0.9993  1.5566
  238MOL0     H31374   1.627   5.021  10.598  0.6734 -0.6241  1.4219
  238MOL0     H31375   1.458   5.042  10.586  1.5486  0.4326 -1.0261
  238MOL0     H31376   1.612   4.777  10.633 -1.2709 -2.1071 -0.3876
  238MOL0     H31377   1.439   4.796  10.598  1.7524  1.9651 -4.6594
  238MOL0     H31378   1.428   4.620  10.911  2.0447  1.1014  1.9081
  238MOL0     H31379   1.201   4.583  10.978  3.1280 -1.5555  0.0594
  238MOL0     H31380   0.840   4.796  11.349 -2.4208 -2.8437  0.4452
  238MOL0     H31381   0.588   4.784  11.374  1.6198  3.3640  1.1650
  238MOL0     H31382   0.418   4.648  11.300  2.2034  0.5048 -1.1403
  238MOL0     H31383   0.440   4.604  11.131  4.1040  0.1110  1.9566
  238MOL0     H31384   0.191   4.747  11.214  0.8632 -1.0304 -0.1901
  238MOL0     H31385   0.198   4.572  11.224 -1.2555  0.2241 -0.1079
  238MOL0     H31386   0.093   4.616  11.005 -0.4204  3.0509  0.2155
  238MOL0     H31387   0.261   4.580  10.961  1.4709  0.7202  0.6726
  238MOL0     H31388   0.116   4.845  11.005  1.1005 -0.3097  2.1661
  238MOL0     H31389   0.296   4.840  11.011  1.1800 -0.9136  2.7302
  238MOL0     H31390   0.185   4.896  10.773 -1.2802 -0.2589 -0.7670
  238MOL0     H31391   0.139   4.724  10.769  2.1844 -0.1005  0.4848
  238MOL0     H31392   0.368   4.659  10.779  1.8413 -0.2012  2.6113
  238MOL0     H31393   0.419   4.816  10.830  2.9200 -0.4726 -2.8678
  238MOL0     H31394   0.290   4.779  10.567  0.6406 -0.5907 -1.2879
  238MOL0     H31395   0.381   4.923  10.616  2.0894 -0.1018  2.8463
  238MOL0     H31396   0.548   4.809  10.488  0.1732  0.6497  0.3400
  238MOL0     H31397   0.500   4.655  10.571 -0.4587  0.1624  1.2728
  238MOL0     H31398   0.524   4.883  10.974  0.8382  0.0449  0.2078
  238MOL0     H31399   0.757   4.901  10.929 -0.0713  3.4595  0.5682
  238MOL0     H31400   1.114   4.986  10.938 -2.1958 -1.5434  1.2136
  238MOL0     H31401   1.351   5.030  10.826  1.7830  0.1770  1.5146
  238MOL0     H31402   3.064   4.814  10.414 -1.4640  0.9622  0.7377
  238MOL0     H31403   3.276   4.716  10.380 -0.9073  1.3057 -1.0974
  238MOL0     H31404   3.695   4.437  10.568  0.5614  1.0243  1.1393
  238MOL0     H31405   3.901   4.371  10.460  0.7502  0.7272  3.2173
  238MOL0     H31406   3.998   4.388  10.175  0.0609 -2.3120  0.6489
  238MOL0     H31407   4.063   4.335  10.314  0.5191 -1.3786 -1.0280
  238MOL0     H31408   4.286   4.465  10.278  1.6327 -2.1885 -0.5779
  238MOL0     H31409   4.254   4.329  10.179 -0.6864  0.2886 -0.4863
  238MOL0     H31410   4.347   4.532  10.052  0.6311  0.8135  0.9691
  238MOL0     H31411   4.203   4.623  10.097 -2.0511 -0.3368  0.5431
  238MOL0     H31412   4.229   4.385   9.911  0.7788 -0.0419  1.1438
  238MOL0     H31413   4.064   4.446   9.975 -0.5764  2.1372 -2.0098
  238MOL0     H31414   4.157   4.745   9.706  2.0949 -0.3260 -1.5455
  238MOL0     H31415   3.924   4.759  10.277  1.4000 -0.7847  0.7729
  238MOL0     H31416   3.715   4.821  10.377  1.7033  0.7195  0.6447
  239MOL0     O31417   2.819   4.406   2.951 -0.9842  0.3823 -0.3882
  239MOL0     C31418   2.888   4.377   3.047 -0.2763  0.8919 -0.2565
  239MOL0     O31419   2.850   4.395   3.184  0.1766  0.0980  0.7215
  239MOL0     C31420   2.726   4.444   3.204 -0.5469  0.2354  0.8588
  239MOL0     C31421   2.688   4.580   3.178 -0.3235 -0.1297 -0.3351
  239MOL0     C31422   2.551   4.617   3.182 -0.3748  0.3558  0.2714
  239MOL0     C31423   2.457   4.517   3.223  0.4951  0.1189  0.2589
  239MOL0     O31424   2.329   4.547   3.204 -0.4105 -0.2307 -0.1233
  239MOL0     C31425   2.231   4.447   3.210 -0.1931  0.0157  0.5442
  239MOL0     C31426   2.095   4.499   3.173  0.4767  0.2974  0.6040
  239MOL0     C31427   1.985   4.390   3.139 -0.1157 -0.2942  0.5480
  239MOL0     C31428   1.852   4.449   3.081  0.5489 -0.2541 -0.7161
  239MOL0     C31429   1.723   4.376   3.128  0.4995  0.2529 -0.1420
  239MOL0     C31430   1.607   4.389   3.032  0.4306 -0.8458 -0.6710
  239MOL0     C31431   1.615   4.302   2.901 -0.1742  0.5024  0.0754
  239MOL0     C31432   1.672   4.378   2.779 -0.8320  0.2518  0.7928
  239MOL0     N31433   1.630   4.325   2.649  0.7262 -0.5980  0.2448
  239MOL0     C31434   1.508   4.347   2.586  0.5284 -0.0170 -0.0493
  239MOL0     C31435   1.522   4.276   2.475  0.1166 -1.2317 -1.0269
  239MOL0     C31436   1.437   4.294   2.357 -0.2607 -0.4019  0.3938
  239MOL0     C31437   1.313   4.199   2.380 -0.3639  0.8615  0.2247
  239MOL0     C31438   1.230   4.207   2.250  0.5159 -0.1364  0.5586
  239MOL0     C31439   1.075   4.183   2.270 -0.6273  0.2181 -0.1574
  239MOL0     O31440   1.018   4.211   2.144  0.4384 -0.5858 -0.1478
  239MOL0     C31441   0.886   4.197   2.137 -0.3061  0.8283 -0.8083
  239MOL0     C31442   0.828   4.267   2.034  0.7118 -0.2117 -0.6662
  239MOL0     C31443   0.690   4.264   2.023  0.4542  0.3765 -0.5077
  239MOL0     C31444   0.596   4.184   2.102  0.6971  0.0395 -0.0007
  239MOL0     C31445   0.447   4.172   2.073 -0.3566 -0.4808  1.3465
  239MOL0     O31446   0.393   4.257   1.978  0.3108  0.5145  0.1606
  239MOL0     C31447   0.260   4.254   1.948  0.7831 -0.1085  0.2373
  239MOL0     C31448   0.237   4.248   1.810  0.5283  0.1669 -0.9330
  239MOL0     C31449   0.103   4.255   1.760 -0.5069 -0.1202  0.3771
  239MOL0     C31450  -0.008   4.248   1.844 -0.3494  0.7444 -0.5308
  239MOL0     O31451  -0.140   4.235   1.794 -0.2417  0.2990 -0.2546
  239MOL0     C31452  -0.175   4.304   1.674  1.1591 -0.0133 -0.0020
  239MOL0     C31453  -0.324   4.316   1.646 -0.3352 -0.4677 -0.3601
  239MOL0     C31454  -0.386   4.420   1.731  0.5059 -0.2062 -0.6530
  239MOL0     C31455  -0.533   4.449   1.694  0.2947 -0.0105 -0.3668
  239MOL0     C31456  -0.605   4.543   1.795 -0.7317  1.0940 -0.0024
  239MOL0     C31457  -0.738   4.591   1.740  0.2263  0.5149  0.3011
  239MOL0     C31458  -0.828   4.472   1.687 -0.0229 -0.3485  0.4352
  239MOL0     C31459  -0.981   4.498   1.704  0.4750 -0.2522 -0.8612
  239MOL0    Cl31460  -1.029   4.656   1.640  0.4355  0.1272  0.1876
  239MOL0     C31461   0.018   4.235   1.981 -0.7709 -0.3224  0.1055
  239MOL0     C31462   0.150   4.246   2.033 -1.0912 -0.7452  0.3981
  239MOL0     O31463   0.386   4.093   2.147 -0.6486 -0.2627  0.3225
  239MOL0     C31464   0.663   4.108   2.207 -0.5405  0.8565  0.8651
  239MOL0     C31465   0.807   4.121   2.232 -0.2144 -1.0285 -0.2988
  239MOL0     N31466   1.634   4.205   2.476 -0.3091  0.4097  0.6825
  239MOL0     N31467   1.703   4.240   2.579 -0.1852 -1.0135  0.7301
  239MOL0     C31468   2.500   4.388   3.262  0.0421 -0.1029 -0.9183
  239MOL0     C31469   2.632   4.353   3.246  0.4948  0.6466 -0.2451
  239MOL0     C31470   3.021   4.322   3.013  0.2565  0.0681 -0.2316
  239MOL0     C31471   3.033   4.227   2.911 -1.3424  0.1498  1.1883
  239MOL0     C31472   3.156   4.179   2.859  0.4239 -0.6218 -0.6566
  239MOL0     C31473   3.272   4.201   2.929 -0.1398  0.3097  0.5082
  239MOL0     O31474   3.386   4.131   2.879  0.3086 -0.3714 -0.6285
  239MOL0     C31475   3.511   4.171   2.944  0.0418  0.3081 -0.1046
  239MOL0     C31476   3.625   4.125   2.861  0.6982  0.0120 -0.3245
  239MOL0     C31477   3.659   3.970   2.854  0.4180  0.1521 -0.3653
  239MOL0     C31478   3.631   3.908   2.719 -0.0257 -0.8025 -0.3940
  239MOL0     C31479   3.490   3.910   2.673 -0.8052  0.5176  0.3823
  239MOL0     C31480   3.376   3.903   2.642 -0.6704  0.6498  0.6622
  239MOL0     C31481   3.267   4.282   3.045  0.3774 -0.7287 -0.4800
  239MOL0     C31482   3.143   4.348   3.085  0.3654  0.9086 -0.1534
  239MOL0     H31483   2.762   4.650   3.142  0.8693 -1.1866 -0.0372
  239MOL0     H31484   2.519   4.706   3.130  1.4341  1.2720  0.6539
  239MOL0     H31485   2.224   4.407   3.311  1.5228  0.5573  0.9044
  239MOL0     H31486   2.254   4.364   3.142 -2.9814  0.9133 -1.6824
  239MOL0     H31487   2.106   4.559   3.081 -2.7806 -1.3742 -1.0538
  239MOL0     H31488   2.057   4.576   3.241 -0.3192 -0.2036  0.7372
  239MOL0     H31489   1.953   4.339   3.230 -2.8039  0.7701  0.2876
  239MOL0     H31490   2.022   4.309   3.075  0.5719 -0.3347  0.9914
  239MOL0     H31491   1.846   4.554   3.112 -1.9931  0.0031 -1.8133
  239MOL0     H31492   1.858   4.444   2.971 -1.6586 -0.0288 -0.9033
  239MOL0     H31493   1.687   4.402   3.228  0.1802 -2.6073  0.5859
  239MOL0     H31494   1.751   4.270   3.133 -1.3223 -0.2104  1.5533
  239MOL0     H31495   1.585   4.494   3.011  1.4467 -0.9856 -2.6662
  239MOL0     H31496   1.524   4.352   3.092 -0.1443  2.4212  0.7898
  239MOL0     H31497   1.662   4.206   2.926  0.5218  0.9042  0.3164
  239MOL0     H31498   1.509   4.276   2.889 -0.3307  0.0657  2.0627
  239MOL0     H31499   1.780   4.370   2.791 -1.0446  1.2278  4.8448
  239MOL0     H31500   1.650   4.485   2.781  0.3637  0.5329 -0.4133
  239MOL0     H31501   1.435   4.420   2.619 -0.1913 -1.4670  1.7457
  239MOL0     H31502   1.484   4.271   2.261  0.3328 -1.0267  0.8164
  239MOL0     H31503   1.406   4.398   2.357  2.1000  0.3718 -0.7049
  239MOL0     H31504   1.251   4.219   2.468 -0.1832  1.3375  0.2474
  239MOL0     H31505   1.350   4.096   2.391  1.6289  1.5972  0.8001
  239MOL0     H31506   1.226   4.310   2.213  0.5704 -0.4878 -0.4433
  239MOL0     H31507   1.267   4.135   2.176 -0.0448 -0.2669  0.4055
  239MOL0     H31508   1.037   4.246   2.352  0.9802  0.6666  0.2799
  239MOL0     H31509   1.071   4.075   2.280 -0.8318  0.0101 -2.1077
  239MOL0     H31510   0.882   4.320   1.956  2.3773 -2.9894 -1.5356
  239MOL0     H31511   0.659   4.314   1.932 -0.9684 -0.4230 -0.4899
  239MOL0     H31512   0.322   4.249   1.742 -0.3238  1.3172 -2.0380
  239MOL0     H31513   0.085   4.276   1.655 -3.6969  2.3339  1.2629
  239MOL0     H31514  -0.129   4.256   1.588 -2.6876 -3.0715 -0.5968
  239MOL0     H31515  -0.127   4.402   1.670  2.0307 -0.3806  0.9664
  239MOL0     H31516  -0.365   4.214   1.649  0.0644 -0.6200 -0.0066
  239MOL0     H31517  -0.342   4.352   1.544  0.0802  0.2368 -0.1879
  239MOL0     H31518  -0.323   4.509   1.725  2.0758 -1.1669  0.6124
  239MOL0     H31519  -0.384   4.379   1.833 -1.4969 -1.2346 -0.9867
  239MOL0     H31520  -0.533   4.489   1.592  1.7380 -0.1669 -0.4532
  239MOL0     H31521  -0.585   4.353   1.697 -0.2649  0.3024  0.0743
  239MOL0     H31522  -0.557   4.640   1.807 -4.3835  3.1462 -0.5761
  239MOL0     H31523  -0.602   4.492   1.892 -0.0329  1.4447  0.1679
  239MOL0     H31524  -0.718   4.658   1.656 -0.6950 -1.6270 -1.7180
  239MOL0     H31525  -0.786   4.641   1.825 -3.2185 -1.3347 -0.3885
  239MOL0     H31526  -0.805   4.455   1.581 -3.1646 -2.9454 -0.0079
  239MOL0     H31527  -0.806   4.378   1.737 -1.0969 -0.6377  0.4030
  239MOL0     H31528  -1.020   4.474   1.803 -3.3300  1.8700 -1.6537
  239MOL0     H31529  -1.031   4.421   1.644 -1.0259 -0.2952  0.3735
  239MOL0     H31530  -0.058   4.211   2.054 -0.0317 -1.8746  0.4151
  239MOL0     H31531   0.170   4.247   2.140  0.5877  1.6207  0.1516
  239MOL0     H31532   0.602   4.038   2.264  1.3462 -1.6191 -0.0004
  239MOL0     H31533   0.853   4.081   2.322  1.1215  0.3318 -0.3369
  239MOL0     H31534   2.423   4.327   3.308 -1.0244  1.3398 -0.7361
  239MOL0     H31535   2.651   4.252   3.279 -2.1864 -0.5027 -1.9786
  239MOL0     H31536   2.952   4.178   2.858  1.1750 -0.4126 -2.5146
  239MOL0     H31537   3.157   4.098   2.786  2.6862 -1.7175  0.5058
  239MOL0     H31538   3.512   4.125   3.043 -2.2263 -1.2828 -0.7186
  239MOL0     H31539   3.525   4.280   2.951 -0.0532  0.6140 -3.2486
  239MOL0     H31540   3.610   4.167   2.761  0.8600 -2.2473 -1.3535
  239MOL0     H31541   3.713   4.173   2.907  1.3128 -0.7452 -0.6937
  239MOL0     H31542   3.606   3.912   2.930  1.8994 -0.3647  0.2899
  239MOL0     H31543   3.764   3.961   2.880 -0.3561  1.3489  3.9451
  239MOL0     H31544   3.682   3.965   2.640 -1.6597 -0.8278 -1.5092
  239MOL0     H31545   3.666   3.805   2.713  1.5433 -0.2423 -1.8723
  239MOL0     H31546   3.271   3.913   2.625 -0.5087 -0.4542 -1.2237
  239MOL0     H31547   3.357   4.294   3.104 -0.4449  0.5860  0.5889
  239MOL0     H31548   3.135   4.416   3.170  0.6769 -2.4315  2.7976
  240MOL0     O31549   2.280   6.088   5.693 -0.2102 -0.0492 -0.2111
  240MOL0     C31550   2.245   5.975   5.683  0.2291 -0.4701 -0.8049
  240MOL0     O31551   2.330   5.875   5.657 -0.3743  0.1939  0.3081
  240MOL0     C31552   2.466   5.877   5.632 -0.2787 -0.7966 -0.0892
  240MOL0     C31553   2.562   5.965   5.677 -0.0100 -0.0329  0.1128
  240MOL0     C31554   2.695   5.965   5.631 -0.1054  0.2591 -0.1764
  240MOL0     C31555   2.736   5.874   5.530 -0.1730 -0.4990  0.8224
  240MOL0     O31556   2.858   5.862   5.480 -0.8999 -0.2711  0.6213
  240MOL0     C31557   2.964   5.916   5.564  0.5305 -0.2771 -0.0066
  240MOL0     C31558   3.106   5.888   5.517  0.4497 -0.1878 -1.1862
  240MOL0     C31559   3.209   5.954   5.609 -0.3674  0.8587 -0.4467
  240MOL0     C31560   3.351   5.933   5.548  0.7733  0.1122 -1.3090
  240MOL0     C31561   3.464   5.999   5.620  0.3022  0.0487 -0.2641
  240MOL0     C31562   3.601   5.975   5.545 -0.9617  0.2751 -0.1281
  240MOL0     C31563   3.588   6.032   5.403 -0.4063  0.2120  0.0521
  240MOL0     C31564   3.728   6.057   5.351 -0.0316  0.0299  0.0080
  240MOL0     N31565   3.710   6.086   5.208 -0.1396 -0.3640  0.3110
  240MOL0     C31566   3.736   5.987   5.109 -0.7549  0.4923  0.5111
  240MOL0     C31567   3.697   6.055   4.994 -0.6292  0.5081 -0.5271
  240MOL0     C31568   3.676   5.997   4.860 -0.5662 -1.3257 -0.5603
  240MOL0     C31569   3.656   6.103   4.751 -0.8109 -0.1316  0.0348
  240MOL0     C31570   3.643   6.048   4.608 -0.4252  0.1691 -0.8262
  240MOL0     C31571   3.501   6.044   4.551  0.6808 -0.7594 -0.7411
  240MOL0     O31572   3.426   6.175   4.577 -0.4362 -0.1574 -0.1493
  240MOL0     C31573   3.288   6.182   4.530 -0.1245  0.3038 -0.3515
  240MOL0     C31574   3.250   6.159   4.399  0.9692  0.1736  0.2057
  240MOL0     C31575   3.108   6.160   4.375  0.8857  0.1636 -0.3367
  240MOL0     C31576   3.012   6.189   4.484  0.4560  0.0804  0.4751
  240MOL0     C31577   2.863   6.199   4.450 -0.0272 -0.1156  0.3093
  240MOL0     O31578   2.788   6.235   4.552  0.2129 -0.5606  0.6330
  240MOL0     C31579   2.656   6.256   4.547  0.9130 -0.1213 -0.2039
  240MOL0     C31580   2.571   6.197   4.646  0.9043 -0.4111  0.0277
  240MOL0     C31581   2.441   6.215   4.650  0.6591 -0.3089  0.3961
  240MOL0     C31582   2.375   6.295   4.556 -0.2072 -0.2191  0.8241
  240MOL0     O31583   2.244   6.331   4.563  1.0843  0.0613  0.5432
  240MOL0     C31584   2.186   6.426   4.466 -0.3668  0.1381 -0.4729
  240MOL0     C31585   2.049   6.463   4.509  0.9322 -0.7701  0.3998
  240MOL0     C31586   1.949   6.356   4.500 -0.2389  0.1923 -0.1847
  240MOL0     C31587   1.917   6.288   4.637  0.6460 -0.0894  0.0947
  240MOL0     C31588   1.807   6.178   4.624 -0.1615  1.2115 -0.4956
  240MOL0     C31589   1.656   6.222   4.616 -0.2507  0.7525 -0.1483
  240MOL0     C31590   1.567   6.101   4.606 -0.0688 -0.1052  0.1889
  240MOL0     C31591   1.420   6.138   4.626 -0.3719  0.1895  0.2958
  240MOL0    Cl31592   1.343   5.987   4.669 -0.3783  0.1817  0.2707
  240MOL0     C31593   2.457   6.351   4.454 -0.8242  0.0029 -0.0079
  240MOL0     C31594   2.590   6.339   4.446 -1.5823 -0.3652 -0.2107
  240MOL0     O31595   2.825   6.180   4.336  0.3043 -0.3872  0.4774
  240MOL0     C31596   3.067   6.210   4.613 -0.0768  0.0761 -0.3786
  240MOL0     C31597   3.201   6.206   4.636  0.4170 -1.1693  0.4938
  240MOL0     N31598   3.661   6.186   5.024 -0.2079  0.2653  0.0747
  240MOL0     N31599   3.664   6.201   5.149  0.3640  0.6933  0.2174
  240MOL0     C31600   2.636   5.791   5.482  0.0052  1.0390 -0.5873
  240MOL0     C31601   2.501   5.789   5.528 -0.2857  0.0812 -1.0041
  240MOL0     C31602   2.103   5.938   5.699 -1.3450  0.2137  0.0918
  240MOL0     C31603   2.069   5.797   5.698 -0.0542  0.0008  0.2567
  240MOL0     C31604   1.929   5.774   5.702 -0.5931  0.4915 -0.8336
  240MOL0     C31605   1.827   5.875   5.721 -0.0378  0.0652  1.0378
  240MOL0     O31606   1.694   5.831   5.720 -0.1564 -0.2708 -0.3999
  240MOL0     C31607   1.594   5.919   5.772  0.2226 -0.0026  0.5444
  240MOL0     C31608   1.475   5.836   5.814 -0.0375 -0.1643 -0.2263
  240MOL0     C31609   1.352   5.908   5.861  0.0976 -0.4181  0.0327
  240MOL0     C31610   1.243   5.798   5.886 -0.2908 -0.2111  0.3939
  240MOL0     C31611   1.172   5.757   5.759 -0.5550  0.7008  0.0956
  240MOL0     C31612   1.117   5.728   5.654 -0.2638  0.5726 -0.0775
  240MOL0     C31613   1.871   6.004   5.707 -0.6411  0.0395 -0.1240
  240MOL0     C31614   2.008   6.040   5.714 -0.9232  0.1081  0.1681
  240MOL0     H31615   2.532   6.035   5.755 -3.7540 -3.5418  2.2775
  240MOL0     H31616   2.766   6.034   5.677 -0.3750 -0.0578  0.7393
  240MOL0     H31617   2.950   5.875   5.664  0.8386  2.6184  1.3133
  240MOL0     H31618   2.955   6.024   5.575  1.8558 -0.1861  0.3029
  240MOL0     H31619   3.118   5.932   5.418  0.0918  0.8069 -0.8050
  240MOL0     H31620   3.112   5.779   5.514  0.1034 -0.3915  1.9303
  240MOL0     H31621   3.196   5.910   5.709 -0.2305 -1.0117 -1.2120
  240MOL0     H31622   3.190   6.061   5.612  0.6807  1.0321  0.8984
  240MOL0     H31623   3.360   5.824   5.548  1.4329  0.0038  2.7290
  240MOL0     H31624   3.344   5.977   5.448  1.9329 -0.2345 -1.5536
  240MOL0     H31625   3.471   5.951   5.718  2.6016  2.4865  0.8886
  240MOL0     H31626   3.444   6.105   5.637 -4.4394 -0.3039 -2.0680
  240MOL0     H31627   3.623   5.868   5.535 -2.7988 -0.0062 -1.8239
  240MOL0     H31628   3.668   6.032   5.610 -1.3881 -1.0056  1.4811
  240MOL0     H31629   3.533   5.955   5.346  0.9913 -2.2127  1.8016
  240MOL0     H31630   3.523   6.120   5.403 -0.9641 -0.1894 -0.0118
  240MOL0     H31631   3.796   5.973   5.366  1.0097  1.1151  1.7347
  240MOL0     H31632   3.771   6.143   5.404  1.0959  0.3867 -1.4103
  240MOL0     H31633   3.769   5.884   5.120 -1.2318  0.1615 -0.8890
  240MOL0     H31634   3.585   5.936   4.864 -0.8261 -0.9547 -0.8264
  240MOL0     H31635   3.756   5.926   4.835 -0.7508 -0.9202 -2.4412
  240MOL0     H31636   3.741   6.172   4.752 -0.1012 -0.9055  2.8591
  240MOL0     H31637   3.566   6.159   4.775  0.7624  1.9975  1.3357
  240MOL0     H31638   3.706   6.111   4.544  4.2479 -2.0705  1.0643
  240MOL0     H31639   3.684   5.947   4.599 -3.3744 -1.1033 -1.0991
  240MOL0     H31640   3.434   5.982   4.612 -1.3726  1.0999 -0.9702
  240MOL0     H31641   3.493   6.007   4.448 -4.6137  1.7429 -1.6002
  240MOL0     H31642   3.316   6.135   4.317 -0.7768 -0.5253 -1.0685
  240MOL0     H31643   3.082   6.140   4.271  2.1932  0.9950 -0.8476
  240MOL0     H31644   2.615   6.143   4.729  0.3313  0.5335  0.9619
  240MOL0     H31645   2.393   6.180   4.741  0.3817  0.2934  0.4827
  240MOL0     H31646   2.194   6.382   4.366  0.5943  0.5286 -0.5788
  240MOL0     H31647   2.243   6.518   4.479 -0.7401 -0.0460  3.8125
  240MOL0     H31648   2.009   6.544   4.448 -0.3117 -1.5888  0.0700
  240MOL0     H31649   2.052   6.494   4.614 -0.4824  0.4515  0.1023
  240MOL0     H31650   1.979   6.277   4.431  2.7127  0.2860  0.8088
  240MOL0     H31651   1.856   6.396   4.459 -0.6016 -0.0646  0.3778
  240MOL0     H31652   2.007   6.235   4.670  0.5008 -0.9686 -0.8791
  240MOL0     H31653   1.882   6.360   4.711 -0.5552  0.1868 -0.7195
  240MOL0     H31654   1.824   6.121   4.716  2.1722  3.0269  0.2750
  240MOL0     H31655   1.835   6.110   4.544  2.0704  0.3586  0.9332
  240MOL0     H31656   1.639   6.274   4.521 -0.1605 -1.8740 -1.6979
  240MOL0     H31657   1.617   6.288   4.694 -0.8388  1.7028 -1.1960
  240MOL0     H31658   1.583   6.052   4.509 -2.4903 -1.7181  0.5433
  240MOL0     H31659   1.614   6.033   4.677  1.2994 -1.8138 -2.1910
  240MOL0     H31660   1.369   6.166   4.533 -2.6572 -0.2688  1.3407
  240MOL0     H31661   1.402   6.215   4.701  0.7325 -0.1083  0.8756
  240MOL0     H31662   2.414   6.412   4.375 -1.2315 -0.5474 -0.2191
  240MOL0     H31663   2.645   6.388   4.366  1.6402 -1.6425  1.0553
  240MOL0     H31664   3.005   6.245   4.695  0.3953 -1.8744  0.8599
  240MOL0     H31665   3.241   6.240   4.731 -0.2996  0.6449  0.1855
  240MOL0     H31666   2.672   5.727   5.402 -4.0076 -3.6533  0.8874
  240MOL0     H31667   2.429   5.725   5.479 -2.0828  2.1039 -1.1739
  240MOL0     H31668   2.140   5.721   5.671  0.2550  1.2705 -2.9434
  240MOL0     H31669   1.886   5.674   5.701 -3.0662  1.3289  2.5009
  240MOL0     H31670   1.548   5.984   5.697 -2.2681 -1.5307  0.6217
  240MOL0     H31671   1.641   5.966   5.859  1.6912  0.5644 -0.5102
  240MOL0     H31672   1.454   5.780   5.723  1.0673  0.4502 -0.8718
  240MOL0     H31673   1.494   5.769   5.899  0.8442  2.1113  1.5036
  240MOL0     H31674   1.323   5.984   5.789 -0.8934  0.2897  1.1482
  240MOL0     H31675   1.370   5.950   5.960  0.2071 -1.5446  0.5095
  240MOL0     H31676   1.282   5.703   5.924 -0.5663 -1.3644 -2.0192
  240MOL0     H31677   1.171   5.843   5.955 -0.1323 -1.0031  1.1040
  240MOL0     H31678   1.061   5.707   5.565 -1.1333  2.1960  0.0428
  240MOL0     H31679   1.806   6.091   5.697  1.6516  2.0387  1.1072
  240MOL0     H31680   2.034   6.141   5.685 -0.6168 -0.3329 -1.2059
  241MOL0     O31681   0.810  10.126   2.203 -0.1931  0.0622  0.0510
  241MOL0     C31682   0.870  10.123   2.092 -0.5817 -0.6773  0.0857
  241MOL0     O31683   0.841  10.208   1.990  0.0290 -0.1860 -0.1136
  241MOL0     C31684   0.751  10.308   2.011  0.1239 -0.0158  0.6139
  241MOL0     C31685   0.620  10.293   2.064 -0.0450 -0.4493 -0.0968
  241MOL0     C31686   0.542  10.412   2.076 -0.4176 -0.0283 -0.5963
  241MOL0     C31687   0.586  10.537   2.045  0.3872 -0.3713 -0.0995
  241MOL0     O31688   0.521  10.657   2.079  0.0772 -0.6522 -0.0777
  241MOL0     C31689   0.391  10.644   2.134  0.0285  0.1594 -0.7990
  241MOL0     C31690   0.329  10.781   2.160 -1.0844 -0.7722  0.4209
  241MOL0     C31691   0.211  10.778   2.239 -0.3034  0.3433  0.3702
  241MOL0     C31692   0.085  10.752   2.156  0.0511  0.3275  0.0169
  241MOL0     C31693  -0.033  10.705   2.242 -0.0311  0.2446  0.2600
  241MOL0     C31694  -0.073  10.802   2.350 -0.3282 -0.5993  0.3702
  241MOL0     C31695  -0.192  10.751   2.429 -0.3701 -0.0300 -0.0805
  241MOL0     C31696  -0.213  10.825   2.567  0.6066 -0.0671 -0.1311
  241MOL0     N31697  -0.343  10.786   2.623  0.7594  0.0777 -0.5887
  241MOL0     C31698  -0.388  10.658   2.652 -0.5039  0.6397  0.3037
  241MOL0     C31699  -0.502  10.677   2.722  0.6228  0.7108  0.8684
  241MOL0     C31700  -0.594  10.579   2.797 -0.1243  1.1068 -0.1596
  241MOL0     C31701  -0.737  10.638   2.779  0.9190 -0.3925  0.1986
  241MOL0     C31702  -0.774  10.764   2.872 -0.1198 -0.9075 -0.4903
  241MOL0     C31703  -0.906  10.744   2.950  0.5263 -0.1056  0.0122
  241MOL0     O31704  -1.009  10.744   2.843 -0.2087  1.4321  0.0208
  241MOL0     C31705  -1.141  10.730   2.887 -1.0460  0.3329  0.5364
  241MOL0     C31706  -1.237  10.727   2.785  0.0005  0.2935  0.4782
  241MOL0     C31707  -1.374  10.733   2.820 -0.7489  0.1183  0.8696
  241MOL0     C31708  -1.415  10.713   2.953 -0.4733 -0.5726 -0.5086
  241MOL0     C31709  -1.560  10.702   2.993  0.1800 -1.0727 -0.8403
  241MOL0     O31710  -1.649  10.678   2.888 -0.4416 -0.2321  0.2308
  241MOL0     C31711  -1.762  10.595   2.893  0.5811  1.0308 -0.0326
  241MOL0     C31712  -1.843  10.595   2.786  0.0463 -0.1387  0.4311
  241MOL0     C31713  -1.962  10.524   2.780  1.0144 -1.1299 -0.3614
  241MOL0     C31714  -2.007  10.445   2.885  0.5277  0.2950  0.1689
  241MOL0     O31715  -2.112  10.361   2.852 -0.4644 -0.4595  0.5051
  241MOL0     C31716  -2.207  10.331   2.965 -0.8189  0.0902  0.0591
  241MOL0     C31717  -2.339  10.304   2.901 -0.4447  1.1822  0.3494
  241MOL0     C31718  -2.446  10.263   2.999  0.2706 -0.5796  0.1052
  241MOL0     C31719  -2.572  10.227   2.917  0.0930 -0.0199  0.0884
  241MOL0     C31720  -2.699  10.188   3.002  0.1610 -0.3618 -0.8126
  241MOL0     C31721  -2.672  10.062   3.082 -0.0484  0.2825  0.1698
  241MOL0     C31722  -2.661   9.939   2.977  0.0855 -1.1395 -0.6360
  241MOL0     C31723  -2.685   9.808   3.054  0.4746 -0.0348 -0.1005
  241MOL0    Cl31724  -2.843   9.803   3.146 -0.1374  0.0856  0.0064
  241MOL0     C31725  -1.920  10.440   2.995  0.1656  0.0106 -0.2814
  241MOL0     C31726  -1.803  10.518   3.005  0.4362 -0.4060  0.3132
  241MOL0     O31727  -1.597  10.734   3.109 -0.2809  0.3080  0.0484
  241MOL0     C31728  -1.318  10.715   3.055  0.1901  0.5246 -0.6147
  241MOL0     C31729  -1.186  10.729   3.024  0.2421  0.1417 -0.1827
  241MOL0     N31730  -0.521  10.817   2.728  0.3914  0.3369  0.8250
  241MOL0     N31731  -0.435  10.881   2.664 -0.0962  0.6349 -0.7582
  241MOL0     C31732   0.718  10.541   1.991  0.7265  0.0472  0.1803
  241MOL0     C31733   0.790  10.427   1.970 -0.0997 -1.0464  0.0549
  241MOL0     C31734   0.982  10.023   2.071 -0.0653  0.1720  0.0230
  241MOL0     C31735   1.016   9.930   2.174 -0.8158 -0.5921  0.2089
  241MOL0     C31736   1.115   9.830   2.151 -0.8829 -0.0901 -0.2131
  241MOL0     C31737   1.191   9.829   2.038 -0.3514 -0.3708  0.8373
  241MOL0     O31738   1.284   9.730   2.023  0.3660  0.1261  0.2031
  241MOL0     C31739   1.384   9.746   1.926  0.1499  0.7011 -0.0224
  241MOL0     C31740   1.504   9.827   1.967 -0.0491 -0.0160 -0.3776
  241MOL0     C31741   1.607   9.823   1.856 -0.2797 -1.1380 -0.2237
  241MOL0     C31742   1.718   9.923   1.896  0.5284  0.0718 -0.0691
  241MOL0     C31743   1.801   9.900   2.016  0.4013 -0.3421 -0.0394
  241MOL0     C31744   1.865   9.889   2.115  0.2726  0.8110  0.1528
  241MOL0     C31745   1.169   9.936   1.943 -0.2309 -0.7540  0.1719
  241MOL0     C31746   1.061  10.020   1.957  0.8247 -0.0090  0.7159
  241MOL0     H31747   0.590  10.191   2.085 -2.3441 -0.5257 -3.0387
  241MOL0     H31748   0.449  10.400   2.130  0.3016  1.8288  1.1884
  241MOL0     H31749   0.414  10.594   2.229  2.2310  1.9680 -0.2912
  241MOL0     H31750   0.341  10.581   2.060 -0.1149 -0.9202  0.1890
  241MOL0     H31751   0.307  10.830   2.066 -2.2271 -3.8284 -1.0520
  241MOL0     H31752   0.408  10.832   2.216  0.0248 -2.5047  0.5209
  241MOL0     H31753   0.195  10.874   2.289  1.1595  0.4346  0.6905
  241MOL0     H31754   0.218  10.695   2.311  0.1335  0.5193  0.5329
  241MOL0     H31755   0.057  10.831   2.086  1.4615  0.7459 -0.1111
  241MOL0     H31756   0.111  10.666   2.094  1.5252  0.3983  0.4920
  241MOL0     H31757   0.002  10.612   2.288 -0.6117 -1.6722 -2.9036
  241MOL0     H31758  -0.119  10.689   2.176  1.1033  0.3290 -1.3023
  241MOL0     H31759  -0.104  10.888   2.290  3.3645 -0.0929 -1.0403
  241MOL0     H31760   0.015  10.822   2.412  1.8118 -1.8656 -2.0505
  241MOL0     H31761  -0.281  10.792   2.381  0.8743 -0.0958 -2.5894
  241MOL0     H31762  -0.195  10.642   2.431  2.8206 -0.2325  2.7545
  241MOL0     H31763  -0.200  10.932   2.547 -1.5618  0.1676 -0.4852
  241MOL0     H31764  -0.142  10.794   2.644 -1.2445 -1.3263  1.1316
  241MOL0     H31765  -0.339  10.562   2.634 -0.9520  0.4496  0.0797
  241MOL0     H31766  -0.561  10.587   2.901  1.1191  0.1927 -0.4553
  241MOL0     H31767  -0.569  10.478   2.762  0.5348  1.9850 -2.3829
  241MOL0     H31768  -0.813  10.562   2.802 -0.2879  0.0273 -2.1234
  241MOL0     H31769  -0.749  10.668   2.675  0.4863  0.9201  0.6115
  241MOL0     H31770  -0.701  10.794   2.948  1.1767 -0.4096 -1.9020
  241MOL0     H31771  -0.783  10.851   2.806 -0.7868 -0.1504  0.5623
  241MOL0     H31772  -0.919  10.832   3.014 -0.3979 -0.3835  0.2116
  241MOL0     H31773  -0.903  10.650   3.005 -1.6881  1.8140  3.8338
  241MOL0     H31774  -1.208  10.724   2.681 -2.1517 -1.5222 -0.1667
  241MOL0     H31775  -1.453  10.722   2.747  0.0962 -2.4532  0.2313
  241MOL0     H31776  -1.795  10.632   2.696 -0.7085 -0.0268  0.0695
  241MOL0     H31777  -2.019  10.509   2.689 -0.8872  0.8448  0.4064
  241MOL0     H31778  -2.222  10.426   3.018  0.6560  1.4982 -1.9369
  241MOL0     H31779  -2.170  10.258   3.038 -0.2977 -1.2341 -1.4832
  241MOL0     H31780  -2.339  10.232   2.818  1.2065  1.0229  0.4598
  241MOL0     H31781  -2.383  10.390   2.850 -0.2905  1.0963  0.0665
  241MOL0     H31782  -2.465  10.349   3.064  2.6258 -0.5177  0.8101
  241MOL0     H31783  -2.424  10.182   3.069  0.0438  0.4421  1.4013
  241MOL0     H31784  -2.592  10.319   2.861 -1.1002 -0.1786  0.2258
  241MOL0     H31785  -2.549  10.142   2.851  1.0121  1.3899 -1.4681
  241MOL0     H31786  -2.787  10.183   2.938 -0.7205 -1.0667  0.4321
  241MOL0     H31787  -2.714  10.273   3.069  0.3699 -0.4747 -0.6207
  241MOL0     H31788  -2.750  10.055   3.158 -0.7491  0.3005 -0.5353
  241MOL0     H31789  -2.583  10.065   3.146 -2.1280  0.0160  3.2833
  241MOL0     H31790  -2.724   9.950   2.888 -0.8426  0.2535  0.1606
  241MOL0     H31791  -2.559   9.930   2.939  0.6520 -0.7668  0.7392
  241MOL0     H31792  -2.594   9.783   3.107  1.2011 -2.6436 -2.3250
  241MOL0     H31793  -2.689   9.722   2.986 -0.5069  0.4400 -0.6662
  241MOL0     H31794  -1.946  10.373   3.077 -0.6769  0.0188 -0.5239
  241MOL0     H31795  -1.743  10.526   3.095 -0.1333  2.5584  0.5151
  241MOL0     H31796  -1.334  10.699   3.161 -1.0860 -0.9283 -1.0011
  241MOL0     H31797  -1.117  10.730   3.107  1.2941 -1.2352 -1.0075
  241MOL0     H31798   0.759  10.640   1.975  0.7579 -0.1732 -1.2684
  241MOL0     H31799   0.893  10.431   1.936  0.5190 -0.1304  1.9079
  241MOL0     H31800   0.968   9.928   2.272 -0.0682 -0.3443  0.5842
  241MOL0     H31801   1.138   9.745   2.213  2.8500  1.2264  0.4565
  241MOL0     H31802   1.343   9.761   1.826 -1.3822 -1.4386  0.2060
  241MOL0     H31803   1.417   9.642   1.912  0.3997  1.1349 -3.6013
  241MOL0     H31804   1.476   9.931   1.983  0.5204  0.6614 -3.1974
  241MOL0     H31805   1.550   9.790   2.059 -0.1730  0.1949 -0.2300
  241MOL0     H31806   1.574   9.867   1.761 -0.6123  0.4945  0.6110
  241MOL0     H31807   1.645   9.721   1.846 -0.0487 -1.3544  2.3592
  241MOL0     H31808   1.782   9.937   1.808  1.1604  0.2700  0.4110
  241MOL0     H31809   1.679  10.022   1.922  1.0391  0.1073  0.5846
  241MOL0     H31810   1.923   9.881   2.205 -1.5785  1.0871  1.4290
  241MOL0     H31811   1.223   9.941   1.849 -2.9952  1.8390 -1.4709
  241MOL0     H31812   1.044  10.080   1.869  0.0261 -2.7019 -1.0929
  242MOL0     O31813   8.879   2.841   8.068 -0.1570  0.9582 -0.2985
  242MOL0     C31814   8.944   2.772   8.149  1.1507  0.6432 -0.4198
  242MOL0     O31815   8.888   2.680   8.233 -0.7864 -0.0287  0.4423
  242MOL0     C31816   8.753   2.669   8.228 -1.0922 -1.0167 -0.0052
  242MOL0     C31817   8.684   2.740   8.329  0.7960 -0.2655  0.3816
  242MOL0     C31818   8.543   2.727   8.330 -0.6320  0.0408  0.3141
  242MOL0     C31819   8.472   2.652   8.241  0.0163 -0.3047  0.4753
  242MOL0     O31820   8.331   2.651   8.246  0.2108  0.4429 -0.6423
  242MOL0     C31821   8.257   2.550   8.168  0.1170 -0.5088  0.4093
  242MOL0     C31822   8.118   2.563   8.231  0.2161 -0.2233  0.1655
  242MOL0     C31823   8.020   2.479   8.148  0.5914  0.3414 -0.4961
  242MOL0     C31824   7.896   2.444   8.223 -0.3302 -0.3269  0.7037
  242MOL0     C31825   7.823   2.575   8.256 -0.3454 -0.5535 -0.5113
  242MOL0     C31826   7.673   2.543   8.300  0.4024  0.2692 -0.0155
  242MOL0     C31827   7.592   2.526   8.173 -0.0435  0.5146  0.4236
  242MOL0     C31828   7.440   2.521   8.207 -0.2397 -0.0556  0.6587
  242MOL0     N31829   7.353   2.448   8.109  0.2822  0.5103 -0.7262
  242MOL0     C31830   7.356   2.314   8.082  0.3867 -0.4046  0.0229
  242MOL0     C31831   7.239   2.289   8.002  0.3198  0.5408 -0.8333
  242MOL0     C31832   7.199   2.161   7.942 -0.1447 -0.3049 -0.7074
  242MOL0     C31833   7.320   2.089   7.882 -0.9288  0.1326 -0.0474
  242MOL0     C31834   7.364   2.129   7.739 -0.0732 -0.5616  0.0239
  242MOL0     C31835   7.430   2.267   7.712  0.2594  0.6611  0.5321
  242MOL0     O31836   7.444   2.274   7.561  0.4229  0.0602 -0.8261
  242MOL0     C31837   7.324   2.275   7.486  0.2523 -0.3702  0.5427
  242MOL0     C31838   7.205   2.322   7.531 -0.0515 -1.0318  0.1438
  242MOL0     C31839   7.081   2.303   7.460  0.3503 -0.5612  0.6560
  242MOL0     C31840   7.084   2.226   7.342  0.0148 -0.2989  0.3302
  242MOL0     C31841   6.961   2.184   7.278  0.7677  0.0667  0.3023
  242MOL0     O31842   6.893   2.074   7.320 -0.8153 -0.5810  0.3865
  242MOL0     C31843   6.771   2.037   7.272  0.3706 -1.1249 -0.5698
  242MOL0     C31844   6.726   2.051   7.135  0.2776  0.1284  0.1307
  242MOL0     C31845   6.606   1.981   7.083  0.4628 -0.7540  0.0088
  242MOL0     C31846   6.520   1.920   7.176 -0.0725 -0.1992  0.1152
  242MOL0     O31847   6.404   1.857   7.141  0.0951  0.9260  0.1077
  242MOL0     C31848   6.324   1.886   7.021 -0.5203  0.4517  0.6622
  242MOL0     C31849   6.207   1.787   7.006 -0.4548  1.2837 -0.3784
  242MOL0     C31850   6.093   1.826   7.088 -0.0149 -0.1891 -0.3655
  242MOL0     C31851   5.987   1.721   7.064 -0.6968  0.0077  0.6121
  242MOL0     C31852   5.869   1.742   7.159 -0.3763  1.3243 -0.5955
  242MOL0     C31853   5.788   1.869   7.140 -0.4474  0.7227  0.6327
  242MOL0     C31854   5.692   1.888   7.248  0.5364  0.4477  0.0936
  242MOL0     C31855   5.584   1.777   7.255 -0.2322  0.0983 -0.2856
  242MOL0    Cl31856   5.449   1.827   7.354 -0.2766 -0.0357 -0.2657
  242MOL0     C31857   6.561   1.912   7.303 -0.4412  1.3037 -0.8497
  242MOL0     C31858   6.684   1.964   7.354 -0.3212 -0.2383  0.1021
  242MOL0     O31859   6.939   2.256   7.179 -1.0138 -0.3950  0.2441
  242MOL0     C31860   7.206   2.177   7.290 -0.4063 -0.2430  0.0840
  242MOL0     C31861   7.323   2.196   7.367  0.3498 -0.3219 -0.8180
  242MOL0     N31862   7.175   2.415   7.980  0.0696  0.2574  0.1086
  242MOL0     N31863   7.253   2.503   8.041  0.2078 -0.3108  0.2858
  242MOL0     C31864   8.551   2.584   8.138  0.3290  0.7203  0.5282
  242MOL0     C31865   8.688   2.590   8.131 -0.9624 -0.3243 -0.0532
  242MOL0     C31866   9.084   2.773   8.158 -0.2623  0.7132 -0.6485
  242MOL0     C31867   9.152   2.723   8.266 -0.1882  0.3089 -0.1028
  242MOL0     C31868   9.290   2.736   8.280  0.3124 -0.8200  0.0319
  242MOL0     C31869   9.372   2.793   8.182 -0.3370  0.4167  0.6347
  242MOL0     O31870   9.509   2.787   8.211  0.0678 -0.0161  0.0566
  242MOL0     C31871   9.590   2.858   8.122  0.2968 -0.4863  0.1304
  242MOL0     C31872   9.631   2.776   8.001 -1.2234 -0.1741  0.3338
  242MOL0     C31873   9.718   2.853   7.900 -0.1756  0.0677 -0.0561
  242MOL0     C31874   9.863   2.865   7.952 -0.6460  0.2040 -0.1252
  242MOL0     C31875   9.931   2.737   7.958  0.1847 -0.0263  1.0273
  242MOL0     C31876   9.960   2.616   7.959 -0.7659  0.4971 -0.1842
  242MOL0     C31877   9.305   2.837   8.067  0.4473  1.0319  0.2914
  242MOL0     C31878   9.164   2.818   8.054  0.0078  0.0293 -0.4682
  242MOL0     H31879   8.724   2.800   8.410 -1.4361  1.1330  0.5333
  242MOL0     H31880   8.482   2.773   8.407 -0.0874  1.0491  0.1644
  242MOL0     H31881   8.301   2.455   8.200  0.8658 -0.2777  0.0850
  242MOL0     H31882   8.265   2.567   8.060 -1.4265 -0.6280  0.2506
  242MOL0     H31883   8.085   2.667   8.240 -0.7514 -0.5180  0.1712
  242MOL0     H31884   8.119   2.533   8.336  2.5302 -2.5223 -0.4216
  242MOL0     H31885   8.062   2.382   8.119  2.3624  1.0502 -0.4182
  242MOL0     H31886   7.996   2.535   8.057  1.0116  0.9150 -0.2635
  242MOL0     H31887   7.830   2.378   8.165 -0.1282 -2.1774  2.4634
  242MOL0     H31888   7.912   2.396   8.320 -1.7780 -1.0384  0.6269
  242MOL0     H31889   7.818   2.637   8.166  0.5529 -1.8257 -1.4575
  242MOL0     H31890   7.865   2.623   8.345 -0.7201 -0.1453 -0.5527
  242MOL0     H31891   7.644   2.631   8.359 -1.6792  0.5986 -1.4125
  242MOL0     H31892   7.664   2.456   8.365 -0.8932  1.3368  1.2915
  242MOL0     H31893   7.619   2.607   8.105  2.1459 -1.2472 -0.9477
  242MOL0     H31894   7.632   2.437   8.124  0.0886 -0.3067  1.9398
  242MOL0     H31895   7.402   2.623   8.220  0.8157  0.5125 -0.4715
  242MOL0     H31896   7.411   2.471   8.300 -5.9680 -1.0716 -1.2529
  242MOL0     H31897   7.427   2.237   8.111  2.1826  0.2219 -2.3714
  242MOL0     H31898   7.125   2.180   7.863  0.5704 -1.6187 -1.7527
  242MOL0     H31899   7.156   2.098   8.020  1.2146 -2.6082 -1.7174
  242MOL0     H31900   7.292   1.983   7.874  0.5525 -0.2066 -1.3401
  242MOL0     H31901   7.412   2.092   7.941 -1.1154  1.4064  0.1948
  242MOL0     H31902   7.450   2.067   7.710  2.2094  2.5596 -0.4667
  242MOL0     H31903   7.270   2.116   7.685 -0.7499  3.7888 -0.1867
  242MOL0     H31904   7.527   2.265   7.762 -0.8869 -0.0081  2.8768
  242MOL0     H31905   7.372   2.350   7.755 -0.1138 -0.5368  2.4367
  242MOL0     H31906   7.194   2.390   7.615  1.1296  2.6438 -2.4640
  242MOL0     H31907   6.985   2.345   7.490  0.7608  1.0849 -0.1990
  242MOL0     H31908   6.781   2.113   7.064 -0.5988  0.1943 -0.5141
  242MOL0     H31909   6.589   1.978   6.976  1.5119  0.2715 -0.2117
  242MOL0     H31910   6.385   1.852   6.936 -0.9698 -0.2320  0.6034
  242MOL0     H31911   6.285   1.987   7.006 -1.9733 -0.4125 -2.0304
  242MOL0     H31912   6.245   1.691   7.041  1.7522  2.2089 -0.0775
  242MOL0     H31913   6.184   1.786   6.899  2.5932  0.6154 -1.1370
  242MOL0     H31914   6.056   1.926   7.066 -1.4714 -1.1387 -2.6714
  242MOL0     H31915   6.131   1.829   7.191  1.4770  0.5531 -0.8992
  242MOL0     H31916   5.944   1.708   6.964 -1.7040  1.3926  0.8394
  242MOL0     H31917   6.035   1.628   7.095  0.3702  0.7688  1.2834
  242MOL0     H31918   5.904   1.757   7.262 -0.9558  0.5951 -0.2807
  242MOL0     H31919   5.806   1.653   7.147  0.1022  0.8417  0.3254
  242MOL0     H31920   5.737   1.874   7.043 -0.2620  1.9514  0.5800
  242MOL0     H31921   5.856   1.955   7.139  1.3797 -0.6153  2.2294
  242MOL0     H31922   5.735   1.909   7.347  1.6517  1.4191 -0.5786
  242MOL0     H31923   5.643   1.981   7.217  1.3078 -0.0124 -2.7122
  242MOL0     H31924   5.627   1.689   7.305  1.4791  0.8699 -0.3214
  242MOL0     H31925   5.548   1.751   7.155 -0.2479 -0.9887 -0.0159
  242MOL0     H31926   6.497   1.857   7.372  1.5905  3.1822  2.8357
  242MOL0     H31927   6.716   1.943   7.456  0.7093  2.8262  0.5013
  242MOL0     H31928   7.198   2.105   7.209  0.0666  0.0981 -0.2703
  242MOL0     H31929   7.421   2.151   7.353  1.2094  0.4827  1.9315
  242MOL0     H31930   8.500   2.533   8.056 -0.7527 -1.2149  2.3110
  242MOL0     H31931   8.737   2.542   8.047 -2.6522 -3.3391  0.5426
  242MOL0     H31932   9.110   2.676   8.354  1.6877  3.5378  2.8070
  242MOL0     H31933   9.346   2.698   8.365  0.0289 -0.6381  0.3025
  242MOL0     H31934   9.681   2.884   8.177  1.5631 -1.3881 -1.4244
  242MOL0     H31935   9.542   2.950   8.086  0.5571 -0.2182  0.4569
  242MOL0     H31936   9.688   2.690   8.038  1.5025  0.8028 -1.2850
  242MOL0     H31937   9.544   2.734   7.949 -0.6117 -2.2742  0.8820
  242MOL0     H31938   9.662   2.946   7.886  2.4769  1.9253  0.6926
  242MOL0     H31939   9.719   2.811   7.799  1.8071  1.2626 -0.5953
  242MOL0     H31940   9.914   2.942   7.895 -1.9430  0.8838 -0.4118
  242MOL0     H31941   9.866   2.893   8.058 -0.3141 -2.2020  0.5667
  242MOL0     H31942  10.000   2.518   7.973  1.1184  0.8572 -2.3055
  242MOL0     H31943   9.358   2.883   7.984  0.3971 -0.3959 -0.5717
  242MOL0     H31944   9.115   2.838   7.959 -0.1654 -3.4482 -1.2542
  243MOL0     O31945   8.088   0.953   2.090  0.0647 -0.1458  0.4790
  243MOL0     C31946   8.065   0.877   2.184  0.1531 -0.4224  0.0572
  243MOL0     O31947   7.937   0.837   2.221 -0.2699  0.7447  0.0662
  243MOL0     C31948   7.827   0.852   2.136  0.0580 -0.8491  0.1623
  243MOL0     C31949   7.699   0.839   2.195 -0.5846  0.8118 -0.4004
  243MOL0     C31950   7.584   0.853   2.116  0.4236  0.0206 -0.1293
  243MOL0     C31951   7.587   0.863   1.978  0.5370  0.3240  0.9412
  243MOL0     O31952   7.471   0.889   1.910 -0.2884 -0.0390 -0.3141
  243MOL0     C31953   7.453   1.015   1.834 -1.6544  1.1617 -1.1448
  243MOL0     C31954   7.309   1.033   1.790  0.2825 -0.8619 -0.6142
  243MOL0     C31955   7.213   1.069   1.906 -0.8392 -0.4178  0.2932
  243MOL0     C31956   7.068   1.080   1.851  0.2319 -1.2614  0.7653
  243MOL0     C31957   6.960   1.101   1.955  0.3771 -0.2511 -0.0162
  243MOL0     C31958   6.821   1.105   1.890 -0.1768 -0.2798  0.7558
  243MOL0     C31959   6.703   1.089   1.985 -1.1437  0.3798  0.1744
  243MOL0     C31960   6.576   1.070   1.907 -0.5984  0.0547 -0.0326
  243MOL0     N31961   6.533   1.196   1.849  0.2343  0.3702  0.3103
  243MOL0     C31962   6.564   1.235   1.718 -0.8637  0.0723  0.0128
  243MOL0     C31963   6.479   1.343   1.691 -0.0581  0.6968 -0.3917
  243MOL0     C31964   6.475   1.433   1.566 -0.5606  0.7103  0.2526
  243MOL0     C31965   6.332   1.446   1.520 -0.0282 -0.1229  0.3573
  243MOL0     C31966   6.264   1.312   1.486  0.0949  0.4953 -0.3932
  243MOL0     C31967   6.149   1.321   1.388 -0.3455 -0.0722 -0.5260
  243MOL0     O31968   6.047   1.406   1.447  0.0706  0.7445  0.0405
  243MOL0     C31969   5.921   1.388   1.405 -0.1903 -0.8256 -1.0194
  243MOL0     C31970   5.885   1.426   1.274 -0.1573 -0.4927 -0.1519
  243MOL0     C31971   5.745   1.413   1.230 -0.0729  0.1831 -0.1231
  243MOL0     C31972   5.648   1.364   1.322 -1.1790  0.8064 -0.5540
  243MOL0     C31973   5.504   1.362   1.295  0.6877 -0.3946 -0.2176
  243MOL0     O31974   5.419   1.373   1.409  0.4173  0.1059 -0.7388
  243MOL0     C31975   5.285   1.390   1.394  0.6161  1.7938 -0.3136
  243MOL0     C31976   5.227   1.463   1.289  0.3617  0.8799  0.6120
  243MOL0     C31977   5.088   1.467   1.278  0.5410  0.6865  0.8770
  243MOL0     C31978   5.000   1.408   1.361 -0.5274  0.4155 -0.2435
  243MOL0     O31979   4.867   1.436   1.334 -0.4319 -1.5326  0.2734
  243MOL0     C31980   4.788   1.317   1.344 -0.2758 -1.0383 -0.2393
  243MOL0     C31981   4.679   1.290   1.243 -0.0663 -0.0348 -0.2973
  243MOL0     C31982   4.706   1.352   1.101  0.1273  0.0308  0.2983
  243MOL0     C31983   4.596   1.314   0.998  0.4557 -0.8139 -0.7614
  243MOL0     C31984   4.468   1.386   1.038  0.6817  0.3197  0.9815
  243MOL0     C31985   4.376   1.369   0.909 -1.0019 -0.4164 -0.9110
  243MOL0     C31986   4.231   1.429   0.928 -0.1004  0.1420 -0.6848
  243MOL0     C31987   4.151   1.420   0.802 -0.5618 -0.4183 -0.5106
  243MOL0    Cl31988   4.007   1.526   0.798 -0.1412 -0.2259 -0.0602
  243MOL0     C31989   5.057   1.331   1.459  0.0343 -0.5546 -0.2777
  243MOL0     C31990   5.198   1.319   1.481 -0.1754 -0.2089 -0.2755
  243MOL0     O31991   5.467   1.364   1.181  0.2331 -0.4750 -0.2531
  243MOL0     C31992   5.692   1.319   1.439 -0.3573  0.1723 -1.1385
  243MOL0     C31993   5.820   1.341   1.488 -0.2428 -0.2571 -0.5125
  243MOL0     N31994   6.403   1.364   1.804  0.2776 -0.5680  0.0268
  243MOL0     N31995   6.433   1.274   1.895 -0.1284  0.0931  0.9084
  243MOL0     C31996   7.712   0.870   1.917  0.1286  0.5725  0.1354
  243MOL0     C31997   7.829   0.872   1.992 -0.3745 -0.4076  0.1910
  243MOL0     C31998   8.184   0.842   2.276  0.3256  0.5277  0.4959
  243MOL0     C31999   8.312   0.890   2.250 -0.2133 -0.7091  0.3390
  243MOL0     C32000   8.414   0.879   2.350  0.0355  0.5323  0.2225
  243MOL0     C32001   8.387   0.811   2.466 -0.0362 -0.1075 -0.5054
  243MOL0     O32002   8.478   0.806   2.573 -0.4623 -0.0004  0.1179
  243MOL0     C32003   8.611   0.859   2.562 -0.0986 -1.9245 -0.6066
  243MOL0     C32004   8.708   0.791   2.471  0.2433  0.9214  0.8677
  243MOL0     C32005   8.770   0.664   2.537  0.8308 -0.0724 -0.4927
  243MOL0     C32006   8.890   0.608   2.466  0.1386 -0.3868  0.5660
  243MOL0     C32007   8.845   0.557   2.340 -0.2856  0.3034  0.0691
  243MOL0     C32008   8.803   0.510   2.235  0.3999  0.3769  0.3690
  243MOL0     C32009   8.257   0.767   2.490  0.1397 -0.3042  0.4731
  243MOL0     C32010   8.157   0.799   2.395 -0.4337  0.7114 -0.8298
  243MOL0     H32011   7.679   0.819   2.300 -1.8452 -2.5411 -1.1569
  243MOL0     H32012   7.494   0.859   2.177  2.1872 -0.4040  2.7230
  243MOL0     H32013   7.505   1.005   1.739 -1.1897  0.8291 -0.8574
  243MOL0     H32014   7.489   1.095   1.899 -0.1987  1.8778 -2.7630
  243MOL0     H32015   7.268   0.944   1.741 -1.4579 -1.6264  2.0272
  243MOL0     H32016   7.309   1.115   1.718  0.9965 -1.4167 -1.2617
  243MOL0     H32017   7.236   1.164   1.956 -0.5305  0.7976 -2.0244
  243MOL0     H32018   7.211   0.989   1.981 -0.4825 -0.9452 -0.2487
  243MOL0     H32019   7.072   1.173   1.794  3.0233 -1.0656  1.0974
  243MOL0     H32020   7.050   0.999   1.781 -0.0015 -1.0580  0.5897
  243MOL0     H32021   6.976   1.191   2.017  1.5842  1.2001 -2.3061
  243MOL0     H32022   6.963   1.014   2.021  2.3707  0.8317  1.4225
  243MOL0     H32023   6.809   1.016   1.827 -1.7581  0.0522  0.5546
  243MOL0     H32024   6.820   1.196   1.828 -1.7994 -1.1016 -0.4850
  243MOL0     H32025   6.726   1.004   2.051  0.5152  1.9216  1.7064
  243MOL0     H32026   6.695   1.181   2.044 -4.1698  0.5713 -0.3451
  243MOL0     H32027   6.493   1.024   1.961 -2.1509  0.9622 -1.5239
  243MOL0     H32028   6.599   0.994   1.832 -0.8484  0.4898 -0.5579
  243MOL0     H32029   6.643   1.191   1.658 -2.2951 -3.4191  0.4306
  243MOL0     H32030   6.543   1.402   1.486 -1.1833  0.5153 -0.2075
  243MOL0     H32031   6.521   1.528   1.595 -0.8579  0.5929  1.1661
  243MOL0     H32032   6.327   1.521   1.441  0.5429 -2.4732 -2.0650
  243MOL0     H32033   6.282   1.496   1.603  0.3843  2.6912 -0.9842
  243MOL0     H32034   6.331   1.239   1.439  0.4532  0.2419  0.4898
  243MOL0     H32035   6.230   1.265   1.579  0.2044  0.7539 -0.2202
  243MOL0     H32036   6.107   1.221   1.372 -2.5389  0.4410  1.3771
  243MOL0     H32037   6.179   1.370   1.295 -0.8612 -0.2277 -0.7822
  243MOL0     H32038   5.953   1.471   1.202 -0.2651 -1.0300 -0.6006
  243MOL0     H32039   5.716   1.452   1.133  1.1546 -1.4396 -1.1876
  243MOL0     H32040   5.300   1.498   1.216  0.0567 -0.7846 -0.5466
  243MOL0     H32041   5.045   1.528   1.199 -0.7913 -0.2477  0.8455
  243MOL0     H32042   4.729   1.334   1.435  2.3553  1.3669  1.1945
  243MOL0     H32043   4.840   1.221   1.348  0.7959 -0.4488  1.2660
  243MOL0     H32044   4.588   1.328   1.289  0.7858  1.1853  0.4260
  243MOL0     H32045   4.665   1.183   1.228  0.3844 -0.2220  0.5973
  243MOL0     H32046   4.802   1.312   1.067 -0.6264 -1.6816  0.0926
  243MOL0     H32047   4.712   1.461   1.101  2.3983 -0.0417 -1.1808
  243MOL0     H32048   4.624   1.347   0.898 -1.0017  1.3330 -0.5114
  243MOL0     H32049   4.568   1.208   0.998 -2.0737 -0.2084 -0.6577
  243MOL0     H32050   4.493   1.489   1.063  2.3232 -0.3305  2.1842
  243MOL0     H32051   4.417   1.336   1.121  0.8697  2.6835  2.5880
  243MOL0     H32052   4.371   1.261   0.892  3.4208 -0.4246 -3.4997
  243MOL0     H32053   4.428   1.409   0.822  0.6191 -2.0129 -0.7434
  243MOL0     H32054   4.187   1.371   1.010 -0.0345  0.2292 -0.5872
  243MOL0     H32055   4.225   1.531   0.967 -2.6033 -0.6282  1.2657
  243MOL0     H32056   4.117   1.318   0.784 -0.1418 -0.3521 -1.8110
  243MOL0     H32057   4.206   1.452   0.712 -0.9824 -2.3336 -1.5031
  243MOL0     H32058   4.999   1.278   1.535  2.8445  0.1644  2.5889
  243MOL0     H32059   5.226   1.246   1.557 -1.9103 -1.7964 -1.0781
  243MOL0     H32060   5.614   1.275   1.501 -0.1381  0.7224 -0.4646
  243MOL0     H32061   5.851   1.318   1.589  1.1422 -1.0438 -1.0885
  243MOL0     H32062   7.715   0.880   1.809  0.1551  1.5096  0.2106
  243MOL0     H32063   7.923   0.875   1.937  0.4187 -1.4938  1.4296
  243MOL0     H32064   8.327   0.941   2.155 -0.1281 -0.1097  0.6700
  243MOL0     H32065   8.515   0.915   2.336  0.0321  0.7986  0.8363
  243MOL0     H32066   8.646   0.858   2.666  1.0186  0.9702 -0.8493
  243MOL0     H32067   8.589   0.964   2.539 -3.2424 -1.9357  1.6856
  243MOL0     H32068   8.647   0.762   2.385 -0.5567 -2.0895  2.2850
  243MOL0     H32069   8.786   0.862   2.441 -1.1154  1.4435 -1.7446
  243MOL0     H32070   8.693   0.592   2.564 -1.7937  2.3186 -1.1654
  243MOL0     H32071   8.814   0.704   2.630 -0.1186  0.1124 -0.1084
  243MOL0     H32072   8.967   0.684   2.450  0.0568 -0.0691  1.6173
  243MOL0     H32073   8.932   0.532   2.533  0.4644 -0.6971  0.0141
  243MOL0     H32074   8.752   0.475   2.149  1.9672  0.2063 -0.5368
  243MOL0     H32075   8.235   0.725   2.587 -3.3175  0.2151  0.0541
  243MOL0     H32076   8.054   0.770   2.415  0.0915 -2.0457 -1.6801
  244MOL0     O32077   9.318   0.605   3.254  0.3495  0.2402  0.0947
  244MOL0     C32078   9.302   0.544   3.355  1.3634  0.0062  0.1593
  244MOL0     O32079   9.180   0.521   3.421 -0.7859  0.8990 -0.5982
  244MOL0     C32080   9.057   0.569   3.384 -0.0433 -0.3137  0.4849
  244MOL0     C32081   9.024   0.692   3.327 -0.4768  0.2057 -0.0109
  244MOL0     C32082   8.895   0.745   3.315  0.0765 -1.0582 -0.4140
  244MOL0     C32083   8.787   0.674   3.386 -0.2198  0.2983 -0.3752
  244MOL0     O32084   8.657   0.715   3.418 -0.4526 -0.2073 -0.0072
  244MOL0     C32085   8.578   0.764   3.318  0.9390  0.0355  0.0472
  244MOL0     C32086   8.455   0.836   3.385 -0.2447 -0.2267  0.1980
  244MOL0     C32087   8.380   0.922   3.290  0.1346 -0.4597  0.7536
  244MOL0     C32088   8.262   0.994   3.359  0.3726  0.1507  0.6386
  244MOL0     C32089   8.197   1.098   3.258 -0.4106  1.0002  0.1490
  244MOL0     C32090   8.123   1.214   3.327 -0.6809 -0.2036  0.2736
  244MOL0     C32091   8.052   1.299   3.225 -0.5230  0.0344 -0.7799
  244MOL0     C32092   8.139   1.352   3.105  0.7345  0.1296  0.5283
  244MOL0     N32093   8.064   1.406   2.983  0.0988  0.0030  0.3214
  244MOL0     C32094   7.963   1.498   2.977  0.8252 -0.8329  0.0185
  244MOL0     C32095   7.916   1.513   2.845  0.3115  0.7936 -0.3524
  244MOL0     C32096   7.810   1.603   2.807  0.5887 -0.5911  0.2512
  244MOL0     C32097   7.690   1.546   2.731  0.8705  0.1452  0.5784
  244MOL0     C32098   7.620   1.419   2.796 -0.2838  0.6693 -0.2537
  244MOL0     C32099   7.492   1.388   2.718 -0.6904  0.2228  0.8069
  244MOL0     O32100   7.403   1.499   2.716  0.6893 -0.0773  0.1027
  244MOL0     C32101   7.267   1.475   2.710  0.2505  0.0331  0.4308
  244MOL0     C32102   7.174   1.579   2.681  0.1267 -0.7706  0.4185
  244MOL0     C32103   7.034   1.557   2.678 -0.3505 -0.2947  0.3984
  244MOL0     C32104   6.973   1.431   2.705 -0.2920  0.4947 -1.1808
  244MOL0     C32105   6.829   1.411   2.717 -0.4221 -0.0770 -0.0707
  244MOL0     O32106   6.755   1.506   2.649 -0.2661 -0.3882 -0.5026
  244MOL0     C32107   6.620   1.499   2.631 -0.7262  0.4349 -0.0484
  244MOL0     C32108   6.535   1.437   2.727 -0.9839 -0.6146 -0.3968
  244MOL0     C32109   6.401   1.421   2.695  0.0875 -0.2016  0.0652
  244MOL0     C32110   6.350   1.475   2.576  0.1259  0.5831 -0.2733
  244MOL0     O32111   6.214   1.468   2.541  0.2678  0.1622 -0.6975
  244MOL0     C32112   6.143   1.352   2.590 -0.4000 -0.3932 -0.3289
  244MOL0     C32113   6.046   1.287   2.484  0.6750 -0.9151  1.1318
  244MOL0     C32114   5.911   1.368   2.484  0.8624 -0.1776  0.0428
  244MOL0     C32115   5.824   1.331   2.364  0.7919  0.0945 -0.0622
  244MOL0     C32116   5.706   1.433   2.357  0.6412 -0.3904  0.2717
  244MOL0     C32117   5.596   1.360   2.276 -0.4858 -0.3236 -0.4968
  244MOL0     C32118   5.470   1.447   2.273  1.0716  0.3155  0.0257
  244MOL0     C32119   5.381   1.374   2.173 -0.0527  0.2177  0.1635
  244MOL0    Cl32120   5.448   1.349   1.998  0.0971  0.1456 -0.0514
  244MOL0     C32121   6.430   1.547   2.486  0.4901  0.3268  0.4537
  244MOL0     C32122   6.565   1.561   2.522 -0.2764 -0.0264  0.4235
  244MOL0     O32123   6.787   1.299   2.765  0.0159 -0.3973  0.3886
  244MOL0     C32124   7.074   1.321   2.731 -0.4362 -0.6636 -0.6878
  244MOL0     C32125   7.211   1.345   2.728  0.5779 -0.7736  0.3531
  244MOL0     N32126   7.999   1.424   2.771  0.0120 -0.0416 -1.1208
  244MOL0     N32127   8.089   1.373   2.857 -0.3448 -0.8041 -0.0295
  244MOL0     C32128   8.819   0.557   3.454 -0.1240  0.5649  0.3888
  244MOL0     C32129   8.953   0.510   3.452 -0.0930  0.5765  0.1723
  244MOL0     C32130   9.399   0.456   3.388  0.1316 -0.6691 -0.7471
  244MOL0     C32131   9.367   0.328   3.448  0.3013  0.2720  0.8862
  244MOL0     C32132   9.461   0.229   3.470 -0.3261  0.3268  0.3363
  244MOL0     C32133   9.596   0.251   3.441  0.4511 -0.6044  0.1272
  244MOL0     O32134   9.691   0.157   3.466  0.4930  0.5342 -0.0515
  244MOL0     C32135   9.709   0.128   3.605 -0.3491  0.3514 -0.7646
  244MOL0     C32136   9.847   0.179   3.660  0.0156  0.4342 -0.3791
  244MOL0     C32137   9.956   0.086   3.630 -0.1232 -0.5209  0.9449
  244MOL0     C32138  10.077   0.106   3.714  0.4753  0.6702 -0.1422
  244MOL0     C32139  10.195   0.036   3.659 -0.4615 -0.3265  0.6516
  244MOL0     C32140  10.299  -0.003   3.605 -0.3366  0.5266 -0.4176
  244MOL0     C32141   9.632   0.372   3.368 -0.7578 -0.9693 -0.1428
  244MOL0     C32142   9.533   0.468   3.336 -0.4046 -0.7306 -0.1750
  244MOL0     H32143   9.105   0.745   3.278 -0.9828 -0.7444 -1.9904
  244MOL0     H32144   8.867   0.825   3.247 -1.7958 -2.5228 -1.4754
  244MOL0     H32145   8.557   0.678   3.254  1.7147 -1.5686  1.8581
  244MOL0     H32146   8.632   0.839   3.259  0.7162 -0.9827 -1.5053
  244MOL0     H32147   8.502   0.906   3.455  1.2850  0.4253 -1.4022
  244MOL0     H32148   8.387   0.768   3.437  0.0521  0.2258  1.1969
  244MOL0     H32149   8.338   0.863   3.209 -1.2340  0.0514  1.0622
  244MOL0     H32150   8.445   0.998   3.247 -1.6088  1.5610  1.4844
  244MOL0     H32151   8.178   0.927   3.378  1.4481 -1.6639 -0.6716
  244MOL0     H32152   8.292   1.038   3.455 -4.5457  2.2057  1.5330
  244MOL0     H32153   8.123   1.050   3.194  2.3680 -1.2673 -1.5968
  244MOL0     H32154   8.279   1.125   3.190 -0.9286  1.1732 -0.4122
  244MOL0     H32155   8.196   1.281   3.373 -0.0051 -1.6087  1.3531
  244MOL0     H32156   8.060   1.175   3.408 -1.1382 -1.3884 -0.6194
  244MOL0     H32157   7.984   1.220   3.194 -2.2521  0.1220  2.3382
  244MOL0     H32158   8.002   1.385   3.270  2.3391  0.4812  1.9540
  244MOL0     H32159   8.206   1.268   3.082 -0.6270 -1.4689  2.1531
  244MOL0     H32160   8.199   1.434   3.146  0.9431  0.4162 -0.3250
  244MOL0     H32161   7.915   1.565   3.048 -1.4592 -1.8639 -0.4712
  244MOL0     H32162   7.859   1.666   2.731 -0.5277  0.6673  0.5360
  244MOL0     H32163   7.773   1.661   2.892 -1.1578  1.6796 -1.9103
  244MOL0     H32164   7.719   1.512   2.631 -3.0503 -0.3469 -0.5530
  244MOL0     H32165   7.612   1.622   2.718  3.3679  3.0169  1.2603
  244MOL0     H32166   7.699   1.343   2.791 -0.7700  0.2359 -1.8331
  244MOL0     H32167   7.598   1.442   2.901  2.4426 -0.7601  0.7525
  244MOL0     H32168   7.461   1.305   2.782  1.0841 -1.2197 -0.1017
  244MOL0     H32169   7.506   1.352   2.616  0.4235 -0.0128  1.0244
  244MOL0     H32170   7.215   1.679   2.672 -0.2656 -0.2776  3.3077
  244MOL0     H32171   6.979   1.649   2.659  2.4080  0.5999 -5.2105
  244MOL0     H32172   6.573   1.407   2.824  1.8409  2.7486 -0.2697
  244MOL0     H32173   6.326   1.384   2.764 -1.7293 -1.4059 -2.4173
  244MOL0     H32174   6.089   1.370   2.684  1.5754  4.7188  0.1759
  244MOL0     H32175   6.209   1.267   2.608  0.8714  0.2440 -1.7835
  244MOL0     H32176   6.023   1.184   2.515 -1.3949 -1.1332 -0.8775
  244MOL0     H32177   6.098   1.300   2.389  1.6352  5.3719  2.0964
  244MOL0     H32178   5.936   1.470   2.456  2.1134 -1.2661 -3.2868
  244MOL0     H32179   5.858   1.355   2.578 -1.7323 -0.4437 -1.3590
  244MOL0     H32180   5.887   1.332   2.275  1.8471  1.8332  0.6624
  244MOL0     H32181   5.788   1.229   2.385  0.3734  0.4473  1.0376
  244MOL0     H32182   5.742   1.528   2.317 -1.6272  0.2091 -0.4810
  244MOL0     H32183   5.665   1.455   2.456 -1.2685  0.1043 -0.5697
  244MOL0     H32184   5.578   1.270   2.336  0.4611  1.0890  2.0724
  244MOL0     H32185   5.634   1.329   2.178  2.4539 -4.3434  1.6254
  244MOL0     H32186   5.425   1.444   2.373 -1.3387  1.6524 -0.9138
  244MOL0     H32187   5.495   1.552   2.256  0.9447  0.6648  1.7855
  244MOL0     H32188   5.290   1.436   2.171  0.1485  0.6041  1.7423
  244MOL0     H32189   5.364   1.276   2.218 -0.7215  1.1557  2.0447
  244MOL0     H32190   6.390   1.584   2.392  0.2166  1.6455  1.0591
  244MOL0     H32191   6.647   1.601   2.464  0.5611 -0.3696  1.3303
  244MOL0     H32192   7.042   1.218   2.745 -4.2926  0.3931 -0.4507
  244MOL0     H32193   7.266   1.252   2.731  0.2220 -1.0438 -1.0010
  244MOL0     H32194   8.738   0.502   3.503 -0.3539 -1.8056 -2.4197
  244MOL0     H32195   8.964   0.429   3.522 -0.6495 -0.1044 -0.5053
  244MOL0     H32196   9.264   0.306   3.473 -1.4667  2.8770 -3.0958
  244MOL0     H32197   9.431   0.134   3.514 -1.3763  1.3945  2.0583
  244MOL0     H32198   9.722   0.020   3.616  4.1152  0.5213 -2.3187
  244MOL0     H32199   9.625   0.152   3.670 -0.3981  3.2378 -1.7625
  244MOL0     H32200   9.871   0.280   3.625  2.2297 -0.1697 -0.7216
  244MOL0     H32201   9.841   0.183   3.769  1.5240  2.0706 -0.3229
  244MOL0     H32202   9.998   0.121   3.535  0.9330 -1.4837  1.0440
  244MOL0     H32203   9.935  -0.021   3.621 -1.3354 -0.1783 -1.3018
  244MOL0     H32204  10.101   0.212   3.724 -0.2849  1.0775 -2.1769
  244MOL0     H32205  10.052   0.055   3.808 -1.4114 -1.2776 -1.6142
  244MOL0     H32206  10.377  -0.031   3.538 -0.1209 -2.1435  0.8512
  244MOL0     H32207   9.736   0.379   3.335 -0.0310 -3.3161  1.4136
  244MOL0     H32208   9.563   0.550   3.271  1.4086  0.2113  1.7241
  245MOL0     O32209   3.624   9.101   5.675 -0.1989  0.0348 -0.6185
  245MOL0     C32210   3.657   9.053   5.563 -0.0616 -0.5890  1.3792
  245MOL0     O32211   3.566   8.999   5.475 -0.6054 -0.7282 -0.5563
  245MOL0     C32212   3.431   9.012   5.502  0.0320  0.2031  0.2235
  245MOL0     C32213   3.370   9.139   5.498  0.0546  0.1094  0.7247
  245MOL0     C32214   3.226   9.151   5.528 -0.7171  1.3707  0.0759
  245MOL0     C32215   3.158   9.042   5.565 -0.1981 -0.0269 -0.4044
  245MOL0     O32216   3.031   9.054   5.613 -0.4913  0.2402  0.1120
  245MOL0     C32217   2.982   9.174   5.662 -0.1179  0.3551 -0.1060
  245MOL0     C32218   2.845   9.167   5.735  0.4944 -0.6416 -0.4595
  245MOL0     C32219   2.864   9.095   5.873 -0.2312  0.0507 -0.5369
  245MOL0     C32220   2.766   9.120   5.988 -0.5840 -0.6005 -0.4079
  245MOL0     C32221   2.800   9.012   6.098 -0.2449 -0.1895  0.5953
  245MOL0     C32222   2.675   9.007   6.182 -0.8074 -1.0141  0.7973
  245MOL0     C32223   2.680   8.938   6.319 -0.0735  0.1825  0.0868
  245MOL0     C32224   2.735   8.789   6.324 -0.2286 -0.6667 -0.0091
  245MOL0     N32225   2.650   8.703   6.236  0.4725  0.3809 -0.2182
  245MOL0     C32226   2.523   8.656   6.267  0.1580 -0.0429  0.5472
  245MOL0     C32227   2.468   8.597   6.157 -0.1076  0.0153  0.7049
  245MOL0     C32228   2.322   8.553   6.150 -0.7229 -0.9375 -0.8300
  245MOL0     C32229   2.214   8.663   6.181 -0.4257  0.7550 -0.7792
  245MOL0     C32230   2.219   8.778   6.073  0.6724  0.1720 -1.3540
  245MOL0     C32231   2.083   8.785   5.997  0.0311 -0.0130 -0.5738
  245MOL0     O32232   2.049   8.666   5.941  0.0734  0.8476  0.5236
  245MOL0     C32233   1.920   8.654   5.916  0.2823  1.2965 -0.2357
  245MOL0     C32234   1.869   8.529   5.929 -0.2530  0.2326 -0.3008
  245MOL0     C32235   1.744   8.494   5.898  0.0473  0.5372 -1.0310
  245MOL0     C32236   1.657   8.587   5.842  0.9301 -0.8393 -0.3195
  245MOL0     C32237   1.522   8.545   5.798  0.1503 -0.3331  0.1902
  245MOL0     O32238   1.452   8.645   5.728 -0.3270  0.5447  0.6183
  245MOL0     C32239   1.332   8.618   5.677  0.0207  0.3634  0.0748
  245MOL0     C32240   1.217   8.666   5.741 -0.1114  0.3673  0.3372
  245MOL0     C32241   1.091   8.628   5.708  0.5104  0.1791  0.5311
  245MOL0     C32242   1.068   8.553   5.592  0.0664  0.4953 -0.6570
  245MOL0     O32243   0.950   8.516   5.545  0.3970  0.2576  0.9632
  245MOL0     C32244   0.854   8.615   5.508 -0.0354  0.1293  0.4407
  245MOL0     C32245   0.743   8.625   5.623 -0.6222  0.0744 -0.4307
  245MOL0     C32246   0.687   8.479   5.633 -0.4372  0.5197  0.0491
  245MOL0     C32247   0.543   8.464   5.694 -0.3595  0.2385  0.0463
  245MOL0     C32248   0.495   8.318   5.693  0.1495  0.0696  0.0269
  245MOL0     C32249   0.362   8.313   5.769  0.1806  0.8764  0.1579
  245MOL0     C32250   0.321   8.165   5.780  1.3884 -0.2319  0.1289
  245MOL0     C32251   0.217   8.145   5.897  0.1631 -0.8267 -0.3161
  245MOL0    Cl32252   0.157   7.975   5.902 -0.3701 -0.4377 -0.1884
  245MOL0     C32253   1.181   8.513   5.512  0.5291 -0.2485  0.6507
  245MOL0     C32254   1.311   8.540   5.561 -0.0376  0.5042  1.0426
  245MOL0     O32255   1.479   8.433   5.818 -0.1200 -0.0151 -0.0893
  245MOL0     C32256   1.708   8.720   5.823 -2.0814  0.3517 -0.2716
  245MOL0     C32257   1.837   8.749   5.852  0.3717  0.3665  0.5675
  245MOL0     N32258   2.569   8.604   6.058 -0.1836 -0.2535  0.2759
  245MOL0     N32259   2.672   8.664   6.106 -0.3734 -0.4645  0.8593
  245MOL0     C32260   3.220   8.919   5.580  1.2646  0.4010  0.2229
  245MOL0     C32261   3.355   8.899   5.551 -0.0093 -0.6844  0.5044
  245MOL0     C32262   3.802   9.042   5.528  0.8308  0.4825 -0.5467
  245MOL0     C32263   3.840   8.951   5.427  0.4656 -0.6910 -0.3510
  245MOL0     C32264   3.973   8.938   5.401 -0.4380  1.1112 -0.4964
  245MOL0     C32265   4.072   8.998   5.497  0.3995 -0.5835  0.9755
  245MOL0     O32266   4.206   8.984   5.485 -0.4883  0.3799 -0.2867
  245MOL0     C32267   4.248   8.891   5.380 -0.1408 -1.6040  0.3058
  245MOL0     C32268   4.399   8.886   5.394  0.5131 -0.3044  0.5440
  245MOL0     C32269   4.460   8.785   5.306  0.5770  0.2773 -0.3097
  245MOL0     C32270   4.619   8.762   5.310  0.5969  1.0759 -0.2125
  245MOL0     C32271   4.679   8.890   5.316 -0.6865 -0.0654  0.7017
  245MOL0     C32272   4.753   8.993   5.322  0.4009  0.1044 -0.0859
  245MOL0     C32273   4.029   9.079   5.604  0.2291  0.5908 -0.1657
  245MOL0     C32274   3.896   9.110   5.611 -0.8459  1.0106  0.4278
  245MOL0     H32275   3.424   9.230   5.470 -0.8873  0.4210 -0.1535
  245MOL0     H32276   3.178   9.248   5.524 -0.7279  1.3769  0.3911
  245MOL0     H32277   2.973   9.237   5.574  1.4537 -0.5084 -0.9403
  245MOL0     H32278   3.056   9.208   5.736  2.0652 -1.9981 -1.0670
  245MOL0     H32279   2.771   9.116   5.674  0.2860 -0.3256 -0.4706
  245MOL0     H32280   2.808   9.268   5.754 -2.4794 -1.4476 -1.4479
  245MOL0     H32281   2.960   9.118   5.920 -0.3103 -0.6369 -0.0257
  245MOL0     H32282   2.860   8.987   5.857 -1.7366 -0.6532  3.5240
  245MOL0     H32283   2.782   9.220   6.030 -3.8480 -0.4956  0.8638
  245MOL0     H32284   2.662   9.115   5.956 -0.6623  1.4676 -0.5786
  245MOL0     H32285   2.891   9.051   6.145  0.9108 -2.1097  0.0332
  245MOL0     H32286   2.825   8.913   6.059  1.6794  0.6856 -0.5177
  245MOL0     H32287   2.603   8.953   6.122  0.2522  0.0780 -1.5874
  245MOL0     H32288   2.642   9.109   6.204  0.4222 -1.2361  4.3853
  245MOL0     H32289   2.748   8.994   6.383  0.4454 -0.8665  0.4822
  245MOL0     H32290   2.575   8.943   6.347 -1.6422 -0.2574 -4.7126
  245MOL0     H32291   2.728   8.754   6.427 -4.1846 -0.2319  0.0503
  245MOL0     H32292   2.838   8.786   6.288  0.2797 -1.8080  1.4442
  245MOL0     H32293   2.470   8.682   6.358  2.1102  0.8868  1.4781
  245MOL0     H32294   2.304   8.478   6.228 -1.2739 -2.5573 -2.4508
  245MOL0     H32295   2.308   8.519   6.047  1.3853 -1.3822 -1.0153
  245MOL0     H32296   2.229   8.691   6.285 -1.7990 -0.9172 -0.0966
  245MOL0     H32297   2.113   8.622   6.174 -0.2741  0.0393  0.8763
  245MOL0     H32298   2.238   8.875   6.119  1.8549 -0.5124 -0.3305
  245MOL0     H32299   2.299   8.768   5.998 -0.8752 -0.5990 -2.9609
  245MOL0     H32300   2.088   8.861   5.918 -1.1719 -0.4496 -1.0891
  245MOL0     H32301   2.015   8.821   6.074  2.1824  4.4835 -0.4849
  245MOL0     H32302   1.927   8.457   5.986  0.2469 -1.5260 -2.8458
  245MOL0     H32303   1.709   8.392   5.911  2.2933 -0.1465  0.2163
  245MOL0     H32304   1.242   8.713   5.835  0.2495  0.3692  0.2392
  245MOL0     H32305   1.007   8.656   5.772  0.9838 -0.1462  1.3079
  245MOL0     H32306   0.813   8.593   5.409  0.2595 -2.6085  0.8328
  245MOL0     H32307   0.900   8.714   5.507 -1.0242  0.6024  0.5392
  245MOL0     H32308   0.667   8.696   5.591 -0.2326  2.0768  2.6562
  245MOL0     H32309   0.780   8.662   5.719 -0.2322  2.3621 -1.4113
  245MOL0     H32310   0.757   8.421   5.694  1.6053  1.5375 -1.2080
  245MOL0     H32311   0.685   8.433   5.534 -1.7000  0.4217  0.1050
  245MOL0     H32312   0.546   8.521   5.787  0.2785  0.9147 -0.3746
  245MOL0     H32313   0.486   8.528   5.626  4.4570  3.3194 -1.6443
  245MOL0     H32314   0.574   8.261   5.743  1.1546 -0.5512 -2.1385
  245MOL0     H32315   0.483   8.292   5.588 -2.8812  2.7209 -0.4303
  245MOL0     H32316   0.289   8.379   5.721  1.3844  1.9517 -0.2511
  245MOL0     H32317   0.377   8.345   5.873 -2.1578  1.2760  0.4222
  245MOL0     H32318   0.265   8.142   5.689 -1.4731  1.2622  1.3643
  245MOL0     H32319   0.403   8.093   5.791  1.3093 -0.3937 -0.3022
  245MOL0     H32320   0.140   8.222   5.888  1.8978  1.0582  0.1520
  245MOL0     H32321   0.265   8.172   5.991  1.0158  0.5928 -1.1280
  245MOL0     H32322   1.158   8.451   5.426 -0.7253 -0.4061  1.0745
  245MOL0     H32323   1.388   8.516   5.490  0.0745 -0.5559  1.4970
  245MOL0     H32324   1.647   8.791   5.768 -1.3954 -0.1635 -1.7402
  245MOL0     H32325   1.882   8.847   5.834  0.5719 -0.0131 -1.1539
  245MOL0     H32326   3.167   8.826   5.597  1.9092 -0.5409 -2.5223
  245MOL0     H32327   3.407   8.804   5.564  1.8053 -0.0819 -1.7637
  245MOL0     H32328   3.766   8.894   5.371  1.8728 -1.2436 -1.7475
  245MOL0     H32329   3.994   8.867   5.321 -2.4136  0.9264 -0.9154
  245MOL0     H32330   4.229   8.923   5.278 -1.0390  1.5839  1.3580
  245MOL0     H32331   4.206   8.792   5.402  1.0032 -1.9847  0.8857
  245MOL0     H32332   4.438   8.983   5.360  0.4294 -0.1024  1.0243
  245MOL0     H32333   4.418   8.864   5.499  0.5284 -3.7684 -0.0670
  245MOL0     H32334   4.442   8.818   5.203 -0.7721  2.3629  0.5250
  245MOL0     H32335   4.409   8.691   5.327 -1.4699  1.0734 -1.3914
  245MOL0     H32336   4.635   8.704   5.402 -0.3013  0.0891 -0.6482
  245MOL0     H32337   4.654   8.708   5.221  4.1748  1.5329  0.7537
  245MOL0     H32338   4.818   9.079   5.323 -3.4198  3.2895  1.2285
  245MOL0     H32339   4.111   9.124   5.659 -0.1825  1.5829 -0.3278
  245MOL0     H32340   3.870   9.197   5.671 -0.6030  0.3911  1.4679
  246MOL0     O32341   5.835   5.958   1.764 -0.1196 -0.3065  0.1229
  246MOL0     C32342   5.868   5.984   1.879  0.3541 -0.6327 -0.0937
  246MOL0     O32343   5.782   6.030   1.973  0.1430  0.2633 -0.8063
  246MOL0     C32344   5.665   6.100   1.959 -0.2911  0.4356 -0.0802
  246MOL0     C32345   5.560   6.081   2.050 -0.3875 -0.2975  0.6911
  246MOL0     C32346   5.437   6.142   2.034  0.7765 -0.2521 -0.2446
  246MOL0     C32347   5.405   6.224   1.925 -0.3359  0.5513  0.9200
  246MOL0     O32348   5.278   6.269   1.923  0.1467 -0.8005  0.2438
  246MOL0     C32349   5.214   6.287   1.791  0.2164 -0.4504 -0.4377
  246MOL0     C32350   5.076   6.336   1.835 -0.5880 -0.3369  0.2680
  246MOL0     C32351   4.989   6.403   1.720 -0.8327  1.0431  0.8135
  246MOL0     C32352   4.963   6.298   1.609 -0.6960 -0.4373  0.1916
  246MOL0     C32353   4.842   6.327   1.518  0.8136 -1.1666  0.8457
  246MOL0     C32354   4.705   6.336   1.584 -0.7683  0.4902  0.1136
  246MOL0     C32355   4.598   6.330   1.479  0.8548 -0.1377  0.6891
  246MOL0     C32356   4.529   6.193   1.468  0.9842  0.5020 -0.0985
  246MOL0     N32357   4.421   6.204   1.362 -0.1417  0.0463 -0.2035
  246MOL0     C32358   4.432   6.142   1.241  0.1662  0.3749 -0.2986
  246MOL0     C32359   4.306   6.155   1.188 -0.2739 -0.6437  0.4416
  246MOL0     C32360   4.269   6.113   1.052 -0.6128  1.2122  0.1756
  246MOL0     C32361   4.330   6.202   0.940 -0.2943  0.2115  0.8556
  246MOL0     C32362   4.479   6.243   0.945 -0.1365 -0.8563 -0.0545
  246MOL0     C32363   4.529   6.290   0.807 -0.3246  1.3057  0.6066
  246MOL0     O32364   4.646   6.375   0.828  0.7254  0.7737  0.0070
  246MOL0     C32365   4.682   6.464   0.735  0.8956 -0.1959  0.6340
  246MOL0     C32366   4.642   6.467   0.603 -0.2393  0.2768  0.2160
  246MOL0     C32367   4.694   6.568   0.517 -0.1751  0.0142  0.1426
  246MOL0     C32368   4.807   6.649   0.551 -0.3123 -1.3997 -0.6683
  246MOL0     C32369   4.859   6.741   0.452  0.2251  0.3114  0.0553
  246MOL0     O32370   4.816   6.729   0.320  0.2465 -0.5471  0.4333
  246MOL0     C32371   4.870   6.804   0.223 -0.3917 -0.7899 -0.5177
  246MOL0     C32372   5.007   6.811   0.185  1.0609  0.2172  0.8741
  246MOL0     C32373   5.052   6.895   0.080  0.0916  0.4799 -0.4112
  246MOL0     C32374   4.955   6.960   0.007 -0.0255  0.8729  0.0920
  246MOL0     O32375   4.978   7.048  -0.093  0.5315  0.1411  0.2742
  246MOL0     C32376   5.111   7.067  -0.137  0.1080 -0.4369  0.5900
  246MOL0     C32377   5.086   7.131  -0.284 -0.0455 -0.7218  0.4822
  246MOL0     C32378   5.209   7.188  -0.350 -0.5023  0.0249 -0.8615
  246MOL0     C32379   5.174   7.209  -0.497  1.1368  0.0209  0.0043
  246MOL0     C32380   5.289   7.241  -0.589  0.3770  0.2139  0.1929
  246MOL0     C32381   5.377   7.353  -0.524  0.3916  0.1645 -1.3561
  246MOL0     C32382   5.466   7.418  -0.625 -0.0570 -0.0090  0.7147
  246MOL0     C32383   5.392   7.512  -0.728 -0.1771 -0.4500 -0.0741
  246MOL0    Cl32384   5.337   7.674  -0.655 -0.1991  0.3356 -0.6136
  246MOL0     C32385   4.820   6.957   0.043  1.4427 -0.4098 -0.4827
  246MOL0     C32386   4.776   6.884   0.155  0.1759 -0.8011  0.3333
  246MOL0     O32387   4.952   6.815   0.491  0.0749 -0.0878 -0.2724
  246MOL0     C32388   4.849   6.643   0.684 -0.0893 -0.4261 -0.0043
  246MOL0     C32389   4.787   6.545   0.771 -0.4893  0.2682 -1.2536
  246MOL0     N32390   4.233   6.238   1.266  1.0823  0.2275  0.6264
  246MOL0     N32391   4.298   6.252   1.373 -0.1448 -0.4407  0.4381
  246MOL0     C32392   5.515   6.248   1.829 -0.8112 -0.4331 -0.4285
  246MOL0     C32393   5.636   6.175   1.845 -0.4507  0.1274 -0.0648
  246MOL0     C32394   6.008   5.953   1.919  0.0403  0.0479 -0.1948
  246MOL0     C32395   6.101   5.908   1.831 -0.2699 -0.4991  0.4627
  246MOL0     C32396   6.235   5.875   1.868 -0.8408 -0.4181  0.8706
  246MOL0     C32397   6.278   5.891   1.999 -0.7440  0.1874 -0.7122
  246MOL0     O32398   6.409   5.861   2.036  0.5211 -0.3512 -0.4262
  246MOL0     C32399   6.446   5.916   2.165 -0.2626 -0.6017 -0.0621
  246MOL0     C32400   6.594   5.895   2.199  0.1962  0.1646 -0.8826
  246MOL0     C32401   6.656   5.996   2.298  0.7807 -0.0639  0.0054
  246MOL0     C32402   6.587   5.986   2.434  0.0726 -0.8063  0.1845
  246MOL0     C32403   6.661   6.068   2.536  0.9185  0.0637  0.7187
  246MOL0     C32404   6.701   6.134   2.623  0.1770  0.7087  0.7785
  246MOL0     C32405   6.185   5.936   2.093  0.7603 -0.2731 -0.5498
  246MOL0     C32406   6.050   5.970   2.051  0.1634  0.6642  0.0117
  246MOL0     H32407   5.581   6.029   2.144  2.1151  0.3969  0.5975
  246MOL0     H32408   5.372   6.125   2.119  2.2653 -1.0858  0.7774
  246MOL0     H32409   5.194   6.198   1.731  1.2809 -0.3123 -1.0226
  246MOL0     H32410   5.266   6.366   1.737  1.3196  0.5737  1.9865
  246MOL0     H32411   5.082   6.416   1.909  1.5479  0.7527 -0.9715
  246MOL0     H32412   5.018   6.259   1.886 -1.4726  0.2652  0.1888
  246MOL0     H32413   5.049   6.488   1.685  0.7165 -0.1304  0.5195
  246MOL0     H32414   4.902   6.439   1.775 -2.2612 -2.0162  0.7506
  246MOL0     H32415   5.049   6.293   1.541 -2.9092  4.2661 -3.5637
  246MOL0     H32416   4.937   6.201   1.653  3.0908 -1.4031  0.6734
  246MOL0     H32417   4.838   6.247   1.443  1.9341  0.0703 -0.5764
  246MOL0     H32418   4.855   6.419   1.461 -0.1945 -0.6950  1.3463
  246MOL0     H32419   4.695   6.424   1.649  0.9613 -0.0213  1.1399
  246MOL0     H32420   4.700   6.245   1.644  0.1618 -0.0008 -0.5351
  246MOL0     H32421   4.519   6.394   1.521  1.2041  1.6150 -1.1864
  246MOL0     H32422   4.631   6.362   1.380  1.1300 -1.5815  0.3003
  246MOL0     H32423   4.485   6.185   1.568 -0.0684 -0.1463 -0.5946
  246MOL0     H32424   4.604   6.114   1.456 -1.5127 -1.9981 -0.3761
  246MOL0     H32425   4.515   6.100   1.184 -0.8407 -0.7085 -1.0351
  246MOL0     H32426   4.161   6.099   1.049 -0.6614  1.1592  1.5984
  246MOL0     H32427   4.322   6.017   1.042 -2.5915 -0.1796  2.1691
  246MOL0     H32428   4.272   6.293   0.923  1.0076  0.4008 -4.6017
  246MOL0     H32429   4.324   6.149   0.844  0.7149 -0.5620  1.1979
  246MOL0     H32430   4.501   6.319   1.020  2.1316  0.1145 -1.5806
  246MOL0     H32431   4.544   6.157   0.968  0.4441 -0.8259 -1.4349
  246MOL0     H32432   4.457   6.356   0.756  0.6572  0.1459 -2.5657
  246MOL0     H32433   4.548   6.202   0.743 -0.1329  1.3978  0.5378
  246MOL0     H32434   4.568   6.397   0.565 -0.4637  2.2894 -3.6126
  246MOL0     H32435   4.645   6.565   0.420 -0.2296 -0.6386  0.1911
  246MOL0     H32436   5.083   6.744   0.223  2.0006 -0.0224 -1.2694
  246MOL0     H32437   5.156   6.899   0.051  1.3585  0.3462  3.5412
  246MOL0     H32438   5.174   6.978  -0.138  0.7323 -0.0407  2.2197
  246MOL0     H32439   5.169   7.137  -0.077  3.5104 -1.6378 -1.0126
  246MOL0     H32440   5.006   7.206  -0.278 -0.4732 -0.9399 -1.8890
  246MOL0     H32441   5.039   7.052  -0.342 -0.5791  0.3697 -0.6267
  246MOL0     H32442   5.288   7.112  -0.353 -2.5433 -2.2698 -0.0239
  246MOL0     H32443   5.240   7.284  -0.306 -1.3813 -0.4062  0.7768
  246MOL0     H32444   5.140   7.117  -0.545  2.6974 -0.0917 -0.9610
  246MOL0     H32445   5.095   7.283  -0.509  0.7518 -0.3837  0.0350
  246MOL0     H32446   5.264   7.262  -0.694  3.6942 -1.8844 -1.1540
  246MOL0     H32447   5.359   7.158  -0.591 -0.4595 -0.5083  0.4484
  246MOL0     H32448   5.442   7.306  -0.450 -1.2755 -1.6456 -0.9580
  246MOL0     H32449   5.319   7.436  -0.483  1.5189  0.7952 -1.0299
  246MOL0     H32450   5.547   7.464  -0.568 -1.2785  0.0953  2.4273
  246MOL0     H32451   5.510   7.335  -0.680  0.6204 -1.4156  3.2259
  246MOL0     H32452   5.310   7.453  -0.770 -0.9997  1.0062 -0.5751
  246MOL0     H32453   5.454   7.541  -0.812  0.0602  2.8906  1.1130
  246MOL0     H32454   4.743   7.008  -0.014  1.8777  2.1263  1.0658
  246MOL0     H32455   4.671   6.871   0.177  0.2819 -0.9092  0.7787
  246MOL0     H32456   4.912   6.719   0.729  0.6593 -0.9590 -0.1354
  246MOL0     H32457   4.823   6.546   0.873 -2.0544 -0.2156 -0.6736
  246MOL0     H32458   5.505   6.318   1.747 -1.0049 -0.0026 -0.0393
  246MOL0     H32459   5.709   6.176   1.765  0.6927 -1.2007  0.8948
  246MOL0     H32460   6.071   5.882   1.729 -1.1881 -2.2707  1.1310
  246MOL0     H32461   6.296   5.837   1.787 -1.2182 -0.4214  0.5857
  246MOL0     H32462   6.402   5.858   2.246  0.3359 -0.7975  0.1331
  246MOL0     H32463   6.430   6.023   2.179 -0.5539 -0.5171 -0.9907
  246MOL0     H32464   6.617   5.794   2.234 -1.4465 -0.0275 -0.2909
  246MOL0     H32465   6.651   5.913   2.107  0.6490  2.0944 -0.2657
  246MOL0     H32466   6.657   6.097   2.257 -0.0316 -1.0379 -2.6711
  246MOL0     H32467   6.760   5.965   2.312  0.4014 -1.6313 -0.4078
  246MOL0     H32468   6.483   6.015   2.417  0.4941  0.6646 -0.0598
  246MOL0     H32469   6.586   5.885   2.476  1.8303 -0.6204  0.7394
  246MOL0     H32470   6.732   6.180   2.715 -0.3151 -0.6364  1.6559
  246MOL0     H32471   6.212   5.955   2.197  1.2389 -0.2328 -0.6802
  246MOL0     H32472   5.982   5.993   2.132 -1.2586  0.0459 -0.9688
  247MOL0     O32473   5.658  11.200   3.752 -0.3597 -0.3245  0.1559
  247MOL0     C32474   5.658  11.077   3.752  0.1903 -0.8801  0.3721
  247MOL0     O32475   5.766  10.996   3.729 -0.0664 -0.1069 -0.6817
  247MOL0     C32476   5.886  11.064   3.743 -0.3239  0.6393 -0.4583
  247MOL0     C32477   5.937  11.103   3.866 -0.4755 -0.2870  1.0649
  247MOL0     C32478   6.064  11.175   3.870 -0.1796  0.2131  0.2699
  247MOL0     C32479   6.132  11.214   3.752  0.1112  0.2134 -0.1007
  247MOL0     O32480   6.249  11.286   3.767 -0.0953  0.0917  0.2838
  247MOL0     C32481   6.346  11.269   3.663 -0.2212  1.1129 -1.2387
  247MOL0     C32482   6.469  11.352   3.705  0.5441 -0.8737 -0.1049
  247MOL0     C32483   6.539  11.289   3.827 -0.3640  0.0753 -0.5916
  247MOL0     C32484   6.640  11.395   3.868 -0.7922 -0.7872  0.0086
  247MOL0     C32485   6.723  11.348   3.991 -0.0550 -0.2183  0.8182
  247MOL0     C32486   6.834  11.253   3.941 -0.0004 -0.6189 -0.3663
  247MOL0     C32487   6.942  11.335   3.861  0.2893  0.8772  0.0447
  247MOL0     C32488   7.066  11.255   3.833 -0.5171 -0.1600  0.4726
  247MOL0     N32489   7.171  11.339   3.775 -0.1649  0.1494  0.1719
  247MOL0     C32490   7.244  11.440   3.837  1.0555 -0.4835  0.6583
  247MOL0     C32491   7.344  11.475   3.757  0.5022  0.7123  0.9998
  247MOL0     C32492   7.454  11.578   3.781 -0.2597 -0.0392 -0.1472
  247MOL0     C32493   7.416  11.726   3.748 -0.0051  0.4677 -0.2326
  247MOL0     C32494   7.387  11.739   3.595  0.6780  0.1021 -0.2995
  247MOL0     C32495   7.407  11.895   3.568  0.7635 -0.4713  0.0026
  247MOL0     O32496   7.407  11.916   3.425  0.5088  0.0212 -1.0943
  247MOL0     C32497   7.285  11.920   3.357  0.3221 -0.4531  0.1862
  247MOL0     C32498   7.293  11.935   3.216 -0.3183 -0.0974 -0.1814
  247MOL0     C32499   7.187  11.952   3.133  0.0484 -0.1698  0.1860
  247MOL0     C32500   7.058  11.960   3.191 -0.4664  0.4843 -0.0866
  247MOL0     C32501   6.936  12.006   3.116  0.1173  0.8047 -1.0083
  247MOL0     O32502   6.821  12.043   3.187  0.4370 -0.0029  0.1594
  247MOL0     C32503   6.708  12.102   3.118 -0.1636 -0.6110  0.3308
  247MOL0     C32504   6.717  12.207   3.028  0.0038 -0.3298  0.6537
  247MOL0     C32505   6.602  12.285   2.989  0.5871  0.4273  0.3128
  247MOL0     C32506   6.479  12.245   3.026  0.1432 -0.0487  0.3205
  247MOL0     O32507   6.370  12.321   2.988  0.6464  0.0245 -0.1357
  247MOL0     C32508   6.232  12.264   2.978 -0.0130  0.5812 -0.4352
  247MOL0     C32509   6.141  12.357   2.894  0.4202 -0.1920 -1.3023
  247MOL0     C32510   5.991  12.321   2.917 -0.1941  0.4056  0.5853
  247MOL0     C32511   5.899  12.400   2.826 -0.7129  0.4145 -0.4979
  247MOL0     C32512   5.757  12.356   2.842 -0.0085 -0.2051 -0.1834
  247MOL0     C32513   5.678  12.422   2.735 -0.5260 -0.1225  0.4220
  247MOL0     C32514   5.545  12.366   2.696  0.1983  0.9982 -0.4290
  247MOL0     C32515   5.462  12.448   2.600 -0.0977  0.7061  1.1096
  247MOL0    Cl32516   5.393  12.596   2.686  0.6671  0.2862 -0.1707
  247MOL0     C32517   6.466  12.124   3.100 -0.3617  0.1474  0.1160
  247MOL0     C32518   6.577  12.059   3.149 -0.5405 -0.1276 -0.5553
  247MOL0     O32519   6.952  12.027   2.999  0.9080  0.4418  0.3099
  247MOL0     C32520   7.045  11.927   3.322  0.4696 -0.9735 -0.0141
  247MOL0     C32521   7.158  11.899   3.404  0.7683 -0.3363 -0.3128
  247MOL0     N32522   7.331  11.391   3.643  0.4235 -0.0545  0.2136
  247MOL0     N32523   7.240  11.301   3.664 -0.3562 -0.4825  0.6624
  247MOL0     C32524   6.070  11.174   3.628 -0.1907  0.3082  0.0333
  247MOL0     C32525   5.951  11.089   3.623 -0.1282 -0.7926  0.2245
  247MOL0     C32526   5.528  11.010   3.781 -0.8693  0.3218  0.1185
  247MOL0     C32527   5.526  10.882   3.841 -0.1875  0.0721  0.8147
  247MOL0     C32528   5.405  10.820   3.875  0.6711  0.1551  0.0214
  247MOL0     C32529   5.273  10.877   3.841 -0.4997  0.6549 -0.9465
  247MOL0     O32530   5.152  10.810   3.884  0.1855 -0.3328  0.4050
  247MOL0     C32531   5.028  10.881   3.875 -0.1740 -0.2737  0.1790
  247MOL0     C32532   4.916  10.786   3.914 -0.1003 -0.2875  0.2908
  247MOL0     C32533   4.794  10.863   3.884  1.0091  0.0265  0.8138
  247MOL0     C32534   4.660  10.783   3.895  0.1513  0.1146  0.8419
  247MOL0     C32535   4.629  10.750   4.033  0.4274 -1.2462 -0.6169
  247MOL0     C32536   4.616  10.737   4.158 -0.3094 -0.3944 -0.1008
  247MOL0     C32537   5.281  11.000   3.776 -0.4888 -1.2965 -0.6592
  247MOL0     C32538   5.403  11.069   3.747 -0.6829  0.2620 -0.3779
  247MOL0     H32539   5.873  11.075   3.950 -0.7217  2.8128  2.0636
  247MOL0     H32540   6.118  11.208   3.959  0.9222  1.6844 -0.9018
  247MOL0     H32541   6.318  11.301   3.562  0.0526 -2.1303 -2.4585
  247MOL0     H32542   6.390  11.170   3.647 -0.9139  1.0739 -3.2505
  247MOL0     H32543   6.433  11.451   3.733  0.1017 -0.7349 -1.1318
  247MOL0     H32544   6.537  11.372   3.622 -0.2034 -0.6878 -0.6814
  247MOL0     H32545   6.586  11.193   3.801  0.5787  1.0993 -3.0621
  247MOL0     H32546   6.476  11.274   3.914  1.6290 -0.9793  0.7473
  247MOL0     H32547   6.702  11.414   3.780 -1.3068  1.1456  0.0199
  247MOL0     H32548   6.604  11.492   3.902  1.3492  0.7979 -1.9276
  247MOL0     H32549   6.651  11.293   4.053 -1.2894  0.4190  0.0047
  247MOL0     H32550   6.765  11.431   4.049  0.3049 -0.1911  0.5200
  247MOL0     H32551   6.790  11.174   3.880 -1.3810 -0.7672  0.7652
  247MOL0     H32552   6.882  11.207   4.028 -0.7568 -1.0729 -0.1757
  247MOL0     H32553   6.893  11.357   3.765  1.6408  0.4672 -0.7640
  247MOL0     H32554   6.977  11.425   3.911 -1.6275  0.4664  2.3137
  247MOL0     H32555   7.051  11.183   3.753 -1.9452  0.4326  0.1747
  247MOL0     H32556   7.101  11.229   3.933  0.5520  0.4823  0.2812
  247MOL0     H32557   7.214  11.476   3.935  0.3423  0.4337  0.1271
  247MOL0     H32558   7.542  11.557   3.720 -0.3396  2.0070 -1.0372
  247MOL0     H32559   7.473  11.569   3.889 -2.9575 -0.1659  0.3942
  247MOL0     H32560   7.473  11.810   3.786 -1.1315  0.6837  1.0730
  247MOL0     H32561   7.323  11.737   3.805 -0.9361 -1.1858 -1.3407
  247MOL0     H32562   7.464  11.679   3.546  0.6419  0.6911 -1.1013
  247MOL0     H32563   7.287  11.703   3.565  0.3858  0.4480  0.2490
  247MOL0     H32564   7.498  11.937   3.613  0.1751 -2.2881  3.1539
  247MOL0     H32565   7.321  11.946   3.613 -0.6231 -4.1404  1.9490
  247MOL0     H32566   7.392  11.930   3.172  0.2278 -4.6361  1.0975
  247MOL0     H32567   7.196  11.965   3.025 -0.2179 -1.8750 -0.0739
  247MOL0     H32568   6.814  12.246   2.998 -0.8583 -0.1793 -2.2980
  247MOL0     H32569   6.606  12.375   2.928 -1.5259 -1.4293 -2.8342
  247MOL0     H32570   6.183  12.270   3.075 -2.7382  2.1900 -1.7870
  247MOL0     H32571   6.236  12.160   2.944  1.3788  0.6604 -0.5618
  247MOL0     H32572   6.162  12.348   2.787 -0.6509  1.3348 -1.6859
  247MOL0     H32573   6.157  12.461   2.927  0.3921 -0.5200 -0.2214
  247MOL0     H32574   5.973  12.342   3.023 -0.7569  1.2087  0.3389
  247MOL0     H32575   5.986  12.212   2.906 -0.8055  0.5193 -0.3819
  247MOL0     H32576   5.904  12.507   2.851 -0.1431  0.7059 -1.7731
  247MOL0     H32577   5.937  12.384   2.725 -0.0675  2.3011 -0.5987
  247MOL0     H32578   5.720  12.375   2.943 -0.1379  1.7927 -0.5612
  247MOL0     H32579   5.753  12.250   2.816 -0.4506 -0.3944  0.6328
  247MOL0     H32580   5.736  12.420   2.643 -0.2080  0.9822  0.5815
  247MOL0     H32581   5.671  12.528   2.760 -1.9783 -0.0835 -0.0760
  247MOL0     H32582   5.566  12.267   2.653 -1.6758 -0.3622  1.5781
  247MOL0     H32583   5.483  12.338   2.781  1.1062 -1.3937 -0.4800
  247MOL0     H32584   5.375  12.393   2.564  0.1018  0.9422  0.2549
  247MOL0     H32585   5.522  12.482   2.516 -0.6297  0.2004  0.5157
  247MOL0     H32586   6.365  12.096   3.129 -0.3568 -0.5870 -0.5307
  247MOL0     H32587   6.562  11.963   3.199  1.7802  0.1918  0.9078
  247MOL0     H32588   6.949  11.928   3.373  0.4085  2.9210  0.0910
  247MOL0     H32589   7.135  11.880   3.508 -1.8190 -1.8699 -1.0642
  247MOL0     H32590   6.120  11.188   3.532 -1.7418 -0.4975 -0.9440
  247MOL0     H32591   5.901  11.062   3.531  0.0674 -2.4784  0.5710
  247MOL0     H32592   5.619  10.827   3.848 -1.7380 -2.8972 -0.3111
  247MOL0     H32593   5.405  10.723   3.924  3.6535 -0.5252 -1.0938
  247MOL0     H32594   5.022  10.915   3.772  1.6128  2.4131  0.8555
  247MOL0     H32595   5.037  10.970   3.938 -1.5475  0.4436 -0.5806
  247MOL0     H32596   4.914  10.697   3.850 -1.3071 -1.1536  1.4844
  247MOL0     H32597   4.932  10.751   4.016  1.3916  0.5503  0.3724
  247MOL0     H32598   4.787  10.898   3.781 -2.7267  2.0396  1.6001
  247MOL0     H32599   4.806  10.958   3.937  2.3406  1.4162 -1.7561
  247MOL0     H32600   4.575  10.835   3.849 -0.2871 -0.0429  1.4651
  247MOL0     H32601   4.665  10.688   3.840 -0.5448 -0.5046  1.8181
  247MOL0     H32602   4.608  10.714   4.262  0.8781  0.5276  0.2138
  247MOL0     H32603   5.196  11.061   3.746  0.5093 -0.0348 -1.0162
  247MOL0     H32604   5.399  11.160   3.688 -0.1262  0.5599  0.0318
  248MOL0     O32605   0.059   8.070   4.920  0.4558 -0.0226 -0.1035
  248MOL0     C32606   0.062   7.967   4.856  0.2960 -0.0069  0.8898
  248MOL0     O32607   0.160   7.872   4.879 -0.9365  0.5937  0.4379
  248MOL0     C32608   0.260   7.905   4.969 -0.3538 -0.5658  0.3579
  248MOL0     C32609   0.336   8.021   4.980 -0.4420 -0.0749 -0.9763
  248MOL0     C32610   0.434   8.027   5.080  0.3974  0.0841  0.4312
  248MOL0     C32611   0.460   7.925   5.165  0.2081  0.1120 -0.9395
  248MOL0     O32612   0.560   7.959   5.254 -0.8163 -0.1760 -0.7357
  248MOL0     C32613   0.587   7.881   5.377 -0.3132 -0.2338 -0.5151
  248MOL0     C32614   0.635   7.973   5.495 -0.2955 -0.2901 -0.2387
  248MOL0     C32615   0.639   7.880   5.615  1.1038 -0.0800  0.5463
  248MOL0     C32616   0.726   7.931   5.727 -0.4439  0.3057 -0.5600
  248MOL0     C32617   0.710   7.841   5.851  0.0785 -0.9132  0.1304
  248MOL0     C32618   0.582   7.861   5.929  0.0211 -0.1734  0.3563
  248MOL0     C32619   0.573   7.794   6.066 -0.7188  0.4301 -0.1381
  248MOL0     C32620   0.693   7.810   6.164 -0.2757 -0.2917  0.1617
  248MOL0     N32621   0.653   7.724   6.279 -0.3137 -0.6873  0.2122
  248MOL0     C32622   0.587   7.769   6.387  0.1143  0.5886 -0.3865
  248MOL0     C32623   0.561   7.665   6.473  0.1001  0.2507 -0.8247
  248MOL0     C32624   0.498   7.659   6.616 -0.3136  0.5024 -0.2067
  248MOL0     C32625   0.341   7.673   6.619 -0.2009 -0.3919 -0.3984
  248MOL0     C32626   0.288   7.818   6.613 -0.0328  0.5616  0.1181
  248MOL0     C32627   0.134   7.811   6.611  0.3232 -0.5028 -0.1464
  248MOL0     O32628   0.089   7.769   6.741  0.1957 -0.7996 -0.4552
  248MOL0     C32629  -0.035   7.809   6.767 -0.3334  0.0510 -0.5410
  248MOL0     C32630  -0.148   7.757   6.705 -0.8657  0.1969 -0.4975
  248MOL0     C32631  -0.276   7.809   6.722  0.1917 -1.1107 -0.3899
  248MOL0     C32632  -0.305   7.905   6.830  0.2318 -0.1826  1.1508
  248MOL0     C32633  -0.441   7.958   6.851 -0.5687  0.4593  0.7225
  248MOL0     O32634  -0.465   8.040   6.955  0.0145  0.5248  0.4647
  248MOL0     C32635  -0.587   8.089   6.979  0.0468 -0.1046  0.7438
  248MOL0     C32636  -0.678   8.142   6.885  0.0658  0.6305  0.5755
  248MOL0     C32637  -0.814   8.165   6.923  0.8219  0.6801 -0.1369
  248MOL0     C32638  -0.851   8.126   7.054  0.0224 -0.3826  0.0295
  248MOL0     O32639  -0.983   8.127   7.095 -0.7448  0.5699 -0.6634
  248MOL0     C32640  -1.052   8.251   7.080 -0.2021 -0.5086  0.1414
  248MOL0     C32641  -1.188   8.221   7.123  0.0829 -0.3101 -0.7480
  248MOL0     C32642  -1.283   8.157   7.021 -0.0493 -0.6688 -0.3640
  248MOL0     C32643  -1.421   8.152   7.082 -0.4235  0.0002  0.2933
  248MOL0     C32644  -1.516   8.120   6.962  0.0397  0.2135  0.1842
  248MOL0     C32645  -1.649   8.057   7.022 -0.8146 -0.3419  0.6024
  248MOL0     C32646  -1.756   8.041   6.906 -0.7457  0.0135 -0.1307
  248MOL0     C32647  -1.882   7.993   6.970 -0.0026  0.2157 -0.3120
  248MOL0    Cl32648  -1.866   7.833   7.035 -0.2338  0.2385  0.0278
  248MOL0     C32649  -0.759   8.074   7.147  0.1873  0.1763 -1.0107
  248MOL0     C32650  -0.626   8.059   7.110  0.4375  0.7513  0.2493
  248MOL0     O32651  -0.523   7.915   6.773  0.1318 -0.3824  0.6553
  248MOL0     C32652  -0.194   7.941   6.910  0.0547  0.1658 -0.9214
  248MOL0     C32653  -0.063   7.891   6.881 -0.4522  0.4092  0.1544
  248MOL0     N32654   0.624   7.555   6.410  0.4228 -0.9730  0.5812
  248MOL0     N32655   0.675   7.597   6.292 -0.8475  0.1027  0.2036
  248MOL0     C32656   0.389   7.812   5.150  0.4485 -0.7152  0.3194
  248MOL0     C32657   0.290   7.795   5.050  0.1054 -0.7348  0.6409
  248MOL0     C32658  -0.052   7.922   4.772 -0.1871 -0.9753  0.7764
  248MOL0     C32659  -0.123   8.028   4.695 -0.1579  0.0365 -0.4203
  248MOL0     C32660  -0.219   8.004   4.596  0.1099  0.3553  0.5696
  248MOL0     C32661  -0.272   7.877   4.578 -0.5034  0.5431  0.9650
  248MOL0     O32662  -0.373   7.838   4.500  0.5435 -0.1790  0.1849
  248MOL0     C32663  -0.482   7.782   4.559  0.8788 -0.2926  0.0588
  248MOL0     C32664  -0.604   7.829   4.465 -0.5083  0.3209 -0.6244
  248MOL0     C32665  -0.644   7.982   4.481  0.1044  0.8168  0.9509
  248MOL0     C32666  -0.722   7.998   4.613 -0.0137  0.7065 -0.3579
  248MOL0     C32667  -0.862   7.977   4.589 -0.2721 -0.0787  0.6600
  248MOL0     C32668  -0.983   7.973   4.604  0.0865 -0.1106 -0.3017
  248MOL0     C32669  -0.204   7.768   4.642 -0.3074  0.1754 -0.2026
  248MOL0     C32670  -0.100   7.797   4.736  0.3099 -0.0504 -0.4285
  248MOL0     H32671   0.329   8.105   4.912  0.4376 -0.8676 -2.0874
  248MOL0     H32672   0.493   8.118   5.092 -0.4724  1.2005 -2.7105
  248MOL0     H32673   0.655   7.804   5.340 -0.6734  0.1990 -2.1663
  248MOL0     H32674   0.503   7.825   5.420 -0.0308 -1.8411 -1.9535
  248MOL0     H32675   0.563   8.052   5.518 -0.4526 -0.3407 -0.5561
  248MOL0     H32676   0.730   8.020   5.467 -1.6871  4.2291  1.6684
  248MOL0     H32677   0.657   7.773   5.599  0.2362 -0.2656  0.7623
  248MOL0     H32678   0.537   7.878   5.655  0.4014  1.6721 -1.0095
  248MOL0     H32679   0.832   7.926   5.700  0.9424  2.1277  3.7170
  248MOL0     H32680   0.707   8.035   5.755  2.5133  0.3797  1.5705
  248MOL0     H32681   0.797   7.872   5.910 -1.9998  2.7970  1.6438
  248MOL0     H32682   0.725   7.734   5.834  2.0610 -0.8509  1.1581
  248MOL0     H32683   0.506   7.810   5.869  0.2551  0.4201 -0.4739
  248MOL0     H32684   0.560   7.969   5.931 -2.6631 -0.6592  0.8976
  248MOL0     H32685   0.484   7.827   6.121  0.0110 -0.0396  1.3819
  248MOL0     H32686   0.570   7.686   6.050  2.7718  0.4299 -1.6954
  248MOL0     H32687   0.700   7.916   6.189  0.7842  0.1584 -1.8490
  248MOL0     H32688   0.785   7.783   6.112  0.3560  1.3427  0.3597
  248MOL0     H32689   0.553   7.869   6.412 -2.2842 -0.5132  1.0811
  248MOL0     H32690   0.528   7.741   6.682 -0.9950  2.7027 -2.4527
  248MOL0     H32691   0.535   7.570   6.668  2.1727  1.7257  0.2718
  248MOL0     H32692   0.298   7.625   6.708 -0.1015  0.8285  0.3353
  248MOL0     H32693   0.292   7.621   6.537 -1.6277  0.6382 -0.2478
  248MOL0     H32694   0.326   7.880   6.695  1.4311  0.0780 -0.1654
  248MOL0     H32695   0.320   7.859   6.517  0.0236  1.6836  0.6027
  248MOL0     H32696   0.094   7.740   6.538  1.2349 -1.4440  0.2339
  248MOL0     H32697   0.099   7.913   6.592 -0.8342 -0.6614  1.0116
  248MOL0     H32698  -0.129   7.670   6.644 -1.7295  0.1567 -0.7247
  248MOL0     H32699  -0.361   7.772   6.665 -1.6824  0.9319  0.9455
  248MOL0     H32700  -0.643   8.162   6.784  2.1625 -1.4643  0.7842
  248MOL0     H32701  -0.880   8.182   6.839 -0.2713 -6.5182 -1.4002
  248MOL0     H32702  -1.044   8.286   6.977  4.0775  2.3210  1.1367
  248MOL0     H32703  -1.020   8.334   7.144 -2.6822  0.5466  0.1297
  248MOL0     H32704  -1.233   8.313   7.162 -1.0382 -1.6652  1.3215
  248MOL0     H32705  -1.181   8.147   7.204 -1.0387  1.3484  0.9455
  248MOL0     H32706  -1.253   8.056   6.992  0.2374 -0.8098  0.3811
  248MOL0     H32707  -1.274   8.212   6.928  1.7714 -4.4850 -2.6824
  248MOL0     H32708  -1.421   8.071   7.155  3.5287 -0.8871 -0.4647
  248MOL0     H32709  -1.463   8.244   7.125 -2.0202 -0.1622 -0.8152
  248MOL0     H32710  -1.465   8.043   6.904  1.3865 -0.3160  1.9735
  248MOL0     H32711  -1.551   8.200   6.897 -1.7412 -2.3105 -2.1928
  248MOL0     H32712  -1.699   8.114   7.101 -0.6013 -0.5176  0.8675
  248MOL0     H32713  -1.628   7.956   7.057 -4.2652 -0.8296  1.6108
  248MOL0     H32714  -1.777   8.136   6.857  1.8731  1.1415  0.7620
  248MOL0     H32715  -1.724   7.977   6.823  1.0333  2.3811 -1.3816
  248MOL0     H32716  -1.962   7.997   6.895 -1.1654 -3.1779  0.5836
  248MOL0     H32717  -1.917   8.058   7.050  1.7784 -0.3035  0.9352
  248MOL0     H32718  -0.792   8.048   7.247  0.2794  0.0799 -1.0040
  248MOL0     H32719  -0.547   8.013   7.167  3.5689  3.8583 -1.2075
  248MOL0     H32720  -0.200   8.014   6.990  0.0073  0.8170 -1.5169
  248MOL0     H32721   0.026   7.922   6.933  0.3817 -0.4275 -0.7342
  248MOL0     H32722   0.414   7.728   5.215  2.6203  1.3745  2.4022
  248MOL0     H32723   0.230   7.707   5.030 -1.0953 -0.1432  1.5274
  248MOL0     H32724  -0.093   8.131   4.709  0.4606  0.0270 -1.5525
  248MOL0     H32725  -0.260   8.093   4.548 -1.2891  0.3314  1.6568
  248MOL0     H32726  -0.505   7.824   4.657  0.3888  0.8239 -0.5225
  248MOL0     H32727  -0.468   7.673   4.560 -2.0793 -0.7399  1.2625
  248MOL0     H32728  -0.577   7.807   4.361  0.7745  2.1688 -0.7183
  248MOL0     H32729  -0.692   7.766   4.479 -0.1041 -0.5859 -1.9148
  248MOL0     H32730  -0.716   7.999   4.400 -0.9698  0.5744  1.8238
  248MOL0     H32731  -0.549   8.036   4.475  0.9815 -0.5407  1.9814
  248MOL0     H32732  -0.693   7.924   4.688 -2.7817 -0.3523 -0.2139
  248MOL0     H32733  -0.712   8.099   4.653 -1.2460  0.3232  0.9607
  248MOL0     H32734  -1.089   7.983   4.599 -0.1492 -2.4730 -1.0124
  248MOL0     H32735  -0.241   7.667   4.626 -1.1580 -0.1771  3.2523
  248MOL0     H32736  -0.052   7.710   4.778 -0.0270  0.4045  0.9498
  249MOL0     O32737   1.547  11.008   6.721  0.0724 -0.0986  0.1297
  249MOL0     C32738   1.494  11.033   6.833 -0.8928  0.2008  1.9957
  249MOL0     O32739   1.557  11.023   6.952 -0.6524  0.6652 -0.0536
  249MOL0     C32740   1.696  11.003   6.957  0.7770 -0.9134  0.5443
  249MOL0     C32741   1.782  11.119   6.969 -0.0458  0.3880 -0.6128
  249MOL0     C32742   1.918  11.095   6.960 -0.1879 -0.2426 -0.8839
  249MOL0     C32743   1.970  10.976   6.939  0.2019 -0.0623  0.5009
  249MOL0     O32744   2.105  10.991   6.925  0.2506  0.2371  0.6317
  249MOL0     C32745   2.185  10.872   6.893 -0.2601 -0.1308  0.4320
  249MOL0     C32746   2.326  10.928   6.872 -0.5641  0.0862 -0.1955
  249MOL0     C32747   2.430  10.821   6.863  0.6877 -0.8149 -0.2659
  249MOL0     C32748   2.565  10.886   6.817 -0.4789  0.0598 -0.3483
  249MOL0     C32749   2.647  10.791   6.738 -0.3264  0.0687  0.3285
  249MOL0     C32750   2.767  10.854   6.679 -1.1624 -0.2444 -0.5831
  249MOL0     C32751   2.862  10.915   6.785  0.5364 -0.4636 -0.4302
  249MOL0     C32752   2.975  10.991   6.709 -0.3188 -0.6726 -0.2418
  249MOL0     N32753   3.037  11.093   6.799 -0.2525  0.0110  0.5859
  249MOL0     C32754   2.985  11.224   6.806 -0.2427 -0.0541  0.5295
  249MOL0     C32755   3.081  11.292   6.875  0.0936 -0.5886  0.5383
  249MOL0     C32756   3.073  11.438   6.916 -0.6212 -0.7456  1.1248
  249MOL0     C32757   3.078  11.464   7.074 -0.2512  0.6231 -0.3987
  249MOL0     C32758   2.952  11.398   7.139 -0.8715 -0.2947 -0.3329
  249MOL0     C32759   2.992  11.317   7.263 -0.3176 -0.0758  0.5215
  249MOL0     O32760   2.890  11.302   7.359  0.4549  0.0742 -0.4458
  249MOL0     C32761   2.795  11.208   7.349  0.2319  0.2986 -0.5762
  249MOL0     C32762   2.680  11.243   7.432 -0.4404 -0.8923  0.4365
  249MOL0     C32763   2.570  11.161   7.416 -0.7360 -0.1409  0.8425
  249MOL0     C32764   2.566  11.044   7.336 -0.7829  0.4041  0.2449
  249MOL0     C32765   2.448  10.953   7.306 -0.1916 -0.4465  0.2161
  249MOL0     O32766   2.322  10.998   7.346 -0.2230 -0.4862 -0.4678
  249MOL0     C32767   2.216  10.915   7.348 -0.0190 -0.5992 -1.0853
  249MOL0     C32768   2.232  10.782   7.404  0.6857  0.0470 -0.4275
  249MOL0     C32769   2.116  10.696   7.407  0.2586  0.1318 -0.3145
  249MOL0     C32770   1.991  10.739   7.358 -0.0187 -0.7471 -0.6506
  249MOL0     O32771   1.881  10.661   7.368  0.7926  1.3287 -0.3122
  249MOL0     C32772   1.758  10.726   7.401  0.5829  0.8431  0.1003
  249MOL0     C32773   1.667  10.627   7.480  0.1645  0.3131 -0.1956
  249MOL0     C32774   1.521  10.650   7.434 -0.4205  0.1999  0.1393
  249MOL0     C32775   1.444  10.519   7.465 -0.4652 -0.2473 -0.5917
  249MOL0     C32776   1.295  10.543   7.431  0.1136 -0.0370 -0.7081
  249MOL0     C32777   1.208  10.417   7.477 -0.1919  0.2178  0.4265
  249MOL0     C32778   1.060  10.426   7.470 -0.8305  0.1272 -0.6419
  249MOL0     C32779   1.005  10.462   7.334 -0.0114 -0.2839  0.7384
  249MOL0    Cl32780   0.827  10.482   7.368  0.4380 -0.2177  0.0951
  249MOL0     C32781   1.991  10.863   7.295  0.3810  0.2846 -0.0097
  249MOL0     C32782   2.094  10.953   7.301  0.2089 -0.2838 -0.1914
  249MOL0     O32783   2.476  10.840   7.262 -0.2853  0.1908  0.7129
  249MOL0     C32784   2.694  11.011   7.272  0.1733 -0.2462 -0.0004
  249MOL0     C32785   2.809  11.090   7.285 -0.2769 -0.3474  0.0908
  249MOL0     N32786   3.176  11.202   6.914 -0.1050 -1.0317  0.0889
  249MOL0     N32787   3.147  11.090   6.870 -0.0392 -0.1044 -0.8634
  249MOL0     C32788   1.890  10.858   6.911  0.1167 -0.4269 -0.2056
  249MOL0     C32789   1.755  10.877   6.923 -0.3289  0.2586 -1.1075
  249MOL0     C32790   1.350  11.059   6.832 -0.6094  0.8335 -0.8713
  249MOL0     C32791   1.264  10.992   6.745 -0.2401 -0.7284  0.0062
  249MOL0     C32792   1.130  11.022   6.749 -0.0774 -0.4785 -0.0630
  249MOL0     C32793   1.067  11.095   6.850  0.3879 -0.2521 -0.3946
  249MOL0     O32794   0.930  11.098   6.850 -0.3794 -0.3985  0.4468
  249MOL0     C32795   0.865  11.179   6.947  0.3419 -0.0105 -1.2368
  249MOL0     C32796   0.886  11.322   6.926 -0.1976  0.3283  0.1225
  249MOL0     C32797   0.789  11.416   6.996  0.4677  0.5506  0.0913
  249MOL0     C32798   0.645  11.386   6.963  0.1088  0.2882 -0.1431
  249MOL0     C32799   0.557  11.501   6.987  0.3909 -1.0404  0.4662
  249MOL0     C32800   0.478  11.593   7.016 -0.0411  0.4389  0.4494
  249MOL0     C32801   1.156  11.148   6.951  0.2680  0.1043 -0.2573
  249MOL0     C32802   1.289  11.128   6.945  0.7962 -0.4421 -0.0943
  249MOL0     H32803   1.746  11.221   6.974 -0.2182  0.2673  2.4196
  249MOL0     H32804   1.980  11.183   6.949 -0.6130  0.0771 -0.7121
  249MOL0     H32805   2.147  10.822   6.803  1.3081 -1.7090  0.5912
  249MOL0     H32806   2.184  10.795   6.971 -2.1070 -0.7317 -0.1423
  249MOL0     H32807   2.342  11.007   6.946 -1.1816  1.0632 -1.0679
  249MOL0     H32808   2.324  10.990   6.782 -0.3972 -0.4405 -0.5642
  249MOL0     H32809   2.401  10.737   6.799 -0.4539  0.5761 -1.6405
  249MOL0     H32810   2.439  10.784   6.965 -2.9784 -0.6949  0.2297
  249MOL0     H32811   2.545  10.982   6.769  0.6274 -0.0386 -1.0189
  249MOL0     H32812   2.621  10.903   6.910 -1.6803 -0.1309  0.4494
  249MOL0     H32813   2.580  10.760   6.657 -0.6522  1.1187  0.1685
  249MOL0     H32814   2.685  10.711   6.801  0.6286 -0.0799 -0.4185
  249MOL0     H32815   2.735  10.937   6.615  2.0989  1.6130 -0.0148
  249MOL0     H32816   2.827  10.780   6.625  2.2257 -2.2743  5.1569
  249MOL0     H32817   2.809  10.980   6.855  0.4105 -0.3000 -0.6787
  249MOL0     H32818   2.913  10.839   6.846 -0.7093 -0.0140  1.2440
  249MOL0     H32819   2.938  11.050   6.625  3.1233  0.4897 -1.1297
  249MOL0     H32820   3.049  10.920   6.671 -1.2279 -1.8080  0.0634
  249MOL0     H32821   2.892  11.272   6.776  0.6661  1.8167  0.5668
  249MOL0     H32822   2.989  11.491   6.871  2.5115  3.1346 -0.8178
  249MOL0     H32823   3.161  11.490   6.876 -2.6472  0.9167 -1.4829
  249MOL0     H32824   3.080  11.571   7.095 -3.3983  0.5922  0.5206
  249MOL0     H32825   3.168  11.433   7.128  0.6169  1.9643 -1.0322
  249MOL0     H32826   2.877  11.467   7.178 -0.8203 -1.2216  1.5356
  249MOL0     H32827   2.894  11.342   7.066 -3.4325 -0.6314  1.8144
  249MOL0     H32828   3.071  11.378   7.308 -0.5361  2.4612 -2.2086
  249MOL0     H32829   3.026  11.220   7.224 -1.3209 -0.3455  0.2896
  249MOL0     H32830   2.689  11.333   7.492  0.3211  0.3564 -1.4676
  249MOL0     H32831   2.485  11.202   7.468 -1.0722  2.0545 -1.2894
  249MOL0     H32832   2.327  10.762   7.453  1.8180  1.6606 -1.8373
  249MOL0     H32833   2.114  10.591   7.437  0.6479  0.0198 -0.6706
  249MOL0     H32834   1.705  10.730   7.305  2.4267 -1.0082 -1.0708
  249MOL0     H32835   1.771  10.821   7.454 -0.0436  0.3807  1.1166
  249MOL0     H32836   1.695  10.631   7.586 -3.5643 -1.7405  1.0570
  249MOL0     H32837   1.696  10.526   7.450  1.5942  0.5874  0.1382
  249MOL0     H32838   1.521  10.648   7.325  0.5082  0.0550  0.1348
  249MOL0     H32839   1.482  10.744   7.475 -0.8372  1.5345 -2.9724
  249MOL0     H32840   1.481  10.429   7.417 -0.4780 -0.3520 -0.4067
  249MOL0     H32841   1.454  10.507   7.573  2.6546  1.1553 -0.6302
  249MOL0     H32842   1.272  10.553   7.325  2.6300 -0.8326 -1.3853
  249MOL0     H32843   1.260  10.629   7.489  3.7370 -1.5063  4.3297
  249MOL0     H32844   1.228  10.393   7.582 -0.0939 -2.8751 -0.1842
  249MOL0     H32845   1.240  10.329   7.420 -1.1145  0.2703 -0.2022
  249MOL0     H32846   1.021  10.328   7.499 -0.2758  0.0935  0.0059
  249MOL0     H32847   1.032  10.496   7.549  0.9475  0.4180 -0.2319
  249MOL0     H32848   1.023  10.384   7.258  1.9550  2.1429 -1.4860
  249MOL0     H32849   1.051  10.558   7.307  1.0506 -1.2964 -1.3102
  249MOL0     H32850   1.896  10.880   7.245 -1.0867 -1.8359  1.8792
  249MOL0     H32851   2.086  11.048   7.249 -0.3824  1.2064  2.4237
  249MOL0     H32852   2.707  10.915   7.222  0.9971 -1.3589  2.2104
  249MOL0     H32853   2.906  11.057   7.249 -1.5963 -5.1053  0.2994
  249MOL0     H32854   1.931  10.760   6.891 -0.8831 -0.7002 -0.9476
  249MOL0     H32855   1.705  10.789   6.885  1.2397 -0.4526 -1.6163
  249MOL0     H32856   1.303  10.924   6.670  1.1886 -2.2597  2.0263
  249MOL0     H32857   1.079  10.975   6.666  2.4561 -1.1605 -1.3409
  249MOL0     H32858   0.890  11.166   7.053 -2.7384 -0.2332 -0.4313
  249MOL0     H32859   0.759  11.153   6.936  0.5025 -0.4332 -1.7949
  249MOL0     H32860   0.985  11.358   6.955 -0.8662  3.5710 -1.1225
  249MOL0     H32861   0.868  11.326   6.818  0.3793  0.9346  0.0385
  249MOL0     H32862   0.816  11.519   6.971  2.3913  0.3071  0.9722
  249MOL0     H32863   0.793  11.411   7.105 -2.0999 -1.2718  0.2096
  249MOL0     H32864   0.651  11.358   6.857  0.2118  2.1121 -0.6575
  249MOL0     H32865   0.611  11.296   7.015 -2.1954 -0.2650 -2.3745
  249MOL0     H32866   0.414  11.678   7.032 -2.0149 -0.1994 -3.0739
  249MOL0     H32867   1.127  11.201   7.041  3.2869  0.4558  0.6134
  249MOL0     H32868   1.353  11.175   7.020  0.9790  1.0293 -1.1387
  250MOL0     O32869   0.758   9.331   2.054  0.1722  0.2620 -0.1785
  250MOL0     C32870   0.717   9.377   2.162  1.1400  1.0165 -0.6182
  250MOL0     O32871   0.651   9.495   2.182  0.1602 -0.2470  0.0207
  250MOL0     C32872   0.628   9.571   2.073 -0.7107 -0.0193 -0.4992
  250MOL0     C32873   0.523   9.556   1.989 -0.4084  0.0430  0.3910
  250MOL0     C32874   0.514   9.642   1.877 -0.3130 -0.3128  0.8166
  250MOL0     C32875   0.618   9.737   1.848  0.2298 -0.5921 -0.6616
  250MOL0     O32876   0.618   9.788   1.722 -0.0420 -0.3932 -0.5185
  250MOL0     C32877   0.724   9.868   1.677  0.6376  0.2078  0.2460
  250MOL0     C32878   0.710   9.887   1.519 -0.3941  0.0552  0.1681
  250MOL0     C32879   0.575   9.959   1.484 -0.2141 -0.5614 -0.0667
  250MOL0     C32880   0.545   9.963   1.336  0.6051 -0.5882 -0.3201
  250MOL0     C32881   0.434  10.051   1.292  0.8873  0.4669 -0.2230
  250MOL0     C32882   0.443  10.202   1.327  0.2159  1.0284  0.0764
  250MOL0     C32883   0.330  10.286   1.270 -0.1972 -0.2562 -0.3317
  250MOL0     C32884   0.198  10.247   1.329 -0.3540  0.2682 -0.4648
  250MOL0     N32885   0.084  10.319   1.258  0.5414 -0.4180  0.2506
  250MOL0     C32886   0.036  10.450   1.273  0.0044  0.1774 -0.1798
  250MOL0     C32887  -0.052  10.463   1.170  0.8015  0.1252 -0.9079
  250MOL0     C32888  -0.151  10.569   1.137  0.2071  0.6265  0.4756
  250MOL0     C32889  -0.097  10.704   1.088 -0.0040  0.6805  0.1362
  250MOL0     C32890  -0.065  10.697   0.936  0.4772  0.3781  1.2693
  250MOL0     C32891  -0.203  10.696   0.864 -1.5827  1.3409  0.3343
  250MOL0     O32892  -0.269  10.816   0.894  0.1075  0.3578 -0.7307
  250MOL0     C32893  -0.403  10.821   0.872 -0.3326 -0.5092  1.0899
  250MOL0     C32894  -0.481  10.915   0.942  0.5700  0.3930  0.3182
  250MOL0     C32895  -0.616  10.939   0.899  0.4765 -0.1451  0.6142
  250MOL0     C32896  -0.680  10.849   0.808  0.4390 -0.5213 -0.5896
  250MOL0     C32897  -0.822  10.876   0.759  0.7459  0.0785 -0.2418
  250MOL0     O32898  -0.866  10.799   0.654  0.1551  0.0239 -0.9750
  250MOL0     C32899  -1.003  10.800   0.622  0.0645  0.2235  0.4623
  250MOL0     C32900  -1.037  10.847   0.488 -0.4036  0.8365 -0.4475
  250MOL0     C32901  -1.170  10.841   0.456  0.2400  0.7143 -0.3471
  250MOL0     C32902  -1.271  10.804   0.547  0.6633  0.0908  0.3959
  250MOL0     O32903  -1.409  10.808   0.513  0.2216 -0.0023 -1.0429
  250MOL0     C32904  -1.461  10.838   0.383 -0.5607  0.0637  0.0623
  250MOL0     C32905  -1.613  10.830   0.397  0.2963  0.5664  0.2299
  250MOL0     C32906  -1.667  10.934   0.495  0.1909 -0.2229  0.9261
  250MOL0     C32907  -1.828  10.928   0.509 -0.3312 -0.6576 -0.1629
  250MOL0     C32908  -1.912  10.924   0.375 -0.0668 -0.1236 -1.0644
  250MOL0     C32909  -2.058  10.925   0.404 -0.2128  0.4672 -0.4714
  250MOL0     C32910  -2.156  10.875   0.305 -0.0016 -0.2884  0.1467
  250MOL0     C32911  -2.163  10.727   0.309  0.5799 -0.9010 -0.5190
  250MOL0    Cl32912  -2.262  10.642   0.199  0.2577  0.0650  0.0544
  250MOL0     C32913  -1.234  10.766   0.672  0.0490 -0.5879 -0.4031
  250MOL0     C32914  -1.103  10.754   0.706 -1.1909  0.2957 -0.8655
  250MOL0     O32915  -0.894  10.955   0.824 -0.5735 -0.0525 -0.0405
  250MOL0     C32916  -0.598  10.761   0.735  0.3248 -0.1748 -0.5618
  250MOL0     C32917  -0.457  10.742   0.766  0.5273 -0.3545  0.4287
  250MOL0     N32918  -0.062  10.345   1.107  0.4412  0.2370 -0.4151
  250MOL0     N32919   0.020  10.257   1.153  0.5004 -0.7464 -0.0812
  250MOL0     C32920   0.718   9.752   1.943 -0.6483  0.8008 -0.2728
  250MOL0     C32921   0.726   9.664   2.053  0.0426 -0.1212 -0.0425
  250MOL0     C32922   0.755   9.305   2.291 -0.0044  0.2347 -0.4475
  250MOL0     C32923   0.706   9.342   2.419 -0.0938 -0.0117 -0.3820
  250MOL0     C32924   0.737   9.272   2.531 -0.2174  1.4858  0.7009
  250MOL0     C32925   0.814   9.152   2.521  0.4143  0.7223 -1.1525
  250MOL0     O32926   0.830   9.076   2.637 -0.5669 -1.4770  0.1869
  250MOL0     C32927   0.924   8.968   2.646  0.2523 -0.6944  0.2039
  250MOL0     C32928   1.078   9.001   2.657 -0.1415 -0.4298 -0.2009
  250MOL0     C32929   1.109   9.118   2.760  0.3339 -0.8451  1.1119
  250MOL0     C32930   1.108   9.073   2.907 -0.0802 -0.2681 -0.1260
  250MOL0     C32931   1.204   8.964   2.945 -0.0495  0.2795  0.5426
  250MOL0     C32932   1.267   8.879   3.000 -0.2038 -0.6059 -0.0949
  250MOL0     C32933   0.866   9.119   2.394  0.6245 -0.3599  0.8824
  250MOL0     C32934   0.832   9.191   2.277  0.4692  0.4223 -0.6555
  250MOL0     H32935   0.458   9.480   2.030 -0.1563 -0.8066 -0.7394
  250MOL0     H32936   0.427   9.626   1.814  1.3895  0.2053 -1.8418
  250MOL0     H32937   0.822   9.820   1.687 -0.6445 -3.4350 -2.3824
  250MOL0     H32938   0.734   9.961   1.734 -0.8521  1.7538 -1.8131
  250MOL0     H32939   0.724   9.794   1.462  0.0018  2.0246 -3.2682
  250MOL0     H32940   0.797   9.949   1.494 -0.5017  0.9070  1.8043
  250MOL0     H32941   0.589  10.064   1.512 -1.0870 -0.7187  1.0269
  250MOL0     H32942   0.495   9.920   1.548 -0.2635  0.0356  0.2427
  250MOL0     H32943   0.627   9.987   1.268  0.0832  2.6860  0.0414
  250MOL0     H32944   0.517   9.862   1.305 -0.5086 -0.9914  1.8276
  250MOL0     H32945   0.344  10.023   1.347 -0.3207  3.7911 -0.2778
  250MOL0     H32946   0.406  10.030   1.188 -0.7341 -0.2513  0.3136
  250MOL0     H32947   0.543  10.235   1.295  0.3627 -0.6057 -1.2967
  250MOL0     H32948   0.447  10.210   1.436 -1.7824 -0.1645  0.2753
  250MOL0     H32949   0.347  10.393   1.284 -4.1065  0.3088  1.1641
  250MOL0     H32950   0.326  10.264   1.163 -0.8760 -2.8657  0.1598
  250MOL0     H32951   0.193  10.283   1.433  0.0312 -1.7915  0.3055
  250MOL0     H32952   0.189  10.139   1.338 -1.1724  0.2314 -1.5581
  250MOL0     H32953   0.069  10.532   1.336  0.7805 -0.4733  0.2769
  250MOL0     H32954  -0.198  10.585   1.234 -0.2015  1.0824  0.2062
  250MOL0     H32955  -0.229  10.535   1.068  0.6237  4.0804 -1.9381
  250MOL0     H32956  -0.004  10.723   1.141  2.5734 -1.8986 -3.0345
  250MOL0     H32957  -0.164  10.790   1.102 -1.0005  0.0431 -0.5239
  250MOL0     H32958  -0.004  10.783   0.905 -1.3664  0.7335 -1.8230
  250MOL0     H32959  -0.009  10.609   0.902 -2.9279 -0.4903 -2.8351
  250MOL0     H32960  -0.258  10.602   0.872 -1.2793  1.1622  0.3520
  250MOL0     H32961  -0.176  10.696   0.758  1.5279 -0.2115  1.0007
  250MOL0     H32962  -0.428  10.977   1.013 -1.2385  0.3909  1.7415
  250MOL0     H32963  -0.668  11.020   0.950  1.7424  1.6094 -0.7757
  250MOL0     H32964  -0.958  10.873   0.419  0.6959 -1.2476 -0.0757
  250MOL0     H32965  -1.195  10.877   0.357 -2.0103 -0.2530 -0.1963
  250MOL0     H32966  -1.419  10.765   0.313  0.3497  1.3180 -0.7261
  250MOL0     H32967  -1.440  10.941   0.353  0.9179  0.3658  1.9584
  250MOL0     H32968  -1.643  10.731   0.433  0.7126 -1.0231 -3.2849
  250MOL0     H32969  -1.653  10.849   0.297  1.2420 -0.4161 -0.3571
  250MOL0     H32970  -1.629  11.028   0.453  1.7092 -1.7280 -1.3005
  250MOL0     H32971  -1.625  10.915   0.595 -1.0079  1.1574  1.7344
  250MOL0     H32972  -1.856  10.850   0.581  1.8273 -0.3679  1.0700
  250MOL0     H32973  -1.855  11.025   0.549  2.1439  0.8923 -1.9388
  250MOL0     H32974  -1.887  10.825   0.335 -2.3811 -1.2926  0.1340
  250MOL0     H32975  -1.880  11.004   0.308  0.7025  1.2256  0.8688
  250MOL0     H32976  -2.080  11.031   0.423  0.7831  0.5157  0.5698
  250MOL0     H32977  -2.070  10.866   0.495  1.3061 -1.2801 -1.3681
  250MOL0     H32978  -2.255  10.911   0.335 -0.0141 -0.9708  0.9631
  250MOL0     H32979  -2.124  10.922   0.211  0.7879 -3.0028 -1.0379
  250MOL0     H32980  -2.193  10.692   0.408  1.7599  1.4479  0.7267
  250MOL0     H32981  -2.069  10.680   0.279 -0.2109 -0.9918 -3.1263
  250MOL0     H32982  -1.322  10.738   0.729 -2.9331  2.0016 -3.3352
  250MOL0     H32983  -1.077  10.708   0.801 -1.0039 -1.0698 -1.5592
  250MOL0     H32984  -0.648  10.695   0.664 -1.1575  1.0396 -0.7110
  250MOL0     H32985  -0.404  10.670   0.705 -0.9447 -1.5164  0.4571
  250MOL0     H32986   0.792   9.829   1.924  0.8777 -0.2341  1.2008
  250MOL0     H32987   0.795   9.663   2.137 -0.0480 -1.6052  0.0392
  250MOL0     H32988   0.648   9.434   2.427 -2.2034 -1.3286  0.1467
  250MOL0     H32989   0.687   9.308   2.620 -2.4812  3.4742 -1.2473
  250MOL0     H32990   0.906   8.893   2.568 -2.4243  1.3572 -1.3520
  250MOL0     H32991   0.894   8.919   2.740 -0.5239 -3.6476 -1.4409
  250MOL0     H32992   1.130   8.907   2.677 -0.4559 -0.4652  0.5009
  250MOL0     H32993   1.098   9.037   2.556 -2.6885 -0.3702 -0.7587
  250MOL0     H32994   1.044   9.204   2.741  2.6557  0.6389 -0.6620
  250MOL0     H32995   1.210   9.155   2.738 -0.6564  1.9466  0.8500
  250MOL0     H32996   1.127   9.159   2.973 -1.6310  0.6423 -0.8115
  250MOL0     H32997   1.006   9.046   2.936  0.1931 -0.4001  0.7720
  250MOL0     H32998   1.325   8.801   3.046 -2.1782 -2.1657 -0.1054
  250MOL0     H32999   0.913   9.023   2.373  0.8283 -0.2104  0.6405
  250MOL0     H33000   0.873   9.148   2.186 -0.6033  2.2724 -2.0995
  251MOL0     O33001   6.394   3.869   8.889 -0.3637 -0.4381  0.1538
  251MOL0     C33002   6.432   3.886   9.006 -0.1839 -0.3386 -0.4956
  251MOL0     O33003   6.350   3.896   9.120  0.2354  0.3617 -0.4236
  251MOL0     C33004   6.213   3.860   9.112 -0.2257 -0.3211  0.0180
  251MOL0     C33005   6.128   3.960   9.083 -0.0678  0.5543  0.2216
  251MOL0     C33006   5.992   3.947   9.101 -0.1434  0.2323  0.4075
  251MOL0     C33007   5.936   3.818   9.141  0.2586 -0.5878  0.4929
  251MOL0     O33008   5.795   3.798   9.146  0.3075  0.7592  0.4465
  251MOL0     C33009   5.704   3.891   9.217 -0.5412 -0.4754  0.5172
  251MOL0     C33010   5.557   3.845   9.243 -0.0654 -0.6783  0.5450
  251MOL0     C33011   5.461   3.792   9.130  0.2062 -0.4086  0.0942
  251MOL0     C33012   5.442   3.882   9.015  0.5594  0.9082  0.3901
  251MOL0     C33013   5.324   3.826   8.923 -0.0879 -0.2797 -0.2632
  251MOL0     C33014   5.336   3.678   8.883  0.3354 -0.7038  1.1372
  251MOL0     C33015   5.462   3.638   8.811  0.0594 -0.6136  0.6670
  251MOL0     C33016   5.462   3.485   8.799  0.1467 -0.5155 -0.5174
  251MOL0     N33017   5.498   3.425   8.930 -0.6231 -0.0728 -0.0401
  251MOL0     C33018   5.619   3.415   9.004 -0.7568 -0.4293  1.1911
  251MOL0     C33019   5.591   3.354   9.118  0.0556  0.4090 -0.0316
  251MOL0     C33020   5.681   3.339   9.242  1.8818  0.0134  0.4056
  251MOL0     C33021   5.828   3.318   9.209 -0.5482  0.9623 -1.2919
  251MOL0     C33022   5.910   3.330   9.341 -0.5878  1.1137 -0.5212
  251MOL0     C33023   6.055   3.277   9.331  0.2895 -0.2816 -0.8767
  251MOL0     O33024   6.116   3.270   9.457 -0.8670 -0.0980  0.1284
  251MOL0     C33025   6.238   3.214   9.473  0.1708  0.5930 -0.2576
  251MOL0     C33026   6.295   3.219   9.604 -0.8026 -0.0409  0.3813
  251MOL0     C33027   6.428   3.171   9.623  0.1887 -0.2225  0.7036
  251MOL0     C33028   6.502   3.110   9.515  0.0255 -0.0463 -0.1014
  251MOL0     C33029   6.644   3.070   9.536  0.7130  0.6729 -0.2953
  251MOL0     O33030   6.677   3.059   9.671  0.2099 -0.0260 -0.3963
  251MOL0     C33031   6.804   3.040   9.711 -0.3805  0.6128  0.9578
  251MOL0     C33032   6.918   3.096   9.655 -1.1359  0.3678 -1.0942
  251MOL0     C33033   7.034   3.083   9.730  0.9021 -0.3585  1.2051
  251MOL0     C33034   7.051   3.016   9.851 -0.0017  0.1379  0.0059
  251MOL0     O33035   7.174   3.010   9.914  0.2469  0.2889 -0.2373
  251MOL0     C33036   7.153   3.008  10.056 -0.4954 -0.2007 -0.0589
  251MOL0     C33037   7.283   3.051  10.135 -0.2646 -0.7572 -0.6425
  251MOL0     C33038   7.406   2.952  10.131  0.8303 -0.1348  0.5080
  251MOL0     C33039   7.512   3.020  10.220  0.4259  0.0568  0.5006
  251MOL0     C33040   7.583   2.920  10.316 -0.5483  0.2025 -0.1981
  251MOL0     C33041   7.640   2.796  10.253  0.5526  0.2839  0.0072
  251MOL0     C33042   7.651   2.690  10.365 -0.2771  0.0703  1.3053
  251MOL0     C33043   7.670   2.544  10.316 -0.2426  0.0667 -0.1956
  251MOL0    Cl33044   7.680   2.431  10.459  0.6244 -0.7035  0.2028
  251MOL0     C33045   6.927   2.955   9.901  0.2116 -0.0611 -0.4904
  251MOL0     C33046   6.809   2.968   9.827 -0.1016 -0.2733 -0.0687
  251MOL0     O33047   6.719   3.053   9.444 -0.0925 -0.2131 -0.4698
  251MOL0     C33048   6.447   3.106   9.392 -0.1087 -0.3743  0.3869
  251MOL0     C33049   6.317   3.153   9.369 -0.1524 -0.6444  0.6807
  251MOL0     N33050   5.455   3.323   9.123 -0.5491  0.8549  0.4654
  251MOL0     N33051   5.407   3.363   9.011 -0.2979 -0.2780 -0.9138
  251MOL0     C33052   6.024   3.715   9.166  0.6404  0.1792  0.2366
  251MOL0     C33053   6.161   3.734   9.151  0.2191  0.0828 -0.5292
  251MOL0     C33054   6.578   3.886   9.026  0.6551  0.4864  0.2923
  251MOL0     C33055   6.640   3.844   9.145  0.4614 -0.9685  0.2367
  251MOL0     C33056   6.777   3.838   9.161 -0.7874 -0.1452  0.2360
  251MOL0     C33057   6.849   3.870   9.044  0.1505  0.6662  0.7786
  251MOL0     O33058   6.978   3.906   9.036  0.3347  0.4161 -0.9205
  251MOL0     C33059   7.048   3.933   9.160 -0.3280  0.4322 -0.0806
  251MOL0     C33060   7.167   4.018   9.132 -0.8140 -0.3545 -0.1580
  251MOL0     C33061   7.288   3.994   9.219  0.3277 -0.2487 -0.0995
  251MOL0     C33062   7.349   3.856   9.185 -0.1839 -0.7487 -0.4835
  251MOL0     C33063   7.491   3.839   9.216  0.6439 -1.0317 -0.4051
  251MOL0     C33064   7.611   3.828   9.237 -0.2630 -0.7029 -0.0619
  251MOL0     C33065   6.791   3.907   8.929  0.3045 -0.1886 -0.2980
  251MOL0     C33066   6.654   3.919   8.915 -0.0671  0.9084  0.4609
  251MOL0     H33067   6.160   4.055   9.042 -1.0845 -0.0372 -2.0797
  251MOL0     H33068   5.928   4.032   9.082 -0.4579  0.0221  0.5185
  251MOL0     H33069   5.691   3.977   9.150 -1.7705 -1.3058 -0.3687
  251MOL0     H33070   5.755   3.921   9.308 -1.0524 -1.9638  1.3172
  251MOL0     H33071   5.496   3.923   9.288 -1.7398 -0.9917 -1.0568
  251MOL0     H33072   5.572   3.763   9.314  1.2680 -0.0511  1.0149
  251MOL0     H33073   5.360   3.776   9.169 -0.2828 -0.1749 -1.0449
  251MOL0     H33074   5.493   3.690   9.108  2.9536 -0.5754  3.8513
  251MOL0     H33075   5.422   3.980   9.060  3.9480  1.7994  0.1845
  251MOL0     H33076   5.531   3.899   8.954 -1.0230 -0.1995 -2.4277
  251MOL0     H33077   5.315   3.879   8.828 -1.1683 -1.7953 -1.0436
  251MOL0     H33078   5.229   3.843   8.974  0.4947 -1.6273  1.4152
  251MOL0     H33079   5.250   3.666   8.816  0.1630 -0.7468  1.3653
  251MOL0     H33080   5.326   3.623   8.977 -3.2544 -2.2925  0.0221
  251MOL0     H33081   5.452   3.683   8.711 -3.1768  0.6449  1.4250
  251MOL0     H33082   5.557   3.669   8.856  0.1261  0.2910 -0.0543
  251MOL0     H33083   5.527   3.459   8.715 -1.4277  1.2490 -2.3698
  251MOL0     H33084   5.362   3.455   8.767 -0.0520  1.0621 -1.4954
  251MOL0     H33085   5.713   3.460   8.973 -0.1601 -0.8163  2.3735
  251MOL0     H33086   5.647   3.249   9.293  0.1685 -0.6756 -1.7782
  251MOL0     H33087   5.665   3.419   9.314  1.8090  0.8312 -0.4950
  251MOL0     H33088   5.874   3.383   9.134 -2.6495  2.3932 -1.4310
  251MOL0     H33089   5.837   3.214   9.174  0.2170  1.1245 -1.6028
  251MOL0     H33090   5.922   3.433   9.377  0.2121  0.2432  1.9601
  251MOL0     H33091   5.859   3.281   9.426 -0.2196 -1.3490 -1.6228
  251MOL0     H33092   6.119   3.332   9.261  0.7384 -2.7331 -2.5020
  251MOL0     H33093   6.042   3.181   9.281 -1.3294  0.6625 -2.4157
  251MOL0     H33094   6.234   3.248   9.688  1.4744  0.0656  2.0688
  251MOL0     H33095   6.469   3.187   9.722  1.2575  0.2481  0.2015
  251MOL0     H33096   6.911   3.162   9.569  2.3151  0.7914 -1.2098
  251MOL0     H33097   7.120   3.125   9.679 -0.4570 -2.1046 -3.0108
  251MOL0     H33098   7.124   2.908  10.089 -4.1691  0.7022 -0.0827
  251MOL0     H33099   7.081   3.086  10.081  0.9052  1.3704 -0.7036
  251MOL0     H33100   7.262   3.077  10.239 -0.4312 -0.8356 -0.6546
  251MOL0     H33101   7.322   3.140  10.087 -2.1940 -0.2695 -1.3996
  251MOL0     H33102   7.438   2.943  10.026  0.0170  0.0210  0.2464
  251MOL0     H33103   7.368   2.856  10.168 -1.1081  0.6920  0.7174
  251MOL0     H33104   7.588   3.067  10.157  2.6182 -2.8158  0.8239
  251MOL0     H33105   7.478   3.106  10.280 -1.9248  0.4986 -1.3168
  251MOL0     H33106   7.510   2.903  10.397 -1.3010 -1.0259 -1.0970
  251MOL0     H33107   7.667   2.981  10.349  0.8571  0.2644 -3.5504
  251MOL0     H33108   7.737   2.811  10.205  0.1738 -0.4021 -1.0049
  251MOL0     H33109   7.573   2.748  10.180  0.6105 -0.8842  0.6938
  251MOL0     H33110   7.730   2.721  10.434 -1.1038 -0.3159  2.4566
  251MOL0     H33111   7.557   2.690  10.421  0.1650  1.3807  2.0804
  251MOL0     H33112   7.768   2.532  10.269  0.3085  0.6067  0.7816
  251MOL0     H33113   7.590   2.514  10.247  0.9387 -3.2092 -0.3007
  251MOL0     H33114   6.920   2.899   9.993  0.1739  2.7317  1.3487
  251MOL0     H33115   6.716   2.922   9.859  0.6985 -2.1893 -0.3404
  251MOL0     H33116   6.511   3.066   9.315  0.5956  0.1707  0.6819
  251MOL0     H33117   6.275   3.139   9.270 -0.1728  1.9334  0.2411
  251MOL0     H33118   5.987   3.625   9.214 -1.3990  0.9748  0.2689
  251MOL0     H33119   6.227   3.652   9.174  0.1123 -0.4537 -2.0534
  251MOL0     H33120   6.575   3.824   9.230 -0.2562  0.2617  0.0029
  251MOL0     H33121   6.822   3.813   9.257 -2.0401 -2.4181  0.3304
  251MOL0     H33122   7.072   3.834   9.202 -2.5471 -0.2117 -0.2174
  251MOL0     H33123   6.988   3.983   9.236  2.6853  0.6520  2.3870
  251MOL0     H33124   7.205   4.013   9.029  2.3231  2.2680  0.6874
  251MOL0     H33125   7.130   4.117   9.162  2.4127  0.5905  1.1605
  251MOL0     H33126   7.277   4.004   9.327 -0.9844  0.3237 -0.2661
  251MOL0     H33127   7.361   4.071   9.194 -0.1164  0.1939 -0.0501
  251MOL0     H33128   7.294   3.779   9.240  0.6470 -0.2639  1.0631
  251MOL0     H33129   7.344   3.821   9.081  0.6772  1.5758 -1.3789
  251MOL0     H33130   7.717   3.832   9.253 -0.3152 -1.4109  0.5367
  251MOL0     H33131   6.851   3.949   8.849 -1.3143 -0.9918 -2.0145
  251MOL0     H33132   6.607   3.950   8.822  0.5943 -2.2234 -1.0584
  252MOL0     O33133   3.171   6.217   0.653 -0.4743  0.5651  0.5312
  252MOL0     C33134   3.127   6.162   0.557 -0.1742  0.0108 -1.1994
  252MOL0     O33135   3.033   6.069   0.556 -0.1569 -0.1805  0.1201
  252MOL0     C33136   2.956   6.043   0.670  0.3009  0.1843 -0.2573
  252MOL0     C33137   2.878   6.149   0.730  0.1747  0.3244 -0.7953
  252MOL0     C33138   2.797   6.116   0.833  0.9837  0.6938  0.3211
  252MOL0     C33139   2.784   5.986   0.882  0.3799 -0.1895 -0.2122
  252MOL0     O33140   2.696   5.972   0.983 -0.4226  0.8636 -0.1403
  252MOL0     C33141   2.701   5.848   1.068  0.5541 -0.3556 -0.2212
  252MOL0     C33142   2.619   5.749   0.994  0.5492 -0.2967 -0.2614
  252MOL0     C33143   2.466   5.792   0.992 -0.8477 -0.1037 -0.3929
  252MOL0     C33144   2.372   5.686   0.937  0.7058  0.1804  0.9095
  252MOL0     C33145   2.233   5.703   0.997  0.2704  0.4361  0.2265
  252MOL0     C33146   2.142   5.606   0.929 -0.5660  0.3430 -0.5258
  252MOL0     C33147   1.994   5.623   0.967  0.1339 -1.1024 -0.3082
  252MOL0     C33148   1.891   5.525   0.899 -0.0960 -0.4817 -0.4274
  252MOL0     N33149   1.750   5.581   0.895 -1.2486  0.0134  0.0869
  252MOL0     C33150   1.687   5.654   0.995 -0.0892 -0.7690 -0.6929
  252MOL0     C33151   1.575   5.703   0.935  0.0099  0.7997 -0.4678
  252MOL0     C33152   1.466   5.773   1.007  0.7533  0.0269  0.4602
  252MOL0     C33153   1.377   5.689   1.107 -0.1890 -0.4364  0.1509
  252MOL0     C33154   1.310   5.795   1.200 -0.3042  0.5142  0.1146
  252MOL0     C33155   1.201   5.733   1.294 -0.0846  0.4913 -0.0959
  252MOL0     O33156   1.107   5.663   1.201 -0.3108  0.3274  0.0869
  252MOL0     C33157   0.987   5.716   1.174 -0.5066 -0.2489 -0.3117
  252MOL0     C33158   0.941   5.841   1.210  0.1450 -0.3555  0.4241
  252MOL0     C33159   0.807   5.889   1.182 -0.1538 -0.4838  0.6574
  252MOL0     C33160   0.714   5.801   1.114  0.3823 -0.1014 -0.9219
  252MOL0     C33161   0.576   5.846   1.107  0.9009 -0.4093 -0.3263
  252MOL0     O33162   0.548   5.978   1.150 -0.6190 -0.2307  0.3007
  252MOL0     C33163   0.422   6.017   1.123  0.2476 -0.1722  0.8230
  252MOL0     C33164   0.401   6.119   1.026  0.0148  0.2249  0.0996
  252MOL0     C33165   0.271   6.158   1.006  0.5871 -0.1370  0.0821
  252MOL0     C33166   0.161   6.103   1.072 -0.6008 -0.3524  0.3958
  252MOL0     O33167   0.038   6.150   1.031 -0.6121 -0.7972 -1.2402
  252MOL0     C33168  -0.078   6.063   1.049 -0.4615 -0.0742 -0.8650
  252MOL0     C33169  -0.220   6.141   1.049 -0.7513 -0.4607  0.3489
  252MOL0     C33170  -0.337   6.044   1.093  0.2646  0.5238  0.2188
  252MOL0     C33171  -0.451   6.131   1.157 -1.3430  0.3644 -0.0476
  252MOL0     C33172  -0.573   6.044   1.188 -0.3691  0.0990  0.5296
  252MOL0     C33173  -0.707   6.111   1.215 -0.5876  0.1283 -0.0265
  252MOL0     C33174  -0.711   6.235   1.310  0.3644  0.5806  0.7496
  252MOL0     C33175  -0.856   6.289   1.330  0.1687  0.4930  0.5491
  252MOL0    Cl33176  -0.911   6.382   1.180  0.3545  0.1581 -0.1256
  252MOL0     C33177   0.194   6.012   1.180 -0.4937  0.4799  0.1157
  252MOL0     C33178   0.322   5.970   1.204 -0.0482 -0.6806 -0.9291
  252MOL0     O33179   0.486   5.768   1.063 -0.4224  0.0096 -0.4328
  252MOL0     C33180   0.765   5.677   1.076 -0.0943  0.5891 -0.4206
  252MOL0     C33181   0.894   5.630   1.111 -0.8335  0.3569  0.0734
  252MOL0     N33182   1.573   5.657   0.803 -0.0980  0.3242  1.0832
  252MOL0     N33183   1.684   5.593   0.775 -0.0626  0.4956  0.7564
  252MOL0     C33184   2.864   5.892   0.828  0.3217 -0.2132 -0.1322
  252MOL0     C33185   2.942   5.919   0.719 -0.8241  0.0674  0.2484
  252MOL0     C33186   3.176   6.221   0.425 -0.9348  0.6436 -0.4504
  252MOL0     C33187   3.133   6.170   0.302  0.8459  0.5570  0.7277
  252MOL0     C33188   3.193   6.229   0.191  0.5870  0.4648 -0.0487
  252MOL0     C33189   3.283   6.330   0.191  0.3641 -0.9147 -0.7370
  252MOL0     O33190   3.339   6.370   0.072 -0.6589 -0.4598 -0.5117
  252MOL0     C33191   3.431   6.482   0.083  0.5671  0.1164 -0.0272
  252MOL0     C33192   3.434   6.550  -0.051  0.0359 -0.5294 -0.6170
  252MOL0     C33193   3.426   6.458  -0.174  0.5510 -0.7724  0.6515
  252MOL0     C33194   3.472   6.515  -0.306 -1.2359 -0.0365  0.2504
  252MOL0     C33195   3.475   6.400  -0.403  1.1977 -0.3266 -0.2816
  252MOL0     C33196   3.464   6.302  -0.468 -0.5830  1.4712 -0.4119
  252MOL0     C33197   3.329   6.378   0.319 -0.0901 -0.8036  0.2351
  252MOL0     C33198   3.268   6.331   0.431  0.0164  0.5627 -0.2812
  252MOL0     H33199   2.889   6.254   0.707 -0.8072 -0.2011 -4.2271
  252MOL0     H33200   2.733   6.190   0.880  0.2755 -0.3659  1.0740
  252MOL0     H33201   2.657   5.864   1.167  2.6653 -0.9084  0.8613
  252MOL0     H33202   2.802   5.811   1.090  2.3690  0.4275 -5.6908
  252MOL0     H33203   2.623   5.645   1.027 -1.6382 -0.8281 -1.4380
  252MOL0     H33204   2.648   5.745   0.888 -1.4419 -3.1284 -0.8396
  252MOL0     H33205   2.465   5.888   0.940  0.3052 -0.0200 -0.2869
  252MOL0     H33206   2.434   5.809   1.095 -2.8194  0.6172 -1.0799
  252MOL0     H33207   2.374   5.698   0.828 -1.4473  0.5458  0.8731
  252MOL0     H33208   2.415   5.586   0.950  2.1814  0.7421  0.6446
  252MOL0     H33209   2.191   5.801   0.973 -2.7516 -0.2528  2.2417
  252MOL0     H33210   2.226   5.698   1.106  2.8523 -0.3778  0.4274
  252MOL0     H33211   2.163   5.503   0.958  0.0623  1.1696  2.2989
  252MOL0     H33212   2.160   5.621   0.822  1.1099  1.8412 -0.0800
  252MOL0     H33213   1.968   5.617   1.073 -2.4376 -1.3502 -0.8822
  252MOL0     H33214   1.962   5.725   0.944  0.5976 -0.7683  0.4905
  252MOL0     H33215   1.887   5.432   0.956 -2.7374 -0.1918  0.0089
  252MOL0     H33216   1.914   5.515   0.792 -2.6066  2.3489 -1.3916
  252MOL0     H33217   1.711   5.668   1.100 -1.8006  0.3037 -0.4010
  252MOL0     H33218   1.401   5.800   0.924  0.7687 -3.5844 -0.9267
  252MOL0     H33219   1.504   5.867   1.048 -0.9587  0.1607  1.9035
  252MOL0     H33220   1.438   5.615   1.161  2.2102  1.4582  0.2221
  252MOL0     H33221   1.296   5.632   1.062 -1.8527  1.6499  0.3590
  252MOL0     H33222   1.391   5.839   1.259  1.3496  1.1676 -2.4614
  252MOL0     H33223   1.255   5.866   1.137 -4.1583 -2.1880  0.0517
  252MOL0     H33224   1.158   5.805   1.365 -1.0657  0.1171 -0.2905
  252MOL0     H33225   1.241   5.654   1.357  1.1183  3.3568  3.0456
  252MOL0     H33226   0.995   5.918   1.265 -1.0862  1.7272 -1.1363
  252MOL0     H33227   0.787   5.989   1.218 -2.8937 -0.4421 -0.6693
  252MOL0     H33228   0.485   6.157   0.969  0.5214 -0.0594  0.6468
  252MOL0     H33229   0.251   6.216   0.917 -3.3867 -0.7694  0.4109
  252MOL0     H33230  -0.081   6.012   1.146  0.7964  0.3593 -0.5746
  252MOL0     H33231  -0.077   5.985   0.972 -1.9304  2.7784 -4.0149
  252MOL0     H33232  -0.232   6.188   0.951  3.4570 -1.7505 -0.9634
  252MOL0     H33233  -0.212   6.229   1.114 -2.4342  1.1345 -1.4700
  252MOL0     H33234  -0.295   5.978   1.170  2.5364  1.6168  0.0289
  252MOL0     H33235  -0.373   5.985   1.009 -0.6413 -1.1364  1.7030
  252MOL0     H33236  -0.407   6.184   1.242  3.4054  0.9006 -2.4895
  252MOL0     H33237  -0.483   6.206   1.084  0.6307  0.5969 -0.7240
  252MOL0     H33238  -0.552   5.977   1.272 -1.1500 -0.6303  0.1552
  252MOL0     H33239  -0.589   5.980   1.101 -2.5849  2.5478 -1.0157
  252MOL0     H33240  -0.775   6.039   1.261  0.8435  0.3575  2.6693
  252MOL0     H33241  -0.751   6.135   1.118  0.2106  0.1206 -0.3887
  252MOL0     H33242  -0.666   6.204   1.405  0.0545  1.3330  1.1472
  252MOL0     H33243  -0.640   6.310   1.274  1.8271 -0.9007  0.4331
  252MOL0     H33244  -0.863   6.340   1.427  3.6270 -0.2573  1.3180
  252MOL0     H33245  -0.919   6.201   1.347  1.5189 -0.5448  0.3391
  252MOL0     H33246   0.119   5.981   1.252 -0.4625 -0.5140 -0.2662
  252MOL0     H33247   0.327   5.903   1.289 -1.7755  2.9125  2.3032
  252MOL0     H33248   0.699   5.603   1.031 -2.3795  2.2982 -0.0570
  252MOL0     H33249   0.925   5.526   1.097  1.1221  0.9771 -0.6246
  252MOL0     H33250   2.857   5.794   0.874  3.2528  0.8704  3.0997
  252MOL0     H33251   2.994   5.830   0.684  2.0242  2.0830 -1.0764
  252MOL0     H33252   3.061   6.089   0.304  2.0358 -0.5978  4.1364
  252MOL0     H33253   3.173   6.188   0.093  1.1744 -1.6200  0.6416
  252MOL0     H33254   3.528   6.450   0.121  2.0578  2.3501 -1.7007
  252MOL0     H33255   3.389   6.556   0.153  1.7198 -1.6074  2.6682
  252MOL0     H33256   3.352   6.622  -0.054  0.0038 -0.5726 -0.7668
  252MOL0     H33257   3.522   6.616  -0.051  0.5006 -1.0560  1.6437
  252MOL0     H33258   3.324   6.423  -0.193  0.8358 -0.1908 -2.4812
  252MOL0     H33259   3.485   6.368  -0.154 -1.2143 -1.8501  1.2604
  252MOL0     H33260   3.399   6.587  -0.345 -2.9618 -1.7517  0.1871
  252MOL0     H33261   3.575   6.552  -0.312 -0.6274 -1.3992  1.6869
  252MOL0     H33262   3.473   6.214  -0.528 -1.7734  1.5588 -0.7415
  252MOL0     H33263   3.406   6.451   0.341 -1.5707  1.4392 -1.6396
  252MOL0     H33264   3.288   6.379   0.526 -2.1147 -0.6010  0.8113
  253MOL0     O33265   9.260   8.991   9.692 -0.0141 -0.0774  0.0732
  253MOL0     C33266   9.264   9.110   9.699  0.1706 -0.3716  0.3930
  253MOL0     O33267   9.157   9.200   9.687  0.2162 -0.1255  0.0246
  253MOL0     C33268   9.036   9.139   9.662 -0.2854  0.0139 -0.1887
  253MOL0     C33269   8.934   9.163   9.754  0.3216 -0.3143 -0.4463
  253MOL0     C33270   8.807   9.102   9.747  0.7467  0.2452  0.0300
  253MOL0     C33271   8.770   9.016   9.641 -0.1760 -0.7166 -0.5316
  253MOL0     O33272   8.641   8.977   9.630 -0.1041  0.1487 -0.4194
  253MOL0     C33273   8.618   8.876   9.528  0.6670  0.3571  0.0436
  253MOL0     C33274   8.491   8.800   9.538  0.2575 -0.4180  0.6871
  253MOL0     C33275   8.356   8.866   9.487 -1.1317  0.5073 -0.0686
  253MOL0     C33276   8.237   8.780   9.511 -0.0678  0.7893  0.0802
  253MOL0     C33277   8.102   8.848   9.490 -0.2495  0.3472 -0.0602
  253MOL0     C33278   7.987   8.748   9.493  0.5434 -0.4064  0.5300
  253MOL0     C33279   7.851   8.821   9.488  0.6939  0.3272  0.6264
  253MOL0     C33280   7.812   8.898   9.612 -0.5419 -0.4278  0.2730
  253MOL0     N33281   7.674   8.933   9.602  0.8530 -0.3276  0.0705
  253MOL0     C33282   7.563   8.849   9.630  0.4243 -0.0886 -0.3550
  253MOL0     C33283   7.449   8.927   9.624 -0.0389 -0.1670 -0.4745
  253MOL0     C33284   7.315   8.891   9.667  0.2794  1.4423  0.0715
  253MOL0     C33285   7.213   8.865   9.545  0.3612 -0.2927  1.2885
  253MOL0     C33286   7.069   8.922   9.555  0.4868  0.5435  0.0218
  253MOL0     C33287   6.987   8.864   9.670 -0.3927  0.6748  0.0845
  253MOL0     O33288   6.907   8.748   9.639 -0.6874 -0.1822 -0.1100
  253MOL0     C33289   6.802   8.752   9.549 -0.3993  0.3076  1.2926
  253MOL0     C33290   6.772   8.628   9.487  0.1596 -0.9936  1.0462
  253MOL0     C33291   6.656   8.609   9.414  0.2681 -0.0050 -0.3723
  253MOL0     C33292   6.573   8.717   9.391  0.1459 -0.0313  0.3102
  253MOL0     C33293   6.444   8.697   9.332 -0.4878 -0.1434 -0.0238
  253MOL0     O33294   6.429   8.589   9.249 -0.2429 -0.4029 -0.6564
  253MOL0     C33295   6.300   8.559   9.211  0.5339  0.2790  0.5219
  253MOL0     C33296   6.288   8.538   9.078  0.3894  0.8019 -0.0486
  253MOL0     C33297   6.161   8.501   9.021  0.4777 -0.1431  0.0103
  253MOL0     C33298   6.055   8.488   9.108  0.9530  0.3105  0.3685
  253MOL0     O33299   5.941   8.437   9.048  0.2943  0.3455 -0.3131
  253MOL0     C33300   5.855   8.350   9.135 -0.5874  0.4420 -0.7492
  253MOL0     C33301   5.893   8.210   9.075  0.6194 -0.8344  0.2515
  253MOL0     C33302   5.837   8.187   8.938  0.7765  0.3626 -0.2031
  253MOL0     C33303   5.823   8.039   8.904 -0.2687  0.1240  0.4763
  253MOL0     C33304   5.767   8.024   8.762  0.0131 -0.0542  1.0329
  253MOL0     C33305   5.724   7.878   8.720 -0.8555 -0.0210  0.7207
  253MOL0     C33306   5.706   7.859   8.569 -0.6275  0.1464  0.3091
  253MOL0     C33307   5.749   7.719   8.528 -0.2988 -0.5593  0.3561
  253MOL0    Cl33308   5.928   7.730   8.519 -0.3722 -0.0748 -0.1435
  253MOL0     C33309   6.064   8.511   9.240  0.8279 -1.0366  0.4582
  253MOL0     C33310   6.189   8.542   9.289  0.3335  0.1292 -0.4150
  253MOL0     O33311   6.357   8.786   9.355 -0.0207  0.0259  0.2488
  253MOL0     C33312   6.610   8.848   9.451  1.7203  0.5826  0.6406
  253MOL0     C33313   6.720   8.860   9.532 -0.1999  0.4856 -0.6526
  253MOL0     N33314   7.501   9.051   9.593  0.3545  0.0638  0.3502
  253MOL0     N33315   7.621   9.058   9.567  0.5813 -0.1509  1.3570
  253MOL0     C33316   8.875   9.002   9.544  0.3903 -0.6118 -0.2835
  253MOL0     C33317   9.002   9.052   9.556 -0.6994 -1.1106  0.2785
  253MOL0     C33318   9.398   9.166   9.739  0.5238 -0.9409 -0.5855
  253MOL0     C33319   9.409   9.307   9.756  0.3849 -0.4160 -0.7476
  253MOL0     C33320   9.528   9.366   9.801  0.0734  0.2620  0.1744
  253MOL0     C33321   9.643   9.291   9.834 -0.3056 -0.0524 -0.1368
  253MOL0     O33322   9.758   9.352   9.870 -0.1701 -0.5528 -0.6738
  253MOL0     C33323   9.879   9.278   9.847 -0.3453  0.3141 -0.0189
  253MOL0     C33324   9.996   9.357   9.846  0.3234 -0.6364  0.0775
  253MOL0     C33325  10.009   9.465   9.742 -0.2596 -0.0242 -0.6451
  253MOL0     C33326  10.136   9.561   9.774  0.0336 -0.9276  0.2855
  253MOL0     C33327  10.272   9.505   9.733  0.5285  0.5557  0.1306
  253MOL0     C33328  10.374   9.468   9.687  0.0984  0.3999  0.8054
  253MOL0     C33329   9.630   9.148   9.819  0.1153  0.8505 -0.1963
  253MOL0     C33330   9.509   9.095   9.779  0.7315 -0.2850 -0.0924
  253MOL0     H33331   8.958   9.226   9.839 -0.9303  0.3416 -0.5711
  253MOL0     H33332   8.717   9.122   9.804 -0.5877 -2.0109 -1.1441
  253MOL0     H33333   8.697   8.802   9.523 -0.9264 -1.3754 -0.5457
  253MOL0     H33334   8.617   8.914   9.425 -0.9066 -2.2443 -1.0017
  253MOL0     H33335   8.468   8.765   9.639 -0.3399 -0.2451  0.6156
  253MOL0     H33336   8.513   8.713   9.474 -0.2851 -0.0814  0.0230
  253MOL0     H33337   8.361   8.883   9.379 -2.0012 -1.6704 -0.5083
  253MOL0     H33338   8.346   8.957   9.547 -0.6916  0.1371  0.5872
  253MOL0     H33339   8.237   8.691   9.448 -1.5846  0.4486  0.5265
  253MOL0     H33340   8.245   8.748   9.615 -1.5789  3.2244  1.0374
  253MOL0     H33341   8.099   8.888   9.388 -2.2982 -0.6696 -0.4549
  253MOL0     H33342   8.086   8.933   9.556 -3.1934  0.1873 -0.4405
  253MOL0     H33343   7.989   8.703   9.593 -0.0491  0.7139  1.0690
  253MOL0     H33344   7.994   8.662   9.426 -4.3053 -0.7485  0.1554
  253MOL0     H33345   7.835   8.873   9.393 -2.3887 -1.6979 -0.1103
  253MOL0     H33346   7.779   8.738   9.482  1.3545 -0.2284  0.1334
  253MOL0     H33347   7.858   8.997   9.614 -2.9990  0.7759  1.7045
  253MOL0     H33348   7.829   8.843   9.705 -0.1089 -0.7615  0.0004
  253MOL0     H33349   7.571   8.744   9.653  2.7136  0.2024  0.4700
  253MOL0     H33350   7.271   8.958   9.741  0.0790  2.4187 -0.9069
  253MOL0     H33351   7.329   8.792   9.712 -1.4692  0.2899 -1.7233
  253MOL0     H33352   7.209   8.757   9.529  1.5647  0.0340 -1.9559
  253MOL0     H33353   7.246   8.911   9.451 -1.5218  1.8902  1.5964
  253MOL0     H33354   7.079   9.030   9.560  1.4376  0.4127  4.1171
  253MOL0     H33355   7.016   8.907   9.460  0.0122 -0.4789  0.4282
  253MOL0     H33356   6.914   8.939   9.702 -1.7792 -1.1937  1.5453
  253MOL0     H33357   7.058   8.834   9.748  0.0424  0.0091 -0.5556
  253MOL0     H33358   6.835   8.540   9.500  1.0995 -0.1908  2.2146
  253MOL0     H33359   6.625   8.510   9.380 -0.4747  0.0895  0.0325
  253MOL0     H33360   6.378   8.545   9.017  0.9146 -2.8366  0.0301
  253MOL0     H33361   6.153   8.489   8.914  0.2686 -0.3798  0.0514
  253MOL0     H33362   5.747   8.370   9.126 -0.7383  1.7924  2.6785
  253MOL0     H33363   5.881   8.348   9.241 -3.1868  0.3234 -0.0407
  253MOL0     H33364   5.864   8.125   9.138  1.4723 -2.9588 -2.0718
  253MOL0     H33365   6.001   8.211   9.064  0.8348 -0.9214  2.0953
  253MOL0     H33366   5.882   8.250   8.861 -0.5998 -0.2219 -1.5391
  253MOL0     H33367   5.733   8.222   8.942 -0.0841 -1.9755  3.3877
  253MOL0     H33368   5.919   7.985   8.903  0.1924  0.9036  1.1651
  253MOL0     H33369   5.758   7.986   8.974 -0.2992  1.0323  1.1511
  253MOL0     H33370   5.839   8.057   8.687  0.0923 -0.9549  0.6937
  253MOL0     H33371   5.682   8.092   8.759 -1.0368 -1.3339  0.9267
  253MOL0     H33372   5.630   7.854   8.771 -1.3985  2.0381  0.7717
  253MOL0     H33373   5.804   7.815   8.758  0.2731  1.3542  0.7219
  253MOL0     H33374   5.599   7.862   8.546 -0.3355  1.0020 -1.0964
  253MOL0     H33375   5.749   7.934   8.502  1.0749 -0.8145  0.2681
  253MOL0     H33376   5.702   7.689   8.434  1.5202  3.0226 -1.9145
  253MOL0     H33377   5.729   7.639   8.599  0.6043 -3.0975 -2.0248
  253MOL0     H33378   5.977   8.522   9.305 -0.0955  1.0516 -1.0078
  253MOL0     H33379   6.198   8.545   9.397 -0.9307 -1.1136 -0.2333
  253MOL0     H33380   6.539   8.928   9.432  1.3719 -0.2041 -1.6589
  253MOL0     H33381   6.759   8.958   9.558  0.3391  0.3565 -0.9613
  253MOL0     H33382   8.849   8.942   9.458  1.1091  1.0904 -1.7376
  253MOL0     H33383   9.077   9.009   9.491  1.8071 -0.9912  2.8712
  253MOL0     H33384   9.323   9.372   9.742  0.1870 -0.0719  1.6397
  253MOL0     H33385   9.531   9.475   9.807  2.9918  0.3428 -1.0292
  253MOL0     H33386   9.867   9.227   9.752  0.2495  0.7493 -0.3315
  253MOL0     H33387   9.871   9.210   9.933  0.8124  0.1741 -0.0086
  253MOL0     H33388  10.018   9.409   9.940 -0.6531 -1.3852  0.7345
  253MOL0     H33389  10.084   9.292   9.837 -0.0899 -1.3586  1.0522
  253MOL0     H33390   9.922   9.532   9.750  0.3867  0.6259  2.0082
  253MOL0     H33391  10.027   9.430   9.640  1.2332  3.4789 -1.7542
  253MOL0     H33392  10.125   9.655   9.719 -0.9592 -0.7989  0.7013
  253MOL0     H33393  10.141   9.596   9.877  1.7655 -0.8016  0.2010
  253MOL0     H33394  10.470   9.440   9.647 -1.0216 -0.6132 -1.3288
  253MOL0     H33395   9.714   9.084   9.843 -1.2003 -0.6311  0.6305
  253MOL0     H33396   9.503   8.986   9.777  0.5954 -0.3694  2.0665
  254MOL0     O33397   0.342   4.514   1.729 -0.2549 -0.0218  0.1420
  254MOL0     C33398   0.330   4.591   1.635 -0.0729 -0.7635  0.7221
  254MOL0     O33399   0.435   4.632   1.558  0.8375 -0.8936 -0.1129
  254MOL0     C33400   0.554   4.569   1.578  0.0288  0.4697  0.4106
  254MOL0     C33401   0.630   4.511   1.475  0.0326  0.0987  0.2773
  254MOL0     C33402   0.766   4.478   1.494  0.5120  0.2458 -0.4176
  254MOL0     C33403   0.827   4.491   1.622 -0.3685  0.6921 -0.6182
  254MOL0     O33404   0.960   4.470   1.651  0.0420  0.0186  0.0763
  254MOL0     C33405   1.029   4.375   1.563  1.1063  1.0562 -0.0724
  254MOL0     C33406   1.171   4.360   1.613  0.6215  0.1538  0.1807
  254MOL0     C33407   1.266   4.249   1.566  0.6285 -0.3255 -0.0449
  254MOL0     C33408   1.245   4.166   1.436 -0.1242 -0.1876 -0.2102
  254MOL0     C33409   1.363   4.071   1.420  0.4482  0.7126  0.1169
  254MOL0     C33410   1.349   3.976   1.298  0.5458 -0.4799 -0.7871
  254MOL0     C33411   1.459   3.870   1.322  0.1352  0.4026  0.6905
  254MOL0     C33412   1.451   3.744   1.228  0.0952  0.5451  0.4871
  254MOL0     N33413   1.583   3.671   1.239  0.3073  0.2144 -0.1283
  254MOL0     C33414   1.672   3.647   1.138 -0.4974 -0.0658  0.8086
  254MOL0     C33415   1.778   3.574   1.188  0.6722  0.1704 -0.8333
  254MOL0     C33416   1.912   3.547   1.123  0.1071 -0.5339  0.3598
  254MOL0     C33417   2.003   3.668   1.156  0.1995 -0.1787  0.1600
  254MOL0     C33418   2.092   3.637   1.278  0.4814 -0.5703 -0.4482
  254MOL0     C33419   2.167   3.756   1.324  0.6806 -0.4534  0.6312
  254MOL0     O33420   2.293   3.778   1.257  0.7020  0.3192 -0.7746
  254MOL0     C33421   2.405   3.697   1.281  0.4127 -0.3148  0.0108
  254MOL0     C33422   2.495   3.689   1.169 -0.8292 -0.3938 -0.0902
  254MOL0     C33423   2.617   3.614   1.192  1.0640 -0.3337 -0.1329
  254MOL0     C33424   2.639   3.545   1.313 -0.8716 -0.7850  0.4235
  254MOL0     C33425   2.760   3.471   1.337 -0.1378 -0.2216  0.5602
  254MOL0     O33426   2.752   3.369   1.428  0.9905 -0.0670  0.1561
  254MOL0     C33427   2.851   3.277   1.440  0.8179 -0.5566  0.1452
  254MOL0     C33428   2.819   3.141   1.409  0.2157 -0.4550  0.4570
  254MOL0     C33429   2.921   3.046   1.424 -0.3291 -0.1040 -0.4178
  254MOL0     C33430   3.045   3.075   1.484  0.4164  0.3184  0.5988
  254MOL0     O33431   3.142   2.981   1.508  0.2041  0.4483 -0.2790
  254MOL0     C33432   3.133   2.850   1.459  0.1777 -0.4271 -0.4729
  254MOL0     C33433   3.275   2.801   1.473  0.1726  0.7506  0.2671
  254MOL0     C33434   3.271   2.666   1.404 -0.2868  0.5034  0.2380
  254MOL0     C33435   3.412   2.609   1.407 -0.4369 -0.1756 -0.8575
  254MOL0     C33436   3.419   2.498   1.306  0.1545 -0.6242  0.4411
  254MOL0     C33437   3.543   2.407   1.331 -0.0224  0.4725  0.5374
  254MOL0     C33438   3.567   2.323   1.209  0.4130  0.4258 -0.4549
  254MOL0     C33439   3.710   2.262   1.203 -0.3057 -0.0355 -1.0022
  254MOL0    Cl33440   3.732   2.160   1.349 -0.0246  0.0226  0.0029
  254MOL0     C33441   3.058   3.205   1.512  0.2276 -0.0700 -0.5188
  254MOL0     C33442   2.976   3.307   1.486 -0.1087 -0.0426  0.2749
  254MOL0     O33443   2.858   3.485   1.259  0.1641  0.1984 -0.0054
  254MOL0     C33444   2.541   3.550   1.411  0.9356 -0.4675  0.0376
  254MOL0     C33445   2.436   3.632   1.402 -0.2194 -0.5815  0.4320
  254MOL0     N33446   1.751   3.557   1.324  0.2061 -0.4850  0.2275
  254MOL0     N33447   1.634   3.614   1.354  0.4219  0.0790 -0.0099
  254MOL0     C33448   0.749   4.544   1.720  0.6665 -0.7128  0.2374
  254MOL0     C33449   0.613   4.584   1.704 -0.8967  0.6370  0.8167
  254MOL0     C33450   0.192   4.649   1.610 -1.1819 -0.0865  0.3032
  254MOL0     C33451   0.167   4.730   1.503  0.4547 -0.2194 -0.1492
  254MOL0     C33452   0.042   4.802   1.494  0.7965 -0.0157 -0.2208
  254MOL0     C33453  -0.061   4.768   1.577  0.3949 -0.0239  0.3863
  254MOL0     O33454  -0.181   4.827   1.548 -0.3369 -0.3674 -0.1947
  254MOL0     C33455  -0.299   4.781   1.608 -0.2525 -0.1693 -0.1832
  254MOL0     C33456  -0.401   4.895   1.599  0.7813 -0.2869 -0.0767
  254MOL0     C33457  -0.486   4.882   1.470  0.7676  0.2420 -0.2050
  254MOL0     C33458  -0.580   5.000   1.452  0.0569  0.1519 -1.2102
  254MOL0     C33459  -0.689   4.995   1.553 -0.2486 -0.0952  0.3968
  254MOL0     C33460  -0.759   4.999   1.653 -0.2445 -0.3701 -0.9846
  254MOL0     C33461  -0.026   4.679   1.686  1.6599  1.2152 -0.0815
  254MOL0     C33462   0.094   4.618   1.703  0.1041  0.0882  0.1701
  254MOL0     H33463   0.587   4.493   1.377 -0.0141 -4.9584  0.9695
  254MOL0     H33464   0.829   4.448   1.410  1.1293 -1.6289  0.6484
  254MOL0     H33465   1.037   4.422   1.465 -1.2049  0.1479 -0.7709
  254MOL0     H33466   0.986   4.274   1.565 -0.2098  1.6171  1.1559
  254MOL0     H33467   1.167   4.335   1.720  0.3648  0.3093  0.2101
  254MOL0     H33468   1.211   4.461   1.601  1.1836 -0.1127 -0.1766
  254MOL0     H33469   1.283   4.173   1.644 -1.3871 -0.5436  0.2374
  254MOL0     H33470   1.364   4.293   1.549  1.4978 -1.3615  1.8672
  254MOL0     H33471   1.151   4.111   1.444  0.1554 -0.3893  2.5455
  254MOL0     H33472   1.232   4.228   1.347  0.2433 -1.5627 -1.2759
  254MOL0     H33473   1.363   4.023   1.518 -2.4743  0.5092  0.0962
  254MOL0     H33474   1.454   4.128   1.395  1.7587 -1.5725 -0.6350
  254MOL0     H33475   1.373   4.045   1.216 -5.1034  1.8776 -0.9585
  254MOL0     H33476   1.250   3.931   1.287  1.1450 -1.7196 -1.3362
  254MOL0     H33477   1.551   3.922   1.295 -0.7406  1.5116 -0.2215
  254MOL0     H33478   1.458   3.837   1.427 -0.8403 -1.5710  0.1063
  254MOL0     H33479   1.431   3.775   1.125 -0.5380 -0.4844  0.2821
  254MOL0     H33480   1.372   3.674   1.257 -0.1638  0.6806  0.1315
  254MOL0     H33481   1.666   3.689   1.038  0.3561 -3.1166 -0.6276
  254MOL0     H33482   1.885   3.535   1.018  1.3267  1.3028 -0.2090
  254MOL0     H33483   1.957   3.456   1.164  2.4006  0.5967  0.5253
  254MOL0     H33484   1.943   3.758   1.168 -1.5177 -1.4733  2.2039
  254MOL0     H33485   2.069   3.684   1.071 -2.9204  1.9454 -2.0923
  254MOL0     H33486   2.029   3.607   1.362  2.3661  0.1108  1.2946
  254MOL0     H33487   2.164   3.557   1.259 -0.3310 -1.4468  0.0629
  254MOL0     H33488   2.172   3.752   1.433  1.9821  1.5364  0.6958
  254MOL0     H33489   2.105   3.843   1.301  1.3061 -0.2631 -0.3857
  254MOL0     H33490   2.488   3.758   1.086  0.6662 -1.7474 -1.4034
  254MOL0     H33491   2.699   3.610   1.121  0.4788 -0.0114 -0.8463
  254MOL0     H33492   2.716   3.124   1.383  0.6690  0.6153 -2.3661
  254MOL0     H33493   2.910   2.944   1.387 -2.2216 -0.1098  0.0634
  254MOL0     H33494   3.106   2.863   1.353  0.8300 -2.6879 -0.9746
  254MOL0     H33495   3.060   2.784   1.507 -0.9584 -0.9799 -2.8006
  254MOL0     H33496   3.307   2.787   1.576  0.4807  1.2586  0.2473
  254MOL0     H33497   3.352   2.864   1.428  0.5031  0.5568  0.5575
  254MOL0     H33498   3.234   2.672   1.301 -1.1353  0.7096  0.5475
  254MOL0     H33499   3.200   2.598   1.452  1.6296 -2.1387 -0.4527
  254MOL0     H33500   3.494   2.681   1.403 -0.5463  0.1054  1.0586
  254MOL0     H33501   3.420   2.563   1.506 -1.6513  0.2999 -0.5159
  254MOL0     H33502   3.415   2.542   1.206  4.4113  2.4868  1.3809
  254MOL0     H33503   3.338   2.423   1.309  0.0749 -0.5669 -0.0626
  254MOL0     H33504   3.517   2.349   1.420  1.9204  1.7981  2.0636
  254MOL0     H33505   3.633   2.464   1.355  0.0958  0.5586 -0.0959
  254MOL0     H33506   3.505   2.234   1.197  1.1350  0.1658 -2.8184
  254MOL0     H33507   3.563   2.386   1.119  1.0328  0.4541 -0.4659
  254MOL0     H33508   3.795   2.331   1.195 -0.0178  0.1514  2.4005
  254MOL0     H33509   3.706   2.197   1.115 -3.5221 -0.9194 -0.3375
  254MOL0     H33510   3.154   3.227   1.557  1.1263  0.8620 -2.7497
  254MOL0     H33511   3.004   3.411   1.498  0.5520  0.0205 -1.5050
  254MOL0     H33512   2.554   3.501   1.507 -0.9564  0.3633  0.7771
  254MOL0     H33513   2.383   3.663   1.491 -3.1986 -1.4336 -0.9380
  254MOL0     H33514   0.792   4.543   1.820  1.4648 -0.3852 -0.1012
  254MOL0     H33515   0.556   4.621   1.788 -1.0368  1.1897  0.4880
  254MOL0     H33516   0.242   4.724   1.424  0.2371 -0.8609 -0.3120
  254MOL0     H33517   0.020   4.862   1.407  2.0710 -0.1386 -0.6428
  254MOL0     H33518  -0.291   4.742   1.710  3.4978 -1.5717 -0.8523
  254MOL0     H33519  -0.351   4.704   1.550 -0.6677 -1.4368  1.7706
  254MOL0     H33520  -0.464   4.904   1.688 -0.5323  0.6821 -1.0674
  254MOL0     H33521  -0.348   4.991   1.603 -0.6029  0.5832 -1.5810
  254MOL0     H33522  -0.546   4.791   1.461  2.1570 -1.1708  3.1307
  254MOL0     H33523  -0.410   4.874   1.392  2.7799 -2.8950  1.8761
  254MOL0     H33524  -0.521   5.092   1.461  0.5844 -0.3821  2.1003
  254MOL0     H33525  -0.618   4.999   1.349 -1.7861  1.7000 -0.6085
  254MOL0     H33526  -0.815   5.018   1.743  1.4326 -1.1994  0.2918
  254MOL0     H33527  -0.089   4.653   1.771  3.0203 -1.3816  0.1997
  254MOL0     H33528   0.112   4.565   1.796 -1.7144  0.4181  0.7451
  255MOL0     O33529   6.212   5.087  11.022  0.2510 -0.2741  0.2538
  255MOL0     C33530   6.213   5.156  11.125 -0.2062  0.2737 -0.7714
  255MOL0     O33531   6.096   5.201  11.194 -0.2950 -0.3487  0.0638
  255MOL0     C33532   5.974   5.152  11.163 -0.6602  0.0978 -0.2802
  255MOL0     C33533   5.865   5.239  11.170  0.2580 -0.9442  0.6127
  255MOL0     C33534   5.739   5.200  11.158 -0.1883 -0.0454  0.1166
  255MOL0     C33535   5.708   5.067  11.122 -0.5326  0.5871  0.2223
  255MOL0     O33536   5.584   5.011  11.099  0.2180 -0.5846 -0.0704
  255MOL0     C33537   5.474   5.107  11.074 -0.2783 -1.3759  0.3689
  255MOL0     C33538   5.337   5.048  11.093  0.5127  0.7197  0.2298
  255MOL0     C33539   5.315   4.936  10.986  0.5148 -1.2483 -0.5547
  255MOL0     C33540   5.181   4.858  11.000  0.5372  0.2384 -0.4003
  255MOL0     C33541   5.166   4.758  10.880  0.2128 -0.3044  1.0945
  255MOL0     C33542   5.073   4.636  10.920  0.1050 -0.4288 -0.2495
  255MOL0     C33543   5.078   4.527  10.813  0.4927  0.4463  0.8827
  255MOL0     C33544   5.037   4.580  10.674 -0.1359  0.2517  0.4935
  255MOL0     N33545   5.073   4.470  10.579  1.0342  0.3044  0.3502
  255MOL0     C33546   5.176   4.452  10.494 -0.0500 -0.7243 -0.3781
  255MOL0     C33547   5.148   4.331  10.435  0.1374 -0.0496  0.4759
  255MOL0     C33548   5.226   4.272  10.328 -0.2423  0.4254  0.1603
  255MOL0     C33549   5.352   4.192  10.367 -0.0749  0.2438 -0.5450
  255MOL0     C33550   5.339   4.047  10.311 -0.3770  0.0143 -0.2747
  255MOL0     C33551   5.479   3.979  10.322  0.4543 -0.5315  0.0283
  255MOL0     O33552   5.528   3.966  10.457 -0.4917 -0.1266  0.3611
  255MOL0     C33553   5.666   3.935  10.464 -0.2681  0.6623  0.3062
  255MOL0     C33554   5.715   3.823  10.535  0.9893  0.2871  0.5443
  255MOL0     C33555   5.851   3.790  10.523 -0.1636 -0.5158 -0.1617
  255MOL0     C33556   5.942   3.876  10.468 -1.4017  0.0325 -0.2458
  255MOL0     C33557   6.084   3.833  10.455  1.0817 -1.0448  0.4579
  255MOL0     O33558   6.181   3.927  10.423  0.2702 -0.3332  0.2737
  255MOL0     C33559   6.314   3.872  10.432  0.1058  0.0257  0.1005
  255MOL0     C33560   6.385   3.904  10.550  0.7699  0.4643  0.5429
  255MOL0     C33561   6.511   3.852  10.569 -0.5384  0.3711 -0.3314
  255MOL0     C33562   6.580   3.773  10.479  0.3705 -0.2293 -0.4192
  255MOL0     O33563   6.712   3.740  10.502 -0.1454 -0.4178 -0.0906
  255MOL0     C33564   6.782   3.673  10.397 -0.6049  0.2501 -0.3787
  255MOL0     C33565   6.933   3.651  10.435 -0.1929  0.0798 -0.2268
  255MOL0     C33566   7.014   3.583  10.316  0.2379 -0.5924 -0.1573
  255MOL0     C33567   7.166   3.585  10.333 -0.6959 -0.8196 -0.0612
  255MOL0     C33568   7.221   3.506  10.221 -0.3349 -0.1186  0.1388
  255MOL0     C33569   7.377   3.474  10.235 -1.7081  0.1210 -0.0035
  255MOL0     C33570   7.466   3.600  10.211  0.3915 -0.3804 -0.0686
  255MOL0     C33571   7.612   3.572  10.230 -0.6317 -0.6960 -0.8812
  255MOL0    Cl33572   7.687   3.745  10.236  0.0212  0.2651  0.6445
  255MOL0     C33573   6.506   3.743  10.364 -1.2302 -0.6926  0.1297
  255MOL0     C33574   6.379   3.791  10.341  0.4810  0.6076  0.3629
  255MOL0     O33575   6.109   3.717  10.484  0.3785 -0.0097 -0.1040
  255MOL0     C33576   5.902   3.996  10.416 -0.1549  0.0306  0.3483
  255MOL0     C33577   5.764   4.025  10.414 -0.2617  0.4363 -0.5113
  255MOL0     N33578   5.029   4.280  10.487  0.6326  1.0819  0.6363
  255MOL0     N33579   4.981   4.364  10.564 -0.0367  0.7429  0.3814
  255MOL0     C33580   5.813   4.974  11.117 -0.8523 -0.2340 -0.4380
  255MOL0     C33581   5.944   5.019  11.143  0.1965 -0.5291 -0.7095
  255MOL0     C33582   6.350   5.195  11.167  0.1413 -0.2107 -0.3131
  255MOL0     C33583   6.376   5.273  11.282  0.4983 -0.3849  0.2954
  255MOL0     C33584   6.508   5.297  11.325 -0.1055 -0.0321 -0.7506
  255MOL0     C33585   6.616   5.235  11.264 -0.8731 -0.4888 -0.2540
  255MOL0     O33586   6.752   5.250  11.314  0.2847 -0.2265  0.1330
  255MOL0     C33587   6.770   5.350  11.417 -0.0100  0.5534 -0.0024
  255MOL0     C33588   6.925   5.365  11.429 -0.0243  0.6394  0.2354
  255MOL0     C33589   6.981   5.433  11.306 -0.9423 -0.6246  0.3197
  255MOL0     C33590   7.139   5.443  11.299  0.0646 -0.0985 -1.1055
  255MOL0     C33591   7.188   5.526  11.191 -0.4957  0.3114 -0.7924
  255MOL0     C33592   7.240   5.606  11.114 -0.3926 -0.0845  1.2538
  255MOL0     C33593   6.595   5.158  11.154  0.9544 -0.2556  0.0804
  255MOL0     C33594   6.464   5.138  11.104  0.0214 -0.7446 -0.2974
  255MOL0     H33595   5.887   5.344  11.184 -4.3932  0.5833 -1.7116
  255MOL0     H33596   5.660   5.271  11.178  0.3787  1.1056 -1.5749
  255MOL0     H33597   5.492   5.142  10.972  1.1340  2.0948  1.6481
  255MOL0     H33598   5.470   5.199  11.133 -3.7158 -0.7433 -0.6339
  255MOL0     H33599   5.260   5.123  11.073 -1.2351 -0.9781  0.3177
  255MOL0     H33600   5.330   5.015  11.197 -1.2467  1.1781  0.2821
  255MOL0     H33601   5.398   4.865  10.994  1.1334 -0.5698 -0.8539
  255MOL0     H33602   5.321   4.977  10.885  2.5205  1.0617  0.4036
  255MOL0     H33603   5.184   4.795  11.090 -0.1410 -0.6360 -0.9717
  255MOL0     H33604   5.094   4.923  10.994 -0.4407 -1.0732 -0.9965
  255MOL0     H33605   5.263   4.710  10.864 -0.3145 -2.0464  2.7293
  255MOL0     H33606   5.134   4.805  10.786  1.2686  0.9887  1.3637
  255MOL0     H33607   4.971   4.667  10.944  1.4054  4.3483  0.2364
  255MOL0     H33608   5.118   4.584  11.004 -2.2477 -2.6201 -0.2217
  255MOL0     H33609   5.182   4.494  10.804  0.2657  0.2566 -1.9625
  255MOL0     H33610   5.023   4.436  10.840  1.4274 -0.6926 -0.8531
  255MOL0     H33611   5.082   4.674  10.644 -0.6991  1.3084  2.7375
  255MOL0     H33612   4.927   4.585  10.668 -0.3300 -3.1944 -2.4549
  255MOL0     H33613   5.270   4.507  10.488  0.3556 -1.2558  0.6816
  255MOL0     H33614   5.256   4.355  10.264  1.5716  0.0517  0.4797
  255MOL0     H33615   5.153   4.201  10.288 -2.1694  0.8911  2.6314
  255MOL0     H33616   5.361   4.197  10.476 -0.5058  3.2378 -0.5643
  255MOL0     H33617   5.437   4.247  10.327  0.4411  0.2298  0.5129
  255MOL0     H33618   5.254   3.992  10.352 -2.4479  1.2253 -2.6754
  255MOL0     H33619   5.312   4.052  10.206 -1.7385  2.4696  0.1137
  255MOL0     H33620   5.551   4.044  10.270  0.9589 -3.3226 -3.1409
  255MOL0     H33621   5.483   3.880  10.275  4.2434 -0.1390 -0.8440
  255MOL0     H33622   5.649   3.755  10.588  1.3847 -0.1830  0.4358
  255MOL0     H33623   5.878   3.697  10.571  1.9647 -0.8288 -1.8545
  255MOL0     H33624   6.344   3.978  10.618  2.6238  1.9470  0.1034
  255MOL0     H33625   6.548   3.877  10.668 -3.9308 -1.7549  1.6804
  255MOL0     H33626   6.785   3.725  10.301 -1.2243 -1.4519 -1.3678
  255MOL0     H33627   6.733   3.577  10.375  0.7603 -1.4360  3.1756
  255MOL0     H33628   6.945   3.588  10.524  0.8745  1.6687  0.8183
  255MOL0     H33629   6.981   3.745  10.462  0.7052 -0.4017 -0.0863
  255MOL0     H33630   6.987   3.623  10.218  0.2244  1.0084  0.4834
  255MOL0     H33631   6.974   3.481  10.316 -2.0191  0.1699  2.4284
  255MOL0     H33632   7.202   3.688  10.339 -0.2872 -0.8963 -1.0243
  255MOL0     H33633   7.185   3.546  10.433  0.9973  0.0553 -0.0038
  255MOL0     H33634   7.210   3.565  10.130 -0.0155  2.9707  1.9455
  255MOL0     H33635   7.172   3.408  10.227  1.1564 -0.8239  1.4476
  255MOL0     H33636   7.407   3.391  10.170 -2.4803 -3.7751  4.1547
  255MOL0     H33637   7.396   3.434  10.335  0.1466  2.2266  0.5768
  255MOL0     H33638   7.449   3.622  10.105  0.9251 -2.4128 -0.6119
  255MOL0     H33639   7.447   3.686  10.277  2.0468  0.1918 -0.3078
  255MOL0     H33640   7.649   3.499  10.157  1.4060  0.7249 -1.3513
  255MOL0     H33641   7.630   3.529  10.329  0.2986  0.4684 -0.5216
  255MOL0     H33642   6.553   3.680  10.289 -2.3351 -3.2850  1.4583
  255MOL0     H33643   6.337   3.768  10.243  2.1173  2.1203 -0.7642
  255MOL0     H33644   5.973   4.073  10.388 -0.8369  0.7431  0.5362
  255MOL0     H33645   5.728   4.125  10.392 -2.7774 -0.2806  0.0136
  255MOL0     H33646   5.798   4.868  11.099  0.3293 -0.4089 -0.4949
  255MOL0     H33647   6.025   4.946  11.147 -0.3787 -1.2544 -1.7783
  255MOL0     H33648   6.292   5.312  11.338 -0.3273 -0.2027 -1.0072
  255MOL0     H33649   6.531   5.365  11.407  2.0265 -0.3152 -1.0476
  255MOL0     H33650   6.723   5.335  11.515 -0.3112  3.5959  0.4010
  255MOL0     H33651   6.720   5.440  11.381 -1.9086 -1.6059 -3.2096
  255MOL0     H33652   6.970   5.407  11.519  1.1294  0.9090 -0.4380
  255MOL0     H33653   6.964   5.262  11.430  2.3789  1.4936  0.5843
  255MOL0     H33654   6.947   5.537  11.297 -0.4733 -0.6341 -2.3427
  255MOL0     H33655   6.956   5.376  11.216 -0.2445 -0.2656 -0.1100
  255MOL0     H33656   7.178   5.470  11.397  0.0873 -4.2979  0.2590
  255MOL0     H33657   7.179   5.342  11.284  2.2983  0.8047 -1.6316
  255MOL0     H33658   7.297   5.669  11.048 -1.3290 -2.1254 -1.7003
  255MOL0     H33659   6.683   5.132  11.096  1.6113 -0.4153  1.1192
  255MOL0     H33660   6.465   5.079  11.013  1.6522  0.2846 -0.9937
  256MOL0     O33661  10.576   2.758   5.531 -0.2948  0.2071 -0.2553
  256MOL0     C33662  10.662   2.735   5.621 -0.0723  0.1873  0.3390
  256MOL0     O33663  10.696   2.819   5.721 -0.1894 -0.1827 -0.1616
  256MOL0     C33664  10.607   2.920   5.740  0.5418  0.1020 -0.3407
  256MOL0     C33665  10.473   2.906   5.750 -0.1374  0.2019 -0.2155
  256MOL0     C33666  10.401   3.022   5.789 -0.0388  1.7317 -0.7089
  256MOL0     C33667  10.456   3.147   5.803 -0.8160  0.1772 -0.1865
  256MOL0     O33668  10.390   3.268   5.832 -0.1986 -0.3843  0.4647
  256MOL0     C33669  10.256   3.261   5.867 -0.6206  0.5641  0.5292
  256MOL0     C33670  10.211   3.402   5.867  0.3030  0.0757  0.0229
  256MOL0     C33671  10.063   3.428   5.921 -0.9984  0.2967  0.7819
  256MOL0     C33672   9.954   3.353   5.844 -0.4916  0.9148 -1.0831
  256MOL0     C33673   9.930   3.382   5.693 -0.2775 -1.0419  0.3616
  256MOL0     C33674   9.894   3.531   5.667  0.2803 -0.7749  0.8523
  256MOL0     C33675   9.746   3.568   5.707 -0.0683 -0.6222 -0.2905
  256MOL0     C33676   9.683   3.687   5.621 -0.0717  0.4342  0.1167
  256MOL0     N33677   9.621   3.643   5.491 -0.9928  0.3214 -0.0981
  256MOL0     C33678   9.497   3.672   5.437  0.2515  0.1910  0.1184
  256MOL0     C33679   9.473   3.576   5.347 -0.2562 -0.4970  0.5955
  256MOL0     C33680   9.347   3.572   5.268 -0.0779  0.7123  0.1138
  256MOL0     C33681   9.225   3.574   5.364  0.1836  0.2319  0.2545
  256MOL0     C33682   9.091   3.590   5.291 -0.0735 -0.1452  0.9113
  256MOL0     C33683   9.079   3.564   5.136 -0.5673  0.2310 -0.1603
  256MOL0     O33684   8.981   3.458   5.123 -0.6796  0.9550 -0.1043
  256MOL0     C33685   8.851   3.485   5.085  0.4930  1.1730 -0.4326
  256MOL0     C33686   8.795   3.611   5.086  0.7280 -0.0039 -0.0233
  256MOL0     C33687   8.653   3.634   5.071  0.0584  0.3072  0.6463
  256MOL0     C33688   8.564   3.516   5.053 -0.5481 -0.9908  0.3953
  256MOL0     C33689   8.419   3.527   5.047  0.3201  0.2427 -0.6513
  256MOL0     O33690   8.348   3.402   5.064  0.4259  0.5663 -0.2423
  256MOL0     C33691   8.214   3.411   5.064  0.1092  0.4752 -0.9660
  256MOL0     C33692   8.148   3.483   5.164  0.5778  1.2584 -0.5013
  256MOL0     C33693   8.009   3.493   5.152 -0.0267  0.4400  1.5669
  256MOL0     C33694   7.939   3.439   5.046  0.4877  0.6957  0.0136
  256MOL0     O33695   7.804   3.464   5.046  0.3029 -0.2468  0.1970
  256MOL0     C33696   7.724   3.421   4.932  0.5897 -0.5288  0.2891
  256MOL0     C33697   7.576   3.472   4.955 -0.1385 -0.4859  0.7736
  256MOL0     C33698   7.481   3.411   4.857  0.2526 -0.0509 -0.2402
  256MOL0     C33699   7.340   3.460   4.879  0.4830  0.3496 -0.3696
  256MOL0     C33700   7.232   3.395   4.790 -0.7021  0.2088  0.1674
  256MOL0     C33701   7.192   3.252   4.825 -0.2165  0.2713 -0.3075
  256MOL0     C33702   7.090   3.194   4.727  0.0718 -0.1179 -0.5047
  256MOL0     C33703   7.143   3.183   4.585  0.3996 -0.2808 -0.0336
  256MOL0    Cl33704   7.021   3.109   4.475 -0.0476  0.3372 -0.2248
  256MOL0     C33705   8.008   3.376   4.948 -0.5051  0.0541  0.2440
  256MOL0     C33706   8.144   3.365   4.954  0.0375 -0.1739 -0.0124
  256MOL0     O33707   8.368   3.641   5.044 -0.3072  0.5629  0.6381
  256MOL0     C33708   8.628   3.391   5.050 -0.3401 -0.2396  0.8272
  256MOL0     C33709   8.768   3.370   5.070 -0.8016 -0.0435  0.2161
  256MOL0     N33710   9.573   3.489   5.342  0.3352  0.0486  0.4230
  256MOL0     N33711   9.666   3.533   5.422 -0.2794 -0.8194 -0.0432
  256MOL0     C33712  10.593   3.153   5.785  0.0411 -1.2425  0.1001
  256MOL0     C33713  10.670   3.042   5.757 -0.2605 -0.9672 -1.2014
  256MOL0     C33714  10.727   2.601   5.612 -0.1208 -0.0043 -1.0872
  256MOL0     C33715  10.839   2.568   5.689 -0.3232 -0.0339 -0.3102
  256MOL0     C33716  10.904   2.446   5.661 -0.2485  0.2042 -0.4075
  256MOL0     C33717  10.837   2.349   5.596  0.3420  0.1645  0.7720
  256MOL0     O33718  10.896   2.229   5.569 -0.4438  0.1747 -0.6536
  256MOL0     C33719  10.886   2.124   5.668  0.3730 -0.0810  0.4072
  256MOL0     C33720  10.936   1.986   5.609  0.5873 -0.2001  0.4611
  256MOL0     C33721  11.066   1.940   5.677  1.0265  0.0042  0.3729
  256MOL0     C33722  11.151   1.843   5.593  0.8137  0.9639  0.2281
  256MOL0     C33723  11.254   1.790   5.680 -0.6043 -0.0110  0.2378
  256MOL0     C33724  11.334   1.757   5.765 -0.4333  0.4274 -0.0483
  256MOL0     C33725  10.726   2.383   5.517 -0.0896  1.0306 -1.2212
  256MOL0     C33726  10.676   2.508   5.519 -0.1201 -0.6899  1.1375
  256MOL0     H33727  10.416   2.816   5.736 -1.2931  0.8867 -0.0168
  256MOL0     H33728  10.295   3.004   5.806  0.8232 -3.1006  0.7317
  256MOL0     H33729  10.256   3.212   5.965  2.4299  2.8417  1.8302
  256MOL0     H33730  10.196   3.210   5.791 -1.8885  2.7097  0.0030
  256MOL0     H33731  10.213   3.428   5.761 -3.1552 -2.5520 -0.9091
  256MOL0     H33732  10.289   3.460   5.917  0.4236 -0.2451  0.2129
  256MOL0     H33733  10.044   3.536   5.915 -0.1704  0.3761 -0.9829
  256MOL0     H33734  10.051   3.390   6.023 -0.4025 -2.7961 -0.2207
  256MOL0     H33735   9.979   3.246   5.852  2.8930  1.6728  0.4027
  256MOL0     H33736   9.864   3.358   5.905  0.7043  1.3382  0.7105
  256MOL0     H33737   9.863   3.311   5.644 -0.9599 -1.4616  1.8314
  256MOL0     H33738  10.030   3.372   5.650  0.0034  2.2879 -0.0370
  256MOL0     H33739   9.896   3.546   5.559 -3.3633 -0.0380  0.7838
  256MOL0     H33740   9.967   3.601   5.711  0.1925  0.2646 -0.5804
  256MOL0     H33741   9.680   3.482   5.696 -0.7986 -0.0610 -0.4104
  256MOL0     H33742   9.743   3.587   5.815 -3.3383  2.9162 -0.7939
  256MOL0     H33743   9.757   3.763   5.597 -0.1815  0.7609  0.7836
  256MOL0     H33744   9.606   3.736   5.681 -1.5014 -1.9147  0.3143
  256MOL0     H33745   9.427   3.748   5.472  1.5940  1.9174 -0.7606
  256MOL0     H33746   9.357   3.478   5.212  0.7090  0.9579 -0.1796
  256MOL0     H33747   9.339   3.652   5.194  1.6741  1.4135  0.6297
  256MOL0     H33748   9.234   3.650   5.442  0.3067 -1.4605  1.9717
  256MOL0     H33749   9.222   3.472   5.404 -0.6456 -0.2353 -0.9433
  256MOL0     H33750   9.019   3.523   5.340 -0.8355 -1.1166 -1.3829
  256MOL0     H33751   9.054   3.692   5.308 -0.7332  0.1292 -1.7293
  256MOL0     H33752   9.170   3.526   5.090 -1.1210 -1.4841  0.0612
  256MOL0     H33753   9.052   3.659   5.089 -0.1264  3.1189  4.7270
  256MOL0     H33754   8.850   3.702   5.108 -0.6215  0.6841  0.6539
  256MOL0     H33755   8.612   3.731   5.097  1.6875  0.7252  1.8413
  256MOL0     H33756   8.190   3.534   5.251 -1.9364  0.5570  1.2415
  256MOL0     H33757   7.957   3.555   5.225 -1.3432  2.7548 -1.1524
  256MOL0     H33758   7.726   3.311   4.927 -0.1130 -0.5140 -0.4667
  256MOL0     H33759   7.751   3.464   4.836  1.9354  0.1195  0.9363
  256MOL0     H33760   7.570   3.578   4.932 -1.2977 -0.7093 -0.0422
  256MOL0     H33761   7.530   3.451   5.052 -1.7636  1.4249  0.4757
  256MOL0     H33762   7.483   3.303   4.875  0.1099  0.1028  0.7606
  256MOL0     H33763   7.513   3.425   4.753  1.7355  0.7468  0.2970
  256MOL0     H33764   7.313   3.456   4.985 -0.1072 -0.9817 -0.5426
  256MOL0     H33765   7.339   3.566   4.854  0.1330  0.7247  1.1384
  256MOL0     H33766   7.279   3.393   4.691  2.4986 -4.4350  1.4314
  256MOL0     H33767   7.140   3.453   4.801 -0.9419 -0.6606  4.3346
  256MOL0     H33768   7.145   3.243   4.923 -1.8000  0.5726 -1.0087
  256MOL0     H33769   7.288   3.198   4.825  1.6129  3.2552 -1.7767
  256MOL0     H33770   7.060   3.093   4.760 -1.8896  0.5571 -0.0710
  256MOL0     H33771   6.993   3.245   4.739  0.1963  0.6716 -2.5709
  256MOL0     H33772   7.228   3.115   4.589 -2.1813 -3.8510 -0.5080
  256MOL0     H33773   7.169   3.284   4.551  4.7442 -0.0129  3.2576
  256MOL0     H33774   7.962   3.342   4.856 -0.5502 -1.9982  0.9541
  256MOL0     H33775   8.202   3.325   4.870 -2.9141  1.9891 -3.3665
  256MOL0     H33776   8.573   3.298   5.038  1.0696 -1.4882  3.2815
  256MOL0     H33777   8.789   3.263   5.073 -0.8191 -0.0499  0.1308
  256MOL0     H33778  10.641   3.250   5.779  0.1980 -1.3692 -1.0512
  256MOL0     H33779  10.774   3.053   5.728  0.4824 -0.3921  1.3952
  256MOL0     H33780  10.867   2.642   5.764  0.1829 -2.0549  1.5874
  256MOL0     H33781  11.002   2.433   5.707  1.3403 -0.7410 -3.7454
  256MOL0     H33782  10.787   2.121   5.715 -0.2416 -0.2170 -0.8641
  256MOL0     H33783  10.949   2.144   5.755  2.0397 -3.3034  0.0723
  256MOL0     H33784  10.856   1.912   5.612 -1.1570  1.6295  1.0532
  256MOL0     H33785  10.961   2.007   5.505  1.2140 -2.0849  0.2097
  256MOL0     H33786  11.035   1.892   5.770  1.0292 -2.2717 -0.7397
  256MOL0     H33787  11.118   2.032   5.706 -3.3088  3.0566 -0.6073
  256MOL0     H33788  11.095   1.753   5.565  2.8785 -1.5499  3.3485
  256MOL0     H33789  11.183   1.879   5.496 -2.7223 -6.0040 -4.4079
  256MOL0     H33790  11.406   1.730   5.839  0.5676 -1.5253 -1.6146
  256MOL0     H33791  10.675   2.310   5.455 -2.1004 -0.6353  2.1093
  256MOL0     H33792  10.594   2.521   5.450  2.0160 -2.1736 -1.9278
  257MOL0     O33793  10.320   2.111   6.662  0.3812  0.2759 -0.5888
  257MOL0     C33794  10.365   2.223   6.640  1.0751 -0.1280 -0.4572
  257MOL0     O33795  10.288   2.340   6.627 -0.5645 -0.0815  0.4962
  257MOL0     C33796  10.159   2.335   6.683 -1.2329 -0.0604 -0.4719
  257MOL0     C33797  10.045   2.272   6.626 -0.5220  0.1386 -0.9903
  257MOL0     C33798   9.924   2.276   6.698 -0.4307 -0.8625  0.0348
  257MOL0     C33799   9.913   2.346   6.817 -0.1457  0.5016  0.3230
  257MOL0     O33800   9.794   2.361   6.877  0.5119  0.3100  0.1186
  257MOL0     C33801   9.797   2.390   7.022 -0.1114  0.3097  0.2251
  257MOL0     C33802   9.650   2.384   7.070  0.1136  0.0026 -0.4151
  257MOL0     C33803   9.570   2.504   7.012  0.5332  0.4844  0.2306
  257MOL0     C33804   9.415   2.479   7.035  0.3538  0.1234 -0.6974
  257MOL0     C33805   9.366   2.569   7.147 -0.4284  0.1696 -0.7485
  257MOL0     C33806   9.230   2.527   7.202 -0.3027  0.3027 -0.7454
  257MOL0     C33807   9.128   2.522   7.091  0.1824  1.7152 -0.9294
  257MOL0     C33808   8.985   2.491   7.137  0.5712  0.5605 -0.2556
  257MOL0     N33809   8.971   2.360   7.205 -0.5220  0.2915 -0.0335
  257MOL0     C33810   8.905   2.252   7.148  0.0762  0.0453 -0.3169
  257MOL0     C33811   8.889   2.161   7.250  0.3285  0.6908  0.1648
  257MOL0     C33812   8.801   2.039   7.245 -0.0766  0.1356 -0.1280
  257MOL0     C33813   8.650   2.060   7.214 -0.1379  0.1590  0.6366
  257MOL0     C33814   8.560   1.956   7.281 -0.3969 -0.8607  0.6257
  257MOL0     C33815   8.407   1.975   7.271 -0.5084 -0.4989  0.5448
  257MOL0     O33816   8.351   1.847   7.297  0.8632  0.2186 -0.1820
  257MOL0     C33817   8.218   1.823   7.272 -0.2786  0.4560 -0.2829
  257MOL0     C33818   8.136   1.916   7.212 -0.3042  0.1299 -0.5302
  257MOL0     C33819   7.997   1.902   7.204 -0.3381  0.2488  0.2073
  257MOL0     C33820   7.949   1.771   7.220  0.8478 -0.2221  1.0546
  257MOL0     C33821   7.804   1.747   7.184  0.0960  0.1578  0.0149
  257MOL0     O33822   7.727   1.853   7.154 -0.2609 -0.3363 -0.7274
  257MOL0     C33823   7.591   1.843   7.172  0.1430  0.2154 -0.2514
  257MOL0     C33824   7.513   1.847   7.289 -0.1867 -0.4099  0.3679
  257MOL0     C33825   7.375   1.846   7.285  0.1236  0.2951 -0.7958
  257MOL0     C33826   7.306   1.824   7.170 -0.4250 -0.2459  0.1822
  257MOL0     O33827   7.167   1.817   7.174  0.7442  0.5079 -0.0752
  257MOL0     C33828   7.112   1.788   7.042 -0.7300  0.0979  0.6589
  257MOL0     C33829   6.969   1.736   7.075 -0.0902  0.7372 -0.0625
  257MOL0     C33830   6.871   1.724   6.960  0.0156 -0.6072 -0.0888
  257MOL0     C33831   6.752   1.636   6.996  0.2856  0.7037 -0.0920
  257MOL0     C33832   6.650   1.652   6.881  0.2138 -0.0598  0.3443
  257MOL0     C33833   6.519   1.580   6.911  0.3622  0.7303 -0.7583
  257MOL0     C33834   6.413   1.564   6.798 -0.3191 -0.9433 -0.4057
  257MOL0     C33835   6.315   1.461   6.844 -0.1664 -0.6269  0.5110
  257MOL0    Cl33836   6.189   1.438   6.729  0.1011 -0.4612  0.3479
  257MOL0     C33837   7.385   1.807   7.046  0.2711 -0.1365 -0.2675
  257MOL0     C33838   7.520   1.814   7.052  0.7488 -0.3598  1.1791
  257MOL0     O33839   7.772   1.628   7.174 -0.4362  0.1467  0.1286
  257MOL0     C33840   8.038   1.665   7.256  0.5756  0.5509  0.2667
  257MOL0     C33841   8.168   1.697   7.287 -0.3642 -0.1676  1.0125
  257MOL0     N33842   8.940   2.230   7.364  0.3730  0.3447  0.1950
  257MOL0     N33843   8.994   2.336   7.340 -0.7032 -0.3775 -0.8045
  257MOL0     C33844  10.026   2.405   6.875  0.3338  0.3689  0.1013
  257MOL0     C33845  10.150   2.399   6.812 -0.0606  0.6605 -0.1454
  257MOL0     C33846  10.513   2.239   6.622  0.8309 -0.2913 -0.6641
  257MOL0     C33847  10.578   2.359   6.613 -0.6074 -0.0446 -0.0051
  257MOL0     C33848  10.711   2.376   6.586 -1.5425 -0.1873  0.8633
  257MOL0     C33849  10.795   2.261   6.598 -0.1914 -0.8882  0.0011
  257MOL0     O33850  10.930   2.284   6.608 -0.0486  0.1752 -0.7472
  257MOL0     C33851  11.013   2.174   6.659  0.1917  0.0898 -0.2105
  257MOL0     C33852  11.160   2.215   6.662  0.3282 -0.2577  0.3484
  257MOL0     C33853  11.213   2.235   6.520  0.3052 -0.3757  0.3070
  257MOL0     C33854  11.371   2.220   6.507  0.8399 -0.4279  0.7260
  257MOL0     C33855  11.454   2.297   6.601 -0.9255  0.6863  0.3701
  257MOL0     C33856  11.533   2.353   6.674 -0.2985  0.0629 -0.3692
  257MOL0     C33857  10.728   2.137   6.612 -0.5070  0.6490  0.1500
  257MOL0     C33858  10.591   2.125   6.618 -0.0160  0.9240  1.2581
  257MOL0     H33859  10.058   2.225   6.529 -2.8007 -1.3040 -0.6762
  257MOL0     H33860   9.837   2.221   6.664 -2.3886 -0.5282  3.9397
  257MOL0     H33861   9.814   2.495   7.047 -0.1712  0.8488 -1.7826
  257MOL0     H33862   9.848   2.316   7.084 -0.3770  0.1438  0.2491
  257MOL0     H33863   9.654   2.390   7.179 -0.9583 -1.8396 -0.2296
  257MOL0     H33864   9.605   2.287   7.043  0.0252 -0.0197 -0.1906
  257MOL0     H33865   9.595   2.507   6.906  0.9775  0.2405  0.3259
  257MOL0     H33866   9.597   2.595   7.067  0.6743  0.4850  0.1594
  257MOL0     H33867   9.369   2.501   6.938 -3.1791 -0.3329  0.7311
  257MOL0     H33868   9.397   2.376   7.068  0.0334  0.6874  0.9987
  257MOL0     H33869   9.358   2.671   7.108 -1.6805 -0.0054 -0.9795
  257MOL0     H33870   9.439   2.573   7.228  0.5669  0.0731 -1.6140
  257MOL0     H33871   9.188   2.601   7.271 -1.6614  0.6302 -1.8569
  257MOL0     H33872   9.228   2.438   7.265 -0.6529  1.7962  1.4654
  257MOL0     H33873   9.121   2.621   7.045  0.8539  1.3153 -1.8981
  257MOL0     H33874   9.150   2.447   7.015  2.3383  0.2577  1.0059
  257MOL0     H33875   8.907   2.497   7.061 -0.5173 -0.9202  0.6777
  257MOL0     H33876   8.964   2.560   7.219  0.9955 -0.6438  0.9028
  257MOL0     H33877   8.866   2.250   7.046 -3.5462 -0.0432  0.9294
  257MOL0     H33878   8.810   1.994   7.344 -0.8003 -1.3304 -0.6842
  257MOL0     H33879   8.853   1.968   7.180 -0.5254  2.0631 -2.7981
  257MOL0     H33880   8.634   2.052   7.106  2.8397 -0.1086  0.1199
  257MOL0     H33881   8.620   2.158   7.251 -1.3091  0.1795 -0.3188
  257MOL0     H33882   8.588   1.863   7.231 -1.0958 -1.5441  1.4772
  257MOL0     H33883   8.585   1.943   7.387  1.2767 -0.3283  0.3180
  257MOL0     H33884   8.383   2.019   7.174 -0.2777 -4.1135 -1.3498
  257MOL0     H33885   8.376   2.032   7.358  2.1291 -1.3305  2.1581
  257MOL0     H33886   8.169   2.016   7.187  0.9028 -0.8019 -2.8930
  257MOL0     H33887   7.942   1.995   7.190  2.1996  2.3424  2.9013
  257MOL0     H33888   7.559   1.868   7.385 -0.8872 -0.7489  0.7856
  257MOL0     H33889   7.328   1.859   7.382  2.6395  0.4400  0.4839
  257MOL0     H33890   7.161   1.712   6.981 -0.5406  0.6325  0.1366
  257MOL0     H33891   7.102   1.885   6.992 -0.0136  0.5547  1.3870
  257MOL0     H33892   6.941   1.807   7.153  0.1397  1.4570 -0.6289
  257MOL0     H33893   6.967   1.641   7.130 -0.6479  2.4355  3.1014
  257MOL0     H33894   6.924   1.687   6.871  0.8879 -1.8838  0.9223
  257MOL0     H33895   6.841   1.828   6.943  1.9234 -0.1059 -0.7301
  257MOL0     H33896   6.784   1.535   7.021  0.7651 -0.1713 -3.7062
  257MOL0     H33897   6.710   1.680   7.087 -0.2246 -0.3350  0.1819
  257MOL0     H33898   6.681   1.613   6.783  0.0060  0.9040 -0.1193
  257MOL0     H33899   6.640   1.759   6.861 -0.5348 -0.4480 -1.5847
  257MOL0     H33900   6.467   1.634   6.990 -1.4560  0.5036 -1.7457
  257MOL0     H33901   6.536   1.478   6.947 -1.8523 -0.1175 -1.8691
  257MOL0     H33902   6.370   1.660   6.766 -1.6686 -2.1728 -2.4602
  257MOL0     H33903   6.472   1.535   6.710  0.6416 -1.8949  0.5201
  257MOL0     H33904   6.280   1.490   6.944  2.5747 -0.5788  1.5755
  257MOL0     H33905   6.378   1.372   6.851  0.8771  0.1420  1.3233
  257MOL0     H33906   7.339   1.785   6.950 -0.5512 -2.4555  0.5788
  257MOL0     H33907   7.571   1.814   6.956 -1.7428  0.0634 -0.2359
  257MOL0     H33908   8.018   1.559   7.266  2.0636  0.2585  0.4305
  257MOL0     H33909   8.225   1.613   7.323  1.0128  0.4007  0.2450
  257MOL0     H33910  10.017   2.469   6.962  3.3272 -1.8175  2.2457
  257MOL0     H33911  10.234   2.455   6.851 -1.0448 -0.3023  3.8900
  257MOL0     H33912  10.526   2.449   6.643 -1.9290 -0.3763 -1.2306
  257MOL0     H33913  10.751   2.477   6.579  3.4624 -1.8034  1.7657
  257MOL0     H33914  11.003   2.086   6.595  2.7313  0.6238 -1.4588
  257MOL0     H33915  11.001   2.145   6.764  1.5346 -0.9049 -0.3086
  257MOL0     H33916  11.160   2.303   6.726 -1.6073 -0.0261  0.0908
  257MOL0     H33917  11.217   2.129   6.699 -1.4444 -1.5867  0.1231
  257MOL0     H33918  11.194   2.338   6.486  0.0677 -0.3256  0.5918
  257MOL0     H33919  11.163   2.166   6.452  0.1804  1.4929 -1.6145
  257MOL0     H33920  11.397   2.115   6.524  1.8976 -0.4448 -0.7753
  257MOL0     H33921  11.411   2.245   6.408  1.0019  1.2364  1.1870
  257MOL0     H33922  11.596   2.396   6.750 -1.7573 -0.6568  1.2951
  257MOL0     H33923  10.779   2.043   6.626 -3.9551 -1.4099 -0.1360
  257MOL0     H33924  10.545   2.027   6.628 -2.7283  1.9624 -0.0399
  258MOL0     O33925  10.990   2.670   9.899 -0.2615 -0.1985  0.5413
  258MOL0     C33926  11.015   2.601   9.996 -0.3138 -0.1499 -0.9596
  258MOL0     O33927  10.919   2.553  10.084  0.7078  0.2430 -0.3389
  258MOL0     C33928  10.786   2.593  10.079  0.0202 -0.5303  0.2449
  258MOL0     C33929  10.696   2.570   9.975 -0.0109 -0.1936  0.1719
  258MOL0     C33930  10.563   2.612   9.972  1.1021  0.5143  0.8712
  258MOL0     C33931  10.508   2.654  10.090  0.5821  0.8554 -0.0142
  258MOL0     O33932  10.377   2.687  10.083 -0.2280  0.5927  0.0857
  258MOL0     C33933  10.306   2.735  10.193  1.2971  0.0554 -0.6463
  258MOL0     C33934  10.161   2.742  10.159 -0.0280 -0.1346 -0.0011
  258MOL0     C33935  10.079   2.786  10.281  0.1429  0.0126 -0.2228
  258MOL0     C33936   9.943   2.803  10.244  0.4713  0.2881 -0.2438
  258MOL0     C33937   9.847   2.841  10.352  0.0826 -0.6129 -0.2356
  258MOL0     C33938   9.860   2.997  10.382  0.2213  0.3766  0.1025
  258MOL0     C33939   9.728   3.050  10.445  0.4971  0.1954 -1.1634
  258MOL0     C33940   9.740   3.199  10.473 -0.9083  0.0001 -0.2684
  258MOL0     N33941   9.778   3.279  10.355 -0.7435  0.4056  0.5105
  258MOL0     C33942   9.705   3.288  10.240  0.0876 -0.2295  0.2504
  258MOL0     C33943   9.776   3.362  10.155  0.4912 -0.4789 -0.1621
  258MOL0     C33944   9.736   3.387  10.013 -0.4944 -0.4900 -0.2989
  258MOL0     C33945   9.585   3.417   9.996  0.1805  0.2938 -0.5727
  258MOL0     C33946   9.556   3.560  10.012 -0.0707  0.0215 -0.7174
  258MOL0     C33947   9.412   3.596  10.019  0.2686 -0.1321  0.2253
  258MOL0     O33948   9.343   3.577   9.894  1.0773 -0.1836  0.4814
  258MOL0     C33949   9.214   3.537   9.901 -0.2681  0.1288 -0.2305
  258MOL0     C33950   9.128   3.563  10.007 -0.1916 -0.2911 -1.5585
  258MOL0     C33951   8.996   3.521  10.015  0.0213 -1.1516 -0.0998
  258MOL0     C33952   8.936   3.457   9.897  0.5517 -0.2432  0.4473
  258MOL0     C33953   8.799   3.390   9.905  0.3784 -0.2556  0.3210
  258MOL0     O33954   8.727   3.385   9.789 -0.5109 -0.7494 -0.6426
  258MOL0     C33955   8.617   3.298   9.780  0.3611  0.0136  0.2405
  258MOL0     C33956   8.599   3.178   9.858 -0.4300 -0.4132  0.6945
  258MOL0     C33957   8.480   3.105   9.840 -0.2996 -0.2770 -0.6877
  258MOL0     C33958   8.375   3.144   9.751  0.1299 -0.0326 -0.3674
  258MOL0     O33959   8.258   3.073   9.743 -0.3389  0.7557 -0.1779
  258MOL0     C33960   8.131   3.145   9.709 -0.1635  0.1908  0.3688
  258MOL0     C33961   8.024   3.033   9.667  0.1108  1.0982  0.0836
  258MOL0     C33962   7.879   3.080   9.635  0.4060 -1.0378 -0.1267
  258MOL0     C33963   7.785   2.972   9.584  0.4512 -1.0491 -0.9035
  258MOL0     C33964   7.653   3.052   9.545 -0.4289 -0.5317 -0.8795
  258MOL0     C33965   7.558   2.940   9.495  0.4375  0.3817 -0.2909
  258MOL0     C33966   7.417   3.003   9.476  0.6588  0.0008  0.0632
  258MOL0     C33967   7.340   2.935   9.352  0.2328  0.7893  0.3251
  258MOL0    Cl33968   7.171   2.996   9.347  0.0593  0.1109 -0.4914
  258MOL0     C33969   8.399   3.253   9.671 -0.6448 -0.2235 -0.0984
  258MOL0     C33970   8.512   3.338   9.698 -0.3156  0.3513  0.3930
  258MOL0     O33971   8.764   3.352  10.019  0.4405 -0.2730  0.1084
  258MOL0     C33972   9.021   3.441   9.782  0.1935  0.3753 -0.3469
  258MOL0     C33973   9.153   3.496   9.787 -0.5886 -0.5352  0.3877
  258MOL0     N33974   9.884   3.417  10.219  0.3014  0.4952  0.3699
  258MOL0     N33975   9.880   3.372  10.340  0.6750 -0.3389 -0.1647
  258MOL0     C33976  10.592   2.675  10.206 -0.5793 -0.0356  0.7131
  258MOL0     C33977  10.733   2.644  10.195  1.0872  0.1625  0.0076
  258MOL0     C33978  11.163   2.556  10.016 -0.3191  0.8019  0.3867
  258MOL0     C33979  11.274   2.607   9.944  0.3036 -1.0601 -0.7182
  258MOL0     C33980  11.408   2.568   9.956  0.3980 -0.0095  0.6210
  258MOL0     C33981  11.437   2.464  10.051 -0.3914 -0.3958  0.1459
  258MOL0     O33982  11.560   2.402  10.060 -0.0738  0.2426  0.1619
  258MOL0     C33983  11.674   2.477  10.015 -0.5051 -0.4915  0.1834
  258MOL0     C33984  11.719   2.424   9.876 -0.2049  0.3677 -0.0911
  258MOL0     C33985  11.869   2.453   9.869 -0.3438  0.0036  0.0454
  258MOL0     C33986  11.912   2.414   9.736 -0.4165  0.1898  0.6575
  258MOL0     C33987  11.937   2.270   9.705  0.0269 -0.4065 -0.2099
  258MOL0     C33988  11.971   2.152   9.685 -0.0933  0.2630  0.4902
  258MOL0     C33989  11.331   2.403  10.118  0.5458  0.1073 -0.2090
  258MOL0     C33990  11.202   2.455  10.101 -0.3865  0.4750 -0.1483
  258MOL0     H33991  10.739   2.535   9.881 -0.2371  0.0931 -0.0401
  258MOL0     H33992  10.500   2.605   9.884  1.0409 -0.9487  1.0036
  258MOL0     H33993  10.342   2.838  10.208  0.5835  0.8888 -3.8256
  258MOL0     H33994  10.320   2.671  10.280 -3.0283 -1.1952 -0.6478
  258MOL0     H33995  10.136   2.638  10.135  0.5474 -0.3855  0.4678
  258MOL0     H33996  10.158   2.811  10.074 -1.1656  1.3442  1.1930
  258MOL0     H33997  10.112   2.881  10.323 -1.7141  0.1423  1.0756
  258MOL0     H33998  10.097   2.716  10.363  0.0454  1.2077  0.8464
  258MOL0     H33999   9.933   2.854  10.148  2.3056  0.8702 -0.1605
  258MOL0     H34000   9.904   2.704  10.219  0.4706  0.0938  0.5058
  258MOL0     H34001   9.849   2.787  10.447 -0.1043  0.9184  0.6756
  258MOL0     H34002   9.753   2.823  10.301  0.3250 -2.4095 -0.1235
  258MOL0     H34003   9.884   3.042  10.285  3.7230  0.6644  0.9497
  258MOL0     H34004   9.938   3.015  10.457 -0.2484  2.4356  0.1451
  258MOL0     H34005   9.642   3.020  10.385 -1.5916  1.3240  1.0897
  258MOL0     H34006   9.717   2.998  10.541 -0.3451 -1.9046 -2.3333
  258MOL0     H34007   9.814   3.212  10.552  1.3015 -0.5850 -2.1323
  258MOL0     H34008   9.646   3.238  10.512 -1.2385 -3.8002  3.4982
  258MOL0     H34009   9.605   3.252  10.217 -0.7375  1.4964  0.9624
  258MOL0     H34010   9.767   3.300   9.954  0.5797  1.5737 -2.9739
  258MOL0     H34011   9.792   3.465   9.959 -0.7065 -1.6704 -2.3533
  258MOL0     H34012   9.527   3.355  10.064  3.9590 -3.2921 -0.1771
  258MOL0     H34013   9.562   3.396   9.891  1.1369 -2.2600 -0.3318
  258MOL0     H34014   9.599   3.588  10.109 -2.4207  0.5742  0.2409
  258MOL0     H34015   9.603   3.619   9.933  0.2299  1.4964  0.5330
  258MOL0     H34016   9.404   3.698  10.058 -2.6996  0.5070 -1.7118
  258MOL0     H34017   9.366   3.542  10.102  0.3609  1.4246  1.3226
  258MOL0     H34018   9.161   3.627  10.088  0.9392 -1.5814 -0.9520
  258MOL0     H34019   8.940   3.556  10.101 -1.8201  0.0732 -1.6936
  258MOL0     H34020   8.679   3.132   9.915  0.9937  2.1594  0.9438
  258MOL0     H34021   8.465   3.009   9.890  1.9519 -0.8913 -1.0782
  258MOL0     H34022   8.146   3.207   9.620 -0.0031 -1.5295 -0.8397
  258MOL0     H34023   8.095   3.200   9.796  0.9392 -1.8013  2.1812
  258MOL0     H34024   8.015   2.972   9.757  0.6918  2.3100  0.9918
  258MOL0     H34025   8.074   2.988   9.580 -0.2111  1.9981 -0.5870
  258MOL0     H34026   7.895   3.157   9.559 -0.0902 -0.3494  0.4514
  258MOL0     H34027   7.830   3.124   9.722  1.1794 -1.4478  0.5363
  258MOL0     H34028   7.824   2.924   9.493 -1.4008 -0.8637 -1.8428
  258MOL0     H34029   7.770   2.891   9.656  2.8342 -2.0099 -1.3772
  258MOL0     H34030   7.661   3.133   9.472 -1.0836  0.4636  0.1292
  258MOL0     H34031   7.607   3.095   9.634  0.4332 -0.7266 -0.3298
  258MOL0     H34032   7.554   2.863   9.573  3.2502  0.0236 -0.3820
  258MOL0     H34033   7.608   2.897   9.408  1.9529  0.6579  0.4091
  258MOL0     H34034   7.360   2.986   9.568  0.1280  1.1956 -0.0412
  258MOL0     H34035   7.427   3.109   9.452 -1.5468  0.3248  0.3976
  258MOL0     H34036   7.352   2.826   9.355  3.1239  0.9792 -1.2360
  258MOL0     H34037   7.401   2.965   9.266  0.7087 -0.9058  0.0248
  258MOL0     H34038   8.323   3.289   9.602  0.5399  1.2468 -0.6855
  258MOL0     H34039   8.535   3.426   9.638 -1.0990 -1.8890 -3.5553
  258MOL0     H34040   8.976   3.398   9.693 -0.3090 -2.1759  1.0282
  258MOL0     H34041   9.216   3.494   9.698  1.1123 -3.5646  1.4960
  258MOL0     H34042  10.544   2.695  10.301  1.2496  3.2277  1.0921
  258MOL0     H34043  10.787   2.641  10.290 -0.1204 -2.9999  0.7208
  258MOL0     H34044  11.269   2.687   9.871 -1.2962  0.7371  1.2309
  258MOL0     H34045  11.485   2.612   9.893 -0.1176 -0.4512 -0.3435
  258MOL0     H34046  11.744   2.467  10.098  1.0907 -0.2214 -1.0919
  258MOL0     H34047  11.662   2.585   9.999  1.6686 -0.2872 -0.3298
  258MOL0     H34048  11.713   2.315   9.884  0.2198  0.3267 -0.3163
  258MOL0     H34049  11.657   2.457   9.792  1.5009 -0.0397 -1.5633
  258MOL0     H34050  11.930   2.412   9.950  1.3824 -2.4370 -2.3068
  258MOL0     H34051  11.893   2.560   9.874  1.5869 -0.4464  2.0511
  258MOL0     H34052  11.866   2.460   9.649  0.3039 -0.3704 -0.0414
  258MOL0     H34053  12.015   2.451   9.732  0.0125 -0.8492  1.4303
  258MOL0     H34054  11.992   2.055   9.645  0.6992  0.1217  1.2193
  258MOL0     H34055  11.344   2.319  10.185  1.2962  0.3530 -0.0435
  258MOL0     H34056  11.125   2.409  10.161  2.6261 -3.0240  1.4187
  259MOL0     O34057   0.592   4.386   9.800 -0.3383  0.2584  0.2832
  259MOL0     C34058   0.659   4.482   9.794  0.2987  0.2589 -0.1861
  259MOL0     O34059   0.611   4.611   9.795  0.1215 -0.2238  0.5591
  259MOL0     C34060   0.477   4.647   9.816 -1.1376  0.3261  0.1054
  259MOL0     C34061   0.391   4.579   9.899  0.2048 -0.1498 -0.7002
  259MOL0     C34062   0.257   4.629   9.912 -1.0535  1.1568 -0.2294
  259MOL0     C34063   0.223   4.757   9.856 -1.2152  0.1166 -0.2324
  259MOL0     O34064   0.101   4.811   9.861  0.7622 -0.0643  0.0338
  259MOL0     C34065  -0.003   4.749   9.940  0.5847  0.7627  0.0863
  259MOL0     C34066  -0.124   4.836   9.916  1.5793 -1.0260  0.4702
  259MOL0     C34067  -0.263   4.799   9.958 -0.1151 -0.0276  0.4548
  259MOL0     C34068  -0.294   4.856  10.096 -0.1835  0.3794 -0.7178
  259MOL0     C34069  -0.401   4.768  10.166 -0.4442 -0.6126  0.3527
  259MOL0     C34070  -0.475   4.846  10.281  1.1382 -0.3937  0.1695
  259MOL0     C34071  -0.625   4.782  10.312  0.5823  0.2002  0.7257
  259MOL0     C34072  -0.719   4.799  10.201 -0.0476 -0.3118  0.1548
  259MOL0     N34073  -0.732   4.944  10.177 -0.4512  0.2693 -0.0193
  259MOL0     C34074  -0.694   4.994  10.046 -0.9219  1.0469  0.0370
  259MOL0     C34075  -0.738   5.122  10.051  0.1342  0.4101  0.5770
  259MOL0     C34076  -0.726   5.220   9.936 -0.3277 -0.2098  0.7840
  259MOL0     C34077  -0.860   5.231   9.859 -0.0433 -0.1119  0.8608
  259MOL0     C34078  -0.908   5.367   9.819  0.0019 -0.6747  0.1641
  259MOL0     C34079  -0.956   5.458   9.932  1.1886  0.0225 -1.0466
  259MOL0     O34080  -1.080   5.410   9.985  0.7486  0.4714 -0.3372
  259MOL0     C34081  -1.131   5.485  10.087  1.1316  0.4736 -0.5349
  259MOL0     C34082  -1.268   5.473  10.098  0.6738  1.3111 -0.6933
  259MOL0     C34083  -1.339   5.545  10.191 -0.7215 -0.4877 -0.0415
  259MOL0     C34084  -1.269   5.629  10.276  0.5036  0.4567 -0.7712
  259MOL0     C34085  -1.336   5.714  10.374  0.2200 -0.8378  0.7373
  259MOL0     O34086  -1.475   5.718  10.367  0.4376 -0.0389  0.4206
  259MOL0     C34087  -1.559   5.770  10.465  0.1629 -0.4496 -0.9111
  259MOL0     C34088  -1.518   5.781  10.601  0.5227  0.0967  0.1464
  259MOL0     C34089  -1.616   5.816  10.706  1.1960  0.4859  0.8663
  259MOL0     C34090  -1.747   5.838  10.664  0.5693  0.0457  1.0199
  259MOL0     O34091  -1.842   5.852  10.765 -0.2416 -0.7073 -0.6113
  259MOL0     C34092  -1.986   5.883  10.737 -0.8154  0.2865 -0.8025
  259MOL0     C34093  -2.080   5.866  10.865  0.7781  0.3632 -0.3284
  259MOL0     C34094  -2.193   5.969  10.865 -0.3083 -0.7305 -0.5271
  259MOL0     C34095  -2.295   5.932  10.977  1.6152  0.0999 -0.0010
  259MOL0     C34096  -2.411   6.023  10.984 -0.1300  0.5914  0.6376
  259MOL0     C34097  -2.493   5.996  11.102  0.3857 -0.2372 -0.3912
  259MOL0     C34098  -2.614   6.092  11.110 -0.6219 -0.1066  0.3129
  259MOL0     C34099  -2.702   6.054  11.226 -0.5124  0.3704 -0.3319
  259MOL0    Cl34100  -2.852   5.980  11.165  0.1074 -0.3599  0.0578
  259MOL0     C34101  -1.787   5.817  10.530 -0.5680 -0.1164  1.4291
  259MOL0     C34102  -1.687   5.789  10.436 -0.0680 -0.4773 -0.6050
  259MOL0     O34103  -1.269   5.777  10.460 -0.4490 -0.4696 -0.0829
  259MOL0     C34104  -1.133   5.631  10.268 -0.9562  0.9586 -0.4462
  259MOL0     C34105  -1.057   5.558  10.175  0.1969  0.0767 -0.1311
  259MOL0     N34106  -0.803   5.153  10.168  0.2379  0.5491 -0.2143
  259MOL0     N34107  -0.799   5.043  10.239 -0.5352 -0.2160 -0.6189
  259MOL0     C34108   0.319   4.828   9.771 -0.9462  0.7300  0.1174
  259MOL0     C34109   0.446   4.769   9.757  0.1190 -0.0267  0.4777
  259MOL0     C34110   0.806   4.463   9.762  0.7279  0.5570 -0.0069
  259MOL0     C34111   0.860   4.331   9.753  0.1337  0.4883 -0.5815
  259MOL0     C34112   0.985   4.315   9.686  0.4896 -0.0276  0.4704
  259MOL0     C34113   1.054   4.419   9.629 -1.3109 -0.8347 -0.7051
  259MOL0     O34114   1.170   4.409   9.554  0.8117  0.1145 -0.3145
  259MOL0     C34115   1.247   4.295   9.555  0.9459 -0.8624 -0.2628
  259MOL0     C34116   1.301   4.262   9.692  0.2108  0.0914  0.2618
  259MOL0     C34117   1.388   4.371   9.753 -0.2394 -0.3929  0.3692
  259MOL0     C34118   1.523   4.406   9.677 -0.7204  0.1944 -0.2625
  259MOL0     C34119   1.569   4.541   9.707  0.5837  1.0664  0.2998
  259MOL0     C34120   1.600   4.657   9.714 -0.1054  1.6132  0.1134
  259MOL0     C34121   1.004   4.546   9.642  0.4264  0.0615 -0.6554
  259MOL0     C34122   0.879   4.562   9.699 -0.6621 -0.7490 -0.3996
  259MOL0     H34123   0.418   4.483   9.942 -2.6532 -1.3940 -1.4142
  259MOL0     H34124   0.188   4.571   9.972  0.2074  1.5907  1.7051
  259MOL0     H34125   0.011   4.742  10.049  0.9167 -1.1182 -0.0394
  259MOL0     H34126  -0.024   4.647   9.907  2.4722 -0.1353  1.4709
  259MOL0     H34127  -0.131   4.841   9.807 -3.2647  2.5580  0.6400
  259MOL0     H34128  -0.100   4.939   9.945  1.6968 -0.2447 -2.2107
  259MOL0     H34129  -0.268   4.690   9.950  0.3692 -0.0340  0.1828
  259MOL0     H34130  -0.335   4.853   9.895  2.7826  3.8572  0.0707
  259MOL0     H34131  -0.201   4.846  10.153 -0.4513 -3.4374 -0.7339
  259MOL0     H34132  -0.326   4.961  10.094 -0.3594  0.3674  0.7928
  259MOL0     H34133  -0.348   4.682  10.209  2.7288  0.9374 -0.1607
  259MOL0     H34134  -0.473   4.729  10.094  0.3384 -5.0131  1.6279
  259MOL0     H34135  -0.500   4.950  10.260  1.6867 -0.5167 -1.2250
  259MOL0     H34136  -0.417   4.848  10.373  0.9430 -3.6274  0.5067
  259MOL0     H34137  -0.625   4.673  10.315  1.9593  0.0937 -1.1695
  259MOL0     H34138  -0.665   4.831  10.402 -0.0732  1.5237 -0.2493
  259MOL0     H34139  -0.814   4.749  10.223 -1.5198  2.2990  0.1561
  259MOL0     H34140  -0.682   4.759  10.106 -0.6892  2.7429 -1.5146
  259MOL0     H34141  -0.634   4.945   9.969 -1.2766  0.1124  0.3336
  259MOL0     H34142  -0.648   5.199   9.861 -0.5879 -0.5692  0.6143
  259MOL0     H34143  -0.708   5.315   9.987 -1.5408  0.4100  0.0860
  259MOL0     H34144  -0.943   5.185   9.915  1.3756 -0.4747  2.7837
  259MOL0     H34145  -0.844   5.173   9.768  0.7251  1.4825 -0.0427
  259MOL0     H34146  -0.829   5.422   9.766  2.6044 -4.3320 -0.1129
  259MOL0     H34147  -0.993   5.367   9.749 -0.3088 -0.2998  0.5318
  259MOL0     H34148  -0.966   5.556   9.884  1.1606 -0.6418 -2.4665
  259MOL0     H34149  -0.885   5.457  10.015 -1.2443  0.6665  1.1391
  259MOL0     H34150  -1.323   5.407  10.032  1.9357 -1.7643  1.1073
  259MOL0     H34151  -1.447   5.539  10.186 -0.9850  2.5043  0.3623
  259MOL0     H34152  -1.417   5.753  10.630  0.9650  1.5061  0.0683
  259MOL0     H34153  -1.580   5.833  10.807  0.9634  1.6376  0.7637
  259MOL0     H34154  -2.026   5.804  10.673 -1.5004 -0.3807  0.4067
  259MOL0     H34155  -1.985   5.984  10.696  0.6903  0.8841  0.5934
  259MOL0     H34156  -2.033   5.882  10.962  0.3145  1.8488 -0.3224
  259MOL0     H34157  -2.119   5.764  10.874 -0.1710  0.7274 -0.2002
  259MOL0     H34158  -2.244   5.963  10.768 -2.0234 -4.0998  0.4342
  259MOL0     H34159  -2.150   6.066  10.891  0.4931 -0.2686 -3.2629
  259MOL0     H34160  -2.339   5.833  10.960  0.9560  0.5781 -1.2584
  259MOL0     H34161  -2.237   5.929  11.070  1.3172 -1.6912  0.1758
  259MOL0     H34162  -2.469   6.019  10.891  0.5072 -0.7494  0.2689
  259MOL0     H34163  -2.387   6.129  10.975  0.1423  0.4111 -1.0253
  259MOL0     H34164  -2.432   6.013  11.191  1.7738  1.1579 -1.5687
  259MOL0     H34165  -2.529   5.893  11.100 -0.0933 -0.1171  0.9409
  259MOL0     H34166  -2.575   6.193  11.124  0.0501 -0.3019 -0.1259
  259MOL0     H34167  -2.663   6.087  11.012  2.9746 -2.8741 -1.5723
  259MOL0     H34168  -2.729   6.144  11.281  0.9530  0.4319  0.3301
  259MOL0     H34169  -2.652   5.992  11.301  3.8861  3.0626 -0.6534
  259MOL0     H34170  -1.887   5.828  10.490 -1.4092 -1.7934  2.8963
  259MOL0     H34171  -1.713   5.775  10.331 -1.1545 -0.1070 -0.3977
  259MOL0     H34172  -1.085   5.697  10.340 -0.0242 -2.0500  1.8787
  259MOL0     H34173  -0.949   5.558  10.180  0.3141  0.6411 -1.7980
  259MOL0     H34174   0.288   4.921   9.724  1.0326  1.4878  0.2220
  259MOL0     H34175   0.516   4.818   9.690  1.0747 -0.4847  1.1357
  259MOL0     H34176   0.811   4.243   9.793 -0.3046  1.6016  1.4849
  259MOL0     H34177   1.004   4.209   9.672 -1.2339 -0.4843  1.3770
  259MOL0     H34178   1.321   4.299   9.475  0.3526 -1.3322 -0.8450
  259MOL0     H34179   1.188   4.209   9.521 -2.1056  0.5722  1.0604
  259MOL0     H34180   1.218   4.248   9.762 -0.7149  2.4060 -0.2645
  259MOL0     H34181   1.354   4.167   9.696 -1.0339 -0.6391 -0.2416
  259MOL0     H34182   1.409   4.326   9.851  0.3297 -0.2480  0.3186
  259MOL0     H34183   1.326   4.457   9.777  0.5215 -0.4260  2.8202
  259MOL0     H34184   1.600   4.328   9.683  0.9358  1.4258 -3.2473
  259MOL0     H34185   1.503   4.406   9.570 -2.5550 -1.3732  0.0316
  259MOL0     H34186   1.633   4.759   9.718  3.8206  0.6000 -1.6012
  259MOL0     H34187   1.075   4.620   9.608  0.0849  0.2003 -1.0681
  259MOL0     H34188   0.832   4.658   9.681 -0.8419 -0.8720 -0.5814
  260MOL0     O34189   9.002   5.981   3.123 -0.1237  0.0005 -0.6452
  260MOL0     C34190   9.065   5.885   3.157 -0.3091  0.4140 -0.0259
  260MOL0     O34191   9.012   5.769   3.202 -0.1768  0.0727 -0.4336
  260MOL0     C34192   8.880   5.730   3.198  0.4039 -0.3759 -0.5584
  260MOL0     C34193   8.849   5.610   3.142  0.0770  1.3427 -0.6107
  260MOL0     C34194   8.710   5.583   3.127  0.8992  0.5667 -0.0965
  260MOL0     C34195   8.610   5.673   3.164  0.2846 -0.7256 -0.0018
  260MOL0     O34196   8.478   5.672   3.135  0.3586  0.2162 -0.4353
  260MOL0     C34197   8.406   5.548   3.161  0.7902 -0.8517  0.0469
  260MOL0     C34198   8.264   5.556   3.100 -0.0585 -0.4531  1.3502
  260MOL0     C34199   8.183   5.638   3.191  0.0005  0.1154  0.3607
  260MOL0     C34200   8.037   5.660   3.138 -0.1087 -0.2169 -0.1031
  260MOL0     C34201   8.010   5.768   3.030 -0.3627  0.3103 -0.0729
  260MOL0     C34202   7.875   5.765   2.960  0.1916 -0.9599  0.1205
  260MOL0     C34203   7.853   5.889   2.870 -0.7360  0.8167 -0.1388
  260MOL0     C34204   7.909   5.870   2.723 -0.5142 -0.3723  0.0939
  260MOL0     N34205   8.049   5.864   2.695 -0.0981  0.3300  0.3427
  260MOL0     C34206   8.139   5.914   2.785 -0.0592 -0.6184 -0.2472
  260MOL0     C34207   8.260   5.918   2.712  0.3612 -0.1315  0.3448
  260MOL0     C34208   8.378   5.997   2.760  0.0960 -0.5294 -0.0185
  260MOL0     C34209   8.423   5.965   2.904 -0.4756  0.1162 -0.5997
  260MOL0     C34210   8.576   6.007   2.937  0.4006  0.1883 -0.0012
  260MOL0     C34211   8.573   6.154   2.916  0.0180 -0.2623 -0.0616
  260MOL0     O34212   8.684   6.218   2.976  0.2779  0.6484  0.2669
  260MOL0     C34213   8.808   6.238   2.919  0.3374  0.5404 -1.2833
  260MOL0     C34214   8.906   6.288   3.014  0.4483  0.0400  0.4701
  260MOL0     C34215   9.028   6.323   2.967 -0.2829 -0.2400 -0.2849
  260MOL0     C34216   9.062   6.316   2.831 -0.3962 -0.8518 -0.6663
  260MOL0     C34217   9.189   6.380   2.774 -0.1482  0.0736  0.4378
  260MOL0     O34218   9.278   6.455   2.853 -0.1393  0.4331 -0.1558
  260MOL0     C34219   9.400   6.498   2.809 -0.6483  0.7485 -0.1368
  260MOL0     C34220   9.414   6.608   2.721  0.1512  1.0418 -0.2601
  260MOL0     C34221   9.537   6.666   2.693 -1.0647 -0.2287  0.2162
  260MOL0     C34222   9.651   6.612   2.749  0.7202  0.3316  0.2580
  260MOL0     O34223   9.781   6.665   2.731 -0.3041  1.1187 -0.4194
  260MOL0     C34224   9.834   6.658   2.599 -0.1372 -0.1674  0.2624
  260MOL0     C34225   9.972   6.606   2.616  0.7654 -0.2840  0.2428
  260MOL0     C34226  10.036   6.623   2.482  0.1102  0.7561 -0.2971
  260MOL0     C34227  10.157   6.527   2.468  0.0991  0.2231  0.3931
  260MOL0     C34228  10.212   6.522   2.331  0.2566  0.3517 -0.3078
  260MOL0     C34229  10.362   6.485   2.327  0.0249  0.7173 -0.3131
  260MOL0     C34230  10.419   6.482   2.183  0.3801  0.4063 -0.5664
  260MOL0     C34231  10.517   6.588   2.146  0.4645 -0.4333  1.1328
  260MOL0    Cl34232  10.600   6.543   1.999  0.2431 -0.1661  0.1177
  260MOL0     C34233   9.648   6.505   2.833  0.6087  0.5743  0.6721
  260MOL0     C34234   9.520   6.449   2.859 -0.0710  0.7462 -0.4629
  260MOL0     O34235   9.202   6.381   2.652  0.5273  0.3303  0.3372
  260MOL0     C34236   8.972   6.248   2.748 -0.6467  0.5375  0.2294
  260MOL0     C34237   8.845   6.215   2.788 -1.5147  0.1181  0.1117
  260MOL0     N34238   8.236   5.868   2.584  0.7621 -0.1056  0.1643
  260MOL0     N34239   8.107   5.850   2.576  0.0907  0.8781  0.7525
  260MOL0     C34240   8.648   5.785   3.228 -0.7618  0.6440  0.8769
  260MOL0     C34241   8.783   5.817   3.244  0.7974 -0.2874 -0.3772
  260MOL0     C34242   9.214   5.899   3.140 -0.2156 -0.4809  0.7637
  260MOL0     C34243   9.304   5.796   3.144 -0.0337  0.5576  0.3248
  260MOL0     C34244   9.441   5.829   3.148  0.4416  1.3350  0.4774
  260MOL0     C34245   9.499   5.954   3.131  1.0335 -0.5682  0.5974
  260MOL0     O34246   9.632   5.978   3.120  0.3411  0.6148  0.3486
  260MOL0     C34247   9.672   6.080   3.213 -0.3828  0.3878  0.2015
  260MOL0     C34248   9.827   6.106   3.212 -0.2298  0.2608  0.3604
  260MOL0     C34249   9.896   5.966   3.223  0.1454 -1.0051 -0.1484
  260MOL0     C34250   9.990   5.937   3.098 -0.4449 -0.9401 -0.8228
  260MOL0     C34251  10.110   6.021   3.103 -0.2552  0.4836 -0.3541
  260MOL0     C34252  10.213   6.085   3.110  0.1725  0.2212  0.1666
  260MOL0     C34253   9.403   6.051   3.090  0.9855  0.1666 -0.8090
  260MOL0     C34254   9.263   6.028   3.110 -0.7313  0.6448  1.9782
  260MOL0     H34255   8.924   5.550   3.091  1.2346  3.2684 -1.2647
  260MOL0     H34256   8.676   5.489   3.084  1.1151 -0.4022  1.7601
  260MOL0     H34257   8.403   5.522   3.267 -0.5502 -1.9641 -0.2409
  260MOL0     H34258   8.453   5.461   3.115  1.5406  0.4100 -1.6934
  260MOL0     H34259   8.211   5.464   3.072  0.5614  0.5999 -4.7352
  260MOL0     H34260   8.270   5.608   3.004 -2.7553 -1.4386  0.5333
  260MOL0     H34261   8.228   5.737   3.203  2.6267 -1.1530  1.7513
  260MOL0     H34262   8.175   5.585   3.285  1.3025 -0.5817  0.0976
  260MOL0     H34263   7.992   5.564   3.111  0.8215 -0.5284 -0.5797
  260MOL0     H34264   7.990   5.696   3.230  2.6647  2.6487  0.3720
  260MOL0     H34265   8.088   5.755   2.955 -1.1113 -0.7910 -0.6920
  260MOL0     H34266   8.025   5.861   3.084 -1.6884  1.3083 -1.3227
  260MOL0     H34267   7.795   5.781   3.033 -0.3972 -0.1638 -0.6740
  260MOL0     H34268   7.855   5.678   2.896  0.4617  0.6737 -2.3225
  260MOL0     H34269   7.743   5.890   2.866 -0.9419 -1.3360  2.2325
  260MOL0     H34270   7.891   5.980   2.916  0.3782 -0.1208  0.8619
  260MOL0     H34271   7.871   5.946   2.653  3.6464 -0.8165 -2.9839
  260MOL0     H34272   7.874   5.781   2.671  0.8139  0.3226 -2.0889
  260MOL0     H34273   8.111   5.966   2.877  0.3022  3.5694 -2.2375
  260MOL0     H34274   8.351   6.103   2.761  2.4151  0.1359  2.8607
  260MOL0     H34275   8.463   5.980   2.693  0.8661 -0.3151  0.8838
  260MOL0     H34276   8.422   5.857   2.921 -1.7124  0.1417 -0.3951
  260MOL0     H34277   8.349   6.017   2.965  2.2606  1.0805  2.1226
  260MOL0     H34278   8.611   5.991   3.040 -0.6857  0.3229  0.4054
  260MOL0     H34279   8.637   5.958   2.860  1.8783  2.3440 -0.2834
  260MOL0     H34280   8.479   6.184   2.963 -1.9076 -3.6175 -1.3595
  260MOL0     H34281   8.569   6.180   2.810  2.3619  0.4519 -0.0264
  260MOL0     H34282   8.883   6.314   3.117  0.0894  0.0073  0.4026
  260MOL0     H34283   9.085   6.391   3.030 -0.9477  0.8777 -0.8572
  260MOL0     H34284   9.318   6.644   2.686 -0.4241  0.6091  0.8134
  260MOL0     H34285   9.549   6.760   2.639  2.5330 -0.9076 -0.3978
  260MOL0     H34286   9.830   6.759   2.556  1.5404 -0.0749  0.2651
  260MOL0     H34287   9.777   6.588   2.538 -0.8686  0.5115  0.1489
  260MOL0     H34288   9.967   6.500   2.641 -1.7133 -0.7846 -1.9673
  260MOL0     H34289  10.023   6.662   2.695  1.0520  0.0287 -0.1542
  260MOL0     H34290  10.059   6.730   2.477 -1.9082  1.2734  0.5313
  260MOL0     H34291   9.966   6.597   2.403 -1.1405 -0.9312  1.2755
  260MOL0     H34292  10.237   6.549   2.540  0.8882  2.4669 -1.0700
  260MOL0     H34293  10.122   6.427   2.497 -0.3094  0.2998  0.1721
  260MOL0     H34294  10.205   6.623   2.288  2.4856  0.4630 -0.5277
  260MOL0     H34295  10.166   6.451   2.262  0.9726 -1.0557  0.6110
  260MOL0     H34296  10.377   6.389   2.378  0.5176  1.3485  0.7483
  260MOL0     H34297  10.411   6.561   2.387  2.1070 -1.0347  0.3493
  260MOL0     H34298  10.463   6.382   2.177 -3.6714 -1.6357 -0.2070
  260MOL0     H34299  10.335   6.478   2.113 -3.3133 -1.2342  3.4317
  260MOL0     H34300  10.584   6.602   2.232  2.2826 -2.1154  0.0764
  260MOL0     H34301  10.465   6.683   2.132  0.5076 -0.8408 -2.5682
  260MOL0     H34302   9.741   6.463   2.870 -1.0295 -3.3295  0.8651
  260MOL0     H34303   9.512   6.373   2.936 -0.8500 -0.9714 -2.1516
  260MOL0     H34304   8.999   6.227   2.645 -0.1894  1.1842  0.2130
  260MOL0     H34305   8.773   6.170   2.720 -1.6632 -0.3433  0.5658
  260MOL0     H34306   8.575   5.859   3.258 -1.0759  1.6074 -1.9895
  260MOL0     H34307   8.808   5.909   3.296  1.9096  2.5372 -5.2290
  260MOL0     H34308   9.272   5.694   3.162  2.6061  0.0883  3.2073
  260MOL0     H34309   9.512   5.748   3.162 -2.7777 -1.6947  0.8021
  260MOL0     H34310   9.640   6.056   3.314 -0.3984 -1.0459 -0.1156
  260MOL0     H34311   9.625   6.171   3.176 -1.2008  0.0779  0.4688
  260MOL0     H34312   9.854   6.145   3.114 -2.8467 -4.0328 -2.3762
  260MOL0     H34313   9.852   6.167   3.300 -1.0336 -0.9766  1.4940
  260MOL0     H34314   9.829   5.882   3.240  0.0611 -0.6760  1.3384
  260MOL0     H34315   9.954   5.981   3.315  0.9371  4.4661 -1.1808
  260MOL0     H34316  10.027   5.835   3.086 -1.1292 -1.0745 -2.0250
  260MOL0     H34317   9.942   5.964   3.003 -2.5898 -3.8509 -0.6915
  260MOL0     H34318  10.308   6.135   3.106  0.3699 -0.1942 -2.6262
  260MOL0     H34319   9.436   6.144   3.046 -1.3844  1.2535 -0.4692
  260MOL0     H34320   9.205   6.113   3.074 -1.6555 -0.6360  0.2765
  261MOL0     O34321   6.625   8.056  11.173 -0.4281 -0.0061  1.6614
  261MOL0     C34322   6.654   7.936  11.193  1.2496 -0.1182 -0.1293
  261MOL0     O34323   6.563   7.837  11.190 -1.6379  0.8963 -0.2899
  261MOL0     C34324   6.450   7.848  11.114  0.3828  0.0026 -0.0338
  261MOL0     C34325   6.463   7.827  10.977  0.0655 -0.4686 -0.4777
  261MOL0     C34326   6.347   7.806  10.902  0.7668 -0.6176  0.6222
  261MOL0     C34327   6.224   7.832  10.961  0.3073  0.5508 -0.1989
  261MOL0     O34328   6.104   7.835  10.890  0.0360 -0.4930  0.5503
  261MOL0     C34329   6.098   7.843  10.751 -0.9158  0.3568 -0.1126
  261MOL0     C34330   5.949   7.854  10.699 -0.1049 -0.5336  0.2329
  261MOL0     C34331   5.882   7.716  10.691 -0.3389 -0.2523 -0.1061
  261MOL0     C34332   5.744   7.714  10.615 -0.6169  0.6430 -0.4257
  261MOL0     C34333   5.746   7.747  10.468 -0.0594 -0.6266  0.1614
  261MOL0     C34334   5.605   7.812  10.431 -0.0805  0.6174  0.3199
  261MOL0     C34335   5.617   7.853  10.284  0.2741 -0.1274 -0.2307
  261MOL0     C34336   5.496   7.925  10.227  0.3488  0.6588  0.1121
  261MOL0     N34337   5.489   8.070  10.265  0.2810 -0.1115  0.1140
  261MOL0     C34338   5.391   8.128  10.335 -0.4565  0.7038 -1.0653
  261MOL0     C34339   5.381   8.258  10.304 -0.0913  0.4098  0.5075
  261MOL0     C34340   5.285   8.359  10.361 -0.3088 -0.5679  0.1359
  261MOL0     C34341   5.263   8.473  10.255 -0.2808  0.0911 -0.9352
  261MOL0     C34342   5.140   8.565  10.284 -0.0575  0.0035 -1.0968
  261MOL0     C34343   5.138   8.686  10.197  0.0503 -1.2001  0.1232
  261MOL0     O34344   5.118   8.810  10.281 -0.2374  0.0326 -0.4819
  261MOL0     C34345   4.983   8.835  10.292  0.8978  0.2285 -0.9866
  261MOL0     C34346   4.904   8.851  10.182 -0.3723  0.6074  0.1722
  261MOL0     C34347   4.766   8.850  10.179  0.4372 -1.3119 -0.0765
  261MOL0     C34348   4.706   8.847  10.311  0.4763 -0.1302 -0.2648
  261MOL0     C34349   4.556   8.850  10.325  0.2544  0.2229  0.2207
  261MOL0     O34350   4.515   8.842  10.448  0.7609  0.1872 -0.5716
  261MOL0     C34351   4.378   8.851  10.464  0.4800 -1.1854  0.4182
  261MOL0     C34352   4.305   8.962  10.424 -0.7524  0.0222  0.2084
  261MOL0     C34353   4.176   8.980  10.457  0.3165 -0.4736 -0.2893
  261MOL0     C34354   4.100   8.881  10.510 -1.2258  0.8026  0.2317
  261MOL0     O34355   3.968   8.905  10.515 -0.0487  0.6590 -0.3201
  261MOL0     C34356   3.873   8.798  10.508  0.3258  0.4715 -0.6387
  261MOL0     C34357   3.733   8.866  10.497  0.2023  0.6410 -0.2343
  261MOL0     C34358   3.688   8.938  10.623 -0.3114  0.4775 -0.8160
  261MOL0     C34359   3.540   8.979  10.612 -0.0172 -0.7155  0.4082
  261MOL0     C34360   3.487   9.021  10.750  0.2122  0.4974 -0.0478
  261MOL0     C34361   3.342   9.061  10.742  0.9843 -0.6061 -0.7598
  261MOL0     C34362   3.296   9.071  10.883  0.3314  0.3488 -1.4955
  261MOL0     C34363   3.153   9.103  10.900 -0.4620  0.1248  0.0174
  261MOL0    Cl34364   3.045   8.964  10.850  0.9827  0.2747 -0.7003
  261MOL0     C34365   4.167   8.774  10.566  0.3714  0.9090 -0.4205
  261MOL0     C34366   4.304   8.753  10.545 -0.2295  0.6203 -0.8643
  261MOL0     O34367   4.486   8.848  10.222 -0.2571 -0.4164 -0.2941
  261MOL0     C34368   4.785   8.846  10.428 -0.5769  0.1406 -0.6150
  261MOL0     C34369   4.925   8.839  10.417 -0.5409  0.0012  0.2150
  261MOL0     N34370   5.479   8.281  10.216 -0.0777 -0.2829  0.4900
  261MOL0     N34371   5.548   8.174  10.196 -0.5846  0.1263 -0.5680
  261MOL0     C34372   6.213   7.859  11.096 -0.2494  0.4476  0.8607
  261MOL0     C34373   6.329   7.872  11.172 -0.6666  0.0147 -0.3964
  261MOL0     C34374   6.798   7.906  11.209 -1.0951  0.1859  0.0690
  261MOL0     C34375   6.897   8.007  11.206 -0.6113 -0.1505  0.1361
  261MOL0     C34376   7.036   7.976  11.217  0.5104  0.3364  0.0251
  261MOL0     C34377   7.072   7.844  11.238  0.1196  0.4154 -0.1525
  261MOL0     O34378   7.210   7.828  11.246 -0.8853  0.7862 -0.5341
  261MOL0     C34379   7.253   7.696  11.258 -0.7546 -1.0881  0.4450
  261MOL0     C34380   7.410   7.696  11.278  0.4877  0.6210  0.0946
  261MOL0     C34381   7.454   7.725  11.424 -0.3748 -1.2188 -0.0467
  261MOL0     C34382   7.609   7.740  11.428 -0.5190  0.2737  0.3164
  261MOL0     C34383   7.664   7.601  11.435 -0.2268 -1.1130 -0.1905
  261MOL0     C34384   7.699   7.487  11.449 -0.6338  0.6761  0.1849
  261MOL0     C34385   6.972   7.748  11.256  0.2802  0.5745 -0.2788
  261MOL0     C34386   6.838   7.774  11.236 -0.4011 -0.2478  0.1159
  261MOL0     H34387   6.563   7.819  10.936  1.5583  0.5446  2.5948
  261MOL0     H34388   6.364   7.776  10.799  0.0468  0.5233  0.1514
  261MOL0     H34389   6.137   7.754  10.700 -1.9226  0.1980 -0.6308
  261MOL0     H34390   6.149   7.936  10.722 -1.9260  0.8428 -0.3475
  261MOL0     H34391   5.950   7.886  10.595 -3.1914 -1.1908 -0.1054
  261MOL0     H34392   5.876   7.920  10.749 -2.0804 -1.6378 -1.0656
  261MOL0     H34393   5.856   7.695  10.795 -1.3739 -2.2601 -0.7301
  261MOL0     H34394   5.943   7.632  10.657 -3.7591 -3.2234  0.5911
  261MOL0     H34395   5.710   7.614  10.647  2.1062  0.1083  1.1688
  261MOL0     H34396   5.668   7.773  10.666 -1.4413 -1.3769  0.8222
  261MOL0     H34397   5.775   7.662  10.407  0.7507  0.1137 -0.5203
  261MOL0     H34398   5.836   7.803  10.440  0.4643 -0.8758  1.2954
  261MOL0     H34399   5.574   7.899  10.490 -3.4495  0.9058 -1.6351
  261MOL0     H34400   5.522   7.744  10.452 -1.6507  2.5307  0.5717
  261MOL0     H34401   5.700   7.923  10.298 -0.4023  0.5253  0.6432
  261MOL0     H34402   5.639   7.773  10.212 -1.4480 -2.1799  1.4055
  261MOL0     H34403   5.407   7.875  10.267  0.2967 -2.6861 -3.6259
  261MOL0     H34404   5.495   7.914  10.119 -0.3557 -0.9745  0.2558
  261MOL0     H34405   5.329   8.072  10.405 -2.0547  2.8015 -0.6945
  261MOL0     H34406   5.328   8.399  10.453 -2.4806 -1.1125  1.4540
  261MOL0     H34407   5.191   8.322  10.402  0.6774  1.1666  4.5385
  261MOL0     H34408   5.241   8.427  10.159 -1.4204 -1.7373  0.1580
  261MOL0     H34409   5.356   8.530  10.248 -2.2070  3.8496  0.7248
  261MOL0     H34410   5.048   8.510  10.262  0.2466 -1.0088  0.0320
  261MOL0     H34411   5.141   8.594  10.390 -0.9813  0.7075 -1.2775
  261MOL0     H34412   5.067   8.671  10.116  1.8087 -1.5241 -1.4254
  261MOL0     H34413   5.238   8.706  10.157  0.6181 -1.4878  1.3537
  261MOL0     H34414   4.948   8.863  10.084 -1.9989  1.9103 -0.4459
  261MOL0     H34415   4.712   8.854  10.085  2.1387 -1.1615 -1.0959
  261MOL0     H34416   4.349   9.042  10.366 -2.2180  0.8844  0.2151
  261MOL0     H34417   4.132   9.064  10.405  0.5358 -0.2024 -0.0392
  261MOL0     H34418   3.880   8.738  10.599  2.0233  0.6661 -0.6110
  261MOL0     H34419   3.892   8.726  10.428  3.1196 -0.6756  0.9305
  261MOL0     H34420   3.656   8.794  10.471 -1.1854  1.2646  1.8376
  261MOL0     H34421   3.740   8.941  10.418 -0.7669  2.2008  1.0722
  261MOL0     H34422   3.751   9.025  10.646 -0.0340 -0.2854  1.6146
  261MOL0     H34423   3.715   8.872  10.706  0.6132  3.8891  1.8046
  261MOL0     H34424   3.527   9.060  10.539  0.0224 -1.7696 -0.7980
  261MOL0     H34425   3.486   8.894  10.571  0.4686 -0.6171 -0.4700
  261MOL0     H34426   3.549   9.094  10.803  0.2133 -1.6924  3.2275
  261MOL0     H34427   3.500   8.925  10.801  1.0399  0.3527 -0.5002
  261MOL0     H34428   3.295   8.986  10.678  1.0276 -0.5884 -0.8117
  261MOL0     H34429   3.321   9.155  10.690 -0.9347 -0.8459 -0.5091
  261MOL0     H34430   3.317   8.986  10.949 -0.2275  1.3572  0.0555
  261MOL0     H34431   3.354   9.151  10.930 -0.9755  0.6820 -0.3878
  261MOL0     H34432   3.136   9.188  10.833 -1.5822  0.3371  0.5462
  261MOL0     H34433   3.129   9.135  11.002 -0.5948 -0.5537  0.2001
  261MOL0     H34434   4.115   8.701  10.628 -0.8942  1.3470 -0.9350
  261MOL0     H34435   4.359   8.669  10.586  0.6900  1.8131  0.4362
  261MOL0     H34436   4.739   8.853  10.526 -0.0443 -1.3444 -0.2346
  261MOL0     H34437   4.991   8.828  10.502  0.9369  2.0537 -0.5944
  261MOL0     H34438   6.112   7.878  11.129 -0.1639 -0.9881  2.0713
  261MOL0     H34439   6.333   7.913  11.273  0.7687  3.3603 -1.6569
  261MOL0     H34440   6.880   8.110  11.177 -0.6433 -0.7437 -2.1382
  261MOL0     H34441   7.108   8.051  11.187 -0.0990 -0.1998 -3.0975
  261MOL0     H34442   7.238   7.629  11.173 -0.7504  0.4088 -0.7779
  261MOL0     H34443   7.212   7.639  11.342  0.8263 -2.1769  0.5402
  261MOL0     H34444   7.439   7.599  11.237 -1.4910 -0.0454  0.1457
  261MOL0     H34445   7.452   7.771  11.210 -1.5207  2.2805  0.5681
  261MOL0     H34446   7.415   7.643  11.485 -0.9319 -0.9528 -0.0402
  261MOL0     H34447   7.419   7.823  11.457  4.6863  0.5022  1.2564
  261MOL0     H34448   7.647   7.798  11.344 -0.8873  0.8395  0.5375
  261MOL0     H34449   7.623   7.792  11.524 -2.4587  1.2315  0.1218
  261MOL0     H34450   7.728   7.385  11.460 -2.9181 -0.2640 -1.5302
  261MOL0     H34451   6.993   7.643  11.273 -0.2896  0.6247  0.8532
  261MOL0     H34452   6.765   7.694  11.241 -0.9930  0.3530  1.6440
  262MOL0     O34453   6.832  10.319   4.386 -0.5709  0.0206  0.1575
  262MOL0     C34454   6.802  10.300   4.269  0.4518  0.3042 -0.3836
  262MOL0     O34455   6.671  10.282   4.221 -0.9189  0.3932  0.5529
  262MOL0     C34456   6.564  10.301   4.306  0.6230 -0.3812  0.3419
  262MOL0     C34457   6.485  10.191   4.346  0.3461  0.2882 -1.3446
  262MOL0     C34458   6.387  10.204   4.447  0.9288  0.0504  0.2596
  262MOL0     C34459   6.363  10.334   4.501 -0.4995  0.9986  0.2251
  262MOL0     O34460   6.259  10.337   4.588  0.0648 -0.2035  0.1622
  262MOL0     C34461   6.259  10.449   4.683 -0.2436  0.6178 -0.5794
  262MOL0     C34462   6.165  10.423   4.789  0.7298  0.6778  0.4694
  262MOL0     C34463   6.022  10.404   4.737  0.6167 -0.0214  0.0861
  262MOL0     C34464   5.924  10.412   4.861 -0.1693 -0.0782 -0.0796
  262MOL0     C34465   5.779  10.385   4.824  0.7007  0.2517  0.0497
  262MOL0     C34466   5.674  10.460   4.918  0.3664  0.6108  0.3067
  262MOL0     C34467   5.634  10.359   5.034  0.0016 -0.1526 -0.2508
  262MOL0     C34468   5.560  10.431   5.145 -0.4420 -0.3194  0.2007
  262MOL0     N34469   5.439  10.490   5.093 -0.4808  0.8679  0.2668
  262MOL0     C34470   5.326  10.414   5.064  0.3749  0.1303 -0.2016
  262MOL0     C34471   5.232  10.505   5.035 -0.8611  0.2712  0.6762
  262MOL0     C34472   5.105  10.488   4.981  0.2141 -0.8115  0.1777
  262MOL0     C34473   4.995  10.435   5.075  0.1048 -0.5038 -0.1213
  262MOL0     C34474   4.859  10.470   5.011 -0.0773  0.4738  0.0079
  262MOL0     C34475   4.822  10.609   5.052  0.6634  1.0643  0.4943
  262MOL0     O34476   4.815  10.643   5.186  0.5344 -0.7683 -0.0119
  262MOL0     C34477   4.719  10.583   5.263  0.4120  1.0413  0.7322
  262MOL0     C34478   4.737  10.468   5.342  0.5645  0.3692  0.0412
  262MOL0     C34479   4.636  10.395   5.404 -0.4207 -0.7507 -0.7613
  262MOL0     C34480   4.511  10.456   5.398  0.5150 -0.9749 -0.2134
  262MOL0     C34481   4.396  10.402   5.479 -0.3504 -0.0419  0.0470
  262MOL0     O34482   4.271  10.441   5.442 -0.6042 -0.1605  0.4610
  262MOL0     C34483   4.164  10.444   5.525  0.5058 -0.3925 -0.8364
  262MOL0     C34484   4.052  10.514   5.475 -0.7653  0.0845 -0.1910
  262MOL0     C34485   3.925  10.494   5.531 -0.2153 -0.5973 -0.7448
  262MOL0     C34486   3.903  10.422   5.643  0.2433 -0.5251 -0.1556
  262MOL0     O34487   3.775  10.394   5.680 -0.6339 -0.3009  0.3443
  262MOL0     C34488   3.743  10.266   5.748 -0.3568 -0.8362 -0.4155
  262MOL0     C34489   3.600  10.256   5.792 -0.3625  0.1102  0.6698
  262MOL0     C34490   3.561  10.112   5.814  0.4421 -0.2301 -0.3768
  262MOL0     C34491   3.407  10.102   5.845 -0.9532  0.4259 -0.3607
  262MOL0     C34492   3.372   9.991   5.944 -0.5117  0.9248 -0.2943
  262MOL0     C34493   3.218   9.978   5.950  0.3258  0.2081 -0.6420
  262MOL0     C34494   3.186   9.863   6.050  0.0231 -0.0341 -0.4133
  262MOL0     C34495   3.031   9.827   6.058  0.1583  0.5224  0.1297
  262MOL0    Cl34496   2.936   9.971   6.094  0.0898  0.1069 -0.6329
  262MOL0     C34497   4.010  10.361   5.702  0.3269  0.7746 -0.8424
  262MOL0     C34498   4.139  10.375   5.645 -0.0420  0.3585 -0.7308
  262MOL0     O34499   4.421  10.329   5.570  0.4130 -0.5794 -0.0942
  262MOL0     C34500   4.494  10.576   5.323  0.1147  0.1040  0.7986
  262MOL0     C34501   4.593  10.642   5.263  0.2442 -0.7289  0.9284
  262MOL0     N34502   5.287  10.632   5.052  0.7839 -0.7748  0.4437
  262MOL0     N34503   5.417  10.624   5.078  0.0896 -0.1648  0.2002
  262MOL0     C34504   6.448  10.439   4.461  0.5330 -0.2909 -0.6411
  262MOL0     C34505   6.542  10.426   4.367 -0.0818  0.3506 -0.0670
  262MOL0     C34506   6.910  10.266   4.175 -0.5105  0.2930 -0.2800
  262MOL0     C34507   7.033  10.218   4.234 -0.4378 -0.4778  0.1816
  262MOL0     C34508   7.142  10.197   4.159 -0.1651  0.1367 -0.4241
  262MOL0     C34509   7.138  10.206   4.023  0.6308 -0.2687 -0.3005
  262MOL0     O34510   7.242  10.175   3.940 -0.3696  0.1471  0.2838
  262MOL0     C34511   7.364  10.247   3.967 -0.1003  0.3184  0.3023
  262MOL0     C34512   7.463  10.233   3.855 -0.1382 -0.2274  0.9831
  262MOL0     C34513   7.406  10.275   3.715  0.6260  0.0045 -0.4656
  262MOL0     C34514   7.507  10.261   3.606  0.0314  0.2340  0.5333
  262MOL0     C34515   7.465  10.320   3.478  0.7037 -0.6491 -0.0795
  262MOL0     C34516   7.424  10.387   3.381 -0.4171  0.1082  0.5070
  262MOL0     C34517   7.019  10.241   3.962 -0.0747  0.1532  0.1410
  262MOL0     C34518   6.905  10.275   4.037 -0.1011 -1.3715  0.5805
  262MOL0     H34519   6.499  10.095   4.296 -1.3978  1.3091 -4.0179
  262MOL0     H34520   6.329  10.115   4.467 -1.6737  1.1905 -1.5391
  262MOL0     H34521   6.242  10.536   4.619 -3.5481 -0.5569 -1.5144
  262MOL0     H34522   6.355  10.458   4.734 -0.8136  0.1656  0.6175
  262MOL0     H34523   6.149  10.507   4.857 -2.7392  1.2243 -0.8353
  262MOL0     H34524   6.183  10.339   4.858 -2.0695 -0.1635  0.2955
  262MOL0     H34525   6.006  10.312   4.680 -2.8043  0.5058 -0.0062
  262MOL0     H34526   5.990  10.488   4.675  0.4220  1.1664  1.7086
  262MOL0     H34527   5.936  10.340   4.942 -1.1026  0.0690  0.1974
  262MOL0     H34528   5.925  10.514   4.902 -6.0190 -0.7069  2.6732
  262MOL0     H34529   5.753  10.279   4.815 -3.6677  0.6516  3.7649
  262MOL0     H34530   5.766  10.422   4.722 -1.4184 -1.4309 -0.3837
  262MOL0     H34531   5.581  10.470   4.861 -1.5583 -1.0172  2.9426
  262MOL0     H34532   5.720  10.553   4.951  2.8251  0.5234 -2.4405
  262MOL0     H34533   5.564  10.293   4.982  0.9174 -2.0143  0.7711
  262MOL0     H34534   5.715  10.301   5.079  0.2502  0.6395  0.3390
  262MOL0     H34535   5.627  10.511   5.179  0.3209  0.0261 -1.9991
  262MOL0     H34536   5.528  10.357   5.219 -3.4399 -0.6240 -1.2671
  262MOL0     H34537   5.336  10.306   5.062  1.5714  0.1111  2.3260
  262MOL0     H34538   5.123  10.421   4.895 -1.7105  0.5786 -1.4022
  262MOL0     H34539   5.075  10.583   4.937  1.3169 -0.8043 -0.6157
  262MOL0     H34540   5.001  10.461   5.181  0.7107 -0.1269 -0.2446
  262MOL0     H34541   5.000  10.327   5.089 -3.5768 -0.9195 -0.9454
  262MOL0     H34542   4.865  10.483   4.903 -1.3848  1.0881 -0.0140
  262MOL0     H34543   4.778  10.398   5.028  1.2031 -1.5674 -1.9503
  262MOL0     H34544   4.725  10.623   5.003  0.2005 -0.7523  0.7920
  262MOL0     H34545   4.890  10.681   5.007  1.1808  0.4618  0.2985
  262MOL0     H34546   4.839  10.433   5.351  1.7358  2.3480 -3.5107
  262MOL0     H34547   4.660  10.303   5.457 -2.5710 -3.1894 -3.6498
  262MOL0     H34548   4.061  10.571   5.383  0.8604  1.1249  0.5580
  262MOL0     H34549   3.833  10.534   5.490 -0.3935 -0.9443 -0.6833
  262MOL0     H34550   3.798  10.260   5.843  2.0822  1.6065 -1.5201
  262MOL0     H34551   3.768  10.183   5.683  0.0633 -1.6418  0.7339
  262MOL0     H34552   3.545  10.293   5.705  0.9243  0.6871  0.0809
  262MOL0     H34553   3.576  10.309   5.885 -0.5253  0.6931  0.3055
  262MOL0     H34554   3.615  10.068   5.898 -2.3140 -1.5877  0.8341
  262MOL0     H34555   3.592  10.057   5.725  0.8095  0.2887 -0.5760
  262MOL0     H34556   3.379  10.203   5.879 -2.1753  0.1104 -0.3796
  262MOL0     H34557   3.356  10.088   5.750  0.3606  1.8398 -1.3238
  262MOL0     H34558   3.417  10.018   6.040 -1.8079 -0.0693  0.6376
  262MOL0     H34559   3.404   9.890   5.915 -0.5558  1.1249 -1.0644
  262MOL0     H34560   3.185   9.962   5.847  0.0318 -1.5768 -0.3064
  262MOL0     H34561   3.181  10.072   5.991  2.1817  0.2383  1.0987
  262MOL0     H34562   3.239   9.774   6.014  0.0026 -0.3361  0.2875
  262MOL0     H34563   3.226   9.902   6.143  0.5855  2.5518 -1.6510
  262MOL0     H34564   2.996   9.742   6.118 -2.0037  0.4734 -1.0746
  262MOL0     H34565   2.995   9.794   5.960 -1.7275 -1.0765  1.2518
  262MOL0     H34566   4.001  10.285   5.779  0.3815  3.4848  2.0228
  262MOL0     H34567   4.220  10.318   5.690  1.4910  2.2346 -1.0148
  262MOL0     H34568   4.399  10.627   5.311  0.0764 -0.2687 -0.7005
  262MOL0     H34569   4.577  10.709   5.180 -0.0395 -0.1912  1.4051
  262MOL0     H34570   6.423  10.537   4.502  0.1889 -0.7408  0.2595
  262MOL0     H34571   6.607  10.504   4.329  3.9130  0.0071  5.0301
  262MOL0     H34572   7.027  10.186   4.337 -4.0908  2.4412  1.1010
  262MOL0     H34573   7.224  10.156   4.217 -1.6776 -0.0022  1.7089
  262MOL0     H34574   7.411  10.205   4.056  0.3782  3.4751  1.6730
  262MOL0     H34575   7.342  10.353   3.980 -1.7314  0.3409 -2.0537
  262MOL0     H34576   7.549  10.295   3.882  1.0820 -1.3020 -0.2981
  262MOL0     H34577   7.495  10.129   3.855  0.0802 -0.1763  2.1250
  262MOL0     H34578   7.385  10.382   3.711 -0.3117 -0.1906 -0.9286
  262MOL0     H34579   7.312  10.221   3.699  0.1893  0.7528 -0.4540
  262MOL0     H34580   7.606  10.297   3.637  0.2946 -2.6599  3.6308
  262MOL0     H34581   7.514  10.155   3.582 -1.4432  0.6470 -2.0180
  262MOL0     H34582   7.383  10.427   3.290 -0.7000  0.4995  0.8064
  262MOL0     H34583   7.003  10.234   3.855 -1.1464 -5.6813  0.3649
  262MOL0     H34584   6.817  10.305   3.981  0.3450 -3.3185 -1.3072
  263MOL0     O34585   2.200   7.162   1.129  0.0891  0.6009  0.4577
  263MOL0     C34586   2.147   7.195   1.024  0.3611 -0.3431  1.3734
  263MOL0     O34587   2.019   7.192   0.988  0.0660 -0.3383 -0.1695
  263MOL0     C34588   1.928   7.106   1.038  0.7851 -0.3851 -0.0614
  263MOL0     C34589   1.930   7.031   1.156  0.3401  0.7528  0.9615
  263MOL0     C34590   1.819   6.958   1.199 -0.4753  0.0344  0.2711
  263MOL0     C34591   1.706   6.954   1.111  0.4251  0.6564 -0.2725
  263MOL0     O34592   1.600   6.869   1.151 -1.0016  0.0047 -0.7232
  263MOL0     C34593   1.552   6.790   1.043  0.8541  0.0002 -0.3577
  263MOL0     C34594   1.421   6.723   1.097 -0.4668  0.6101  0.0357
  263MOL0     C34595   1.293   6.812   1.074  0.5781 -0.8780 -0.1970
  263MOL0     C34596   1.169   6.735   1.117 -0.1444  1.1499  0.7951
  263MOL0     C34597   1.035   6.808   1.096 -0.2427 -0.2801 -0.4689
  263MOL0     C34598   1.015   6.919   1.197  0.4853 -0.0327  0.3481
  263MOL0     C34599   0.882   6.988   1.180 -0.0636 -0.2444  0.0639
  263MOL0     C34600   0.762   6.897   1.224 -0.3951  0.5121 -0.6281
  263MOL0     N34601   0.635   6.968   1.242  0.1863  0.3202  0.3182
  263MOL0     C34602   0.544   6.916   1.332  0.4206 -0.2383  0.4277
  263MOL0     C34603   0.433   6.996   1.325  0.1173  0.4260 -0.4304
  263MOL0     C34604   0.311   6.963   1.403  1.1584 -0.1045 -0.7041
  263MOL0     C34605   0.186   7.030   1.331 -1.0935  0.5809  1.2566
  263MOL0     C34606   0.070   7.004   1.424 -0.6465 -0.1250 -0.3575
  263MOL0     C34607  -0.060   7.047   1.355 -0.5797 -0.0083 -0.2138
  263MOL0     O34608  -0.169   6.985   1.422  0.9393  0.3273 -0.1381
  263MOL0     C34609  -0.293   7.046   1.432 -0.4508  0.4973  1.4586
  263MOL0     C34610  -0.341   7.173   1.382  0.3107 -0.2902 -0.5431
  263MOL0     C34611  -0.470   7.220   1.391 -0.2056 -0.3996 -0.4944
  263MOL0     C34612  -0.556   7.144   1.465 -0.0098 -0.5264 -0.1834
  263MOL0     C34613  -0.698   7.193   1.463  0.3857  0.0212 -0.2648
  263MOL0     O34614  -0.790   7.091   1.478 -0.0586 -0.1516 -0.2896
  263MOL0     C34615  -0.915   7.121   1.442  0.3453  0.5916  0.7339
  263MOL0     C34616  -0.987   7.223   1.499 -1.1969 -0.7309  0.3421
  263MOL0     C34617  -1.121   7.249   1.469  0.9164 -0.8911 -0.7665
  263MOL0     C34618  -1.187   7.167   1.372  0.2559  0.3309 -1.0647
  263MOL0     O34619  -1.311   7.178   1.326  0.0774  0.1521  0.1009
  263MOL0     C34620  -1.408   7.183   1.431  0.3045 -0.3567 -0.1296
  263MOL0     C34621  -1.546   7.156   1.369 -0.5195  0.2432  0.5092
  263MOL0     C34622  -1.562   6.999   1.338  0.6055 -0.2546 -0.7733
  263MOL0     C34623  -1.700   6.970   1.281  0.4096  1.1304  0.1985
  263MOL0     C34624  -1.714   6.813   1.268 -0.2155  0.4721  0.4373
  263MOL0     C34625  -1.831   6.773   1.175 -0.0900  0.5649  0.7282
  263MOL0     C34626  -1.967   6.826   1.229  0.2568 -0.8457  0.0143
  263MOL0     C34627  -2.074   6.789   1.127 -0.0019 -0.1640 -0.0696
  263MOL0    Cl34628  -2.077   6.911   0.991  0.4875  0.0913 -0.2823
  263MOL0     C34629  -1.116   7.061   1.314 -0.0783  0.1237 -0.7426
  263MOL0     C34630  -0.988   7.041   1.360  0.0499 -0.2559  0.4509
  263MOL0     O34631  -0.719   7.311   1.431  0.2084  0.3621 -0.0053
  263MOL0     C34632  -0.516   7.026   1.525 -0.4157 -0.4227 -0.2412
  263MOL0     C34633  -0.387   6.971   1.498  0.3017 -0.3529  0.7955
  263MOL0     N34634   0.451   7.087   1.221 -0.1104  0.5739  0.0998
  263MOL0     N34635   0.575   7.072   1.172  0.2052  0.5123  0.1320
  263MOL0     C34636   1.711   7.018   0.994 -0.1878  0.0774 -1.0133
  263MOL0     C34637   1.809   7.098   0.962 -0.3481  0.1629  0.0681
  263MOL0     C34638   2.242   7.251   0.927  0.7899 -1.0036 -0.6727
  263MOL0     C34639   2.215   7.267   0.792 -0.1902 -0.0040  0.6851
  263MOL0     C34640   2.320   7.310   0.702 -0.3423 -0.6791  0.4595
  263MOL0     C34641   2.445   7.353   0.748  0.6826 -0.7616  0.4255
  263MOL0     O34642   2.539   7.402   0.661  0.5825 -0.3608 -0.0187
  263MOL0     C34643   2.632   7.297   0.624  0.0604 -0.0131  0.6970
  263MOL0     C34644   2.723   7.340   0.509 -0.1332  0.6949 -0.2188
  263MOL0     C34645   2.818   7.223   0.472 -0.0673  0.6058 -1.0218
  263MOL0     C34646   2.918   7.178   0.578  0.4895 -0.0780 -0.0502
  263MOL0     C34647   2.940   7.039   0.580 -0.5357  0.8269 -0.3303
  263MOL0     C34648   2.954   6.919   0.585  0.8859 -0.0284 -0.0446
  263MOL0     C34649   2.469   7.349   0.889  0.3865 -0.0641  0.0981
  263MOL0     C34650   2.361   7.300   0.975  0.6818  0.6096 -0.6111
  263MOL0     H34651   2.019   7.017   1.217  1.1712  1.8780  0.0483
  263MOL0     H34652   1.816   6.886   1.280 -1.6320 -1.0044 -0.6493
  263MOL0     H34653   1.619   6.707   1.017  1.1101  0.2575 -0.5228
  263MOL0     H34654   1.522   6.845   0.953  1.2223  0.1706 -0.3762
  263MOL0     H34655   1.435   6.692   1.201 -1.9666  2.1516  0.7603
  263MOL0     H34656   1.396   6.629   1.048 -1.9494  0.1150  1.6197
  263MOL0     H34657   1.280   6.821   0.966 -0.6449 -2.4675 -0.2237
  263MOL0     H34658   1.300   6.909   1.123  1.4363 -0.7807 -0.4940
  263MOL0     H34659   1.176   6.648   1.051  3.2746  1.5893  0.3703
  263MOL0     H34660   1.173   6.701   1.221 -2.0684  0.2809  0.6349
  263MOL0     H34661   0.949   6.741   1.108 -0.3945 -0.0793 -0.4189
  263MOL0     H34662   1.038   6.859   0.999  3.9719  0.8303  0.0700
  263MOL0     H34663   1.100   6.983   1.170  0.7083 -0.3353  0.3314
  263MOL0     H34664   1.026   6.885   1.300  1.0826  0.2198  0.3768
  263MOL0     H34665   0.883   7.080   1.238  1.6443  2.0599 -3.3278
  263MOL0     H34666   0.864   7.015   1.076 -2.4507 -1.4426  0.0833
  263MOL0     H34667   0.783   6.857   1.324 -0.1927 -0.4581 -1.0488
  263MOL0     H34668   0.741   6.822   1.149 -0.5686 -2.7432  2.4084
  263MOL0     H34669   0.555   6.838   1.406 -0.9315  0.6453  1.6185
  263MOL0     H34670   0.331   7.001   1.504  0.0535  1.3369 -0.9971
  263MOL0     H34671   0.304   6.854   1.418 -0.1537  0.1601  0.8982
  263MOL0     H34672   0.176   6.987   1.231 -0.7378 -0.0636  1.4887
  263MOL0     H34673   0.198   7.138   1.323 -1.0801  0.5944  1.4478
  263MOL0     H34674   0.074   6.901   1.462 -0.0757 -0.2200 -0.6637
  263MOL0     H34675   0.073   7.067   1.513  2.4030 -2.2913  1.2720
  263MOL0     H34676  -0.046   7.018   1.251  1.9315  0.2812 -0.0007
  263MOL0     H34677  -0.072   7.156   1.361 -4.1036 -0.2494 -0.6698
  263MOL0     H34678  -0.276   7.231   1.317  0.4397 -0.9717 -1.0255
  263MOL0     H34679  -0.502   7.307   1.335 -0.1590 -1.9123 -3.0784
  263MOL0     H34680  -0.943   7.296   1.566 -0.0479 -0.9161 -0.1884
  263MOL0     H34681  -1.176   7.331   1.514  0.1885 -0.9345 -1.5453
  263MOL0     H34682  -1.419   7.283   1.474  1.0167  0.2002 -1.1898
  263MOL0     H34683  -1.399   7.109   1.511 -3.9629 -0.6473  0.3302
  263MOL0     H34684  -1.542   7.225   1.284  2.4796 -0.0654  0.2740
  263MOL0     H34685  -1.625   7.172   1.443 -1.2292 -0.4697 -0.0811
  263MOL0     H34686  -1.563   6.959   1.441 -0.7917 -0.2533 -0.7743
  263MOL0     H34687  -1.472   6.964   1.286  1.3353  1.8310 -1.0002
  263MOL0     H34688  -1.780   6.998   1.350 -0.0645 -1.7838  0.9699
  263MOL0     H34689  -1.724   7.017   1.185  0.7149 -1.9621 -1.5513
  263MOL0     H34690  -1.736   6.759   1.360 -3.2920  1.6703  0.5292
  263MOL0     H34691  -1.615   6.781   1.232  0.3621  2.9493 -0.4038
  263MOL0     H34692  -1.833   6.664   1.169 -0.6224  0.5901  0.4168
  263MOL0     H34693  -1.815   6.812   1.074 -0.0903  2.0097  1.2584
  263MOL0     H34694  -1.987   6.776   1.324  1.3476 -1.3390 -0.0060
  263MOL0     H34695  -1.983   6.934   1.236 -2.2075 -1.0066 -1.6832
  263MOL0     H34696  -2.172   6.792   1.176  0.1172  5.1939  0.4304
  263MOL0     H34697  -2.045   6.696   1.078  2.1200  0.0802  0.6500
  263MOL0     H34698  -1.174   6.988   1.258 -2.5459  0.6081  1.0057
  263MOL0     H34699  -0.939   6.957   1.312 -0.6075  0.5801 -1.8218
  263MOL0     H34700  -0.570   6.960   1.591  1.8362 -2.7096 -0.5162
  263MOL0     H34701  -0.352   6.882   1.550  0.2038 -0.8583  0.0084
  263MOL0     H34702   1.619   7.023   0.935  0.9252  2.7819 -2.6906
  263MOL0     H34703   1.812   7.147   0.865 -0.0484 -1.6966 -0.9032
  263MOL0     H34704   2.114   7.251   0.756  0.6106  1.0499 -2.3847
  263MOL0     H34705   2.296   7.301   0.596 -0.2446  0.8644  0.2809
  263MOL0     H34706   2.593   7.198   0.600 -0.3701  0.2523  0.2725
  263MOL0     H34707   2.688   7.271   0.714  1.4619 -0.0754 -0.1466
  263MOL0     H34708   2.653   7.360   0.428 -0.2578  0.4948 -0.1607
  263MOL0     H34709   2.767   7.433   0.547  0.1864  0.0832  0.9633
  263MOL0     H34710   2.867   7.249   0.378 -0.3216  2.1212 -0.7651
  263MOL0     H34711   2.754   7.136   0.457 -0.6181  0.7035  0.5371
  263MOL0     H34712   3.005   7.231   0.536 -0.0666 -0.2992 -1.5318
  263MOL0     H34713   2.886   7.207   0.679 -1.2316  0.7506 -0.8028
  263MOL0     H34714   2.946   6.812   0.589  0.0378 -0.0576 -1.6908
  263MOL0     H34715   2.561   7.374   0.941  0.1565 -0.4132  0.6797
  263MOL0     H34716   2.386   7.290   1.080 -0.4835 -0.8543 -0.4438
  264MOL0     O34717   0.974   2.183   8.092  0.7199  0.0386  0.0085
  264MOL0     C34718   0.992   2.064   8.072  0.3467  0.5470  0.2947
  264MOL0     O34719   0.894   1.976   8.043 -0.1079 -0.9977  0.0013
  264MOL0     C34720   0.767   2.025   8.047  0.1894  0.5632 -0.4447
  264MOL0     C34721   0.681   1.931   8.106 -0.0537 -1.0071 -1.0137
  264MOL0     C34722   0.546   1.974   8.131 -0.1546  0.7437 -0.1440
  264MOL0     C34723   0.495   2.093   8.080 -0.6191  0.0006 -0.2478
  264MOL0     O34724   0.365   2.116   8.100 -0.6231 -0.2955 -0.0476
  264MOL0     C34725   0.314   2.245   8.068 -0.2722  0.3425 -0.0280
  264MOL0     C34726   0.159   2.269   8.071  0.4202  0.1096  0.5585
  264MOL0     C34727   0.083   2.176   7.969  1.8844 -0.4695  0.5501
  264MOL0     C34728  -0.061   2.224   7.944 -0.0826  0.8119 -0.2639
  264MOL0     C34729  -0.159   2.200   8.062 -0.4436 -0.2779 -0.2477
  264MOL0     C34730  -0.295   2.143   8.034  0.1800 -0.6313  0.4633
  264MOL0     C34731  -0.364   2.192   7.896 -0.3242 -0.2540 -0.2335
  264MOL0     C34732  -0.520   2.194   7.902  1.5102 -0.1563 -0.3513
  264MOL0     N34733  -0.566   2.064   7.954  0.5483  0.3481 -0.3278
  264MOL0     C34734  -0.533   1.940   7.908  0.9264  0.3917  0.4267
  264MOL0     C34735  -0.589   1.862   8.010 -0.3677  0.3657  0.0998
  264MOL0     C34736  -0.605   1.714   7.994 -0.1524  0.3252 -0.1398
  264MOL0     C34737  -0.478   1.647   7.946 -0.3566 -0.0836 -0.7932
  264MOL0     C34738  -0.462   1.597   7.807 -0.0283  0.0570  0.3739
  264MOL0     C34739  -0.355   1.495   7.787  0.2114  0.9803  0.1351
  264MOL0     O34740  -0.225   1.532   7.822  0.0235  0.4364 -0.2397
  264MOL0     C34741  -0.131   1.431   7.840  0.2431  0.3664  0.0244
  264MOL0     C34742  -0.028   1.465   7.923  0.4029  0.7425 -0.9910
  264MOL0     C34743   0.087   1.384   7.920 -0.6285  0.0489 -1.0836
  264MOL0     C34744   0.085   1.257   7.866  1.1464 -1.1944 -0.1181
  264MOL0     C34745   0.194   1.162   7.880 -0.2867  0.3896  0.2994
  264MOL0     O34746   0.291   1.191   7.973 -0.0327  0.0611  0.1848
  264MOL0     C34747   0.408   1.124   8.005 -0.1249  0.9634 -0.6058
  264MOL0     C34748   0.442   1.116   8.144  0.7447 -1.1773 -0.3176
  264MOL0     C34749   0.547   1.042   8.187  0.0286  0.7554 -0.8411
  264MOL0     C34750   0.634   0.994   8.094  1.7506 -0.5118 -0.0388
  264MOL0     O34751   0.748   0.923   8.114 -0.4633 -0.7728  0.4188
  264MOL0     C34752   0.836   0.981   8.208 -0.2505 -0.5454 -0.6023
  264MOL0     C34753   0.971   0.906   8.223 -0.6983  0.6669  0.3756
  264MOL0     C34754   1.085   0.934   8.116  0.7541  0.8823  0.3499
  264MOL0     C34755   1.040   0.914   7.965 -0.8074 -0.1212 -1.1979
  264MOL0     C34756   1.138   0.981   7.866 -0.2911  0.2086  0.1803
  264MOL0     C34757   1.283   0.920   7.872  0.3203 -0.9745  0.4069
  264MOL0     C34758   1.281   0.770   7.840  0.5068 -0.8212  0.0094
  264MOL0     C34759   1.418   0.732   7.810 -0.1943 -0.4591  0.2595
  264MOL0    Cl34760   1.507   0.699   7.959 -0.2570  0.3836 -0.1934
  264MOL0     C34761   0.606   0.993   7.959 -0.2522 -0.5470 -0.3568
  264MOL0     C34762   0.495   1.066   7.911  0.0747 -0.2674 -0.5668
  264MOL0     O34763   0.206   1.075   7.794  0.5046  0.0589 -0.0657
  264MOL0     C34764  -0.036   1.217   7.801  0.2798 -0.2732 -0.0755
  264MOL0     C34765  -0.143   1.304   7.771 -1.0557 -0.1005  0.0877
  264MOL0     N34766  -0.637   1.933   8.111 -0.3260 -0.6304 -0.0489
  264MOL0     N34767  -0.631   2.056   8.072  0.1983  0.4010  0.3642
  264MOL0     C34768   0.583   2.174   8.018  0.2460  0.5640  0.5991
  264MOL0     C34769   0.720   2.144   7.998  0.3847 -0.0953 -0.1750
  264MOL0     C34770   1.130   2.004   8.080  0.5467  1.5822  0.3068
  264MOL0     C34771   1.246   2.082   8.059 -0.9711 -0.7831 -0.5398
  264MOL0     C34772   1.370   2.022   8.061  0.2348  0.6711  0.2615
  264MOL0     C34773   1.389   1.891   8.085  0.0897 -0.8955  0.5063
  264MOL0     O34774   1.513   1.836   8.103 -0.0913 -0.2290 -0.2308
  264MOL0     C34775   1.538   1.780   8.233 -0.5171  0.4168 -0.7515
  264MOL0     C34776   1.689   1.820   8.269  0.6822  0.7194  0.9053
  264MOL0     C34777   1.788   1.746   8.174  0.2048  0.2713 -0.6361
  264MOL0     C34778   1.928   1.733   8.231 -0.3591  0.4063 -1.0143
  264MOL0     C34779   1.978   1.871   8.238 -0.0940  0.1470  0.3895
  264MOL0     C34780   2.033   1.975   8.263  0.0559  0.9392  0.9607
  264MOL0     C34781   1.273   1.809   8.099 -0.6290 -0.2038 -0.0624
  264MOL0     C34782   1.145   1.863   8.105  0.1885 -0.5157  0.6219
  264MOL0     H34783   0.714   1.832   8.135  1.4506 -0.5110 -0.8992
  264MOL0     H34784   0.477   1.901   8.171  2.2885 -0.0038  3.0915
  264MOL0     H34785   0.351   2.263   7.966  0.2334 -0.1284  0.0671
  264MOL0     H34786   0.359   2.320   8.134  0.7615 -1.8029  1.8430
  264MOL0     H34787   0.151   2.377   8.054  1.6054  0.2131  0.5662
  264MOL0     H34788   0.118   2.242   8.169 -1.2618 -2.8196 -0.8205
  264MOL0     H34789   0.086   2.074   8.009  1.3218 -1.7028 -2.3414
  264MOL0     H34790   0.145   2.171   7.879  4.4035  1.7854  2.0093
  264MOL0     H34791  -0.069   2.332   7.929 -1.1357  0.8830  0.6438
  264MOL0     H34792  -0.092   2.171   7.853 -1.9363  0.4583  0.5184
  264MOL0     H34793  -0.174   2.295   8.114  1.5948  0.7010 -1.3057
  264MOL0     H34794  -0.111   2.132   8.134  1.0567 -0.6225 -1.5157
  264MOL0     H34795  -0.349   2.163   8.127 -0.8260 -0.2380 -0.1893
  264MOL0     H34796  -0.294   2.035   8.016  2.8502 -0.7087  0.7072
  264MOL0     H34797  -0.334   2.295   7.871 -0.6816  0.1590  0.9683
  264MOL0     H34798  -0.319   2.128   7.820  1.0945 -0.4091  0.6902
  264MOL0     H34799  -0.559   2.218   7.803 -0.2583  4.0558  1.1186
  264MOL0     H34800  -0.572   2.276   7.953 -0.3009 -1.3643 -0.1725
  264MOL0     H34801  -0.484   1.917   7.814 -1.0984  1.1370 -0.8890
  264MOL0     H34802  -0.692   1.700   7.929  0.2248 -0.8367 -0.4070
  264MOL0     H34803  -0.633   1.680   8.094 -0.4746  1.9562  0.3547
  264MOL0     H34804  -0.463   1.559   8.010 -0.4435 -0.4242 -1.2447
  264MOL0     H34805  -0.389   1.707   7.969 -0.5651 -0.0754  0.0403
  264MOL0     H34806  -0.553   1.545   7.774 -2.0358  2.4582  1.8152
  264MOL0     H34807  -0.464   1.679   7.735 -0.0858 -0.4879 -0.2562
  264MOL0     H34808  -0.340   1.466   7.683  0.7964  1.8669 -0.0350
  264MOL0     H34809  -0.384   1.412   7.852  0.3376 -0.7323 -1.8915
  264MOL0     H34810  -0.024   1.569   7.956  1.3180  0.8712 -1.4783
  264MOL0     H34811   0.174   1.415   7.976 -1.3280  1.6140 -0.8255
  264MOL0     H34812   0.376   1.163   8.216  3.0500  2.8215 -0.5421
  264MOL0     H34813   0.544   1.002   8.288 -0.7647 -4.2429 -2.5327
  264MOL0     H34814   0.797   0.966   8.309  1.8000  1.5411  0.6048
  264MOL0     H34815   0.857   1.086   8.183 -3.1804  0.1838 -0.3743
  264MOL0     H34816   0.946   0.800   8.232  0.7703  0.3810  1.6295
  264MOL0     H34817   1.032   0.924   8.312 -0.5328 -0.7047  0.5591
  264MOL0     H34818   1.173   0.871   8.130  1.4724  1.4770 -1.2132
  264MOL0     H34819   1.120   1.038   8.128  2.1718  0.2266  2.5569
  264MOL0     H34820   1.034   0.807   7.943 -1.8241 -0.4208  0.4006
  264MOL0     H34821   0.940   0.955   7.947 -1.3103 -0.4215  0.6916
  264MOL0     H34822   1.147   1.088   7.886  0.2192  0.5477 -1.7016
  264MOL0     H34823   1.092   0.969   7.768  0.6679  1.7601 -0.5014
  264MOL0     H34824   1.332   0.953   7.964 -1.8748  6.3908 -0.4361
  264MOL0     H34825   1.348   0.972   7.800  0.8511 -0.7059  1.0668
  264MOL0     H34826   1.262   0.721   7.936  1.7994  4.8338  3.6528
  264MOL0     H34827   1.220   0.751   7.751  1.2204 -1.3389 -0.3677
  264MOL0     H34828   1.464   0.810   7.747  1.1352 -0.6788  0.9315
  264MOL0     H34829   1.431   0.640   7.753  1.2021  0.8020 -1.5992
  264MOL0     H34830   0.674   0.945   7.889  0.4004 -0.8470  0.4636
  264MOL0     H34831   0.491   1.065   7.803  1.8730 -1.4586 -0.6617
  264MOL0     H34832  -0.040   1.119   7.754  2.6756  0.3204 -1.7169
  264MOL0     H34833  -0.224   1.279   7.703  2.0332  0.3916 -4.1764
  264MOL0     H34834   0.548   2.262   7.965 -1.2086 -1.3981 -1.9458
  264MOL0     H34835   0.783   2.221   7.955 -1.3224  0.5237 -1.6735
  264MOL0     H34836   1.238   2.187   8.033  1.7919 -0.3607 -0.0175
  264MOL0     H34837   1.453   2.092   8.057 -0.1300  1.0816 -0.4167
  264MOL0     H34838   1.533   1.671   8.238 -0.9224  0.4264 -0.8678
  264MOL0     H34839   1.472   1.830   8.306 -1.9213 -0.2862 -1.4950
  264MOL0     H34840   1.701   1.929   8.261  3.0617  0.4489 -0.1705
  264MOL0     H34841   1.698   1.795   8.375  2.0193 -0.5980  0.5072
  264MOL0     H34842   1.788   1.807   8.083  0.8880  0.5792 -0.4398
  264MOL0     H34843   1.743   1.650   8.148 -0.0465 -0.1865  1.3121
  264MOL0     H34844   1.922   1.687   8.330 -1.8886 -1.0291 -1.7245
  264MOL0     H34845   1.987   1.679   8.156 -1.0937  1.5010 -2.4309
  264MOL0     H34846   2.065   2.072   8.295  0.1934  0.5996  1.8926
  264MOL0     H34847   1.290   1.702   8.105  2.1107 -0.2084 -3.7131
  264MOL0     H34848   1.061   1.809   8.147 -1.9816  1.9913 -0.1906
  265MOL0     O34849   6.724   3.790   1.646 -0.3029  1.2014  0.8839
  265MOL0     C34850   6.780   3.816   1.752 -0.1795 -0.5397  0.2635
  265MOL0     O34851   6.723   3.870   1.865  0.2123  0.6484 -0.0223
  265MOL0     C34852   6.597   3.900   1.845  0.2069  0.6468  0.9050
  265MOL0     C34853   6.577   4.025   1.788  0.2603  0.1831 -0.6018
  265MOL0     C34854   6.440   4.075   1.775  0.3031 -0.1676 -0.3015
  265MOL0     C34855   6.335   3.997   1.830 -0.0473 -0.2545  0.3228
  265MOL0     O34856   6.211   4.067   1.830  0.1844 -0.2350  0.2976
  265MOL0     C34857   6.092   4.008   1.889 -0.4202 -0.4021 -0.9274
  265MOL0     C34858   5.966   4.064   1.821 -0.1375  0.4776  0.5949
  265MOL0     C34859   5.921   3.967   1.711  1.4907 -0.4218  0.3049
  265MOL0     C34860   5.878   3.818   1.746 -0.2313  0.1160 -0.2750
  265MOL0     C34861   5.748   3.769   1.683 -0.2651 -0.3974  0.0025
  265MOL0     C34862   5.688   3.656   1.768 -0.6376 -0.6272  0.2221
  265MOL0     C34863   5.563   3.619   1.694  0.4419 -0.1497  1.3287
  265MOL0     C34864   5.504   3.482   1.746  0.0186 -0.8898  0.4356
  265MOL0     N34865   5.457   3.478   1.881  0.3094 -1.1844 -0.2528
  265MOL0     C34866   5.351   3.541   1.941 -0.0072  0.3473 -0.5865
  265MOL0     C34867   5.345   3.492   2.072  0.1677 -0.9206 -0.1699
  265MOL0     C34868   5.268   3.524   2.198 -0.5386  0.6021  0.0056
  265MOL0     C34869   5.128   3.584   2.161 -0.2963 -0.3436 -0.9238
  265MOL0     C34870   5.038   3.475   2.101  0.3156  0.5303  0.6217
  265MOL0     C34871   4.896   3.537   2.077  0.1423 -0.9622 -0.7381
  265MOL0     O34872   4.815   3.427   2.040 -0.2038  0.7149  0.1091
  265MOL0     C34873   4.689   3.474   2.010 -0.2002 -0.1456 -0.6173
  265MOL0     C34874   4.620   3.592   2.059 -0.3679  0.4796 -2.0285
  265MOL0     C34875   4.486   3.617   2.030 -0.7989  0.0175 -1.3114
  265MOL0     C34876   4.409   3.519   1.968  0.0832  0.4633  0.3832
  265MOL0     C34877   4.277   3.551   1.920 -0.1161 -0.0357 -1.3456
  265MOL0     O34878   4.214   3.644   1.992 -0.3071 -0.1882  0.5729
  265MOL0     C34879   4.082   3.666   1.998 -0.6361  0.6217  0.8769
  265MOL0     C34880   3.982   3.568   1.966  0.1865 -0.0728  0.2653
  265MOL0     C34881   3.849   3.605   1.987  0.6501  0.4700 -0.5593
  265MOL0     C34882   3.816   3.723   2.046 -0.8213 -0.1687 -0.3409
  265MOL0     O34883   3.692   3.756   2.089  0.3793  0.0459  0.1747
  265MOL0     C34884   3.573   3.707   2.020 -0.4450  0.0517  0.9919
  265MOL0     C34885   3.545   3.766   1.886  0.3060  0.0408 -0.0114
  265MOL0     C34886   3.504   3.909   1.917 -0.0456  0.2583 -0.0264
  265MOL0     C34887   3.429   3.970   1.794 -1.1060  0.8209  0.2213
  265MOL0     C34888   3.357   4.099   1.820 -0.6357  0.7602 -1.4621
  265MOL0     C34889   3.453   4.220   1.806  0.1501  0.4623 -0.2136
  265MOL0     C34890   3.396   4.352   1.855  0.2960 -0.5478 -1.0464
  265MOL0     C34891   3.512   4.455   1.852 -0.1356  0.5688  0.5867
  265MOL0    Cl34892   3.558   4.510   1.690 -0.7627 -0.1023  0.2169
  265MOL0     C34893   3.920   3.811   2.071  0.1977  0.1718 -0.3509
  265MOL0     C34894   4.051   3.787   2.038  0.2545  1.2137 -0.4082
  265MOL0     O34895   4.222   3.470   1.844  0.3143 -0.1465 -0.3411
  265MOL0     C34896   4.472   3.399   1.930  0.3857  0.4156  0.6683
  265MOL0     C34897   4.610   3.375   1.947  0.2617 -0.1622 -0.1837
  265MOL0     N34898   5.435   3.387   2.089  0.2406 -0.6207  0.6500
  265MOL0     N34899   5.499   3.387   1.974  0.7095  0.1460 -0.3902
  265MOL0     C34900   6.362   3.865   1.878 -0.1906 -0.7355  0.6787
  265MOL0     C34901   6.493   3.818   1.883 -0.1370  0.7843 -0.3056
  265MOL0     C34902   6.925   3.793   1.762  0.2203 -0.5500  0.2594
  265MOL0     C34903   6.994   3.721   1.659 -0.3141  0.4731 -0.2152
  265MOL0     C34904   7.134   3.700   1.681  0.3107 -0.1134 -0.3483
  265MOL0     C34905   7.198   3.726   1.802  0.5279 -0.1631 -0.4187
  265MOL0     O34906   7.328   3.699   1.842  0.0954 -0.1553  0.3710
  265MOL0     C34907   7.415   3.647   1.741 -0.0769  0.2195 -0.3677
  265MOL0     C34908   7.530   3.578   1.819 -0.1481 -0.4792  0.7404
  265MOL0     C34909   7.603   3.681   1.914 -0.6373 -0.1473 -0.2014
  265MOL0     C34910   7.632   3.613   2.048  0.2604  0.1321 -1.1929
  265MOL0     C34911   7.719   3.710   2.127  0.2821  0.1310  0.4351
  265MOL0     C34912   7.767   3.779   2.211 -0.1135 -0.1117 -0.2783
  265MOL0     C34913   7.119   3.783   1.902 -0.8810  0.0230 -0.4053
  265MOL0     C34914   6.988   3.823   1.881 -0.9081 -0.7863  0.9297
  265MOL0     H34915   6.660   4.086   1.752 -0.2912  0.1751 -1.9540
  265MOL0     H34916   6.419   4.173   1.735 -2.2050  0.3590  2.0134
  265MOL0     H34917   6.087   4.040   1.993  1.8694 -0.4949 -0.7373
  265MOL0     H34918   6.088   3.899   1.898 -2.1042 -0.2038  1.6467
  265MOL0     H34919   5.977   4.166   1.783  0.6653  0.6575  1.2853
  265MOL0     H34920   5.895   4.061   1.905 -1.9466 -0.2688 -0.8908
  265MOL0     H34921   6.001   3.961   1.636 -0.0971  1.1343 -1.6302
  265MOL0     H34922   5.844   4.020   1.655  1.4776 -0.9829 -0.2217
  265MOL0     H34923   5.955   3.744   1.723 -0.3952 -0.4327  0.8289
  265MOL0     H34924   5.870   3.810   1.855  1.0740 -2.4141 -0.2845
  265MOL0     H34925   5.767   3.725   1.584 -2.0668 -2.7976  0.6510
  265MOL0     H34926   5.679   3.852   1.663  3.5405  2.3345 -3.9406
  265MOL0     H34927   5.668   3.671   1.875  0.9430 -2.9452  0.9265
  265MOL0     H34928   5.764   3.577   1.775 -1.1423 -1.0962  0.4403
  265MOL0     H34929   5.488   3.697   1.712 -2.4148 -2.5901  0.8751
  265MOL0     H34930   5.581   3.611   1.587  0.5423 -1.3433  1.4128
  265MOL0     H34931   5.579   3.405   1.725 -1.4427 -2.5481  1.0339
  265MOL0     H34932   5.428   3.452   1.673  1.5209  0.7609 -1.9760
  265MOL0     H34933   5.301   3.630   1.903  2.6616  0.5399 -4.2072
  265MOL0     H34934   5.321   3.603   2.253  0.3843  1.8593 -2.5489
  265MOL0     H34935   5.262   3.436   2.262  0.1263  0.1124 -0.5863
  265MOL0     H34936   5.138   3.661   2.084  1.6538 -0.2334 -0.6178
  265MOL0     H34937   5.075   3.622   2.249 -0.3655  1.1067 -1.5660
  265MOL0     H34938   5.075   3.437   2.005  0.3624  2.6767 -0.2791
  265MOL0     H34939   5.020   3.398   2.176 -0.6028 -0.7240 -0.8253
  265MOL0     H34940   4.889   3.617   2.002  0.0586 -1.8040 -1.6518
  265MOL0     H34941   4.858   3.580   2.170 -0.4292 -2.4488 -0.2535
  265MOL0     H34942   4.657   3.661   2.134 -1.7608  0.3975 -1.2270
  265MOL0     H34943   4.437   3.701   2.077 -0.6398 -0.1802 -0.7841
  265MOL0     H34944   4.005   3.472   1.920 -3.8229 -0.5005 -1.2036
  265MOL0     H34945   3.758   3.547   1.976  0.3564  0.3506  1.9657
  265MOL0     H34946   3.487   3.725   2.086  0.4835  1.2392  1.9364
  265MOL0     H34947   3.574   3.601   1.996  1.0077  0.6958 -2.2751
  265MOL0     H34948   3.471   3.705   1.834 -1.7811  0.2896  2.4532
  265MOL0     H34949   3.638   3.767   1.829  1.6125  2.2469  1.9969
  265MOL0     H34950   3.597   3.962   1.943 -0.3718  1.6634 -1.5443
  265MOL0     H34951   3.440   3.909   2.005 -0.3422 -1.4950 -0.2126
  265MOL0     H34952   3.495   3.990   1.708 -2.2878  0.0210 -0.9011
  265MOL0     H34953   3.365   3.890   1.758 -1.1267  1.9201 -2.4859
  265MOL0     H34954   3.310   4.083   1.917 -0.9267 -0.8706 -1.8488
  265MOL0     H34955   3.278   4.111   1.746 -0.5685 -1.7434 -2.0201
  265MOL0     H34956   3.502   4.229   1.708 -0.9551 -2.0230 -1.0664
  265MOL0     H34957   3.540   4.192   1.866  0.7831  0.3263 -1.1729
  265MOL0     H34958   3.317   4.387   1.789  0.8919  0.7252 -1.1131
  265MOL0     H34959   3.354   4.340   1.955  0.4740  0.4198 -0.8455
  265MOL0     H34960   3.597   4.436   1.917 -0.0403  1.6759  0.8101
  265MOL0     H34961   3.467   4.546   1.893 -1.2604 -0.4421  1.6924
  265MOL0     H34962   3.905   3.905   2.123  0.8287  0.6964 -1.0794
  265MOL0     H34963   4.129   3.862   2.046  1.0011  0.3933  0.2339
  265MOL0     H34964   4.414   3.328   1.872  2.3259 -1.4642  0.8920
  265MOL0     H34965   4.655   3.285   1.907  0.2372 -0.0385 -0.4952
  265MOL0     H34966   6.296   3.797   1.930 -0.9128 -0.1272  0.5818
  265MOL0     H34967   6.510   3.725   1.936  0.8778  2.1839  1.9868
  265MOL0     H34968   6.943   3.684   1.571 -2.1277  0.2509  0.8596
  265MOL0     H34969   7.189   3.654   1.600 -0.6001  0.9090 -1.5939
  265MOL0     H34970   7.448   3.725   1.671  0.4503  1.1438  0.8701
  265MOL0     H34971   7.363   3.571   1.682  1.6539 -1.3131 -0.0266
  265MOL0     H34972   7.492   3.487   1.867  1.1189 -3.5810 -3.5448
  265MOL0     H34973   7.600   3.536   1.746  2.5418 -2.0244  3.9831
  265MOL0     H34974   7.535   3.766   1.923  2.6324  2.8730 -1.6383
  265MOL0     H34975   7.694   3.725   1.872  0.4501  0.5656  2.6806
  265MOL0     H34976   7.542   3.585   2.104  2.9271 -3.5739  1.7378
  265MOL0     H34977   7.697   3.528   2.025  1.2524  1.5005 -3.9114
  265MOL0     H34978   7.816   3.831   2.290  0.6037  0.4314 -1.0698
  265MOL0     H34979   7.156   3.796   2.003 -3.3926 -1.6414  0.8072
  265MOL0     H34980   6.943   3.881   1.962  0.4658 -1.1563  1.9815
  266MOL0     O34981   1.982   2.221   6.133 -0.2122  0.2305 -0.0354
  266MOL0     C34982   2.001   2.103   6.174  0.4722  0.1100 -0.3855
  266MOL0     O34983   1.912   2.019   6.231 -0.2261 -0.1380  0.2955
  266MOL0     C34984   1.783   2.046   6.246  0.9582  0.0929 -0.5416
  266MOL0     C34985   1.706   2.123   6.163  0.5588 -0.2233 -0.0878
  266MOL0     C34986   1.569   2.146   6.195  0.6466 -0.4750 -0.0766
  266MOL0     C34987   1.521   2.089   6.308  0.5314 -0.2357  0.1270
  266MOL0     O34988   1.390   2.084   6.323  0.3218  0.0948  0.4276
  266MOL0     C34989   1.333   2.207   6.365  0.8686  1.3815  0.0597
  266MOL0     C34990   1.174   2.178   6.391 -0.8615 -0.9672 -0.4358
  266MOL0     C34991   1.106   2.152   6.255  0.2457  0.6788  0.5428
  266MOL0     C34992   0.987   2.062   6.274  0.4917 -0.9049 -0.1148
  266MOL0     C34993   0.923   2.012   6.144  0.2205  0.7373  0.0724
  266MOL0     C34994   0.884   2.109   6.043  0.4516  0.4775 -0.3783
  266MOL0     C34995   0.829   2.031   5.916  0.1890  0.0590  0.4681
  266MOL0     C34996   0.755   2.132   5.828  0.3260  0.5022  0.1076
  266MOL0     N34997   0.672   2.063   5.736 -0.4510 -0.6804 -0.2240
  266MOL0     C34998   0.539   2.039   5.758  0.2860  0.6351 -0.6621
  266MOL0     C34999   0.508   1.958   5.653 -0.3174 -0.1289 -0.1055
  266MOL0     C35000   0.385   1.876   5.625  0.8400  0.5754  1.1304
  266MOL0     C35001   0.410   1.776   5.508 -0.3421 -0.1794 -0.1586
  266MOL0     C35002   0.289   1.678   5.482  0.7608  0.1974 -0.1981
  266MOL0     C35003   0.330   1.565   5.385  0.1947  0.2513 -0.5167
  266MOL0     O35004   0.406   1.450   5.441  0.3488 -0.2814 -0.4040
  266MOL0     C35005   0.394   1.335   5.373  1.5827 -0.2755  0.2229
  266MOL0     C35006   0.350   1.216   5.437  0.2240 -0.3851 -0.2491
  266MOL0     C35007   0.348   1.096   5.370  0.7674 -0.1750  0.1871
  266MOL0     C35008   0.371   1.092   5.231  0.2637 -1.0155  0.4791
  266MOL0     C35009   0.381   0.959   5.164  0.3885  0.4781  0.4490
  266MOL0     O35010   0.392   0.850   5.246  0.5073 -0.9102 -0.3752
  266MOL0     C35011   0.396   0.718   5.204  0.7322  0.6095 -0.0255
  266MOL0     C35012   0.357   0.673   5.077 -0.2066 -0.8082 -0.3049
  266MOL0     C35013   0.356   0.532   5.050 -0.5609 -0.7610 -0.6364
  266MOL0     C35014   0.414   0.440   5.135  0.0605  0.3323  1.4070
  266MOL0     O35015   0.408   0.301   5.103  0.2555  0.3120 -0.6445
  266MOL0     C35016   0.307   0.236   5.193 -0.4581  0.6818 -0.1590
  266MOL0     C35017   0.179   0.231   5.117 -0.0274 -0.0286  0.3599
  266MOL0     C35018   0.052   0.199   5.196  0.6903  0.1704 -0.3363
  266MOL0     C35019  -0.065   0.217   5.100  1.2102  0.0258  0.5365
  266MOL0     C35020  -0.207   0.166   5.147 -0.3594  0.0157  0.9065
  266MOL0     C35021  -0.231   0.232   5.289  0.0772  0.2052 -1.0806
  266MOL0     C35022  -0.365   0.202   5.343 -0.4657  0.0800  0.6689
  266MOL0     C35023  -0.385   0.251   5.485  0.9880  0.4725  0.0798
  266MOL0    Cl35024  -0.400   0.435   5.499  0.0195 -0.1580  0.0663
  266MOL0     C35025   0.446   0.482   5.267 -0.0688  0.2512  0.1674
  266MOL0     C35026   0.441   0.619   5.301 -0.0784  1.6322  0.2075
  266MOL0     O35027   0.405   0.961   5.047  0.1581  0.0104  1.1369
  266MOL0     C35028   0.405   1.207   5.162 -0.3244  0.5152  0.2267
  266MOL0     C35029   0.428   1.329   5.230  0.4008  0.5391 -0.3017
  266MOL0     N35030   0.620   1.958   5.565  0.3643  0.0948  0.5885
  266MOL0     N35031   0.713   2.024   5.616  0.2594 -0.3407 -0.0008
  266MOL0     C35032   1.600   2.008   6.385  0.8200  0.0187  0.2174
  266MOL0     C35033   1.737   1.988   6.359 -0.5953 -0.6284 -0.6659
  266MOL0     C35034   2.133   2.053   6.154 -0.8984 -0.5078 -0.3662
  266MOL0     C35035   2.192   1.957   6.243 -0.5042  0.8553 -0.0023
  266MOL0     C35036   2.319   1.917   6.218 -0.1199  0.3313 -0.9791
  266MOL0     C35037   2.395   1.959   6.117  0.1948  0.0187  0.6036
  266MOL0     O35038   2.520   1.900   6.112 -0.3046 -0.4900 -0.1208
  266MOL0     C35039   2.631   1.957   6.034  0.0202 -1.1261  0.0214
  266MOL0     C35040   2.761   1.907   6.086 -1.0771  0.8767 -0.6292
  266MOL0     C35041   2.782   1.759   6.069  0.5629  0.1378  0.6429
  266MOL0     C35042   2.927   1.726   6.092  0.1255  0.1629  0.7820
  266MOL0     C35043   2.977   1.769   6.224  0.3888 -0.9552  0.0986
  266MOL0     C35044   3.031   1.793   6.327  0.4150 -0.0812 -0.5769
  266MOL0     C35045   2.343   2.055   6.028 -0.2788 -0.8215 -0.4863
  266MOL0     C35046   2.216   2.102   6.051 -0.6026  0.9993 -0.1410
  266MOL0     H35047   1.737   2.177   6.073 -2.5166 -0.6168 -1.5373
  266MOL0     H35048   1.500   2.198   6.129 -1.0312 -1.9419  0.4324
  266MOL0     H35049   1.336   2.280   6.284  0.4110 -2.0412 -3.3512
  266MOL0     H35050   1.374   2.246   6.459  0.1824  0.6827  0.6677
  266MOL0     H35051   1.133   2.269   6.435 -0.8337 -1.5002  0.7507
  266MOL0     H35052   1.162   2.097   6.464  2.3666 -0.4609  0.8044
  266MOL0     H35053   1.168   2.087   6.192 -2.8775 -1.9805 -0.0669
  266MOL0     H35054   1.084   2.243   6.200 -2.1229  1.4906  2.6158
  266MOL0     H35055   1.021   1.965   6.312  0.9696 -1.4871 -1.9090
  266MOL0     H35056   0.910   2.121   6.324  0.3555 -0.7055 -0.5519
  266MOL0     H35057   0.837   1.948   6.163  2.8211 -3.6913 -1.5288
  266MOL0     H35058   0.991   1.938   6.100  0.0866 -0.6967  2.1483
  266MOL0     H35059   0.968   2.170   6.008 -0.5520  0.5885 -2.8226
  266MOL0     H35060   0.813   2.175   6.092 -1.0601  0.9795 -3.0311
  266MOL0     H35061   0.907   1.979   5.860 -0.7310  1.9872 -2.8191
  266MOL0     H35062   0.749   1.966   5.952  0.5138 -0.2816  0.5803
  266MOL0     H35063   0.828   2.184   5.765  0.4756 -1.6615 -1.6132
  266MOL0     H35064   0.693   2.203   5.884 -1.3227 -0.8831  0.0837
  266MOL0     H35065   0.474   2.067   5.840  0.7255  0.7654 -0.3563
  266MOL0     H35066   0.306   1.937   5.580  2.0152 -0.0951 -2.0688
  266MOL0     H35067   0.340   1.829   5.713 -1.2054 -1.7404 -0.9790
  266MOL0     H35068   0.496   1.715   5.537 -1.1760 -2.1749 -1.6283
  266MOL0     H35069   0.428   1.828   5.414 -1.4911  1.6737  0.5932
  266MOL0     H35070   0.247   1.620   5.564 -3.2651 -0.7706 -2.6471
  266MOL0     H35071   0.214   1.745   5.438  0.6658 -0.2738 -0.7814
  266MOL0     H35072   0.391   1.602   5.302 -0.3258 -2.3925 -2.2180
  266MOL0     H35073   0.237   1.524   5.344 -0.6040  0.8364  0.6513
  266MOL0     H35074   0.314   1.224   5.539  0.0104  0.9111 -0.4193
  266MOL0     H35075   0.330   1.006   5.427  2.9307 -0.6662  0.1838
  266MOL0     H35076   0.355   0.745   4.996  0.1760  1.4754  1.6086
  266MOL0     H35077   0.328   0.505   4.948 -2.3785 -0.4954 -0.2364
  266MOL0     H35078   0.283   0.279   5.290 -3.2700 -1.2502  0.1345
  266MOL0     H35079   0.344   0.135   5.213 -1.3938  0.2475 -0.5319
  266MOL0     H35080   0.181   0.154   5.039  1.1795 -1.2621  1.5511
  266MOL0     H35081   0.172   0.324   5.060  0.1663 -0.7279 -0.8404
  266MOL0     H35082   0.045   0.274   5.276  1.0871 -1.3993  1.2161
  266MOL0     H35083   0.055   0.099   5.241 -0.9035 -0.3060 -1.2086
  266MOL0     H35084  -0.080   0.324   5.084  1.8242 -0.0334 -0.5756
  266MOL0     H35085  -0.052   0.171   5.001 -2.3849  0.4445 -0.2570
  266MOL0     H35086  -0.207   0.057   5.156  0.2260 -0.4447 -2.7944
  266MOL0     H35087  -0.280   0.205   5.075  0.9871  2.2017  0.6502
  266MOL0     H35088  -0.234   0.339   5.267  0.2762 -0.0906 -2.6656
  266MOL0     H35089  -0.152   0.212   5.362 -1.2580  1.4618  0.8022
  266MOL0     H35090  -0.429   0.261   5.277  0.9841  0.8924 -0.0553
  266MOL0     H35091  -0.379   0.094   5.335  0.3184  0.1041 -2.6681
  266MOL0     H35092  -0.299   0.231   5.550  1.2545  0.7060 -0.1991
  266MOL0     H35093  -0.485   0.214   5.510  0.2660  1.0558 -1.7981
  266MOL0     H35094   0.458   0.404   5.342 -0.4203 -0.1206 -0.1582
  266MOL0     H35095   0.444   0.637   5.408  0.9146 -1.6850  0.8500
  266MOL0     H35096   0.439   1.193   5.060  4.8716 -3.3992  2.0539
  266MOL0     H35097   0.480   1.416   5.192  2.4892  0.7392  2.6726
  266MOL0     H35098   1.563   1.953   6.472  0.2227 -0.6791 -0.4547
  266MOL0     H35099   1.800   1.926   6.423 -0.4056  1.6619  1.5186
  266MOL0     H35100   2.132   1.908   6.320  0.3031  0.0982  0.1628
  266MOL0     H35101   2.373   1.860   6.292 -0.7847  3.3491  2.0606
  266MOL0     H35102   2.631   2.066   6.042  0.0043 -1.1613  0.5302
  266MOL0     H35103   2.622   1.949   5.925  0.9469  1.4833 -0.3240
  266MOL0     H35104   2.846   1.961   6.042  0.9313 -0.8991  0.8519
  266MOL0     H35105   2.765   1.940   6.190  2.4474  1.8881 -0.9460
  266MOL0     H35106   2.764   1.717   5.970  2.0478  0.4948  0.1934
  266MOL0     H35107   2.713   1.706   6.135 -2.1759  1.3202 -1.0948
  266MOL0     H35108   2.948   1.619   6.081 -0.0431  0.2443 -0.3970
  266MOL0     H35109   2.987   1.781   6.018 -0.3924 -1.6766 -1.0848
  266MOL0     H35110   3.071   1.810   6.424  0.8013  1.0127 -0.9133
  266MOL0     H35111   2.397   2.092   5.941 -2.6515 -0.8755 -2.0702
  266MOL0     H35112   2.175   2.177   5.984 -0.4316 -0.1532 -1.5977
  267MOL0     O35113   5.370   4.758   6.392  0.7062  0.1441 -0.7950
  267MOL0     C35114   5.481   4.786   6.436  0.4406  0.6452 -0.1957
  267MOL0     O35115   5.528   4.910   6.467  0.4831 -0.1318  0.6513
  267MOL0     C35116   5.451   5.012   6.500 -0.2365 -0.3055  0.1891
  267MOL0     C35117   5.506   5.143   6.507  0.0368  0.4452 -0.9081
  267MOL0     C35118   5.423   5.250   6.521  0.4121 -0.2803 -0.6692
  267MOL0     C35119   5.284   5.229   6.551  0.0136  0.1222  0.6305
  267MOL0     O35120   5.203   5.338   6.555 -0.1861 -0.4056  0.6125
  267MOL0     C35121   5.057   5.322   6.585 -1.3949 -0.4957 -0.9718
  267MOL0     C35122   4.985   5.268   6.465 -0.0082  0.1172 -0.3885
  267MOL0     C35123   4.836   5.229   6.497  0.4718  0.5410  0.8289
  267MOL0     C35124   4.807   5.081   6.528  0.7308 -0.1011  0.0805
  267MOL0     C35125   4.668   5.068   6.594  0.4149 -1.1918  0.2605
  267MOL0     C35126   4.555   5.077   6.498  0.5873  0.7778 -0.3996
  267MOL0     C35127   4.419   5.060   6.571  0.4984 -0.2934 -0.4530
  267MOL0     C35128   4.311   5.086   6.467  0.4195  0.0950  0.4767
  267MOL0     N35129   4.193   5.162   6.521  0.2045  0.2999 -0.6081
  267MOL0     C35130   4.183   5.295   6.526  0.9473 -1.1202 -0.2974
  267MOL0     C35131   4.099   5.322   6.628  1.1360  0.3759  0.1091
  267MOL0     C35132   4.028   5.450   6.664 -0.2173  0.1166 -0.1521
  267MOL0     C35133   3.879   5.427   6.688 -0.6064  0.7716 -0.4965
  267MOL0     C35134   3.800   5.441   6.566  0.0143  0.1949  0.2502
  267MOL0     C35135   3.737   5.573   6.549  0.7850  0.2290 -0.5825
  267MOL0     O35136   3.652   5.560   6.437  0.4872  0.7320 -0.5297
  267MOL0     C35137   3.522   5.609   6.437 -0.2925  0.3910  0.0348
  267MOL0     C35138   3.470   5.705   6.525  0.2648  0.3282  0.0490
  267MOL0     C35139   3.347   5.767   6.508 -0.4444  1.4519  0.1373
  267MOL0     C35140   3.272   5.736   6.387 -0.0387 -0.7002 -0.8073
  267MOL0     C35141   3.149   5.808   6.374  0.3318 -0.3525 -0.5869
  267MOL0     O35142   3.094   5.875   6.485 -0.1954 -0.0796 -0.0385
  267MOL0     C35143   2.963   5.917   6.488  0.6006  0.5032  0.1343
  267MOL0     C35144   2.926   6.042   6.429 -0.4905  0.6760  0.6081
  267MOL0     C35145   2.796   6.082   6.447  0.6309  0.2840  0.1819
  267MOL0     C35146   2.697   6.021   6.519 -0.6280  0.2553 -2.1369
  267MOL0     O35147   2.575   6.070   6.537  0.3518  0.6825  0.0637
  267MOL0     C35148   2.502   6.138   6.433 -0.0075  0.9442 -0.7343
  267MOL0     C35149   2.367   6.199   6.488 -0.6724 -0.5415  0.2311
  267MOL0     C35150   2.278   6.094   6.565  0.4286  0.5293 -0.4907
  267MOL0     C35151   2.133   6.149   6.589  0.3744 -0.3845 -0.2400
  267MOL0     C35152   2.066   6.066   6.702  0.7308 -0.2070  0.5116
  267MOL0     C35153   1.915   6.103   6.722 -0.1966 -0.4694  0.1191
  267MOL0     C35154   1.876   6.090   6.868  0.2643  0.9075  0.6125
  267MOL0     C35155   1.733   6.108   6.898  0.0072 -0.4832 -0.2256
  267MOL0    Cl35156   1.699   6.273   6.847 -0.1770  0.2716 -0.0996
  267MOL0     C35157   2.741   5.909   6.590 -0.6579  0.3125 -0.7302
  267MOL0     C35158   2.870   5.851   6.581 -0.5220  0.4032  0.7699
  267MOL0     O35159   3.102   5.811   6.262 -0.3279 -0.2077 -0.0997
  267MOL0     C35160   3.331   5.656   6.292 -0.1039  0.7210  0.5759
  267MOL0     C35161   3.450   5.584   6.321  0.9944  0.6394 -0.4127
  267MOL0     N35162   4.071   5.194   6.687  0.2399 -0.4053  0.3258
  267MOL0     N35163   4.114   5.103   6.613 -0.0838  0.1680  0.0047
  267MOL0     C35164   5.236   5.103   6.561 -0.4163  0.6553  0.1970
  267MOL0     C35165   5.319   4.988   6.541  0.5046 -0.0423  1.0463
  267MOL0     C35166   5.584   4.683   6.451  0.4986  0.4539 -0.6621
  267MOL0     C35167   5.555   4.547   6.449 -0.2632 -0.4378  0.7978
  267MOL0     C35168   5.655   4.452   6.484  0.1958  0.8286 -0.0753
  267MOL0     C35169   5.792   4.482   6.503 -0.5256 -0.2889  0.1672
  267MOL0     O35170   5.894   4.395   6.526  0.4583 -0.1333 -1.2343
  267MOL0     C35171   5.884   4.261   6.486 -0.0933  0.7734  0.6515
  267MOL0     C35172   6.005   4.170   6.512 -0.0305 -0.3880 -0.4957
  267MOL0     C35173   6.023   4.139   6.660 -0.9475  0.1994 -0.7363
  267MOL0     C35174   6.149   4.046   6.671  0.7595  0.0918 -0.1431
  267MOL0     C35175   6.178   4.007   6.809  0.2096 -0.1262 -0.6305
  267MOL0     C35176   6.205   3.966   6.922 -0.4993  0.4000  0.3004
  267MOL0     C35177   5.822   4.617   6.515 -0.3581  0.0350 -0.4636
  267MOL0     C35178   5.717   4.710   6.491 -0.6273 -0.2120 -0.0221
  267MOL0     H35179   5.613   5.146   6.495  0.5806 -3.8178  1.1427
  267MOL0     H35180   5.460   5.352   6.515  1.1245 -0.3238  1.8574
  267MOL0     H35181   5.014   5.418   6.615  1.9585  1.1117 -0.8763
  267MOL0     H35182   5.051   5.264   6.678  0.2699  2.0218  0.8461
  267MOL0     H35183   5.038   5.184   6.418 -0.1044 -0.3858  0.3710
  267MOL0     H35184   4.974   5.350   6.394 -0.2586  1.3486  1.0039
  267MOL0     H35185   4.793   5.245   6.398 -1.8559  0.1541  1.7227
  267MOL0     H35186   4.781   5.296   6.564 -3.6802  0.4414 -2.1364
  267MOL0     H35187   4.806   5.022   6.435 -0.6297  3.1907 -2.1896
  267MOL0     H35188   4.882   5.053   6.603 -1.6826 -0.4305  2.5375
  267MOL0     H35189   4.664   5.150   6.666  3.9134 -0.5748 -0.0610
  267MOL0     H35190   4.682   4.976   6.652 -2.0365 -1.2221  0.9002
  267MOL0     H35191   4.562   5.004   6.417 -1.8755  1.8555 -1.6768
  267MOL0     H35192   4.557   5.177   6.453 -0.0669  0.8085 -0.3704
  267MOL0     H35193   4.403   4.958   6.609 -0.1483  0.7736  2.4378
  267MOL0     H35194   4.413   5.125   6.659 -0.5031 -0.7301 -0.1790
  267MOL0     H35195   4.270   4.995   6.422 -0.2695  1.2177 -1.2661
  267MOL0     H35196   4.345   5.152   6.387  0.8522  0.9403  1.3334
  267MOL0     H35197   4.226   5.371   6.461  1.1486 -0.5772  0.4517
  267MOL0     H35198   4.038   5.532   6.592  1.1629 -2.2127 -2.7792
  267MOL0     H35199   4.072   5.480   6.759  1.2780 -0.2648 -0.7052
  267MOL0     H35200   3.845   5.493   6.768 -0.7888 -0.0803  0.1422
  267MOL0     H35201   3.866   5.327   6.730  3.3165 -1.0909 -3.0670
  267MOL0     H35202   3.847   5.413   6.472 -2.9855 -3.4336 -0.4115
  267MOL0     H35203   3.716   5.371   6.574  0.0124 -0.3470 -3.1853
  267MOL0     H35204   3.818   5.644   6.536 -0.1333  1.3317 -0.4469
  267MOL0     H35205   3.685   5.596   6.643  0.1305  1.7922 -1.2951
  267MOL0     H35206   3.535   5.741   6.604 -1.1545 -1.0738  1.9424
  267MOL0     H35207   3.309   5.853   6.564 -3.2212  1.7213 -1.9730
  267MOL0     H35208   2.991   6.098   6.363 -0.9418  1.7166  1.0292
  267MOL0     H35209   2.765   6.169   6.391 -0.8710 -0.7615 -0.7043
  267MOL0     H35210   2.478   6.065   6.355  1.4897  0.5000 -0.8224
  267MOL0     H35211   2.556   6.222   6.389 -3.1443  2.3850 -2.1523
  267MOL0     H35212   2.308   6.242   6.406 -0.1157 -1.1648 -0.5061
  267MOL0     H35213   2.401   6.274   6.560  0.6730 -0.6378 -0.2740
  267MOL0     H35214   2.322   6.064   6.660  1.9250  0.4685 -1.1627
  267MOL0     H35215   2.274   6.000   6.509 -1.8868  1.1827 -1.5410
  267MOL0     H35216   2.144   6.248   6.634  3.8669  0.0462 -1.6952
  267MOL0     H35217   2.078   6.145   6.495  0.7334  0.2331 -0.4833
  267MOL0     H35218   2.126   6.088   6.791  4.2396 -0.1828 -1.6841
  267MOL0     H35219   2.069   5.958   6.683  2.4813  0.2627 -2.3592
  267MOL0     H35220   1.851   6.036   6.663 -1.2852  0.8889 -0.3079
  267MOL0     H35221   1.899   6.208   6.695  1.9964  0.2818  1.5258
  267MOL0     H35222   1.899   5.985   6.888  0.6505  0.1348 -3.1309
  267MOL0     H35223   1.942   6.151   6.931  2.5130  1.5248 -2.1102
  267MOL0     H35224   1.715   6.094   7.005  1.1778 -1.4960 -0.1387
  267MOL0     H35225   1.682   6.024   6.850 -0.4847 -0.9989  1.1690
  267MOL0     H35226   2.680   5.858   6.663  1.6177 -2.2672 -0.4559
  267MOL0     H35227   2.901   5.764   6.638  0.4736  0.0302 -0.2724
  267MOL0     H35228   3.297   5.650   6.189  2.6345 -2.0939 -0.3271
  267MOL0     H35229   3.500   5.532   6.240 -1.1468 -0.3858 -1.1517
  267MOL0     H35230   5.139   5.071   6.599 -0.3159 -1.5721 -1.2142
  267MOL0     H35231   5.272   4.892   6.560  2.9502 -1.4701  0.3478
  267MOL0     H35232   5.454   4.517   6.421  0.8647 -0.7769 -3.6084
  267MOL0     H35233   5.621   4.349   6.486 -2.5664  1.6827  1.3252
  267MOL0     H35234   5.862   4.267   6.379  1.2223 -1.2011  0.2250
  267MOL0     H35235   5.795   4.223   6.538 -0.7819  0.2790 -0.8514
  267MOL0     H35236   5.999   4.074   6.461 -0.0890 -2.0548  2.4667
  267MOL0     H35237   6.091   4.220   6.467 -2.0976  3.9146 -0.2310
  267MOL0     H35238   5.947   4.064   6.686  2.6478 -4.9150 -3.2122
  267MOL0     H35239   6.023   4.227   6.725 -2.4141  1.2426 -2.0629
  267MOL0     H35240   6.130   3.947   6.629  3.4019 -0.9130  0.7588
  267MOL0     H35241   6.238   4.085   6.621 -0.7653  1.8032 -1.6261
  267MOL0     H35242   6.249   3.960   7.019  4.1614  0.6050 -1.5340
  267MOL0     H35243   5.925   4.641   6.536 -0.5210  0.1262  0.2734
  267MOL0     H35244   5.744   4.811   6.521  0.9691  0.1447 -2.3691
  268MOL0     O35245   8.008   9.834   1.112  0.1052 -0.3075 -0.2007
  268MOL0     C35246   8.095   9.883   1.038  0.2017 -0.9333 -0.2326
  268MOL0     O35247   8.073   9.970   0.926 -0.2752 -0.3070  1.1737
  268MOL0     C35248   7.944  10.013   0.896 -0.8596  0.0626  0.2622
  268MOL0     C35249   7.838  10.049   0.978  0.2327 -0.1729 -0.9380
  268MOL0     C35250   7.712  10.072   0.918 -0.4761  0.5418  0.3149
  268MOL0     C35251   7.691  10.077   0.777 -0.4003 -0.0858 -1.2940
  268MOL0     O35252   7.570  10.111   0.739  0.5266  0.5733  0.2653
  268MOL0     C35253   7.502  10.025   0.638 -0.0592  1.2846 -1.0240
  268MOL0     C35254   7.353   9.984   0.669 -0.3610  1.0381  0.6905
  268MOL0     C35255   7.269  10.110   0.680  0.0066 -0.5064  0.1747
  268MOL0     C35256   7.126  10.070   0.712  0.9091 -0.5498  0.6024
  268MOL0     C35257   7.024  10.189   0.688 -0.3622 -0.2752 -0.6329
  268MOL0     C35258   6.887  10.140   0.732  0.1890 -0.8057 -0.9784
  268MOL0     C35259   6.782  10.253   0.707 -0.1092  0.4730 -0.3830
  268MOL0     C35260   6.640  10.192   0.730 -0.3234  0.1958 -0.5297
  268MOL0     N35261   6.574  10.154   0.600  0.1986  0.5558 -1.0206
  268MOL0     C35262   6.535  10.025   0.573  0.5737 -0.4687  0.4503
  268MOL0     C35263   6.501  10.041   0.446  0.5387  0.1214 -0.5719
  268MOL0     C35264   6.431   9.939   0.364 -0.0824 -0.4061  0.4680
  268MOL0     C35265   6.280   9.941   0.384 -0.8351 -1.3535  0.3550
  268MOL0     C35266   6.223   9.855   0.496 -0.3504 -0.2243  0.2120
  268MOL0     C35267   6.077   9.872   0.526  0.1422  0.2765  0.3401
  268MOL0     O35268   5.998   9.863   0.406  0.2505  0.8230  0.4864
  268MOL0     C35269   5.864   9.854   0.424  0.3165 -0.0012  0.5114
  268MOL0     C35270   5.796   9.850   0.305  0.0376 -0.4426 -0.4545
  268MOL0     C35271   5.659   9.834   0.305 -0.1278 -0.8604  0.2225
  268MOL0     C35272   5.593   9.818   0.427  0.6614  0.2023  0.5451
  268MOL0     C35273   5.444   9.773   0.426 -0.2904 -0.3234  0.1572
  268MOL0     O35274   5.395   9.738   0.542  0.4105 -0.0840 -0.0066
  268MOL0     C35275   5.261   9.714   0.560 -0.3264 -0.0180 -0.1269
  268MOL0     C35276   5.211   9.762   0.685 -0.9857 -0.6023  0.4358
  268MOL0     C35277   5.085   9.730   0.717 -0.3678 -0.2969 -0.1340
  268MOL0     C35278   5.000   9.656   0.633 -0.3567  0.3743  0.9632
  268MOL0     O35279   4.865   9.637   0.672  0.0558 -0.2179 -0.3967
  268MOL0     C35280   4.783   9.748   0.689  0.2033  0.0657  0.3793
  268MOL0     C35281   4.630   9.719   0.684  0.6635 -0.0722 -0.0298
  268MOL0     C35282   4.585   9.676   0.824 -0.2200 -0.3710 -0.1126
  268MOL0     C35283   4.423   9.655   0.843 -0.1042  0.7164  1.2757
  268MOL0     C35284   4.385   9.682   0.986  0.2361  0.7443  0.8762
  268MOL0     C35285   4.231   9.708   1.014  0.5347 -0.4059 -0.1774
  268MOL0     C35286   4.201   9.850   0.970 -0.1702 -0.9500 -0.6321
  268MOL0     C35287   4.046   9.892   0.985 -0.1779 -0.0770 -0.0204
  268MOL0    Cl35288   3.993   9.870   0.822 -0.0838 -0.6885 -0.1343
  268MOL0     C35289   5.040   9.618   0.508  0.4310 -0.8425 -0.2117
  268MOL0     C35290   5.167   9.646   0.476  0.0998  0.3697 -0.7126
  268MOL0     O35291   5.374   9.775   0.322 -0.3743  0.1698  0.0304
  268MOL0     C35292   5.658   9.826   0.541 -0.7422 -0.6192 -0.6131
  268MOL0     C35293   5.796   9.849   0.544  0.3486  0.2989  0.7405
  268MOL0     N35294   6.532  10.165   0.392  0.0709  0.2786 -0.1819
  268MOL0     N35295   6.568  10.237   0.487 -0.2228 -0.5633 -0.0748
  268MOL0     C35296   7.801  10.049   0.694 -0.0553 -0.3867  0.1245
  268MOL0     C35297   7.925  10.017   0.761 -0.2190  0.1352 -0.2397
  268MOL0     C35298   8.233   9.829   1.054 -1.2561 -1.0010  0.2486
  268MOL0     C35299   8.258   9.693   1.083 -0.3970 -0.2442  0.4385
  268MOL0     C35300   8.383   9.645   1.104  0.1072  1.0760  0.2739
  268MOL0     C35301   8.495   9.732   1.103  0.9126  0.1589  0.4177
  268MOL0     O35302   8.603   9.673   1.153 -0.4372  0.1692  0.2534
  268MOL0     C35303   8.733   9.724   1.103 -0.5035 -0.4677 -0.9744
  268MOL0     C35304   8.840   9.616   1.105 -0.1427  0.0871  0.0156
  268MOL0     C35305   8.972   9.676   1.048 -0.3301  0.7209 -0.5852
  268MOL0     C35306   9.095   9.584   1.038 -0.2730  1.0252 -0.3677
  268MOL0     C35307   9.191   9.651   0.948  0.0466 -0.3591 -0.6993
  268MOL0     C35308   9.271   9.704   0.867  0.2314  0.2052  0.0790
  268MOL0     C35309   8.478   9.868   1.067 -0.9148 -0.0601 -0.0646
  268MOL0     C35310   8.348   9.912   1.047 -0.0696  0.0372 -0.8519
  268MOL0     H35311   7.855  10.044   1.085 -1.1141 -0.6241 -0.7311
  268MOL0     H35312   7.624  10.082   0.981 -1.3654  0.2409 -0.8572
  268MOL0     H35313   7.562   9.933   0.638 -0.6952  0.7129  2.8545
  268MOL0     H35314   7.501  10.071   0.538 -1.1612  0.7819 -1.2601
  268MOL0     H35315   7.350   9.927   0.762 -0.6769 -1.8778 -0.9763
  268MOL0     H35316   7.311   9.925   0.587  2.3984 -0.5630  0.3060
  268MOL0     H35317   7.270  10.161   0.583 -1.2085  0.7390  0.7781
  268MOL0     H35318   7.313  10.170   0.761  1.8151 -2.6205  0.8587
  268MOL0     H35319   7.096   9.985   0.650  0.2348  0.7862 -0.9561
  268MOL0     H35320   7.121  10.036   0.816  0.8658 -0.3616  0.6620
  268MOL0     H35321   7.033  10.228   0.587  3.6273 -0.0333 -0.3473
  268MOL0     H35322   7.054  10.274   0.750 -1.9844 -0.2968  0.2375
  268MOL0     H35323   6.890  10.103   0.835 -1.3237  4.2894  1.2171
  268MOL0     H35324   6.851  10.056   0.672 -1.1406 -1.3355  0.5021
  268MOL0     H35325   6.795  10.326   0.788 -1.4611  0.2630  0.0587
  268MOL0     H35326   6.792  10.298   0.608  0.0592  1.2136 -0.0367
  268MOL0     H35327   6.579  10.267   0.781  0.8142  0.1600  0.9649
  268MOL0     H35328   6.642  10.101   0.792 -1.8934 -1.0641 -2.1942
  268MOL0     H35329   6.525   9.934   0.633 -2.7462  0.6494  1.8113
  268MOL0     H35330   6.466   9.838   0.387 -6.2187 -3.2184 -0.4330
  268MOL0     H35331   6.440   9.955   0.256 -0.3429  0.7696  0.6079
  268MOL0     H35332   6.236   9.908   0.290 -2.6652  0.6707  0.4060
  268MOL0     H35333   6.244  10.043   0.401  0.0570 -0.9640 -0.0202
  268MOL0     H35334   6.248   9.752   0.470 -1.2198 -0.3999  0.0603
  268MOL0     H35335   6.282   9.883   0.584  0.3763  0.7029 -0.5481
  268MOL0     H35336   6.055   9.968   0.572 -3.0809 -0.4364  0.5432
  268MOL0     H35337   6.060   9.793   0.601  1.8712 -0.2720  0.2127
  268MOL0     H35338   5.842   9.851   0.207 -0.5098 -0.0658 -0.7121
  268MOL0     H35339   5.604   9.836   0.211  1.5854 -1.1252 -0.8272
  268MOL0     H35340   5.275   9.827   0.744 -1.0447  3.1895 -3.2150
  268MOL0     H35341   5.047   9.756   0.815 -2.0122  1.7886 -1.2582
  268MOL0     H35342   4.812   9.823   0.615 -0.7629 -0.0249 -0.1117
  268MOL0     H35343   4.811   9.787   0.788  1.2991 -1.3120  0.6374
  268MOL0     H35344   4.611   9.640   0.611 -1.2019  1.7336 -1.6259
  268MOL0     H35345   4.581   9.812   0.654  0.4971 -0.2019 -0.1613
  268MOL0     H35346   4.627   9.745   0.898 -3.0121  1.3612  0.0055
  268MOL0     H35347   4.626   9.582   0.863  0.0437 -0.5152 -0.7311
  268MOL0     H35348   4.370   9.726   0.779 -1.3568  0.1121  1.6147
  268MOL0     H35349   4.408   9.548   0.825  4.9428 -0.6213  3.2984
  268MOL0     H35350   4.447   9.767   1.014  0.4094  1.0370 -0.3372
  268MOL0     H35351   4.409   9.601   1.055 -4.2462 -0.7471  0.9902
  268MOL0     H35352   4.201   9.695   1.118  2.0443 -1.4676  0.1663
  268MOL0     H35353   4.172   9.630   0.965 -1.1084  0.9464 -0.4398
  268MOL0     H35354   4.262   9.918   1.031 -1.4902 -0.9604  0.7477
  268MOL0     H35355   4.227   9.858   0.864 -1.7902 -4.6265 -1.4321
  268MOL0     H35356   4.038   9.992   1.027  0.1844 -0.8350  1.9451
  268MOL0     H35357   3.991   9.823   1.050  0.8078  0.6604  1.6432
  268MOL0     H35358   4.975   9.565   0.439  0.1796  0.7087 -1.2326
  268MOL0     H35359   5.194   9.620   0.374 -1.0844  0.2061 -1.0002
  268MOL0     H35360   5.599   9.810   0.630 -0.4570 -0.0665 -0.3229
  268MOL0     H35361   5.853   9.850   0.637  0.5916  1.9947  0.6013
  268MOL0     H35362   7.801  10.065   0.587  3.3644  2.0162  0.3488
  268MOL0     H35363   8.007   9.976   0.702 -3.2678 -0.9720 -4.1725
  268MOL0     H35364   8.176   9.622   1.089  0.2599 -0.9927  0.7569
  268MOL0     H35365   8.390   9.538   1.121  1.4358  0.4707 -3.2584
  268MOL0     H35366   8.766   9.809   1.164  1.2782 -1.0329 -1.1031
  268MOL0     H35367   8.726   9.753   0.998  2.2766 -1.8618 -1.6374
  268MOL0     H35368   8.847   9.577   1.208 -0.8355 -0.9428 -0.3097
  268MOL0     H35369   8.803   9.534   1.043 -0.7306 -0.1189  0.6223
  268MOL0     H35370   9.004   9.757   1.115  0.6690  2.1182 -2.6364
  268MOL0     H35371   8.951   9.721   0.950 -0.0932 -3.9798 -3.1055
  268MOL0     H35372   9.148   9.575   1.133  3.0968  2.6098 -1.9411
  268MOL0     H35373   9.054   9.487   1.005 -4.0207  1.1148  3.2539
  268MOL0     H35374   9.338   9.745   0.795  1.0914 -0.7548  0.3126
  268MOL0     H35375   8.554   9.942   1.046 -0.8381 -0.6593 -2.0655
  268MOL0     H35376   8.335  10.015   1.015  1.9907  1.0597  1.2688
  269MOL0     O35377   5.834   4.515   1.332  0.0054  0.2442 -0.2813
  269MOL0     C35378   5.911   4.426   1.322  0.5545 -0.6365 -0.5463
  269MOL0     O35379   5.883   4.295   1.344 -0.2946  0.7578 -0.1688
  269MOL0     C35380   5.755   4.257   1.398  0.3343  0.4125  1.0976
  269MOL0     C35381   5.714   4.129   1.371  0.3451 -0.3898 -1.0194
  269MOL0     C35382   5.592   4.077   1.411  0.0998  0.2998 -1.2592
  269MOL0     C35383   5.503   4.155   1.475  1.4160 -0.3114 -0.3258
  269MOL0     O35384   5.379   4.115   1.521 -0.0110  0.0424  0.5470
  269MOL0     C35385   5.354   3.970   1.550 -0.3571  0.5941  1.1117
  269MOL0     C35386   5.213   3.937   1.600 -0.2670  0.3915  0.6991
  269MOL0     C35387   5.190   3.990   1.742 -0.8951  0.4429  0.0893
  269MOL0     C35388   5.088   3.899   1.823  0.8196 -0.6947 -0.3320
  269MOL0     C35389   4.939   3.903   1.786 -0.3044 -0.4831 -0.5357
  269MOL0     C35390   4.883   4.047   1.782 -0.1792 -1.1863  0.3473
  269MOL0     C35391   4.729   4.056   1.789  0.5701 -0.2729  0.2589
  269MOL0     C35392   4.663   3.985   1.909 -0.1948  0.2057 -0.0265
  269MOL0     N35393   4.720   4.019   2.039 -0.1165 -0.2933 -0.4678
  269MOL0     C35394   4.730   4.143   2.105 -0.1828 -0.7585  0.4885
  269MOL0     C35395   4.768   4.100   2.233  0.1803 -0.6451  0.2299
  269MOL0     C35396   4.776   4.193   2.354 -0.5076 -1.0358 -0.1338
  269MOL0     C35397   4.635   4.197   2.415  0.8933 -0.5576 -0.8965
  269MOL0     C35398   4.621   4.192   2.569 -0.1820 -0.8207 -0.0626
  269MOL0     C35399   4.475   4.203   2.622 -0.2427  0.1246 -0.3785
  269MOL0     O35400   4.423   4.334   2.599  0.1049  0.0969  0.0372
  269MOL0     C35401   4.290   4.348   2.614  0.4322 -0.3512 -0.2638
  269MOL0     C35402   4.235   4.460   2.550  0.0542  0.2005  0.3940
  269MOL0     C35403   4.093   4.486   2.562  1.2493  0.0146  0.2569
  269MOL0     C35404   4.013   4.398   2.634 -0.1204 -0.3040  0.2590
  269MOL0     C35405   3.874   4.437   2.650 -0.0740  0.1472 -0.0993
  269MOL0     O35406   3.820   4.534   2.579 -0.3256 -0.3828 -0.2140
  269MOL0     C35407   3.691   4.560   2.618 -0.2283 -0.9444  0.0605
  269MOL0     C35408   3.588   4.495   2.549 -0.0701 -1.2288  0.4377
  269MOL0     C35409   3.452   4.504   2.593 -0.9402 -0.9882  0.2781
  269MOL0     C35410   3.425   4.600   2.700  0.4984 -0.1010  0.7628
  269MOL0     O35411   3.301   4.599   2.754 -0.2220  0.2374 -0.1652
  269MOL0     C35412   3.213   4.695   2.720  0.3905  0.5845  0.3488
  269MOL0     C35413   3.069   4.654   2.757  0.2130  0.4057  0.0576
  269MOL0     C35414   2.951   4.733   2.715 -0.5255 -0.2406  0.3579
  269MOL0     C35415   2.817   4.679   2.758 -0.9030 -0.3564  0.2252
  269MOL0     C35416   2.697   4.738   2.674  0.8651 -0.2028  0.3991
  269MOL0     C35417   2.565   4.715   2.751 -0.4451 -0.2260  0.9646
  269MOL0     C35418   2.454   4.787   2.675  0.2279  0.2285  0.2469
  269MOL0     C35419   2.317   4.785   2.754  0.7993 -0.2222  0.6506
  269MOL0    Cl35420   2.262   4.620   2.789  0.0743 -0.2963 -0.4859
  269MOL0     C35421   3.522   4.676   2.752  0.4393  0.3205 -0.4622
  269MOL0     C35422   3.657   4.661   2.715  0.5767 -0.1433 -0.7829
  269MOL0     O35423   3.818   4.365   2.734  0.4077 -0.5388  0.3306
  269MOL0     C35424   4.062   4.280   2.690  0.1326  0.4237  0.6400
  269MOL0     C35425   4.197   4.255   2.681 -0.4694 -0.1413 -0.1323
  269MOL0     N35426   4.790   3.963   2.234  0.0458  0.0830 -0.3676
  269MOL0     N35427   4.757   3.916   2.119 -0.8942  0.7431 -0.7935
  269MOL0     C35428   5.536   4.280   1.514 -0.5295  0.3923 -0.2708
  269MOL0     C35429   5.660   4.331   1.480 -0.2158 -0.0846 -0.0391
  269MOL0     C35430   6.046   4.460   1.288 -1.5264  0.6616  0.6577
  269MOL0     C35431   6.132   4.375   1.216 -0.3038  0.2543  0.0999
  269MOL0     C35432   6.268   4.403   1.178  0.1508  0.1408 -0.0630
  269MOL0     C35433   6.320   4.531   1.203 -0.0110 -0.3957  0.3710
  269MOL0     O35434   6.439   4.591   1.168 -0.6431  0.2024  0.1566
  269MOL0     C35435   6.542   4.508   1.104  0.5416 -0.0580 -0.6737
  269MOL0     C35436   6.656   4.590   1.052 -0.1598  0.2088  0.3044
  269MOL0     C35437   6.718   4.683   1.159 -0.2710  0.1266  0.1948
  269MOL0     C35438   6.850   4.645   1.210 -0.5831 -0.1686  0.0339
  269MOL0     C35439   6.953   4.630   1.107 -1.0550 -0.1432  0.2366
  269MOL0     C35440   7.035   4.642   1.020 -0.0364  0.1592  0.4295
  269MOL0     C35441   6.234   4.616   1.279  0.2877 -0.6866  0.2151
  269MOL0     C35442   6.112   4.574   1.331 -0.4757 -0.2554  0.1564
  269MOL0     H35443   5.790   4.073   1.317  1.6824  0.1967  0.1930
  269MOL0     H35444   5.568   3.973   1.388  0.6608 -0.4462  1.2381
  269MOL0     H35445   5.429   3.926   1.616  0.7256 -0.0009 -0.4499
  269MOL0     H35446   5.369   3.911   1.459 -1.3137 -0.8458  1.8478
  269MOL0     H35447   5.184   3.832   1.599 -0.4264  0.4384  0.1959
  269MOL0     H35448   5.138   3.979   1.532  0.6808  1.3071  0.1675
  269MOL0     H35449   5.153   4.093   1.729  2.2059  1.5850 -0.4424
  269MOL0     H35450   5.286   3.985   1.792 -0.4898 -1.1832 -0.7891
  269MOL0     H35451   5.100   3.790   1.821 -4.5848 -1.7250  2.4128
  269MOL0     H35452   5.085   3.925   1.930 -2.7151  0.6107 -0.5924
  269MOL0     H35453   4.891   3.847   1.866 -0.8049 -1.2056 -1.3176
  269MOL0     H35454   4.917   3.858   1.689 -2.3492  1.0117 -0.8420
  269MOL0     H35455   4.916   4.095   1.689  0.4948 -0.9008  0.7257
  269MOL0     H35456   4.921   4.106   1.866 -3.1514  0.4960  0.6407
  269MOL0     H35457   4.704   4.162   1.781  0.1297 -0.4801 -1.4499
  269MOL0     H35458   4.690   4.017   1.694  0.1490  0.4667  0.1228
  269MOL0     H35459   4.671   3.877   1.896 -1.1226 -0.0425  1.1956
  269MOL0     H35460   4.556   4.008   1.908 -0.1209  0.6761  1.1188
  269MOL0     H35461   4.692   4.240   2.076  0.0805 -1.6164 -3.1683
  269MOL0     H35462   4.818   4.293   2.338 -0.5404 -1.1427 -0.9119
  269MOL0     H35463   4.846   4.145   2.422  1.1423 -2.7065 -2.8604
  269MOL0     H35464   4.570   4.113   2.387 -4.2611  2.1362  1.5303
  269MOL0     H35465   4.580   4.287   2.388 -2.6861 -2.4593 -0.6135
  269MOL0     H35466   4.660   4.096   2.604 -2.0712 -1.2183  1.0937
  269MOL0     H35467   4.690   4.267   2.609 -1.4397 -0.9071  2.4562
  269MOL0     H35468   4.487   4.198   2.731 -2.2876  0.9348 -0.0774
  269MOL0     H35469   4.420   4.121   2.577  1.7694 -2.0367  0.8857
  269MOL0     H35470   4.296   4.542   2.513 -0.6604 -0.6426 -2.9944
  269MOL0     H35471   4.051   4.582   2.535 -0.5564  0.3891  3.8653
  269MOL0     H35472   3.611   4.437   2.460  1.1549  2.8751 -2.2375
  269MOL0     H35473   3.365   4.462   2.543 -0.9603 -2.4262  1.4642
  269MOL0     H35474   3.214   4.708   2.611  0.3657 -0.7626  0.1716
  269MOL0     H35475   3.236   4.788   2.772 -1.0671 -0.2797  2.7032
  269MOL0     H35476   3.066   4.645   2.866  0.8945  0.8543  0.1236
  269MOL0     H35477   3.054   4.553   2.719 -0.2545  0.7749 -0.7627
  269MOL0     H35478   2.961   4.729   2.606  1.3487 -0.2186  0.4889
  269MOL0     H35479   2.965   4.837   2.745  0.7083 -0.3184  0.1087
  269MOL0     H35480   2.809   4.570   2.754 -3.8245 -0.2921  1.6840
  269MOL0     H35481   2.800   4.708   2.862  0.1548  1.2583 -0.0147
  269MOL0     H35482   2.695   4.690   2.576 -1.5703  0.4672  0.0495
  269MOL0     H35483   2.709   4.846   2.660  1.0772 -0.1029  1.2984
  269MOL0     H35484   2.572   4.760   2.851 -1.5230  0.9546  0.5330
  269MOL0     H35485   2.553   4.606   2.757  0.8075 -0.4983 -0.6392
  269MOL0     H35486   2.478   4.892   2.657 -2.8057  0.5755 -2.7998
  269MOL0     H35487   2.434   4.736   2.580 -0.7277 -0.0045  0.5647
  269MOL0     H35488   2.247   4.843   2.693  0.2271 -0.6900  0.8644
  269MOL0     H35489   2.328   4.844   2.845  5.7044  2.9707 -1.5519
  269MOL0     H35490   3.504   4.735   2.842 -0.9286 -0.5271 -0.1522
  269MOL0     H35491   3.729   4.719   2.771 -0.3698 -0.7074  1.0875
  269MOL0     H35492   3.994   4.207   2.732 -0.8202  2.0479  2.0347
  269MOL0     H35493   4.238   4.167   2.729 -1.0941 -0.8175 -0.8207
  269MOL0     H35494   5.484   4.348   1.580  2.3118  0.1454  2.4734
  269MOL0     H35495   5.694   4.428   1.514  2.1750 -1.1134  0.7522
  269MOL0     H35496   6.089   4.280   1.183 -0.0534 -0.8082  2.5998
  269MOL0     H35497   6.318   4.326   1.119 -0.5096  1.3901 -2.3869
  269MOL0     H35498   6.488   4.453   1.026 -0.6388  0.6655 -0.3931
  269MOL0     H35499   6.579   4.435   1.177  0.3768  1.1597  0.6843
  269MOL0     H35500   6.730   4.520   1.014 -1.1998 -1.5282  1.3283
  269MOL0     H35501   6.615   4.645   0.967 -2.3555  1.6097  2.1364
  269MOL0     H35502   6.658   4.701   1.248  3.8400  1.8616  2.9304
  269MOL0     H35503   6.730   4.786   1.123 -1.2841  0.0992 -0.2433
  269MOL0     H35504   6.890   4.712   1.286 -0.0886  2.2310 -2.1995
  269MOL0     H35505   6.829   4.544   1.246 -0.0071 -1.4109 -2.8399
  269MOL0     H35506   7.113   4.645   0.947 -0.7298  1.9734 -0.2982
  269MOL0     H35507   6.277   4.707   1.318 -0.2943 -0.2865 -0.0649
  269MOL0     H35508   6.066   4.642   1.402 -0.2052 -1.9067  2.0221
  270MOL0     O35509   9.923   0.241   1.990  0.2489 -0.5439  0.3532
  270MOL0     C35510   9.945   0.346   1.939 -0.4872  0.3040 -0.4845
  270MOL0     O35511   9.868   0.416   1.856 -0.0945 -0.0419  0.1842
  270MOL0     C35512   9.746   0.367   1.806  0.6655  0.6823  0.0172
  270MOL0     C35513   9.650   0.310   1.889 -0.2122 -0.5010  1.2002
  270MOL0     C35514   9.535   0.246   1.834  0.7368 -0.2242  0.7292
  270MOL0     C35515   9.511   0.249   1.698  0.4256  0.5603 -0.5570
  270MOL0     O35516   9.413   0.180   1.626  0.4617 -1.0222 -1.0377
  270MOL0     C35517   9.277   0.228   1.633  0.2318  0.3146  0.3805
  270MOL0     C35518   9.209   0.164   1.511  0.8965 -0.5087 -0.9593
  270MOL0     C35519   9.059   0.204   1.514 -0.1595 -0.1316 -0.5997
  270MOL0     C35520   8.986   0.174   1.380 -0.3610 -1.0262 -0.2598
  270MOL0     C35521   8.840   0.218   1.375  0.1373 -0.6115 -0.3624
  270MOL0     C35522   8.748   0.122   1.459 -0.2940 -0.9518 -0.1090
  270MOL0     C35523   8.612   0.184   1.515  0.7165 -0.7108 -0.6040
  270MOL0     C35524   8.516   0.196   1.400 -0.7108 -0.4154  0.4188
  270MOL0     N35525   8.373   0.218   1.434  0.2735  0.3553 -0.1418
  270MOL0     C35526   8.327   0.236   1.568  0.3688  0.2367  0.1614
  270MOL0     C35527   8.194   0.199   1.565  0.2613  0.5917  0.3797
  270MOL0     C35528   8.105   0.214   1.683  0.0398 -0.2212 -0.8302
  270MOL0     C35529   7.956   0.221   1.658 -0.4504  0.0617 -0.9684
  270MOL0     C35530   7.881   0.217   1.788 -1.3475 -0.0002 -0.6203
  270MOL0     C35531   7.728   0.193   1.759  0.1284  0.9851 -0.3629
  270MOL0     O35532   7.664   0.193   1.886  0.1045 -0.2534  0.1628
  270MOL0     C35533   7.531   0.177   1.895  0.4574  0.2940  0.2197
  270MOL0     C35534   7.445   0.142   1.790  0.3256 -0.0070 -0.5146
  270MOL0     C35535   7.307   0.148   1.814 -0.7186  0.9998  0.8332
  270MOL0     C35536   7.254   0.185   1.934  0.5625  0.2886  0.0439
  270MOL0     C35537   7.103   0.178   1.959  0.1962  0.9521  1.2325
  270MOL0     O35538   7.046   0.225   2.079  0.0824  0.2027  0.0119
  270MOL0     C35539   6.917   0.182   2.108 -0.0574 -0.2553  0.3723
  270MOL0     C35540   6.829   0.285   2.145  0.0256 -0.4497 -0.0950
  270MOL0     C35541   6.692   0.256   2.170 -0.0094  0.1332  0.6828
  270MOL0     C35542   6.643   0.121   2.181 -0.6849  0.3451  0.4338
  270MOL0     O35543   6.516   0.083   2.210  0.4692 -0.1263 -0.0948
  270MOL0     C35544   6.419   0.182   2.259 -0.5006  0.5396 -0.0057
  270MOL0     C35545   6.285   0.109   2.294 -0.3050 -0.3222  0.2738
  270MOL0     C35546   6.168   0.157   2.213 -0.7332  0.2428  0.0928
  270MOL0     C35547   6.030   0.120   2.265  0.0899  1.1641 -0.3257
  270MOL0     C35548   5.929   0.148   2.153  0.1069  0.4643 -0.0318
  270MOL0     C35549   5.932   0.040   2.039  1.1066  0.9163  1.0762
  270MOL0     C35550   5.825   0.069   1.939  0.4460 -0.0027  0.5450
  270MOL0     C35551   5.812  -0.006   1.807  0.6941 -0.1640 -0.0212
  270MOL0    Cl35552   5.960   0.048   1.719 -0.3713 -0.4997  0.4384
  270MOL0     C35553   6.737   0.020   2.137  0.6143 -0.1808 -0.0109
  270MOL0     C35554   6.868   0.050   2.092 -0.5619 -0.4827  0.7886
  270MOL0     O35555   7.035   0.132   1.863  0.1930 -0.4604  0.4530
  270MOL0     C35556   7.333   0.217   2.040 -0.0935  0.5006 -1.0235
  270MOL0     C35557   7.471   0.223   2.015 -0.2093 -0.1223 -0.5756
  270MOL0     N35558   8.160   0.151   1.438 -0.4180  1.2518 -0.9744
  270MOL0     N35559   8.272   0.159   1.364 -0.7709 -0.4690 -0.6574
  270MOL0     C35560   9.608   0.312   1.620  0.2334 -0.0482 -1.5240
  270MOL0     C35561   9.725   0.364   1.668 -0.0494  0.2615 -0.1965
  270MOL0     C35562  10.077   0.405   1.962  0.2323 -0.5952  0.6885
  270MOL0     C35563  10.102   0.541   1.932 -0.1829 -0.0411  0.4544
  270MOL0     C35564  10.231   0.601   1.962  0.1565 -0.9590  0.3395
  270MOL0     C35565  10.327   0.530   2.041 -0.7321  0.0999  0.1724
  270MOL0     O35566  10.444   0.597   2.070  0.8035 -0.1522  0.2348
  270MOL0     C35567  10.546   0.536   2.150 -0.6989 -0.1245 -0.1269
  270MOL0     C35568  10.641   0.653   2.191  0.3331  0.4045 -0.6627
  270MOL0     C35569  10.719   0.725   2.071  0.3612  0.0815 -0.0758
  270MOL0     C35570  10.848   0.792   2.122  0.1746 -0.0095  0.9083
  270MOL0     C35571  10.941   0.689   2.157  0.4760  0.0479  0.5389
  270MOL0     C35572  11.028   0.614   2.186 -0.5009 -0.5332  0.0233
  270MOL0     C35573  10.300   0.398   2.072  1.1190 -0.1648 -0.0876
  270MOL0     C35574  10.174   0.337   2.035 -0.9719 -0.3404 -0.6508
  270MOL0     H35575   9.662   0.313   1.997  1.2898 -0.2144  1.0510
  270MOL0     H35576   9.458   0.203   1.898  1.6885 -0.5393  1.6986
  270MOL0     H35577   9.286   0.337   1.641  0.8505  0.2756  0.2616
  270MOL0     H35578   9.237   0.178   1.721 -3.1123 -1.9510 -2.1694
  270MOL0     H35579   9.204   0.058   1.538 -0.8674 -0.0036  0.9164
  270MOL0     H35580   9.255   0.173   1.412 -1.6365  1.0460 -2.0897
  270MOL0     H35581   9.048   0.312   1.527 -1.4301 -0.4189  0.9690
  270MOL0     H35582   8.992   0.164   1.590 -3.5016  0.2267 -3.1223
  270MOL0     H35583   9.039   0.220   1.296 -0.7057 -0.5015 -0.1972
  270MOL0     H35584   8.989   0.065   1.370  0.6690 -1.2881  2.0966
  270MOL0     H35585   8.798   0.232   1.274 -0.0927  3.5573  0.1359
  270MOL0     H35586   8.834   0.316   1.423 -0.1791 -0.2799 -1.0525
  270MOL0     H35587   8.804   0.093   1.549  4.3754  2.9068 -1.3561
  270MOL0     H35588   8.743   0.026   1.406 -0.9321  0.3033 -2.4638
  270MOL0     H35589   8.568   0.124   1.596  0.5419 -0.4820 -0.5262
  270MOL0     H35590   8.645   0.284   1.545 -0.4900 -0.5860  0.4210
  270MOL0     H35591   8.523   0.104   1.341  1.5049  0.4085 -0.7290
  270MOL0     H35592   8.549   0.270   1.326 -0.5602 -1.3739 -0.5096
  270MOL0     H35593   8.386   0.279   1.649 -0.7726  0.9165  0.6591
  270MOL0     H35594   8.140   0.305   1.732  1.9641 -1.8322  0.9915
  270MOL0     H35595   8.125   0.125   1.744 -1.3806 -0.2593 -0.3832
  270MOL0     H35596   7.919   0.136   1.601 -0.7407 -0.9558  0.6917
  270MOL0     H35597   7.930   0.311   1.601 -2.6019  0.1872  0.1241
  270MOL0     H35598   7.909   0.140   1.861  1.1838 -0.6873 -2.1851
  270MOL0     H35599   7.894   0.317   1.832 -2.3935  0.7871 -2.0281
  270MOL0     H35600   7.722   0.092   1.718  1.8402 -0.5150  2.6891
  270MOL0     H35601   7.694   0.267   1.687  0.5822  2.0729  0.5107
  270MOL0     H35602   7.465   0.107   1.689  1.2154 -1.9786  0.2906
  270MOL0     H35603   7.238   0.119   1.735  1.8793  0.7914 -1.5308
  270MOL0     H35604   6.866   0.386   2.140 -1.3502  0.0395 -4.7828
  270MOL0     H35605   6.631   0.346   2.174 -0.0687  0.0713  1.3421
  270MOL0     H35606   6.409   0.255   2.178  2.1983  0.7921 -0.1939
  270MOL0     H35607   6.457   0.230   2.350  0.9680  0.8961 -0.7758
  270MOL0     H35608   6.252   0.113   2.398  0.6782 -0.7657  0.6060
  270MOL0     H35609   6.292   0.001   2.283 -0.9695 -0.5810  2.1656
  270MOL0     H35610   6.177   0.126   2.108 -1.1404  0.0445  0.1165
  270MOL0     H35611   6.180   0.265   2.204  2.4930  0.1721  2.1123
  270MOL0     H35612   6.033   0.013   2.287 -0.7645  1.5996  2.2532
  270MOL0     H35613   6.005   0.163   2.362  0.0188  1.1311 -0.3288
  270MOL0     H35614   5.945   0.251   2.120 -1.4921 -0.0983 -2.9271
  270MOL0     H35615   5.829   0.150   2.198  0.6945  1.5129  1.3105
  270MOL0     H35616   5.899  -0.054   2.084 -1.1430  1.8500  1.5508
  270MOL0     H35617   6.021   0.026   1.977 -0.8123 -4.2607 -1.0633
  270MOL0     H35618   5.730   0.067   1.994  0.0954  0.7507 -0.0277
  270MOL0     H35619   5.834   0.176   1.918 -0.7121 -0.0338 -0.1598
  270MOL0     H35620   5.718   0.015   1.757  0.1723 -0.5318  0.7732
  270MOL0     H35621   5.805  -0.116   1.810  4.6359 -0.5470  1.7967
  270MOL0     H35622   6.710  -0.085   2.141 -0.5799 -0.0911 -2.9393
  270MOL0     H35623   6.931  -0.031   2.055 -1.3928 -1.3018  1.1324
  270MOL0     H35624   7.298   0.244   2.139  1.8138  2.4168 -0.8089
  270MOL0     H35625   7.541   0.255   2.092  1.3338 -1.3571 -1.3928
  270MOL0     H35626   9.590   0.312   1.513 -0.1288  2.0880 -1.5054
  270MOL0     H35627   9.796   0.415   1.604  1.9161  0.5392  2.0432
  270MOL0     H35628  10.028   0.606   1.885  0.4337  0.6941  0.4658
  270MOL0     H35629  10.253   0.699   1.921 -0.4414 -2.4934 -4.2252
  270MOL0     H35630  10.603   0.461   2.093 -2.2597 -1.0365 -0.5682
  270MOL0     H35631  10.509   0.484   2.239  0.5690 -1.3828 -0.2889
  270MOL0     H35632  10.588   0.724   2.255  0.3653 -0.4110  0.3003
  270MOL0     H35633  10.716   0.608   2.257 -2.1977 -0.1304  2.1003
  270MOL0     H35634  10.646   0.791   2.022 -2.3556 -1.7839  1.2063
  270MOL0     H35635  10.743   0.657   1.990  0.1716  0.1119 -0.1603
  270MOL0     H35636  10.893   0.864   2.054 -0.0239  2.3973  3.1464
  270MOL0     H35637  10.822   0.861   2.203  0.0359  0.2831  0.6168
  270MOL0     H35638  11.115   0.560   2.217 -0.3961 -0.0026  0.6785
  270MOL0     H35639  10.371   0.330   2.117  2.0166  0.6992 -0.1579
  270MOL0     H35640  10.148   0.234   2.060  2.7508 -1.6132 -1.3699
  271MOL0     O35641   3.898   9.710   2.369 -0.0592 -0.1975 -0.7602
  271MOL0     C35642   3.861   9.746   2.256 -1.3290 -1.0772  0.0919
  271MOL0     O35643   3.742   9.738   2.199  0.2097  0.2563 -0.1469
  271MOL0     C35644   3.633   9.669   2.265 -0.2246  0.1404  0.5716
  271MOL0     C35645   3.507   9.697   2.212 -0.0298  0.5430  0.2861
  271MOL0     C35646   3.394   9.636   2.259 -0.6979  0.3589  1.0654
  271MOL0     C35647   3.389   9.526   2.347 -0.9714  0.7331  0.4179
  271MOL0     O35648   3.287   9.442   2.384 -0.0120 -0.5675 -0.1440
  271MOL0     C35649   3.156   9.494   2.359  0.6979  0.0822 -0.3640
  271MOL0     C35650   3.106   9.421   2.236  0.1330  0.1501  0.5550
  271MOL0     C35651   2.947   9.413   2.234 -0.3605 -0.0030  0.7743
  271MOL0     C35652   2.898   9.311   2.126  0.0255 -0.0157 -0.1160
  271MOL0     C35653   2.755   9.256   2.131 -0.1298  0.6236 -1.7462
  271MOL0     C35654   2.665   9.371   2.157 -0.0522 -0.6678  0.5598
  271MOL0     C35655   2.522   9.320   2.127 -0.8788  0.1103  0.0990
  271MOL0     C35656   2.470   9.246   2.248  0.1343  0.0723 -0.3162
  271MOL0     N35657   2.321   9.236   2.261  0.0586  0.0147 -0.7061
  271MOL0     C35658   2.249   9.130   2.213  0.4890 -0.4176 -0.3122
  271MOL0     C35659   2.137   9.145   2.283 -0.3671  0.2122  0.6351
  271MOL0     C35660   2.023   9.052   2.308  0.1121 -0.2491  0.3315
  271MOL0     C35661   2.071   8.904   2.341  0.3589  0.1422 -0.5948
  271MOL0     C35662   2.109   8.900   2.494  0.4859 -0.1824  1.1376
  271MOL0     C35663   2.143   8.753   2.534 -0.1967 -0.6453 -1.1900
  271MOL0     O35664   2.043   8.655   2.497 -0.4905  0.1847  0.6699
  271MOL0     C35665   1.916   8.649   2.548 -0.9469  1.0814  0.1975
  271MOL0     C35666   1.896   8.679   2.687  0.8932  0.3434 -0.4813
  271MOL0     C35667   1.766   8.651   2.743  0.0745 -0.4471  0.3391
  271MOL0     C35668   1.659   8.618   2.654  0.3278 -0.7506  0.2026
  271MOL0     C35669   1.520   8.609   2.714  0.5300 -0.5480  0.6625
  271MOL0     O35670   1.424   8.598   2.619  0.0705  0.0214 -0.6059
  271MOL0     C35671   1.289   8.601   2.649  0.4669  0.4518  0.5547
  271MOL0     C35672   1.218   8.582   2.531 -0.1963 -0.5091  0.1949
  271MOL0     C35673   1.077   8.597   2.525 -0.0651  0.2211  0.2287
  271MOL0     C35674   1.004   8.602   2.642 -0.8644  0.2155  1.3951
  271MOL0     O35675   0.866   8.620   2.650  0.2146 -0.5188  0.7913
  271MOL0     C35676   0.792   8.536   2.572 -0.2755 -0.4698  0.8865
  271MOL0     C35677   0.648   8.579   2.584 -0.3030 -0.0187  0.2133
  271MOL0     C35678   0.622   8.718   2.522  0.6317 -0.6963 -0.6465
  271MOL0     C35679   0.477   8.741   2.480 -0.1641  0.0709 -0.6865
  271MOL0     C35680   0.441   8.880   2.431  0.3854 -0.1721  0.5918
  271MOL0     C35681   0.537   8.918   2.318 -0.0616  0.0473  0.8692
  271MOL0     C35682   0.510   9.065   2.264 -0.3906  0.3955  0.5141
  271MOL0     C35683   0.351   9.097   2.242 -0.0066  0.6091  0.2893
  271MOL0    Cl35684   0.322   9.226   2.116 -0.1626  0.0536 -0.0135
  271MOL0     C35685   1.078   8.612   2.758 -0.1516 -0.0057  0.0532
  271MOL0     C35686   1.220   8.615   2.765  0.4303  0.2124  0.1568
  271MOL0     O35687   1.502   8.633   2.831 -0.4443 -0.8912 -0.6283
  271MOL0     C35688   1.683   8.612   2.515 -0.2693  0.2937 -0.3306
  271MOL0     C35689   1.808   8.625   2.463  0.2049  0.1183 -0.1249
  271MOL0     N35690   2.145   9.259   2.356 -0.8505  0.5340 -0.2874
  271MOL0     N35691   2.249   9.319   2.337 -0.1508  0.3923  0.5484
  271MOL0     C35692   3.525   9.488   2.391  0.2196  0.9509  0.2441
  271MOL0     C35693   3.644   9.555   2.351  0.7292 -0.3219  0.8786
  271MOL0     C35694   3.969   9.802   2.172 -0.2454 -1.3855  0.4318
  271MOL0     C35695   4.088   9.852   2.232  0.2376  0.2081 -0.2710
  271MOL0     C35696   4.190   9.899   2.146  0.4657 -0.1788 -0.0860
  271MOL0     C35697   4.180   9.900   2.004  0.2622 -0.2955 -0.1466
  271MOL0     O35698   4.278   9.934   1.913  0.3663 -0.6099 -0.3197
  271MOL0     C35699   4.405  10.002   1.937  0.0772  0.3448  0.1748
  271MOL0     C35700   4.502   9.977   1.822  0.0172 -0.6343 -0.6382
  271MOL0     C35701   4.460  10.033   1.684 -0.2070  0.2279  0.4573
  271MOL0     C35702   4.486  10.190   1.674 -0.9526  0.0027 -0.3687
  271MOL0     C35703   4.626  10.215   1.696  0.0544  0.9536  0.1118
  271MOL0     C35704   4.740  10.257   1.716 -0.0146 -0.5944 -0.3278
  271MOL0     C35705   4.062   9.852   1.948 -0.3054 -0.1994  0.1763
  271MOL0     C35706   3.956   9.805   2.025  0.5951 -0.2069 -0.1584
  271MOL0     H35707   3.484   9.761   2.128  1.3870  0.2091 -0.3993
  271MOL0     H35708   3.297   9.658   2.215 -0.1235 -2.5796 -2.1647
  271MOL0     H35709   3.139   9.601   2.347 -1.4419 -0.0899  0.5953
  271MOL0     H35710   3.094   9.445   2.435  0.8842 -4.1614 -2.6159
  271MOL0     H35711   3.133   9.315   2.228 -1.7591 -0.6384  3.2903
  271MOL0     H35712   3.134   9.470   2.142  2.5308 -4.2695 -1.3790
  271MOL0     H35713   2.906   9.513   2.216  0.6140  0.5920  1.7547
  271MOL0     H35714   2.910   9.385   2.334 -0.3235  1.2023  1.1452
  271MOL0     H35715   2.891   9.355   2.026 -1.6896  1.5152  0.6038
  271MOL0     H35716   2.972   9.232   2.119  1.2054  0.9836  0.5677
  271MOL0     H35717   2.747   9.191   2.219  3.3449 -0.6095 -2.2124
  271MOL0     H35718   2.725   9.196   2.045 -0.0525  0.7800 -1.8812
  271MOL0     H35719   2.689   9.446   2.081 -1.5759 -1.8917 -1.2294
  271MOL0     H35720   2.661   9.421   2.254 -0.6869  0.2703  0.0663
  271MOL0     H35721   2.468   9.414   2.108 -0.6036  0.2839  0.1740
  271MOL0     H35722   2.515   9.260   2.036 -5.3742  0.2339  0.1271
  271MOL0     H35723   2.507   9.297   2.338 -0.1965  0.2098 -0.2570
  271MOL0     H35724   2.508   9.143   2.240  1.0122  0.3408  0.2658
  271MOL0     H35725   2.291   9.052   2.152  1.6623  0.4045 -0.6014
  271MOL0     H35726   1.971   9.061   2.212  4.3403  2.8842 -2.0338
  271MOL0     H35727   1.948   9.082   2.382 -0.8898  0.3182 -0.8698
  271MOL0     H35728   2.154   8.869   2.280  3.1546  1.2232  2.3499
  271MOL0     H35729   1.987   8.834   2.330  1.3734 -1.3297  0.5420
  271MOL0     H35730   2.189   8.971   2.515  0.3470  0.3025  0.1183
  271MOL0     H35731   2.016   8.918   2.548  0.6500  0.2271  1.2834
  271MOL0     H35732   2.153   8.746   2.643  0.5214 -1.4897 -1.2953
  271MOL0     H35733   2.239   8.733   2.485 -1.7748 -3.6595 -3.3587
  271MOL0     H35734   1.972   8.710   2.759  0.4960  1.4423 -0.5266
  271MOL0     H35735   1.750   8.676   2.847 -1.7332  3.2836 -0.6840
  271MOL0     H35736   1.279   8.576   2.442  0.9165  0.1732  0.8833
  271MOL0     H35737   1.028   8.601   2.428  0.9860  2.2836 -0.2630
  271MOL0     H35738   0.803   8.433   2.606  0.6482 -0.7326 -0.1195
  271MOL0     H35739   0.826   8.538   2.468 -3.7611  1.0814 -0.3760
  271MOL0     H35740   0.610   8.571   2.686  0.0220 -0.1076  0.3295
  271MOL0     H35741   0.592   8.496   2.540 -2.1536  0.9378  0.6469
  271MOL0     H35742   0.695   8.739   2.443  1.1168  1.3392  0.2732
  271MOL0     H35743   0.648   8.791   2.599  0.9033 -0.7671 -0.6678
  271MOL0     H35744   0.453   8.665   2.404  3.4522 -0.1691 -1.7838
  271MOL0     H35745   0.413   8.711   2.563  0.2947 -1.5178 -0.8543
  271MOL0     H35746   0.444   8.946   2.518  0.0944 -1.8230  1.9048
  271MOL0     H35747   0.334   8.878   2.408 -0.1340  1.8410  2.4663
  271MOL0     H35748   0.531   8.843   2.239 -3.2626 -0.2871  1.3197
  271MOL0     H35749   0.641   8.913   2.352  1.6832  2.1011 -3.3541
  271MOL0     H35750   0.550   9.143   2.329  2.1827 -2.8939  3.2485
  271MOL0     H35751   0.565   9.080   2.171 -0.7929 -1.0705  0.0077
  271MOL0     H35752   0.314   9.137   2.337 -1.3356  2.6803 -1.0248
  271MOL0     H35753   0.296   9.008   2.210  2.1474 -0.8951  0.5567
  271MOL0     H35754   1.010   8.644   2.837 -0.1228  0.7816 -0.2321
  271MOL0     H35755   1.265   8.643   2.859 -2.1202  0.8792  1.2776
  271MOL0     H35756   1.615   8.592   2.433 -0.8818 -2.7393  0.7886
  271MOL0     H35757   1.818   8.599   2.358  1.6347 -1.0723  0.2684
  271MOL0     H35758   3.533   9.414   2.470 -0.6216  1.2700  0.6362
  271MOL0     H35759   3.744   9.518   2.372  1.8024  0.8623 -1.7829
  271MOL0     H35760   4.115   9.844   2.337 -1.8641 -1.1455  0.2218
  271MOL0     H35761   4.284   9.924   2.194 -0.5599  1.9495  0.9478
  271MOL0     H35762   4.452   9.988   2.035  0.5089  1.9771  0.2162
  271MOL0     H35763   4.387  10.109   1.946 -3.8164  0.0181 -1.9004
  271MOL0     H35764   4.605   9.997   1.854 -0.2130 -2.7195  1.6888
  271MOL0     H35765   4.501   9.869   1.807 -1.7573 -0.5369 -1.5665
  271MOL0     H35766   4.353  10.019   1.670  0.2296 -3.5334 -0.2089
  271MOL0     H35767   4.507   9.975   1.604 -1.7558 -1.7074  0.8860
  271MOL0     H35768   4.444  10.213   1.576 -0.4230 -0.3866 -0.6869
  271MOL0     H35769   4.421  10.242   1.745 -1.4722  2.0016 -2.1836
  271MOL0     H35770   4.831  10.301   1.751  0.1147 -3.1844  3.0844
  271MOL0     H35771   4.056   9.850   1.839 -1.2586 -1.2560  0.2247
  271MOL0     H35772   3.878   9.763   1.963  0.9064  4.3909 -4.3237
  272MOL0     O35773   4.257  11.092   1.467  0.4000 -0.1841 -0.0272
  272MOL0     C35774   4.264  11.166   1.559 -0.2777 -0.0647 -0.7416
  272MOL0     O35775   4.161  11.220   1.624 -0.4194 -0.5443 -0.3230
  272MOL0     C35776   4.040  11.256   1.561 -0.0961 -0.6158  0.5222
  272MOL0     C35777   4.019  11.384   1.507  0.1084 -0.4077  0.6369
  272MOL0     C35778   3.903  11.422   1.435 -0.1851  0.0781  0.2224
  272MOL0     C35779   3.815  11.314   1.399 -0.2780  0.5851 -0.3234
  272MOL0     O35780   3.712  11.340   1.308  0.7269 -0.9048  0.6516
  272MOL0     C35781   3.590  11.264   1.317 -0.2845  0.0214 -0.2563
  272MOL0     C35782   3.475  11.348   1.287  0.2454  1.0324 -0.5624
  272MOL0     C35783   3.349  11.290   1.356  1.1337 -1.0056  0.0121
  272MOL0     C35784   3.231  11.357   1.295 -0.4208 -0.4505  0.7481
  272MOL0     C35785   3.103  11.305   1.363 -0.8135  0.3087  0.4198
  272MOL0     C35786   2.991  11.387   1.294  0.4091  0.0138 -0.4645
  272MOL0     C35787   2.839  11.348   1.327  1.1835 -0.8062 -0.6061
  272MOL0     C35788   2.743  11.457   1.277 -0.2925  0.7817  0.0096
  272MOL0     N35789   2.605  11.420   1.308  0.3090 -0.0919  1.1577
  272MOL0     C35790   2.569  11.360   1.428 -0.2807  0.0125 -0.4117
  272MOL0     C35791   2.439  11.342   1.408 -0.5543  0.1135  0.2211
  272MOL0     C35792   2.347  11.259   1.491 -0.3635  0.2196 -0.8391
  272MOL0     C35793   2.204  11.242   1.432 -0.5485  0.4496 -0.2282
  272MOL0     C35794   2.130  11.144   1.522 -0.1380 -0.0912  0.4931
  272MOL0     C35795   1.984  11.135   1.478 -0.5377 -0.8238  0.7713
  272MOL0     O35796   1.905  11.063   1.567  0.5382  0.2498 -0.2658
  272MOL0     C35797   1.772  11.063   1.530  0.2311  0.3783 -0.3776
  272MOL0     C35798   1.722  10.956   1.455 -0.1819  0.2686 -0.6532
  272MOL0     C35799   1.592  10.940   1.423  0.8537 -0.1782  0.5806
  272MOL0     C35800   1.500  11.038   1.465  0.3423 -0.3444  0.5931
  272MOL0     C35801   1.359  11.033   1.413  0.3600 -1.1693  0.6101
  272MOL0     O35802   1.325  10.942   1.320 -0.6631  0.4587  0.0928
  272MOL0     C35803   1.200  10.941   1.268  0.5131  0.6295  0.2308
  272MOL0     C35804   1.176  11.014   1.155 -0.1177 -0.1582  0.8267
  272MOL0     C35805   1.044  11.039   1.109  0.6253  0.0734 -0.1462
  272MOL0     C35806   0.932  10.972   1.180 -0.2117 -0.2983  0.2477
  272MOL0     O35807   0.800  10.992   1.144 -0.2256  0.2173 -0.3483
  272MOL0     C35808   0.766  11.101   1.072 -0.6929 -0.5112 -0.0109
  272MOL0     C35809   0.622  11.142   1.094  0.2702 -0.0213  0.0431
  272MOL0     C35810   0.574  11.129   1.240  0.6233 -0.7141 -0.8729
  272MOL0     C35811   0.635  11.235   1.333 -0.5866  0.4043 -0.2184
  272MOL0     C35812   0.603  11.203   1.478  0.5837  0.4485 -0.3143
  272MOL0     C35813   0.454  11.177   1.505  0.4839 -0.5824 -0.1232
  272MOL0     C35814   0.365  11.305   1.490 -0.8402  0.0105  0.4972
  272MOL0     C35815   0.233  11.306   1.561  0.9657 -0.0084  0.4501
  272MOL0    Cl35816   0.109  11.411   1.515  0.2740 -0.7433 -0.1312
  272MOL0     C35817   0.960  10.883   1.287 -0.4396  0.0020  0.2430
  272MOL0     C35818   1.089  10.868   1.329  0.1374  0.3384  0.1273
  272MOL0     O35819   1.282  11.119   1.470 -0.5448 -0.1926  0.2477
  272MOL0     C35820   1.547  11.159   1.526  0.2882  0.1059  0.4630
  272MOL0     C35821   1.679  11.175   1.557  0.6883 -0.7271 -0.6923
  272MOL0     N35822   2.387  11.410   1.297 -0.7291  1.0675  0.6223
  272MOL0     N35823   2.495  11.456   1.231 -0.1963  0.3959  0.6962
  272MOL0     C35824   3.842  11.187   1.446  0.3690  0.3072  0.3648
  272MOL0     C35825   3.944  11.159   1.528  0.0799  0.0055  0.4403
  272MOL0     C35826   4.396  11.171   1.624 -1.2869  0.7599 -0.3894
  272MOL0     C35827   4.419  11.183   1.764  0.2673  1.0829 -0.2767
  272MOL0     C35828   4.545  11.194   1.816 -1.3659 -0.0972 -0.0591
  272MOL0     C35829   4.653  11.192   1.732 -1.0435  0.5189 -0.2762
  272MOL0     O35830   4.782  11.231   1.776  0.0454  0.4619  0.9235
  272MOL0     C35831   4.904  11.197   1.704  0.0736 -0.0658  0.2937
  272MOL0     C35832   5.035  11.234   1.773  0.2258  1.7326  0.5400
  272MOL0     C35833   5.069  11.391   1.778 -0.2148  0.1705 -0.0922
  272MOL0     C35834   5.206  11.422   1.839  0.0315  0.4306  0.3941
  272MOL0     C35835   5.236  11.564   1.841  0.3571 -0.1870  0.6441
  272MOL0     C35836   5.245  11.683   1.868  0.5692  0.3739  0.4657
  272MOL0     C35837   4.636  11.154   1.596 -0.5088 -0.8169 -0.0959
  272MOL0     C35838   4.505  11.145   1.550 -0.2159 -0.0304  0.2567
  272MOL0     H35839   4.094  11.460   1.526  0.0807 -0.4138  0.7735
  272MOL0     H35840   3.880  11.513   1.380 -4.3508 -0.5189  0.6780
  272MOL0     H35841   3.578  11.215   1.414 -3.0964 -1.4250 -1.2209
  272MOL0     H35842   3.597  11.183   1.245  0.6334 -2.4616  2.4211
  272MOL0     H35843   3.457  11.350   1.179  0.5289  2.6622 -0.6021
  272MOL0     H35844   3.501  11.451   1.315  1.5269  0.6251 -0.1692
  272MOL0     H35845   3.332  11.312   1.461  1.4848 -0.6825  0.0029
  272MOL0     H35846   3.337  11.184   1.331  0.2951 -1.6850  2.9619
  272MOL0     H35847   3.244  11.465   1.306 -0.9456 -0.2931 -0.1022
  272MOL0     H35848   3.234  11.333   1.189  3.0295  1.4889  0.2533
  272MOL0     H35849   3.095  11.323   1.470 -0.0114  1.7235  0.2601
  272MOL0     H35850   3.098  11.196   1.348  1.0804 -0.0461  1.9921
  272MOL0     H35851   2.997  11.390   1.185  0.6848 -0.5597 -0.4701
  272MOL0     H35852   2.998  11.491   1.329 -1.0727  0.6061 -1.8522
  272MOL0     H35853   2.811  11.262   1.266 -3.5014  1.0428 -1.4679
  272MOL0     H35854   2.816  11.332   1.433 -2.3708  0.0452 -1.1226
  272MOL0     H35855   2.752  11.467   1.168  1.4177 -0.8583 -0.0478
  272MOL0     H35856   2.763  11.548   1.335 -1.0950  1.2734 -0.4613
  272MOL0     H35857   2.627  11.332   1.516  2.4847 -0.6080 -2.3053
  272MOL0     H35858   2.336  11.292   1.595 -1.8483 -0.8660 -0.6180
  272MOL0     H35859   2.379  11.154   1.494 -1.7105 -0.2283 -1.3734
  272MOL0     H35860   2.217  11.211   1.328  2.8886 -1.5872  0.6725
  272MOL0     H35861   2.156  11.341   1.429 -1.1269  0.1927  0.3036
  272MOL0     H35862   2.170  11.047   1.493 -0.7644 -0.3201  0.3713
  272MOL0     H35863   2.139  11.176   1.626 -2.0233  0.7742  0.4300
  272MOL0     H35864   1.975  11.093   1.378 -0.3123  1.6297 -0.3445
  272MOL0     H35865   1.951  11.239   1.477  2.8570  0.4211  2.1718
  272MOL0     H35866   1.787  10.876   1.419 -1.8032 -1.1088 -0.6452
  272MOL0     H35867   1.569  10.849   1.369  3.1731  0.4103 -1.6403
  272MOL0     H35868   1.253  11.070   1.102 -0.2475  0.6567  1.4820
  272MOL0     H35869   1.025  11.094   1.017  0.5184 -0.4890 -0.4622
  272MOL0     H35870   0.771  11.088   0.964 -0.8174  3.7547 -0.7178
  272MOL0     H35871   0.826  11.190   1.094 -0.8653 -0.9329  2.4908
  272MOL0     H35872   0.555  11.070   1.046  0.1266  1.6660 -2.5455
  272MOL0     H35873   0.595  11.240   1.054 -0.9400 -0.7331 -0.9679
  272MOL0     H35874   0.589  11.028   1.280  0.8913 -0.8177 -1.2264
  272MOL0     H35875   0.466  11.143   1.241  0.8475  1.5850 -1.6745
  272MOL0     H35876   0.743  11.238   1.315 -0.1475 -2.0725  1.6185
  272MOL0     H35877   0.596  11.334   1.307 -1.5178  0.5855  1.7178
  272MOL0     H35878   0.643  11.275   1.550  0.7554 -1.0231  1.0929
  272MOL0     H35879   0.659  11.111   1.494  0.7356  0.3604 -1.2871
  272MOL0     H35880   0.448  11.144   1.609 -1.3153  1.8308  0.6333
  272MOL0     H35881   0.423  11.090   1.446 -2.3276  0.5209 -0.4630
  272MOL0     H35882   0.436  11.387   1.505 -0.1328 -0.3879 -0.5107
  272MOL0     H35883   0.349  11.318   1.382  1.3109  1.3791  0.2829
  272MOL0     H35884   0.249  11.333   1.666  1.3976 -2.9677  1.2249
  272MOL0     H35885   0.192  11.205   1.567 -1.4076  0.9419  3.8156
  272MOL0     H35886   0.877  10.831   1.335  0.1151  1.3371  2.8857
  272MOL0     H35887   1.114  10.799   1.409  0.8657 -1.9757 -1.9580
  272MOL0     H35888   1.474  11.237   1.543 -1.0689 -1.6977  3.8817
  272MOL0     H35889   1.719  11.267   1.598 -1.1975 -1.0979  2.2327
  272MOL0     H35890   3.773  11.111   1.410  1.3720  0.4726 -2.1079
  272MOL0     H35891   3.961  11.053   1.544  0.1920 -0.0241  0.1247
  272MOL0     H35892   4.333  11.209   1.824  2.1896  2.5799  2.0467
  272MOL0     H35893   4.562  11.228   1.918 -0.9860  0.8964 -0.4360
  272MOL0     H35894   4.904  11.250   1.608 -0.3978 -2.0528 -0.8600
  272MOL0     H35895   4.901  11.090   1.682 -0.8319 -0.0555  0.3077
  272MOL0     H35896   5.036  11.182   1.869  1.2439 -3.2693 -1.8262
  272MOL0     H35897   5.111  11.168   1.730  0.5703  0.3719  3.0541
  272MOL0     H35898   4.991  11.442   1.834 -2.8417 -0.2288 -3.1356
  272MOL0     H35899   5.075  11.429   1.676  0.4461 -1.8119 -0.8490
  272MOL0     H35900   5.214  11.383   1.941 -2.1156 -1.4067 -0.0488
  272MOL0     H35901   5.294  11.369   1.801 -0.8738 -2.0739  1.5539
  272MOL0     H35902   5.251  11.789   1.881 -3.3379  0.4433  3.7072
  272MOL0     H35903   4.727  11.145   1.538  0.5592 -0.6506  1.4615
  272MOL0     H35904   4.500  11.135   1.442 -0.8190  0.9557  0.1795
  273MOL0     O35905  10.577   6.533   8.113 -0.2963 -0.1118  0.2759
  273MOL0     C35906  10.614   6.414   8.090  0.9942  0.1529 -0.3472
  273MOL0     O35907  10.546   6.300   8.114  0.4057 -0.7971 -0.4248
  273MOL0     C35908  10.420   6.298   8.164  0.9101  0.4310 -0.1205
  273MOL0     C35909  10.379   6.190   8.246 -0.0182 -0.7532  0.7239
  273MOL0     C35910  10.241   6.183   8.287 -0.0739  1.1094 -0.0333
  273MOL0     C35911  10.143   6.270   8.243  0.8216  0.9369  0.5356
  273MOL0     O35912  10.018   6.234   8.287 -0.7983  0.0109  0.1423
  273MOL0     C35913   9.900   6.304   8.246 -0.7495  0.1487 -0.4328
  273MOL0     C35914   9.814   6.187   8.182  0.5152 -0.0060  0.0895
  273MOL0     C35915   9.693   6.260   8.095  0.1377 -0.7001  0.4785
  273MOL0     C35916   9.570   6.288   8.177 -0.4808 -0.4358  0.3999
  273MOL0     C35917   9.482   6.162   8.186  0.5081  0.0234  0.5359
  273MOL0     C35918   9.343   6.190   8.250  0.3037  0.0420 -0.0939
  273MOL0     C35919   9.341   6.233   8.394 -0.4380 -0.6972  0.1748
  273MOL0     C35920   9.230   6.181   8.481 -0.6372 -0.0110 -0.1138
  273MOL0     N35921   9.106   6.249   8.471  0.5158  0.1349  0.0916
  273MOL0     C35922   9.031   6.276   8.356 -0.2038  0.0693 -0.1771
  273MOL0     C35923   8.914   6.330   8.392  0.0723 -0.6539  0.8472
  273MOL0     C35924   8.807   6.390   8.300  0.4912  0.7516 -0.3980
  273MOL0     C35925   8.722   6.493   8.374 -0.7633  0.1988  0.5780
  273MOL0     C35926   8.628   6.562   8.279  0.5900  0.0201 -1.0911
  273MOL0     C35927   8.500   6.481   8.267  0.0395  0.0010  0.4581
  273MOL0     O35928   8.430   6.474   8.396  0.8520  0.0798 -0.2876
  273MOL0     C35929   8.299   6.441   8.370 -0.1188  0.5314  0.4366
  273MOL0     C35930   8.203   6.535   8.395  0.4627 -0.0595 -0.4790
  273MOL0     C35931   8.067   6.495   8.382  0.1723  0.5717  0.4751
  273MOL0     C35932   8.030   6.369   8.333  0.3394 -0.1078 -0.1807
  273MOL0     C35933   7.894   6.330   8.338  0.6015 -0.0532  0.5823
  273MOL0     O35934   7.801   6.423   8.380 -0.2448 -0.7579  0.5215
  273MOL0     C35935   7.670   6.399   8.399 -0.8015 -0.1530 -0.4818
  273MOL0     C35936   7.594   6.342   8.298  0.4528  0.2021 -0.6015
  273MOL0     C35937   7.462   6.315   8.304 -0.5003  1.2263  0.0105
  273MOL0     C35938   7.390   6.358   8.416 -0.0643 -0.3616 -0.6012
  273MOL0     O35939   7.253   6.351   8.419  0.1215  0.2451  1.0143
  273MOL0     C35940   7.174   6.349   8.542 -0.0170 -0.3619  0.2479
  273MOL0     C35941   7.053   6.262   8.545  0.3509  0.5111  1.3702
  273MOL0     C35942   6.984   6.268   8.680 -0.1262  0.1314  0.1638
  273MOL0     C35943   6.843   6.201   8.661  0.6256  0.6273  0.5410
  273MOL0     C35944   6.767   6.223   8.798  0.6042  0.5826 -0.6380
  273MOL0     C35945   6.639   6.154   8.807 -0.0599  0.4290 -0.2964
  273MOL0     C35946   6.557   6.180   8.928  0.0217 -0.6472  0.3055
  273MOL0     C35947   6.408   6.134   8.930 -0.5386 -1.0795 -0.1503
  273MOL0    Cl35948   6.399   5.961   8.948  0.4166 -0.1530  0.0030
  273MOL0     C35949   7.469   6.409   8.529  0.7360  0.8373 -0.0104
  273MOL0     C35950   7.605   6.425   8.519 -0.3526 -0.1629 -0.6444
  273MOL0     O35951   7.870   6.213   8.315  0.3911 -0.2517  0.6974
  273MOL0     C35952   8.134   6.277   8.302 -0.2269  0.0154 -0.4944
  273MOL0     C35953   8.266   6.315   8.325 -0.2075 -1.4127  0.5069
  273MOL0     N35954   8.922   6.340   8.529  0.3446 -0.1907  0.4408
  273MOL0     N35955   9.035   6.294   8.573  0.4658  0.2342  0.1874
  273MOL0     C35956  10.184   6.369   8.151  0.2812  0.2365 -0.0138
  273MOL0     C35957  10.318   6.371   8.108 -0.4121 -0.2845 -0.3982
  273MOL0     C35958  10.753   6.384   8.050  0.3391 -0.5838  0.7437
  273MOL0     C35959  10.817   6.258   8.056 -0.7058 -0.2188  0.3628
  273MOL0     C35960  10.938   6.241   7.996  0.4066 -0.1502  0.3662
  273MOL0     C35961  11.010   6.340   7.944 -0.3224  0.3621  0.6667
  273MOL0     O35962  11.138   6.316   7.897 -0.3454 -0.0624 -0.0448
  273MOL0     C35963  11.251   6.333   7.982  0.1080 -0.0565 -0.9615
  273MOL0     C35964  11.315   6.460   7.954  0.9209 -0.0180  0.0642
  273MOL0     C35965  11.428   6.506   8.054 -0.5571 -0.2213 -0.4537
  273MOL0     C35966  11.455   6.657   8.059 -0.4778  0.2936 -0.4883
  273MOL0     C35967  11.591   6.683   8.092 -0.8220 -0.1470 -0.1881
  273MOL0     C35968  11.711   6.715   8.113 -0.8117 -0.0399 -0.9577
  273MOL0     C35969  10.953   6.472   7.951 -0.4108 -0.1562 -0.3270
  273MOL0     C35970  10.825   6.485   7.998  0.5213  0.0216 -0.6250
  273MOL0     H35971  10.463   6.124   8.265  1.5948  1.1244  0.4144
  273MOL0     H35972  10.218   6.092   8.341  3.2036  0.9423  1.3393
  273MOL0     H35973   9.924   6.383   8.175  3.7639 -2.1394 -1.8552
  273MOL0     H35974   9.841   6.338   8.332  1.4743 -3.3208  2.7722
  273MOL0     H35975   9.774   6.118   8.257 -1.0750  0.3927 -0.3530
  273MOL0     H35976   9.886   6.139   8.114  1.4963  1.4855  0.0088
  273MOL0     H35977   9.666   6.208   8.003 -0.3652 -0.1055  0.2821
  273MOL0     H35978   9.744   6.348   8.055  0.2197 -0.8992  0.1394
  273MOL0     H35979   9.603   6.325   8.274  2.1254 -1.4315 -0.0263
  273MOL0     H35980   9.508   6.366   8.132  0.8300 -0.6699 -1.9335
  273MOL0     H35981   9.538   6.094   8.250  1.2612  1.4361  1.4261
  273MOL0     H35982   9.467   6.120   8.086 -0.5025  1.2210  0.1502
  273MOL0     H35983   9.293   6.093   8.242  1.8711 -0.7279 -1.2202
  273MOL0     H35984   9.284   6.250   8.181  1.5868  1.4120 -0.0559
  273MOL0     H35985   9.426   6.195   8.452  0.3777 -0.7489 -1.0266
  273MOL0     H35986   9.347   6.342   8.398 -1.1144 -0.6758  1.0285
  273MOL0     H35987   9.271   6.203   8.580  3.2433 -0.6078 -1.4020
  273MOL0     H35988   9.219   6.072   8.484 -0.3669 -0.0539  3.6347
  273MOL0     H35989   9.075   6.245   8.262  0.6449 -2.9729  1.0776
  273MOL0     H35990   8.735   6.314   8.265  0.6844  1.0731 -1.5513
  273MOL0     H35991   8.854   6.433   8.211 -3.7067  4.7553 -1.0326
  273MOL0     H35992   8.790   6.565   8.422  2.1726 -1.4330 -0.8390
  273MOL0     H35993   8.670   6.449   8.460 -3.7684  1.9022 -0.2555
  273MOL0     H35994   8.589   6.656   8.319 -2.5716 -2.9464  3.8929
  273MOL0     H35995   8.678   6.599   8.189  1.2787  4.7756  0.9655
  273MOL0     H35996   8.510   6.383   8.218 -1.6140  0.4948 -0.9807
  273MOL0     H35997   8.433   6.538   8.202 -0.8704  3.7255  4.2287
  273MOL0     H35998   8.226   6.632   8.437  1.4116 -0.4538 -0.0531
  273MOL0     H35999   7.992   6.569   8.408 -1.8623 -0.6935 -1.4818
  273MOL0     H36000   7.650   6.321   8.208 -0.3336  2.1492 -1.5965
  273MOL0     H36001   7.414   6.268   8.219 -0.3165 -5.0763  2.8949
  273MOL0     H36002   7.149   6.455   8.544 -1.6983 -0.7170  0.2422
  273MOL0     H36003   7.225   6.305   8.627 -2.4593 -0.7037  1.6346
  273MOL0     H36004   7.082   6.158   8.530  1.1978  0.9202  0.0020
  273MOL0     H36005   6.981   6.285   8.466  1.0544 -0.3985  0.4549
  273MOL0     H36006   6.968   6.373   8.703  1.5812  0.3319  0.5728
  273MOL0     H36007   7.047   6.219   8.755 -0.9553 -0.4082  0.5250
  273MOL0     H36008   6.787   6.243   8.576  0.6172  0.9890  0.7256
  273MOL0     H36009   6.842   6.095   8.636 -0.3820  1.0383 -1.3683
  273MOL0     H36010   6.753   6.328   8.826 -0.9072  0.4181 -0.6932
  273MOL0     H36011   6.835   6.184   8.875  0.1648  0.1734 -0.4535
  273MOL0     H36012   6.669   6.049   8.812  0.3842  0.5348 -0.6682
  273MOL0     H36013   6.585   6.165   8.712 -0.3243 -1.5917 -0.4333
  273MOL0     H36014   6.603   6.136   9.017  2.0172  0.5831 -0.0609
  273MOL0     H36015   6.546   6.288   8.941  0.7426 -0.4018 -0.9351
  273MOL0     H36016   6.360   6.172   8.839  1.3139 -1.3196 -1.2937
  273MOL0     H36017   6.366   6.183   9.019  0.7298 -1.7319  0.8407
  273MOL0     H36018   7.418   6.449   8.616 -3.7974  0.2619 -2.1328
  273MOL0     H36019   7.666   6.459   8.602  0.5376 -0.7417 -1.0548
  273MOL0     H36020   8.123   6.176   8.263  0.5543  0.3150 -1.5449
  273MOL0     H36021   8.352   6.252   8.308  1.8402  0.0401  4.3468
  273MOL0     H36022  10.116   6.447   8.116  0.8323  0.6811 -0.1148
  273MOL0     H36023  10.342   6.451   8.039 -0.8403  2.5127  2.4599
  273MOL0     H36024  10.767   6.168   8.090 -2.3873  0.6982  0.4496
  273MOL0     H36025  10.991   6.147   7.999  0.2317 -0.2371  1.0398
  273MOL0     H36026  11.325   6.253   7.974  1.0971  0.9181 -2.2141
  273MOL0     H36027  11.211   6.353   8.081  1.2458 -0.3135 -0.4313
  273MOL0     H36028  11.354   6.444   7.853 -0.7732 -2.8237 -0.2573
  273MOL0     H36029  11.242   6.541   7.951  0.7662 -0.0526  1.9873
  273MOL0     H36030  11.523   6.454   8.036 -1.1494 -1.9230  1.0298
  273MOL0     H36031  11.391   6.486   8.155 -0.6971 -1.1060 -0.6720
  273MOL0     H36032  11.428   6.709   7.967  0.8130 -1.1640 -1.7654
  273MOL0     H36033  11.388   6.691   8.139 -0.4156 -2.5524  0.8990
  273MOL0     H36034  11.815   6.737   8.119 -0.6283 -1.0204 -0.2619
  273MOL0     H36035  11.004   6.553   7.900  0.1347 -0.0643  0.3556
  273MOL0     H36036  10.781   6.580   7.973  0.8231  0.6744  1.1556
  274MOL0     O36037   1.562  11.005   2.667  0.3025 -0.2762  0.3559
  274MOL0     C36038   1.597  11.092   2.588 -0.8959  0.4636  0.7854
  274MOL0     O36039   1.512  11.171   2.521 -0.0287 -0.2313  0.2040
  274MOL0     C36040   1.371  11.158   2.512 -0.7888 -0.2219  0.0996
  274MOL0     C36041   1.293  11.261   2.466  0.1604 -0.5485 -0.6114
  274MOL0     C36042   1.155  11.257   2.443  0.2476 -0.2741 -0.7460
  274MOL0     C36043   1.085  11.138   2.489  0.4921  0.5989 -0.4919
  274MOL0     O36044   0.948  11.105   2.486  1.0380 -0.1298  0.4862
  274MOL0     C36045   0.856  11.212   2.458  0.5461 -0.1584 -1.0693
  274MOL0     C36046   0.747  11.159   2.376  0.4224 -0.1599 -0.2899
  274MOL0     C36047   0.628  11.250   2.376 -0.6830  0.1943  0.1140
  274MOL0     C36048   0.506  11.171   2.342  0.5638 -0.6188 -0.7240
  274MOL0     C36049   0.379  11.245   2.369 -0.3379  0.3194 -0.1867
  274MOL0     C36050   0.259  11.166   2.324  0.1235  1.0112 -0.4883
  274MOL0     C36051   0.125  11.210   2.379  1.1574 -0.6965  0.0548
  274MOL0     C36052   0.072  11.147   2.513 -0.0295 -0.4566  0.5336
  274MOL0     N36053  -0.048  11.224   2.570 -0.2838 -0.3375  0.5307
  274MOL0     C36054  -0.047  11.349   2.635 -0.3866  0.7380  0.6175
  274MOL0     C36055  -0.177  11.379   2.646 -0.1690 -0.2976  0.4238
  274MOL0     C36056  -0.227  11.504   2.694  0.4543  0.3742 -0.1432
  274MOL0     C36057  -0.280  11.485   2.834  0.6255 -0.2590 -0.1911
  274MOL0     C36058  -0.365  11.610   2.887 -0.8287  0.9554 -0.4241
  274MOL0     C36059  -0.489  11.562   2.967  0.0516  0.0320 -0.6619
  274MOL0     O36060  -0.568  11.681   2.963 -0.2721 -0.1187 -0.1080
  274MOL0     C36061  -0.705  11.693   2.929 -0.5229 -0.3781  1.0192
  274MOL0     C36062  -0.785  11.579   2.928 -0.3427 -0.2093  1.1252
  274MOL0     C36063  -0.926  11.588   2.914 -0.6184 -0.3233 -0.3430
  274MOL0     C36064  -0.985  11.716   2.889 -0.1963  0.2082  0.0990
  274MOL0     C36065  -1.133  11.723   2.880  0.2670  0.1944  0.5304
  274MOL0     O36066  -1.191  11.612   2.839  0.4518  0.2298  0.8599
  274MOL0     C36067  -1.328  11.613   2.840  0.5082 -1.0243  0.0204
  274MOL0     C36068  -1.399  11.623   2.723 -1.0058  0.4705  0.0181
  274MOL0     C36069  -1.528  11.643   2.727  1.1132 -0.6689  0.0037
  274MOL0     C36070  -1.596  11.663   2.846  0.8499  0.5239 -0.5496
  274MOL0     O36071  -1.733  11.669   2.838 -0.2103 -0.4217  0.3541
  274MOL0     C36072  -1.805  11.723   2.944 -0.1679  0.8015 -0.6613
  274MOL0     C36073  -1.925  11.805   2.907  0.5683 -0.1957 -0.1220
  274MOL0     C36074  -1.999  11.766   2.779  0.7891 -0.1049  0.4898
  274MOL0     C36075  -2.106  11.658   2.824  0.8844 -0.8868  0.2548
  274MOL0     C36076  -2.207  11.643   2.707 -0.2876  0.3140  0.2055
  274MOL0     C36077  -2.317  11.546   2.744  0.4674  0.2005 -0.4030
  274MOL0     C36078  -2.278  11.398   2.753  0.8184 -0.2296 -0.8009
  274MOL0     C36079  -2.395  11.305   2.747 -0.5490 -0.1668  0.5299
  274MOL0    Cl36080  -2.463  11.312   2.916  0.2513 -0.6828  0.0212
  274MOL0     C36081  -1.529  11.655   2.969 -0.8466  0.4819  0.0035
  274MOL0     C36082  -1.397  11.625   2.960 -0.3178  0.1967  0.0670
  274MOL0     O36083  -1.177  11.823   2.931  0.1397  0.4049 -0.3500
  274MOL0     C36084  -0.903  11.834   2.890  0.2430 -0.1161  0.0534
  274MOL0     C36085  -0.766  11.818   2.905 -0.5758  0.1005 -0.0567
  274MOL0     N36086  -0.256  11.283   2.583 -0.6345 -0.3214 -0.0661
  274MOL0     N36087  -0.178  11.194   2.535 -0.0795 -0.0877  0.2252
  274MOL0     C36088   1.157  11.036   2.544  0.0492  0.0584  0.1195
  274MOL0     C36089   1.296  11.042   2.550  0.4177  0.1293  0.0164
  274MOL0     C36090   1.744  11.095   2.560  0.6604 -0.6261  0.0463
  274MOL0     C36091   1.794  11.194   2.483  0.1821 -0.1314 -0.9264
  274MOL0     C36092   1.918  11.182   2.435 -0.0170 -0.7659  0.0177
  274MOL0     C36093   1.998  11.070   2.470  0.2983  0.2565  0.2553
  274MOL0     O36094   2.122  11.063   2.400 -0.6236  1.0082 -0.4369
  274MOL0     C36095   2.223  10.982   2.450 -0.8097  0.5450  1.1338
  274MOL0     C36096   2.348  11.005   2.364 -0.0382 -0.1758  0.1829
  274MOL0     C36097   2.450  10.910   2.427  0.2814 -0.0217  0.0751
  274MOL0     C36098   2.574  10.912   2.350 -0.4967  0.5919 -0.1748
  274MOL0     C36099   2.683  10.833   2.410 -0.8492  0.0876  0.1756
  274MOL0     C36100   2.779  10.767   2.457 -0.0265 -1.1014 -0.3372
  274MOL0     C36101   1.948  10.966   2.561 -0.2650 -0.1621  0.1971
  274MOL0     C36102   1.816  10.986   2.607 -0.3302 -0.0118  0.1575
  274MOL0     H36103   1.349  11.348   2.431 -0.4526  0.8196  1.5979
  274MOL0     H36104   1.106  11.343   2.400 -0.9047 -0.9563 -0.8320
  274MOL0     H36105   0.901  11.292   2.398  2.5125 -0.3702  0.0371
  274MOL0     H36106   0.823  11.263   2.548  0.3183 -0.2319 -1.1114
  274MOL0     H36107   0.722  11.060   2.414  0.8776 -0.9362 -1.9408
  274MOL0     H36108   0.783  11.143   2.274 -2.7247 -0.1152 -1.5119
  274MOL0     H36109   0.648  11.330   2.304 -1.4915  0.1879 -0.1148
  274MOL0     H36110   0.623  11.288   2.479  0.0781 -5.5028  2.6161
  274MOL0     H36111   0.510  11.144   2.236  1.8239  2.7918 -1.6793
  274MOL0     H36112   0.510  11.080   2.403 -0.2685  1.7236  3.2136
  274MOL0     H36113   0.375  11.336   2.308  0.2602  0.1878 -0.4257
  274MOL0     H36114   0.387  11.262   2.477 -1.9973 -0.0704  0.0370
  274MOL0     H36115   0.276  11.064   2.361  3.1241  2.6658  3.5437
  274MOL0     H36116   0.255  11.166   2.215 -0.1927  2.0002 -0.4870
  274MOL0     H36117   0.111  11.318   2.393 -1.9179 -0.9605 -0.3125
  274MOL0     H36118   0.050  11.176   2.307  0.8572 -1.1775  0.5825
  274MOL0     H36119   0.156  11.139   2.582  0.5801 -1.5520 -0.3077
  274MOL0     H36120   0.043  11.044   2.491 -2.2165 -0.0075  1.0315
  274MOL0     H36121   0.039  11.398   2.679  0.1314  0.3280  0.0747
  274MOL0     H36122  -0.312  11.531   2.630  0.2912  1.1472  0.3943
  274MOL0     H36123  -0.146  11.576   2.690  0.2440  0.6415  0.4113
  274MOL0     H36124  -0.207  11.461   2.912 -1.8521  0.6761  2.6113
  274MOL0     H36125  -0.338  11.392   2.827  1.1045 -0.5540 -0.3526
  274MOL0     H36126  -0.299  11.674   2.946  0.5960 -0.3207 -0.5357
  274MOL0     H36127  -0.377  11.673   2.799 -0.2045  3.6647  1.3153
  274MOL0     H36128  -0.465  11.546   3.072 -3.0945  1.2543  0.3616
  274MOL0     H36129  -0.544  11.477   2.927 -0.1352 -0.7465  1.1450
  274MOL0     H36130  -0.741  11.481   2.941  2.3616  0.9734  1.6629
  274MOL0     H36131  -0.982  11.495   2.904 -1.6484  0.2332  0.0744
  274MOL0     H36132  -1.344  11.616   2.629  1.9069  1.3935  1.5228
  274MOL0     H36133  -1.579  11.650   2.631  0.0423 -1.5167  0.4813
  274MOL0     H36134  -1.745  11.790   3.006  0.6656 -1.8170  1.5168
  274MOL0     H36135  -1.824  11.646   3.018  5.5552  1.0348  1.5938
  274MOL0     H36136  -1.895  11.910   2.894  0.9556 -0.2630  0.2124
  274MOL0     H36137  -1.991  11.811   2.994 -1.1352  1.7804 -1.4492
  274MOL0     H36138  -1.932  11.737   2.698 -0.0418  0.8820 -0.5847
  274MOL0     H36139  -2.057  11.847   2.734  1.6682  0.4853  0.3873
  274MOL0     H36140  -2.046  11.568   2.838  2.2533  0.2174  1.9113
  274MOL0     H36141  -2.146  11.688   2.922  1.4585 -1.9910  0.8416
  274MOL0     H36142  -2.141  11.616   2.624 -0.1291 -2.8378  1.2217
  274MOL0     H36143  -2.254  11.740   2.688 -0.9561  0.1330  0.8907
  274MOL0     H36144  -2.400  11.567   2.675 -3.7848 -0.0468  4.0494
  274MOL0     H36145  -2.365  11.568   2.840 -0.4232 -1.9331 -0.2874
  274MOL0     H36146  -2.220  11.374   2.663 -1.6972 -2.0366 -2.0409
  274MOL0     H36147  -2.215  11.369   2.839 -1.3058 -2.4568  0.1135
  274MOL0     H36148  -2.359  11.202   2.731 -0.9339 -0.5848  2.2117
  274MOL0     H36149  -2.473  11.333   2.675 -3.2584 -2.5873  2.2814
  274MOL0     H36150  -1.566  11.658   3.071 -0.2648 -0.9627  0.2884
  274MOL0     H36151  -1.343  11.613   3.054 -0.6449 -2.3832 -0.0263
  274MOL0     H36152  -0.957  11.927   2.881  0.6565  0.1844  0.6570
  274MOL0     H36153  -0.704  11.907   2.894 -0.6697  0.5007  2.2290
  274MOL0     H36154   1.098  10.951   2.578 -1.0475  1.1205  0.9324
  274MOL0     H36155   1.347  10.952   2.583 -2.9616 -1.6223  0.9874
  274MOL0     H36156   1.736  11.278   2.447  0.1153 -0.5037 -1.7026
  274MOL0     H36157   1.967  11.248   2.364  2.3778 -0.0204  2.2008
  274MOL0     H36158   2.192  10.877   2.447 -2.7097  1.0713  1.3292
  274MOL0     H36159   2.247  11.014   2.552  0.2867 -1.4896  1.5685
  274MOL0     H36160   2.341  10.981   2.257  2.0142  1.2561 -0.3254
  274MOL0     H36161   2.387  11.107   2.368  5.2312 -1.7223 -2.2499
  274MOL0     H36162   2.414  10.809   2.407  1.0570  0.1006 -2.2349
  274MOL0     H36163   2.461  10.931   2.534  0.9268 -2.8689  0.6491
  274MOL0     H36164   2.567  10.873   2.248  1.2835 -0.0861 -0.0643
  274MOL0     H36165   2.607  11.016   2.340  0.6740  0.0664 -2.3466
  274MOL0     H36166   2.864  10.715   2.496  1.7230  0.7836 -1.4600
  274MOL0     H36167   2.014  10.880   2.566  0.5697  0.4926  0.8463
  274MOL0     H36168   1.771  10.919   2.680  0.4025  0.7114  1.2857
  275MOL0     O36169  10.547   5.820   6.047  0.0306  0.8391  0.5147
  275MOL0     C36170  10.506   5.753   5.951 -0.3719 -0.6036 -0.5835
  275MOL0     O36171  10.382   5.770   5.885  0.7370 -0.0958 -0.7647
  275MOL0     C36172  10.286   5.840   5.962 -0.1713  0.5651  0.2472
  275MOL0     C36173  10.179   5.778   6.022 -1.1390  1.0227 -0.3859
  275MOL0     C36174  10.089   5.843   6.098  0.1497 -0.0015  0.5251
  275MOL0     C36175  10.106   5.978   6.119 -0.4436 -0.4583 -0.3558
  275MOL0     O36176  10.028   6.041   6.206 -0.0617 -0.4998 -0.3268
  275MOL0     C36177   9.958   6.162   6.172  0.7506  0.2138  0.1095
  275MOL0     C36178   9.912   6.236   6.301 -0.2139 -0.6396 -0.2786
  275MOL0     C36179  10.020   6.257   6.412 -0.5528 -0.4816  0.7183
  275MOL0     C36180  10.106   6.394   6.403  0.1410 -0.0122  0.7710
  275MOL0     C36181  10.190   6.385   6.530  0.1025  0.3001 -0.2077
  275MOL0     C36182  10.306   6.485   6.518 -0.1289  0.8117 -0.6653
  275MOL0     C36183  10.423   6.452   6.614  0.0728  0.3057 -0.7445
  275MOL0     C36184  10.391   6.459   6.763  0.2935  0.1555  0.2235
  275MOL0     N36185  10.297   6.567   6.808 -0.1278  0.3092 -1.1912
  275MOL0     C36186  10.302   6.710   6.791  0.1507 -0.5616 -0.3062
  275MOL0     C36187  10.179   6.763   6.797 -0.2816 -1.1175 -0.7256
  275MOL0     C36188  10.138   6.912   6.781 -0.0521  0.1786  1.0348
  275MOL0     C36189  10.040   6.959   6.885 -0.6578  0.0891  1.2014
  275MOL0     C36190  10.007   7.105   6.882  0.1843  0.2370  0.2933
  275MOL0     C36191   9.907   7.146   6.774  0.3373  0.2202 -0.5152
  275MOL0     O36192   9.783   7.105   6.819 -0.3731 -0.0617  0.3047
  275MOL0     C36193   9.662   7.155   6.772 -0.6090 -0.2555  0.6443
  275MOL0     C36194   9.649   7.227   6.645  0.0793  0.4263  0.7703
  275MOL0     C36195   9.517   7.265   6.607 -0.1990 -0.5708  0.0129
  275MOL0     C36196   9.399   7.221   6.677 -1.2494 -1.1789 -0.2507
  275MOL0     C36197   9.262   7.267   6.628 -0.3300  0.6910  1.0399
  275MOL0     O36198   9.255   7.337   6.514 -0.1846  0.4522  0.5076
  275MOL0     C36199   9.143   7.373   6.442 -0.0454  1.0958 -0.3848
  275MOL0     C36200   9.149   7.468   6.341 -0.2429  1.0274  0.4832
  275MOL0     C36201   9.030   7.521   6.281 -0.5229 -0.2309  0.2047
  275MOL0     C36202   8.902   7.488   6.328 -1.3642  0.3940  0.0894
  275MOL0     O36203   8.798   7.553   6.273 -0.2743  0.8328 -0.2393
  275MOL0     C36204   8.664   7.511   6.294 -0.1847  0.5778  0.0902
  275MOL0     C36205   8.629   7.397   6.196 -0.0666  0.2335 -0.0533
  275MOL0     C36206   8.573   7.451   6.062 -0.2047 -0.4369 -0.1228
  275MOL0     C36207   8.518   7.328   5.984  0.6041 -0.0980 -0.1875
  275MOL0     C36208   8.480   7.371   5.844  0.3264  0.0772 -0.5713
  275MOL0     C36209   8.508   7.259   5.736  0.1779  0.0698 -0.0524
  275MOL0     C36210   8.475   7.317   5.596  0.9127  0.7523 -0.4492
  275MOL0     C36211   8.535   7.211   5.498  0.6899  0.1486  0.7205
  275MOL0    Cl36212   8.712   7.220   5.492  0.1126  0.0322  0.2150
  275MOL0     C36213   8.891   7.378   6.422 -0.2018  0.2947  0.2320
  275MOL0     C36214   9.008   7.318   6.475 -0.9284 -0.0200 -0.1271
  275MOL0     O36215   9.166   7.241   6.701  0.6714 -0.5175 -0.0561
  275MOL0     C36216   9.419   7.152   6.800 -0.1771 -0.2050  0.0667
  275MOL0     C36217   9.553   7.117   6.844  0.3415  0.4277 -0.5261
  275MOL0     N36218  10.090   6.654   6.817 -0.2291  0.1120 -0.1919
  275MOL0     N36219  10.159   6.546   6.833  0.0994  0.4292  0.5012
  275MOL0     C36220  10.210   6.050   6.057 -0.3803  0.2779 -0.2948
  275MOL0     C36221  10.296   5.975   5.977 -0.1527 -0.2517  0.4375
  275MOL0     C36222  10.598   5.664   5.886  0.5939  0.6242 -0.6316
  275MOL0     C36223  10.736   5.654   5.916 -0.3787 -0.1801  0.2388
  275MOL0     C36224  10.823   5.573   5.839  1.2397 -0.9586 -0.1288
  275MOL0     C36225  10.776   5.500   5.729 -0.1993  0.0356 -0.3701
  275MOL0     O36226  10.877   5.443   5.654  0.1732 -0.1216 -1.2665
  275MOL0     C36227  10.941   5.521   5.558 -0.2080  0.4395  0.8898
  275MOL0     C36228  11.034   5.433   5.467  0.2406  0.5539  0.3318
  275MOL0     C36229  11.157   5.376   5.541 -0.0629  0.6217 -0.1024
  275MOL0     C36230  11.272   5.483   5.534  1.0448  0.0925  0.2409
  275MOL0     C36231  11.251   5.572   5.645 -0.1464  0.4054 -0.2455
  275MOL0     C36232  11.244   5.653   5.734 -0.3932  0.3714  0.5893
  275MOL0     C36233  10.642   5.524   5.695 -1.0053  0.2537 -0.1790
  275MOL0     C36234  10.559   5.603   5.762 -0.2906 -0.3064 -0.0317
  275MOL0     H36235  10.174   5.671   6.010  1.7718  0.1427  4.0172
  275MOL0     H36236  10.009   5.789   6.149  0.1327  1.8693  2.6163
  275MOL0     H36237   9.874   6.151   6.103 -1.6017  1.4977  2.5700
  275MOL0     H36238  10.035   6.229   6.134  2.2966 -1.1430  0.7494
  275MOL0     H36239   9.825   6.183   6.340  2.2563 -3.2701  2.1122
  275MOL0     H36240   9.868   6.332   6.271  2.2491  1.3058  1.8133
  275MOL0     H36241  10.082   6.167   6.408 -1.5618 -1.1578 -1.3332
  275MOL0     H36242   9.963   6.257   6.505 -0.5694  2.9756  0.8214
  275MOL0     H36243  10.166   6.387   6.312  0.5917 -0.1163  1.0722
  275MOL0     H36244  10.038   6.479   6.402 -0.1256 -0.1736 -1.4498
  275MOL0     H36245  10.235   6.286   6.539 -1.7730 -0.7982 -1.8785
  275MOL0     H36246  10.127   6.401   6.618 -0.6376 -1.5154 -0.3471
  275MOL0     H36247  10.266   6.587   6.524  0.6448  1.0649  0.4968
  275MOL0     H36248  10.353   6.480   6.419  0.3778  3.9802 -0.6726
  275MOL0     H36249  10.457   6.349   6.601  0.0120  0.2201 -0.2270
  275MOL0     H36250  10.496   6.529   6.586 -2.8857  3.1165 -1.3380
  275MOL0     H36251  10.485   6.484   6.814  1.0437 -1.2678 -0.4074
  275MOL0     H36252  10.351   6.366   6.804 -1.4337  0.1595 -1.3354
  275MOL0     H36253  10.390   6.769   6.767 -1.5408  1.7038 -1.2696
  275MOL0     H36254  10.093   6.921   6.682  0.6350 -1.7180  0.4968
  275MOL0     H36255  10.233   6.965   6.787 -1.1447  2.1017  2.4534
  275MOL0     H36256  10.101   6.932   6.971  0.6658  0.9291  0.5586
  275MOL0     H36257   9.953   6.893   6.895  0.4576 -1.5747  0.4737
  275MOL0     H36258   9.968   7.134   6.980  1.4342  2.8525  0.1076
  275MOL0     H36259  10.102   7.157   6.869  0.1561  0.1004 -0.5220
  275MOL0     H36260   9.924   7.096   6.679  1.9984 -1.1183  0.4247
  275MOL0     H36261   9.902   7.254   6.758  0.3751  0.3986  0.5893
  275MOL0     H36262   9.736   7.244   6.582 -0.7190  2.1898  0.0828
  275MOL0     H36263   9.515   7.324   6.516  0.4855  2.1923  1.6832
  275MOL0     H36264   9.250   7.505   6.325 -0.5556  1.6770 -0.0477
  275MOL0     H36265   9.026   7.613   6.224 -0.4621 -0.3941 -0.0654
  275MOL0     H36266   8.595   7.593   6.274 -0.0959  0.4527 -0.7960
  275MOL0     H36267   8.658   7.479   6.398  0.1602 -0.5434 -0.2186
  275MOL0     H36268   8.548   7.346   6.249  1.5493 -2.2433  0.1779
  275MOL0     H36269   8.708   7.323   6.188 -1.5102 -1.5888  1.5161
  275MOL0     H36270   8.650   7.505   6.005  1.0619  0.2132  2.0752
  275MOL0     H36271   8.499   7.530   6.077  0.7083  0.3183  0.5585
  275MOL0     H36272   8.597   7.255   5.963 -0.0323 -0.4336 -1.5954
  275MOL0     H36273   8.441   7.275   6.040 -1.4327  0.7263 -2.0379
  275MOL0     H36274   8.536   7.462   5.822  1.1678 -0.3426 -0.2036
  275MOL0     H36275   8.373   7.396   5.846 -0.1550 -1.8105 -0.9018
  275MOL0     H36276   8.438   7.176   5.750  3.0810 -2.3618  1.0056
  275MOL0     H36277   8.608   7.216   5.741  0.4696  0.6767 -0.5416
  275MOL0     H36278   8.370   7.325   5.568  1.2293 -1.9676 -2.8789
  275MOL0     H36279   8.521   7.415   5.583  5.2795 -1.1839 -1.4802
  275MOL0     H36280   8.503   7.240   5.398 -0.5274  0.8346  1.2886
  275MOL0     H36281   8.510   7.109   5.528  0.4801 -1.1679 -3.3289
  275MOL0     H36282   8.799   7.347   6.469 -2.3566  2.4690 -2.2541
  275MOL0     H36283   8.975   7.238   6.541 -3.0383 -1.4580 -2.7041
  275MOL0     H36284   9.331   7.129   6.859  1.1377 -1.0357  1.7732
  275MOL0     H36285   9.565   7.051   6.930 -1.1654  0.5003 -0.2202
  275MOL0     H36286  10.232   6.155   6.072  0.6753  0.1282 -0.7172
  275MOL0     H36287  10.386   6.017   5.933  0.6462 -3.0098 -0.8142
  275MOL0     H36288  10.787   5.712   5.992  0.5169 -3.5193  2.4026
  275MOL0     H36289  10.929   5.568   5.860  1.3291  0.2987 -0.1931
  275MOL0     H36290  10.991   5.607   5.603  0.4789  1.4458 -1.5950
  275MOL0     H36291  10.871   5.580   5.498  0.4779  1.3748  1.0008
  275MOL0     H36292  10.970   5.351   5.434 -0.4099  1.6577 -1.3173
  275MOL0     H36293  11.071   5.494   5.383 -1.2072 -1.3098 -1.7828
  275MOL0     H36294  11.187   5.285   5.490 -0.8228 -0.4677  1.3145
  275MOL0     H36295  11.148   5.354   5.648  0.6015  1.6807  0.1902
  275MOL0     H36296  11.363   5.422   5.539  1.5170  0.3415 -3.2807
  275MOL0     H36297  11.281   5.548   5.447 -1.9192  0.7473  0.3163
  275MOL0     H36298  11.225   5.730   5.806 -3.2933 -0.8951  1.3361
  275MOL0     H36299  10.612   5.480   5.601  0.8182 -0.8911 -0.2689
  275MOL0     H36300  10.454   5.603   5.733 -0.6688  0.2452  1.2795
  276MOL0     O36301   1.618   4.525   7.292 -0.0137  0.0727 -0.1751
  276MOL0     C36302   1.612   4.409   7.331  0.1529  0.3790 -0.2556
  276MOL0     O36303   1.514   4.359   7.408 -0.3484 -0.7626 -0.1434
  276MOL0     C36304   1.409   4.442   7.444  0.7182  0.0858  0.0868
  276MOL0     C36305   1.434   4.539   7.541  0.1028  0.2677 -0.6739
  276MOL0     C36306   1.326   4.593   7.618 -0.3082  0.3369  0.1271
  276MOL0     C36307   1.193   4.567   7.579 -0.4288  0.4407  0.4913
  276MOL0     O36308   1.094   4.647   7.631  0.7374 -0.0346 -0.3727
  276MOL0     C36309   0.971   4.584   7.669  0.2974  0.8173 -0.3414
  276MOL0     C36310   0.860   4.693   7.644  0.1308 -0.3589 -0.4090
  276MOL0     C36311   0.719   4.673   7.706  0.3360 -0.1765 -0.2748
  276MOL0     C36312   0.616   4.780   7.669  0.5108 -0.1800  0.7051
  276MOL0     C36313   0.482   4.773   7.730  1.3691 -0.5025 -0.1947
  276MOL0     C36314   0.389   4.893   7.695  0.1792  0.0559 -0.0068
  276MOL0     C36315   0.250   4.909   7.777  0.1820 -0.7191  0.7334
  276MOL0     C36316   0.253   5.024   7.879 -0.5526  0.2492 -0.3624
  276MOL0     N36317   0.355   4.989   7.980 -0.0669 -0.1944 -0.4590
  276MOL0     C36318   0.486   5.032   7.978 -1.4450 -0.5202  0.5588
  276MOL0     C36319   0.552   4.939   8.051 -0.0211  0.3604  0.6389
  276MOL0     C36320   0.701   4.962   8.061  0.8004 -0.4169  0.5172
  276MOL0     C36321   0.764   4.834   8.106  0.0271  0.6996 -0.0467
  276MOL0     C36322   0.912   4.849   8.081 -0.5431  0.6625  0.7416
  276MOL0     C36323   0.990   4.716   8.093  0.3129  0.2204 -0.5339
  276MOL0     O36324   1.120   4.753   8.117 -0.3186 -0.0989 -0.2502
  276MOL0     C36325   1.220   4.660   8.083 -0.2072 -0.0155 -0.4152
  276MOL0     C36326   1.292   4.625   8.193  0.5225  0.1777  0.0602
  276MOL0     C36327   1.400   4.536   8.175 -0.0638  0.6931  0.4434
  276MOL0     C36328   1.415   4.465   8.055 -0.4601 -0.1292 -0.5203
  276MOL0     C36329   1.522   4.375   8.040  0.0052  0.8785  0.2879
  276MOL0     O36330   1.564   4.346   7.913  0.0499  0.1513  0.0848
  276MOL0     C36331   1.680   4.280   7.887 -0.0851 -0.5765 -0.2162
  276MOL0     C36332   1.736   4.314   7.765  0.4352 -0.1183 -0.0045
  276MOL0     C36333   1.858   4.269   7.708 -0.0529  0.7581 -0.0986
  276MOL0     C36334   1.938   4.186   7.778  0.1611 -0.1466  0.3979
  276MOL0     O36335   2.051   4.147   7.707  0.6865 -0.2035 -0.1179
  276MOL0     C36336   2.045   4.009   7.661 -0.3785 -1.0676 -0.2857
  276MOL0     C36337   2.174   3.946   7.704  0.7788 -0.2928  0.1501
  276MOL0     C36338   2.208   3.810   7.656 -0.1231 -0.6098  0.0349
  276MOL0     C36339   2.228   3.807   7.500 -0.1758 -0.4595  0.0726
  276MOL0     C36340   2.245   3.669   7.439 -0.2280  0.7865  0.1620
  276MOL0     C36341   2.350   3.665   7.321 -0.6388 -0.3029 -0.1482
  276MOL0     C36342   2.340   3.549   7.217  0.2040 -0.2453 -0.2982
  276MOL0     C36343   2.440   3.581   7.098 -0.3944  0.4924  0.1885
  276MOL0    Cl36344   2.428   3.746   7.033  0.2188  0.4945 -0.0689
  276MOL0     C36345   1.886   4.143   7.911 -0.2473 -0.2512  0.0180
  276MOL0     C36346   1.765   4.182   7.959  0.8366 -0.7088  0.4240
  276MOL0     O36347   1.577   4.328   8.143  0.3957  0.0532  0.1527
  276MOL0     C36348   1.332   4.504   7.949 -0.3177 -0.0528  0.1435
  276MOL0     C36349   1.235   4.602   7.962  0.9705 -0.1413 -0.1224
  276MOL0     N36350   0.459   4.853   8.120 -0.3086 -1.1146  0.4166
  276MOL0     N36351   0.346   4.874   8.060 -0.2891 -0.5398  0.2129
  276MOL0     C36352   1.168   4.474   7.484  0.3679  0.2317 -0.7631
  276MOL0     C36353   1.275   4.408   7.420 -0.2229  0.1447  0.5827
  276MOL0     C36354   1.711   4.306   7.293  0.1204 -0.1518 -0.1961
  276MOL0     C36355   1.823   4.349   7.215 -0.0835  0.8862 -0.8958
  276MOL0     C36356   1.922   4.256   7.182  0.6322 -0.1774  1.2920
  276MOL0     C36357   1.903   4.118   7.210  0.1051  0.8181  0.1803
  276MOL0     O36358   1.964   4.003   7.153  0.1804  0.4003 -0.0418
  276MOL0     C36359   2.069   4.008   7.051  0.3596 -0.1645  1.0700
  276MOL0     C36360   2.203   4.066   7.107  0.1205 -0.1100 -0.4239
  276MOL0     C36361   2.293   4.095   6.982  0.2342  0.0990  0.0018
  276MOL0     C36362   2.299   4.244   6.933 -0.6250 -0.4986 -0.1857
  276MOL0     C36363   2.177   4.310   6.889  0.7284  0.1134  0.0958
  276MOL0     C36364   2.081   4.361   6.838  1.0532 -0.8380 -0.1852
  276MOL0     C36365   1.797   4.079   7.291 -0.1944 -0.7264 -0.6347
  276MOL0     C36366   1.701   4.169   7.345  0.8759  0.4098  0.2943
  276MOL0     H36367   1.540   4.543   7.566  0.7293  0.2284 -3.0948
  276MOL0     H36368   1.356   4.667   7.692 -1.3987 -1.4536  2.5058
  276MOL0     H36369   0.969   4.555   7.775  0.7001  0.3266 -0.4626
  276MOL0     H36370   0.940   4.497   7.611 -0.4570  0.6255  0.3452
  276MOL0     H36371   0.836   4.700   7.537 -1.9771 -0.5022  0.0049
  276MOL0     H36372   0.904   4.791   7.663  3.8067 -1.2809 -2.9056
  276MOL0     H36373   0.731   4.679   7.815  1.8164 -0.9396 -0.3773
  276MOL0     H36374   0.680   4.575   7.676 -1.0387  0.4968 -0.8042
  276MOL0     H36375   0.659   4.878   7.694  0.8217  0.7075 -2.8504
  276MOL0     H36376   0.603   4.770   7.561 -1.0553 -1.4167  0.9748
  276MOL0     H36377   0.482   4.775   7.839 -0.4563  0.8336 -0.1587
  276MOL0     H36378   0.420   4.687   7.706 -2.1942  2.0164 -0.8677
  276MOL0     H36379   0.368   4.876   7.589 -0.4173 -3.1452  0.5375
  276MOL0     H36380   0.437   4.992   7.697 -0.7791  0.5414  2.9287
  276MOL0     H36381   0.172   4.920   7.701 -0.5654 -1.0777  1.4273
  276MOL0     H36382   0.238   4.814   7.830 -0.9431 -0.8903  0.1986
  276MOL0     H36383   0.152   5.032   7.922 -0.1001  1.5415  0.5020
  276MOL0     H36384   0.267   5.123   7.835  1.9151 -0.6398 -1.7352
  276MOL0     H36385   0.533   5.111   7.921  0.0830 -3.3936 -2.5412
  276MOL0     H36386   0.726   5.049   8.122 -0.4875  0.9790 -0.8610
  276MOL0     H36387   0.732   4.988   7.959  1.2823  1.0657  1.0167
  276MOL0     H36388   0.720   4.749   8.053  2.6358 -0.4515 -0.5432
  276MOL0     H36389   0.736   4.824   8.211  1.7573  0.6171  0.4359
  276MOL0     H36390   0.924   4.865   7.974 -2.5862 -0.0065  0.3523
  276MOL0     H36391   0.956   4.930   8.139  2.9989 -0.9342  0.5405
  276MOL0     H36392   0.973   4.656   8.004  1.2261 -0.0116 -0.5669
  276MOL0     H36393   0.959   4.659   8.181  2.3419 -0.3732 -0.1343
  276MOL0     H36394   1.281   4.677   8.287  1.6270 -2.4721  1.7615
  276MOL0     H36395   1.475   4.507   8.248  1.7776 -3.6987 -2.7070
  276MOL0     H36396   1.670   4.373   7.702  1.5668  0.7233 -0.4238
  276MOL0     H36397   1.879   4.309   7.610 -2.5335  3.4777  0.3410
  276MOL0     H36398   2.042   4.012   7.552  0.3515 -0.6285 -0.3005
  276MOL0     H36399   1.951   3.957   7.681 -2.0947 -0.6240 -5.6721
  276MOL0     H36400   2.180   3.923   7.811 -0.4661 -4.1049 -0.4646
  276MOL0     H36401   2.247   4.019   7.669 -0.2865  0.8452  0.2091
  276MOL0     H36402   2.125   3.744   7.682 -2.4224  2.5736  1.3123
  276MOL0     H36403   2.298   3.788   7.713 -0.2905 -1.7389 -0.1136
  276MOL0     H36404   2.141   3.858   7.457  1.2127  1.9893 -0.0034
  276MOL0     H36405   2.312   3.874   7.479 -1.6187  1.2073 -0.6302
  276MOL0     H36406   2.156   3.625   7.392  2.5503 -0.1583 -4.8473
  276MOL0     H36407   2.276   3.599   7.517 -2.3105  0.3303  0.6461
  276MOL0     H36408   2.452   3.670   7.360 -1.1171  1.1431  1.0161
  276MOL0     H36409   2.347   3.760   7.268  0.9712 -1.2614 -2.0783
  276MOL0     H36410   2.366   3.460   7.275  1.6178  1.9293  2.6963
  276MOL0     H36411   2.239   3.547   7.176  0.1735  0.1054 -0.2460
  276MOL0     H36412   2.408   3.511   7.020 -0.2417  0.3665  0.2371
  276MOL0     H36413   2.542   3.553   7.127 -0.3463 -0.1129 -0.5433
  276MOL0     H36414   1.961   4.099   7.976  0.5196  1.0359  0.0580
  276MOL0     H36415   1.725   4.158   8.056  0.5434  0.7929  0.7096
  276MOL0     H36416   1.360   4.457   7.856  0.3276  0.2047  0.1992
  276MOL0     H36417   1.165   4.620   7.882 -0.8147  0.8997  1.5967
  276MOL0     H36418   1.065   4.462   7.452 -0.5722 -4.4026  2.8510
  276MOL0     H36419   1.250   4.331   7.348  0.5044  1.8756 -1.6245
  276MOL0     H36420   1.839   4.454   7.192 -1.1334  0.9446 -1.4545
  276MOL0     H36421   2.013   4.278   7.127 -0.2311 -0.3570 -0.2619
  276MOL0     H36422   2.040   4.074   6.968  3.8454  0.8839  0.5215
  276MOL0     H36423   2.076   3.914   6.995 -0.8826  0.4131 -0.1137
  276MOL0     H36424   2.188   4.159   7.162  0.6106 -0.0105 -0.4572
  276MOL0     H36425   2.250   3.994   7.174  3.0184  2.1482  0.1680
  276MOL0     H36426   2.260   4.023   6.906 -0.9854 -2.7274  2.9090
  276MOL0     H36427   2.397   4.069   7.004 -0.2211 -2.6656 -0.6894
  276MOL0     H36428   2.339   4.312   7.009 -2.9180  0.1325  0.5319
  276MOL0     H36429   2.371   4.249   6.850 -0.3618  0.7055  0.1045
  276MOL0     H36430   1.990   4.411   6.810  0.5307 -2.9080 -2.4713
  276MOL0     H36431   1.778   3.975   7.314  0.9307 -0.7218  0.4145
  276MOL0     H36432   1.607   4.140   7.392  1.2337  0.4225  1.0323
  277MOL0     O36433  10.969   9.383   7.809  0.0911  0.3092 -0.7128
  277MOL0     C36434  11.001   9.437   7.920  0.3210  0.2024  0.5448
  277MOL0     O36435  10.926   9.515   7.992  0.5728  0.7099 -0.2875
  277MOL0     C36436  10.804   9.553   7.943 -0.4778  0.0079 -0.0592
  277MOL0     C36437  10.790   9.677   7.885  0.0558  0.5380 -0.2197
  277MOL0     C36438  10.663   9.725   7.835 -0.0554  0.2456 -0.1541
  277MOL0     C36439  10.542   9.644   7.854  0.4178 -0.2258  0.0449
  277MOL0     O36440  10.427   9.710   7.813 -0.1043  0.2062 -0.3169
  277MOL0     C36441  10.347   9.634   7.722 -0.4711  0.0142 -0.2981
  277MOL0     C36442  10.202   9.625   7.778 -0.2243  0.3511  0.0669
  277MOL0     C36443  10.085   9.603   7.680 -0.8215 -0.6977  0.2730
  277MOL0     C36444   9.943   9.580   7.748 -0.7801 -0.1560 -0.0272
  277MOL0     C36445   9.837   9.557   7.641  0.9497 -0.7302  0.0804
  277MOL0     C36446   9.696   9.505   7.702 -0.6088 -0.4433  0.2317
  277MOL0     C36447   9.603   9.491   7.585  0.3318 -0.2707  0.2284
  277MOL0     C36448   9.460   9.465   7.636  0.4066 -0.8647  0.1439
  277MOL0     N36449   9.371   9.422   7.524  0.5241  0.6412 -0.2043
  277MOL0     C36450   9.320   9.485   7.416 -0.2349 -0.5665  0.6599
  277MOL0     C36451   9.230   9.398   7.360  0.0724  0.0674  0.3105
  277MOL0     C36452   9.156   9.446   7.235 -0.3353  0.0020  0.2314
  277MOL0     C36453   8.998   9.451   7.236  0.5319  0.1611  0.4721
  277MOL0     C36454   8.940   9.356   7.346  0.1202  0.2389 -0.1447
  277MOL0     C36455   8.784   9.345   7.328 -0.0157 -0.9072 -0.0872
  277MOL0     O36456   8.731   9.233   7.406  0.3292 -0.5424  0.2709
  277MOL0     C36457   8.637   9.270   7.493 -0.4733  0.8173  0.9420
  277MOL0     C36458   8.512   9.207   7.483 -0.0528 -0.2972  0.3019
  277MOL0     C36459   8.410   9.225   7.577  0.2914  0.1957 -0.0323
  277MOL0     C36460   8.434   9.305   7.688  0.2566  0.0017  0.5988
  277MOL0     C36461   8.323   9.319   7.788 -0.0289  0.9120 -0.4413
  277MOL0     O36462   8.261   9.201   7.840 -0.0398 -0.6405  0.1542
  277MOL0     C36463   8.138   9.222   7.903 -0.6296 -0.7216  0.1832
  277MOL0     C36464   8.126   9.253   8.035  0.0371 -0.5810  0.9868
  277MOL0     C36465   8.001   9.274   8.098  0.0167  0.4999  0.5125
  277MOL0     C36466   7.885   9.267   8.024 -1.0985  0.4709 -0.0014
  277MOL0     O36467   7.764   9.300   8.069  0.7141  0.0362  0.4873
  277MOL0     C36468   7.736   9.299   8.214 -0.1304  0.8597  0.7973
  277MOL0     C36469   7.591   9.265   8.262 -0.1873 -0.2385  0.1190
  277MOL0     C36470   7.554   9.117   8.255  0.3550 -0.2145 -0.5103
  277MOL0     C36471   7.400   9.101   8.281  0.9923 -0.3087  0.4831
  277MOL0     C36472   7.317   9.120   8.152  0.1098  0.9047  0.1382
  277MOL0     C36473   7.180   9.047   8.169  0.7251  0.2558  0.7998
  277MOL0     C36474   7.202   8.904   8.176  1.2439 -0.1619  0.7314
  277MOL0     C36475   7.088   8.824   8.113 -0.1341  1.0158  0.6408
  277MOL0    Cl36476   7.104   8.828   7.927  0.5242  0.1135 -0.7395
  277MOL0     C36477   7.901   9.244   7.886  0.2032  0.0200 -0.6460
  277MOL0     C36478   8.027   9.209   7.823  0.5243 -0.1276 -0.2600
  277MOL0     O36479   8.298   9.433   7.828 -0.0643  0.2510  0.5199
  277MOL0     C36480   8.565   9.357   7.701  0.3344 -0.2846 -0.2146
  277MOL0     C36481   8.661   9.345   7.608 -0.3308 -0.0227  1.1410
  277MOL0     N36482   9.244   9.273   7.423 -0.1257 -0.0662  0.1836
  277MOL0     N36483   9.329   9.288   7.516 -0.6500  0.3309 -0.1351
  277MOL0     C36484  10.557   9.511   7.899 -0.9299 -0.0296  0.0597
  277MOL0     C36485  10.689   9.464   7.935 -0.9199 -0.2986 -0.4206
  277MOL0     C36486  11.133   9.421   7.976  0.3692 -0.2095 -0.5625
  277MOL0     C36487  11.226   9.324   7.922 -0.2531  0.7161 -0.0499
  277MOL0     C36488  11.363   9.315   7.970  0.2210 -0.3366 -0.2219
  277MOL0     C36489  11.406   9.405   8.065  0.3540 -0.7222  0.3098
  277MOL0     O36490  11.534   9.417   8.116 -0.1485  0.2218  0.7074
  277MOL0     C36491  11.626   9.323   8.065 -0.2445  0.4576  0.2852
  277MOL0     C36492  11.771   9.348   8.112 -0.2194  0.4317  0.3646
  277MOL0     C36493  11.879   9.278   8.016 -0.0673 -0.3484  0.5275
  277MOL0     C36494  12.032   9.281   8.056 -0.3310  0.1598  0.1717
  277MOL0     C36495  12.079   9.416   8.091  0.4296  0.4431  0.0699
  277MOL0     C36496  12.130   9.521   8.116 -0.0263 -0.3207  0.4071
  277MOL0     C36497  11.318   9.496   8.121 -0.1182  0.9850  0.2431
  277MOL0     C36498  11.178   9.496   8.078 -0.3307  0.0600 -0.5411
  277MOL0     H36499  10.867   9.753   7.879 -1.2414  1.7700 -5.1570
  277MOL0     H36500  10.663   9.828   7.799  1.3136 -0.0027 -0.9240
  277MOL0     H36501  10.385   9.533   7.699 -0.6473 -0.2342  0.4813
  277MOL0     H36502  10.355   9.686   7.626  2.5501 -0.8075 -0.6197
  277MOL0     H36503  10.173   9.715   7.833  0.9818  1.8695 -1.6614
  277MOL0     H36504  10.212   9.543   7.849  1.4177  0.2365 -0.2560
  277MOL0     H36505  10.098   9.509   7.625 -2.2635 -0.8376  0.1464
  277MOL0     H36506  10.076   9.688   7.612  0.1710 -0.7518  0.0496
  277MOL0     H36507   9.950   9.489   7.808  2.3686 -0.3858 -0.5717
  277MOL0     H36508   9.900   9.657   7.814 -0.8927  1.4360 -1.8674
  277MOL0     H36509   9.852   9.471   7.576 -2.3753 -0.3912 -1.3266
  277MOL0     H36510   9.818   9.646   7.580 -5.2536 -1.5986  0.1269
  277MOL0     H36511   9.660   9.586   7.766 -3.4284 -2.0892  0.9023
  277MOL0     H36512   9.698   9.417   7.767  0.8427 -1.6353 -1.3549
  277MOL0     H36513   9.607   9.590   7.540  1.9371  0.4104  1.7454
  277MOL0     H36514   9.624   9.411   7.513  0.2909 -0.4615  0.4247
  277MOL0     H36515   9.413   9.559   7.663 -0.7746 -0.4534 -2.8853
  277MOL0     H36516   9.475   9.395   7.719  1.0789 -1.0987 -0.1630
  277MOL0     H36517   9.341   9.586   7.381  1.6015 -0.3953  2.1052
  277MOL0     H36518   9.178   9.377   7.154  0.5009  2.8727 -2.1472
  277MOL0     H36519   9.203   9.540   7.204  1.3546 -0.5191  1.0852
  277MOL0     H36520   8.962   9.413   7.140 -1.3769 -1.1538  1.6485
  277MOL0     H36521   8.964   9.555   7.238  4.2192  1.4995  2.8651
  277MOL0     H36522   8.975   9.253   7.352  0.8232  0.4629 -0.3086
  277MOL0     H36523   8.960   9.393   7.447  0.4016 -0.3827  0.0344
  277MOL0     H36524   8.771   9.323   7.221 -0.2540 -1.7830  0.1192
  277MOL0     H36525   8.744   9.442   7.356  1.9941 -0.1658  0.4000
  277MOL0     H36526   8.509   9.136   7.401 -2.0121 -1.1479  1.0384
  277MOL0     H36527   8.316   9.173   7.565  0.1427  0.4452  0.0484
  277MOL0     H36528   8.218   9.268   8.089  0.6213 -0.2362 -0.0856
  277MOL0     H36529   8.005   9.298   8.204 -1.0613  1.1670  0.4130
  277MOL0     H36530   7.747   9.405   8.237  1.2286  1.3519 -1.7098
  277MOL0     H36531   7.803   9.233   8.269  0.6012  0.3560 -0.6439
  277MOL0     H36532   7.527   9.319   8.192  0.1652 -0.2906 -0.2481
  277MOL0     H36533   7.581   9.305   8.363 -0.8377  0.8880 -0.3718
  277MOL0     H36534   7.619   9.064   8.325  1.2239 -1.3690 -2.1075
  277MOL0     H36535   7.578   9.079   8.155 -0.1219 -3.5898  0.5085
  277MOL0     H36536   7.393   8.997   8.314  2.1226  0.5358  3.7613
  277MOL0     H36537   7.364   9.165   8.361 -1.4326 -0.1192 -0.6783
  277MOL0     H36538   7.371   9.081   8.065 -1.3432 -0.6163 -0.1315
  277MOL0     H36539   7.302   9.227   8.134 -3.9496  0.4263 -0.1444
  277MOL0     H36540   7.120   9.071   8.080 -0.4442  2.7790  2.1494
  277MOL0     H36541   7.121   9.087   8.252 -2.4887 -1.2930 -0.5530
  277MOL0     H36542   7.294   8.871   8.126  0.2305  0.6177 -1.7889
  277MOL0     H36543   7.215   8.880   8.282  0.2490 -0.0297  0.8929
  277MOL0     H36544   6.986   8.856   8.138 -0.2603  0.7512  0.4790
  277MOL0     H36545   7.098   8.718   8.142  0.8889  0.6264 -1.0201
  277MOL0     H36546   7.810   9.261   7.830 -0.7956  0.1101  0.9243
  277MOL0     H36547   8.040   9.182   7.719  4.6362 -2.2223  0.5989
  277MOL0     H36548   8.600   9.411   7.788  1.4688 -1.5228  0.1300
  277MOL0     H36549   8.759   9.391   7.610  0.7450 -1.9061 -1.6923
  277MOL0     H36550  10.468   9.449   7.903 -2.1678  1.4335 -2.3483
  277MOL0     H36551  10.698   9.361   7.968  2.3585  0.1149  0.3216
  277MOL0     H36552  11.204   9.253   7.843  2.0656  0.5385 -0.6197
  277MOL0     H36553  11.420   9.233   7.927 -1.4732 -3.1095  2.4043
  277MOL0     H36554  11.630   9.311   7.957  2.5846 -1.2308  0.5015
  277MOL0     H36555  11.591   9.226   8.101  1.3820 -0.0381  0.5873
  277MOL0     H36556  11.787   9.456   8.117 -1.1724  0.7966 -2.5276
  277MOL0     H36557  11.783   9.308   8.213 -0.5832  1.6674  0.9060
  277MOL0     H36558  11.862   9.329   7.921  0.1819 -1.8480 -0.3618
  277MOL0     H36559  11.855   9.175   7.988  0.9547  0.3250 -3.3367
  277MOL0     H36560  12.047   9.208   8.136 -0.5569  0.5518  0.5831
  277MOL0     H36561  12.083   9.249   7.965 -0.2530  2.5950 -0.7141
  277MOL0     H36562  12.174   9.611   8.154  0.0089 -0.9198  1.8678
  277MOL0     H36563  11.364   9.565   8.191  2.4283 -0.0559 -0.2907
  277MOL0     H36564  11.111   9.565   8.127  0.3532 -0.7022  1.5623
  278MOL0     O36565   5.413  10.331   3.220  0.0457 -0.1095 -0.4304
  278MOL0     C36566   5.509  10.257   3.220 -0.1589  0.0335 -0.3463
  278MOL0     O36567   5.528  10.131   3.272 -0.4592 -0.5178  0.1209
  278MOL0     C36568   5.421  10.042   3.284  0.1067 -0.4196  1.1058
  278MOL0     C36569   5.436   9.954   3.387  0.5609 -0.6251  0.1668
  278MOL0     C36570   5.336   9.858   3.419  0.3878  0.2273  0.0359
  278MOL0     C36571   5.233   9.836   3.326  0.1934 -0.8143 -0.2019
  278MOL0     O36572   5.147   9.729   3.333  0.1540 -0.4673 -1.4132
  278MOL0     C36573   5.121   9.648   3.448 -0.6546  0.9052 -0.5260
  278MOL0     C36574   5.032   9.723   3.547 -0.8300 -0.4692 -0.0671
  278MOL0     C36575   4.886   9.747   3.500  1.4017 -0.1431  0.1520
  278MOL0     C36576   4.788   9.820   3.588  0.3098 -0.0630 -0.0254
  278MOL0     C36577   4.641   9.844   3.542  0.3634 -0.4305  0.0776
  278MOL0     C36578   4.633   9.897   3.397 -0.2682  0.0491  0.6594
  278MOL0     C36579   4.508   9.986   3.372  1.0717 -0.2204  0.3565
  278MOL0     C36580   4.383   9.899   3.375 -0.8888  0.0836  0.2973
  278MOL0     N36581   4.266   9.973   3.379  0.3497  0.2592 -0.2446
  278MOL0     C36582   4.231  10.066   3.279 -0.5151 -0.3323  0.6655
  278MOL0     C36583   4.110  10.119   3.311 -0.2528 -0.5159 -0.3623
  278MOL0     C36584   4.016  10.214   3.245 -0.3558 -0.5140  0.2276
  278MOL0     C36585   3.943  10.145   3.126 -0.0975  1.0285 -0.8984
  278MOL0     C36586   3.842  10.046   3.187 -0.7564  0.2150  0.2939
  278MOL0     C36587   3.715  10.042   3.110 -0.1049 -0.1439  0.8730
  278MOL0     O36588   3.630  10.151   3.152  0.3503  0.6671  0.1274
  278MOL0     C36589   3.502  10.167   3.112  0.5132  0.4831 -0.6486
  278MOL0     C36590   3.431  10.067   3.039  0.6408  0.8163  0.5755
  278MOL0     C36591   3.291  10.078   3.012 -0.1307  0.2268  0.1027
  278MOL0     C36592   3.224  10.181   3.064 -1.0808 -0.1289  0.4855
  278MOL0     C36593   3.083  10.187   3.048  0.0382 -0.2796  0.3056
  278MOL0     O36594   3.030  10.309   3.021 -0.1557  0.5774 -0.0775
  278MOL0     C36595   2.895  10.325   3.031  0.7207  1.4791 -0.7554
  278MOL0     C36596   2.840  10.409   3.124 -0.5460 -0.4754  0.3368
  278MOL0     C36597   2.707  10.419   3.136  0.4422 -0.8823 -0.6451
  278MOL0     C36598   2.619  10.329   3.068 -0.2507 -0.9728  0.4495
  278MOL0     O36599   2.481  10.346   3.093 -0.7435  0.1977  0.3238
  278MOL0     C36600   2.402  10.248   3.029 -0.7503 -0.1768  1.0314
  278MOL0     C36601   2.257  10.293   3.032 -0.2915 -0.3129  0.6567
  278MOL0     C36602   2.194  10.242   3.168 -0.4098 -0.3731  0.1226
  278MOL0     C36603   2.055  10.291   3.181 -0.2633 -1.1128 -0.3174
  278MOL0     C36604   1.980  10.265   3.315  0.0828 -0.5838 -0.8818
  278MOL0     C36605   2.008  10.369   3.424 -0.2697 -1.8282  0.4899
  278MOL0     C36606   1.900  10.350   3.534  0.3410  0.1793 -0.2705
  278MOL0     C36607   1.912  10.452   3.647  0.1237  0.0893 -0.2170
  278MOL0    Cl36608   2.038  10.406   3.764 -0.2342 -0.1618  0.0079
  278MOL0     C36609   2.678  10.252   2.963 -0.1542  0.2582  0.2989
  278MOL0     C36610   2.815  10.238   2.959 -0.0560  0.3285  1.0501
  278MOL0     O36611   3.020  10.080   3.051 -0.3850  0.1188  0.6036
  278MOL0     C36612   3.286  10.290   3.131 -0.8785  1.0553  0.3983
  278MOL0     C36613   3.431  10.276   3.154  0.3177 -0.8344  0.1850
  278MOL0     N36614   4.083  10.063   3.439 -0.3257  0.4027  0.7866
  278MOL0     N36615   4.173   9.980   3.472  0.6340  0.4152 -0.1611
  278MOL0     C36616   5.227   9.915   3.210 -1.0083  0.4062 -0.3546
  278MOL0     C36617   5.324  10.014   3.188  0.2478 -0.9244  0.0241
  278MOL0     C36618   5.641  10.313   3.171  0.0185 -0.5918  0.5656
  278MOL0     C36619   5.761  10.240   3.179 -0.2575  1.2680  0.2598
  278MOL0     C36620   5.873  10.289   3.124 -1.1699 -0.5015  0.0941
  278MOL0     C36621   5.889  10.412   3.065 -0.4534  0.5583  0.7741
  278MOL0     O36622   6.006  10.461   3.014  0.4439  0.6421  0.1449
  278MOL0     C36623   6.001  10.518   2.879 -0.2507 -0.3489 -0.2770
  278MOL0     C36624   6.140  10.529   2.820 -0.5033  1.5759  0.4748
  278MOL0     C36625   6.186  10.402   2.744 -0.0291 -0.7687 -0.3783
  278MOL0     C36626   6.199  10.292   2.849 -0.1090 -0.0672  1.0030
  278MOL0     C36627   6.255  10.173   2.787 -1.6927  0.5765 -0.6128
  278MOL0     C36628   6.319  10.078   2.753  0.8091  0.8407  1.4774
  278MOL0     C36629   5.771  10.488   3.054 -0.3507  0.6666  0.0607
  278MOL0     C36630   5.653  10.443   3.115 -0.7440  0.9038 -0.4257
  278MOL0     H36631   5.512   9.962   3.465 -0.7314 -1.6360  1.5981
  278MOL0     H36632   5.350   9.808   3.514 -0.5917  1.3448  0.7987
  278MOL0     H36633   5.214   9.622   3.499 -1.0602  0.9426  0.2377
  278MOL0     H36634   5.071   9.555   3.420 -0.3438  0.8846 -1.0283
  278MOL0     H36635   5.073   9.823   3.567 -0.4219 -0.9505  1.6172
  278MOL0     H36636   5.033   9.666   3.640  1.5570 -2.9553 -1.5063
  278MOL0     H36637   4.848   9.646   3.480 -0.0375  0.5145 -0.5244
  278MOL0     H36638   4.896   9.812   3.413 -1.1875 -1.2811 -1.0929
  278MOL0     H36639   4.780   9.780   3.689  2.0370  0.1670  0.2454
  278MOL0     H36640   4.832   9.921   3.588 -1.9568  0.9964  1.0482
  278MOL0     H36641   4.596   9.907   3.619 -0.8342  3.1952 -3.2367
  278MOL0     H36642   4.591   9.747   3.541  4.5893 -2.8237 -0.3387
  278MOL0     H36643   4.634   9.816   3.324 -0.2923  0.0878  0.6153
  278MOL0     H36644   4.724   9.956   3.382  0.6667 -1.6173 -0.6248
  278MOL0     H36645   4.518  10.074   3.436  1.9562 -0.3767  0.4499
  278MOL0     H36646   4.520  10.015   3.267 -0.0730 -1.5322 -0.1751
  278MOL0     H36647   4.390   9.824   3.454 -0.4269  0.0405  0.2202
  278MOL0     H36648   4.381   9.839   3.283  0.7165 -2.1106  1.6063
  278MOL0     H36649   4.289  10.092   3.191 -2.7661 -0.2099 -0.8692
  278MOL0     H36650   4.090  10.291   3.221  1.7733 -2.7636 -0.8174
  278MOL0     H36651   3.943  10.249   3.318 -1.3140  0.5728 -1.2046
  278MOL0     H36652   4.021  10.111   3.058 -0.1277 -0.9457 -0.0120
  278MOL0     H36653   3.881  10.226   3.086  1.0513  2.7762  0.6739
  278MOL0     H36654   3.892   9.949   3.194  0.5784  0.8489 -0.2002
  278MOL0     H36655   3.815  10.057   3.293 -0.9080 -3.1215  0.7201
  278MOL0     H36656   3.669   9.945   3.130 -1.7453 -0.3762 -2.9821
  278MOL0     H36657   3.732  10.049   3.002  0.7222  3.0342  1.1195
  278MOL0     H36658   3.481   9.971   3.030  1.2762  1.1817  0.1420
  278MOL0     H36659   3.232  10.009   2.953  0.9521 -1.1019  0.5364
  278MOL0     H36660   2.905  10.465   3.191 -0.6043 -0.7638  0.6343
  278MOL0     H36661   2.684  10.502   3.202  1.9836 -1.1409  0.2577
  278MOL0     H36662   2.410  10.142   3.056  2.0728 -0.6771 -1.2412
  278MOL0     H36663   2.416  10.251   2.920  0.1949  1.8510  1.1657
  278MOL0     H36664   2.202  10.255   2.946  1.7197  0.7820 -1.2252
  278MOL0     H36665   2.255  10.403   3.035 -2.5350 -0.2830 -0.3960
  278MOL0     H36666   2.251  10.268   3.257 -0.7571  1.8760 -0.2570
  278MOL0     H36667   2.185  10.133   3.180 -2.7962 -0.2529  0.0214
  278MOL0     H36668   2.061  10.400   3.173  0.6159 -0.8922  2.3487
  278MOL0     H36669   2.005  10.245   3.096 -0.5990  0.3483 -0.9366
  278MOL0     H36670   2.007  10.165   3.350 -2.1469  0.3516  4.6575
  278MOL0     H36671   1.872  10.258   3.300  0.0050 -1.6510  0.0544
  278MOL0     H36672   2.003  10.470   3.384 -3.5129 -2.4915 -1.0820
  278MOL0     H36673   2.108  10.350   3.465 -0.4327  0.3921  2.0232
  278MOL0     H36674   1.798  10.361   3.496  0.3659 -0.1218 -0.4346
  278MOL0     H36675   1.905  10.247   3.572 -5.0061 -2.0792 -4.2762
  278MOL0     H36676   1.825  10.450   3.714  1.6665 -0.7674  1.8408
  278MOL0     H36677   1.923  10.555   3.611 -1.6729  0.9507  1.4543
  278MOL0     H36678   2.622  10.191   2.893  1.3360 -0.5729 -0.2100
  278MOL0     H36679   2.853  10.166   2.888  0.2917  1.4140  0.1256
  278MOL0     H36680   3.234  10.377   3.170  2.5276  2.4579  2.2080
  278MOL0     H36681   3.467  10.354   3.221 -0.9890  0.2365 -0.3140
  278MOL0     H36682   5.144   9.900   3.141 -2.7089 -0.4575  1.7671
  278MOL0     H36683   5.312  10.070   3.096 -0.8632 -1.1711 -0.0009
  278MOL0     H36684   5.767  10.143   3.225  1.5637  0.6436 -1.1733
  278MOL0     H36685   5.971  10.243   3.131 -0.3580  1.3274  1.7709
  278MOL0     H36686   5.972  10.622   2.898  2.2562  0.0235  2.0796
  278MOL0     H36687   5.922  10.481   2.813 -0.6003  1.9075 -1.2058
  278MOL0     H36688   6.153  10.614   2.754  1.6514  3.3313  2.9734
  278MOL0     H36689   6.215  10.549   2.897  0.7432  4.0879 -1.2892
  278MOL0     H36690   6.285  10.415   2.701 -0.3999 -1.2078 -1.3934
  278MOL0     H36691   6.115  10.383   2.662  0.6868  0.8347 -1.4206
  278MOL0     H36692   6.261  10.322   2.934  4.5863  1.4012 -2.5087
  278MOL0     H36693   6.102  10.264   2.892  0.4386  0.1992  2.4430
  278MOL0     H36694   6.381  10.000   2.714 -2.1384 -0.4816 -0.9997
  278MOL0     H36695   5.779  10.586   3.007  1.5886  1.2231  1.4350
  278MOL0     H36696   5.568  10.510   3.113 -2.1985 -0.5859  3.4405
  279MOL0     O36697  11.047   5.423   1.604 -0.5616  0.1181  0.1508
  279MOL0     C36698  11.070   5.314   1.657  0.0592  0.5107  0.5768
  279MOL0     O36699  10.988   5.242   1.739 -0.6966 -0.7149  0.4719
  279MOL0     C36700  10.876   5.310   1.787  0.6536  0.9384 -0.0317
  279MOL0     C36701  10.876   5.435   1.854 -0.0184 -0.4246  0.4666
  279MOL0     C36702  10.769   5.481   1.926  0.0423 -0.8587 -0.3195
  279MOL0     C36703  10.649   5.406   1.927  0.1695  0.5729 -0.1952
  279MOL0     O36704  10.530   5.431   1.979 -0.2857 -0.5183  0.6537
  279MOL0     C36705  10.522   5.549   2.064 -0.3222  0.2465  0.4897
  279MOL0     C36706  10.383   5.578   2.124 -0.1077 -0.4413 -0.3025
  279MOL0     C36707  10.270   5.597   2.021 -0.9064  0.4081 -0.0758
  279MOL0     C36708  10.141   5.624   2.082  0.3302 -0.0085  0.8466
  279MOL0     C36709  10.025   5.591   1.988  0.3151 -0.0997  0.5925
  279MOL0     C36710   9.897   5.609   2.075 -0.2772  0.0247 -0.8543
  279MOL0     C36711   9.775   5.626   1.990  0.7467 -0.3736  0.0239
  279MOL0     C36712   9.752   5.518   1.887 -0.6382 -0.6705 -0.0634
  279MOL0     N36713   9.611   5.512   1.845  0.0350  1.0269  0.3493
  279MOL0     C36714   9.510   5.456   1.918 -0.0705 -0.0960 -0.1309
  279MOL0     C36715   9.399   5.492   1.848  0.2616 -0.3311 -0.3923
  279MOL0     C36716   9.255   5.471   1.893  0.0672  0.5206 -0.4115
  279MOL0     C36717   9.219   5.323   1.899 -0.4015 -0.0615  0.2788
  279MOL0     C36718   9.088   5.275   1.975 -0.1455 -0.6824  0.6743
  279MOL0     C36719   8.969   5.304   1.901  0.7675  0.4205  0.7923
  279MOL0     O36720   8.864   5.235   1.968 -0.7030  0.0212  0.6538
  279MOL0     C36721   8.732   5.219   1.917 -0.4633 -0.3588  0.8358
  279MOL0     C36722   8.698   5.272   1.792 -0.0443 -0.1131 -0.4405
  279MOL0     C36723   8.571   5.255   1.738 -0.4861 -0.5526 -0.3439
  279MOL0     C36724   8.481   5.167   1.805 -0.1180  0.2467 -0.3846
  279MOL0     C36725   8.346   5.134   1.762  0.1887 -0.0209 -0.7146
  279MOL0     O36726   8.282   5.020   1.818  0.3710  0.1238 -0.2165
  279MOL0     C36727   8.155   4.992   1.765 -0.5041 -0.7809  0.7356
  279MOL0     C36728   8.153   4.931   1.649  0.0645 -0.0119 -0.1949
  279MOL0     C36729   8.039   4.887   1.581 -0.4570 -0.1427 -0.1535
  279MOL0     C36730   7.911   4.891   1.642  0.1081  0.0501  0.2932
  279MOL0     O36731   7.806   4.841   1.574  0.0878 -0.1690  0.4247
  279MOL0     C36732   7.794   4.840   1.428  0.5219  0.6899 -0.9288
  279MOL0     C36733   7.814   4.979   1.372  0.6954  0.5271  0.5043
  279MOL0     C36734   7.719   5.083   1.431 -0.4960  0.9517 -0.1261
  279MOL0     C36735   7.759   5.228   1.415 -0.4078  0.3159  0.0055
  279MOL0     C36736   7.870   5.266   1.500 -0.7114 -0.5362  0.1998
  279MOL0     C36737   7.823   5.292   1.637  0.5102  0.0122 -0.3989
  279MOL0     C36738   7.926   5.351   1.727 -0.3027 -0.4336 -0.0228
  279MOL0     C36739   7.883   5.385   1.877 -0.1099  0.0653  0.4096
  279MOL0    Cl36740   8.016   5.408   1.977 -0.5433  0.2234 -0.3077
  279MOL0     C36741   7.909   4.965   1.764  0.2683 -0.0393  0.5157
  279MOL0     C36742   8.023   5.017   1.822 -0.0757 -0.5765  0.0143
  279MOL0     O36743   8.303   5.200   1.674  0.0031 -0.0241  0.1413
  279MOL0     C36744   8.519   5.122   1.932  0.2549 -0.0038  0.0132
  279MOL0     C36745   8.638   5.155   1.989  0.2706 -0.3421 -0.3492
  279MOL0     N36746   9.436   5.547   1.724  0.0726 -0.0772 -0.0370
  279MOL0     N36747   9.563   5.570   1.731 -0.3000 -0.1786  0.2086
  279MOL0     C36748  10.648   5.287   1.861 -0.5334 -0.5242 -1.0463
  279MOL0     C36749  10.756   5.241   1.789  0.1224 -0.4976 -0.7204
  279MOL0     C36750  11.204   5.271   1.648 -0.6240  0.2904 -0.1339
  279MOL0     C36751  11.305   5.344   1.587  0.1083 -0.1627 -0.0812
  279MOL0     C36752  11.424   5.278   1.558  0.2759 -0.7110 -0.5578
  279MOL0     C36753  11.453   5.152   1.598 -0.9813  0.7222 -0.2090
  279MOL0     O36754  11.574   5.090   1.580 -0.3506 -0.3154  0.2619
  279MOL0     C36755  11.656   5.101   1.692  0.8691 -1.1153  0.3909
  279MOL0     C36756  11.784   5.014   1.688  0.6817  0.3471 -0.6425
  279MOL0     C36757  11.894   5.061   1.598  0.0692 -0.3089  0.1586
  279MOL0     C36758  12.005   4.951   1.609 -0.8327 -0.8058 -0.4821
  279MOL0     C36759  12.081   4.981   1.731 -0.4077 -0.5478 -0.3427
  279MOL0     C36760  12.143   5.004   1.830 -0.0141  0.8793 -0.5764
  279MOL0     C36761  11.360   5.080   1.674  0.5567 -0.0226  1.1474
  279MOL0     C36762  11.235   5.138   1.692 -0.2053 -0.3830  0.3381
  279MOL0     H36763  10.970   5.490   1.859 -0.1973  0.1165 -1.3736
  279MOL0     H36764  10.790   5.573   1.981  2.6417 -1.0065 -0.9708
  279MOL0     H36765  10.556   5.635   2.006 -0.9348 -0.8196 -1.5380
  279MOL0     H36766  10.584   5.520   2.150 -0.2544 -0.5106  0.1971
  279MOL0     H36767  10.378   5.672   2.180 -2.6410 -0.3494 -0.5761
  279MOL0     H36768  10.357   5.503   2.199 -0.9675  0.6035  0.4964
  279MOL0     H36769  10.261   5.505   1.964 -3.4781  0.4196  0.2142
  279MOL0     H36770  10.299   5.676   1.951  0.8767 -0.8646 -0.8407
  279MOL0     H36771  10.134   5.568   2.175  1.2030  0.4160  1.1820
  279MOL0     H36772  10.142   5.730   2.108  2.7306 -0.1516  1.5801
  279MOL0     H36773  10.031   5.486   1.957  2.1575 -0.1907  1.1014
  279MOL0     H36774  10.028   5.662   1.905 -0.9085 -0.0647  0.5571
  279MOL0     H36775   9.904   5.701   2.134 -0.8096 -0.1738 -0.4722
  279MOL0     H36776   9.882   5.520   2.136 -2.4459 -0.3956 -1.9167
  279MOL0     H36777   9.684   5.628   2.051 -0.9438 -0.3528 -2.3483
  279MOL0     H36778   9.777   5.718   1.930 -1.0600 -0.4578 -0.2248
  279MOL0     H36779   9.799   5.421   1.902  1.2495 -0.2298 -2.5309
  279MOL0     H36780   9.799   5.550   1.794  0.4992  0.0456  0.7283
  279MOL0     H36781   9.500   5.411   2.016 -0.9100  1.1507  0.3708
  279MOL0     H36782   9.187   5.518   1.821  0.5298 -1.8875 -2.5829
  279MOL0     H36783   9.250   5.517   1.992 -1.1359  0.0568 -0.2349
  279MOL0     H36784   9.296   5.276   1.961 -3.3112 -2.5329  2.2992
  279MOL0     H36785   9.221   5.287   1.796  0.5620  0.8454 -0.0362
  279MOL0     H36786   9.096   5.168   1.994 -0.5933 -0.6006  1.3700
  279MOL0     H36787   9.071   5.327   2.070 -2.0329  0.9241 -0.4487
  279MOL0     H36788   8.970   5.281   1.794 -0.1564  4.2234 -0.2084
  279MOL0     H36789   8.953   5.412   1.904  3.4435  1.0888 -2.5326
  279MOL0     H36790   8.765   5.336   1.735  0.1354 -1.5376 -1.8855
  279MOL0     H36791   8.551   5.310   1.647 -0.5597  1.4221  0.8252
  279MOL0     H36792   8.252   4.911   1.608 -1.0544 -1.7921 -2.2590
  279MOL0     H36793   8.054   4.843   1.483  0.9039  0.3152 -0.1704
  279MOL0     H36794   7.699   4.795   1.400  0.2077  0.3180  0.6082
  279MOL0     H36795   7.865   4.766   1.391 -1.3538 -0.7044 -1.9199
  279MOL0     H36796   7.783   4.974   1.267 -3.4515 -0.3086  1.5779
  279MOL0     H36797   7.920   4.998   1.391  0.7758  0.0307  0.5598
  279MOL0     H36798   7.708   5.072   1.539 -2.0829  1.7037 -0.1793
  279MOL0     H36799   7.621   5.080   1.384 -2.4069  3.5999  3.2155
  279MOL0     H36800   7.784   5.242   1.309 -0.9162  1.8060  0.0615
  279MOL0     H36801   7.677   5.293   1.445  0.0098 -0.0217  2.0279
  279MOL0     H36802   7.919   5.355   1.461 -0.8397  0.2576  1.7867
  279MOL0     H36803   7.950   5.192   1.497  2.5383  2.7145 -2.6055
  279MOL0     H36804   7.790   5.197   1.681  1.1992 -0.0679 -0.0424
  279MOL0     H36805   7.738   5.362   1.635 -0.4393 -0.8784  2.8363
  279MOL0     H36806   8.021   5.297   1.739  0.7844  1.6928  1.8032
  279MOL0     H36807   7.960   5.439   1.671 -0.9601  0.1107  0.4137
  279MOL0     H36808   7.828   5.297   1.910  0.6221 -0.0600  1.3403
  279MOL0     H36809   7.817   5.472   1.882 -0.2277 -0.0522  0.8623
  279MOL0     H36810   7.817   4.977   1.821 -1.4456 -0.6767 -1.9445
  279MOL0     H36811   8.023   5.056   1.924  4.1431 -1.4335  0.5310
  279MOL0     H36812   8.460   5.068   2.005 -0.6681 -0.5861 -1.1258
  279MOL0     H36813   8.673   5.123   2.087 -0.2348 -1.1040 -0.4132
  279MOL0     H36814  10.560   5.225   1.870  0.9376 -2.4998  0.5672
  279MOL0     H36815  10.732   5.148   1.738 -0.5459 -0.5685 -0.2927
  279MOL0     H36816  11.290   5.447   1.555 -2.8060 -0.2529  0.6620
  279MOL0     H36817  11.511   5.324   1.511 -0.7446  0.8640 -1.0069
  279MOL0     H36818  11.599   5.068   1.779  0.5216  2.9438  1.9346
  279MOL0     H36819  11.691   5.205   1.700 -0.3337 -0.5029 -1.6518
  279MOL0     H36820  11.816   5.010   1.793 -2.8735  0.0274  0.5713
  279MOL0     H36821  11.751   4.913   1.663 -1.7599  1.6137 -3.1157
  279MOL0     H36822  11.923   5.166   1.606  1.4654 -0.7214  0.9208
  279MOL0     H36823  11.850   5.056   1.498 -0.7928  3.0971  0.2512
  279MOL0     H36824  11.956   4.854   1.599 -2.6251 -0.3397  2.4836
  279MOL0     H36825  12.073   4.970   1.526  1.1492  2.3697  1.6510
  279MOL0     H36826  12.199   5.027   1.918 -2.5134  2.6908  0.6335
  279MOL0     H36827  11.360   4.979   1.714 -3.8623  0.3685  2.7258
  279MOL0     H36828  11.156   5.081   1.740 -0.6178  1.8113  2.4468
  280MOL0     O36829   6.005   3.789   1.429 -0.8808  0.0806  0.0878
  280MOL0     C36830   6.036   3.862   1.337  0.2128  0.1804 -0.2292
  280MOL0     O36831   5.960   3.899   1.231  0.4447  0.7817  0.0698
  280MOL0     C36832   5.833   3.846   1.226  0.4302  0.2076 -0.1141
  280MOL0     C36833   5.754   3.910   1.121 -1.1473 -0.2020 -0.3776
  280MOL0     C36834   5.621   3.876   1.095 -0.0594 -0.0911  1.2065
  280MOL0     C36835   5.556   3.775   1.161  0.1461 -0.5079 -0.6532
  280MOL0     O36836   5.426   3.735   1.141 -0.3868  0.0074 -0.0239
  280MOL0     C36837   5.332   3.841   1.094 -0.4254  0.1590 -0.5779
  280MOL0     C36838   5.201   3.783   1.117  0.4539  0.2682  0.3197
  280MOL0     C36839   5.089   3.870   1.055  0.3696 -0.2360  0.3737
  280MOL0     C36840   4.957   3.814   1.101 -0.2862  0.7061  0.1705
  280MOL0     C36841   4.844   3.885   1.027 -0.7678 -1.1292  0.3520
  280MOL0     C36842   4.710   3.837   1.077 -0.4403  0.5373  0.3534
  280MOL0     C36843   4.601   3.944   1.068 -0.1701  0.7401 -1.0151
  280MOL0     C36844   4.459   3.883   1.093 -0.0420 -0.2124  0.2492
  280MOL0     N36845   4.354   3.967   1.073  0.3971 -0.3902  0.3964
  280MOL0     C36846   4.244   3.932   0.995  0.4717  0.3671 -0.5057
  280MOL0     C36847   4.161   4.046   0.992  0.7940 -0.1891 -0.2907
  280MOL0     C36848   4.014   4.059   0.940  0.3055  0.3462  0.0592
  280MOL0     C36849   3.918   4.074   1.053  0.3320 -0.3510  1.0152
  280MOL0     C36850   3.775   4.051   1.000 -0.1127 -0.4078  0.0937
  280MOL0     C36851   3.669   4.046   1.112  0.2528 -0.1732 -0.2505
  280MOL0     O36852   3.539   4.033   1.060  0.7468 -0.6476  0.0724
  280MOL0     C36853   3.436   4.075   1.146  0.3315 -0.9817  0.4413
  280MOL0     C36854   3.308   4.087   1.093 -0.6423 -0.0850  0.2431
  280MOL0     C36855   3.203   4.136   1.165  0.0002 -0.2238  0.0509
  280MOL0     C36856   3.223   4.173   1.295 -0.2654 -0.3148 -0.2828
  280MOL0     C36857   3.104   4.230   1.369  0.8256 -0.1317  0.2989
  280MOL0     O36858   2.982   4.234   1.303  0.5472  0.9752 -0.2390
  280MOL0     C36859   2.886   4.337   1.315 -0.6099 -0.7307  0.7488
  280MOL0     C36860   2.762   4.320   1.247 -0.2447 -0.8364  0.5419
  280MOL0     C36861   2.667   4.422   1.250 -0.4572 -0.1502  0.1666
  280MOL0     C36862   2.684   4.543   1.316  0.8080 -0.1169  0.2367
  280MOL0     O36863   2.586   4.634   1.305  0.1078 -0.2837 -0.2517
  280MOL0     C36864   2.600   4.737   1.399 -0.1744  0.1915 -1.1917
  280MOL0     C36865   2.476   4.828   1.391  0.2012 -0.0264 -0.0897
  280MOL0     C36866   2.350   4.753   1.428 -0.1859  0.2489  0.2069
  280MOL0     C36867   2.228   4.852   1.414 -0.1700 -0.5813 -0.0327
  280MOL0     C36868   2.107   4.791   1.477  0.9767  0.7546 -0.6790
  280MOL0     C36869   1.999   4.894   1.502 -0.4574 -0.0796 -0.0961
  280MOL0     C36870   1.892   4.827   1.591  0.9695 -0.3051 -0.1108
  280MOL0     C36871   1.843   4.689   1.544 -1.0699 -0.0856 -0.1433
  280MOL0    Cl36872   1.787   4.688   1.380 -0.1107 -0.3291  0.3302
  280MOL0     C36873   2.806   4.553   1.390 -0.2272 -0.0287  0.2207
  280MOL0     C36874   2.897   4.454   1.388 -0.3175 -0.4320 -0.0868
  280MOL0     O36875   3.127   4.272   1.488 -0.0083  0.3920  0.4237
  280MOL0     C36876   3.343   4.151   1.364 -0.0730  0.1052  0.4620
  280MOL0     C36877   3.448   4.097   1.287  0.5789  0.7558 -0.0664
  280MOL0     N36878   4.224   4.145   1.067 -1.2731  0.2086 -0.3114
  280MOL0     N36879   4.340   4.098   1.117  0.7989  0.1349  0.3093
  280MOL0     C36880   5.629   3.705   1.263  0.5841  0.7473  0.1253
  280MOL0     C36881   5.762   3.744   1.290  0.9323  0.3816 -0.9208
  280MOL0     C36882   6.172   3.917   1.336 -0.0887 -0.0219 -0.0586
  280MOL0     C36883   6.210   3.974   1.210 -0.3919  0.0523 -0.3256
  280MOL0     C36884   6.332   4.054   1.209 -0.4926  0.0877 -0.3488
  280MOL0     C36885   6.414   4.066   1.322  0.6151  0.3742  0.3387
  280MOL0     O36886   6.533   4.123   1.295 -0.0482  0.1113  0.1537
  280MOL0     C36887   6.647   4.111   1.389  0.3373 -0.2618 -0.3531
  280MOL0     C36888   6.776   4.106   1.316 -0.0359 -0.7709 -0.3144
  280MOL0     C36889   6.808   3.958   1.307  0.7395  0.2956 -0.7647
  280MOL0     C36890   6.945   3.932   1.244  0.1302  0.4940 -1.1563
  280MOL0     C36891   6.998   3.798   1.269 -0.4291  1.0059  0.1557
  280MOL0     C36892   7.083   3.716   1.293  0.1056  0.0001 -0.6668
  280MOL0     C36893   6.378   4.005   1.440  0.1115 -0.1265 -0.0857
  280MOL0     C36894   6.259   3.931   1.446  0.5270  0.6322 -0.4546
  280MOL0     H36895   5.799   3.993   1.069  1.0015 -0.1436  1.3976
  280MOL0     H36896   5.579   3.939   1.017 -2.6313  1.9988  4.0333
  280MOL0     H36897   5.356   3.872   0.992  2.4606  2.5388  0.6673
  280MOL0     H36898   5.335   3.933   1.153  0.8026 -1.3919  1.9550
  280MOL0     H36899   5.183   3.766   1.224 -2.6210  1.3243  0.0495
  280MOL0     H36900   5.199   3.686   1.067  0.5635  1.6784 -2.6209
  280MOL0     H36901   5.104   3.852   0.948  0.2085  0.7146  0.1856
  280MOL0     H36902   5.085   3.977   1.077 -1.8958 -0.2671  0.3262
  280MOL0     H36903   4.948   3.706   1.088  2.2274  0.2653  1.4472
  280MOL0     H36904   4.956   3.843   1.207 -2.1483 -0.2324  0.4582
  280MOL0     H36905   4.856   3.863   0.920  2.6123 -0.8974  0.5709
  280MOL0     H36906   4.851   3.994   1.038  1.2473 -1.1601 -0.1483
  280MOL0     H36907   4.731   3.806   1.179  5.4858 -0.5705 -0.8154
  280MOL0     H36908   4.682   3.744   1.025  0.6313 -0.0862  0.8666
  280MOL0     H36909   4.624   4.023   1.140  2.0784  1.0595 -2.0075
  280MOL0     H36910   4.615   3.980   0.965  1.6835 -1.5337 -1.6412
  280MOL0     H36911   4.461   3.847   1.196  0.8654 -0.1556  0.2608
  280MOL0     H36912   4.440   3.798   1.027 -2.3142 -0.0207  0.5471
  280MOL0     H36913   4.207   3.838   0.956 -2.8506  1.1728  0.3627
  280MOL0     H36914   3.987   3.969   0.884 -0.2477  0.4944  0.0905
  280MOL0     H36915   4.005   4.145   0.874  1.2783 -1.0897 -2.0783
  280MOL0     H36916   3.914   4.176   1.091 -1.2059 -0.6931  1.8432
  280MOL0     H36917   3.936   3.998   1.130 -0.4783 -1.4052  0.2045
  280MOL0     H36918   3.744   4.115   0.917 -2.0468 -2.0988 -0.5689
  280MOL0     H36919   3.772   3.954   0.949 -0.2417 -0.4909  0.2575
  280MOL0     H36920   3.687   4.135   1.174 -0.3716 -0.7640  0.8171
  280MOL0     H36921   3.699   3.958   1.170  0.4271 -2.1730 -3.1882
  280MOL0     H36922   3.277   4.047   0.997  2.0877 -0.2201 -0.6853
  280MOL0     H36923   3.104   4.149   1.124 -1.0896 -1.2709  2.1685
  280MOL0     H36924   2.756   4.224   1.198  1.0482 -0.6229 -0.1042
  280MOL0     H36925   2.575   4.404   1.195 -1.0617 -2.1928  1.7217
  280MOL0     H36926   2.690   4.798   1.383 -1.0607  1.7256 -0.4701
  280MOL0     H36927   2.616   4.704   1.502 -3.3710  2.3038  0.1404
  280MOL0     H36928   2.473   4.871   1.291 -1.8887  2.8274  1.0567
  280MOL0     H36929   2.487   4.915   1.457 -0.3223 -1.8423  2.5959
  280MOL0     H36930   2.363   4.717   1.530 -1.8896 -0.9779  0.0373
  280MOL0     H36931   2.325   4.674   1.356 -0.8363  1.4415 -0.9119
  280MOL0     H36932   2.242   4.949   1.464  0.4946 -0.0117 -1.2732
  280MOL0     H36933   2.220   4.878   1.308  0.8560 -0.8807 -0.1913
  280MOL0     H36934   2.136   4.754   1.576 -2.7432  1.0728  0.6955
  280MOL0     H36935   2.076   4.704   1.419 -1.7338  1.3291 -0.2298
  280MOL0     H36936   1.944   4.927   1.413 -0.7949 -0.6912 -0.1198
  280MOL0     H36937   2.049   4.978   1.551 -1.4657  0.6249 -0.2311
  280MOL0     H36938   1.925   4.813   1.695 -0.9836 -0.9971  0.4677
  280MOL0     H36939   1.797   4.881   1.597  0.2753 -1.5764  0.9567
  280MOL0     H36940   1.761   4.665   1.612 -0.7447  1.7638  0.9605
  280MOL0     H36941   1.926   4.618   1.551  0.8294  1.8575 -1.6944
  280MOL0     H36942   2.834   4.652   1.426 -2.0904  0.0608  1.5934
  280MOL0     H36943   2.987   4.481   1.442 -1.2431  2.1189  0.2961
  280MOL0     H36944   3.356   4.156   1.472  0.3617 -0.5275  0.4493
  280MOL0     H36945   3.537   4.070   1.342 -0.6135 -0.2028  1.4694
  280MOL0     H36946   5.582   3.622   1.314  1.2512  0.1669 -0.1964
  280MOL0     H36947   5.817   3.685   1.363 -1.5633 -1.2656 -0.2410
  280MOL0     H36948   6.145   3.976   1.124  0.8145  1.6181 -1.2572
  280MOL0     H36949   6.359   4.095   1.112  0.7079 -1.6654 -0.8001
  280MOL0     H36950   6.633   4.015   1.440  3.2523 -0.4429  0.2884
  280MOL0     H36951   6.642   4.196   1.458  1.1630 -0.1550 -0.4242
  280MOL0     H36952   6.768   4.148   1.215 -1.2970  0.9919  0.4715
  280MOL0     H36953   6.858   4.155   1.368  1.0705 -1.4241 -1.4078
  280MOL0     H36954   6.735   3.911   1.239 -1.8509  1.8459  0.7766
  280MOL0     H36955   6.808   3.923   1.410  1.7659  2.3307 -0.0174
  280MOL0     H36956   6.923   3.944   1.137 -1.5421  0.4067 -0.8440
  280MOL0     H36957   7.014   4.007   1.283 -0.3289 -0.0166  0.7196
  280MOL0     H36958   7.163   3.645   1.294 -1.5162 -1.9228 -0.5576
  280MOL0     H36959   6.446   4.012   1.524 -0.4531 -0.6610  0.4286
  280MOL0     H36960   6.214   3.909   1.542 -2.1999  2.5884 -1.1804
  281MOL0     O36961   1.769   1.483  10.785 -0.1267  0.5108 -0.6490
  281MOL0     C36962   1.807   1.371  10.752 -0.5972  0.6447  0.3364
  281MOL0     O36963   1.723   1.271  10.705 -0.4913  0.3036  0.1905
  281MOL0     C36964   1.606   1.305  10.641  0.1627  0.6926  0.3894
  281MOL0     C36965   1.600   1.261  10.506 -0.5799 -1.4456  0.0288
  281MOL0     C36966   1.494   1.301  10.432 -0.8580  0.6151 -0.5803
  281MOL0     C36967   1.386   1.358  10.485  0.1917 -0.5402 -0.0621
  281MOL0     O36968   1.284   1.386  10.396 -0.0123 -0.3618 -0.6704
  281MOL0     C36969   1.150   1.413  10.449 -0.3376 -0.5175  0.2787
  281MOL0     C36970   1.056   1.465  10.340  1.1359  0.0637  0.3227
  281MOL0     C36971   1.044   1.363  10.227  0.0656  0.0487 -0.6499
  281MOL0     C36972   0.936   1.411  10.122  0.8723 -0.7379 -0.3805
  281MOL0     C36973   0.795   1.425  10.174  0.8560  0.5505  0.0109
  281MOL0     C36974   0.686   1.449  10.067 -0.3555  0.0971  0.5707
  281MOL0     C36975   0.546   1.447  10.136  0.2864  0.2180 -0.3041
  281MOL0     C36976   0.447   1.468  10.027 -0.2738  0.2328  0.4668
  281MOL0     N36977   0.311   1.471  10.074 -0.4255  0.2187  0.4869
  281MOL0     C36978   0.238   1.357  10.103 -0.1788 -0.1722  0.5448
  281MOL0     C36979   0.121   1.407  10.160 -0.3048 -0.4249  0.2676
  281MOL0     C36980   0.003   1.327  10.190 -0.8346 -0.4557  0.0841
  281MOL0     C36981  -0.098   1.394  10.285  0.5001 -0.5989  0.0023
  281MOL0     C36982  -0.209   1.297  10.306 -0.3673  0.6859 -0.6566
  281MOL0     C36983  -0.295   1.348  10.431 -0.3522 -0.4739 -0.0178
  281MOL0     O36984  -0.408   1.266  10.427  0.4253 -0.3009  1.1321
  281MOL0     C36985  -0.517   1.305  10.356  0.5350  0.4885  0.6404
  281MOL0     C36986  -0.526   1.422  10.277 -0.5562 -0.1563 -0.1134
  281MOL0     C36987  -0.640   1.459  10.208  0.2158  0.0394 -0.2933
  281MOL0     C36988  -0.749   1.374  10.212 -0.1969  0.6703  0.2289
  281MOL0     C36989  -0.872   1.384  10.117 -0.8455  0.5613  0.8337
  281MOL0     O36990  -0.968   1.295  10.137  0.1762 -0.4782  0.1427
  281MOL0     C36991  -1.089   1.287  10.080  0.9140 -0.1365 -0.2465
  281MOL0     C36992  -1.169   1.169  10.099  0.2774  0.0142 -0.4237
  281MOL0     C36993  -1.304   1.162  10.048 -0.7318  0.3307 -0.0671
  281MOL0     C36994  -1.361   1.266   9.976 -0.0717 -1.0721 -0.7829
  281MOL0     O36995  -1.480   1.266   9.913  0.1551  0.2027  0.2480
  281MOL0     C36996  -1.477   1.176   9.801 -0.6900 -1.0376 -0.4914
  281MOL0     C36997  -1.600   1.194   9.707  0.3089  0.0571  0.0741
  281MOL0     C36998  -1.725   1.130   9.765 -0.9777  0.1958 -0.3150
  281MOL0     C36999  -1.851   1.152   9.690 -0.3097 -0.4472  0.0067
  281MOL0     C37000  -1.970   1.109   9.781 -0.3029  0.0716  0.2718
  281MOL0     C37001  -2.102   1.137   9.712 -0.5570  0.7652  0.4742
  281MOL0     C37002  -2.223   1.087   9.789 -0.0881  0.5024 -0.8982
  281MOL0     C37003  -2.359   1.140   9.749 -0.0747 -0.5142 -0.0355
  281MOL0    Cl37004  -2.403   1.061   9.596  0.6341  0.3730 -0.2964
  281MOL0     C37005  -1.288   1.382   9.975 -0.2063 -0.8058 -0.5492
  281MOL0     C37006  -1.153   1.394  10.018  0.0223 -0.6918 -0.2980
  281MOL0     O37007  -0.873   1.479  10.030  0.5770  0.4099  0.3432
  281MOL0     C37008  -0.744   1.270  10.299  1.0034  0.6258 -0.1609
  281MOL0     C37009  -0.629   1.238  10.374  0.4945 -0.1331 -0.5752
  281MOL0     N37010   0.142   1.545  10.173  0.4083 -0.0047 -0.3084
  281MOL0     N37011   0.250   1.581  10.108  0.4671 -1.0793 -0.1537
  281MOL0     C37012   1.389   1.394  10.622  0.1784  0.1541 -0.6494
  281MOL0     C37013   1.501   1.373  10.695 -0.6029 -0.0299  0.1173
  281MOL0     C37014   1.946   1.346  10.762 -0.7612 -0.6486  0.1963
  281MOL0     C37015   1.999   1.227  10.709  0.3058  0.1362  0.2910
  281MOL0     C37016   2.131   1.182  10.734 -0.3305  0.0986 -0.3615
  281MOL0     C37017   2.221   1.267  10.802 -0.1140  0.4129  0.4446
  281MOL0     O37018   2.352   1.244  10.821  0.4854 -0.0464  0.7300
  281MOL0     C37019   2.420   1.173  10.713  0.5719  0.3575 -0.4664
  281MOL0     C37020   2.563   1.197  10.750 -0.1264  0.5364 -0.2557
  281MOL0     C37021   2.646   1.101  10.659 -0.1087 -0.1004  1.2073
  281MOL0     C37022   2.653   0.956  10.702  0.2077 -0.1409 -0.2374
  281MOL0     C37023   2.784   0.897  10.694  0.5198 -0.7411  0.0486
  281MOL0     C37024   2.894   0.851  10.706  0.6052 -0.1831  0.2683
  281MOL0     C37025   2.170   1.390  10.862  0.0954 -0.2474  0.3111
  281MOL0     C37026   2.033   1.425  10.841 -0.0533  0.5131  0.2437
  281MOL0     H37027   1.685   1.206  10.466  1.1626  2.0257 -1.4686
  281MOL0     H37028   1.487   1.275  10.326  5.3225  0.4464 -1.2625
  281MOL0     H37029   1.145   1.481  10.535 -2.7637 -1.9418  1.3890
  281MOL0     H37030   1.093   1.327  10.485  0.9802 -1.0389  1.1598
  281MOL0     H37031   1.092   1.559  10.297  1.9617  0.5329  1.9751
  281MOL0     H37032   0.960   1.497  10.382  0.1385 -2.0052 -0.2744
  281MOL0     H37033   1.010   1.272  10.279 -1.8432  2.4869  2.8154
  281MOL0     H37034   1.138   1.347  10.174  0.5825 -4.6410  1.2346
  281MOL0     H37035   0.972   1.509  10.088  0.0925 -0.2065  0.2687
  281MOL0     H37036   0.950   1.347  10.035  4.2357 -0.0073 -0.5148
  281MOL0     H37037   0.793   1.505  10.250  0.1853 -0.2978  0.9152
  281MOL0     H37038   0.763   1.332  10.222  1.9507  0.0781 -0.1470
  281MOL0     H37039   0.696   1.367   9.995  0.5917  0.6237  0.0869
  281MOL0     H37040   0.698   1.544  10.014 -0.0341 -0.4112 -0.3073
  281MOL0     H37041   0.519   1.351  10.180 -1.4833  0.6288 -0.3990
  281MOL0     H37042   0.530   1.525  10.211 -1.1430 -1.3826  1.1376
  281MOL0     H37043   0.461   1.394   9.947 -1.4427  1.4757 -0.9348
  281MOL0     H37044   0.475   1.568   9.991  0.0509  0.3769  1.1002
  281MOL0     H37045   0.263   1.252  10.099  0.5902 -0.0303  1.3706
  281MOL0     H37046   0.057   1.244  10.237  1.6228  0.8073 -0.3546
  281MOL0     H37047  -0.045   1.298  10.096  1.2917 -0.1540 -1.1587
  281MOL0     H37048  -0.149   1.482  10.245  0.6995 -0.3568  0.2719
  281MOL0     H37049  -0.049   1.429  10.376 -0.5905  1.7927 -0.2526
  281MOL0     H37050  -0.283   1.276  10.228 -0.1909 -1.9617 -0.1964
  281MOL0     H37051  -0.162   1.202  10.333  0.4307  1.6887  1.7691
  281MOL0     H37052  -0.315   1.453  10.408  0.2044  0.0179  1.5849
  281MOL0     H37053  -0.235   1.330  10.521  0.9319 -2.4408 -1.2022
  281MOL0     H37054  -0.445   1.490  10.255 -1.0965  0.6227  0.2843
  281MOL0     H37055  -0.652   1.551  10.151 -0.2799 -0.0028 -0.2617
  281MOL0     H37056  -1.127   1.092  10.163 -1.2710 -1.5556 -1.1985
  281MOL0     H37057  -1.350   1.069  10.077 -1.4979  1.0761  1.2090
  281MOL0     H37058  -1.466   1.072   9.833  1.5960 -0.8503 -0.5196
  281MOL0     H37059  -1.390   1.210   9.744  0.4698 -1.3741  1.0279
  281MOL0     H37060  -1.584   1.153   9.607 -3.3071  1.1578 -1.1398
  281MOL0     H37061  -1.627   1.299   9.688 -0.4262  0.0572  1.0246
  281MOL0     H37062  -1.734   1.158   9.870  0.6678 -1.8322  0.4325
  281MOL0     H37063  -1.698   1.024   9.770  0.8245  0.6796  1.5986
  281MOL0     H37064  -1.862   1.253   9.649 -1.4559 -0.3412  0.5334
  281MOL0     H37065  -1.838   1.081   9.608  2.5973  0.9442 -0.8706
  281MOL0     H37066  -1.971   1.178   9.866  1.5446  2.3665 -1.4511
  281MOL0     H37067  -1.960   1.005   9.814 -0.4495 -0.9477 -2.6528
  281MOL0     H37068  -2.095   1.079   9.619  1.2900 -1.5044  1.9450
  281MOL0     H37069  -2.103   1.246   9.697  3.5594  1.1074  1.5211
  281MOL0     H37070  -2.244   0.982   9.764  1.2581 -0.0969  0.3280
  281MOL0     H37071  -2.219   1.103   9.897  0.6496 -1.1280 -0.6403
  281MOL0     H37072  -2.360   1.250   9.756  0.3966 -0.5261  0.2908
  281MOL0     H37073  -2.439   1.111   9.817 -0.4247 -0.1949 -0.3077
  281MOL0     H37074  -1.329   1.468   9.923 -2.1815 -2.0767 -1.1701
  281MOL0     H37075  -1.108   1.492  10.025  1.2487 -1.2944  0.8073
  281MOL0     H37076  -0.831   1.206  10.296  1.6349 -0.3418 -4.4002
  281MOL0     H37077  -0.618   1.152  10.439  0.2721  1.5703  1.8514
  281MOL0     H37078   1.303   1.447  10.662  0.7310  2.5829 -2.3919
  281MOL0     H37079   1.509   1.399  10.800  0.2442 -3.4864  1.0582
  281MOL0     H37080   1.948   1.176  10.628  4.5301  0.0439 -2.6599
  281MOL0     H37081   2.158   1.091  10.681 -1.0087  0.0921 -0.7083
  281MOL0     H37082   2.405   1.214  10.613 -1.0590  0.7995 -0.0712
  281MOL0     H37083   2.398   1.066  10.712 -0.2421  0.4470  1.7639
  281MOL0     H37084   2.590   1.300  10.724  1.0095  0.1531 -0.6816
  281MOL0     H37085   2.585   1.183  10.856 -0.4285 -1.9706 -0.4644
  281MOL0     H37086   2.747   1.143  10.651 -0.4203  0.4593  0.0046
  281MOL0     H37087   2.603   1.105  10.558 -0.3776 -2.4694  1.1572
  281MOL0     H37088   2.627   0.944  10.808 -1.2614  1.8194 -0.3143
  281MOL0     H37089   2.589   0.897  10.638  0.9512 -1.5327  0.2639
  281MOL0     H37090   2.985   0.796  10.700 -1.0429 -2.9223 -1.9163
  281MOL0     H37091   2.227   1.455  10.929 -1.2619 -0.1684  1.4368
  281MOL0     H37092   2.006   1.515  10.896 -2.1926  0.9121 -1.3288
  282MOL0     O37093   9.957   9.486   8.561 -0.8509  0.1333  0.0136
  282MOL0     C37094   9.916   9.383   8.517  0.2589 -0.0788 -0.4525
  282MOL0     O37095   9.786   9.340   8.521 -0.6282  0.5166 -0.2706
  282MOL0     C37096   9.692   9.412   8.591  0.4447  0.5195 -0.6396
  282MOL0     C37097   9.576   9.451   8.524  0.1594 -0.6510 -0.4751
  282MOL0     C37098   9.469   9.519   8.597 -0.6184 -1.1494  0.0850
  282MOL0     C37099   9.492   9.570   8.724  0.1379  1.0426  0.9683
  282MOL0     O37100   9.403   9.629   8.805  0.0372 -0.3878  0.1496
  282MOL0     C37101   9.261   9.630   8.790 -0.2351  0.2812 -0.2958
  282MOL0     C37102   9.184   9.725   8.882  0.2910 -0.1640 -0.6459
  282MOL0     C37103   9.033   9.713   8.867  0.8659  0.0083  0.4919
  282MOL0     C37104   8.990   9.616   8.968  0.3206  0.5137  0.3512
  282MOL0     C37105   8.838   9.610   8.955 -0.0630  0.0609  0.0491
  282MOL0     C37106   8.785   9.512   8.851 -0.4305  0.2620  0.5817
  282MOL0     C37107   8.635   9.466   8.875 -0.6880 -0.3845 -0.2692
  282MOL0     C37108   8.539   9.592   8.866  0.5270 -0.3169 -0.1846
  282MOL0     N37109   8.403   9.553   8.905  0.0803  0.6310  0.4562
  282MOL0     C37110   8.351   9.561   9.033 -1.2919 -0.0196 -0.2445
  282MOL0     C37111   8.226   9.515   9.029  0.5366 -0.7647  0.1268
  282MOL0     C37112   8.124   9.510   9.143 -0.3523 -0.8125 -0.2351
  282MOL0     C37113   7.987   9.532   9.093  0.3925  0.3874  0.1222
  282MOL0     C37114   7.965   9.680   9.053  0.0609  0.3692  0.2407
  282MOL0     C37115   7.833   9.691   8.981 -0.1551  0.1517 -0.6021
  282MOL0     O37116   7.736   9.681   9.081  0.4220 -0.8805 -0.5174
  282MOL0     C37117   7.606   9.674   9.048 -0.2629 -1.3869 -0.5977
  282MOL0     C37118   7.556   9.678   8.913 -0.9010 -0.5182 -0.3296
  282MOL0     C37119   7.422   9.682   8.887 -0.9378 -0.2518  0.3388
  282MOL0     C37120   7.326   9.694   8.987 -0.5535  0.3308 -0.1870
  282MOL0     C37121   7.188   9.723   8.952  0.2708 -0.2814 -0.6896
  282MOL0     O37122   7.086   9.654   9.023 -0.3080  0.7176  0.5913
  282MOL0     C37123   6.957   9.672   8.972 -0.6985 -0.8174 -0.2092
  282MOL0     C37124   6.858   9.694   9.066  1.3295  0.4875  0.4119
  282MOL0     C37125   6.720   9.701   9.030 -0.4374 -0.6370 -0.3211
  282MOL0     C37126   6.683   9.673   8.898  0.5157 -0.3678 -0.2548
  282MOL0     O37127   6.560   9.650   8.848  0.0399 -0.4693 -0.9404
  282MOL0     C37128   6.456   9.692   8.932 -0.5775 -0.0291 -0.8819
  282MOL0     C37129   6.323   9.713   8.867  0.8081  0.7741  0.0730
  282MOL0     C37130   6.215   9.748   8.965 -0.0077  0.3182 -0.6325
  282MOL0     C37131   6.086   9.768   8.890 -0.0313  0.4012  0.5315
  282MOL0     C37132   5.981   9.829   8.977  0.2734 -0.2110  0.3835
  282MOL0     C37133   5.848   9.844   8.909  0.5007 -0.9172 -0.4560
  282MOL0     C37134   5.743   9.943   8.981  0.6558  0.9661  0.0350
  282MOL0     C37135   5.624   9.953   8.896 -0.0798 -0.6680  0.3799
  282MOL0    Cl37136   5.502  10.057   8.974 -0.3010  0.4241  0.8212
  282MOL0     C37137   6.787   9.654   8.799  0.8804  0.0111  0.0414
  282MOL0     C37138   6.919   9.650   8.844 -0.2437 -0.2329 -0.3933
  282MOL0     O37139   7.170   9.799   8.858 -1.0524 -0.5053 -0.4217
  282MOL0     C37140   7.376   9.688   9.122  0.3012 -0.7441 -0.1128
  282MOL0     C37141   7.511   9.681   9.154  0.1769 -0.3442  0.3446
  282MOL0     N37142   8.204   9.471   8.895  0.1292 -0.4995 -0.2516
  282MOL0     N37143   8.308   9.503   8.821  0.4884  0.4131 -0.0561
  282MOL0     C37144   9.608   9.530   8.794  0.0405  0.4334 -0.3575
  282MOL0     C37145   9.703   9.459   8.725 -0.4172 -0.2195 -0.7642
  282MOL0     C37146  10.021   9.310   8.438  0.0749  0.7572 -0.6420
  282MOL0     C37147  10.155   9.356   8.425  0.1834  0.5472  0.5324
  282MOL0     C37148  10.244   9.286   8.341  0.1277  0.7252 -0.9343
  282MOL0     C37149  10.213   9.175   8.270  0.1900 -0.0660 -0.8372
  282MOL0     O37150  10.285   9.091   8.197  0.2658  0.0893  0.0002
  282MOL0     C37151  10.417   9.140   8.164 -0.6204  0.0678 -0.1787
  282MOL0     C37152  10.521   9.120   8.279  1.7833 -0.0638 -0.0145
  282MOL0     C37153  10.513   8.975   8.353  0.1036 -0.1145  0.6697
  282MOL0     C37154  10.651   8.949   8.428  0.4021 -0.3175  0.6534
  282MOL0     C37155  10.648   8.807   8.464  0.0294  0.7572 -0.8109
  282MOL0     C37156  10.649   8.693   8.514 -0.7266 -0.1992 -0.5073
  282MOL0     C37157  10.086   9.131   8.279  0.0153  0.4105 -0.3622
  282MOL0     C37158   9.991   9.198   8.360 -0.1736  0.9998  0.9312
  282MOL0     H37159   9.570   9.413   8.423 -1.0712 -0.4545 -0.4909
  282MOL0     H37160   9.371   9.544   8.559  0.3629  3.0038 -0.1773
  282MOL0     H37161   9.230   9.525   8.783 -0.0114  0.2554 -0.9426
  282MOL0     H37162   9.236   9.660   8.688  1.9860  3.6010  0.0078
  282MOL0     H37163   9.210   9.828   8.859  1.0919 -0.2041  0.0479
  282MOL0     H37164   9.218   9.715   8.986  1.2532 -1.5250 -1.0610
  282MOL0     H37165   8.999   9.675   8.770 -2.1700 -1.1342  1.8888
  282MOL0     H37166   8.979   9.808   8.876 -0.1968 -0.3998 -1.1227
  282MOL0     H37167   9.033   9.517   8.955 -0.6081 -0.4553  3.7079
  282MOL0     H37168   9.019   9.647   9.069  0.5297 -0.5959  0.6411
  282MOL0     H37169   8.796   9.708   8.928 -0.5291 -0.2268 -0.2771
  282MOL0     H37170   8.792   9.582   9.050  1.5895  2.9256  1.8664
  282MOL0     H37171   8.852   9.426   8.847  1.3442  1.6504 -1.1996
  282MOL0     H37172   8.795   9.556   8.751 -0.2392 -0.3184  0.3420
  282MOL0     H37173   8.603   9.396   8.797  1.5639 -0.2374 -1.3898
  282MOL0     H37174   8.630   9.421   8.975 -1.1470 -0.4732 -0.3306
  282MOL0     H37175   8.554   9.648   8.773  3.2451  2.4857  1.7470
  282MOL0     H37176   8.570   9.670   8.937 -0.2486 -0.1894  0.0251
  282MOL0     H37177   8.402   9.596   9.122  0.2723 -1.5708 -0.4769
  282MOL0     H37178   8.152   9.578   9.224 -0.6279  0.1540 -0.9333
  282MOL0     H37179   8.121   9.406   9.175  2.8192 -0.8286  0.3858
  282MOL0     H37180   7.906   9.503   9.161 -0.4424  0.2249 -0.9063
  282MOL0     H37181   7.981   9.468   9.005  1.6245 -2.6776  2.0931
  282MOL0     H37182   7.964   9.736   9.147  1.1309  1.0289 -0.1249
  282MOL0     H37183   8.045   9.719   8.988  2.2009 -1.1778  1.7842
  282MOL0     H37184   7.824   9.607   8.913 -2.7199 -1.0800  1.0973
  282MOL0     H37185   7.824   9.786   8.927 -1.9607  1.0926  1.2091
  282MOL0     H37186   7.625   9.671   8.829  1.3696  2.1849  1.1281
  282MOL0     H37187   7.400   9.672   8.781 -0.2765 -0.7166  0.2400
  282MOL0     H37188   6.889   9.702   9.170  1.9863  3.8876  0.0735
  282MOL0     H37189   6.653   9.721   9.113  1.3033 -0.0645  0.9945
  282MOL0     H37190   6.489   9.792   8.963  0.1150  0.0200 -1.7240
  282MOL0     H37191   6.451   9.623   9.017  2.1067 -0.1808 -0.7840
  282MOL0     H37192   6.288   9.617   8.827  0.8789  0.2074  1.3195
  282MOL0     H37193   6.335   9.787   8.788 -0.9762  2.4874  1.3156
  282MOL0     H37194   6.235   9.838   9.025 -3.0741  1.1440 -0.6823
  282MOL0     H37195   6.198   9.665   9.035  0.8269  1.2309  0.6996
  282MOL0     H37196   6.096   9.824   8.797  3.8368 -3.7468 -1.9398
  282MOL0     H37197   6.056   9.668   8.856  0.0239  0.5566  0.0233
  282MOL0     H37198   6.020   9.930   8.996 -0.6704  0.3936 -0.8125
  282MOL0     H37199   5.974   9.770   9.069 -0.6691 -2.3976 -1.0226
  282MOL0     H37200   5.801   9.747   8.893  1.2309 -1.4516  0.5400
  282MOL0     H37201   5.868   9.883   8.808  3.9981 -1.4763 -0.1142
  282MOL0     H37202   5.710   9.896   9.074 -0.7215 -2.0659 -1.8551
  282MOL0     H37203   5.795  10.037   9.003  0.3078  1.0877  0.3406
  282MOL0     H37204   5.579   9.855   8.878  3.1081 -2.1361 -0.3828
  282MOL0     H37205   5.648  10.006   8.803 -0.6704  0.9162  1.0911
  282MOL0     H37206   6.761   9.637   8.695 -4.0058 -0.0414  1.0375
  282MOL0     H37207   7.006   9.647   8.780  1.4879  1.5583  1.6959
  282MOL0     H37208   7.309   9.694   9.208 -1.8510 -1.0001 -1.6696
  282MOL0     H37209   7.542   9.680   9.258 -0.4927  0.3085  0.5640
  282MOL0     H37210   9.620   9.550   8.900  4.2886 -0.9266 -0.3930
  282MOL0     H37211   9.784   9.429   8.791  0.1449 -0.5974 -1.6057
  282MOL0     H37212  10.179   9.452   8.469  0.8360  0.5797  0.1229
  282MOL0     H37213  10.340   9.334   8.322  0.2120  0.1898 -1.8939
  282MOL0     H37214  10.421   9.245   8.133  0.2521  0.3768  0.9162
  282MOL0     H37215  10.448   9.088   8.073 -1.3324  1.2524 -1.1245
  282MOL0     H37216  10.618   9.127   8.230  1.4609 -1.2627 -0.8480
  282MOL0     H37217  10.516   9.201   8.352  3.2895  1.1965 -1.2363
  282MOL0     H37218  10.499   8.891   8.285  1.2090 -2.7286  3.4341
  282MOL0     H37219  10.436   8.975   8.431  0.3974  1.7167  0.9972
  282MOL0     H37220  10.732   8.966   8.357  0.6287  0.3501  1.0678
  282MOL0     H37221  10.667   9.012   8.516  1.5361  0.9771 -0.4476
  282MOL0     H37222  10.653   8.599   8.565  0.6913  1.2440  2.2240
  282MOL0     H37223  10.063   9.042   8.222 -0.6559 -0.0483  0.6180
  282MOL0     H37224   9.896   9.150   8.336 -0.1682  1.5712 -0.3598
  283MOL0     O37225   2.195   1.314   0.020 -0.3102  0.1455  0.0200
  283MOL0     C37226   2.242   1.234  -0.063  0.5208 -0.0062  1.2685
  283MOL0     O37227   2.166   1.141  -0.133  0.2985  0.2296  0.4418
  283MOL0     C37228   2.033   1.135  -0.079 -0.0636  0.5206 -0.1598
  283MOL0     C37229   2.013   1.071   0.045 -0.0883  0.6960  0.1904
  283MOL0     C37230   1.885   1.069   0.105 -0.6324 -0.2557 -0.0414
  283MOL0     C37231   1.775   1.139   0.039 -0.7026 -0.2316  1.0837
  283MOL0     O37232   1.643   1.140   0.083  0.2167 -0.3417 -0.3727
  283MOL0     C37233   1.627   1.145   0.223  0.1496  0.2656 -0.3483
  283MOL0     C37234   1.519   1.240   0.265 -0.1483  0.9663  0.2745
  283MOL0     C37235   1.384   1.199   0.224  0.3917  1.0097  0.4256
  283MOL0     C37236   1.262   1.227   0.314  0.4808 -0.0210  0.2176
  283MOL0     C37237   1.243   1.372   0.361 -1.1188  0.4147 -0.5131
  283MOL0     C37238   1.137   1.391   0.467  0.3257  0.2210 -0.6746
  283MOL0     C37239   1.147   1.313   0.601 -0.2776 -0.5192 -1.4194
  283MOL0     C37240   1.230   1.384   0.710 -0.3426 -0.9545 -0.4336
  283MOL0     N37241   1.313   1.285   0.790  0.4626  0.2482  0.5126
  283MOL0     C37242   1.432   1.236   0.745  0.2581 -0.1743 -0.4811
  283MOL0     C37243   1.470   1.159   0.849 -0.1755 -0.2349  0.5453
  283MOL0     C37244   1.598   1.092   0.854  0.3197  0.9517  0.1252
  283MOL0     C37245   1.592   0.979   0.745 -0.0308 -0.7381 -0.0387
  283MOL0     C37246   1.696   0.878   0.771  0.1130 -0.1318  0.4094
  283MOL0     C37247   1.652   0.747   0.705 -0.1266  1.3139 -0.4961
  283MOL0     O37248   1.617   0.767   0.568 -0.6236 -0.1778  0.3164
  283MOL0     C37249   1.707   0.754   0.469 -0.1248 -1.1115 -0.1646
  283MOL0     C37250   1.669   0.757   0.332  0.4134  0.4662  0.0951
  283MOL0     C37251   1.764   0.754   0.233 -0.4089  0.0956 -0.3181
  283MOL0     C37252   1.899   0.722   0.256  1.4412  0.5130 -0.2238
  283MOL0     C37253   1.989   0.684   0.149 -0.5807  0.3909  0.0708
  283MOL0     O37254   2.118   0.737   0.169  0.1344  0.0704  0.1907
  283MOL0     C37255   2.225   0.728   0.080  0.0176 -0.7537 -0.1621
  283MOL0     C37256   2.243   0.650  -0.038 -0.5096  0.1784  1.0069
  283MOL0     C37257   2.369   0.643  -0.106  0.2390 -0.2135  0.0029
  283MOL0     C37258   2.470   0.734  -0.064  0.2582 -0.0522 -0.4570
  283MOL0     O37259   2.588   0.749  -0.132  0.2843 -0.3855  0.3435
  283MOL0     C37260   2.653   0.626  -0.178 -0.3461 -0.2968 -0.6182
  283MOL0     C37261   2.745   0.585  -0.071 -0.1067  0.2147 -0.4724
  283MOL0     C37262   2.822   0.461  -0.114 -0.2194  0.4101  0.8399
  283MOL0     C37263   2.916   0.487  -0.235 -0.3910  0.3097 -0.3380
  283MOL0     C37264   3.022   0.602  -0.224  0.3285 -0.2134  0.7126
  283MOL0     C37265   3.105   0.637  -0.352 -0.3153 -0.0691 -0.3516
  283MOL0     C37266   3.199   0.525  -0.406  0.0432 -0.5065  0.0091
  283MOL0     C37267   3.134   0.442  -0.509  0.5740  0.4022  0.7656
  283MOL0    Cl37268   3.111   0.550  -0.650 -0.0155 -0.3650 -0.2322
  283MOL0     C37269   2.448   0.816   0.045  0.3230 -0.3117 -0.1229
  283MOL0     C37270   2.333   0.810   0.118 -0.9893 -0.6841  0.4496
  283MOL0     O37271   1.942   0.640   0.038  0.3619 -0.8678  0.4664
  283MOL0     C37272   1.937   0.709   0.391 -0.4556 -0.4650 -0.1293
  283MOL0     C37273   1.847   0.732   0.496  0.4796 -0.3093 -0.2466
  283MOL0     N37274   1.356   1.136   0.935 -0.3203 -0.4955  0.1689
  283MOL0     N37275   1.277   1.228   0.912 -0.4315 -0.0704 -0.0951
  283MOL0     C37276   1.804   1.195  -0.091 -0.4095 -0.3486 -0.8699
  283MOL0     C37277   1.933   1.193  -0.147 -0.1596  0.8903  1.0017
  283MOL0     C37278   2.395   1.217  -0.082  0.3260 -0.6518 -0.5268
  283MOL0     C37279   2.438   1.109  -0.160 -0.0011  0.4685  0.5411
  283MOL0     C37280   2.580   1.086  -0.184 -0.3240 -0.8162  0.0874
  283MOL0     C37281   2.679   1.177  -0.141 -1.3296  0.1751  0.4721
  283MOL0     O37282   2.819   1.151  -0.147 -0.2390 -1.2730 -0.1356
  283MOL0     C37283   2.864   1.026  -0.199 -0.9778  0.0900 -0.0976
  283MOL0     C37284   3.020   1.010  -0.218  0.1861 -0.7470  0.1587
  283MOL0     C37285   3.068   1.099  -0.333 -0.6162  0.2930 -0.3097
  283MOL0     C37286   3.208   1.075  -0.380  0.8987  0.1656 -0.1869
  283MOL0     C37287   3.306   1.157  -0.303 -0.8852  0.8788 -0.1314
  283MOL0     C37288   3.388   1.225  -0.250 -0.6926  0.1036 -0.8486
  283MOL0     C37289   2.625   1.293  -0.083 -0.8702 -0.0887 -0.4699
  283MOL0     C37290   2.488   1.309  -0.051 -0.3426  0.9214  0.6718
  283MOL0     H37291   2.094   1.022   0.098 -0.3847  1.9177  1.8555
  283MOL0     H37292   1.881   1.010   0.196  2.1761 -1.3845 -0.5304
  283MOL0     H37293   1.721   1.162   0.276 -0.0280 -0.7046  0.3163
  283MOL0     H37294   1.603   1.044   0.258  0.4189  0.6434  0.9928
  283MOL0     H37295   1.542   1.342   0.233  3.9214  0.5685  1.3978
  283MOL0     H37296   1.517   1.229   0.374 -0.0200 -0.1424  0.1750
  283MOL0     H37297   1.387   1.091   0.208  1.9557  0.6935  2.4772
  283MOL0     H37298   1.367   1.237   0.123 -0.1632 -0.3336 -0.0102
  283MOL0     H37299   1.169   1.201   0.263  0.0945 -1.5177  1.6363
  283MOL0     H37300   1.284   1.167   0.403 -1.3882 -0.4479  0.4289
  283MOL0     H37301   1.230   1.432   0.271  0.2346  3.6216  1.2804
  283MOL0     H37302   1.331   1.423   0.400  0.1296 -1.4252 -0.8002
  283MOL0     H37303   1.043   1.364   0.418  0.4500  0.5188 -1.0846
  283MOL0     H37304   1.127   1.498   0.487  0.6585  0.3143 -0.9949
  283MOL0     H37305   1.050   1.286   0.643 -0.3794  1.9341  0.1339
  283MOL0     H37306   1.196   1.216   0.587  0.3364 -1.2710  3.8379
  283MOL0     H37307   1.159   1.434   0.777  1.1235 -2.1166  2.0918
  283MOL0     H37308   1.298   1.457   0.665 -1.1711  1.3595  1.8374
  283MOL0     H37309   1.481   1.258   0.651 -1.3926 -2.6097 -2.0428
  283MOL0     H37310   1.613   1.072   0.960 -2.4967  1.4187  0.6826
  283MOL0     H37311   1.677   1.161   0.822 -0.8726  2.2690 -0.0349
  283MOL0     H37312   1.622   1.025   0.651 -0.2914  0.3325  0.3818
  283MOL0     H37313   1.492   0.934   0.735  0.0761 -0.5964 -2.0057
  283MOL0     H37314   1.797   0.913   0.745  0.7360 -2.1878 -0.2016
  283MOL0     H37315   1.700   0.859   0.879  0.7218  0.4200  0.4925
  283MOL0     H37316   1.564   0.715   0.762  1.2143  1.7874  1.9957
  283MOL0     H37317   1.717   0.661   0.720 -0.5376  0.9712 -0.6800
  283MOL0     H37318   1.566   0.780   0.306 -0.6963 -1.8867  2.0630
  283MOL0     H37319   1.735   0.753   0.128 -1.1264  0.3897 -0.1313
  283MOL0     H37320   2.164   0.591  -0.082  1.2471 -1.3059 -0.3166
  283MOL0     H37321   2.376   0.582  -0.195  0.0470  1.6208 -1.3451
  283MOL0     H37322   2.709   0.659  -0.266  0.9451 -0.1303  0.2316
  283MOL0     H37323   2.591   0.538  -0.197 -1.2731 -0.8089  3.7048
  283MOL0     H37324   2.690   0.557   0.019 -0.9312 -0.4443 -1.1603
  283MOL0     H37325   2.812   0.664  -0.039  0.2712 -0.8716  1.5722
  283MOL0     H37326   2.753   0.381  -0.144 -1.6734  1.3648  1.4837
  283MOL0     H37327   2.875   0.427  -0.024 -0.6041 -1.9344  0.2476
  283MOL0     H37328   2.966   0.392  -0.250 -0.9768 -0.0301 -0.1683
  283MOL0     H37329   2.854   0.492  -0.326 -1.0072  0.8489  0.0964
  283MOL0     H37330   3.080   0.579  -0.134  1.6653 -1.9109 -0.5120
  283MOL0     H37331   2.976   0.697  -0.194 -1.0162 -0.9354  1.0165
  283MOL0     H37332   3.168   0.724  -0.331 -0.4499  1.3795 -4.8842
  283MOL0     H37333   3.031   0.670  -0.425 -2.7554 -0.0273  1.9460
  283MOL0     H37334   3.287   0.571  -0.452  0.5408 -0.4015  1.0483
  283MOL0     H37335   3.227   0.460  -0.323 -3.4153 -1.5761  0.5244
  283MOL0     H37336   3.037   0.407  -0.474  0.0727  1.8509  0.8780
  283MOL0     H37337   3.203   0.363  -0.541 -1.6076 -0.5053 -2.1494
  283MOL0     H37338   2.525   0.890   0.060  2.0486 -2.0544  0.0349
  283MOL0     H37339   2.322   0.886   0.195 -1.0689  1.1663 -1.2981
  283MOL0     H37340   2.032   0.661   0.410 -1.8466 -3.3465  0.1913
  283MOL0     H37341   1.883   0.734   0.598 -1.2201  0.0881  0.3808
  283MOL0     H37342   1.732   1.251  -0.149  0.1198  0.7886 -0.4541
  283MOL0     H37343   1.941   1.244  -0.243 -1.8174  0.2424  0.4966
  283MOL0     H37344   2.370   1.031  -0.191 -0.3060  1.3864 -1.2715
  283MOL0     H37345   2.613   0.993  -0.230 -0.6962 -0.9531  0.0990
  283MOL0     H37346   2.828   1.012  -0.302 -2.6079  1.8562  0.1779
  283MOL0     H37347   2.835   0.945  -0.131  4.3918 -0.7446  1.7151
  283MOL0     H37348   3.078   1.037  -0.129  0.3807  4.3197 -1.1761
  283MOL0     H37349   3.044   0.907  -0.244 -0.5693 -0.4690 -1.8100
  283MOL0     H37350   3.053   1.206  -0.314  1.1816  0.4221  0.6250
  283MOL0     H37351   2.998   1.063  -0.409 -1.9542 -1.9532  1.8259
  283MOL0     H37352   3.227   0.967  -0.379 -1.3644 -0.3462 -2.2423
  283MOL0     H37353   3.218   1.107  -0.485  1.3856  2.7434  0.5703
  283MOL0     H37354   3.466   1.273  -0.195  1.5665 -3.2008 -0.9344
  283MOL0     H37355   2.687   1.378  -0.054 -0.7322 -1.0065  2.2274
  283MOL0     H37356   2.446   1.397  -0.003 -2.4769  0.0066  0.6211
  284MOL0     O37357   6.084  11.166  10.440 -0.0521 -0.3475  0.7985
  284MOL0     C37358   6.142  11.212  10.343 -0.9353 -0.3726  0.2262
  284MOL0     O37359   6.085  11.266  10.232  0.2299 -0.6498  1.0204
  284MOL0     C37360   5.952  11.284  10.227 -0.5339  0.5078 -0.1204
  284MOL0     C37361   5.851  11.190  10.256 -0.6512 -0.6568  0.0204
  284MOL0     C37362   5.716  11.212  10.228 -0.4628  0.7507 -0.0439
  284MOL0     C37363   5.678  11.342  10.194  0.1526 -0.2418  0.0682
  284MOL0     O37364   5.542  11.375  10.195  0.1212  0.0572 -0.2031
  284MOL0     C37365   5.484  11.377  10.325  1.0816 -0.1850 -0.0387
  284MOL0     C37366   5.485  11.519  10.386  0.1825  0.0648  0.0938
  284MOL0     C37367   5.420  11.525  10.520 -0.2495 -0.3192 -0.1254
  284MOL0     C37368   5.267  11.535  10.505 -0.7040  0.1074 -0.4682
  284MOL0     C37369   5.188  11.518  10.629  0.2155 -0.2022 -0.7635
  284MOL0     C37370   5.211  11.381  10.692 -0.0501  0.3215 -0.7544
  284MOL0     C37371   5.139  11.371  10.825  0.4623  0.0603 -0.3578
  284MOL0     C37372   5.186  11.240  10.893 -0.6131  0.0487  1.2142
  284MOL0     N37373   5.135  11.125  10.817  0.0407  0.2244  0.2306
  284MOL0     C37374   4.998  11.110  10.782  0.0770 -0.4394 -0.0447
  284MOL0     C37375   5.004  11.003  10.698  0.1883  0.0062  0.0007
  284MOL0     C37376   4.882  10.921  10.638 -0.6935 -0.2418 -0.4613
  284MOL0     C37377   4.909  10.775  10.612 -0.7669 -0.2339 -0.0688
  284MOL0     C37378   4.781  10.696  10.579 -0.2993  0.1733 -1.6228
  284MOL0     C37379   4.714  10.722  10.445  0.0008  0.3897  0.0768
  284MOL0     O37380   4.576  10.673  10.449  0.0741 -0.0426  0.4052
  284MOL0     C37381   4.469  10.755  10.475  0.2190 -0.1572 -0.0358
  284MOL0     C37382   4.344  10.689  10.475  0.7025  0.2714  0.0927
  284MOL0     C37383   4.225  10.768  10.495 -0.2225  0.0728 -1.0037
  284MOL0     C37384   4.245  10.903  10.514  0.2525  0.7102 -0.1560
  284MOL0     C37385   4.124  10.984  10.516  0.3713  0.3123 -0.3624
  284MOL0     O37386   4.002  10.924  10.506  0.0704  0.3226  0.2978
  284MOL0     C37387   3.880  10.991  10.501  0.0304  0.9800 -0.3802
  284MOL0     C37388   3.769  10.917  10.554  0.0306  0.5448 -0.4855
  284MOL0     C37389   3.633  10.964  10.536 -0.1811  0.6193 -0.5791
  284MOL0     C37390   3.608  11.086  10.474 -0.8236 -0.6080 -0.1563
  284MOL0     O37391   3.477  11.141  10.456 -0.4461  0.1923  0.3963
  284MOL0     C37392   3.373  11.043  10.413 -0.2972  0.1761  0.1253
  284MOL0     C37393   3.230  11.110  10.401 -0.0718  0.2046 -0.7262
  284MOL0     C37394   3.122  11.019  10.468 -0.2576 -0.5555  0.3158
  284MOL0     C37395   3.099  10.903  10.365  0.0191  0.3068 -0.4497
  284MOL0     C37396   2.987  10.802  10.395 -0.1279 -0.6601 -0.3392
  284MOL0     C37397   2.856  10.874  10.392 -0.1104 -0.0396 -0.7419
  284MOL0     C37398   2.741  10.779  10.401 -0.9488 -0.2199 -0.3111
  284MOL0     C37399   2.611  10.860  10.387  1.0749  0.1503 -1.5199
  284MOL0    Cl37400   2.461  10.767  10.355  0.1314  0.2620 -0.4431
  284MOL0     C37401   3.715  11.159  10.426 -0.7866 -0.2380  0.0437
  284MOL0     C37402   3.849  11.111  10.440 -0.0398 -0.3420  0.6336
  284MOL0     O37403   4.141  11.106  10.524  0.0812  0.1201 -0.2400
  284MOL0     C37404   4.374  10.970  10.519  0.7825 -0.6278  0.0108
  284MOL0     C37405   4.478  10.893  10.494  0.1948  0.2515  0.7316
  284MOL0     N37406   5.130  10.950  10.687 -0.9994 -0.4886  0.2887
  284MOL0     N37407   5.207  11.021  10.764 -0.4671  0.3731  0.6319
  284MOL0     C37408   5.769  11.440  10.162 -0.2095 -0.1370  0.3405
  284MOL0     C37409   5.910  11.407  10.172 -0.2242 -0.7905 -0.3891
  284MOL0     C37410   6.295  11.228  10.343  0.4650 -0.3532  1.2920
  284MOL0     C37411   6.370  11.167  10.439 -0.3367  0.4658  1.0976
  284MOL0     C37412   6.505  11.178  10.444  0.5778  0.7845 -0.0795
  284MOL0     C37413   6.578  11.251  10.349  0.0252 -0.0708  0.4707
  284MOL0     O37414   6.717  11.253  10.352  0.3331 -0.2507  0.6186
  284MOL0     C37415   6.770  11.255  10.482 -0.3739 -0.4891 -0.4950
  284MOL0     C37416   6.920  11.292  10.467 -0.9992 -0.1438 -0.5286
  284MOL0     C37417   6.970  11.323  10.607  0.5670  0.2898 -0.4124
  284MOL0     C37418   7.105  11.398  10.622 -0.8786 -1.0567 -0.4592
  284MOL0     C37419   7.210  11.311  10.563  0.4091 -0.1932  0.3748
  284MOL0     C37420   7.310  11.249  10.520  0.8199  0.0871  0.0965
  284MOL0     C37421   6.510  11.327  10.257  0.5139  0.3990  0.0988
  284MOL0     C37422   6.365  11.314  10.250  0.2001 -0.7726  0.2970
  284MOL0     H37423   5.877  11.099  10.308  0.7112 -0.5490 -0.4423
  284MOL0     H37424   5.651  11.129  10.254  0.2393 -0.1405 -1.0856
  284MOL0     H37425   5.540  11.305  10.385  2.1793  0.5017 -0.2042
  284MOL0     H37426   5.390  11.322  10.330  1.2463 -0.4119  0.6167
  284MOL0     H37427   5.432  11.583  10.316 -1.4676 -4.8200 -3.7587
  284MOL0     H37428   5.579  11.573  10.395 -0.3693  1.1681 -0.5425
  284MOL0     H37429   5.462  11.610  10.574  1.8576 -1.5933  0.3912
  284MOL0     H37430   5.451  11.436  10.576  0.7869 -0.5725 -1.0619
  284MOL0     H37431   5.231  11.631  10.468 -1.5809 -0.7839 -2.0293
  284MOL0     H37432   5.244  11.452  10.437 -0.4659  0.4482 -0.9713
  284MOL0     H37433   5.080  11.529  10.611  0.1993  1.8004  0.2138
  284MOL0     H37434   5.207  11.601  10.698 -0.2766 -0.5654 -0.1804
  284MOL0     H37435   5.318  11.365  10.711  0.5870 -0.4233 -4.2164
  284MOL0     H37436   5.171  11.307  10.623 -0.7545  0.1639 -0.1902
  284MOL0     H37437   5.174  11.453  10.889 -1.7133  0.5717  0.2756
  284MOL0     H37438   5.030  11.380  10.817  0.6757  3.3206 -1.0481
  284MOL0     H37439   5.172  11.233  11.002 -0.0909 -2.2610  1.1743
  284MOL0     H37440   5.293  11.221  10.888 -0.2669  2.1188 -2.0079
  284MOL0     H37441   4.910  11.169  10.804  1.1334  2.3654 -2.6515
  284MOL0     H37442   4.842  10.963  10.546 -2.6920 -0.2110  0.3701
  284MOL0     H37443   4.804  10.926  10.714  0.2627  1.1001  0.4893
  284MOL0     H37444   4.951  10.730  10.702 -0.8178 -1.5908 -0.6926
  284MOL0     H37445   4.988  10.762  10.537  3.4430  3.4156  3.1812
  284MOL0     H37446   4.791  10.589  10.595  0.8850  0.5888  0.7967
  284MOL0     H37447   4.708  10.723  10.656  0.4573  0.7664 -1.1012
  284MOL0     H37448   4.772  10.659  10.377 -0.1620 -1.1653  1.3424
  284MOL0     H37449   4.725  10.830  10.430 -1.2156  0.7468  1.5843
  284MOL0     H37450   4.340  10.583  10.452  3.0831 -0.0993  1.1496
  284MOL0     H37451   4.125  10.727  10.508  1.0203 -2.7608  0.5412
  284MOL0     H37452   3.788  10.831  10.616 -0.8268  1.5335  1.2544
  284MOL0     H37453   3.554  10.899  10.572 -1.7548  0.9052 -3.2503
  284MOL0     H37454   3.364  10.968  10.493  1.7460 -1.9102 -1.4570
  284MOL0     H37455   3.401  11.000  10.317 -0.2031  0.6194 -0.0460
  284MOL0     H37456   3.197  11.140  10.301  0.7394  3.0998 -0.2077
  284MOL0     H37457   3.233  11.205  10.456 -0.5852  0.4848 -1.1716
  284MOL0     H37458   3.028  11.072  10.491  0.9957  0.8265  2.6512
  284MOL0     H37459   3.156  10.973  10.561 -3.2863 -1.4459  1.1155
  284MOL0     H37460   3.067  10.954  10.273  0.3267  0.1899 -0.6221
  284MOL0     H37461   3.191  10.850  10.341  2.6985  3.6285  1.5657
  284MOL0     H37462   2.995  10.754  10.493 -3.2426  1.4999  1.1477
  284MOL0     H37463   2.988  10.727  10.315  0.4266 -1.8725  0.7595
  284MOL0     H37464   2.848  10.929  10.298 -1.5040 -0.3930 -0.8489
  284MOL0     H37465   2.849  10.947  10.473  0.7910 -2.1364  1.3330
  284MOL0     H37466   2.738  10.706  10.319  1.7385 -1.2093  0.3636
  284MOL0     H37467   2.749  10.722  10.494  0.0935  1.4505  0.6681
  284MOL0     H37468   2.632  10.943  10.319  1.9690  3.6085  2.5301
  284MOL0     H37469   2.598  10.917  10.480  3.0620  0.0662 -1.1497
  284MOL0     H37470   3.700  11.256  10.379 -0.5319 -0.5174 -0.6181
  284MOL0     H37471   3.934  11.167  10.402  0.0144 -0.1240  1.0651
  284MOL0     H37472   4.379  11.077  10.531  1.0311  0.0679 -4.6999
  284MOL0     H37473   4.575  10.943  10.492  3.4057 -5.2273  1.0843
  284MOL0     H37474   5.737  11.540  10.137 -0.0600 -0.1434  0.1240
  284MOL0     H37475   5.982  11.484  10.146 -0.2034 -0.6998 -0.0701
  284MOL0     H37476   6.329  11.101  10.515  1.4191  0.9387  2.5204
  284MOL0     H37477   6.567  11.127  10.517 -0.9115 -0.4921  0.3372
  284MOL0     H37478   6.764  11.162  10.540  2.6997 -0.2847  0.3321
  284MOL0     H37479   6.704  11.315  10.546 -1.3364 -1.9878 -0.0286
  284MOL0     H37480   6.978  11.208  10.429 -1.4264 -0.3678 -0.6928
  284MOL0     H37481   6.942  11.373  10.397 -0.6562 -0.0946 -0.3634
  284MOL0     H37482   6.966  11.232  10.667  1.8599 -0.6882 -1.7224
  284MOL0     H37483   6.902  11.390  10.660  1.3689  0.4922  0.3951
  284MOL0     H37484   7.105  11.497  10.576  0.4337 -0.2810  1.1301
  284MOL0     H37485   7.125  11.417  10.728  0.5865  1.8801 -1.1594
  284MOL0     H37486   7.398  11.197  10.490  2.7776  2.1042  1.9837
  284MOL0     H37487   6.561  11.391  10.186  1.8320 -0.7788 -0.0446
  284MOL0     H37488   6.313  11.359  10.166 -1.5382  0.1902  1.8143
  285MOL0     O37489   8.803   5.268   3.478  0.6021 -0.2922  0.6900
  285MOL0     C37490   8.890   5.280   3.395  0.1052  0.1720 -0.8613
  285MOL0     O37491   8.877   5.240   3.263 -0.5047 -0.2432 -0.4170
  285MOL0     C37492   8.762   5.202   3.197 -0.1568  0.6096  0.9489
  285MOL0     C37493   8.634   5.240   3.235  0.0318 -0.2847  0.4415
  285MOL0     C37494   8.521   5.192   3.167 -0.6977  0.0019 -0.9218
  285MOL0     C37495   8.537   5.085   3.077 -0.2285 -0.4568 -0.3010
  285MOL0     O37496   8.430   5.024   3.008  0.3469  0.2105 -0.0219
  285MOL0     C37497   8.292   5.070   3.027 -0.5097 -0.5743  0.9845
  285MOL0     C37498   8.277   5.187   2.925 -0.4346  0.9311  0.4808
  285MOL0     C37499   8.134   5.244   2.905 -0.9175  0.2799  0.6250
  285MOL0     C37500   8.039   5.161   2.826  0.4263  0.4007  0.5440
  285MOL0     C37501   7.912   5.235   2.801  0.1183  0.5170 -0.1089
  285MOL0     C37502   7.792   5.133   2.793  0.4395  0.7549  0.1375
  285MOL0     C37503   7.679   5.185   2.709  0.3949 -0.2716  0.1782
  285MOL0     C37504   7.550   5.100   2.709 -1.4033 -0.6827  0.4136
  285MOL0     N37505   7.450   5.136   2.609  0.4627  0.1694  0.8056
  285MOL0     C37506   7.439   5.093   2.474  0.9106 -0.1897 -0.1475
  285MOL0     C37507   7.321   5.161   2.437 -0.5132  0.3226  1.1843
  285MOL0     C37508   7.253   5.154   2.300 -0.3706 -0.2888  0.5215
  285MOL0     C37509   7.264   5.279   2.209 -0.9104 -0.1625 -0.5987
  285MOL0     C37510   7.215   5.250   2.065  0.6669 -0.3956  0.1624
  285MOL0     C37511   7.059   5.251   2.047 -0.0118  0.1450 -0.0342
  285MOL0     O37512   6.995   5.149   2.121  0.5256  0.1742  0.0091
  285MOL0     C37513   6.854   5.154   2.127  0.6015  0.6571  0.1203
  285MOL0     C37514   6.789   5.071   2.222 -0.2201  0.3790  0.9032
  285MOL0     C37515   6.648   5.073   2.239 -0.1333  0.4298 -0.3702
  285MOL0     C37516   6.569   5.148   2.156  0.6557 -0.1536  0.0256
  285MOL0     C37517   6.416   5.142   2.169 -0.2740 -0.5973 -0.5082
  285MOL0     O37518   6.366   5.062   2.266 -0.3277 -0.4250  0.1513
  285MOL0     C37519   6.228   5.042   2.267 -0.6168  0.3744  0.4169
  285MOL0     C37520   6.146   5.014   2.157 -0.4238 -1.2523 -0.8480
  285MOL0     C37521   6.010   5.006   2.174 -0.5171 -0.0723 -1.2228
  285MOL0     C37522   5.943   5.013   2.297  0.6647  0.6309  0.2346
  285MOL0     O37523   5.809   5.010   2.315  0.4263 -0.3554  0.0906
  285MOL0     C37524   5.734   4.958   2.201 -0.1938 -0.0412 -0.1141
  285MOL0     C37525   5.588   4.962   2.238  0.2378 -0.4327 -0.0150
  285MOL0     C37526   5.541   4.829   2.316  0.5642 -0.1495 -0.1339
  285MOL0     C37527   5.413   4.865   2.391 -0.4854 -0.3806  0.2524
  285MOL0     C37528   5.322   4.749   2.427 -0.0556  0.2666 -0.1405
  285MOL0     C37529   5.187   4.794   2.489 -0.9271 -0.2435  0.6548
  285MOL0     C37530   5.106   4.669   2.514 -0.4516  0.0033 -0.4146
  285MOL0     C37531   4.977   4.700   2.581  0.7633  0.0089  0.4060
  285MOL0    Cl37532   4.871   4.552   2.597  0.2429  0.2321 -0.4471
  285MOL0     C37533   6.028   5.038   2.413  0.3779  0.9500  0.0508
  285MOL0     C37534   6.165   5.051   2.398  0.1869  0.3052  0.0857
  285MOL0     O37535   6.357   5.198   2.078  0.4249  0.1665 -0.0494
  285MOL0     C37536   6.628   5.230   2.063 -0.5860 -0.9007  0.3111
  285MOL0     C37537   6.774   5.234   2.046  0.8939  0.6172  0.6906
  285MOL0     N37538   7.268   5.228   2.538  0.2459 -0.0055  0.4561
  285MOL0     N37539   7.334   5.197   2.639 -0.0903 -0.3296 -0.2769
  285MOL0     C37540   8.665   5.047   3.035  0.1314 -0.0110 -0.1305
  285MOL0     C37541   8.779   5.111   3.085  0.5156  0.6247 -1.1967
  285MOL0     C37542   9.017   5.334   3.443 -0.3609 -0.5896 -0.1859
  285MOL0     C37543   9.115   5.367   3.352  0.2137 -0.2501  0.1866
  285MOL0     C37544   9.233   5.428   3.392 -0.0680 -0.1049 -1.1949
  285MOL0     C37545   9.253   5.455   3.526 -0.5995  0.2049  0.7693
  285MOL0     O37546   9.358   5.525   3.576 -0.9370 -0.0919  0.2359
  285MOL0     C37547   9.421   5.624   3.488  0.8311  0.1188  0.0420
  285MOL0     C37548   9.535   5.713   3.543  0.1488 -0.8670  0.4755
  285MOL0     C37549   9.499   5.836   3.628 -1.6721 -0.1437  0.0198
  285MOL0     C37550   9.439   5.941   3.537  0.4292 -0.8359 -0.0288
  285MOL0     C37551   9.401   6.066   3.601  0.4241 -0.0217  0.8125
  285MOL0     C37552   9.376   6.171   3.647 -0.6143  0.2083 -0.9098
  285MOL0     C37553   9.149   5.422   3.621 -0.6310 -0.6361  0.1666
  285MOL0     C37554   9.036   5.360   3.572 -0.4398  0.3486 -0.1733
  285MOL0     H37555   8.615   5.312   3.315 -0.5182  0.6997 -0.5320
  285MOL0     H37556   8.423   5.233   3.188 -0.2947  1.8578 -2.4074
  285MOL0     H37557   8.264   5.113   3.123 -1.8548  0.8970 -0.0194
  285MOL0     H37558   8.218   4.998   2.991  0.2036 -1.6138  1.5336
  285MOL0     H37559   8.317   5.152   2.830  3.4149  1.8707  1.5677
  285MOL0     H37560   8.351   5.261   2.957 -1.4613  1.0334  2.8880
  285MOL0     H37561   8.148   5.341   2.858 -1.9651 -0.6492 -1.7705
  285MOL0     H37562   8.082   5.262   2.999  2.1720 -1.5830  2.9152
  285MOL0     H37563   8.088   5.131   2.733 -1.3243  0.3618 -0.4028
  285MOL0     H37564   8.024   5.062   2.871  0.2465  1.4811  2.9989
  285MOL0     H37565   7.923   5.303   2.716 -4.0529 -0.7136 -1.8753
  285MOL0     H37566   7.891   5.294   2.891  1.1519 -0.8221  1.0634
  285MOL0     H37567   7.762   5.118   2.897  3.2299  3.0474  1.4195
  285MOL0     H37568   7.825   5.032   2.768  1.0546  0.2953  2.5021
  285MOL0     H37569   7.653   5.290   2.729 -0.5331 -0.3270 -0.6592
  285MOL0     H37570   7.722   5.189   2.608 -0.4813 -1.5767 -0.2672
  285MOL0     H37571   7.511   5.111   2.811  0.4179 -2.8359  1.4060
  285MOL0     H37572   7.571   4.994   2.699 -2.1891 -0.6614 -2.2125
  285MOL0     H37573   7.506   5.032   2.415 -1.2070 -0.1465 -2.7896
  285MOL0     H37574   7.146   5.146   2.321 -0.2910  0.2404  1.1369
  285MOL0     H37575   7.284   5.060   2.252  1.4707  2.0083 -3.2922
  285MOL0     H37576   7.371   5.300   2.206 -0.8430 -0.5753 -1.9325
  285MOL0     H37577   7.220   5.368   2.255 -0.5738 -0.5065  0.4185
  285MOL0     H37578   7.246   5.322   1.989  1.5728 -1.0858 -0.1356
  285MOL0     H37579   7.254   5.155   2.029 -1.4842 -0.6001 -1.8227
  285MOL0     H37580   7.046   5.234   1.940  0.3188 -3.8174  0.4219
  285MOL0     H37581   7.014   5.347   2.077  1.1594 -0.4984  4.5931
  285MOL0     H37582   6.855   5.018   2.290 -0.3686 -0.0470  0.7196
  285MOL0     H37583   6.613   4.992   2.302 -0.2520  0.8211  0.0714
  285MOL0     H37584   6.187   5.008   2.056 -2.2608 -1.3904 -1.6259
  285MOL0     H37585   5.950   4.997   2.084  0.7832  2.2125 -2.4175
  285MOL0     H37586   5.770   4.857   2.179  0.8991  0.2948  0.0309
  285MOL0     H37587   5.736   5.031   2.120 -0.9265  0.2857  0.1510
  285MOL0     H37588   5.532   4.982   2.146 -1.0172 -3.8896 -0.1560
  285MOL0     H37589   5.574   5.050   2.302 -3.6614  1.0849 -2.5761
  285MOL0     H37590   5.628   4.797   2.374 -0.3327 -2.2216  0.1790
  285MOL0     H37591   5.521   4.762   2.232  1.0195  3.4513 -3.3394
  285MOL0     H37592   5.440   4.919   2.482 -0.0931  0.4360 -0.3347
  285MOL0     H37593   5.348   4.925   2.325 -1.8528 -2.6982 -0.6274
  285MOL0     H37594   5.369   4.680   2.497  0.1281  0.7206  0.1848
  285MOL0     H37595   5.302   4.693   2.335  0.4954  5.1748 -3.6322
  285MOL0     H37596   5.125   4.849   2.418 -1.3858  0.0506  1.2715
  285MOL0     H37597   5.216   4.844   2.582  1.5054 -0.9372  0.3310
  285MOL0     H37598   5.102   4.605   2.425  2.5940 -2.7700  1.2288
  285MOL0     H37599   5.165   4.606   2.582  2.1552 -1.3015 -3.5758
  285MOL0     H37600   4.922   4.778   2.527 -0.3337 -0.2167  1.1576
  285MOL0     H37601   4.994   4.738   2.682 -0.0856 -0.0059  0.5661
  285MOL0     H37602   5.992   5.032   2.515 -1.5983  0.2138 -0.6559
  285MOL0     H37603   6.231   5.072   2.482 -0.2673 -4.3840  1.9114
  285MOL0     H37604   6.558   5.291   2.006 -2.2295 -1.7137  1.3721
  285MOL0     H37605   6.818   5.307   1.979  1.3944 -0.9663 -0.7726
  285MOL0     H37606   8.686   4.962   2.971  0.7642  0.0587 -0.0250
  285MOL0     H37607   8.870   5.058   3.058 -1.4274 -2.3657 -2.4662
  285MOL0     H37608   9.089   5.339   3.250 -2.7407  1.0043  0.4837
  285MOL0     H37609   9.309   5.459   3.322 -0.3550  2.1904 -0.5849
  285MOL0     H37610   9.342   5.692   3.455 -0.8635 -1.3351  0.8945
  285MOL0     H37611   9.456   5.570   3.400  0.6831 -0.6351  0.4357
  285MOL0     H37612   9.606   5.650   3.598  2.2191  1.8384  1.0985
  285MOL0     H37613   9.587   5.746   3.453  2.2962 -0.3704  1.8331
  285MOL0     H37614   9.588   5.879   3.676 -0.8603 -1.3974 -0.3065
  285MOL0     H37615   9.447   5.801   3.717 -1.7939  0.1626  0.0697
  285MOL0     H37616   9.507   5.964   3.454  0.1575 -0.6168 -0.1911
  285MOL0     H37617   9.346   5.898   3.499 -0.0261  0.3905 -0.3332
  285MOL0     H37618   9.363   6.269   3.689 -4.1779  0.5070 -2.3395
  285MOL0     H37619   9.162   5.457   3.723  2.2762  2.6667 -1.0965
  285MOL0     H37620   8.972   5.351   3.659  1.7824  2.4091  1.8162
  286MOL0     O37621   9.043   4.798   0.981 -0.2517  0.7729 -0.3004
  286MOL0     C37622   9.094   4.725   1.074  0.3080  0.5944 -0.4687
  286MOL0     O37623   9.031   4.621   1.143  0.1668  0.7094 -0.1381
  286MOL0     C37624   8.899   4.617   1.134 -0.5820 -0.5716  0.5517
  286MOL0     C37625   8.826   4.572   1.016 -0.0007  0.0935 -0.4965
  286MOL0     C37626   8.688   4.550   1.018  0.9768 -0.2584  0.1272
  286MOL0     C37627   8.611   4.565   1.141  0.0569  0.9408 -0.3936
  286MOL0     O37628   8.470   4.540   1.146 -0.2702  0.7143 -0.9870
  286MOL0     C37629   8.391   4.575   1.034 -0.8463  0.1640 -0.2190
  286MOL0     C37630   8.245   4.572   1.081  0.1273 -0.0285  0.1533
  286MOL0     C37631   8.163   4.585   0.955 -0.0277  0.3346 -0.0347
  286MOL0     C37632   8.012   4.578   0.996 -0.0751  0.3310  0.6939
  286MOL0     C37633   7.921   4.641   0.898  0.5237  0.2441 -0.1164
  286MOL0     C37634   7.902   4.570   0.768  1.1485 -0.6198 -1.0508
  286MOL0     C37635   7.808   4.642   0.671 -0.5039  0.2667  0.3744
  286MOL0     C37636   7.661   4.575   0.665 -1.0616  0.0379 -0.5768
  286MOL0     N37637   7.549   4.668   0.637 -0.8487  0.4311  0.1625
  286MOL0     C37638   7.471   4.720   0.741 -0.1146  0.3402  0.1167
  286MOL0     C37639   7.382   4.802   0.672 -0.8887 -0.4609  0.3195
  286MOL0     C37640   7.281   4.886   0.745 -0.2078  0.5102  0.1711
  286MOL0     C37641   7.132   4.876   0.702 -0.5257 -0.0870  0.7156
  286MOL0     C37642   7.023   4.962   0.776  0.4132 -0.4255  0.6658
  286MOL0     C37643   6.878   4.912   0.778 -0.6428  0.6109  1.5641
  286MOL0     O37644   6.802   5.001   0.864  0.4763  0.5054  0.3325
  286MOL0     C37645   6.671   4.955   0.872  0.6135 -0.2950 -0.7687
  286MOL0     C37646   6.605   4.958   0.994 -0.4916  0.1738  0.7574
  286MOL0     C37647   6.469   4.921   1.008  0.8822  0.0802 -1.0485
  286MOL0     C37648   6.389   4.904   0.893  0.5137 -0.0509 -0.3981
  286MOL0     C37649   6.241   4.881   0.908  0.8630 -0.3470  0.7397
  286MOL0     O37650   6.189   4.897   1.030  0.2464 -0.2053 -0.2380
  286MOL0     C37651   6.060   4.866   1.066  0.1653  0.0419  0.4901
  286MOL0     C37652   5.979   4.765   1.009 -1.1510 -0.3895 -0.6146
  286MOL0     C37653   5.844   4.750   1.042  0.0242 -0.4406 -0.4215
  286MOL0     C37654   5.790   4.832   1.146 -0.1879  0.5233  0.4905
  286MOL0     O37655   5.656   4.813   1.173  0.0428  0.8243  0.0193
  286MOL0     C37656   5.594   4.831   1.301 -0.9492  0.3329 -0.3341
  286MOL0     C37657   5.447   4.793   1.289 -0.8061 -0.0849 -0.5253
  286MOL0     C37658   5.431   4.640   1.279 -0.8215  1.0724  0.8789
  286MOL0     C37659   5.283   4.606   1.277  0.2297 -0.5442  0.7103
  286MOL0     C37660   5.246   4.452   1.278 -0.9799  0.1973 -0.0344
  286MOL0     C37661   5.104   4.412   1.265  0.8178  0.4681 -0.2917
  286MOL0     C37662   5.083   4.261   1.247  0.1338  0.0715  0.0618
  286MOL0     C37663   4.939   4.232   1.221  0.3249  0.2396 -0.7201
  286MOL0    Cl37664   4.914   4.246   1.043  0.2164 -0.1541  0.0436
  286MOL0     C37665   5.873   4.923   1.216  0.2521 -0.2867  0.4662
  286MOL0     C37666   6.007   4.934   1.176  0.8584 -0.5890  0.5255
  286MOL0     O37667   6.176   4.867   0.799  0.2826 -0.1990 -0.5403
  286MOL0     C37668   6.449   4.919   0.772 -0.5514  0.2335 -0.2442
  286MOL0     C37669   6.591   4.936   0.760 -0.1270  0.6151  0.0342
  286MOL0     N37670   7.397   4.784   0.536 -0.0372  0.8831  0.0080
  286MOL0     N37671   7.495   4.704   0.516 -0.9090 -0.1102  0.4729
  286MOL0     C37672   8.684   4.598   1.256  0.1329 -0.1123 -0.4135
  286MOL0     C37673   8.823   4.626   1.251 -0.1949 -0.2602 -0.2177
  286MOL0     C37674   9.235   4.748   1.105 -0.4686 -0.2637  0.1231
  286MOL0     C37675   9.320   4.638   1.135  0.3511 -0.8193  0.1648
  286MOL0     C37676   9.457   4.665   1.159 -1.1935 -0.1886 -0.3532
  286MOL0     C37677   9.510   4.791   1.160 -0.3512 -0.2534 -0.3405
  286MOL0     O37678   9.644   4.799   1.192  0.3886 -0.0427 -0.0871
  286MOL0     C37679   9.703   4.927   1.231 -0.3602 -0.6007 -0.2448
  286MOL0     C37680   9.862   4.918   1.224  0.1229 -0.0752 -0.0507
  286MOL0     C37681   9.914   4.795   1.298 -0.2492 -0.8824  0.1126
  286MOL0     C37682  10.065   4.782   1.276  0.5854  0.2648  1.1905
  286MOL0     C37683  10.147   4.884   1.334  0.1098 -1.7155  0.8785
  286MOL0     C37684  10.187   4.989   1.382 -0.1143 -0.6932 -0.9439
  286MOL0     C37685   9.421   4.900   1.137 -0.3426  0.2170  0.1766
  286MOL0     C37686   9.289   4.877   1.101  0.2113  0.8905  0.3178
  286MOL0     H37687   8.889   4.552   0.929  1.0693  1.1645  0.0055
  286MOL0     H37688   8.640   4.536   0.921  2.3542  0.4464 -0.6762
  286MOL0     H37689   8.410   4.492   0.965  1.7460 -1.9933  2.8070
  286MOL0     H37690   8.419   4.669   0.985 -0.3308 -1.0392 -2.3478
  286MOL0     H37691   8.243   4.654   1.154  2.8675  0.3955 -0.1350
  286MOL0     H37692   8.220   4.476   1.125 -1.5144  0.9593  1.4956
  286MOL0     H37693   8.182   4.509   0.878  0.7109  0.1028  0.3647
  286MOL0     H37694   8.170   4.683   0.906 -1.4519  0.6673  0.3908
  286MOL0     H37695   7.980   4.474   1.008  0.9964 -0.5043 -2.5856
  286MOL0     H37696   7.996   4.637   1.087  0.8112 -0.9509  1.7138
  286MOL0     H37697   7.955   4.744   0.882 -0.1971  0.4875 -0.1493
  286MOL0     H37698   7.822   4.639   0.946  1.2594  0.2810  1.4846
  286MOL0     H37699   7.858   4.474   0.796  0.4501  0.2424  0.9967
  286MOL0     H37700   8.003   4.565   0.726  0.2697  1.9596 -3.8051
  286MOL0     H37701   7.787   4.746   0.699 -2.3244 -0.1786  0.8101
  286MOL0     H37702   7.860   4.642   0.575 -0.0651 -1.5468  0.5905
  286MOL0     H37703   7.651   4.525   0.762 -0.8293 -0.7556 -0.9522
  286MOL0     H37704   7.667   4.493   0.594  0.9305 -0.8797  0.5532
  286MOL0     H37705   7.485   4.708   0.847 -2.9260 -0.8054  0.4450
  286MOL0     H37706   7.321   4.988   0.748  5.2483 -1.3302 -0.1241
  286MOL0     H37707   7.289   4.841   0.844 -1.3850 -1.5065 -0.5876
  286MOL0     H37708   7.109   4.771   0.720  1.8737 -0.6647  0.6873
  286MOL0     H37709   7.125   4.892   0.594 -1.2860  0.7693  0.8782
  286MOL0     H37710   7.049   4.956   0.882  0.3421 -3.0126  0.6061
  286MOL0     H37711   7.033   5.068   0.753 -1.5756 -0.4743 -0.6022
  286MOL0     H37712   6.854   4.809   0.804 -4.3044  0.5760 -1.1088
  286MOL0     H37713   6.847   4.923   0.674  1.3772  0.8264  0.9338
  286MOL0     H37714   6.675   4.984   1.072 -0.5547  0.6543  0.6596
  286MOL0     H37715   6.431   4.925   1.110  1.0992  0.8068 -0.9881
  286MOL0     H37716   6.035   4.708   0.935 -0.1420  0.6237 -0.6564
  286MOL0     H37717   5.790   4.666   1.001  1.5863 -1.3033 -0.7918
  286MOL0     H37718   5.603   4.939   1.321 -0.8199  0.9693 -3.4167
  286MOL0     H37719   5.644   4.780   1.384 -1.3110  1.5739  0.6942
  286MOL0     H37720   5.411   4.851   1.202  0.4479 -3.7896 -3.8013
  286MOL0     H37721   5.397   4.815   1.384  0.5053  1.2353 -0.0967
  286MOL0     H37722   5.489   4.592   1.359  2.2789  0.8328 -1.3427
  286MOL0     H37723   5.467   4.600   1.183 -2.9996 -1.6143  1.0548
  286MOL0     H37724   5.243   4.649   1.370 -0.7592 -1.7729  0.8769
  286MOL0     H37725   5.239   4.642   1.184 -2.0180 -2.2466  1.0221
  286MOL0     H37726   5.296   4.408   1.365 -1.5043 -3.1449 -1.2843
  286MOL0     H37727   5.300   4.404   1.196  3.3721  0.1716  2.5393
  286MOL0     H37728   5.054   4.478   1.193 -0.7370  0.3060  0.5871
  286MOL0     H37729   5.045   4.448   1.350  1.6502  2.7301 -0.6160
  286MOL0     H37730   5.137   4.231   1.157  0.0174 -0.4152  0.1503
  286MOL0     H37731   5.118   4.216   1.340  1.8153  1.2570  0.0511
  286MOL0     H37732   4.872   4.296   1.279 -1.6761 -2.1333 -0.2218
  286MOL0     H37733   4.914   4.132   1.258 -1.0818  1.4926  2.0188
  286MOL0     H37734   5.827   4.983   1.294 -1.5571 -1.8019  0.6359
  286MOL0     H37735   6.079   5.009   1.207 -1.8016  3.5731 -2.3988
  286MOL0     H37736   6.388   4.914   0.682  1.1449  1.6913 -1.5540
  286MOL0     H37737   6.631   4.951   0.661  1.7931 -1.5245  0.3877
  286MOL0     H37738   8.648   4.621   1.356  3.8212 -0.9927  1.2920
  286MOL0     H37739   8.848   4.663   1.350 -0.5794 -3.2725  1.1361
  286MOL0     H37740   9.284   4.536   1.142  3.1600 -2.0515 -1.4937
  286MOL0     H37741   9.528   4.586   1.181  0.1313  0.3213 -2.3997
  286MOL0     H37742   9.669   4.939   1.335  0.3575 -3.1946  0.3694
  286MOL0     H37743   9.681   5.016   1.172  2.2402  1.9973  2.3444
  286MOL0     H37744   9.894   4.921   1.120 -2.2027 -1.7828 -0.9122
  286MOL0     H37745   9.899   5.009   1.272 -0.1875  0.1563 -0.2441
  286MOL0     H37746   9.869   4.705   1.255  2.1113 -1.0864 -2.1321
  286MOL0     H37747   9.894   4.797   1.405  1.3924 -1.5255  0.4451
  286MOL0     H37748  10.103   4.687   1.315  0.8559 -0.1147  0.0369
  286MOL0     H37749  10.075   4.779   1.167  2.0218  0.1238  1.3120
  286MOL0     H37750  10.204   5.086   1.425  0.8671 -1.1580 -0.2256
  286MOL0     H37751   9.461   5.000   1.124 -0.1531  0.3284  1.5142
  286MOL0     H37752   9.218   4.952   1.068 -3.7709 -2.3724  0.6296
  287MOL0     O37753   8.805   8.395   0.461 -0.3130  0.1002  1.0341
  287MOL0     C37754   8.726   8.310   0.411  1.3371 -0.5533 -0.0284
  287MOL0     O37755   8.628   8.339   0.309 -0.6319  0.3586  0.3916
  287MOL0     C37756   8.644   8.451   0.234 -0.7232  0.6905 -0.7919
  287MOL0     C37757   8.770   8.491   0.173  0.3084  0.1601 -1.1449
  287MOL0     C37758   8.768   8.595   0.081 -0.2258  0.1866 -0.1590
  287MOL0     C37759   8.654   8.671   0.053 -0.7423  0.6309  0.4329
  287MOL0     O37760   8.662   8.768  -0.046  0.0147 -0.0506 -1.0795
  287MOL0     C37761   8.555   8.861  -0.058 -1.2720  0.1433 -0.1130
  287MOL0     C37762   8.599   8.965  -0.157  0.1625  0.5225  0.7204
  287MOL0     C37763   8.544   9.106  -0.117  0.0110 -0.2168  0.0524
  287MOL0     C37764   8.604   9.177   0.011 -1.0631  0.0332 -0.7739
  287MOL0     C37765   8.596   9.332   0.004 -0.2705 -0.2780 -1.0905
  287MOL0     C37766   8.655   9.405   0.125  0.3895 -0.2168 -0.1576
  287MOL0     C37767   8.577   9.384   0.254  0.9241 -0.4402 -0.5124
  287MOL0     C37768   8.545   9.513   0.326  0.9085 -0.3862 -0.6826
  287MOL0     N37769   8.409   9.564   0.281  0.1589 -0.1647 -0.3574
  287MOL0     C37770   8.286   9.504   0.263 -0.5815  0.0320 -0.7076
  287MOL0     C37771   8.210   9.609   0.214 -0.8569  0.0837  0.2010
  287MOL0     C37772   8.061   9.595   0.169  0.1009 -0.0240  1.0108
  287MOL0     C37773   7.963   9.617   0.278 -0.5429 -0.0202  0.3033
  287MOL0     C37774   7.848   9.702   0.228 -0.2504 -0.6065 -0.3201
  287MOL0     C37775   7.743   9.704   0.342 -0.4493 -0.2830  0.1739
  287MOL0     O37776   7.697   9.572   0.351  1.1975  0.7206 -0.3639
  287MOL0     C37777   7.555   9.543   0.361 -0.9733 -1.1296  0.4312
  287MOL0     C37778   7.471   9.623   0.434  1.3933  0.1243  0.7152
  287MOL0     C37779   7.332   9.603   0.434 -0.2392  0.1604  1.0467
  287MOL0     C37780   7.277   9.494   0.364 -0.5193 -0.4580 -0.4670
  287MOL0     C37781   7.128   9.479   0.358 -0.0619 -0.0535 -0.3241
  287MOL0     O37782   7.084   9.353   0.324  0.1625  0.6598 -0.0817
  287MOL0     C37783   6.958   9.302   0.307  1.0704  0.1198  0.4444
  287MOL0     C37784   6.941   9.171   0.323  0.5462 -0.4255 -0.2853
  287MOL0     C37785   6.823   9.106   0.332 -0.8723 -0.3308 -0.2089
  287MOL0     C37786   6.705   9.179   0.312 -0.5686  0.2239  0.7524
  287MOL0     O37787   6.584   9.113   0.318 -0.1842 -0.2269 -0.3624
  287MOL0     C37788   6.467   9.186   0.288 -0.0871  0.3914  0.0949
  287MOL0     C37789   6.349   9.086   0.270 -0.8801  0.1021 -0.4095
  287MOL0     C37790   6.217   9.144   0.225  0.2724  0.1636 -0.2762
  287MOL0     C37791   6.118   9.030   0.202 -0.8859  0.8011 -0.6572
  287MOL0     C37792   5.979   9.080   0.176  0.2667 -0.3681  0.0434
  287MOL0     C37793   5.926   9.105   0.034  0.0360  1.0719 -0.7589
  287MOL0     C37794   5.792   9.171   0.028 -0.2641  0.7567  0.9621
  287MOL0     C37795   5.746   9.153  -0.115  0.9323  0.5257  0.0266
  287MOL0    Cl37796   5.572   9.205  -0.126 -0.0387 -0.4291  0.0374
  287MOL0     C37797   6.712   9.315   0.292  0.0643  0.0793 -0.0341
  287MOL0     C37798   6.839   9.378   0.277  0.0117 -0.4194 -0.3629
  287MOL0     O37799   7.055   9.573   0.380  0.1751  0.8249  0.4228
  287MOL0     C37800   7.356   9.415   0.290 -0.4377 -0.2978 -0.0175
  287MOL0     C37801   7.499   9.434   0.287  0.2876  0.4880  0.0384
  287MOL0     N37802   8.301   9.716   0.191  0.1484  0.6138 -0.5853
  287MOL0     N37803   8.412   9.687   0.223 -0.1319 -0.0485 -0.3626
  287MOL0     C37804   8.539   8.630   0.116  1.4368 -0.8035  0.0587
  287MOL0     C37805   8.524   8.524   0.206 -0.2075  0.3120  0.3930
  287MOL0     C37806   8.726   8.177   0.472 -0.2374 -1.4667  0.3998
  287MOL0     C37807   8.824   8.156   0.581 -0.0331  0.0913  0.1249
  287MOL0     C37808   8.841   8.030   0.637  0.4696  0.6536 -0.1384
  287MOL0     C37809   8.764   7.925   0.587 -0.5733  0.5863  0.3717
  287MOL0     O37810   8.776   7.796   0.629 -1.0531  0.5446  0.1458
  287MOL0     C37811   8.910   7.737   0.607  0.3382  0.4162  0.0943
  287MOL0     C37812   8.915   7.579   0.615  0.2691  0.4922 -0.2046
  287MOL0     C37813   9.057   7.522   0.635 -0.6194 -0.2387  0.8286
  287MOL0     C37814   9.137   7.549   0.503  0.0831  0.4387 -0.4722
  287MOL0     C37815   9.230   7.653   0.511  0.2152 -0.6794 -0.0796
  287MOL0     C37816   9.314   7.744   0.506  0.0192 -0.1945  0.3623
  287MOL0     C37817   8.667   7.943   0.483 -0.3079 -0.4194 -0.3976
  287MOL0     C37818   8.652   8.071   0.419  0.3427 -0.0397  0.2357
  287MOL0     H37819   8.859   8.433   0.193 -0.2946 -0.2522  0.5724
  287MOL0     H37820   8.866   8.624   0.046 -0.0651  1.6832  1.4019
  287MOL0     H37821   8.548   8.910   0.039 -0.7049  0.3634 -0.1822
  287MOL0     H37822   8.463   8.802  -0.067 -0.5979 -0.7969 -1.2595
  287MOL0     H37823   8.568   8.931  -0.256 -1.9261  0.7271  1.2483
  287MOL0     H37824   8.707   8.964  -0.170 -0.1890 -2.0513 -5.5729
  287MOL0     H37825   8.438   9.089  -0.094  0.1796 -2.5434 -0.6179
  287MOL0     H37826   8.548   9.173  -0.203  0.7963  0.6967  0.7879
  287MOL0     H37827   8.569   9.147   0.110  0.3300  0.0627 -0.2437
  287MOL0     H37828   8.712   9.161   0.002 -0.6502  2.9074 -2.3623
  287MOL0     H37829   8.491   9.363  -0.008 -0.1924  0.1816 -0.6367
  287MOL0     H37830   8.651   9.375  -0.080  0.0057  1.9022  0.1458
  287MOL0     H37831   8.642   9.509   0.097  0.4175 -0.6210 -1.7474
  287MOL0     H37832   8.761   9.383   0.141  0.3320  0.4225  1.2769
  287MOL0     H37833   8.482   9.335   0.236  0.0145 -0.0401  2.6573
  287MOL0     H37834   8.648   9.320   0.307 -0.4803 -1.6718 -0.0856
  287MOL0     H37835   8.613   9.595   0.304  0.0571  0.2944 -0.8309
  287MOL0     H37836   8.546   9.487   0.432  0.7364 -1.9036 -1.0255
  287MOL0     H37837   8.253   9.401   0.268  1.8582 -0.7796  0.1393
  287MOL0     H37838   8.033   9.504   0.116 -0.7764  0.3004  0.8995
  287MOL0     H37839   8.037   9.675   0.097 -1.9456 -1.6044 -0.1476
  287MOL0     H37840   8.015   9.662   0.363 -0.6319  0.8906 -0.1196
  287MOL0     H37841   7.926   9.518   0.308  1.2445 -0.6263  0.6145
  287MOL0     H37842   7.881   9.797   0.184  1.3641 -1.8748 -2.0075
  287MOL0     H37843   7.800   9.649   0.145 -1.9645  1.3016 -0.6285
  287MOL0     H37844   7.663   9.774   0.316 -0.2394  0.0473  0.3951
  287MOL0     H37845   7.801   9.744   0.426 -0.9979  0.3215  0.2780
  287MOL0     H37846   7.518   9.704   0.488  0.1737  1.3278  0.0295
  287MOL0     H37847   7.265   9.667   0.491 -0.3021  1.3492 -0.3166
  287MOL0     H37848   7.034   9.117   0.338 -0.4606 -2.3602 -0.5941
  287MOL0     H37849   6.819   8.998   0.336 -0.2247 -0.3440  0.4017
  287MOL0     H37850   6.477   9.244   0.195  1.8339  0.4173  0.2848
  287MOL0     H37851   6.429   9.252   0.367 -2.0300  0.6504 -0.9795
  287MOL0     H37852   6.349   9.024   0.360  2.3372 -2.0685 -1.7271
  287MOL0     H37853   6.379   9.012   0.196 -0.0649  0.1423 -0.1293
  287MOL0     H37854   6.230   9.195   0.130  1.4983 -0.0060 -0.2074
  287MOL0     H37855   6.189   9.206   0.311  1.2236  2.2322 -1.3670
  287MOL0     H37856   6.160   8.968   0.123 -0.8553 -0.6007  0.4236
  287MOL0     H37857   6.117   8.956   0.282  1.0405 -2.4029 -3.3366
  287MOL0     H37858   5.970   9.172   0.235 -3.0195  0.1325 -1.0181
  287MOL0     H37859   5.912   9.014   0.232  2.7691 -1.3259  2.1281
  287MOL0     H37860   5.923   9.008  -0.016 -1.8542  2.0639 -2.7156
  287MOL0     H37861   5.999   9.154  -0.031  0.7758  0.6277 -0.2807
  287MOL0     H37862   5.718   9.120   0.090 -1.0301  0.9610  0.2402
  287MOL0     H37863   5.800   9.277   0.056  1.0322  0.8056  0.4816
  287MOL0     H37864   5.749   9.048  -0.145 -0.8133  0.4631 -0.0137
  287MOL0     H37865   5.818   9.193  -0.187  0.7741 -0.2367 -0.5644
  287MOL0     H37866   6.621   9.375   0.287  1.1232  1.8020  0.4406
  287MOL0     H37867   6.832   9.486   0.282  2.6544 -0.2223  0.1852
  287MOL0     H37868   7.325   9.338   0.221  0.5693 -1.0638  0.3530
  287MOL0     H37869   7.561   9.371   0.224 -0.7468  0.5220 -1.0539
  287MOL0     H37870   8.446   8.680   0.091  1.2531 -0.3942  1.4713
  287MOL0     H37871   8.422   8.498   0.234  0.0335 -1.7111 -0.4295
  287MOL0     H37872   8.894   8.223   0.631 -0.8349  1.8921 -1.0747
  287MOL0     H37873   8.913   8.006   0.714 -0.0559  1.5937  0.6630
  287MOL0     H37874   8.984   7.791   0.667  0.9587  1.1514 -1.2947
  287MOL0     H37875   8.932   7.765   0.504 -1.6778  4.1911  0.5210
  287MOL0     H37876   8.851   7.544   0.697 -1.1597  0.0879 -1.4562
  287MOL0     H37877   8.876   7.529   0.526 -1.0275 -2.9193  2.0520
  287MOL0     H37878   9.064   7.413   0.645  2.2191 -0.4329 -1.8509
  287MOL0     H37879   9.105   7.561   0.726  0.6701 -1.3826  0.6732
  287MOL0     H37880   9.198   7.459   0.492  2.6603  2.2214 -1.7902
  287MOL0     H37881   9.069   7.563   0.418  0.8692  0.0417 -1.1803
  287MOL0     H37882   9.398   7.810   0.503  0.6692 -0.7952  3.1237
  287MOL0     H37883   8.614   7.859   0.440 -1.9320  1.3586 -2.0917
  287MOL0     H37884   8.590   8.092   0.332 -0.3352  0.6013  0.8657
  288MOL0     O37885   9.288  10.359   2.478 -0.0826  0.6339 -0.6484
  288MOL0     C37886   9.362  10.261   2.461  0.1290 -1.0617 -0.1084
  288MOL0     O37887   9.327  10.141   2.417  0.1692  0.3603 -1.2516
  288MOL0     C37888   9.204  10.123   2.363  1.1984  1.3404 -0.1280
  288MOL0     C37889   9.091  10.166   2.433  0.0824 -0.3070  0.3849
  288MOL0     C37890   8.968  10.141   2.370  0.5459 -0.0860  0.7843
  288MOL0     C37891   8.950  10.084   2.243  0.1072 -0.0581 -0.2153
  288MOL0     O37892   8.830  10.051   2.188  0.7163  0.1097  0.0912
  288MOL0     C37893   8.731  10.040   2.285  0.3952 -0.4350 -0.8058
  288MOL0     C37894   8.623   9.948   2.235 -0.4850  0.1052  0.0080
  288MOL0     C37895   8.500   9.952   2.329 -0.8460 -0.5527 -0.6204
  288MOL0     C37896   8.368   9.896   2.270 -0.6609 -0.4950 -0.0416
  288MOL0     C37897   8.268   9.904   2.384  0.7007 -0.7828 -0.3339
  288MOL0     C37898   8.139   9.873   2.321 -0.2467  0.9550 -0.6476
  288MOL0     C37899   8.034   9.845   2.431 -0.4771  0.5079  0.5567
  288MOL0     C37900   7.969   9.972   2.485 -0.1859 -0.2000  0.1654
  288MOL0     N37901   7.872   9.927   2.588 -0.0557 -0.3700  0.1534
  288MOL0     C37902   7.747   9.887   2.538  0.2703 -0.6757 -0.8757
  288MOL0     C37903   7.669   9.868   2.652  0.1249 -0.3345 -0.7321
  288MOL0     C37904   7.529   9.817   2.651 -0.1220 -0.0234 -0.4284
  288MOL0     C37905   7.451   9.945   2.624 -0.0515  0.1757 -0.0202
  288MOL0     C37906   7.302   9.923   2.602  0.0359  0.8462 -0.6121
  288MOL0     C37907   7.273   9.872   2.459 -0.5485  0.3573 -0.9399
  288MOL0     O37908   7.140   9.826   2.439  0.3952 -0.3921 -0.0702
  288MOL0     C37909   7.098   9.763   2.323 -0.7890  0.1259  0.0991
  288MOL0     C37910   6.972   9.709   2.326  0.6158  0.7690  0.3656
  288MOL0     C37911   6.926   9.647   2.218  0.9786  0.5546  0.8167
  288MOL0     C37912   7.009   9.609   2.113 -0.0302  0.5183  0.5309
  288MOL0     C37913   6.950   9.540   1.995  0.8822 -0.6672  0.4478
  288MOL0     O37914   7.016   9.547   1.884  0.0848 -0.4261 -0.0886
  288MOL0     C37915   6.949   9.539   1.768 -1.2338  0.8665  0.0211
  288MOL0     C37916   6.836   9.616   1.731  0.0038  0.0374 -1.0704
  288MOL0     C37917   6.765   9.584   1.623 -0.6393  0.1165  0.6705
  288MOL0     C37918   6.790   9.476   1.540  0.2555 -0.2825  0.4802
  288MOL0     O37919   6.722   9.459   1.423  0.0654 -1.0076  0.0008
  288MOL0     C37920   6.780   9.411   1.296 -0.6393 -0.4922  0.4078
  288MOL0     C37921   6.682   9.414   1.177  1.2157 -0.7891  0.3254
  288MOL0     C37922   6.566   9.312   1.211 -1.6927 -0.5025  0.1121
  288MOL0     C37923   6.424   9.384   1.203  0.2136 -0.6511  0.3389
  288MOL0     C37924   6.306   9.287   1.226 -0.4168  0.4681  0.3357
  288MOL0     C37925   6.165   9.353   1.202 -0.1715 -0.1397  0.1143
  288MOL0     C37926   6.056   9.257   1.242 -0.2736 -1.2356 -0.1248
  288MOL0     C37927   5.916   9.306   1.231 -0.6969  0.0437 -0.0423
  288MOL0    Cl37928   5.865   9.302   1.056  0.0066  0.3184  0.2567
  288MOL0     C37929   6.898   9.400   1.580 -0.3430  0.0603 -0.7026
  288MOL0     C37930   6.976   9.422   1.697  0.0610  0.1702 -0.2230
  288MOL0     O37931   6.840   9.497   2.005 -0.6642  0.4073 -0.0007
  288MOL0     C37932   7.141   9.651   2.106 -0.4524 -0.6619 -0.5267
  288MOL0     C37933   7.186   9.738   2.210 -0.3840 -1.1783 -0.1059
  288MOL0     N37934   7.756   9.892   2.767  0.6934  0.0287  0.6565
  288MOL0     N37935   7.871   9.923   2.720  0.2243 -0.4680 -0.6886
  288MOL0     C37936   9.063  10.050   2.178 -0.3276  0.3241  0.8361
  288MOL0     C37937   9.196  10.055   2.238 -0.4392  0.2849 -0.4317
  288MOL0     C37938   9.507  10.292   2.496 -0.0849  0.1025  0.1774
  288MOL0     C37939   9.580  10.186   2.545 -0.1466  0.6306  0.0473
  288MOL0     C37940   9.704  10.203   2.599  0.2931  0.3175  0.5678
  288MOL0     C37941   9.774  10.324   2.574  0.4470 -0.3590  0.4099
  288MOL0     O37942   9.906  10.335   2.623 -0.5181 -0.7979  0.3995
  288MOL0     C37943   9.991  10.432   2.559 -1.5400  0.0160 -0.1184
  288MOL0     C37944  10.116  10.441   2.649 -0.3876 -0.6256 -0.0009
  288MOL0     C37945  10.189  10.303   2.659 -0.3434 -0.2374  0.9059
  288MOL0     C37946  10.336  10.322   2.711 -0.7302  0.4781 -0.7538
  288MOL0     C37947  10.409  10.388   2.602 -0.5219 -0.2854 -0.2160
  288MOL0     C37948  10.476  10.439   2.517  1.0501  0.5617  0.1871
  288MOL0     C37949   9.698  10.432   2.518  0.6545  0.6248  1.2948
  288MOL0     C37950   9.559  10.423   2.478  0.7582 -0.3755  0.1600
  288MOL0     H37951   9.099  10.215   2.530  0.5527 -2.1122  1.3178
  288MOL0     H37952   8.886  10.179   2.430  0.4334  1.8662 -0.5320
  288MOL0     H37953   8.682  10.138   2.280  0.7150 -0.1693  0.9631
  288MOL0     H37954   8.762  10.007   2.384  2.0234  1.9702 -0.4167
  288MOL0     H37955   8.666   9.848   2.234 -1.0392 -0.1740 -2.9402
  288MOL0     H37956   8.593   9.986   2.138  1.2863  1.7510  0.0334
  288MOL0     H37957   8.484  10.059   2.346 -1.8049 -0.8351  0.3363
  288MOL0     H37958   8.544   9.908   2.419  0.1956  0.7091 -0.4763
  288MOL0     H37959   8.336   9.953   2.182  3.4393  0.9490 -0.8095
  288MOL0     H37960   8.383   9.792   2.241 -0.5331 -0.6825  0.6807
  288MOL0     H37961   8.269  10.006   2.423  0.5481  0.7750 -3.9649
  288MOL0     H37962   8.299   9.830   2.458 -0.5241 -0.6696  0.3121
  288MOL0     H37963   8.148   9.787   2.254 -0.5921  0.0250  0.4792
  288MOL0     H37964   8.113   9.955   2.252 -0.9175  1.1242 -0.2081
  288MOL0     H37965   7.950   9.800   2.377 -0.3886  0.5206  0.4080
  288MOL0     H37966   8.058   9.768   2.505  0.6758  3.0171  2.9889
  288MOL0     H37967   7.918  10.027   2.405 -0.0521 -0.3253 -0.0070
  288MOL0     H37968   8.043  10.042   2.527  0.6106  0.8182 -2.6757
  288MOL0     H37969   7.714   9.884   2.434  0.7704 -1.6791 -1.0177
  288MOL0     H37970   7.510   9.768   2.746  3.7960  2.6368  2.0521
  288MOL0     H37971   7.518   9.746   2.569 -0.6520  2.2850 -2.4908
  288MOL0     H37972   7.494   9.996   2.538 -2.5177  0.4020 -1.2040
  288MOL0     H37973   7.456  10.011   2.711 -3.1519  0.9681 -0.3244
  288MOL0     H37974   7.267   9.849   2.675 -0.7548 -0.0537 -1.8641
  288MOL0     H37975   7.242  10.014   2.613 -2.4497 -0.5361 -1.7960
  288MOL0     H37976   7.334   9.782   2.444 -0.0674  0.0154  2.2545
  288MOL0     H37977   7.317   9.948   2.394  0.1038  1.3307  0.5842
  288MOL0     H37978   6.909   9.730   2.411 -1.4285 -0.6040 -0.7309
  288MOL0     H37979   6.823   9.613   2.221 -0.6722  4.9138  4.5733
  288MOL0     H37980   6.812   9.702   1.792  0.2873 -0.6862  0.1084
  288MOL0     H37981   6.688   9.654   1.591 -0.4302 -0.1019 -0.3526
  288MOL0     H37982   6.815   9.308   1.309  3.2142  0.7210  1.0626
  288MOL0     H37983   6.865   9.476   1.270 -0.3716 -0.3952  1.5077
  288MOL0     H37984   6.737   9.384   1.088  2.0362 -1.4624  1.0327
  288MOL0     H37985   6.641   9.513   1.156  1.5559 -0.8619 -0.7554
  288MOL0     H37986   6.572   9.283   1.317  2.9627 -1.2710 -0.1566
  288MOL0     H37987   6.569   9.215   1.160 -3.0241 -0.5299  0.0594
  288MOL0     H37988   6.430   9.464   1.277  1.3516  1.6904 -2.0889
  288MOL0     H37989   6.418   9.442   1.110  3.3694 -1.0806 -0.2360
  288MOL0     H37990   6.311   9.234   1.322  2.1464 -1.2426 -0.6293
  288MOL0     H37991   6.316   9.207   1.152 -0.8934  0.0377  0.7223
  288MOL0     H37992   6.137   9.377   1.099 -2.8013 -0.5054  0.6861
  288MOL0     H37993   6.164   9.441   1.267  1.4583 -0.7478  1.0291
  288MOL0     H37994   6.063   9.175   1.169 -1.7526 -1.2882 -0.2310
  288MOL0     H37995   6.079   9.228   1.345  0.8699 -0.6101 -0.1778
  288MOL0     H37996   5.909   9.406   1.273  2.1201  0.2466  0.1387
  288MOL0     H37997   5.855   9.227   1.276  2.5872 -3.9785 -1.9120
  288MOL0     H37998   6.930   9.316   1.519 -0.4167 -0.2137 -0.3707
  288MOL0     H37999   7.064   9.360   1.710 -0.0126  0.2310  0.5930
  288MOL0     H38000   7.208   9.621   2.026  1.0312  0.0534  0.3932
  288MOL0     H38001   7.291   9.768   2.205 -0.3988 -1.1649 -0.3628
  288MOL0     H38002   9.050   9.995   2.085 -0.2642 -0.4883  1.3045
  288MOL0     H38003   9.288  10.027   2.188  1.3890  1.8420  1.8304
  288MOL0     H38004   9.520  10.097   2.558 -1.2220  1.3075 -0.1417
  288MOL0     H38005   9.746  10.112   2.641 -3.3454 -1.1479  1.3627
  288MOL0     H38006   9.957  10.536   2.560  0.0565  0.6094  2.5365
  288MOL0     H38007  10.013  10.391   2.459  0.9899  0.1087  0.3284
  288MOL0     H38008  10.188  10.519   2.620 -1.0323  0.0757  0.2598
  288MOL0     H38009  10.075  10.454   2.749 -3.3575  2.1217 -1.4146
  288MOL0     H38010  10.192  10.251   2.563 -0.5928  0.0180  0.7576
  288MOL0     H38011  10.133  10.242   2.731 -0.3162 -3.6069 -1.7063
  288MOL0     H38012  10.350  10.378   2.803 -0.2973 -2.0082  0.7840
  288MOL0     H38013  10.378  10.223   2.733 -2.2518 -0.4545 -1.8260
  288MOL0     H38014  10.530  10.509   2.457 -0.6685  3.0193  1.3004
  288MOL0     H38015   9.726  10.537   2.524 -3.1008  1.9019 -0.5407
  288MOL0     H38016   9.495  10.503   2.443 -1.6974 -1.7344  1.2814
  289MOL0     O38017   0.202   7.305   7.575 -0.1322 -0.8729  0.3208
  289MOL0     C38018   0.216   7.211   7.645 -0.8523  0.7112  0.3769
  289MOL0     O38019   0.108   7.138   7.701 -0.0934 -0.7714  0.2146
  289MOL0     C38020  -0.023   7.194   7.702 -0.6789 -0.2411 -0.0061
  289MOL0     C38021  -0.083   7.270   7.598 -0.1837 -0.5953 -0.3622
  289MOL0     C38022  -0.209   7.325   7.617  0.6422  0.6495 -0.0779
  289MOL0     C38023  -0.287   7.309   7.738 -1.0204 -0.1806  0.6658
  289MOL0     O38024  -0.410   7.364   7.753 -0.0986 -0.5152 -1.0961
  289MOL0     C38025  -0.444   7.413   7.884 -0.7373 -0.3195 -0.1975
  289MOL0     C38026  -0.552   7.328   7.950  0.0720 -0.2960 -0.4865
  289MOL0     C38027  -0.688   7.339   7.885  0.0534 -0.4256 -0.0677
  289MOL0     C38028  -0.783   7.250   7.961 -0.2170  0.8209  0.1299
  289MOL0     C38029  -0.927   7.270   7.915 -0.2431 -1.1244  0.3953
  289MOL0     C38030  -1.032   7.184   7.993 -0.4445 -0.0349  0.0400
  289MOL0     C38031  -1.178   7.198   7.961  0.3846 -0.3938  0.9284
  289MOL0     C38032  -1.207   7.123   7.831  0.4054 -0.3003  0.0681
  289MOL0     N38033  -1.353   7.106   7.815  0.6469 -0.5399 -0.2961
  289MOL0     C38034  -1.409   7.011   7.731  0.0802 -0.3591 -0.1968
  289MOL0     C38035  -1.540   7.023   7.756 -0.4061 -0.4186  0.4104
  289MOL0     C38036  -1.639   6.938   7.679  0.3919 -0.3585  0.0533
  289MOL0     C38037  -1.760   7.022   7.625  0.3504  0.3195 -0.2212
  289MOL0     C38038  -1.870   7.065   7.724 -0.6597 -0.3343  0.7794
  289MOL0     C38039  -1.944   6.957   7.810 -0.2820  0.3242  0.8728
  289MOL0     O38040  -2.079   6.977   7.851 -0.7096 -0.0265  0.3407
  289MOL0     C38041  -2.186   6.993   7.758  0.4137 -0.5053 -1.0702
  289MOL0     C38042  -2.305   7.056   7.787 -1.2610 -0.1554 -0.3069
  289MOL0     C38043  -2.405   7.059   7.695  0.5669 -0.1572 -0.1238
  289MOL0     C38044  -2.400   7.004   7.571  0.2010 -1.1567 -0.5508
  289MOL0     C38045  -2.528   7.002   7.482  0.0667 -0.2848 -1.1130
  289MOL0     O38046  -2.639   7.078   7.532 -0.5079  0.0486 -0.3866
  289MOL0     C38047  -2.764   7.086   7.473  0.5744 -0.1520  0.7800
  289MOL0     C38048  -2.816   6.999   7.373  0.5820  0.6057  0.5737
  289MOL0     C38049  -2.949   7.010   7.334  0.3867 -0.6177 -0.0876
  289MOL0     C38050  -3.034   7.103   7.388  0.0746 -0.0282  0.0398
  289MOL0     O38051  -3.156   7.096   7.325  0.1116 -0.0483  0.4169
  289MOL0     C38052  -3.252   7.187   7.369  0.2386 -0.0245 -0.5178
  289MOL0     C38053  -3.379   7.180   7.281  0.1745 -0.2514 -0.1539
  289MOL0     C38054  -3.450   7.046   7.325 -1.2339 -0.3981  0.4134
  289MOL0     C38055  -3.575   7.014   7.237  0.1796  0.6034  0.7912
  289MOL0     C38056  -3.673   6.907   7.300  0.0013 -0.4025  0.1843
  289MOL0     C38057  -3.736   6.803   7.206  0.5315 -0.0228  0.8727
  289MOL0     C38058  -3.858   6.729   7.258 -0.2140  0.3747 -0.2640
  289MOL0     C38059  -3.872   6.591   7.201  0.2300 -0.4549  0.0867
  289MOL0    Cl38060  -3.906   6.581   7.019 -0.2271 -0.2807 -0.1854
  289MOL0     C38061  -2.983   7.195   7.480  0.0878 -0.6265  0.8750
  289MOL0     C38062  -2.848   7.180   7.528  0.2436  0.7623 -0.0625
  289MOL0     O38063  -2.519   6.937   7.383  0.4936  0.2058  0.7145
  289MOL0     C38064  -2.278   6.939   7.539 -0.9618 -0.6977  0.5445
  289MOL0     C38065  -2.170   6.935   7.628 -0.4516  0.0637 -0.4424
  289MOL0     N38066  -1.559   7.130   7.851  0.0904  0.4495 -0.0151
  289MOL0     N38067  -1.445   7.167   7.890 -0.1015  0.6412 -0.0568
  289MOL0     C38068  -0.227   7.214   7.832 -0.2494 -0.4351 -0.0925
  289MOL0     C38069  -0.096   7.172   7.809  0.1261  0.7987  0.0926
  289MOL0     C38070   0.350   7.133   7.637  0.0243  0.3127  1.1156
  289MOL0     C38071   0.461   7.193   7.577  0.3575  0.7801 -0.0315
  289MOL0     C38072   0.575   7.124   7.548  0.6579  0.1651  0.4216
  289MOL0     C38073   0.591   6.992   7.608 -0.7356 -0.6586  0.2178
  289MOL0     O38074   0.708   6.922   7.602  0.3835 -0.0537  0.1979
  289MOL0     C38075   0.805   6.959   7.509  0.2213 -0.2451 -0.3957
  289MOL0     C38076   0.934   6.892   7.542  0.0527 -0.7618  0.0149
  289MOL0     C38077   1.024   6.899   7.412  0.8755  0.4562 -0.6364
  289MOL0     C38078   1.121   7.017   7.427  0.0707  0.3588  0.4357
  289MOL0     C38079   1.211   7.009   7.314  0.2751 -0.3225  0.0012
  289MOL0     C38080   1.284   6.997   7.219 -0.3884 -0.1556 -0.5532
  289MOL0     C38081   0.484   6.945   7.679 -0.0675 -0.1264 -0.5438
  289MOL0     C38082   0.362   7.009   7.685  0.9592  0.0325  0.2301
  289MOL0     H38083  -0.035   7.293   7.503  2.3156  2.7058  1.4930
  289MOL0     H38084  -0.247   7.396   7.544 -3.3696  1.1330  2.2520
  289MOL0     H38085  -0.474   7.518   7.889 -1.4472 -0.4648 -1.2250
  289MOL0     H38086  -0.351   7.410   7.943  0.4168  1.3429 -1.8057
  289MOL0     H38087  -0.554   7.355   8.056 -0.4118 -2.4742  0.1118
  289MOL0     H38088  -0.513   7.225   7.949  0.7397 -0.0744  0.7214
  289MOL0     H38089  -0.687   7.305   7.782 -0.1889  1.4180 -0.7273
  289MOL0     H38090  -0.719   7.444   7.884  0.7626 -0.2079  0.0368
  289MOL0     H38091  -0.760   7.144   7.951 -2.0591  0.4088  0.0820
  289MOL0     H38092  -0.777   7.271   8.068  0.2323 -0.4353  0.3609
  289MOL0     H38093  -0.941   7.243   7.810 -0.2151  0.5776 -0.0868
  289MOL0     H38094  -0.953   7.376   7.926  4.3457  0.1199  1.9247
  289MOL0     H38095  -1.016   7.207   8.099 -4.8076  0.1223  0.8680
  289MOL0     H38096  -0.992   7.083   7.983 -0.1930  0.1344 -0.7750
  289MOL0     H38097  -1.242   7.146   8.033  1.5538 -3.2434  0.0840
  289MOL0     H38098  -1.205   7.303   7.952 -0.3326 -0.4883  1.8351
  289MOL0     H38099  -1.167   7.021   7.829  1.3714 -0.0435  2.6077
  289MOL0     H38100  -1.166   7.179   7.747  2.3246  0.4852  1.4614
  289MOL0     H38101  -1.356   6.952   7.656  0.7507  0.7074 -0.5976
  289MOL0     H38102  -1.669   6.855   7.744 -0.6716  0.7589  1.0315
  289MOL0     H38103  -1.605   6.893   7.585 -0.7993  0.6377 -0.8779
  289MOL0     H38104  -1.820   6.968   7.550  0.6111  3.2262 -2.7173
  289MOL0     H38105  -1.715   7.107   7.574 -3.6944  2.0975 -1.2510
  289MOL0     H38106  -1.836   7.135   7.800 -0.8931  1.0397 -0.3453
  289MOL0     H38107  -1.943   7.119   7.664 -0.9446 -0.1044  1.3325
  289MOL0     H38108  -1.889   6.931   7.901 -1.7408 -2.2395  1.1072
  289MOL0     H38109  -1.938   6.859   7.762  1.9695 -0.3178  2.3047
  289MOL0     H38110  -2.316   7.092   7.889 -2.5152  0.4058 -0.6295
  289MOL0     H38111  -2.499   7.098   7.735  0.8708  0.0672  0.3791
  289MOL0     H38112  -2.754   6.922   7.327  1.5884  1.0208  1.2053
  289MOL0     H38113  -2.979   6.939   7.257 -0.3233 -0.6667  0.2280
  289MOL0     H38114  -3.217   7.290   7.357  1.9827 -0.6660 -1.2560
  289MOL0     H38115  -3.265   7.182   7.477  0.9567  0.2782 -0.4112
  289MOL0     H38116  -3.345   7.191   7.178  0.3139  2.0716  0.0902
  289MOL0     H38117  -3.438   7.268   7.306 -0.3664  0.3220 -3.0882
  289MOL0     H38118  -3.488   7.056   7.427 -1.0682 -2.3865  0.7152
  289MOL0     H38119  -3.387   6.957   7.328 -3.0740 -1.7643  0.5471
  289MOL0     H38120  -3.632   7.107   7.221  0.3639  0.7595  1.0369
  289MOL0     H38121  -3.553   6.987   7.133  0.0704  0.9685  0.6706
  289MOL0     H38122  -3.756   6.964   7.344 -1.1056  1.4495 -3.8466
  289MOL0     H38123  -3.621   6.857   7.382 -0.8031  1.3579  1.8486
  289MOL0     H38124  -3.652   6.738   7.180 -0.2142 -0.3392 -0.8848
  289MOL0     H38125  -3.765   6.849   7.111 -0.3242  2.4262  2.2210
  289MOL0     H38126  -3.868   6.724   7.367  0.0365  0.3221 -0.2429
  289MOL0     H38127  -3.941   6.790   7.222 -1.9562 -1.7848 -0.1644
  289MOL0     H38128  -3.959   6.541   7.245 -1.2609  0.6567 -1.4869
  289MOL0     H38129  -3.785   6.533   7.234  0.4378 -1.0569 -1.4350
  289MOL0     H38130  -3.029   7.282   7.527  1.4719  0.0101  1.1036
  289MOL0     H38131  -2.798   7.243   7.601  3.2930  1.1318 -2.3111
  289MOL0     H38132  -2.252   6.916   7.436  0.6181 -2.8685  1.3657
  289MOL0     H38133  -2.077   6.889   7.594 -1.4185 -2.2779 -0.1522
  289MOL0     H38134  -0.269   7.181   7.926  3.6651 -0.5984  1.8152
  289MOL0     H38135  -0.053   7.097   7.874  2.1976 -0.7773 -2.9151
  289MOL0     H38136   0.462   7.298   7.549 -2.5031  0.5022 -1.5080
  289MOL0     H38137   0.656   7.178   7.500  0.8018 -1.8040 -1.7178
  289MOL0     H38138   0.820   7.068   7.508  2.5667 -0.5186 -0.1512
  289MOL0     H38139   0.764   6.932   7.411 -1.9133 -0.3054  0.4713
  289MOL0     H38140   0.985   6.945   7.623  0.0422 -0.6022 -0.0833
  289MOL0     H38141   0.917   6.789   7.573  2.5587 -0.5239  2.5819
  289MOL0     H38142   0.968   6.899   7.318 -1.4101  0.5932  0.6412
  289MOL0     H38143   1.076   6.803   7.415 -1.7567 -1.0581 -0.6164
  289MOL0     H38144   1.066   7.111   7.420 -0.0549  0.2907  0.5227
  289MOL0     H38145   1.172   6.999   7.522  0.0954 -3.9827 -0.1842
  289MOL0     H38146   1.361   7.003   7.144 -0.3329  0.0629 -0.4797
  289MOL0     H38147   0.508   6.848   7.720 -1.5660 -0.2944  0.0141
  289MOL0     H38148   0.279   6.962   7.738  2.2687 -0.2026  2.1972
  290MOL0     O38149   0.500  10.949   3.013  0.1319  0.2798 -0.0214
  290MOL0     C38150   0.554  10.890   3.107 -0.0547 -0.4417 -0.3022
  290MOL0     O38151   0.500  10.853   3.227  0.7456  0.4605  0.0886
  290MOL0     C38152   0.367  10.883   3.243  1.0543 -0.3277  0.5451
  290MOL0     C38153   0.343  11.002   3.315  0.5621 -0.5147  0.4438
  290MOL0     C38154   0.207  11.031   3.334  0.9282 -0.2331  0.1306
  290MOL0     C38155   0.104  10.941   3.300 -0.7542  0.0830  0.3095
  290MOL0     O38156  -0.036  10.967   3.320 -0.2376  1.0585 -0.1494
  290MOL0     C38157  -0.081  10.949   3.459 -0.0983 -0.7881 -0.1410
  290MOL0     C38158  -0.216  10.887   3.479  0.5972 -0.0146 -0.1276
  290MOL0     C38159  -0.315  10.986   3.418  0.0981 -0.1980  0.7674
  290MOL0     C38160  -0.461  10.937   3.400 -0.4544  0.6825  0.4542
  290MOL0     C38161  -0.471  10.854   3.268  1.3000  0.7512 -0.1357
  290MOL0     C38162  -0.583  10.757   3.283 -0.3011  0.6877 -0.5275
  290MOL0     C38163  -0.725  10.831   3.282  0.0598 -0.1668  0.0857
  290MOL0     C38164  -0.816  10.798   3.405 -0.0033  0.3330 -0.5721
  290MOL0     N38165  -0.953  10.835   3.388 -0.3483 -0.1888  0.5423
  290MOL0     C38166  -1.003  10.960   3.389  0.0208 -0.3872 -0.1710
  290MOL0     C38167  -1.133  10.947   3.398  0.0219 -0.4901 -0.2689
  290MOL0     C38168  -1.226  11.065   3.386  0.2959  0.4903  1.3348
  290MOL0     C38169  -1.374  11.020   3.357  0.1831  0.5860 -0.0624
  290MOL0     C38170  -1.477  11.131   3.360 -0.8640  0.6871 -0.7168
  290MOL0     C38171  -1.607  11.067   3.324 -0.0083 -1.2429  0.7984
  290MOL0     O38172  -1.663  11.011   3.444  0.3486 -1.1168  0.0277
  290MOL0     C38173  -1.793  10.977   3.423 -0.6800  0.6566  0.2271
  290MOL0     C38174  -1.898  11.031   3.496 -0.5093  0.3773  0.1540
  290MOL0     C38175  -2.032  11.002   3.456  0.4811 -0.1588  0.3304
  290MOL0     C38176  -2.060  10.916   3.351  0.1594  0.3397  0.3534
  290MOL0     C38177  -2.196  10.877   3.305 -0.2311 -0.4540 -0.2101
  290MOL0     O38178  -2.292  10.971   3.335 -0.0611  0.1769 -0.7742
  290MOL0     C38179  -2.414  10.949   3.275  0.4464 -0.3103  0.8720
  290MOL0     C38180  -2.448  11.023   3.161  1.0155 -0.2509 -0.7014
  290MOL0     C38181  -2.571  11.011   3.104  0.5917  0.3407 -0.0496
  290MOL0     C38182  -2.655  10.905   3.140  0.7983 -0.5388  0.4267
  290MOL0     O38183  -2.779  10.900   3.073  0.5352  0.1798 -0.5486
  290MOL0     C38184  -2.886  10.829   3.143  0.7709 -0.2949 -0.8392
  290MOL0     C38185  -3.021  10.897   3.118 -0.5042  0.3687 -0.1739
  290MOL0     C38186  -3.121  10.807   3.053  1.1308 -0.1203  0.7106
  290MOL0     C38187  -3.251  10.878   3.031  0.4662 -0.4026 -0.4165
  290MOL0     C38188  -3.338  10.803   2.940  0.6814  0.0020 -1.0576
  290MOL0     C38189  -3.483  10.865   2.936  0.2056 -0.9958  0.2609
  290MOL0     C38190  -3.586  10.763   2.903  0.0271 -0.2583 -0.2129
  290MOL0     C38191  -3.690  10.723   3.020 -0.7030 -0.7546  0.8044
  290MOL0    Cl38192  -3.817  10.622   2.942 -0.3478  0.0843 -0.0562
  290MOL0     C38193  -2.614  10.823   3.239 -1.3036 -0.1553  0.8308
  290MOL0     C38194  -2.494  10.839   3.309 -0.0724 -0.5798  0.8848
  290MOL0     O38195  -2.210  10.778   3.227 -0.1081  0.6493  0.7936
  290MOL0     C38196  -1.949  10.853   3.286 -0.3663  0.2522  0.3893
  290MOL0     C38197  -1.816  10.892   3.315  0.2416 -0.4113  0.7530
  290MOL0     N38198  -1.163  10.809   3.398  0.0880  0.1849  0.3286
  290MOL0     N38199  -1.053  10.745   3.383 -0.2998 -0.1444 -0.7541
  290MOL0     C38200   0.132  10.832   3.221 -0.3457 -0.0031  0.5683
  290MOL0     C38201   0.264  10.803   3.180  0.3771  0.2285 -0.5065
  290MOL0     C38202   0.703  10.882   3.096  0.2019  0.3121  0.0849
  290MOL0     C38203   0.761  10.917   2.977 -0.2947  0.7582 -1.0648
  290MOL0     C38204   0.893  10.915   2.950  0.4666  1.1723  0.4117
  290MOL0     C38205   0.983  10.870   3.049  0.6956  0.6838 -0.3087
  290MOL0     O38206   1.117  10.852   3.034  0.3455  0.0305  0.9778
  290MOL0     C38207   1.188  10.968   2.995  0.2571 -0.2834  0.1759
  290MOL0     C38208   1.337  10.937   2.995  0.7987  0.1458 -0.7551
  290MOL0     C38209   1.383  10.794   2.965  0.9257  0.0377  0.1960
  290MOL0     C38210   1.535  10.773   2.953  0.5905 -0.6883 -0.7593
  290MOL0     C38211   1.617  10.823   3.056 -0.2447 -0.4831 -0.3180
  290MOL0     C38212   1.699  10.883   3.127  0.0261  0.6353  0.3218
  290MOL0     C38213   0.929  10.810   3.172  0.3349 -0.6980  0.6996
  290MOL0     C38214   0.789  10.821   3.195  0.1686 -0.1208  0.6225
  290MOL0     H38215   0.422  11.065   3.354  3.7038 -0.8488 -4.4984
  290MOL0     H38216   0.170  11.123   3.379 -0.9561 -0.6516 -0.4754
  290MOL0     H38217  -0.074  11.045   3.511  0.6616 -0.4592 -0.8235
  290MOL0     H38218  -0.012  10.887   3.518 -1.4697 -1.6037  0.6697
  290MOL0     H38219  -0.234  10.868   3.585  1.9502  1.0412  0.3104
  290MOL0     H38220  -0.229  10.790   3.429 -1.4705  0.7135 -1.1362
  290MOL0     H38221  -0.282  11.026   3.321 -1.4920 -1.0668 -0.1714
  290MOL0     H38222  -0.316  11.075   3.481  3.8827  1.6228 -1.3805
  290MOL0     H38223  -0.493  10.883   3.490  0.9399  0.1840  0.6826
  290MOL0     H38224  -0.529  11.022   3.394 -0.4828  0.6047 -0.5949
  290MOL0     H38225  -0.376  10.803   3.249  0.4733 -1.0543  0.3385
  290MOL0     H38226  -0.492  10.937   3.200  0.5736  1.7958  1.2952
  290MOL0     H38227  -0.559  10.692   3.368  1.4571 -0.9526 -2.1771
  290MOL0     H38228  -0.581  10.689   3.197  4.7079  1.2810 -1.2096
  290MOL0     H38229  -0.709  10.938   3.270 -0.1802 -0.2203 -0.8439
  290MOL0     H38230  -0.773  10.790   3.192 -1.7603  0.2535  0.8270
  290MOL0     H38231  -0.787  10.856   3.493 -0.6405 -2.1987  1.4352
  290MOL0     H38232  -0.814  10.692   3.433 -3.3232  0.2457 -0.2498
  290MOL0     H38233  -0.959  11.059   3.385 -4.5328  2.0780  2.2970
  290MOL0     H38234  -1.194  11.131   3.305 -0.8321  0.4132  0.7935
  290MOL0     H38235  -1.207  11.119   3.478  3.0557  0.7852  0.6851
  290MOL0     H38236  -1.398  10.957   3.444  1.1550 -0.7408 -0.7124
  290MOL0     H38237  -1.375  10.963   3.264 -2.8970  2.0120 -1.0430
  290MOL0     H38238  -1.481  11.184   3.456 -2.9150  0.4581 -0.6446
  290MOL0     H38239  -1.450  11.203   3.282  4.3517  3.0404  2.6982
  290MOL0     H38240  -1.595  10.989   3.248 -0.0789 -1.2637  0.8088
  290MOL0     H38241  -1.669  11.144   3.276 -0.5760 -1.6557  0.8526
  290MOL0     H38242  -1.884  11.111   3.568 -1.0209 -0.2816  1.0090
  290MOL0     H38243  -2.113  11.059   3.500 -2.1430 -2.4203 -1.2131
  290MOL0     H38244  -2.379  11.092   3.112  0.6310  1.6095  1.2151
  290MOL0     H38245  -2.587  11.064   3.011 -1.0084 -0.2594 -0.1449
  290MOL0     H38246  -2.870  10.823   3.251 -1.4321 -0.1581 -0.4554
  290MOL0     H38247  -2.879  10.729   3.099  1.1740  0.0015 -1.4544
  290MOL0     H38248  -2.999  10.980   3.050  1.1073  0.9132  0.9531
  290MOL0     H38249  -3.058  10.928   3.217  0.8659  0.7045  0.2645
  290MOL0     H38250  -3.137  10.728   3.127 -0.9391  0.7931  1.2964
  290MOL0     H38251  -3.085  10.774   2.955  1.3052  2.6891 -0.2655
  290MOL0     H38252  -3.289  10.909   3.129  0.3761 -0.4997 -0.4206
  290MOL0     H38253  -3.245  10.979   2.988 -2.5469  0.5671  1.1648
  290MOL0     H38254  -3.342  10.698   2.969 -1.2267  0.0219 -1.1481
  290MOL0     H38255  -3.295  10.809   2.839  0.2903  0.4633 -1.1996
  290MOL0     H38256  -3.495  10.954   2.873 -0.3556  0.3327  2.1520
  290MOL0     H38257  -3.506  10.913   3.031 -1.7070 -0.0459 -0.6311
  290MOL0     H38258  -3.654  10.792   2.822 -0.0417 -2.8451 -1.1624
  290MOL0     H38259  -3.543  10.666   2.875  0.5036 -0.5383  1.4099
  290MOL0     H38260  -3.729  10.819   3.056  2.6426  0.9901  0.2237
  290MOL0     H38261  -3.654  10.674   3.110 -0.3041  0.4066  1.2971
  290MOL0     H38262  -2.678  10.737   3.255 -2.2908  0.1948 -1.0036
  290MOL0     H38263  -2.467  10.772   3.390 -0.1972  0.1095  1.5097
  290MOL0     H38264  -1.957  10.780   3.206  0.3608  1.3369 -0.7066
  290MOL0     H38265  -1.748  10.837   3.250  0.2102  1.3832 -0.8695
  290MOL0     H38266   0.048  10.767   3.195  0.0733 -0.7303  0.9798
  290MOL0     H38267   0.297  10.720   3.119 -1.8996 -1.5367  0.5055
  290MOL0     H38268   0.696  10.946   2.895 -1.4363  0.8439 -0.1456
  290MOL0     H38269   0.915  10.944   2.848 -1.4283 -0.4355 -0.5085
  290MOL0     H38270   1.162  11.048   3.065  0.4932 -0.7742  0.8372
  290MOL0     H38271   1.160  10.998   2.894 -0.1059 -0.1120  0.3259
  290MOL0     H38272   1.393  11.006   2.931  1.2292  0.7775  0.2772
  290MOL0     H38273   1.362  10.962   3.099  1.3491 -2.7524 -0.1200
  290MOL0     H38274   1.329  10.776   2.871  1.0066  0.9879 -0.0430
  290MOL0     H38275   1.340  10.716   3.029 -3.1890 -0.3963 -2.6755
  290MOL0     H38276   1.548  10.665   2.945 -1.9065 -0.9439 -2.5470
  290MOL0     H38277   1.568  10.809   2.855 -0.2752  0.8720 -0.5079
  290MOL0     H38278   1.770  10.924   3.196 -1.2134 -0.6116  2.4560
  290MOL0     H38279   1.001  10.770   3.242  3.0957  2.6495  0.0806
  290MOL0     H38280   0.751  10.774   3.285 -1.6181 -0.3596 -0.2094
  291MOL0     O38281   8.332   2.727   5.946  0.1519 -0.4510 -0.6080
  291MOL0     C38282   8.300   2.766   5.833 -0.4739 -0.4920 -0.2551
  291MOL0     O38283   8.393   2.821   5.751  0.4931  0.0940 -0.4731
  291MOL0     C38284   8.514   2.854   5.802 -0.6517 -0.5167 -0.5260
  291MOL0     C38285   8.633   2.791   5.759  0.2154 -0.0257  1.0874
  291MOL0     C38286   8.761   2.822   5.802  0.2147 -0.3327 -0.2267
  291MOL0     C38287   8.772   2.924   5.900  0.6240 -1.1343  0.3322
  291MOL0     O38288   8.894   2.940   5.957 -0.8061  0.1021 -0.1384
  291MOL0     C38289   8.914   3.015   6.081 -0.0946 -0.0033 -0.0537
  291MOL0     C38290   9.065   3.008   6.125  0.7096  0.0912  1.5294
  291MOL0     C38291   9.161   3.072   6.017 -0.4553 -0.7022 -0.2805
  291MOL0     C38292   9.205   2.963   5.907 -0.6166  0.9141 -0.1776
  291MOL0     C38293   9.296   2.856   5.972  0.8047 -0.3302 -0.3561
  291MOL0     C38294   9.329   2.746   5.869  0.6793 -0.1835  0.8647
  291MOL0     C38295   9.210   2.654   5.822 -0.5772  0.1329 -0.6415
  291MOL0     C38296   9.142   2.568   5.927  0.6648 -0.1750  0.6137
  291MOL0     N38297   9.253   2.506   6.011 -0.7674  0.4118 -0.5605
  291MOL0     C38298   9.346   2.419   5.949 -0.1044 -0.2772  0.0052
  291MOL0     C38299   9.418   2.378   6.055 -0.6016  0.3262 -0.2669
  291MOL0     C38300   9.523   2.268   6.043  0.6707 -0.1615  0.1735
  291MOL0     C38301   9.566   2.200   6.171 -0.0083  0.2751 -0.2784
  291MOL0     C38302   9.480   2.066   6.199 -0.6339 -0.4538 -0.2982
  291MOL0     C38303   9.343   2.100   6.254  0.5520 -0.6862  0.2665
  291MOL0     O38304   9.283   1.972   6.284 -0.1142  0.7303  0.5348
  291MOL0     C38305   9.151   1.956   6.289  0.0727 -0.0531  0.6506
  291MOL0     C38306   9.109   1.828   6.296 -0.0594 -0.3213 -0.1373
  291MOL0     C38307   8.974   1.791   6.304  0.1665 -0.2731 -0.3984
  291MOL0     C38308   8.884   1.899   6.312 -0.4222  0.6526 -0.2803
  291MOL0     C38309   8.741   1.866   6.323  0.2638  0.6019 -0.0672
  291MOL0     O38310   8.669   1.972   6.348 -0.0929 -0.9047  0.0962
  291MOL0     C38311   8.537   1.975   6.348 -0.5082  0.4263 -0.1334
  291MOL0     C38312   8.468   2.062   6.431 -0.0040  0.2371 -0.8294
  291MOL0     C38313   8.326   2.068   6.421  0.9328  0.4511  0.1681
  291MOL0     C38314   8.252   1.988   6.335 -0.3821  0.0941  0.2166
  291MOL0     O38315   8.116   2.006   6.341  0.3644 -0.4759  0.2439
  291MOL0     C38316   8.046   1.925   6.254 -0.2467 -0.2747  0.1508
  291MOL0     C38317   7.904   1.960   6.263 -0.4880  0.4825 -0.7184
  291MOL0     C38318   7.816   1.869   6.169  0.5800 -0.5694  0.2138
  291MOL0     C38319   7.725   1.770   6.239  0.0829 -0.7694 -0.4521
  291MOL0     C38320   7.619   1.716   6.152 -0.0778 -0.6145 -0.0952
  291MOL0     C38321   7.527   1.616   6.230  0.3832 -0.9372 -0.1379
  291MOL0     C38322   7.390   1.601   6.162  0.5326  0.2201 -0.5959
  291MOL0     C38323   7.313   1.502   6.256 -0.2313  0.1988  0.4065
  291MOL0    Cl38324   7.166   1.420   6.188  0.1064 -0.0570 -0.0474
  291MOL0     C38325   8.329   1.897   6.258  0.5029 -0.9016  0.2757
  291MOL0     C38326   8.460   1.900   6.264  0.9464 -0.7424  1.0795
  291MOL0     O38327   8.698   1.749   6.307 -0.2490  0.1460 -0.6000
  291MOL0     C38328   8.922   2.027   6.298 -0.8242 -0.0381  1.0167
  291MOL0     C38329   9.059   2.061   6.278 -0.8118  0.1099  0.0484
  291MOL0     N38330   9.369   2.432   6.170  0.5330 -0.5227  0.4458
  291MOL0     N38331   9.279   2.516   6.147  0.3480  0.4277  1.1524
  291MOL0     C38332   8.654   2.991   5.944  0.0876 -0.6223  0.3485
  291MOL0     C38333   8.529   2.949   5.905 -1.1429 -0.5459 -0.0607
  291MOL0     C38334   8.159   2.758   5.800 -0.9445 -0.6074  0.2298
  291MOL0     C38335   8.059   2.708   5.891  0.5951 -0.0481  0.3594
  291MOL0     C38336   7.919   2.683   5.849 -0.4029 -0.0064  0.2485
  291MOL0     C38337   7.883   2.727   5.719  0.1462  0.1480  0.5033
  291MOL0     O38338   7.759   2.699   5.671 -0.2992  0.3891  0.0871
  291MOL0     C38339   7.652   2.662   5.762 -0.7346 -0.6288  0.1354
  291MOL0     C38340   7.523   2.644   5.684  0.3474  0.0677  0.6067
  291MOL0     C38341   7.469   2.784   5.636 -0.2915  0.0112  0.3574
  291MOL0     C38342   7.366   2.847   5.739 -0.6348 -0.0406  0.8976
  291MOL0     C38343   7.252   2.913   5.664 -0.0774 -0.3990 -0.5733
  291MOL0     C38344   7.155   2.961   5.609 -0.3172  0.9059  0.3065
  291MOL0     C38345   7.980   2.788   5.638  0.1994  0.4959  0.3612
  291MOL0     C38346   8.113   2.802   5.675 -0.9220  0.1499 -1.4461
  291MOL0     H38347   8.618   2.714   5.684  1.7193 -2.2723  2.9467
  291MOL0     H38348   8.847   2.768   5.764 -0.1259 -0.3395 -1.0079
  291MOL0     H38349   8.854   2.971   6.161 -0.6400 -2.6709 -1.8112
  291MOL0     H38350   8.884   3.115   6.049 -1.0687 -0.6868 -1.3598
  291MOL0     H38351   9.086   2.900   6.127  1.4264  0.0710 -1.7780
  291MOL0     H38352   9.083   3.052   6.223  1.0972 -1.3407  2.1305
  291MOL0     H38353   9.251   3.099   6.071  1.0261 -3.3682 -1.1998
  291MOL0     H38354   9.112   3.158   5.970  0.2499  0.1018  0.4314
  291MOL0     H38355   9.123   2.914   5.852 -0.9738  0.7116  0.5299
  291MOL0     H38356   9.258   3.010   5.823 -0.3159 -0.8088 -0.9776
  291MOL0     H38357   9.260   2.816   6.067 -1.6042 -1.1057 -1.5120
  291MOL0     H38358   9.391   2.909   5.978  0.7807  0.0290 -2.4601
  291MOL0     H38359   9.411   2.684   5.908 -0.3355 -0.2975  2.9947
  291MOL0     H38360   9.360   2.799   5.779  2.2664  0.3010  1.6598
  291MOL0     H38361   9.139   2.715   5.766 -2.3451 -0.5152  0.7954
  291MOL0     H38362   9.246   2.581   5.749 -2.0077  0.5337 -1.8064
  291MOL0     H38363   9.087   2.483   5.884  3.5443 -1.9660  0.1884
  291MOL0     H38364   9.078   2.629   5.991  0.5979 -1.1446  1.4891
  291MOL0     H38365   9.348   2.387   5.846 -0.1038  0.5102 -0.2516
  291MOL0     H38366   9.606   2.318   5.991  1.6803 -1.7915  0.1366
  291MOL0     H38367   9.481   2.199   5.970  0.2785 -0.5465  0.7590
  291MOL0     H38368   9.560   2.271   6.254  0.7300  0.7856 -0.6503
  291MOL0     H38369   9.671   2.170   6.156  1.2592  3.0328  2.1183
  291MOL0     H38370   9.488   1.992   6.120  0.6570 -3.0993  2.1324
  291MOL0     H38371   9.535   2.019   6.281  1.4294  1.1500 -0.6507
  291MOL0     H38372   9.281   2.159   6.185  0.2675  2.0135  2.6308
  291MOL0     H38373   9.333   2.159   6.345 -2.0764 -0.1419 -0.2778
  291MOL0     H38374   9.185   1.754   6.319  0.2083  0.1474  0.5285
  291MOL0     H38375   8.933   1.691   6.319 -1.2148  0.3753  0.2550
  291MOL0     H38376   8.532   2.120   6.495  0.1473  0.9605 -1.6211
  291MOL0     H38377   8.280   2.144   6.483 -0.4589  1.0142 -1.5059
  291MOL0     H38378   8.068   1.818   6.267  0.4712  0.0050  1.5266
  291MOL0     H38379   8.082   1.941   6.152  1.4528  0.5533  0.8456
  291MOL0     H38380   7.897   2.066   6.235  1.2852  0.1367 -2.7311
  291MOL0     H38381   7.872   1.950   6.367 -1.4712  0.7688 -0.9838
  291MOL0     H38382   7.870   1.810   6.095 -0.1033 -0.3798 -0.4452
  291MOL0     H38383   7.753   1.935   6.108 -0.1798 -1.5287 -0.0746
  291MOL0     H38384   7.789   1.694   6.285  0.1993 -1.2936 -1.4403
  291MOL0     H38385   7.678   1.813   6.327  1.0874 -1.9523  0.7097
  291MOL0     H38386   7.681   1.673   6.073 -0.0398  0.0121 -0.4127
  291MOL0     H38387   7.547   1.784   6.105 -0.7630 -1.8159 -0.8409
  291MOL0     H38388   7.520   1.656   6.331  2.0901  0.7369 -0.6078
  291MOL0     H38389   7.572   1.517   6.219 -0.5544 -1.1168 -3.9138
  291MOL0     H38390   7.328   1.690   6.142 -0.4962 -0.0699  1.1055
  291MOL0     H38391   7.405   1.550   6.067  1.4333  0.6997 -0.7140
  291MOL0     H38392   7.265   1.552   6.341 -1.2837 -2.0120  1.1913
  291MOL0     H38393   7.378   1.418   6.283  0.7468  0.9597  0.4705
  291MOL0     H38394   8.280   1.845   6.177  2.2675  1.3107 -2.3747
  291MOL0     H38395   8.513   1.847   6.186 -0.6881 -1.5584  0.4732
  291MOL0     H38396   8.849   2.104   6.274  0.2112  0.0058 -2.7136
  291MOL0     H38397   9.103   2.160   6.269  2.2456 -0.9034  2.4347
  291MOL0     H38398   8.663   3.079   6.007  2.0530 -0.4675 -0.0854
  291MOL0     H38399   8.442   2.999   5.946  0.7834  2.9037  0.1473
  291MOL0     H38400   8.091   2.664   5.985  4.5891 -0.4886 -1.0303
  291MOL0     H38401   7.854   2.639   5.924  0.4839  0.7398  1.4879
  291MOL0     H38402   7.635   2.723   5.851  0.3943 -1.6358  1.0794
  291MOL0     H38403   7.677   2.560   5.794  1.1106 -0.4138 -0.4936
  291MOL0     H38404   7.544   2.579   5.599 -2.0238  2.3561 -1.9145
  291MOL0     H38405   7.453   2.588   5.747  0.7906  0.1661  1.1933
  291MOL0     H38406   7.425   2.783   5.536  1.6915  0.2931 -0.5679
  291MOL0     H38407   7.553   2.851   5.615 -0.9652  0.9370  0.5615
  291MOL0     H38408   7.323   2.767   5.800 -0.8428 -0.2622  0.4612
  291MOL0     H38409   7.423   2.922   5.794  1.9235 -0.0359 -1.5772
  291MOL0     H38410   7.070   2.990   5.551  0.8719 -1.2791 -2.8179
  291MOL0     H38411   7.956   2.810   5.534  1.3011 -3.3529 -0.8728
  291MOL0     H38412   8.178   2.852   5.603  1.6444 -1.8162 -0.6587
  292MOL0     O38413   4.613   2.822   9.306  0.1208 -0.0180 -0.1806
  292MOL0     C38414   4.659   2.894   9.215 -0.7013  0.1519 -1.5027
  292MOL0     O38415   4.583   2.970   9.128 -0.6092 -0.4038 -0.1489
  292MOL0     C38416   4.446   2.991   9.152 -0.1992 -0.5102  0.3158
  292MOL0     C38417   4.382   3.022   9.273  0.2141 -0.8189 -0.1707
  292MOL0     C38418   4.246   3.050   9.282  1.1925  0.3738  0.1952
  292MOL0     C38419   4.162   3.036   9.171 -0.2937 -0.2501 -0.2850
  292MOL0     O38420   4.027   3.053   9.162  0.6221  0.3846  0.1561
  292MOL0     C38421   3.955   3.112   9.277 -0.5533 -0.3774  0.4511
  292MOL0     C38422   3.799   3.100   9.264 -0.4902  0.5629  0.4457
  292MOL0     C38423   3.717   3.165   9.370 -0.1245 -1.2843 -0.7200
  292MOL0     C38424   3.559   3.145   9.348 -0.0914 -0.1835 -0.7167
  292MOL0     C38425   3.481   3.219   9.456 -0.1275  0.3225 -0.0463
  292MOL0     C38426   3.470   3.366   9.421  0.8590  0.0840 -0.1587
  292MOL0     C38427   3.327   3.384   9.376 -0.1063  0.0399 -0.4264
  292MOL0     C38428   3.304   3.515   9.289 -0.2074 -0.3337 -0.3463
  292MOL0     N38429   3.162   3.552   9.283 -0.1424 -0.0921  0.2782
  292MOL0     C38430   3.062   3.467   9.242  0.8668 -0.3727  0.2845
  292MOL0     C38431   2.944   3.527   9.278 -1.2824 -0.1296 -0.4249
  292MOL0     C38432   2.809   3.477   9.237 -0.0699 -0.4156 -0.4468
  292MOL0     C38433   2.712   3.487   9.358  0.3427  0.0053  0.4859
  292MOL0     C38434   2.577   3.418   9.314  0.0966  0.7701  0.2886
  292MOL0     C38435   2.460   3.441   9.418  0.3609 -0.1467 -0.6920
  292MOL0     O38436   2.335   3.416   9.361  0.5453  0.0992  0.0759
  292MOL0     C38437   2.225   3.465   9.424  0.0556  0.7171 -0.1596
  292MOL0     C38438   2.134   3.371   9.477  0.0323 -0.1069 -0.5706
  292MOL0     C38439   1.996   3.411   9.519 -0.8693  0.5551  0.1964
  292MOL0     C38440   1.962   3.545   9.513 -0.0090  0.2045  0.1781
  292MOL0     C38441   1.822   3.592   9.541 -0.7046 -0.1129  0.3280
  292MOL0     O38442   1.738   3.506   9.616 -0.0176  1.1677 -0.1093
  292MOL0     C38443   1.603   3.542   9.637  0.2001 -0.0476  0.1827
  292MOL0     C38444   1.568   3.630   9.735 -0.6675  0.1046  0.0645
  292MOL0     C38445   1.433   3.638   9.781  0.4614 -0.4882  1.1767
  292MOL0     C38446   1.332   3.559   9.719 -0.1559 -0.4774 -0.0316
  292MOL0     O38447   1.200   3.556   9.756  0.7643  0.5137  0.0891
  292MOL0     C38448   1.172   3.603   9.889 -0.0044  0.2436  0.1248
  292MOL0     C38449   1.020   3.570   9.919  0.3251 -0.5296  0.3398
  292MOL0     C38450   0.993   3.596  10.069 -0.1991 -0.6132  0.7905
  292MOL0     C38451   0.848   3.561  10.099  0.0055 -0.1484 -0.1152
  292MOL0     C38452   0.809   3.615  10.232 -0.1522  1.0458 -0.5574
  292MOL0     C38453   0.661   3.561  10.265  0.2394 -0.6399  0.7671
  292MOL0     C38454   0.623   3.626  10.399  0.4297 -0.5877  0.2776
  292MOL0     C38455   0.497   3.560  10.448  0.3686  0.1854 -0.9477
  292MOL0    Cl38456   0.352   3.587  10.346  0.2451 -0.4590 -0.3437
  292MOL0     C38457   1.367   3.479   9.612 -0.1636 -0.4885  0.0614
  292MOL0     C38458   1.504   3.480   9.562 -0.1616  0.3409 -0.2475
  292MOL0     O38459   1.780   3.689   9.487  0.1836 -0.4588  0.6994
  292MOL0     C38460   2.052   3.635   9.458 -0.6522  0.2236 -0.0637
  292MOL0     C38461   2.179   3.596   9.416  0.5272  0.2448  0.0791
  292MOL0     N38462   2.978   3.634   9.354 -0.4003  0.0720 -0.7124
  292MOL0     N38463   3.106   3.649   9.355  0.6796 -0.6731  0.1030
  292MOL0     C38464   4.224   3.030   9.050 -0.0810  0.0867  0.2658
  292MOL0     C38465   4.365   3.004   9.033  1.0673  0.8136  0.1321
  292MOL0     C38466   4.811   2.890   9.213  0.7407 -0.1714  0.9213
  292MOL0     C38467   4.867   2.966   9.111  0.8476  0.4433  0.5025
  292MOL0     C38468   4.999   2.969   9.074  0.3582 -0.1918 -0.4316
  292MOL0     C38469   5.085   2.894   9.160  0.2200 -0.4202 -0.2787
  292MOL0     O38470   5.218   2.895   9.163 -0.2002  0.2622  0.0357
  292MOL0     C38471   5.290   2.968   9.061  0.9330 -0.4380 -1.2269
  292MOL0     C38472   5.440   2.956   9.099  0.2452  0.8735  0.7989
  292MOL0     C38473   5.492   2.814   9.095  0.0536 -0.0503 -0.2943
  292MOL0     C38474   5.635   2.807   9.138 -0.6794 -0.4192 -0.0480
  292MOL0     C38475   5.737   2.864   9.045  0.1000  0.1027 -0.0070
  292MOL0     C38476   5.824   2.923   8.980 -0.3902  1.0509  0.1662
  292MOL0     C38477   5.029   2.810   9.265 -0.1441 -0.1324  0.3627
  292MOL0     C38478   4.892   2.810   9.285  0.7164  0.7620 -0.0359
  292MOL0     H38479   4.446   3.036   9.360  0.5721  1.4782 -0.7211
  292MOL0     H38480   4.212   3.071   9.383 -0.3597  2.0790 -0.6280
  292MOL0     H38481   3.990   3.213   9.300  2.3245 -1.1212 -0.2994
  292MOL0     H38482   3.983   3.055   9.366 -0.2148 -1.2880 -0.2307
  292MOL0     H38483   3.769   2.995   9.262 -1.2976  0.6865  2.7105
  292MOL0     H38484   3.776   3.140   9.165  1.3133  0.7208  0.0736
  292MOL0     H38485   3.745   3.271   9.369 -0.8382 -1.0937 -1.3924
  292MOL0     H38486   3.736   3.124   9.469 -2.4539  0.2883  0.4898
  292MOL0     H38487   3.524   3.169   9.247 -2.7195 -0.0989  0.1548
  292MOL0     H38488   3.531   3.039   9.350  0.1523 -0.2546 -1.0166
  292MOL0     H38489   3.527   3.205   9.554 -0.5350 -2.1453 -0.1435
  292MOL0     H38490   3.387   3.166   9.471  1.7131 -2.8490  1.3938
  292MOL0     H38491   3.537   3.396   9.340 -2.0354  1.3509 -2.2327
  292MOL0     H38492   3.491   3.420   9.513  1.9126 -1.7747  0.7513
  292MOL0     H38493   3.299   3.304   9.307 -2.0624 -0.3445  0.7405
  292MOL0     H38494   3.254   3.388   9.458 -0.2679  0.0241 -0.5692
  292MOL0     H38495   3.345   3.511   9.187  0.6235  2.6947 -0.2223
  292MOL0     H38496   3.361   3.600   9.328 -0.4432  0.9499 -2.6555
  292MOL0     H38497   3.062   3.385   9.171 -0.4668  0.0676 -0.2499
  292MOL0     H38498   2.817   3.369   9.221  2.8795 -0.3118 -0.2969
  292MOL0     H38499   2.783   3.534   9.147 -0.7423 -1.1401 -0.7244
  292MOL0     H38500   2.710   3.590   9.394 -0.8545 -0.1371  0.8777
  292MOL0     H38501   2.752   3.425   9.439 -1.8235  0.1387  1.7492
  292MOL0     H38502   2.550   3.446   9.211 -0.2642  0.3043  0.2591
  292MOL0     H38503   2.584   3.309   9.311 -1.6708  0.6074 -3.1332
  292MOL0     H38504   2.463   3.541   9.462 -1.5937  0.5174 -1.9344
  292MOL0     H38505   2.477   3.369   9.499 -0.5242  2.2432  1.7775
  292MOL0     H38506   2.151   3.264   9.475 -0.4629 -0.3453  2.3301
  292MOL0     H38507   1.931   3.328   9.543 -0.4421  0.6969  2.0091
  292MOL0     H38508   1.651   3.693   9.766 -1.0919  0.5268  0.3467
  292MOL0     H38509   1.422   3.711   9.860  2.5550  0.1769  0.9164
  292MOL0     H38510   1.188   3.711   9.896 -0.3792  0.2217  1.9213
  292MOL0     H38511   1.218   3.553   9.975  0.7603 -0.6925 -0.8051
  292MOL0     H38512   0.992   3.469   9.888 -1.1075  0.2924 -1.2277
  292MOL0     H38513   0.949   3.631   9.862 -1.1362 -2.0768  0.4198
  292MOL0     H38514   1.013   3.703  10.073  1.3195 -0.8623  0.3559
  292MOL0     H38515   1.065   3.547  10.135  0.9986 -1.7364 -1.2304
  292MOL0     H38516   0.788   3.610  10.021  0.7419  0.9268 -0.0157
  292MOL0     H38517   0.819   3.455  10.096 -1.2230  0.1741 -0.2903
  292MOL0     H38518   0.813   3.724  10.229 -2.8960  1.2622  0.4526
  292MOL0     H38519   0.885   3.578  10.302  0.3185  3.3752  0.2409
  292MOL0     H38520   0.645   3.453  10.270 -0.9926 -0.6611 -1.9394
  292MOL0     H38521   0.589   3.594  10.190  1.1222 -2.5968 -1.0509
  292MOL0     H38522   0.698   3.617  10.477  0.5596  0.4092  0.2750
  292MOL0     H38523   0.597   3.731  10.383  1.5768 -0.1940  0.9350
  292MOL0     H38524   0.473   3.596  10.548 -0.8813 -2.2154 -0.2996
  292MOL0     H38525   0.513   3.452  10.459 -3.7384 -0.2961  2.5456
  292MOL0     H38526   1.285   3.428   9.562  0.7184  0.6386 -2.7636
  292MOL0     H38527   1.534   3.417   9.478  0.0466 -3.5068  2.4656
  292MOL0     H38528   2.024   3.740   9.453 -0.1963  0.2992 -1.7642
  292MOL0     H38529   2.252   3.667   9.378  1.7532 -0.1960  1.5050
  292MOL0     H38530   4.167   3.041   8.958  1.8216 -0.0451 -1.0123
  292MOL0     H38531   4.411   3.001   8.935 -1.4020  2.0394 -1.1741
  292MOL0     H38532   4.792   3.018   9.052 -3.0996 -1.6979  3.1008
  292MOL0     H38533   5.030   3.040   8.998 -0.9263  0.5837 -0.2619
  292MOL0     H38534   5.267   3.075   9.062  2.1025 -0.0436  2.7027
  292MOL0     H38535   5.263   2.927   8.963  0.5653  0.6437 -1.5891
  292MOL0     H38536   5.491   3.021   9.027  1.6247  1.9352  2.6394
  292MOL0     H38537   5.461   2.988   9.201  2.8396  0.6200  0.4264
  292MOL0     H38538   5.467   2.769   8.998 -1.4835 -0.7815  0.4053
  292MOL0     H38539   5.441   2.750   9.167  2.6594 -1.4760  0.4107
  292MOL0     H38540   5.647   2.877   9.222 -0.3826 -1.8195  1.1149
  292MOL0     H38541   5.664   2.707   9.173 -0.7913 -0.5196 -0.2454
  292MOL0     H38542   5.903   2.980   8.936 -0.0811 -0.0409 -0.7608
  292MOL0     H38543   5.102   2.760   9.328  2.5611  1.4211 -1.3800
  292MOL0     H38544   4.842   2.759   9.366  0.1976  2.2505  0.6142
  293MOL0     O38545   3.940   7.319   6.317 -0.1913 -0.3579 -0.0139
  293MOL0     C38546   3.949   7.222   6.249  0.3313 -0.4415  0.0488
  293MOL0     O38547   4.045   7.116   6.259 -0.4320  0.1005 -0.5339
  293MOL0     C38548   4.130   7.108   6.370 -0.3627  0.0041  0.0155
  293MOL0     C38549   4.267   7.081   6.356 -0.1198  0.1747  0.2076
  293MOL0     C38550   4.352   7.073   6.463  0.1201  0.5366 -0.2474
  293MOL0     C38551   4.304   7.083   6.593  0.6197 -0.5300 -1.0976
  293MOL0     O38552   4.400   7.079   6.697  0.0994 -0.0389 -0.4568
  293MOL0     C38553   4.389   7.162   6.810 -0.8777  0.2226 -0.3813
  293MOL0     C38554   4.498   7.117   6.917 -0.6688  0.3768 -0.3401
  293MOL0     C38555   4.540   7.207   7.029 -0.6506  0.5464  0.4115
  293MOL0     C38556   4.428   7.255   7.124 -0.3992  0.0800 -0.4310
  293MOL0     C38557   4.470   7.328   7.255  0.4294  0.0272 -0.2682
  293MOL0     C38558   4.587   7.263   7.333 -0.0529  0.1178 -0.1528
  293MOL0     C38559   4.550   7.118   7.375 -0.2295  0.6170  0.0457
  293MOL0     C38560   4.614   7.081   7.511 -0.0891  1.2772  0.3772
  293MOL0     N38561   4.531   7.121   7.632 -0.1054 -0.2646  0.2677
  293MOL0     C38562   4.440   7.043   7.710 -0.0224 -0.9801 -0.5694
  293MOL0     C38563   4.383   7.142   7.785 -0.4879  0.2231 -0.8384
  293MOL0     C38564   4.288   7.121   7.905 -0.2255  0.1268 -0.0629
  293MOL0     C38565   4.171   7.221   7.914  0.7310  0.0311 -0.5275
  293MOL0     C38566   4.058   7.200   7.807  0.1228  0.2265 -0.8315
  293MOL0     C38567   3.934   7.297   7.835 -0.3795  0.0431  0.0488
  293MOL0     O38568   3.920   7.391   7.732  0.4390 -0.4045 -0.4683
  293MOL0     C38569   3.800   7.464   7.742  0.4731  0.2768 -0.1539
  293MOL0     C38570   3.740   7.517   7.856 -0.1034 -0.3652 -0.4603
  293MOL0     C38571   3.617   7.594   7.852 -0.4168 -0.1885 -0.1241
  293MOL0     C38572   3.569   7.631   7.724 -0.1926 -0.9338 -0.0255
  293MOL0     C38573   3.439   7.681   7.717  0.7181  0.0965 -0.3233
  293MOL0     O38574   3.381   7.685   7.598  0.2589 -0.5202  0.2561
  293MOL0     C38575   3.249   7.722   7.598 -0.1017 -0.2325  0.9402
  293MOL0     C38576   3.150   7.626   7.617  0.2553  0.1433 -0.2869
  293MOL0     C38577   3.013   7.655   7.629 -0.0312 -0.5242  0.0495
  293MOL0     C38578   2.974   7.789   7.604  1.0142 -0.2018  0.5013
  293MOL0     O38579   2.837   7.820   7.597  0.2554  0.3865 -0.2936
  293MOL0     C38580   2.753   7.721   7.539  0.9425 -0.5629 -0.1205
  293MOL0     C38581   2.629   7.799   7.487 -0.4314 -0.4111 -0.9100
  293MOL0     C38582   2.553   7.717   7.389  0.2960  0.4719  0.2459
  293MOL0     C38583   2.437   7.799   7.324  0.8970 -0.0358  0.2764
  293MOL0     C38584   2.322   7.714   7.275  0.0131 -0.9044 -0.3540
  293MOL0     C38585   2.221   7.797   7.193  0.7960 -0.8983  0.2986
  293MOL0     C38586   2.265   7.842   7.049 -0.3406 -0.4899  0.5382
  293MOL0     C38587   2.150   7.892   6.969  0.3671  0.9111  0.8404
  293MOL0    Cl38588   2.066   8.034   7.045  0.2851 -0.0149 -0.2682
  293MOL0     C38589   3.073   7.886   7.566 -0.0004  0.0964 -0.4180
  293MOL0     C38590   3.209   7.858   7.568  0.9183 -0.3661 -0.9295
  293MOL0     O38591   3.387   7.722   7.825  0.0608  0.1956 -0.1143
  293MOL0     C38592   3.637   7.584   7.611  0.3089 -0.3433  0.1044
  293MOL0     C38593   3.746   7.505   7.620 -0.0790  0.0629 -0.7156
  293MOL0     N38594   4.456   7.262   7.775  0.2146 -0.4770 -0.4812
  293MOL0     N38595   4.544   7.251   7.682 -0.2488 -0.3641 -0.3805
  293MOL0     C38596   4.166   7.107   6.613  0.8389 -0.0196 -1.6026
  293MOL0     C38597   4.080   7.130   6.499  0.5305  0.1082 -0.4190
  293MOL0     C38598   3.848   7.214   6.144 -0.1107  0.8554  0.5540
  293MOL0     C38599   3.730   7.292   6.135 -0.4981  0.3426  0.6414
  293MOL0     C38600   3.645   7.283   6.023 -0.0956  0.4425 -0.0815
  293MOL0     C38601   3.671   7.202   5.913  0.0329 -0.4016 -0.0159
  293MOL0     O38602   3.577   7.196   5.816  0.4264  0.3452  0.7117
  293MOL0     C38603   3.587   7.091   5.723  0.3380  0.8873 -0.1690
  293MOL0     C38604   3.475   7.102   5.612  0.3341  0.1345  1.3599
  293MOL0     C38605   3.506   7.008   5.483 -0.1232  0.0541  0.2254
  293MOL0     C38606   3.520   6.855   5.496  0.3339  0.1172 -0.6516
  293MOL0     C38607   3.616   6.806   5.602 -0.3746 -0.0492 -0.2857
  293MOL0     C38608   3.675   6.752   5.699  0.6426  1.1916  0.0589
  293MOL0     C38609   3.788   7.123   5.922  0.5181  0.5349  0.0601
  293MOL0     C38610   3.877   7.127   6.035 -0.5172  0.1251 -0.1275
  293MOL0     H38611   4.290   7.078   6.250 -4.2864 -0.5310 -0.8572
  293MOL0     H38612   4.456   7.052   6.440  0.4836  1.9610  0.0014
  293MOL0     H38613   4.296   7.141   6.864  0.7444 -0.0310  2.5556
  293MOL0     H38614   4.409   7.269   6.794  2.0360 -0.3003 -0.7659
  293MOL0     H38615   4.590   7.103   6.860  0.2945  0.7905  1.0744
  293MOL0     H38616   4.463   7.019   6.951 -1.2885  0.3918 -0.9086
  293MOL0     H38617   4.583   7.302   6.996  0.4808 -0.5295 -1.3890
  293MOL0     H38618   4.619   7.154   7.083 -1.0851  0.5780  1.0927
  293MOL0     H38619   4.359   7.314   7.063  1.3958  0.9228 -1.7249
  293MOL0     H38620   4.374   7.169   7.163 -1.2629  0.5993 -0.4432
  293MOL0     H38621   4.393   7.353   7.328  1.1593  2.0912 -0.1346
  293MOL0     H38622   4.523   7.419   7.223  1.8914 -0.1958  1.3845
  293MOL0     H38623   4.622   7.324   7.417  0.3934 -0.6238  0.2077
  293MOL0     H38624   4.672   7.243   7.267 -1.5134  1.3354 -2.5584
  293MOL0     H38625   4.442   7.100   7.374 -0.0670 -0.6029 -2.0465
  293MOL0     H38626   4.590   7.044   7.305  0.9573  1.4706 -0.1992
  293MOL0     H38627   4.715   7.120   7.524  1.3185 -1.7001 -0.4686
  293MOL0     H38628   4.628   6.972   7.514 -0.3763  1.2459  0.6405
  293MOL0     H38629   4.413   6.938   7.704  0.2335 -1.0445 -0.5818
  293MOL0     H38630   4.346   7.115   7.998  2.1406  0.4832 -1.4193
  293MOL0     H38631   4.238   7.025   7.889 -0.2264 -0.1081  1.2558
  293MOL0     H38632   4.211   7.323   7.912 -1.2895  0.9607  1.8335
  293MOL0     H38633   4.135   7.219   8.017 -2.0327  0.2455 -1.4086
  293MOL0     H38634   4.103   7.193   7.707  0.8991 -2.9027 -0.3629
  293MOL0     H38635   4.030   7.095   7.822  0.3929  0.2459 -0.1751
  293MOL0     H38636   3.947   7.346   7.932 -0.5934  1.6304 -0.6875
  293MOL0     H38637   3.846   7.232   7.836  0.2506 -0.9679 -2.1962
  293MOL0     H38638   3.781   7.501   7.955 -1.7854 -1.5749  0.1039
  293MOL0     H38639   3.574   7.640   7.941 -0.3645  0.6226 -0.5090
  293MOL0     H38640   3.163   7.523   7.648  0.3910  0.0848 -0.5437
  293MOL0     H38641   2.943   7.577   7.659  0.4266 -0.6970  0.6965
  293MOL0     H38642   2.731   7.642   7.612 -1.7837 -0.5182 -0.7577
  293MOL0     H38643   2.804   7.666   7.459  2.0852 -2.5868  1.8594
  293MOL0     H38644   2.654   7.897   7.446  2.1798 -0.1480  1.0509
  293MOL0     H38645   2.557   7.822   7.566 -0.7327 -0.2609 -1.2245
  293MOL0     H38646   2.502   7.638   7.445  1.7887 -1.6269 -1.1744
  293MOL0     H38647   2.627   7.673   7.322  2.9698  2.2351  1.8687
  293MOL0     H38648   2.382   7.860   7.396 -1.8063 -1.4519 -0.4533
  293MOL0     H38649   2.473   7.854   7.237 -1.2184  2.0472  0.6066
  293MOL0     H38650   2.278   7.682   7.370  1.8365  0.3319  0.9840
  293MOL0     H38651   2.352   7.632   7.209 -1.1834 -2.0095  0.4460
  293MOL0     H38652   2.201   7.881   7.259 -1.8432 -1.7576  0.7110
  293MOL0     H38653   2.129   7.739   7.183  0.3555 -0.5998  2.2355
  293MOL0     H38654   2.346   7.915   7.051 -0.4704 -0.3627  1.3948
  293MOL0     H38655   2.304   7.751   7.002 -1.6713 -1.1457  0.6543
  293MOL0     H38656   2.070   7.818   6.955  1.9959 -0.6234 -0.7341
  293MOL0     H38657   2.186   7.923   6.871  0.4279 -2.1192 -0.1929
  293MOL0     H38658   3.042   7.975   7.513 -1.0616 -1.3885 -2.4053
  293MOL0     H38659   3.269   7.939   7.527 -0.2928  0.5264 -0.9749
  293MOL0     H38660   3.599   7.595   7.510  0.6289  1.6254  0.1490
  293MOL0     H38661   3.799   7.471   7.531  0.0857  1.8524 -1.3388
  293MOL0     H38662   4.128   7.115   6.714  1.5319  0.2296 -1.3584
  293MOL0     H38663   3.975   7.135   6.525  0.8979 -1.5304  1.6673
  293MOL0     H38664   3.712   7.366   6.212  1.1516  0.9499  0.4768
  293MOL0     H38665   3.557   7.347   6.019 -0.6390 -0.2359  0.9257
  293MOL0     H38666   3.570   6.997   5.777  0.4740 -0.0130 -1.6567
  293MOL0     H38667   3.686   7.090   5.677 -1.1902  0.3331 -3.7394
  293MOL0     H38668   3.377   7.068   5.646  0.7424 -2.4188  0.2086
  293MOL0     H38669   3.471   7.204   5.574 -0.7496  0.0281  1.1688
  293MOL0     H38670   3.594   7.039   5.426 -0.1235  0.2868  0.3486
  293MOL0     H38671   3.415   7.012   5.424  0.8047 -1.1451 -1.3481
  293MOL0     H38672   3.418   6.821   5.518  0.5982 -2.4589 -2.8788
  293MOL0     H38673   3.542   6.816   5.397  0.0187 -0.8589 -0.3512
  293MOL0     H38674   3.731   6.691   5.767  0.6161 -1.6512 -2.2698
  293MOL0     H38675   3.804   7.040   5.854 -3.7742 -1.4475  1.1235
  293MOL0     H38676   3.963   7.062   6.041  0.4394  1.4255  1.0771
  294MOL0     O38677   5.134   7.236   6.650  0.1344 -0.0029  0.1950
  294MOL0     C38678   5.110   7.162   6.554  0.1704 -0.3326  0.2553
  294MOL0     O38679   5.140   7.025   6.545  0.7154 -0.0386 -0.6145
  294MOL0     C38680   5.259   6.982   6.607 -0.1355  0.6410  0.7295
  294MOL0     C38681   5.258   6.866   6.687  0.5189  0.0421  0.1817
  294MOL0     C38682   5.374   6.810   6.748 -1.1034 -0.1164  0.5003
  294MOL0     C38683   5.494   6.885   6.730  0.3030  0.2500  0.6426
  294MOL0     O38684   5.598   6.829   6.795 -0.3296  0.7354 -0.4711
  294MOL0     C38685   5.717   6.915   6.810 -0.2489  0.1265 -0.5421
  294MOL0     C38686   5.799   6.865   6.921  0.2638 -0.1701  0.0253
  294MOL0     C38687   5.939   6.935   6.918  0.1704  0.3211  0.3970
  294MOL0     C38688   6.030   6.861   7.018 -0.0436 -0.5773 -0.2283
  294MOL0     C38689   6.174   6.917   7.020 -1.5999  0.0944  0.4145
  294MOL0     C38690   6.273   6.811   7.067  0.1930 -0.0553  0.8328
  294MOL0     C38691   6.416   6.869   7.081  0.3130  0.2095  0.2931
  294MOL0     C38692   6.528   6.787   7.148  0.2123  0.2436 -0.7000
  294MOL0     N38693   6.510   6.644   7.111  0.0969 -0.3171  0.2359
  294MOL0     C38694   6.506   6.601   6.983 -0.4003  0.9183 -0.5929
  294MOL0     C38695   6.437   6.489   6.981  0.1693  0.9169 -0.0898
  294MOL0     C38696   6.405   6.400   6.869  1.3402  0.2282  0.1286
  294MOL0     C38697   6.279   6.448   6.803  0.7853 -0.5317  0.7086
  294MOL0     C38698   6.154   6.383   6.862  0.4064  0.5596  0.2409
  294MOL0     C38699   6.022   6.452   6.811 -0.1662 -0.0734  0.6744
  294MOL0     O38700   5.997   6.426   6.668 -0.1303 -0.4036 -0.4834
  294MOL0     C38701   5.877   6.465   6.601 -0.4597  0.4245  0.7399
  294MOL0     C38702   5.873   6.448   6.459 -0.9781  0.1042  0.0193
  294MOL0     C38703   5.753   6.467   6.391 -0.0434 -0.5158 -0.5308
  294MOL0     C38704   5.629   6.495   6.463  0.0286  0.2542  0.4347
  294MOL0     C38705   5.495   6.499   6.392 -0.8762 -0.2126  0.3333
  294MOL0     O38706   5.390   6.525   6.470 -0.5689  0.1062  0.0594
  294MOL0     C38707   5.270   6.490   6.418  0.0525 -0.0766  0.2617
  294MOL0     C38708   5.173   6.590   6.413  0.0733 -0.2403  0.4015
  294MOL0     C38709   5.044   6.564   6.368 -0.4865 -0.1998  0.9058
  294MOL0     C38710   5.001   6.435   6.339  0.1575 -0.5117  0.9678
  294MOL0     O38711   4.873   6.414   6.294  0.2568  0.2026  0.2722
  294MOL0     C38712   4.811   6.295   6.331  0.0573  0.3685 -0.3150
  294MOL0     C38713   4.659   6.309   6.339 -0.2275  0.5091 -0.1886
  294MOL0     C38714   4.602   6.359   6.206 -0.2900  0.1302 -0.2783
  294MOL0     C38715   4.445   6.343   6.217  0.6971  0.0347 -0.7365
  294MOL0     C38716   4.375   6.418   6.109  0.1242  0.0762  0.7861
  294MOL0     C38717   4.409   6.381   5.965 -0.0616 -0.3120 -0.0601
  294MOL0     C38718   4.400   6.232   5.933  0.2866 -1.0052  0.3638
  294MOL0     C38719   4.392   6.207   5.786 -0.5539 -0.2619 -0.3008
  294MOL0    Cl38720   4.551   6.241   5.709  0.2191 -0.3829 -0.4425
  294MOL0     C38721   5.099   6.342   6.340  0.5931  0.2718  0.0890
  294MOL0     C38722   5.233   6.360   6.386 -0.0314  0.3359  0.0578
  294MOL0     O38723   5.485   6.481   6.269  0.0092  0.5386 -0.9361
  294MOL0     C38724   5.637   6.525   6.599  0.0194  0.6207 -0.2368
  294MOL0     C38725   5.761   6.497   6.669  0.3907  0.6257 -0.1345
  294MOL0     N38726   6.401   6.459   7.112 -0.0656  0.4810 -0.3750
  294MOL0     N38727   6.434   6.555   7.185 -0.5555  1.0148 -0.7121
  294MOL0     C38728   5.499   6.999   6.646 -0.1694 -0.2174  0.6233
  294MOL0     C38729   5.380   7.044   6.584 -0.2728 -0.1451 -0.1267
  294MOL0     C38730   5.029   7.213   6.443  0.1193  0.3145  0.3994
  294MOL0     C38731   4.971   7.339   6.461  0.8160 -0.9240 -0.0787
  294MOL0     C38732   4.896   7.401   6.358 -0.1253 -0.7138  0.5587
  294MOL0     C38733   4.853   7.323   6.241  0.2214  0.3524 -0.0603
  294MOL0     O38734   4.758   7.387   6.162 -0.2909 -0.5857  0.0897
  294MOL0     C38735   4.701   7.315   6.057 -0.2179 -0.1932 -0.8804
  294MOL0     C38736   4.580   7.401   6.018  0.4490 -0.2226 -0.1938
  294MOL0     C38737   4.500   7.346   5.902 -0.8336 -0.4539 -0.7755
  294MOL0     C38738   4.382   7.437   5.872 -0.1014 -0.0365  0.6597
  294MOL0     C38739   4.316   7.382   5.752  0.5146  0.0146  0.2829
  294MOL0     C38740   4.249   7.341   5.656 -0.3168 -0.6133 -0.1882
  294MOL0     C38741   4.907   7.199   6.228  0.2977 -0.3245  0.4585
  294MOL0     C38742   5.004   7.152   6.321 -0.8818 -0.5454  0.6038
  294MOL0     H38743   5.171   6.803   6.706  0.6907  0.4690  2.8473
  294MOL0     H38744   5.353   6.717   6.800  0.9192  0.4088  2.3895
  294MOL0     H38745   5.690   7.017   6.838 -0.2720 -0.1167  0.3622
  294MOL0     H38746   5.775   6.913   6.717 -0.8314 -0.1310 -0.9119
  294MOL0     H38747   5.810   6.756   6.911 -0.1972 -0.7235  3.9203
  294MOL0     H38748   5.748   6.884   7.016  0.3412  1.5068 -0.2476
  294MOL0     H38749   5.933   7.041   6.944  1.7608  0.8430 -1.1591
  294MOL0     H38750   5.972   6.930   6.813 -3.3840  1.2173 -0.9124
  294MOL0     H38751   5.992   6.885   7.118  1.8314 -1.9683  0.8906
  294MOL0     H38752   6.027   6.753   7.002  1.6828 -0.3293 -2.9107
  294MOL0     H38753   6.188   6.995   7.095 -0.0724 -0.4842  0.7771
  294MOL0     H38754   6.207   6.950   6.921  2.3109  5.5719  3.0318
  294MOL0     H38755   6.277   6.734   6.988  1.2085 -0.3266  1.1262
  294MOL0     H38756   6.228   6.769   7.157 -2.6969  0.2231 -0.3679
  294MOL0     H38757   6.443   6.899   6.980  3.9552 -0.4172  0.9518
  294MOL0     H38758   6.407   6.960   7.141  0.6762 -0.7248  1.8191
  294MOL0     H38759   6.511   6.814   7.252  3.7090  0.4386 -0.0530
  294MOL0     H38760   6.629   6.823   7.126  0.6979  0.2902  1.3873
  294MOL0     H38761   6.546   6.660   6.901 -2.9722 -1.2642 -3.6868
  294MOL0     H38762   6.392   6.298   6.907  2.7031 -0.6509 -1.6249
  294MOL0     H38763   6.495   6.390   6.807  0.9691 -1.2915 -0.2034
  294MOL0     H38764   6.275   6.434   6.694  0.7516  3.2828  0.0920
  294MOL0     H38765   6.270   6.555   6.822 -3.1015 -0.6557  0.2068
  294MOL0     H38766   6.139   6.281   6.824  0.4856  0.4867  0.4026
  294MOL0     H38767   6.172   6.376   6.970  1.3181  1.4958  0.1575
  294MOL0     H38768   6.020   6.559   6.835  0.6092  0.3597 -1.1025
  294MOL0     H38769   5.940   6.404   6.866 -0.2591 -1.7486 -0.8454
  294MOL0     H38770   5.969   6.431   6.411  0.6522 -2.5343  3.6827
  294MOL0     H38771   5.736   6.446   6.286  3.0621  0.3070 -1.3070
  294MOL0     H38772   5.208   6.691   6.433  1.8993 -1.3653  3.7087
  294MOL0     H38773   4.974   6.643   6.344 -2.8788 -2.9646 -2.2447
  294MOL0     H38774   4.836   6.277   6.436 -2.2989 -0.9527  0.0974
  294MOL0     H38775   4.828   6.207   6.268 -0.6324 -0.0072  0.0149
  294MOL0     H38776   4.614   6.363   6.422 -0.6729 -0.0898 -0.0388
  294MOL0     H38777   4.624   6.208   6.363  4.1223 -0.7369  1.8696
  294MOL0     H38778   4.633   6.304   6.117  1.2592  1.2109 -0.4333
  294MOL0     H38779   4.616   6.466   6.188 -2.9937  0.3831 -1.3727
  294MOL0     H38780   4.422   6.237   6.204  1.9830 -0.2102 -1.2275
  294MOL0     H38781   4.416   6.379   6.317  0.3530 -2.2875  0.0664
  294MOL0     H38782   4.397   6.525   6.114  0.0296  0.2624 -1.4606
  294MOL0     H38783   4.267   6.403   6.120  0.0694 -4.8691 -2.9000
  294MOL0     H38784   4.507   6.423   5.939 -0.3835 -0.5693 -1.8426
  294MOL0     H38785   4.341   6.440   5.903  1.0825  0.3724 -0.7106
  294MOL0     H38786   4.487   6.171   5.958  2.3687  0.3847 -2.8232
  294MOL0     H38787   4.314   6.188   5.984 -0.8240 -1.0437 -1.4581
  294MOL0     H38788   4.317   6.262   5.728 -0.2154 -2.1234 -2.6486
  294MOL0     H38789   4.369   6.102   5.769 -4.0586  0.1162  1.2055
  294MOL0     H38790   5.069   6.242   6.313  0.4859  0.0059  1.1405
  294MOL0     H38791   5.309   6.283   6.377  0.2181  0.3827  1.4747
  294MOL0     H38792   5.552   6.551   6.661  0.0540  0.0454  0.0550
  294MOL0     H38793   5.760   6.495   6.777 -1.3054 -0.8712 -0.1371
  294MOL0     H38794   5.590   7.055   6.627 -0.6775 -0.2145 -2.3968
  294MOL0     H38795   5.406   7.128   6.520  0.3522  0.1884  0.5517
  294MOL0     H38796   4.996   7.402   6.545 -1.3325  0.7567 -0.6092
  294MOL0     H38797   4.848   7.498   6.359 -0.6792 -0.9680 -0.4900
  294MOL0     H38798   4.664   7.220   6.094 -0.5581  0.3294  0.1618
  294MOL0     H38799   4.775   7.291   5.980 -0.5385 -4.7689  0.0028
  294MOL0     H38800   4.511   7.414   6.101  0.2238  1.2153 -0.5762
  294MOL0     H38801   4.623   7.500   5.998 -0.2091 -0.2167 -1.7421
  294MOL0     H38802   4.465   7.249   5.939  2.4928 -0.8684  1.7916
  294MOL0     H38803   4.561   7.326   5.813 -0.1726 -0.0359 -0.4244
  294MOL0     H38804   4.311   7.429   5.955 -1.0352  0.7216 -0.0389
  294MOL0     H38805   4.414   7.538   5.847  1.1546 -0.7016 -0.6083
  294MOL0     H38806   4.191   7.297   5.578  2.1312 -2.2765 -1.1845
  294MOL0     H38807   4.875   7.134   6.146 -1.6261  0.2793  0.6826
  294MOL0     H38808   5.055   7.060   6.292  0.4704  0.3845 -0.0874
  295MOL0     O38809   5.341   2.045   6.729  0.5989  0.0541  0.0458
  295MOL0     C38810   5.267   2.133   6.686  0.1203  0.2997  0.7673
  295MOL0     O38811   5.303   2.257   6.629  0.0808  0.2639  0.5600
  295MOL0     C38812   5.433   2.284   6.593 -0.4742 -0.1052 -0.0046
  295MOL0     C38813   5.509   2.190   6.522  0.1262  0.3060  0.2495
  295MOL0     C38814   5.641   2.198   6.497 -0.0821  0.4076  0.1247
  295MOL0     C38815   5.708   2.308   6.537  0.1736  0.2775 -0.1407
  295MOL0     O38816   5.838   2.299   6.502  1.2025 -0.5082  0.0962
  295MOL0     C38817   5.906   2.427   6.485 -0.0371  0.9560 -0.4560
  295MOL0     C38818   6.039   2.413   6.414 -0.6327 -0.4349  0.0266
  295MOL0     C38819   6.085   2.549   6.354  0.9594  0.0346  0.2184
  295MOL0     C38820   6.226   2.533   6.304 -0.3413 -0.4588  0.5206
  295MOL0     C38821   6.296   2.666   6.260  0.3492  0.9440 -0.4288
  295MOL0     C38822   6.429   2.632   6.199 -0.0280 -0.1404 -0.0792
  295MOL0     C38823   6.540   2.582   6.299  1.2885 -0.3659 -1.2171
  295MOL0     C38824   6.680   2.567   6.234 -0.3673 -0.0619 -0.9826
  295MOL0     N38825   6.791   2.547   6.325  0.1088  0.5320 -0.4291
  295MOL0     C38826   6.848   2.650   6.385 -0.2000  0.1293 -0.3204
  295MOL0     C38827   6.939   2.593   6.471 -0.0125 -0.4019 -0.0055
  295MOL0     C38828   7.031   2.660   6.570 -0.4870  0.2072  0.2177
  295MOL0     C38829   7.178   2.623   6.540 -0.2100 -0.4410  0.6349
  295MOL0     C38830   7.282   2.690   6.642  0.9246  0.0821  0.0071
  295MOL0     C38831   7.410   2.614   6.638  0.0114 -0.3142  0.6802
  295MOL0     O38832   7.495   2.663   6.747  0.0580  0.2026 -0.4749
  295MOL0     C38833   7.635   2.657   6.743  0.4685 -0.2253  0.7539
  295MOL0     C38834   7.709   2.550   6.679  0.4283 -0.3216  0.5420
  295MOL0     C38835   7.855   2.553   6.679 -0.4029 -0.0285  0.3548
  295MOL0     C38836   7.926   2.657   6.726 -0.2821 -0.3070  0.3255
  295MOL0     C38837   8.071   2.662   6.724 -0.3365 -0.2673 -0.6765
  295MOL0     O38838   8.136   2.774   6.788 -0.0376  0.2348  0.1820
  295MOL0     C38839   8.273   2.775   6.796 -0.1574 -0.2423  1.1622
  295MOL0     C38840   8.356   2.674   6.859  0.3351 -0.0160  0.8272
  295MOL0     C38841   8.492   2.696   6.866 -0.0429  0.1549  0.1551
  295MOL0     C38842   8.559   2.805   6.797  0.3196 -0.1708 -0.9776
  295MOL0     O38843   8.689   2.825   6.784 -0.0310 -0.6822  0.8681
  295MOL0     C38844   8.775   2.715   6.811 -0.5474 -0.5094  0.3250
  295MOL0     C38845   8.894   2.764   6.730 -0.4835  0.4862  0.2557
  295MOL0     C38846   9.022   2.687   6.759  0.3643  0.3573  0.2257
  295MOL0     C38847   9.128   2.706   6.638  0.0984 -0.5261  0.0565
  295MOL0     C38848   9.264   2.625   6.666  0.8360 -0.0916  0.5401
  295MOL0     C38849   9.350   2.647   6.540 -0.1583 -0.0917 -0.2242
  295MOL0     C38850   9.475   2.558   6.555  0.8797 -0.3021  0.1594
  295MOL0     C38851   9.561   2.559   6.439  0.0687 -1.1213 -0.2936
  295MOL0    Cl38852   9.702   2.443   6.452  0.1260  0.3876  0.1472
  295MOL0     C38853   8.479   2.897   6.740 -0.6190 -0.0101  0.3429
  295MOL0     C38854   8.339   2.891   6.741  0.6265  0.2755 -0.1639
  295MOL0     O38855   8.132   2.579   6.660 -0.0817  0.2070  0.4581
  295MOL0     C38856   7.855   2.774   6.773 -0.8924 -0.5932  0.0593
  295MOL0     C38857   7.711   2.769   6.784  0.2341  0.0101 -0.1622
  295MOL0     N38858   6.929   2.453   6.453 -0.5620 -0.4559  0.8803
  295MOL0     N38859   6.833   2.431   6.370  0.5186 -0.1998 -0.2886
  295MOL0     C38860   5.639   2.413   6.602  0.5030  0.2163 -0.0436
  295MOL0     C38861   5.496   2.406   6.633 -0.5879 -0.3044  0.0123
  295MOL0     C38862   5.121   2.107   6.691  0.5123  0.6366  0.0635
  295MOL0     C38863   5.067   1.984   6.729 -1.0533 -0.2072 -0.4255
  295MOL0     C38864   4.938   1.948   6.729  0.4913  0.1870  0.0773
  295MOL0     C38865   4.843   2.043   6.687 -0.2330  0.1409  0.4739
  295MOL0     O38866   4.716   2.002   6.676 -0.0513 -0.1108  0.3769
  295MOL0     C38867   4.609   2.073   6.613  0.1323 -0.4934  0.0953
  295MOL0     C38868   4.487   1.984   6.593 -0.2397  0.8289  0.3351
  295MOL0     C38869   4.406   2.048   6.479 -0.0626  0.0813 -0.6582
  295MOL0     C38870   4.261   1.985   6.456 -0.1891  0.2476 -0.0449
  295MOL0     C38871   4.203   1.967   6.591  0.6680 -0.3585  0.5461
  295MOL0     C38872   4.146   1.953   6.698 -0.2921 -0.3510  0.1226
  295MOL0     C38873   4.886   2.178   6.664  0.6298 -0.6792 -0.2190
  295MOL0     C38874   5.023   2.201   6.670 -0.6805  0.7657  0.7317
  295MOL0     H38875   5.461   2.100   6.484  1.4685  0.7732 -2.8866
  295MOL0     H38876   5.695   2.132   6.431 -0.2809  0.5083 -0.1386
  295MOL0     H38877   5.913   2.478   6.581 -2.5361 -1.9914  1.5034
  295MOL0     H38878   5.836   2.478   6.419 -1.3049 -1.1780 -0.8735
  295MOL0     H38879   6.033   2.342   6.331 -0.0994 -0.4404 -0.0158
  295MOL0     H38880   6.118   2.372   6.478 -0.0311 -0.9134 -0.9890
  295MOL0     H38881   6.070   2.616   6.440 -2.7631  0.1940 -0.3782
  295MOL0     H38882   6.022   2.584   6.272  3.0258 -1.4041 -2.0943
  295MOL0     H38883   6.287   2.489   6.384  0.5540  1.2463  0.8462
  295MOL0     H38884   6.222   2.459   6.224  0.0902  0.4322 -0.3491
  295MOL0     H38885   6.309   2.735   6.344 -1.4068  0.2203  0.4854
  295MOL0     H38886   6.236   2.717   6.184 -2.8727  1.0480  1.9487
  295MOL0     H38887   6.472   2.724   6.159  0.4559  0.1919  1.1739
  295MOL0     H38888   6.410   2.562   6.117  1.0862 -0.4111 -0.1094
  295MOL0     H38889   6.547   2.652   6.382 -0.4184 -2.8914  1.2293
  295MOL0     H38890   6.496   2.491   6.342  1.6304  0.0168 -0.0233
  295MOL0     H38891   6.697   2.662   6.182  2.1432  0.8351  1.2443
  295MOL0     H38892   6.676   2.486   6.162  2.2113 -0.7701 -0.4177
  295MOL0     H38893   6.833   2.757   6.372  2.0036  0.5255  0.0903
  295MOL0     H38894   7.001   2.628   6.670  3.2761  1.1382  1.7994
  295MOL0     H38895   7.025   2.767   6.552  1.4818  0.1301 -1.2254
  295MOL0     H38896   7.202   2.671   6.445 -1.3632 -0.5183  0.2923
  295MOL0     H38897   7.187   2.514   6.532 -0.8452 -0.4870  0.5333
  295MOL0     H38898   7.299   2.796   6.623 -0.1190  0.1416 -0.6984
  295MOL0     H38899   7.250   2.692   6.746  0.9936 -2.5173  0.1422
  295MOL0     H38900   7.457   2.618   6.539 -3.8513 -4.2557 -1.6813
  295MOL0     H38901   7.388   2.508   6.654  1.0596 -1.0366 -2.1446
  295MOL0     H38902   7.652   2.472   6.630  0.9503 -2.4149  3.0611
  295MOL0     H38903   7.898   2.468   6.626 -1.0787 -0.1957  0.0550
  295MOL0     H38904   8.311   2.587   6.907  1.5434 -0.1374  1.7810
  295MOL0     H38905   8.550   2.619   6.915  2.8267  1.9353 -0.2311
  295MOL0     H38906   8.758   2.617   6.765 -0.2313  0.7257 -2.6238
  295MOL0     H38907   8.805   2.704   6.916 -4.3717 -1.0762  1.4852
  295MOL0     H38908   8.917   2.863   6.769  1.6000 -0.1126  0.6777
  295MOL0     H38909   8.878   2.760   6.622  2.4829 -0.8047 -0.2477
  295MOL0     H38910   8.993   2.582   6.774 -0.2765  0.5368  0.2688
  295MOL0     H38911   9.060   2.724   6.855  0.5950 -2.0775  1.1633
  295MOL0     H38912   9.091   2.684   6.537  3.9199  1.1088 -1.8973
  295MOL0     H38913   9.149   2.811   6.619  4.8220 -1.6893 -2.8056
  295MOL0     H38914   9.243   2.518   6.676 -1.7954  0.3944  1.0721
  295MOL0     H38915   9.312   2.662   6.757 -0.5839  1.1834  0.8153
  295MOL0     H38916   9.369   2.754   6.527  0.4615 -0.2990 -1.1666
  295MOL0     H38917   9.295   2.622   6.448 -0.4287  1.2807 -0.4530
  295MOL0     H38918   9.529   2.595   6.643 -1.1147  1.3305  0.7732
  295MOL0     H38919   9.448   2.452   6.559 -2.5374  0.4605  0.3063
  295MOL0     H38920   9.596   2.660   6.416  2.9946 -2.0449 -0.3078
  295MOL0     H38921   9.497   2.519   6.360 -1.3491  1.8603 -0.7898
  295MOL0     H38922   8.541   2.979   6.706 -0.6039  0.0503  0.5119
  295MOL0     H38923   8.278   2.973   6.702  1.3101  1.8811  1.9600
  295MOL0     H38924   7.907   2.863   6.805 -0.2870 -0.0772 -2.1851
  295MOL0     H38925   7.647   2.852   6.813  0.9232  0.7976 -0.8483
  295MOL0     H38926   5.699   2.502   6.614  0.3314  0.6709 -2.2014
  295MOL0     H38927   5.450   2.497   6.669 -0.0342 -0.3613  0.9101
  295MOL0     H38928   5.143   1.909   6.751 -2.5776 -1.7000 -0.0242
  295MOL0     H38929   4.901   1.848   6.749 -0.5660  0.8287  1.5079
  295MOL0     H38930   4.648   2.107   6.517  1.7831 -1.3976  0.4084
  295MOL0     H38931   4.572   2.153   6.677 -1.9419 -0.8383 -0.5958
  295MOL0     H38932   4.525   1.887   6.557 -1.1929  1.0315 -1.3323
  295MOL0     H38933   4.430   1.984   6.686  3.0409  4.3491  2.6223
  295MOL0     H38934   4.467   2.058   6.388  2.2683  3.6249  1.0765
  295MOL0     H38935   4.379   2.146   6.518  1.5851  1.3279 -2.4824
  295MOL0     H38936   4.200   2.043   6.386  0.0185  0.9749  0.3648
  295MOL0     H38937   4.267   1.888   6.407 -1.9084  0.5330 -0.8687
  295MOL0     H38938   4.117   1.946   6.801 -3.4995 -0.0727 -0.6671
  295MOL0     H38939   4.816   2.260   6.649  0.0318 -1.0099  0.6365
  295MOL0     H38940   5.065   2.298   6.644  3.8276 -1.2337 -0.2981
  296MOL0     O38941   8.519   4.330   9.463  0.8496  0.1887 -0.8053
  296MOL0     C38942   8.568   4.218   9.446  0.4231 -0.7390 -0.1086
  296MOL0     O38943   8.503   4.100   9.440 -0.1444  0.4576 -0.7079
  296MOL0     C38944   8.366   4.107   9.467 -0.1107 -0.7528 -0.5098
  296MOL0     C38945   8.286   4.076   9.358  0.0603 -0.1742 -0.0186
  296MOL0     C38946   8.141   4.070   9.371  0.4004 -0.4126  0.1820
  296MOL0     C38947   8.089   4.143   9.490  0.8431  1.0292 -0.4115
  296MOL0     O38948   7.950   4.155   9.513  0.6316 -0.2283  1.3319
  296MOL0     C38949   7.849   4.117   9.412  0.1219 -0.4118  0.8114
  296MOL0     C38950   7.706   4.116   9.476 -0.1736  0.3457  0.7209
  296MOL0     C38951   7.660   4.249   9.526  0.3211 -0.2680 -0.7561
  296MOL0     C38952   7.512   4.255   9.582  0.2287  0.2347 -0.6725
  296MOL0     C38953   7.400   4.207   9.489 -0.3051  0.3725 -0.1475
  296MOL0     C38954   7.268   4.242   9.552 -0.5639 -0.7595  0.5102
  296MOL0     C38955   7.150   4.258   9.454  0.4179  0.6612 -0.1232
  296MOL0     C38956   7.038   4.341   9.519  0.2444 -0.3217 -0.4067
  296MOL0     N38957   6.924   4.318   9.432  0.5885 -0.7169 -0.0507
  296MOL0     C38958   6.836   4.211   9.434  0.0175  0.1869  0.4509
  296MOL0     C38959   6.739   4.244   9.339  0.0190 -0.1746 -0.2553
  296MOL0     C38960   6.618   4.166   9.301  0.6449  0.4556  0.4176
  296MOL0     C38961   6.482   4.218   9.351  1.0331  0.8447  0.1890
  296MOL0     C38962   6.412   4.310   9.248  0.2108  0.1997  0.1253
  296MOL0     C38963   6.288   4.366   9.311 -0.2607 -0.1705  0.7506
  296MOL0     O38964   6.189   4.264   9.307  0.1745  0.1796  0.2614
  296MOL0     C38965   6.062   4.293   9.341  0.1621  0.4557 -0.1690
  296MOL0     C38966   5.980   4.179   9.354  0.0342 -1.1371 -0.1575
  296MOL0     C38967   5.843   4.190   9.386 -0.0952  0.2399  0.1102
  296MOL0     C38968   5.786   4.318   9.417 -0.4636 -0.2389 -0.2750
  296MOL0     C38969   5.636   4.324   9.452  0.1404 -0.4680  0.2971
  296MOL0     O38970   5.602   4.424   9.536  0.1992 -0.3568 -0.6117
  296MOL0     C38971   5.473   4.455   9.564 -0.5440  0.2548 -0.1608
  296MOL0     C38972   5.390   4.357   9.623 -1.0229 -0.0700 -0.0680
  296MOL0     C38973   5.253   4.384   9.631  0.1982 -0.8215 -0.1246
  296MOL0     C38974   5.197   4.508   9.598 -0.2461  0.3380  0.3338
  296MOL0     O38975   5.075   4.560   9.622 -0.1779 -0.1705 -0.6930
  296MOL0     C38976   4.957   4.473   9.600  0.3547 -0.9971  0.1001
  296MOL0     C38977   4.838   4.552   9.631  0.3777 -0.6220  0.5782
  296MOL0     C38978   4.716   4.480   9.566  0.9604 -0.9884 -0.6105
  296MOL0     C38979   4.582   4.547   9.609  0.8853 -1.1445  0.1513
  296MOL0     C38980   4.454   4.480   9.564 -0.7182 -0.1314 -0.0278
  296MOL0     C38981   4.429   4.342   9.626  0.2474 -0.0072 -0.6760
  296MOL0     C38982   4.280   4.304   9.614  0.3621 -0.7891  0.4242
  296MOL0     C38983   4.261   4.154   9.628  0.1994 -0.2802  1.3097
  296MOL0    Cl38984   4.246   4.102   9.804 -0.1368 -0.3623 -0.0777
  296MOL0     C38985   5.284   4.605   9.547 -0.1850  0.1931  0.1581
  296MOL0     C38986   5.421   4.582   9.536  0.5272  0.0376 -0.1006
  296MOL0     O38987   5.560   4.240   9.395 -0.2735 -0.0688 -0.2135
  296MOL0     C38988   5.872   4.428   9.403  0.1637 -0.0374  0.7048
  296MOL0     C38989   6.005   4.422   9.375  1.1071  0.1062  0.4807
  296MOL0     N38990   6.778   4.362   9.285  0.1630 -0.4960 -0.0896
  296MOL0     N38991   6.891   4.403   9.328 -0.4918  0.8940  0.3695
  296MOL0     C38992   8.170   4.201   9.581 -0.6537 -0.3869 -0.7791
  296MOL0     C38993   8.309   4.175   9.576  0.1235  0.3563  0.5369
  296MOL0     C38994   8.717   4.207   9.444 -0.0836 -0.0486 -0.5189
  296MOL0     C38995   8.774   4.077   9.467 -0.8321  0.7479  0.4431
  296MOL0     C38996   8.914   4.063   9.464  0.6914  0.5017 -0.8598
  296MOL0     C38997   8.994   4.175   9.446  0.0387 -0.0599  0.4327
  296MOL0     O38998   9.129   4.187   9.454 -0.7848 -0.1611  0.3207
  296MOL0     C38999   9.206   4.075   9.502  0.8878 -0.9241  0.7468
  296MOL0     C39000   9.207   4.055   9.655 -0.5500  0.3963 -0.6922
  296MOL0     C39001   9.351   3.999   9.704 -0.1457  0.1490  0.7011
  296MOL0     C39002   9.351   3.971   9.850  0.4231  0.9260 -0.2766
  296MOL0     C39003   9.488   3.933   9.890  0.2528 -0.3093 -0.0607
  296MOL0     C39004   9.603   3.922   9.913  0.2123  0.5232 -0.4208
  296MOL0     C39005   8.932   4.305   9.423 -0.3331  0.8385  0.3795
  296MOL0     C39006   8.795   4.318   9.416 -0.0047 -0.6628  0.5251
  296MOL0     H39007   8.336   4.061   9.263  0.4516 -1.4287  0.3619
  296MOL0     H39008   8.088   4.032   9.284  1.3237  2.1585 -1.6059
  296MOL0     H39009   7.877   4.019   9.371 -0.2681  0.4195 -1.5567
  296MOL0     H39010   7.842   4.184   9.326 -1.6115 -2.2170 -0.5556
  296MOL0     H39011   7.710   4.043   9.557  3.1084 -2.7394 -1.8427
  296MOL0     H39012   7.632   4.088   9.401 -1.2707  3.0722  0.6805
  296MOL0     H39013   7.676   4.334   9.459 -1.2703  0.0387 -0.7696
  296MOL0     H39014   7.734   4.268   9.605 -2.7381  4.5751  1.4116
  296MOL0     H39015   7.511   4.192   9.671 -3.7160 -1.6201 -1.7983
  296MOL0     H39016   7.491   4.356   9.618  2.1702  0.7995 -1.0315
  296MOL0     H39017   7.407   4.101   9.466 -0.6684  0.3038  0.0637
  296MOL0     H39018   7.408   4.272   9.401 -0.1188  1.7592  0.8447
  296MOL0     H39019   7.271   4.337   9.606 -0.2415  0.3886 -1.4242
  296MOL0     H39020   7.236   4.162   9.619 -2.2774 -2.3188 -1.9830
  296MOL0     H39021   7.167   4.277   9.348 -3.6893 -0.5343 -1.1775
  296MOL0     H39022   7.111   4.156   9.459  0.3188  0.6570 -0.9611
  296MOL0     H39023   7.067   4.446   9.512  2.1392 -0.3321  4.1901
  296MOL0     H39024   7.010   4.308   9.620  0.3123 -2.3337 -0.9934
  296MOL0     H39025   6.855   4.133   9.507  4.8807  1.0429  0.3864
  296MOL0     H39026   6.629   4.060   9.323  1.0864  0.4107  0.0008
  296MOL0     H39027   6.622   4.171   9.191  0.2611 -2.3671  0.1997
  296MOL0     H39028   6.500   4.264   9.448  2.1225 -1.7312  1.3026
  296MOL0     H39029   6.413   4.134   9.365 -1.4553  2.3851 -1.8468
  296MOL0     H39030   6.481   4.385   9.209  0.6857 -1.2757 -2.0430
  296MOL0     H39031   6.385   4.253   9.158 -3.6211  0.6911  0.8028
  296MOL0     H39032   6.249   4.456   9.262 -2.0914 -0.9870  0.6264
  296MOL0     H39033   6.306   4.405   9.411 -0.6397  0.2212  0.6682
  296MOL0     H39034   6.011   4.078   9.327 -0.3177 -1.1812 -0.3994
  296MOL0     H39035   5.783   4.101   9.400  2.8149 -1.9219 -0.1027
  296MOL0     H39036   5.440   4.261   9.633 -1.5676 -0.4003 -0.4905
  296MOL0     H39037   5.189   4.305   9.670 -0.8780  0.5554  0.9883
  296MOL0     H39038   4.937   4.388   9.666 -2.7000 -0.6316 -0.2204
  296MOL0     H39039   4.952   4.439   9.496  0.0402 -3.3536  0.8242
  296MOL0     H39040   4.840   4.654   9.590  0.7999 -0.7338  0.3121
  296MOL0     H39041   4.817   4.565   9.737 -1.4888 -4.0594  0.7642
  296MOL0     H39042   4.711   4.373   9.588  2.1718 -0.7501  1.0051
  296MOL0     H39043   4.716   4.488   9.457 -1.8812 -0.4254 -0.6504
  296MOL0     H39044   4.575   4.542   9.718  0.4775  1.2721  0.2710
  296MOL0     H39045   4.570   4.652   9.581  2.8488 -1.1169 -0.7609
  296MOL0     H39046   4.475   4.478   9.457  4.1839 -2.2417  0.6964
  296MOL0     H39047   4.371   4.547   9.590  0.6251  1.2692  0.8276
  296MOL0     H39048   4.453   4.330   9.732 -1.8027 -0.3208 -0.2061
  296MOL0     H39049   4.499   4.279   9.571  3.0454  1.9311  0.4457
  296MOL0     H39050   4.216   4.362   9.681  1.8983  0.3452  0.9926
  296MOL0     H39051   4.240   4.331   9.516 -0.7114  0.1009  1.0904
  296MOL0     H39052   4.343   4.100   9.580 -0.9006 -1.1679  0.3856
  296MOL0     H39053   4.162   4.134   9.586  0.5903  0.7284 -0.1853
  296MOL0     H39054   5.235   4.691   9.503 -0.3388  0.6077  1.1016
  296MOL0     H39055   5.480   4.655   9.480  0.5519 -1.8132 -2.6732
  296MOL0     H39056   5.837   4.527   9.432 -0.8132 -0.8057  2.2546
  296MOL0     H39057   6.068   4.510   9.363  2.3355 -0.5051  2.1656
  296MOL0     H39058   8.135   4.265   9.661  5.5869 -0.4991  2.7033
  296MOL0     H39059   8.367   4.214   9.659  0.2519  2.9198 -0.6409
  296MOL0     H39060   8.709   3.993   9.491 -1.9763  1.2253 -0.8343
  296MOL0     H39061   8.970   3.974   9.493  3.6750  3.4604  3.8941
  296MOL0     H39062   9.306   4.090   9.461  0.6119 -0.2946  0.2922
  296MOL0     H39063   9.171   3.981   9.458 -1.6233 -0.6539  1.9448
  296MOL0     H39064   9.202   4.146   9.716 -0.4621 -1.6283  2.5905
  296MOL0     H39065   9.119   3.998   9.684  0.5542 -0.1930  1.8112
  296MOL0     H39066   9.431   4.072   9.688  0.3216 -0.8524 -2.0068
  296MOL0     H39067   9.381   3.916   9.639 -2.4961  0.3298 -0.7185
  296MOL0     H39068   9.329   4.062   9.906 -2.0901 -0.6328  1.5320
  296MOL0     H39069   9.285   3.888   9.879 -0.4252  2.2267  1.8262
  296MOL0     H39070   9.705   3.911   9.942 -0.3887 -1.2978  1.2502
  296MOL0     H39071   8.998   4.391   9.413  1.2879  0.2237  4.1503
  296MOL0     H39072   8.753   4.415   9.390  2.1350  0.3985  0.8021
  297MOL0     O39073   2.457   0.972   8.213  0.6130  0.1100 -0.0610
  297MOL0     C39074   2.425   0.911   8.109  0.6319 -0.6136 -0.0413
  297MOL0     O39075   2.295   0.872   8.079  0.1565  0.7927  0.2076
  297MOL0     C39076   2.190   0.909   8.160  0.2708 -0.0183 -0.1424
  297MOL0     C39077   2.190   0.869   8.293 -0.2517  0.4622  0.3436
  297MOL0     C39078   2.089   0.914   8.387  0.0019  0.3334  0.9050
  297MOL0     C39079   1.985   0.997   8.349  0.3468 -1.0361 -0.0050
  297MOL0     O39080   1.883   1.033   8.431 -0.3748  0.9684 -0.3307
  297MOL0     C39081   1.892   1.019   8.575 -0.1163 -0.1261  0.2478
  297MOL0     C39082   1.792   1.122   8.628 -0.2897  0.6810 -0.2199
  297MOL0     C39083   1.784   1.108   8.783 -0.0143  0.3337  0.2200
  297MOL0     C39084   1.666   1.185   8.832  0.7075 -0.1729  0.2536
  297MOL0     C39085   1.691   1.213   8.983  0.2131 -0.0190 -0.2883
  297MOL0     C39086   1.586   1.312   9.030  0.0914  0.2129 -0.6192
  297MOL0     C39087   1.585   1.445   8.963 -0.5129  0.5955  0.3071
  297MOL0     C39088   1.522   1.550   9.042 -0.8470  0.5414  0.8541
  297MOL0     N39089   1.372   1.544   9.021 -0.0149 -0.6674 -0.3279
  297MOL0     C39090   1.297   1.654   8.990 -0.2788  0.2124  0.1400
  297MOL0     C39091   1.178   1.632   9.045 -0.9721  0.6739  0.6106
  297MOL0     C39092   1.062   1.719   9.039  0.4391 -0.2794 -0.6675
  297MOL0     C39093   1.035   1.765   8.898  0.4230 -0.9330  0.2645
  297MOL0     C39094   0.938   1.882   8.879 -0.5576  0.3292  0.3593
  297MOL0     C39095   0.811   1.857   8.948  0.6565 -0.4908 -0.6723
  297MOL0     O39096   0.718   1.956   8.926  0.2588 -0.2836  0.0371
  297MOL0     C39097   0.581   1.942   8.941  0.5062  0.3087  0.6251
  297MOL0     C39098   0.516   1.847   9.025  0.9862  0.1125  0.4815
  297MOL0     C39099   0.372   1.852   9.038  0.8483  0.1626 -0.1879
  297MOL0     C39100   0.290   1.952   8.971  0.0699 -0.1837 -1.0459
  297MOL0     C39101   0.145   1.969   8.999  1.2757  0.5436 -0.3624
  297MOL0     O39102   0.093   1.922   9.117  0.5742 -0.0370 -0.7015
  297MOL0     C39103  -0.040   1.957   9.146  0.1543  0.6072  0.2899
  297MOL0     C39104  -0.136   1.854   9.127 -0.7619 -0.1542  0.0120
  297MOL0     C39105  -0.270   1.889   9.146 -0.2266 -0.1259  0.1842
  297MOL0     C39106  -0.314   2.013   9.200 -0.3874  0.2066 -0.8428
  297MOL0     O39107  -0.446   2.041   9.227 -0.3207 -0.4596  0.1008
  297MOL0     C39108  -0.464   2.094   9.362 -1.3219 -0.7130 -0.1803
  297MOL0     C39109  -0.613   2.081   9.391 -0.0762 -0.0236  0.5246
  297MOL0     C39110  -0.656   1.960   9.473  0.0606  0.5630 -0.2465
  297MOL0     C39111  -0.799   1.946   9.511 -0.8649  1.0789  0.3875
  297MOL0     C39112  -0.822   1.856   9.629  0.2135 -0.2822 -0.4386
  297MOL0     C39113  -0.973   1.842   9.652 -0.0963 -0.6640 -0.1228
  297MOL0     C39114  -0.988   1.758   9.779  0.8927  0.7521  0.8749
  297MOL0     C39115  -1.135   1.733   9.823  0.6931 -0.3305  0.6054
  297MOL0    Cl39116  -1.212   1.897   9.845 -0.0995  0.0729 -0.0748
  297MOL0     C39117  -0.205   2.114   9.221  0.1663  0.4958  0.0898
  297MOL0     C39118  -0.069   2.085   9.189 -0.0665  0.8110  0.3062
  297MOL0     O39119   0.084   2.034   8.915  0.4547  0.7621 -0.1679
  297MOL0     C39120   0.362   2.051   8.895  0.1341  0.5610 -0.1746
  297MOL0     C39121   0.500   2.040   8.876  0.1894 -0.0948 -0.8278
  297MOL0     N39122   1.192   1.514   9.121 -0.2667  0.7840 -0.3823
  297MOL0     N39123   1.304   1.465   9.099  0.2736  0.2589  0.0999
  297MOL0     C39124   1.992   1.048   8.219  0.0400 -0.5767  0.4979
  297MOL0     C39125   2.096   1.011   8.127 -0.1668 -0.5686  0.3849
  297MOL0     C39126   2.530   0.870   8.008 -0.1304  0.6641 -0.1116
  297MOL0     C39127   2.497   0.830   7.877  0.3525  0.4298 -0.6363
  297MOL0     C39128   2.592   0.802   7.777  0.1346 -0.0071 -0.8735
  297MOL0     C39129   2.732   0.792   7.813  0.1430 -0.8814 -0.1704
  297MOL0     O39130   2.831   0.748   7.729  0.3551 -0.3806 -0.5398
  297MOL0     C39131   2.790   0.722   7.585 -0.0098  0.3383 -0.0195
  297MOL0     C39132   2.912   0.707   7.489 -0.1399 -0.5141 -0.5226
  297MOL0     C39133   2.989   0.568   7.497  0.0633  0.2189 -0.2269
  297MOL0     C39134   3.108   0.557   7.394 -0.5558 -0.6936 -0.0186
  297MOL0     C39135   3.169   0.429   7.402 -0.1536  0.7188 -0.2226
  297MOL0     C39136   3.233   0.319   7.418 -0.4393  0.8408 -0.1555
  297MOL0     C39137   2.756   0.831   7.944  1.0576 -1.3966 -0.7440
  297MOL0     C39138   2.665   0.868   8.043  0.3443 -0.4224 -0.0173
  297MOL0     H39139   2.272   0.803   8.317 -2.3646 -2.1148  0.9587
  297MOL0     H39140   2.086   0.870   8.486 -3.1055  1.2099  1.2743
  297MOL0     H39141   1.989   1.054   8.612  0.0136  0.7170 -0.8614
  297MOL0     H39142   1.877   0.912   8.591 -0.2789 -0.2153 -0.4853
  297MOL0     H39143   1.690   1.098   8.598 -0.3924  2.7607 -1.6860
  297MOL0     H39144   1.835   1.220   8.608  0.7411  0.8314  2.2473
  297MOL0     H39145   1.878   1.139   8.830 -0.3424  0.3690  0.8607
  297MOL0     H39146   1.760   1.005   8.812  2.9835  0.1528  2.5306
  297MOL0     H39147   1.654   1.273   8.768 -2.1699 -1.9011 -1.8801
  297MOL0     H39148   1.571   1.130   8.829  0.4263  0.1696  2.0300
  297MOL0     H39149   1.788   1.260   8.997 -0.7021  2.1489 -0.7383
  297MOL0     H39150   1.694   1.119   9.038  0.3643 -0.7278 -1.4635
  297MOL0     H39151   1.597   1.320   9.138  3.5563 -3.8301 -0.4143
  297MOL0     H39152   1.483   1.274   9.029 -0.2527 -0.0108  5.5070
  297MOL0     H39153   1.689   1.473   8.942 -0.4836  1.3227  1.3190
  297MOL0     H39154   1.541   1.442   8.864 -1.0689 -2.9249  0.5418
  297MOL0     H39155   1.568   1.646   9.016 -1.6597  0.2188 -2.1130
  297MOL0     H39156   1.554   1.550   9.147 -0.4904  1.1391  0.7501
  297MOL0     H39157   1.318   1.743   8.932 -0.0631  0.2895  0.3369
  297MOL0     H39158   1.072   1.803   9.109 -2.2759 -0.4675  0.0509
  297MOL0     H39159   0.976   1.660   9.070 -0.6806 -0.6669 -4.1412
  297MOL0     H39160   1.005   1.688   8.827 -0.1025  0.6991 -1.3451
  297MOL0     H39161   1.129   1.796   8.850 -0.1164  0.8236  0.2660
  297MOL0     H39162   0.981   1.980   8.902 -0.2947  0.4226 -0.5022
  297MOL0     H39163   0.935   1.892   8.771 -2.5090  1.4103  0.4646
  297MOL0     H39164   0.826   1.850   9.056 -1.5979 -1.5101 -0.3570
  297MOL0     H39165   0.770   1.759   8.921  0.6371 -0.7656  0.3374
  297MOL0     H39166   0.576   1.774   9.079  0.5305  1.3058  2.7269
  297MOL0     H39167   0.322   1.777   9.097  2.0412 -1.3757 -1.0679
  297MOL0     H39168  -0.105   1.757   9.088 -1.6560 -0.3987 -0.1030
  297MOL0     H39169  -0.351   1.822   9.119 -1.3178  0.0239  2.7728
  297MOL0     H39170  -0.430   2.198   9.357  0.8644 -1.4053 -0.8215
  297MOL0     H39171  -0.411   2.042   9.442 -0.2993  3.9080  2.5392
  297MOL0     H39172  -0.669   2.081   9.297 -0.0018 -1.3584  0.4626
  297MOL0     H39173  -0.634   2.166   9.456 -0.5030 -0.0369  0.4067
  297MOL0     H39174  -0.599   1.973   9.566  2.2858 -1.4961 -1.2157
  297MOL0     H39175  -0.613   1.869   9.431  1.8554  1.7587 -1.1500
  297MOL0     H39176  -0.843   2.044   9.529  0.4534  1.1497  3.8002
  297MOL0     H39177  -0.843   1.903   9.420 -1.5738 -0.0958  1.2653
  297MOL0     H39178  -0.772   1.893   9.718 -2.1115  0.0896  0.8095
  297MOL0     H39179  -0.783   1.758   9.602 -2.5463 -1.5703 -0.1400
  297MOL0     H39180  -1.019   1.789   9.568  0.8376 -1.2738 -0.2600
  297MOL0     H39181  -1.016   1.943   9.656  1.0645 -0.0626 -1.6798
  297MOL0     H39182  -0.948   1.658   9.758 -2.9842 -0.1621 -4.0084
  297MOL0     H39183  -0.941   1.787   9.874  1.1450  0.4173  0.8567
  297MOL0     H39184  -1.146   1.673   9.914 -0.3539 -0.2963  0.5124
  297MOL0     H39185  -1.199   1.681   9.751  0.8484  0.6197 -0.2418
  297MOL0     H39186  -0.233   2.213   9.256 -0.5554 -0.1690  1.4560
  297MOL0     H39187   0.006   2.164   9.191  0.9015  0.1316 -2.9321
  297MOL0     H39188   0.303   2.126   8.844 -4.0487 -1.9636  0.4708
  297MOL0     H39189   0.548   2.123   8.824  2.2277  0.1224  1.2411
  297MOL0     H39190   1.902   1.100   8.189 -0.0184 -0.5175  0.7715
  297MOL0     H39191   2.086   1.046   8.024  3.5616 -1.9351 -0.6164
  297MOL0     H39192   2.394   0.806   7.853  1.2992 -1.7839 -3.1120
  297MOL0     H39193   2.561   0.780   7.675 -3.5380  2.1271 -0.3744
  297MOL0     H39194   2.719   0.790   7.538  1.7743  0.7061 -2.3661
  297MOL0     H39195   2.737   0.627   7.596  0.9061 -0.1209  0.6202
  297MOL0     H39196   2.872   0.722   7.388 -0.7143  1.4849 -0.0389
  297MOL0     H39197   2.966   0.802   7.502 -2.2911  0.6498  0.3445
  297MOL0     H39198   2.924   0.488   7.461 -0.4231  0.5646 -0.1293
  297MOL0     H39199   3.033   0.542   7.594 -0.2303  3.0354  0.7691
  297MOL0     H39200   3.059   0.568   7.297 -2.9587  0.8153  1.2663
  297MOL0     H39201   3.181   0.639   7.397 -2.1892  0.8522 -0.7675
  297MOL0     H39202   3.292   0.230   7.425 -1.5987  0.1642  2.0323
  297MOL0     H39203   2.860   0.821   7.974  0.7078 -4.1033 -0.1899
  297MOL0     H39204   2.700   0.907   8.138 -3.2755  2.6230  0.2818
  298MOL0     O39205   1.521  10.329   1.911  0.2403  0.0365  0.3249
  298MOL0     C39206   1.455  10.259   1.837 -0.2157  0.4891  0.9999
  298MOL0     O39207   1.324  10.246   1.855 -0.5552 -0.0393 -0.1407
  298MOL0     C39208   1.277  10.321   1.963 -0.7008  0.9502 -0.2827
  298MOL0     C39209   1.196  10.430   1.925  0.4871 -0.5167  0.5112
  298MOL0     C39210   1.143  10.507   2.025  0.6930  0.5030 -0.2221
  298MOL0     C39211   1.158  10.473   2.161  0.4031 -0.0108  0.1870
  298MOL0     O39212   1.119  10.553   2.272  0.3936 -0.0002  0.5279
  298MOL0     C39213   1.063  10.674   2.234  0.5220 -0.3378  0.2496
  298MOL0     C39214   1.020  10.744   2.365  0.3698  0.0241 -1.2777
  298MOL0     C39215   0.894  10.686   2.426 -0.8773  0.3960 -0.0599
  298MOL0     C39216   0.827  10.788   2.521 -1.2050 -0.4031 -0.6966
  298MOL0     C39217   0.698  10.738   2.568 -0.2038  0.7424  0.0088
  298MOL0     C39218   0.578  10.804   2.497 -0.1068  0.2608  0.7237
  298MOL0     C39219   0.442  10.775   2.572 -0.2592 -0.4319  0.6549
  298MOL0     C39220   0.438  10.845   2.710  0.0332 -0.0948 -0.0513
  298MOL0     N39221   0.295  10.877   2.737  0.1396 -0.5244  0.4505
  298MOL0     C39222   0.259  10.959   2.846 -0.3995 -0.4758  0.3911
  298MOL0     C39223   0.124  10.969   2.846 -0.0605  1.1518  0.4550
  298MOL0     C39224   0.047  11.063   2.926 -0.4722 -0.3780 -0.4569
  298MOL0     C39225  -0.098  11.020   2.912 -0.2165  0.5274  0.3804
  298MOL0     C39226  -0.202  11.106   2.991  0.2868  0.2622 -0.8875
  298MOL0     C39227  -0.351  11.099   2.948 -0.6248 -0.4003  0.1723
  298MOL0     O39228  -0.424  11.205   3.013  0.2278  0.3011 -0.3352
  298MOL0     C39229  -0.563  11.189   3.027 -0.5479 -0.3741 -0.3372
  298MOL0     C39230  -0.654  11.116   2.944 -0.2690 -0.4220 -0.4252
  298MOL0     C39231  -0.798  11.138   2.956 -0.5879  0.4645  0.9183
  298MOL0     C39232  -0.844  11.196   3.075  0.0716  0.6168  0.3725
  298MOL0     C39233  -0.989  11.213   3.094  0.4256 -0.6700  0.3619
  298MOL0     O39234  -1.072  11.163   3.002 -0.0138 -0.0518 -0.9602
  298MOL0     C39235  -1.209  11.189   3.001 -0.6122  0.0890 -0.5036
  298MOL0     C39236  -1.274  11.309   3.045  0.0560  0.6622 -0.1950
  298MOL0     C39237  -1.413  11.306   3.052  0.5571  0.0309  0.8722
  298MOL0     C39238  -1.493  11.205   3.011 -0.3436 -0.7477 -0.4045
  298MOL0     O39239  -1.636  11.203   3.020 -0.6379  1.0244 -0.5104
  298MOL0     C39240  -1.713  11.323   3.036  0.1143 -0.2758 -0.8032
  298MOL0     C39241  -1.859  11.271   3.059 -1.0670 -0.2241  0.1693
  298MOL0     C39242  -1.945  11.395   3.096  1.5118  0.6765 -0.1366
  298MOL0     C39243  -2.073  11.344   3.156 -0.2819 -0.4911  1.6321
  298MOL0     C39244  -2.195  11.437   3.151 -0.1151 -0.5268  0.2745
  298MOL0     C39245  -2.295  11.428   3.262 -0.2461 -0.2711  0.3592
  298MOL0     C39246  -2.423  11.517   3.248  0.1670 -0.5492  0.3723
  298MOL0     C39247  -2.525  11.482   3.352 -0.7231  0.3399 -0.1358
  298MOL0    Cl39248  -2.466  11.489   3.517  0.4020  0.5119  0.0054
  298MOL0     C39249  -1.426  11.091   2.964  0.7162 -0.1611  0.3218
  298MOL0     C39250  -1.291  11.083   2.953 -0.1176  0.3089  0.5832
  298MOL0     O39251  -1.024  11.259   3.202  0.0462  0.0793 -0.6106
  298MOL0     C39252  -0.759  11.258   3.166  0.4599  0.7350  0.1829
  298MOL0     C39253  -0.627  11.256   3.132  0.6114  0.5644 -0.1385
  298MOL0     N39254   0.083  10.884   2.738 -0.2417  0.2445  0.1713
  298MOL0     N39255   0.184  10.828   2.683  0.0122  0.3057  0.3294
  298MOL0     C39256   1.234  10.359   2.190 -0.2528  0.2268 -0.1039
  298MOL0     C39257   1.297  10.285   2.091  0.4710 -0.2750 -0.8287
  298MOL0     C39258   1.523  10.188   1.721  0.5805  0.2017 -0.0914
  298MOL0     C39259   1.665  10.182   1.712  0.8883  0.0806 -0.1658
  298MOL0     C39260   1.728  10.113   1.610 -0.3565  0.8716  0.3322
  298MOL0     C39261   1.658  10.043   1.513  0.5110 -0.5635  0.4716
  298MOL0     O39262   1.707   9.977   1.402  0.2467 -0.1746 -0.5732
  298MOL0     C39263   1.851   9.984   1.370  0.0109  0.8625 -0.4379
  298MOL0     C39264   1.889   9.929   1.233  0.1772  0.3424  0.0345
  298MOL0     C39265   1.857   9.779   1.211  0.3396  0.7360 -0.5832
  298MOL0     C39266   1.918   9.684   1.318  0.5390  0.5801 -0.4293
  298MOL0     C39267   2.065   9.702   1.339  0.3621  0.2774  0.8299
  298MOL0     C39268   2.181   9.726   1.338 -0.8913 -0.0133 -0.3656
  298MOL0     C39269   1.519  10.042   1.529  1.0205 -1.2715 -0.1265
  298MOL0     C39270   1.452  10.112   1.629  0.4452  0.4114  0.2485
  298MOL0     H39271   1.179  10.453   1.820 -1.0534 -2.7442  0.2122
  298MOL0     H39272   1.095  10.598   1.989 -0.3843 -0.6680 -1.8564
  298MOL0     H39273   0.977  10.670   2.167  0.3943 -0.0297  0.3942
  298MOL0     H39274   1.139  10.729   2.178  1.8168 -2.9082 -0.6773
  298MOL0     H39275   1.005  10.849   2.340  1.0134  0.0478 -1.5985
  298MOL0     H39276   1.094  10.740   2.446 -1.6671  2.0224  0.8243
  298MOL0     H39277   0.910  10.596   2.486 -0.9842 -0.7135 -1.6195
  298MOL0     H39278   0.824  10.654   2.348 -1.3625  3.3621 -0.9698
  298MOL0     H39279   0.900  10.800   2.602  2.3966 -0.9057 -3.5743
  298MOL0     H39280   0.801  10.883   2.475 -4.4391 -1.5213 -1.4031
  298MOL0     H39281   0.686  10.761   2.674 -2.9843 -0.7092  0.0887
  298MOL0     H39282   0.696  10.630   2.557  0.5231  0.6706  0.5542
  298MOL0     H39283   0.570  10.763   2.396  1.5687 -0.0996  0.7159
  298MOL0     H39284   0.594  10.911   2.486  0.5100  0.0607 -0.4518
  298MOL0     H39285   0.365  10.819   2.509 -0.1615 -1.6785 -0.3852
  298MOL0     H39286   0.422  10.668   2.583 -2.0450 -0.3575 -1.2817
  298MOL0     H39287   0.496  10.938   2.706  0.6495 -0.5160 -2.7737
  298MOL0     H39288   0.473  10.781   2.792 -1.6276  0.5147  1.1877
  298MOL0     H39289   0.320  11.027   2.904 -2.2785 -0.6806  2.7757
  298MOL0     H39290   0.058  11.168   2.895  1.1833  0.1653  1.6911
  298MOL0     H39291   0.073  11.062   3.032  0.8964 -0.9871 -0.7788
  298MOL0     H39292  -0.110  10.913   2.932 -0.4959  0.4912  0.0288
  298MOL0     H39293  -0.127  11.040   2.809  2.7668  0.3547 -0.5962
  298MOL0     H39294  -0.185  11.079   3.096 -1.4952 -0.3508 -0.7241
  298MOL0     H39295  -0.179  11.213   2.988 -3.1575  1.1353 -0.5875
  298MOL0     H39296  -0.398  11.002   2.965 -2.0441 -0.6875 -4.2239
  298MOL0     H39297  -0.367  11.100   2.840 -0.3281 -1.5059  0.1086
  298MOL0     H39298  -0.615  11.055   2.864  0.4870  0.3994 -0.6996
  298MOL0     H39299  -0.870  11.100   2.884 -1.9954 -0.4102  2.7124
  298MOL0     H39300  -1.214  11.397   3.070  0.3823  1.5635 -3.6895
  298MOL0     H39301  -1.467  11.388   3.097 -2.7822 -1.5399  0.0869
  298MOL0     H39302  -1.706  11.395   2.954 -1.0504  1.1473  0.2910
  298MOL0     H39303  -1.691  11.382   3.125 -0.9907  0.1144 -0.7657
  298MOL0     H39304  -1.853  11.193   3.135 -1.7984 -0.1754  0.2900
  298MOL0     H39305  -1.893  11.225   2.966 -0.1965 -1.0939  0.2676
  298MOL0     H39306  -1.969  11.460   3.012 -3.7377  1.0792  1.2977
  298MOL0     H39307  -1.888  11.457   3.166  0.8918  1.6122 -0.4451
  298MOL0     H39308  -2.105  11.249   3.112 -1.9686  0.9230 -0.3583
  298MOL0     H39309  -2.043  11.318   3.259  0.9128  1.5133  1.8480
  298MOL0     H39310  -2.248  11.429   3.056 -1.3226 -0.2045  0.8935
  298MOL0     H39311  -2.159  11.540   3.160  0.4386 -0.7375  0.5126
  298MOL0     H39312  -2.241  11.450   3.355 -0.1716 -0.3017  0.3231
  298MOL0     H39313  -2.338  11.328   3.268 -1.8410  0.3291 -0.3530
  298MOL0     H39314  -2.388  11.620   3.264  0.6767 -0.4616 -1.1136
  298MOL0     H39315  -2.475  11.502   3.153  0.7715  1.4018 -0.3273
  298MOL0     H39316  -2.559  11.380   3.335  0.3543 -0.0510 -0.0242
  298MOL0     H39317  -2.621  11.534   3.349  0.0261  1.7366 -1.1185
  298MOL0     H39318  -1.500  11.021   2.925 -2.3068  1.8732  1.9146
  298MOL0     H39319  -1.240  10.993   2.921  0.4810  0.4552  1.1185
  298MOL0     H39320  -0.803  11.313   3.249  1.8129 -0.6448  1.8853
  298MOL0     H39321  -0.564  11.324   3.189 -1.1442  3.5835 -1.5130
  298MOL0     H39322   1.240  10.316   2.289 -0.5936 -1.9841 -0.9864
  298MOL0     H39323   1.351  10.195   2.118  0.6065  0.2873  0.9634
  298MOL0     H39324   1.731  10.236   1.779  0.2403  0.9280 -0.1914
  298MOL0     H39325   1.833  10.129   1.587 -0.3905  0.8641  0.1704
  298MOL0     H39326   1.904   9.934   1.451  1.2557  1.0197 -1.1371
  298MOL0     H39327   1.886  10.088   1.375  1.5859  0.4622 -2.0773
  298MOL0     H39328   1.830   9.976   1.153 -2.8262 -1.5596  0.9980
  298MOL0     H39329   1.997   9.943   1.218  0.1301  0.1258 -0.5611
  298MOL0     H39330   1.892   9.753   1.111 -0.9290  1.8513 -1.3477
  298MOL0     H39331   1.748   9.774   1.205 -0.0919  5.3573 -0.6049
  298MOL0     H39332   1.872   9.694   1.417 -2.7732 -1.4543 -1.6095
  298MOL0     H39333   1.908   9.580   1.286  1.1510  0.4851 -0.3196
  298MOL0     H39334   2.284   9.751   1.357 -0.3287  0.6715 -3.7967
  298MOL0     H39335   1.457   9.985   1.461  1.1542 -2.0879  0.4281
  298MOL0     H39336   1.345  10.096   1.629  0.6997 -1.6525 -0.5631
  299MOL0     O39337   5.975   4.357   5.493 -0.1705  1.2824 -0.0074
  299MOL0     C39338   6.001   4.337   5.610 -0.0054 -0.1684 -1.0614
  299MOL0     O39339   5.903   4.329   5.712 -0.2512  0.0864  0.8774
  299MOL0     C39340   5.771   4.347   5.670 -0.0659  0.2242 -0.8979
  299MOL0     C39341   5.698   4.455   5.704  0.0032  0.5609  0.0979
  299MOL0     C39342   5.559   4.459   5.663  0.3228 -0.8166 -0.8306
  299MOL0     C39343   5.491   4.359   5.608 -0.5298 -0.2002 -0.4056
  299MOL0     O39344   5.361   4.355   5.571  0.1036 -0.2570  0.7818
  299MOL0     C39345   5.271   4.458   5.624 -0.3327  0.3957 -0.8953
  299MOL0     C39346   5.135   4.446   5.576  0.2312 -0.8257  1.3485
  299MOL0     C39347   5.066   4.302   5.590  0.2007 -1.0684  0.6449
  299MOL0     C39348   4.924   4.312   5.531  0.1685 -0.0371  0.1840
  299MOL0     C39349   4.833   4.381   5.630  0.3487  0.0462 -0.0761
  299MOL0     C39350   4.692   4.327   5.610  0.0358  0.3231  0.7702
  299MOL0     C39351   4.570   4.411   5.635  0.2007 -0.3993 -0.4493
  299MOL0     C39352   4.433   4.336   5.601 -0.3336  0.3694 -0.0239
  299MOL0     N39353   4.404   4.218   5.683 -0.1210 -0.2662 -0.4495
  299MOL0     C39354   4.413   4.209   5.827  0.0208  0.3562  0.6871
  299MOL0     C39355   4.370   4.082   5.857 -0.3328  0.2582 -0.0596
  299MOL0     C39356   4.377   4.010   5.990 -0.6222 -0.4567  0.1587
  299MOL0     C39357   4.240   3.988   6.049  0.1117  0.4635  0.4105
  299MOL0     C39358   4.163   4.125   6.057 -0.1025  0.1222  0.4534
  299MOL0     C39359   4.025   4.107   6.109  0.6741  0.8597 -0.4123
  299MOL0     O39360   3.955   4.230   6.107  0.0502 -0.3943  0.3068
  299MOL0     C39361   3.830   4.232   6.162 -0.9727 -0.0030 -0.7519
  299MOL0     C39362   3.761   4.127   6.227 -0.0718  0.1371  0.9592
  299MOL0     C39363   3.640   4.150   6.289  0.5889  0.4908  0.0622
  299MOL0     C39364   3.584   4.273   6.277  0.1570 -0.3875  0.5136
  299MOL0     C39365   3.455   4.299   6.341 -0.1124 -0.5819  0.7601
  299MOL0     O39366   3.408   4.196   6.417 -0.3662  0.0054 -0.1429
  299MOL0     C39367   3.294   4.203   6.487 -0.0198  0.8717 -0.7056
  299MOL0     C39368   3.216   4.093   6.476  1.0123  0.2998 -0.8259
  299MOL0     C39369   3.093   4.086   6.540  0.2877 -1.2999  1.0197
  299MOL0     C39370   3.042   4.196   6.610  0.3200  0.2027  0.6225
  299MOL0     O39371   2.926   4.170   6.671  0.1701 -0.5688 -0.7880
  299MOL0     C39372   2.898   4.235   6.795  0.4443 -0.3907  0.7125
  299MOL0     C39373   2.778   4.174   6.857  0.3188 -1.0957  0.2709
  299MOL0     C39374   2.779   4.024   6.854  0.6819 -0.2666  0.2767
  299MOL0     C39375   2.676   3.965   6.745 -0.5628 -0.0872  0.2854
  299MOL0     C39376   2.675   3.811   6.757  0.9578 -1.3765  1.4671
  299MOL0     C39377   2.564   3.754   6.670  0.3966  0.2148 -0.1539
  299MOL0     C39378   2.567   3.598   6.660  0.4492  0.1687  0.2742
  299MOL0     C39379   2.434   3.537   6.603 -0.2163 -0.7562 -0.3628
  299MOL0    Cl39380   2.458   3.349   6.570  0.0200 -0.4565  0.2607
  299MOL0     C39381   3.123   4.310   6.625 -0.4797  0.1639 -0.2087
  299MOL0     C39382   3.253   4.300   6.570 -0.0853 -0.2297 -0.5244
  299MOL0     O39383   3.399   4.410   6.333 -0.0781 -0.0633  0.5291
  299MOL0     C39384   3.650   4.372   6.214  0.1221 -0.4585  0.1052
  299MOL0     C39385   3.775   4.354   6.161 -0.6040 -0.5129  0.3229
  299MOL0     N39386   4.334   4.023   5.736  0.2831  0.6007  0.1460
  299MOL0     N39387   4.348   4.104   5.635 -0.8742 -0.0557 -0.0766
  299MOL0     C39388   5.563   4.243   5.573 -0.9360 -0.2929  0.3754
  299MOL0     C39389   5.698   4.236   5.612 -0.0500 -0.8567 -0.0437
  299MOL0     C39390   6.145   4.337   5.653 -0.4348  0.2765  0.1069
  299MOL0     C39391   6.249   4.381   5.564 -0.4186  0.0520 -0.6069
  299MOL0     C39392   6.388   4.370   5.606  0.5068 -0.2654 -0.0916
  299MOL0     C39393   6.420   4.332   5.732  0.4233  0.9350 -0.1096
  299MOL0     O39394   6.553   4.343   5.775 -0.0729  0.5022  0.2235
  299MOL0     C39395   6.657   4.381   5.683  0.1801  0.6719 -0.4333
  299MOL0     C39396   6.790   4.377   5.764  1.0356  0.1944  0.2317
  299MOL0     C39397   6.818   4.518   5.830  0.0367  0.0155 -0.1821
  299MOL0     C39398   6.930   4.509   5.941  0.9651 -0.0014  0.0756
  299MOL0     C39399   7.038   4.432   5.892  0.1088 -0.6040 -1.0450
  299MOL0     C39400   7.118   4.367   5.840 -0.7283  0.1849  0.5858
  299MOL0     C39401   6.320   4.290   5.817  0.6323  0.4242 -0.3828
  299MOL0     C39402   6.180   4.292   5.777 -0.6883  0.3027 -0.3103
  299MOL0     H39403   5.757   4.544   5.724  0.0594  0.3013  1.1553
  299MOL0     H39404   5.521   4.561   5.668 -0.2860 -1.0720  0.4331
  299MOL0     H39405   5.308   4.560   5.610  0.4940  0.0517 -1.2492
  299MOL0     H39406   5.272   4.439   5.732  1.5161  1.3447 -0.7008
  299MOL0     H39407   5.127   4.470   5.469 -0.3517 -3.7314  0.6450
  299MOL0     H39408   5.068   4.520   5.620  0.0838 -0.4121  0.4586
  299MOL0     H39409   5.067   4.256   5.690 -1.0133 -1.8696  0.2998
  299MOL0     H39410   5.118   4.232   5.525  0.8346  0.2020 -0.2658
  299MOL0     H39411   4.924   4.365   5.435 -1.6631 -0.1277  0.1071
  299MOL0     H39412   4.882   4.218   5.495 -0.2689  1.2970 -3.0900
  299MOL0     H39413   4.849   4.488   5.616  2.5373  0.0772  1.9682
  299MOL0     H39414   4.859   4.363   5.735 -0.6012  1.5426  0.4400
  299MOL0     H39415   4.690   4.239   5.675  2.2513  0.0987  0.5960
  299MOL0     H39416   4.682   4.305   5.504 -0.0308 -3.1851  1.3699
  299MOL0     H39417   4.567   4.450   5.738  0.4906  0.3372 -0.7175
  299MOL0     H39418   4.568   4.497   5.568  1.6444 -2.0142 -2.7148
  299MOL0     H39419   4.435   4.311   5.495  1.1454  0.4588 -0.0411
  299MOL0     H39420   4.356   4.414   5.600  0.3127  1.0347  0.2565
  299MOL0     H39421   4.455   4.284   5.893 -2.1760  1.6957  0.6504
  299MOL0     H39422   4.428   4.071   6.066 -1.5279 -1.4136  1.5626
  299MOL0     H39423   4.436   3.919   5.973  3.1840  1.7836  0.0266
  299MOL0     H39424   4.257   3.946   6.149 -1.1324  3.7664  2.1772
  299MOL0     H39425   4.188   3.915   5.987  0.0141 -0.0281  1.0554
  299MOL0     H39426   4.215   4.194   6.123 -0.8892 -0.9333  2.2413
  299MOL0     H39427   4.154   4.180   5.963  1.0362 -2.7984 -1.5190
  299MOL0     H39428   4.030   4.068   6.211 -0.5893 -4.0103 -1.9418
  299MOL0     H39429   3.971   4.041   6.040  0.8062  1.4125 -1.0631
  299MOL0     H39430   3.813   4.032   6.224 -2.8792 -1.4945 -0.4909
  299MOL0     H39431   3.607   4.069   6.353 -1.7044  0.1767 -1.4243
  299MOL0     H39432   3.255   4.010   6.418  2.4898 -0.3331  0.9586
  299MOL0     H39433   3.027   4.000   6.547 -1.2375 -0.3201 -0.7332
  299MOL0     H39434   2.889   4.342   6.774  3.2616  0.0772  1.4186
  299MOL0     H39435   2.984   4.215   6.859  0.2567 -0.8155  0.8346
  299MOL0     H39436   2.699   4.201   6.787  2.2023  2.9800 -0.5960
  299MOL0     H39437   2.757   4.215   6.956 -3.9344  1.4333 -1.4280
  299MOL0     H39438   2.753   3.992   6.955  0.4278  1.1577  0.6842
  299MOL0     H39439   2.877   3.985   6.827  0.7101 -0.0240  0.0174
  299MOL0     H39440   2.578   4.011   6.753 -0.4966  0.6913 -2.2528
  299MOL0     H39441   2.707   3.997   6.644  1.8561  4.8538  2.2513
  299MOL0     H39442   2.643   3.792   6.860  2.2711 -0.2138  2.1122
  299MOL0     H39443   2.770   3.767   6.726  0.5243 -0.3670 -1.6440
  299MOL0     H39444   2.568   3.796   6.569 -0.1639  0.5678 -0.0363
  299MOL0     H39445   2.470   3.780   6.719  0.3905 -4.1104  2.7290
  299MOL0     H39446   2.651   3.555   6.605 -0.2998 -3.9182  1.9290
  299MOL0     H39447   2.572   3.563   6.763  0.8941  1.0494  0.5687
  299MOL0     H39448   2.409   3.585   6.509 -0.0697 -0.3205 -0.1817
  299MOL0     H39449   2.349   3.561   6.668  1.1305 -0.9912  1.5833
  299MOL0     H39450   3.088   4.396   6.681 -1.9720 -2.3506  3.0738
  299MOL0     H39451   3.308   4.393   6.567 -3.2142  1.8365  0.3587
  299MOL0     H39452   3.604   4.470   6.215  1.6800  0.3027  1.1516
  299MOL0     H39453   3.818   4.434   6.101 -2.1600 -0.0792 -0.2951
  299MOL0     H39454   5.516   4.156   5.529 -2.2356  1.2640 -1.4494
  299MOL0     H39455   5.752   4.145   5.589  0.9507  0.1904 -2.1156
  299MOL0     H39456   6.223   4.429   5.470 -0.8000  4.6344  1.5727
  299MOL0     H39457   6.463   4.411   5.540  1.1218 -1.4812 -0.1719
  299MOL0     H39458   6.648   4.485   5.650  0.0567  0.3331 -1.5011
  299MOL0     H39459   6.653   4.325   5.589 -1.2851  2.7487 -1.6871
  299MOL0     H39460   6.783   4.297   5.838 -0.3175  1.4279  1.4932
  299MOL0     H39461   6.875   4.359   5.697  1.7714  1.8553  0.6587
  299MOL0     H39462   6.725   4.554   5.874  0.1410  0.0928 -0.0216
  299MOL0     H39463   6.849   4.584   5.749 -1.8454  0.8457 -0.2715
  299MOL0     H39464   6.967   4.607   5.973  0.5212  1.0094 -2.3244
  299MOL0     H39465   6.884   4.451   6.022  1.7752 -0.4390  0.2290
  299MOL0     H39466   7.191   4.313   5.783 -0.9904  0.9934 -0.5526
  299MOL0     H39467   6.359   4.250   5.910 -0.2040  2.4460  0.9024
  299MOL0     H39468   6.099   4.256   5.841 -2.4515  1.4908 -1.7823
  300MOL0     O39469   3.451   6.630  10.351  0.5386  0.1403  0.2838
  300MOL0     C39470   3.520   6.531  10.322  1.4600 -0.0546 -0.0788
  300MOL0     O39471   3.474   6.413  10.263  0.0395  0.2470  0.2883
  300MOL0     C39472   3.345   6.395  10.230 -0.0115  0.0174 -0.3905
  300MOL0     C39473   3.314   6.366  10.099 -0.6203 -0.2941 -0.2370
  300MOL0     C39474   3.182   6.344  10.073  0.8528  0.2996  0.9909
  300MOL0     C39475   3.080   6.350  10.167  0.7076  0.7877 -0.4788
  300MOL0     O39476   2.953   6.332  10.107 -0.0946  0.1107 -0.0890
  300MOL0     C39477   2.859   6.320  10.208  0.6390  0.3609  0.4291
  300MOL0     C39478   2.723   6.273  10.153  0.5859 -0.6040  0.0389
  300MOL0     C39479   2.655   6.207  10.277  0.2318  0.3222 -0.0761
  300MOL0     C39480   2.521   6.151  10.230 -0.2047  0.0087 -0.8245
  300MOL0     C39481   2.446   6.082  10.347  0.0953 -0.0916 -0.0948
  300MOL0     C39482   2.360   5.961  10.305  0.2216  0.2862  0.4726
  300MOL0     C39483   2.238   6.010  10.215  0.2187 -0.2311 -0.4230
  300MOL0     C39484   2.138   6.100  10.289 -0.3724 -0.3339 -0.7993
  300MOL0     N39485   2.052   6.160  10.188 -0.2950  0.0586 -0.1732
  300MOL0     C39486   1.969   6.080  10.107 -0.5563 -0.3914 -0.3424
  300MOL0     C39487   1.913   6.172  10.028  0.7953  0.3362  0.5547
  300MOL0     C39488   1.807   6.147   9.919 -0.5027 -0.3703 -0.2109
  300MOL0     C39489   1.804   6.005   9.850 -0.4181  0.1112  0.1843
  300MOL0     C39490   1.734   6.035   9.712 -0.1810  0.3166 -0.5964
  300MOL0     C39491   1.742   5.921   9.613  0.0593  0.0483  0.5765
  300MOL0     O39492   1.673   5.940   9.491 -0.3013  0.2348  0.5423
  300MOL0     C39493   1.536   5.924   9.497  0.1657 -0.6409  0.0944
  300MOL0     C39494   1.458   6.037   9.488 -0.7731  0.0400 -0.8922
  300MOL0     C39495   1.317   6.032   9.506 -0.1961  0.3704  0.3249
  300MOL0     C39496   1.261   5.911   9.527 -0.4680  0.9575  0.4954
  300MOL0     C39497   1.113   5.888   9.549  0.1726 -0.6755 -0.3488
  300MOL0     O39498   1.062   5.759   9.514  0.6779  0.1630 -0.1924
  300MOL0     C39499   0.924   5.731   9.517 -0.1816  0.0606 -1.1053
  300MOL0     C39500   0.825   5.806   9.447  0.8375  0.1089  0.1668
  300MOL0     C39501   0.684   5.789   9.475 -0.1337 -0.3238 -0.3146
  300MOL0     C39502   0.643   5.699   9.575  0.5037 -1.0546 -0.0300
  300MOL0     O39503   0.511   5.704   9.611 -0.0332  0.4221  0.7269
  300MOL0     C39504   0.443   5.580   9.608 -0.0042 -0.4957  0.0110
  300MOL0     C39505   0.301   5.584   9.674  0.6007  0.4608  0.2648
  300MOL0     C39506   0.223   5.700   9.613 -0.2773  0.2361  0.4986
  300MOL0     C39507   0.081   5.671   9.664 -0.2963 -0.5416  0.8026
  300MOL0     C39508  -0.014   5.781   9.631 -0.4873  0.3487 -0.7765
  300MOL0     C39509  -0.058   5.786   9.483  0.2018  0.5011  0.2972
  300MOL0     C39510  -0.138   5.909   9.441  0.3634 -0.4354  0.0225
  300MOL0     C39511  -0.264   5.870   9.371 -0.0872 -0.1264  0.4391
  300MOL0    Cl39512  -0.316   6.024   9.305 -0.4461  0.0626  0.0168
  300MOL0     C39513   0.745   5.619   9.629  0.0080 -0.1005  0.2854
  300MOL0     C39514   0.877   5.629   9.598  0.5005 -0.2621  0.7447
  300MOL0     O39515   1.040   5.988   9.570 -0.4843  0.7987  0.6193
  300MOL0     C39516   1.343   5.797   9.537 -0.8556 -0.0761  0.2549
  300MOL0     C39517   1.478   5.798   9.516  0.1187  0.2768 -0.2114
  300MOL0     N39518   1.971   6.300  10.053 -0.2925 -0.8516  0.0522
  300MOL0     N39519   2.049   6.286  10.156 -0.1358 -0.0680 -0.0908
  300MOL0     C39520   3.113   6.391  10.300  0.2020 -0.0994  0.2398
  300MOL0     C39521   3.246   6.413  10.328 -0.6233 -0.7022  0.5887
  300MOL0     C39522   3.661   6.541  10.335 -0.1487  1.3582  0.6630
  300MOL0     C39523   3.754   6.433  10.306  0.0274  0.1624  0.2386
  300MOL0     C39524   3.893   6.464  10.304  0.5081 -0.1191 -0.8111
  300MOL0     C39525   3.940   6.594  10.334 -0.1674 -1.0827 -0.2407
  300MOL0     O39526   4.075   6.622  10.326 -0.1942  0.4621  0.0652
  300MOL0     C39527   4.136   6.752  10.346 -0.0606  0.3751  0.0073
  300MOL0     C39528   4.160   6.819  10.211  0.5100  0.6770  0.0141
  300MOL0     C39529   4.033   6.882  10.140 -0.8306  0.5070 -0.1734
  300MOL0     C39530   4.054   6.942  10.004  0.3797 -0.3621 -0.3714
  300MOL0     C39531   3.932   7.009   9.965  0.5627  0.0573 -0.2816
  300MOL0     C39532   3.829   7.063   9.939 -0.0317  0.1770 -0.3641
  300MOL0     C39533   3.846   6.690  10.379 -0.9314 -0.5055 -0.1022
  300MOL0     C39534   3.712   6.666  10.372 -0.4819 -0.7861  0.5552
  300MOL0     H39535   3.389   6.357  10.021 -2.3773 -1.4747 -1.8691
  300MOL0     H39536   3.135   6.314   9.980 -1.0037  4.0465  0.5429
  300MOL0     H39537   2.863   6.423  10.244 -0.3653  1.4836 -2.4418
  300MOL0     H39538   2.893   6.256  10.291 -0.4920  1.3918  1.7233
  300MOL0     H39539   2.736   6.205  10.067  1.0972 -1.0930  0.4959
  300MOL0     H39540   2.665   6.358  10.117  0.4868 -0.3735  0.7358
  300MOL0     H39541   2.642   6.275  10.361 -1.4748  1.0710 -0.9070
  300MOL0     H39542   2.720   6.126  10.312  0.1358  0.4014  0.2978
  300MOL0     H39543   2.452   6.219  10.179 -1.5025 -0.9249 -0.3640
  300MOL0     H39544   2.539   6.079  10.149 -0.7052  0.9381 -1.7960
  300MOL0     H39545   2.376   6.149  10.398 -1.4101  0.0260 -2.1780
  300MOL0     H39546   2.524   6.048  10.416 -0.1297 -0.3780  0.0206
  300MOL0     H39547   2.319   5.915  10.395 -0.7518 -0.1062 -0.1591
  300MOL0     H39548   2.412   5.888  10.242  0.9081  0.5226  0.7479
  300MOL0     H39549   2.275   6.081  10.140  0.8566 -0.1357 -0.0231
  300MOL0     H39550   2.186   5.927  10.166 -2.0669  0.6063  0.4245
  300MOL0     H39551   2.177   6.191  10.336 -1.8415 -0.0787 -0.0363
  300MOL0     H39552   2.090   6.049  10.373  0.5445 -0.5173 -0.3743
  300MOL0     H39553   1.938   5.976  10.115  1.1021 -0.7933  1.4196
  300MOL0     H39554   1.825   6.227   9.847 -1.7273  0.3436  0.2524
  300MOL0     H39555   1.706   6.166   9.955 -1.1706 -2.2977 -0.9075
  300MOL0     H39556   1.753   5.931   9.913 -0.5332 -0.8605 -1.0199
  300MOL0     H39557   1.908   5.975   9.839 -1.2091 -3.2832  0.9413
  300MOL0     H39558   1.630   6.054   9.739  0.2048  0.4770  0.8689
  300MOL0     H39559   1.778   6.118   9.655  0.1164  1.0856  0.7191
  300MOL0     H39560   1.704   5.829   9.657  0.7912 -0.5828 -0.0825
  300MOL0     H39561   1.847   5.902   9.587 -0.0149 -2.6560  1.9390
  300MOL0     H39562   1.517   6.124   9.462  0.0274 -0.1713  0.1297
  300MOL0     H39563   1.253   6.120   9.502  2.2293  2.4616  3.1399
  300MOL0     H39564   0.847   5.885   9.375 -0.5281 -0.5227 -1.0003
  300MOL0     H39565   0.616   5.860   9.429  2.4916  1.5664 -1.5299
  300MOL0     H39566   0.505   5.508   9.664  1.3164 -0.3773 -1.2545
  300MOL0     H39567   0.437   5.551   9.503  0.9767  2.9362 -1.1134
  300MOL0     H39568   0.303   5.591   9.783 -1.2756  1.6135  0.2728
  300MOL0     H39569   0.246   5.491   9.662 -3.2259  2.3992  1.0560
  300MOL0     H39570   0.213   5.692   9.504  2.7532 -1.7632  0.2345
  300MOL0     H39571   0.270   5.796   9.633 -1.2275  0.5715  1.2089
  300MOL0     H39572   0.044   5.579   9.619  0.1853  0.1161 -1.0230
  300MOL0     H39573   0.077   5.660   9.773 -0.4923 -0.9255  0.7584
  300MOL0     H39574   0.033   5.877   9.654  1.9142 -1.2491  1.7436
  300MOL0     H39575  -0.102   5.759   9.691 -1.3848  0.2326 -2.0873
  300MOL0     H39576  -0.113   5.693   9.465  0.3785  0.7871 -2.0586
  300MOL0     H39577   0.034   5.772   9.425 -0.7190 -1.3518 -0.7822
  300MOL0     H39578  -0.162   5.973   9.526  1.9169 -0.1194  0.2417
  300MOL0     H39579  -0.076   5.976   9.381 -0.6912 -1.4318 -2.3526
  300MOL0     H39580  -0.347   5.842   9.437 -0.7934 -2.0038 -1.1525
  300MOL0     H39581  -0.259   5.804   9.284  1.2580 -1.2015  1.2960
  300MOL0     H39582   0.706   5.541   9.693  1.9123  0.3619  2.0879
  300MOL0     H39583   0.956   5.565   9.636  0.3354 -0.2978  1.0298
  300MOL0     H39584   1.281   5.715   9.571 -4.0686  2.1710  0.3108
  300MOL0     H39585   1.546   5.717   9.540 -0.7799 -0.5976 -0.5428
  300MOL0     H39586   3.034   6.402  10.374  0.9866 -0.2695  1.1259
  300MOL0     H39587   3.258   6.466  10.422 -0.2338  0.6705 -0.2042
  300MOL0     H39588   3.735   6.331  10.275  1.9914 -0.5982  1.3309
  300MOL0     H39589   3.963   6.388  10.272  0.3985 -1.1002  1.1007
  300MOL0     H39590   4.236   6.729  10.385 -0.1629 -1.8562 -0.8903
  300MOL0     H39591   4.086   6.813  10.422  0.6698  2.1442 -0.8829
  300MOL0     H39592   4.218   6.909  10.230 -0.4410  1.0139  1.5120
  300MOL0     H39593   4.208   6.755  10.137 -2.1038 -1.1594 -0.2595
  300MOL0     H39594   4.003   6.963  10.207 -3.2899 -1.7021  1.6060
  300MOL0     H39595   3.955   6.806  10.132 -0.9102  0.6642 -1.0696
  300MOL0     H39596   4.133   7.018   9.998  1.9021 -1.7593  1.1512
  300MOL0     H39597   4.071   6.864   9.929 -0.6908 -3.0940  2.0296
  300MOL0     H39598   3.743   7.118   9.907 -0.7328  1.0340  2.6876
  300MOL0     H39599   3.875   6.793  10.400 -0.7857 -0.5313 -0.1749
  300MOL0     H39600   3.648   6.747  10.405  0.7761  0.3578  0.2766
  301MOL0     O39601  10.060   9.466   4.621  0.0914  0.7913 -0.4024
  301MOL0     C39602  10.108   9.393   4.531 -0.4463  0.1649 -1.1022
  301MOL0     O39603  10.040   9.330   4.431 -0.0001 -1.0847 -0.0182
  301MOL0     C39604   9.906   9.353   4.410  0.9311 -0.0147  0.8348
  301MOL0     C39605   9.804   9.396   4.499 -0.3062 -0.2951  0.0842
  301MOL0     C39606   9.674   9.385   4.474  0.6415  0.4505  0.3079
  301MOL0     C39607   9.628   9.314   4.362  0.3490  0.3039  0.0714
  301MOL0     O39608   9.494   9.282   4.360 -0.5712 -0.4248 -0.2344
  301MOL0     C39609   9.440   9.167   4.293  0.6995  0.1532 -1.1828
  301MOL0     C39610   9.368   9.084   4.393  0.1631  0.4702  0.5719
  301MOL0     C39611   9.322   8.950   4.322 -0.0470  0.0907  0.2393
  301MOL0     C39612   9.273   8.859   4.437  0.1996  0.0124  0.7182
  301MOL0     C39613   9.200   8.737   4.374 -0.0449 -0.9473 -0.3127
  301MOL0     C39614   9.180   8.613   4.468 -0.1613 -0.9916 -0.0234
  301MOL0     C39615   9.042   8.610   4.533 -0.0123  0.0200 -0.4746
  301MOL0     C39616   8.920   8.598   4.437 -0.2622 -0.5997  0.8213
  301MOL0     N39617   8.799   8.562   4.511 -0.8089  0.5622 -0.1357
  301MOL0     C39618   8.778   8.437   4.563 -1.1128  0.0462  0.1212
  301MOL0     C39619   8.653   8.443   4.613  0.6721 -0.0433  0.0695
  301MOL0     C39620   8.577   8.316   4.656  0.2657 -0.4771  0.7109
  301MOL0     C39621   8.435   8.314   4.610 -0.2787 -0.2270  0.8953
  301MOL0     C39622   8.422   8.242   4.470 -0.5553  0.4000 -0.9482
  301MOL0     C39623   8.277   8.238   4.419  1.0651  0.1046  0.7171
  301MOL0     O39624   8.201   8.135   4.486 -0.3401  0.2031 -0.0043
  301MOL0     C39625   8.066   8.126   4.450 -0.2711  1.1000  0.2962
  301MOL0     C39626   7.996   8.038   4.535  0.3563  0.2382 -0.4086
  301MOL0     C39627   7.862   8.005   4.505  1.0414 -0.3698 -0.4355
  301MOL0     C39628   7.786   8.055   4.390 -0.1182  0.1936  0.0271
  301MOL0     C39629   7.660   7.992   4.347  0.9561 -0.4899  0.8182
  301MOL0     O39630   7.586   8.058   4.246 -0.1723 -0.0704 -0.4167
  301MOL0     C39631   7.477   8.001   4.192  0.0013  0.4643  0.4272
  301MOL0     C39632   7.359   8.065   4.174 -0.3093 -0.2579 -0.1492
  301MOL0     C39633   7.247   7.999   4.118  0.1989 -1.0056  0.3058
  301MOL0     C39634   7.256   7.859   4.078 -0.2217 -0.0764  1.4673
  301MOL0     O39635   7.156   7.786   4.013  0.8790  0.2206  0.0112
  301MOL0     C39636   7.038   7.854   3.972  0.4043  0.5143 -0.1517
  301MOL0     C39637   6.967   7.761   3.862 -0.6171  0.5457 -0.2599
  301MOL0     C39638   6.824   7.827   3.856  0.0183 -0.1423 -0.2694
  301MOL0     C39639   6.750   7.768   3.743  0.2824 -0.4945  0.1854
  301MOL0     C39640   6.598   7.789   3.767 -0.2913 -0.5811 -0.3475
  301MOL0     C39641   6.511   7.770   3.646  0.8572 -0.1347  0.0551
  301MOL0     C39642   6.365   7.770   3.694  0.8094 -1.2486  0.2443
  301MOL0     C39643   6.267   7.784   3.586  0.0252 -0.5323  0.7062
  301MOL0    Cl39644   6.102   7.767   3.661 -0.0903  0.0141 -0.1378
  301MOL0     C39645   7.375   7.793   4.094 -0.0286 -0.1236  0.6771
  301MOL0     C39646   7.483   7.860   4.152 -0.5118 -1.2425 -0.4946
  301MOL0     O39647   7.621   7.897   4.409  0.4309 -0.0656 -0.3225
  301MOL0     C39648   7.850   8.158   4.319 -0.1038 -0.1129  0.2777
  301MOL0     C39649   7.987   8.183   4.344  0.4291  0.6230 -0.6585
  301MOL0     N39650   8.602   8.573   4.605  0.2543 -0.5215  0.2694
  301MOL0     N39651   8.693   8.640   4.533  0.6096 -0.6283  0.4631
  301MOL0     C39652   9.719   9.274   4.267  0.8556  0.1216 -0.5804
  301MOL0     C39653   9.857   9.296   4.292  0.1569 -0.1333  0.3117
  301MOL0     C39654  10.248   9.356   4.539 -0.2644 -0.7396 -0.4929
  301MOL0     C39655  10.330   9.433   4.620  0.1300  0.2314  0.1304
  301MOL0     C39656  10.463   9.412   4.625  0.0241  0.2711  0.6541
  301MOL0     C39657  10.523   9.309   4.550 -0.7410 -0.6353 -0.4243
  301MOL0     O39658  10.654   9.265   4.570 -0.6893  0.7807  0.3551
  301MOL0     C39659  10.748   9.339   4.653 -0.1378  0.7226  0.0497
  301MOL0     C39660  10.788   9.483   4.600 -0.0370  0.1801 -1.1767
  301MOL0     C39661  10.822   9.469   4.458  0.2639  1.0165 -0.8778
  301MOL0     C39662  10.924   9.575   4.418 -0.2589  0.1697  0.8405
  301MOL0     C39663  10.874   9.711   4.446  0.7508 -0.6286 -0.6076
  301MOL0     C39664  10.820   9.821   4.464 -0.7621 -0.6869  0.3319
  301MOL0     C39665  10.440   9.234   4.473 -0.3348 -0.4656 -0.2170
  301MOL0     C39666  10.306   9.254   4.458  0.2491 -0.7805  0.1499
  301MOL0     H39667   9.829   9.436   4.597  1.1637 -0.3602 -0.2372
  301MOL0     H39668   9.607   9.416   4.554  0.9219  1.0649  0.3115
  301MOL0     H39669   9.528   9.109   4.265  1.8651  1.4328 -0.3150
  301MOL0     H39670   9.372   9.195   4.212 -3.1738 -0.6161  1.5115
  301MOL0     H39671   9.279   9.139   4.426  0.0616  0.5410  0.1834
  301MOL0     H39672   9.433   9.068   4.479  1.0012 -0.9760 -0.2815
  301MOL0     H39673   9.402   8.901   4.266  1.0388  1.2954  0.7003
  301MOL0     H39674   9.241   8.971   4.251  0.6514  2.0803 -0.0213
  301MOL0     H39675   9.355   8.839   4.507  0.4178 -1.2163  0.1491
  301MOL0     H39676   9.192   8.907   4.493 -0.7327  1.7316 -1.9598
  301MOL0     H39677   9.253   8.698   4.287 -1.1050 -1.7453 -0.6239
  301MOL0     H39678   9.104   8.773   4.336  0.3374  2.9980  1.8373
  301MOL0     H39679   9.262   8.609   4.541 -0.2788  1.6587  0.3519
  301MOL0     H39680   9.180   8.520   4.409  3.2776 -1.2415  0.2088
  301MOL0     H39681   9.036   8.523   4.598  2.9762 -1.0687 -1.4962
  301MOL0     H39682   9.044   8.704   4.589  2.2942  1.1178 -2.2023
  301MOL0     H39683   8.941   8.519   4.364 -2.5539 -0.3967 -0.1226
  301MOL0     H39684   8.907   8.686   4.373 -1.2405  0.6757  2.6799
  301MOL0     H39685   8.818   8.340   4.539 -1.3757  0.1520 -0.7951
  301MOL0     H39686   8.573   8.325   4.765 -0.1399  1.5544  0.5735
  301MOL0     H39687   8.635   8.225   4.640  1.3404 -0.3990  3.5228
  301MOL0     H39688   8.399   8.417   4.607 -0.9576 -0.4728  0.5774
  301MOL0     H39689   8.381   8.256   4.685  2.0608 -0.4916  2.4874
  301MOL0     H39690   8.489   8.296   4.402  0.8551 -0.7707 -0.5347
  301MOL0     H39691   8.452   8.137   4.468  0.9982  0.7711  0.6476
  301MOL0     H39692   8.281   8.220   4.312 -1.7052 -1.4141  0.7850
  301MOL0     H39693   8.231   8.335   4.439  1.0089  0.7169 -2.0870
  301MOL0     H39694   8.044   7.984   4.617  1.5515  0.6560 -0.8255
  301MOL0     H39695   7.812   7.933   4.569 -1.6243 -0.3704 -2.3078
  301MOL0     H39696   7.330   8.163   4.208  1.1594  0.9911 -2.2571
  301MOL0     H39697   7.163   8.065   4.098 -0.7692 -2.5640 -1.0313
  301MOL0     H39698   7.051   7.954   3.929 -1.2190  2.6214  3.7476
  301MOL0     H39699   6.970   7.873   4.056  1.4290 -0.5812  0.9653
  301MOL0     H39700   6.966   7.666   3.916  1.4559 -0.7522 -2.3398
  301MOL0     H39701   7.006   7.753   3.760 -1.5829 -0.0857 -0.5961
  301MOL0     H39702   6.839   7.935   3.858 -2.0112  0.1677  2.0302
  301MOL0     H39703   6.786   7.801   3.955 -0.6011  0.7477 -0.2595
  301MOL0     H39704   6.793   7.796   3.646  2.8532 -0.7819  1.1462
  301MOL0     H39705   6.763   7.659   3.736 -0.1108 -0.7568  2.7543
  301MOL0     H39706   6.581   7.895   3.789 -1.3932 -0.4183 -1.8436
  301MOL0     H39707   6.560   7.728   3.849 -1.3986  2.0027  1.1663
  301MOL0     H39708   6.535   7.678   3.591  1.5177  0.2994 -0.3914
  301MOL0     H39709   6.532   7.847   3.571 -1.8469  2.0891  1.3911
  301MOL0     H39710   6.351   7.674   3.746 -2.3141  0.4424  2.9278
  301MOL0     H39711   6.343   7.847   3.769 -4.0192 -2.1824  0.1312
  301MOL0     H39712   6.277   7.715   3.502  1.0890  1.5115 -0.9700
  301MOL0     H39713   6.274   7.884   3.542 -2.3910 -0.7027 -0.1981
  301MOL0     H39714   7.394   7.689   4.070  0.4259 -0.2669  1.6096
  301MOL0     H39715   7.575   7.804   4.165 -0.1336 -2.1343 -5.1140
  301MOL0     H39716   7.792   8.207   4.242 -0.4556  0.5419  0.9438
  301MOL0     H39717   8.035   8.270   4.299  0.3259  1.4876  0.8180
  301MOL0     H39718   9.678   9.228   4.177 -1.0361 -0.9117  0.7429
  301MOL0     H39719   9.933   9.287   4.215 -0.6747  3.4203 -1.1111
  301MOL0     H39720  10.289   9.513   4.682  1.9607  2.3593 -1.2534
  301MOL0     H39721  10.518   9.487   4.682 -1.2468  1.2672  0.6032
  301MOL0     H39722  10.835   9.273   4.651  0.2147  1.1924 -0.9853
  301MOL0     H39723  10.709   9.339   4.755 -4.2608 -0.4077 -1.2936
  301MOL0     H39724  10.700   9.546   4.618 -2.2615 -2.1175 -3.2554
  301MOL0     H39725  10.872   9.516   4.663 -1.1171  0.5162  0.1457
  301MOL0     H39726  10.738   9.485   4.390  0.4822  3.0718 -0.7080
  301MOL0     H39727  10.870   9.371   4.448 -0.4204  0.3411  1.7405
  301MOL0     H39728  11.024   9.548   4.454 -0.0951 -0.6457 -0.1641
  301MOL0     H39729  10.942   9.580   4.311 -2.6968  0.3303  0.3864
  301MOL0     H39730  10.773   9.917   4.461  1.0755  0.5070  3.8685
  301MOL0     H39731  10.495   9.153   4.425  1.1908  0.9500 -0.9618
  301MOL0     H39732  10.252   9.187   4.391 -1.1286  1.9564 -1.6473
  302MOL0     O39733   5.352   5.564   9.140 -0.2930 -0.1370 -0.1494
  302MOL0     C39734   5.416   5.477   9.084  0.0646 -0.5278  0.2863
  302MOL0     O39735   5.360   5.369   9.022 -0.1452  0.4554  0.2198
  302MOL0     C39736   5.229   5.330   9.060 -0.4354 -0.7245  0.0074
  302MOL0     C39737   5.140   5.312   8.956  0.3802  1.0017  0.2529
  302MOL0     C39738   5.003   5.283   8.979 -0.8864  1.0314 -0.4189
  302MOL0     C39739   4.958   5.274   9.113  0.5564 -0.1127  0.4580
  302MOL0     O39740   4.827   5.243   9.132  1.0445 -0.1207  0.0379
  302MOL0     C39741   4.721   5.332   9.082 -0.7367 -1.1111 -0.1338
  302MOL0     C39742   4.572   5.288   9.082 -0.6517  0.4204 -0.3892
  302MOL0     C39743   4.482   5.401   9.026  0.0408 -0.9283  1.4470
  302MOL0     C39744   4.355   5.356   8.965  0.1850  0.2561  0.7841
  302MOL0     C39745   4.267   5.470   8.899  0.1181 -0.1839  0.9788
  302MOL0     C39746   4.224   5.574   9.004 -0.1911  0.2905  0.5085
  302MOL0     C39747   4.110   5.667   8.972 -0.3300 -0.9038 -0.2228
  302MOL0     C39748   3.981   5.588   8.988  0.8753  0.4681 -0.5489
  302MOL0     N39749   3.872   5.676   8.959 -0.3885 -0.1401  0.0361
  302MOL0     C39750   3.838   5.710   8.835  0.2302  0.2557  0.5114
  302MOL0     C39751   3.718   5.762   8.851 -0.0745  0.4595  0.4193
  302MOL0     C39752   3.637   5.815   8.729 -0.7341 -0.6535 -0.6245
  302MOL0     C39753   3.487   5.825   8.774 -0.1959  0.0937 -0.2691
  302MOL0     C39754   3.409   5.916   8.668 -1.3706 -0.0649 -0.5335
  302MOL0     C39755   3.288   5.997   8.717  1.3492 -0.5334 -0.0023
  302MOL0     O39756   3.227   5.924   8.827 -0.6581 -0.6218  0.4448
  302MOL0     C39757   3.142   5.977   8.925  0.0737 -0.2008  0.7728
  302MOL0     C39758   3.081   6.100   8.915  0.6789 -0.6323  0.5566
  302MOL0     C39759   2.969   6.128   8.994 -0.1464 -0.7005 -0.1299
  302MOL0     C39760   2.940   6.054   9.111 -0.7580  0.5309 -0.7707
  302MOL0     C39761   2.831   6.084   9.207 -0.3701  0.0864  1.1244
  302MOL0     O39762   2.744   6.179   9.159  0.0758 -0.0057 -0.4695
  302MOL0     C39763   2.618   6.214   9.203 -1.0097 -0.1385 -0.2571
  302MOL0     C39764   2.564   6.328   9.142 -0.5265 -0.3808 -0.6689
  302MOL0     C39765   2.450   6.383   9.187  0.8361 -0.8375 -0.8168
  302MOL0     C39766   2.380   6.335   9.295  0.9733  0.3657  0.9029
  302MOL0     O39767   2.276   6.404   9.337 -0.4360 -0.2894  0.6376
  302MOL0     C39768   2.173   6.336   9.419  0.3797  0.6845 -0.6561
  302MOL0     C39769   2.056   6.430   9.416 -0.3676  0.3483 -0.1581
  302MOL0     C39770   1.929   6.375   9.492 -0.9134  0.8765 -0.4476
  302MOL0     C39771   1.829   6.489   9.525 -0.5199  0.3502 -0.2332
  302MOL0     C39772   1.736   6.447   9.644 -0.2515 -0.0640 -0.3492
  302MOL0     C39773   1.640   6.558   9.695 -0.8097 -0.4083 -0.3955
  302MOL0     C39774   1.576   6.546   9.834 -0.2583 -0.1000  0.1181
  302MOL0     C39775   1.456   6.457   9.820  0.3750  0.4086 -1.2161
  302MOL0    Cl39776   1.484   6.275   9.831  0.2086  0.2080  0.4353
  302MOL0     C39777   2.431   6.225   9.361  0.1206  1.3218 -0.1655
  302MOL0     C39778   2.553   6.162   9.316  0.7357  0.3407  0.7667
  302MOL0     O39779   2.826   6.013   9.307 -1.0140 -0.0622  0.5947
  302MOL0     C39780   3.025   5.947   9.136 -0.0477 -0.4996  0.5328
  302MOL0     C39781   3.111   5.904   9.036  0.9394  0.5763 -0.6428
  302MOL0     N39782   3.683   5.767   8.989 -0.2953 -0.5548 -0.3104
  302MOL0     N39783   3.780   5.712   9.053  0.2760 -0.3551  0.4142
  302MOL0     C39784   5.053   5.287   9.216 -0.7444 -0.2074 -0.2228
  302MOL0     C39785   5.185   5.321   9.188  0.3021  0.1893 -1.2925
  302MOL0     C39786   5.561   5.470   9.085 -0.7977  0.6325 -0.3260
  302MOL0     C39787   5.632   5.569   9.156  0.3725  0.1355 -0.1376
  302MOL0     C39788   5.766   5.562   9.185 -0.6956 -1.0920 -0.1673
  302MOL0     C39789   5.846   5.456   9.136 -0.0558 -0.3293 -0.2880
  302MOL0     O39790   5.986   5.463   9.149  0.0710 -0.0380  0.0535
  302MOL0     C39791   6.073   5.366   9.090 -0.5027  0.2874  0.5249
  302MOL0     C39792   6.222   5.377   9.138  0.2090  0.4851 -0.1883
  302MOL0     C39793   6.321   5.340   9.017  1.0561  0.1340  0.0502
  302MOL0     C39794   6.465   5.345   9.071  0.4404 -0.2899  0.8253
  302MOL0     C39795   6.491   5.261   9.178 -0.1307  0.7973 -0.7256
  302MOL0     C39796   6.508   5.174   9.264 -0.4370  0.0171  1.0646
  302MOL0     C39797   5.776   5.358   9.062 -0.6819  0.1298 -0.4603
  302MOL0     C39798   5.638   5.360   9.038 -0.4473  0.7755 -0.1592
  302MOL0     H39799   5.189   5.295   8.860  0.6314  1.8835  0.2191
  302MOL0     H39800   4.935   5.253   8.901 -3.5904 -0.8022  2.4004
  302MOL0     H39801   4.742   5.360   8.978  3.4008 -2.9828 -0.0221
  302MOL0     H39802   4.732   5.429   9.132 -0.0070 -0.8261 -0.8195
  302MOL0     H39803   4.549   5.255   9.184 -2.9200 -0.0830 -1.0082
  302MOL0     H39804   4.578   5.196   9.022 -1.5570 -1.2587  1.9283
  302MOL0     H39805   4.545   5.464   8.962  1.0644 -2.4582  0.8807
  302MOL0     H39806   4.455   5.466   9.109  0.3278 -0.2539  1.0173
  302MOL0     H39807   4.365   5.272   8.896 -3.8893  0.3278 -0.1697
  302MOL0     H39808   4.300   5.301   9.042 -0.7801  0.0670 -0.0154
  302MOL0     H39809   4.183   5.426   8.845  2.4615 -1.0450 -2.3040
  302MOL0     H39810   4.326   5.525   8.825 -0.4212  1.1257  1.4997
  302MOL0     H39811   4.311   5.636   9.029 -0.3114  1.0193 -0.7642
  302MOL0     H39812   4.192   5.519   9.092 -3.3797  0.4565 -0.4200
  302MOL0     H39813   4.112   5.751   9.042 -0.6623  0.1487 -1.4501
  302MOL0     H39814   4.121   5.703   8.869  1.5355 -1.0782 -0.1174
  302MOL0     H39815   3.976   5.551   9.091  0.3103  1.0455 -0.3577
  302MOL0     H39816   3.974   5.500   8.924  0.5556 -0.0030  0.1249
  302MOL0     H39817   3.873   5.700   8.733  1.7876 -0.6186  1.0994
  302MOL0     H39818   3.628   5.758   8.636 -1.5669 -0.3066 -0.7634
  302MOL0     H39819   3.693   5.904   8.699  1.7764 -2.4807 -1.7442
  302MOL0     H39820   3.483   5.877   8.870  1.3916  2.1933 -1.2491
  302MOL0     H39821   3.450   5.723   8.782  1.2687 -0.3405  1.7109
  302MOL0     H39822   3.488   5.980   8.626  0.0642 -1.3265  0.1822
  302MOL0     H39823   3.384   5.851   8.584  1.0501  0.3348 -1.6757
  302MOL0     H39824   3.222   6.015   8.631  1.1418  1.4254  0.5202
  302MOL0     H39825   3.313   6.093   8.762 -2.6279 -0.4042  2.4341
  302MOL0     H39826   3.098   6.164   8.829 -1.4069 -0.3989  0.2637
  302MOL0     H39827   2.905   6.213   8.973  2.0916  1.1934  0.2872
  302MOL0     H39828   2.612   6.366   9.052 -1.4340 -0.3542 -1.1429
  302MOL0     H39829   2.412   6.475   9.143 -3.1479 -0.7514  2.2068
  302MOL0     H39830   2.213   6.349   9.520  1.8076 -1.6225 -0.8584
  302MOL0     H39831   2.149   6.236   9.383  1.2975 -0.0355  0.6243
  302MOL0     H39832   2.029   6.473   9.318 -1.8780  2.5446  1.1207
  302MOL0     H39833   2.076   6.526   9.464 -2.5449  2.2510 -2.6993
  302MOL0     H39834   1.966   6.332   9.585  0.0795  3.4495  0.4183
  302MOL0     H39835   1.884   6.298   9.428 -0.4923  1.4964 -1.5215
  302MOL0     H39836   1.893   6.575   9.543  1.7426 -1.1534 -0.6239
  302MOL0     H39837   1.775   6.502   9.430  1.3537  1.4509 -1.2075
  302MOL0     H39838   1.809   6.416   9.719  2.1298  1.5154 -1.8800
  302MOL0     H39839   1.674   6.359   9.625  0.8670 -1.4044  1.8532
  302MOL0     H39840   1.562   6.568   9.619  0.3340 -1.1212 -1.7291
  302MOL0     H39841   1.705   6.646   9.701 -1.0805 -0.2243 -0.1970
  302MOL0     H39842   1.644   6.503   9.907  2.0496  0.6775 -1.4822
  302MOL0     H39843   1.534   6.639   9.874 -0.8080  0.4619 -1.6589
  302MOL0     H39844   1.394   6.486   9.735 -0.4223 -3.5130 -2.2112
  302MOL0     H39845   1.402   6.490   9.910 -0.1503  1.8249 -2.0263
  302MOL0     H39846   2.377   6.181   9.444  0.2564  1.0823 -0.2017
  302MOL0     H39847   2.581   6.071   9.368 -0.1656 -0.3802  0.0244
  302MOL0     H39848   3.016   5.886   9.225  3.6880 -1.8074  0.1771
  302MOL0     H39849   3.157   5.806   9.045 -0.3403  0.1073  1.3409
  302MOL0     H39850   5.014   5.267   9.316  0.9425 -1.2309  0.2757
  302MOL0     H39851   5.253   5.325   9.272  0.2389  3.0091 -1.2530
  302MOL0     H39852   5.583   5.651   9.206  0.0337 -1.4581  2.2957
  302MOL0     H39853   5.811   5.648   9.234 -2.8021 -0.0828  0.1428
  302MOL0     H39854   6.068   5.374   8.981 -1.0775 -3.5246  0.1387
  302MOL0     H39855   6.040   5.262   9.099  1.1575 -0.2132  1.2301
  302MOL0     H39856   6.234   5.485   9.152 -1.9793  0.9313 -1.3137
  302MOL0     H39857   6.232   5.312   9.226 -2.5990 -0.9047 -0.7604
  302MOL0     H39858   6.308   5.422   8.945 -2.7188 -0.2545  0.0696
  302MOL0     H39859   6.299   5.241   8.978 -0.9309  0.1790  0.9315
  302MOL0     H39860   6.540   5.334   8.992  0.6025  3.6704  0.2506
  302MOL0     H39861   6.505   5.442   9.102  4.0843 -2.0098  2.1223
  302MOL0     H39862   6.525   5.101   9.341 -1.5431  0.8322  2.1133
  302MOL0     H39863   5.827   5.278   9.008 -0.1060  1.0800 -1.3630
  302MOL0     H39864   5.588   5.281   8.984 -1.2455  2.2267 -1.6330
  303MOL0     O39865  11.044   4.239   1.294  0.5968 -0.1581 -0.3951
  303MOL0     C39866  11.120   4.334   1.284 -0.7474 -0.6117 -0.3975
  303MOL0     O39867  11.085   4.459   1.253  0.3276 -0.3826  0.4444
  303MOL0     C39868  10.965   4.478   1.192 -1.6177 -0.7461 -0.7690
  303MOL0     C39869  10.943   4.443   1.056 -0.5624  1.6784 -0.3433
  303MOL0     C39870  10.815   4.432   1.008  0.0398 -0.1063  0.7311
  303MOL0     C39871  10.707   4.477   1.081  0.0639  0.3382 -0.7806
  303MOL0     O39872  10.580   4.468   1.034  0.0718  0.1918  0.4629
  303MOL0     C39873  10.463   4.469   1.113  0.5727  0.0495 -0.9724
  303MOL0     C39874  10.364   4.385   1.029  1.0976 -0.9597  0.8089
  303MOL0     C39875  10.301   4.471   0.919 -0.2595  0.6303  0.5926
  303MOL0     C39876  10.237   4.390   0.807  0.1953 -0.7583 -0.0739
  303MOL0     C39877  10.240   4.481   0.685 -0.0744 -0.5868 -0.6488
  303MOL0     C39878  10.163   4.408   0.579  0.0428  0.2869 -0.4254
  303MOL0     C39879  10.166   4.487   0.449 -0.8052 -0.1168 -0.7815
  303MOL0     C39880  10.074   4.429   0.346  0.2686 -0.3116 -1.1365
  303MOL0     N39881  10.052   4.511   0.222 -0.3361  0.8527 -0.0928
  303MOL0     C39882   9.928   4.531   0.163  0.1086  0.5357  0.4202
  303MOL0     C39883   9.961   4.586   0.040 -1.1053 -0.9839 -0.5043
  303MOL0     C39884   9.865   4.618  -0.074  0.0474  0.1845 -0.1737
  303MOL0     C39885   9.816   4.767  -0.069  0.0859 -0.2092  0.0072
  303MOL0     C39886   9.710   4.801   0.039  0.9059  0.7334 -0.8194
  303MOL0     C39887   9.633   4.921   0.022 -0.0598  0.1160  0.2667
  303MOL0     O39888   9.543   4.942   0.141 -0.7874 -0.1528  0.2089
  303MOL0     C39889   9.417   4.885   0.143 -0.8458  0.2239 -0.7883
  303MOL0     C39890   9.336   4.914   0.260  0.4425  0.2352  0.3218
  303MOL0     C39891   9.211   4.853   0.282  0.0028 -0.4965  0.3739
  303MOL0     C39892   9.156   4.767   0.184  0.1772  0.0239  0.3795
  303MOL0     C39893   9.017   4.723   0.192  0.7021  0.2562 -0.4085
  303MOL0     O39894   8.970   4.630   0.099  0.1871  0.4369 -0.7465
  303MOL0     C39895   8.846   4.571   0.117 -0.0620  0.1195 -1.0248
  303MOL0     C39896   8.735   4.622   0.050  0.1639 -0.5480  0.5057
  303MOL0     C39897   8.612   4.555   0.052 -0.2609 -0.8472 -1.1705
  303MOL0     C39898   8.614   4.438   0.120  0.1818  0.4551  0.2050
  303MOL0     O39899   8.487   4.379   0.113 -0.5699 -0.1192 -0.3964
  303MOL0     C39900   8.475   4.241   0.165 -0.0489 -0.0923  0.5127
  303MOL0     C39901   8.331   4.203   0.190  0.5768 -0.2687  0.0642
  303MOL0     C39902   8.304   4.083   0.276  0.2451  0.5376 -0.4879
  303MOL0     C39903   8.151   4.048   0.293 -0.2419  0.5381  0.0988
  303MOL0     C39904   8.135   3.912   0.361  0.3089 -0.4395  0.1396
  303MOL0     C39905   7.988   3.864   0.359  0.4771  0.2843 -0.5610
  303MOL0     C39906   7.965   3.764   0.475  0.0831 -0.0214  0.4782
  303MOL0     C39907   7.820   3.751   0.501 -0.1774  1.2372  0.2078
  303MOL0    Cl39908   7.725   3.740   0.347 -0.0926 -0.6863 -0.1437
  303MOL0     C39909   8.727   4.387   0.192 -0.3645 -0.0678  0.2952
  303MOL0     C39910   8.843   4.456   0.186 -1.2527 -0.4733  0.4341
  303MOL0     O39911   8.948   4.779   0.279  0.1244  0.0036  0.3097
  303MOL0     C39912   9.241   4.741   0.075  1.0549  0.4104 -0.5464
  303MOL0     C39913   9.370   4.793   0.052 -0.0841 -0.2946 -0.3423
  303MOL0     N39914  10.101   4.595   0.041  0.2847  0.2298  0.8540
  303MOL0     N39915  10.157   4.556   0.151 -0.3303  0.2489  0.2100
  303MOL0     C39916  10.728   4.517   1.217 -0.0417  0.6023  0.6920
  303MOL0     C39917  10.855   4.516   1.273  0.5646  0.3608 -0.3092
  303MOL0     C39918  11.261   4.306   1.312  1.6438  0.1982  0.5685
  303MOL0     C39919  11.303   4.184   1.356 -0.5302  0.6029  0.1356
  303MOL0     C39920  11.430   4.145   1.385 -1.0936 -0.1323 -0.8704
  303MOL0     C39921  11.527   4.238   1.378 -1.0331  0.2203  0.2891
  303MOL0     O39922  11.658   4.211   1.409 -0.1521 -0.1448  0.1967
  303MOL0     C39923  11.695   4.078   1.460  0.1286 -0.3609  0.5462
  303MOL0     C39924  11.846   4.079   1.467 -0.4987 -0.4228  0.3034
  303MOL0     C39925  11.894   4.144   1.604 -0.1751 -0.6574 -0.2661
  303MOL0     C39926  12.035   4.128   1.656 -0.4172 -0.6960  0.3007
  303MOL0     C39927  12.050   3.983   1.685  1.0889 -0.6469 -0.8693
  303MOL0     C39928  12.065   3.866   1.704  0.3051  0.0478 -0.5492
  303MOL0     C39929  11.490   4.368   1.360 -0.9127 -0.5239 -0.3124
  303MOL0     C39930  11.362   4.404   1.329  0.7076 -0.5270 -0.2121
  303MOL0     H39931  11.027   4.413   0.994  1.7028  0.6438  2.9510
  303MOL0     H39932  10.797   4.401   0.905  0.2207  2.2149 -0.0490
  303MOL0     H39933  10.429   4.570   1.133 -0.0271 -0.5421  1.2269
  303MOL0     H39934  10.470   4.422   1.211  1.3685  1.6049 -0.2502
  303MOL0     H39935  10.281   4.349   1.091 -0.0125  1.3567  0.7687
  303MOL0     H39936  10.414   4.299   0.983  0.0558 -0.6801 -0.9402
  303MOL0     H39937  10.374   4.534   0.868 -1.7714  1.5705 -0.4979
  303MOL0     H39938  10.241   4.544   0.974  0.9205 -1.2393  4.8217
  303MOL0     H39939  10.295   4.299   0.789  2.8454  0.7153  0.5335
  303MOL0     H39940  10.135   4.361   0.837 -0.1675  1.5727  1.1758
  303MOL0     H39941  10.341   4.504   0.653 -0.5671 -0.5742 -2.2758
  303MOL0     H39942  10.186   4.575   0.705 -0.3501 -1.0111  0.6912
  303MOL0     H39943  10.062   4.410   0.619  0.4822 -0.4100  0.7541
  303MOL0     H39944  10.196   4.305   0.560  0.7187  0.4001  0.0996
  303MOL0     H39945  10.152   4.595   0.452  1.0553  0.2343 -2.5020
  303MOL0     H39946  10.263   4.472   0.401 -0.1298 -0.1981  0.5582
  303MOL0     H39947   9.977   4.421   0.396  1.3579  1.9656  1.6244
  303MOL0     H39948  10.112   4.328   0.329 -0.3194 -0.4850 -1.4749
  303MOL0     H39949   9.828   4.521   0.203  1.1977 -0.6214  3.1208
  303MOL0     H39950   9.780   4.550  -0.080 -1.0826  1.5202  0.2869
  303MOL0     H39951   9.907   4.597  -0.173 -0.3567  1.3115 -0.5996
  303MOL0     H39952   9.768   4.804  -0.160 -1.3248  1.9580  1.5115
  303MOL0     H39953   9.910   4.821  -0.064  1.2927 -2.1147 -0.7923
  303MOL0     H39954   9.643   4.715   0.045 -0.6995  2.0091  0.6787
  303MOL0     H39955   9.753   4.807   0.139  1.1290  1.9391 -0.9691
  303MOL0     H39956   9.579   4.929  -0.073 -0.2090  1.6694  0.4488
  303MOL0     H39957   9.703   5.004   0.013  0.9705 -0.6859  0.7506
  303MOL0     H39958   9.382   4.982   0.331  2.0286  1.3633 -1.6630
  303MOL0     H39959   9.152   4.876   0.370  0.6652  2.4955  0.1484
  303MOL0     H39960   8.762   4.710  -0.009  0.8568 -1.0786  0.0183
  303MOL0     H39961   8.522   4.583  -0.001  1.0521  3.0543 -1.6929
  303MOL0     H39962   8.529   4.237   0.260  0.9952 -0.6076 -0.0750
  303MOL0     H39963   8.521   4.164   0.101 -0.3030 -1.7434  2.2083
  303MOL0     H39964   8.281   4.186   0.094 -1.1894  1.8782  0.5039
  303MOL0     H39965   8.271   4.286   0.229  0.6034 -1.0637  1.8895
  303MOL0     H39966   8.346   4.099   0.375 -0.7339 -0.2375  0.0792
  303MOL0     H39967   8.352   4.003   0.220  1.2825  0.0720  1.0154
  303MOL0     H39968   8.122   4.113   0.376  1.0884 -1.2141  2.0537
  303MOL0     H39969   8.093   4.042   0.201 -1.0355  1.0340  0.5540
  303MOL0     H39970   8.175   3.925   0.462  2.7191 -0.1857 -0.7780
  303MOL0     H39971   8.200   3.837   0.312 -1.3864 -0.3312 -2.4829
  303MOL0     H39972   7.979   3.814   0.263  0.6372 -1.9654  0.5322
  303MOL0     H39973   7.921   3.950   0.355 -0.4502 -0.4594 -4.5407
  303MOL0     H39974   8.028   3.674   0.467  0.5578  0.3001  0.5669
  303MOL0     H39975   8.002   3.817   0.563  2.0593  1.5913 -1.2367
  303MOL0     H39976   7.778   3.829   0.564  0.6583 -0.2688  2.7802
  303MOL0     H39977   7.802   3.656   0.552 -0.2369 -0.9472 -3.4642
  303MOL0     H39978   8.729   4.291   0.243 -0.5555  0.7064  1.8056
  303MOL0     H39979   8.941   4.438   0.228  0.7759  3.1720 -2.1458
  303MOL0     H39980   9.201   4.667   0.006 -0.1578 -2.4030  2.8191
  303MOL0     H39981   9.430   4.748  -0.027  1.5677 -1.3731  1.4541
  303MOL0     H39982  10.640   4.545   1.274 -2.4423 -0.7841 -2.0336
  303MOL0     H39983  10.874   4.549   1.374 -1.1476 -2.3073  1.0150
  303MOL0     H39984  11.229   4.105   1.360 -1.8218  1.7458  4.0028
  303MOL0     H39985  11.456   4.043   1.413 -0.7147  0.3894  0.7631
  303MOL0     H39986  11.669   4.006   1.382  0.1321  1.2634 -1.0077
  303MOL0     H39987  11.636   4.057   1.550 -1.2041  5.3981  1.3850
  303MOL0     H39988  11.881   3.976   1.458 -0.8408 -0.3796 -2.3426
  303MOL0     H39989  11.901   4.133   1.389 -1.8449  0.4161 -0.1070
  303MOL0     H39990  11.816   4.112   1.673 -1.4473  0.8966 -0.9039
  303MOL0     H39991  11.879   4.252   1.599 -0.0927 -0.1355  5.2438
  303MOL0     H39992  12.115   4.156   1.587  0.8218 -2.1425  1.0921
  303MOL0     H39993  12.043   4.189   1.747 -0.4248  0.1508 -0.2545
  303MOL0     H39994  12.085   3.760   1.705  0.3619  0.0622 -0.1167
  303MOL0     H39995  11.561   4.450   1.367 -1.3436 -0.1757  0.0778
  303MOL0     H39996  11.342   4.508   1.303 -0.0392 -0.9492 -1.3924
  304MOL0     O39997   7.980   2.596   1.956 -0.1716  0.2900 -0.1711
  304MOL0     C39998   8.020   2.532   2.044  0.3838  0.8428 -0.5117
  304MOL0     O39999   7.944   2.448   2.129 -0.3020 -0.7051  0.0320
  304MOL0     C40000   7.802   2.442   2.125 -0.6486 -0.2329  0.9975
  304MOL0     C40001   7.705   2.536   2.080  0.1653  0.0935  0.5667
  304MOL0     C40002   7.570   2.513   2.065  1.1870  0.0660 -0.8476
  304MOL0     C40003   7.518   2.393   2.109 -0.7471 -0.3989  0.8199
  304MOL0     O40004   7.391   2.370   2.088  0.6909 -0.2179 -0.1556
  304MOL0     C40005   7.320   2.306   2.192 -0.2525 -0.0932 -0.4457
  304MOL0     C40006   7.168   2.309   2.195  0.7924  0.1405  0.2949
  304MOL0     C40007   7.120   2.220   2.301  0.4239 -0.0225  0.3943
  304MOL0     C40008   6.979   2.163   2.262  0.9838 -0.6133 -0.9352
  304MOL0     C40009   6.857   2.276   2.238  0.5650  0.0185 -0.4838
  304MOL0     C40010   6.811   2.356   2.350 -0.0154 -0.1931 -0.4909
  304MOL0     C40011   6.689   2.453   2.323 -0.3674 -0.0658  0.4787
  304MOL0     C40012   6.595   2.387   2.225 -0.1282 -0.3381 -1.1619
  304MOL0     N40013   6.468   2.450   2.220  0.5278  1.2428  0.4616
  304MOL0     C40014   6.425   2.536   2.125  0.7825  0.5560  0.6206
  304MOL0     C40015   6.304   2.580   2.166  0.0880 -0.3717  0.0510
  304MOL0     C40016   6.203   2.648   2.076  0.6272 -0.5881  0.5671
  304MOL0     C40017   6.093   2.704   2.164 -0.8958  0.5772 -0.7174
  304MOL0     C40018   5.991   2.777   2.077  0.1362  0.1651  0.1696
  304MOL0     C40019   5.876   2.821   2.169 -0.4327 -0.1693  0.5078
  304MOL0     O40020   5.777   2.876   2.081  0.7270  0.3235 -0.2111
  304MOL0     C40021   5.650   2.890   2.133 -0.1209 -0.1202 -0.5237
  304MOL0     C40022   5.599   2.849   2.255 -0.5250 -0.0399  0.3709
  304MOL0     C40023   5.473   2.872   2.294  0.4255 -0.4708 -0.6554
  304MOL0     C40024   5.382   2.962   2.229  0.4406 -0.7004 -0.3780
  304MOL0     C40025   5.249   3.005   2.283  0.6027  0.0593 -0.4436
  304MOL0     O40026   5.176   3.098   2.218  0.2329  0.9217 -0.1895
  304MOL0     C40027   5.046   3.123   2.254  0.2405 -0.3079 -0.1984
  304MOL0     C40028   4.948   3.046   2.192  0.2286  0.1038  0.3983
  304MOL0     C40029   4.810   3.072   2.219  0.0074  0.0441  0.6852
  304MOL0     C40030   4.772   3.186   2.294  0.1086 -0.5735  0.6518
  304MOL0     O40031   4.640   3.225   2.312  0.0957 -0.9488 -0.8188
  304MOL0     C40032   4.546   3.162   2.229 -0.2862  0.3163  0.1025
  304MOL0     C40033   4.410   3.233   2.259  0.5721 -0.2991  0.2302
  304MOL0     C40034   4.295   3.144   2.198 -0.3497  0.3032  0.1686
  304MOL0     C40035   4.169   3.188   2.274  0.1468 -0.2859 -0.3442
  304MOL0     C40036   4.108   3.315   2.218  0.1826 -0.3405 -0.6942
  304MOL0     C40037   3.979   3.367   2.280 -0.8025  1.3692 -1.0300
  304MOL0     C40038   3.858   3.271   2.249  0.1291 -0.6649 -0.2840
  304MOL0     C40039   3.815   3.245   2.094 -0.0308 -1.3203  0.7686
  304MOL0    Cl40040   3.930   3.114   2.027  0.3613 -0.1948 -0.2191
  304MOL0     C40041   4.873   3.262   2.353  0.1462  0.1170 -0.3056
  304MOL0     C40042   5.010   3.223   2.341  0.6527 -0.5253 -0.0185
  304MOL0     O40043   5.219   2.952   2.390  0.0975 -0.4526  0.1305
  304MOL0     C40044   5.429   3.015   2.097  0.0521 -0.0627 -0.4710
  304MOL0     C40045   5.564   2.974   2.052  0.1948 -0.7987 -1.0776
  304MOL0     N40046   6.273   2.519   2.287  0.1773  0.4388  0.0756
  304MOL0     N40047   6.371   2.439   2.312  0.1885  0.3703  0.1466
  304MOL0     C40048   7.609   2.291   2.154  0.6015 -1.1814  0.3372
  304MOL0     C40049   7.749   2.313   2.157  0.3448  0.2931  0.2413
  304MOL0     C40050   8.161   2.526   2.042 -1.2523  0.6605  0.4356
  304MOL0     C40051   8.235   2.631   1.973 -0.4425 -0.2296 -0.4818
  304MOL0     C40052   8.377   2.624   1.969 -0.2517  0.0953 -0.3623
  304MOL0     C40053   8.442   2.521   2.035  0.5824  0.1636  0.4619
  304MOL0     O40054   8.575   2.507   2.013 -0.6408  0.5448 -0.7998
  304MOL0     C40055   8.643   2.389   2.044  0.7999  0.0759 -0.2283
  304MOL0     C40056   8.787   2.409   1.989  0.1284 -0.3812  0.0272
  304MOL0     C40057   8.854   2.537   2.045  0.3653  0.1424 -0.9775
  304MOL0     C40058   9.013   2.539   2.039 -0.5224 -0.0119 -0.3978
  304MOL0     C40059   9.045   2.627   1.931 -0.2499 -0.0189 -0.3459
  304MOL0     C40060   9.048   2.694   1.829 -0.0347 -0.2246  0.1977
  304MOL0     C40061   8.371   2.423   2.105 -0.4228 -0.4805  0.0985
  304MOL0     C40062   8.232   2.425   2.109  0.0303  0.2868  0.0115
  304MOL0     H40063   7.743   2.637   2.071  2.1599 -0.3975  2.5555
  304MOL0     H40064   7.496   2.590   2.046 -0.0296 -0.6967  0.5746
  304MOL0     H40065   7.356   2.347   2.286 -0.0285 -0.4449 -0.3761
  304MOL0     H40066   7.357   2.203   2.196 -0.7967 -0.2483  0.7603
  304MOL0     H40067   7.131   2.280   2.096 -0.8843  1.6422  0.4386
  304MOL0     H40068   7.136   2.413   2.203  1.9818  0.6407 -1.0248
  304MOL0     H40069   7.107   2.270   2.398 -0.4906  1.9192 -0.6709
  304MOL0     H40070   7.185   2.133   2.311  1.2277  0.4166 -0.8257
  304MOL0     H40071   6.977   2.113   2.165 -1.5675 -2.3627 -0.0919
  304MOL0     H40072   6.950   2.095   2.343  0.9706  0.6019  0.1150
  304MOL0     H40073   6.769   2.221   2.204  0.5749 -0.3955  0.1512
  304MOL0     H40074   6.883   2.344   2.156 -0.2351  0.2562 -0.5524
  304MOL0     H40075   6.901   2.405   2.389 -0.6519  0.0733  0.7044
  304MOL0     H40076   6.793   2.295   2.439 -0.5176 -0.8931 -1.0617
  304MOL0     H40077   6.643   2.467   2.421  0.1903 -0.9964  0.8868
  304MOL0     H40078   6.704   2.554   2.283 -0.9657 -0.0737  0.2164
  304MOL0     H40079   6.577   2.282   2.252 -0.3516  0.5236  2.5735
  304MOL0     H40080   6.634   2.387   2.123 -1.7959  0.2329 -1.8332
  304MOL0     H40081   6.481   2.563   2.037  0.8459  1.0848  0.8224
  304MOL0     H40082   6.165   2.576   2.003  1.5149  1.4116 -2.0083
  304MOL0     H40083   6.251   2.738   2.036 -1.8789  0.1969 -0.8761
  304MOL0     H40084   6.136   2.767   2.243  2.0914 -0.6995 -1.2064
  304MOL0     H40085   6.044   2.620   2.212 -0.4284  0.6811 -0.0473
  304MOL0     H40086   6.032   2.861   2.020  1.3539 -2.6508 -3.4756
  304MOL0     H40087   5.943   2.712   2.003  0.3747 -2.6836  2.3521
  304MOL0     H40088   5.936   2.892   2.227 -0.1212  0.8309 -0.9967
  304MOL0     H40089   5.831   2.736   2.221 -1.4943  0.8376  1.2862
  304MOL0     H40090   5.669   2.796   2.318  0.9158  1.4987  0.1269
  304MOL0     H40091   5.443   2.838   2.393 -0.6905 -1.7352 -1.3986
  304MOL0     H40092   4.973   2.955   2.139  2.1895  0.7508  0.1243
  304MOL0     H40093   4.738   3.010   2.167 -0.6632  3.6537 -3.2646
  304MOL0     H40094   4.537   3.057   2.259  0.3142  0.0374 -0.6759
  304MOL0     H40095   4.563   3.162   2.121  0.0057  2.4621  0.1023
  304MOL0     H40096   4.413   3.334   2.219  2.0180  0.5065  2.2053
  304MOL0     H40097   4.402   3.246   2.367  1.1091  1.4901  0.0887
  304MOL0     H40098   4.302   3.037   2.221 -1.1614 -0.1014 -1.3336
  304MOL0     H40099   4.289   3.153   2.089 -1.5853 -1.3735  0.0505
  304MOL0     H40100   4.101   3.103   2.277 -0.5778  0.2964  0.4262
  304MOL0     H40101   4.184   3.215   2.380 -2.0872 -0.6139  0.0998
  304MOL0     H40102   4.095   3.295   2.111  2.7689 -0.6333 -1.0253
  304MOL0     H40103   4.183   3.395   2.227 -0.0810  0.0466 -1.8013
  304MOL0     H40104   3.963   3.470   2.247 -1.3778  2.0809  1.3041
  304MOL0     H40105   4.009   3.369   2.385  0.7068 -0.5639 -1.3638
  304MOL0     H40106   3.883   3.173   2.292 -1.8131  0.8275  5.0100
  304MOL0     H40107   3.782   3.313   2.315  0.3592 -1.9180  0.8249
  304MOL0     H40108   3.820   3.335   2.031  0.8628 -1.2685  0.9077
  304MOL0     H40109   3.709   3.220   2.087 -0.3655  0.1703 -0.0461
  304MOL0     H40110   4.851   3.343   2.421  2.1482  0.6004 -0.1789
  304MOL0     H40111   5.088   3.267   2.402 -1.0618 -0.4100  2.1992
  304MOL0     H40112   5.362   3.078   2.039  0.2136 -0.5119 -1.1559
  304MOL0     H40113   5.611   3.008   1.961 -0.6296  0.9262 -0.9082
  304MOL0     H40114   7.564   2.195   2.180 -1.4956  0.3672  3.0536
  304MOL0     H40115   7.815   2.233   2.189 -1.3632 -1.2569  0.0891
  304MOL0     H40116   8.177   2.708   1.921 -3.1009  0.4265  3.0779
  304MOL0     H40117   8.438   2.692   1.911  0.3634 -0.1116  0.0227
  304MOL0     H40118   8.600   2.298   2.002 -0.6511  0.5554  0.1606
  304MOL0     H40119   8.642   2.370   2.152 -2.5475  2.8333  0.3870
  304MOL0     H40120   8.847   2.319   2.010  1.4099  0.3393 -0.4262
  304MOL0     H40121   8.778   2.423   1.881 -2.7533  1.2229  0.3845
  304MOL0     H40122   8.830   2.557   2.149  1.3380 -1.3255 -0.4413
  304MOL0     H40123   8.817   2.623   1.989 -1.7880  1.0004  1.5814
  304MOL0     H40124   9.043   2.591   2.131 -2.5222 -0.6723  0.6769
  304MOL0     H40125   9.053   2.440   2.017  3.5460  1.5087 -0.6605
  304MOL0     H40126   9.036   2.761   1.746  0.0351 -3.0542 -2.2451
  304MOL0     H40127   8.418   2.342   2.160  0.7006 -0.0643 -0.2226
  304MOL0     H40128   8.185   2.344   2.163 -0.4944  0.5797  0.0089
  305MOL0     O40129   5.142  11.073  11.222 -0.1384  0.5685  0.5809
  305MOL0     C40130   5.217  11.017  11.296 -0.6127  0.2879 -0.7464
  305MOL0     O40131   5.187  10.906  11.358 -0.0788 -0.3381  0.0088
  305MOL0     C40132   5.070  10.844  11.349  0.6509  0.5481  0.3934
  305MOL0     C40133   5.072  10.705  11.350  0.3383  0.0031  0.1197
  305MOL0     C40134   4.943  10.640  11.346 -0.2603 -0.0420 -0.1879
  305MOL0     C40135   4.828  10.707  11.351  0.2335 -0.2233  0.2106
  305MOL0     O40136   4.724  10.623  11.363 -0.0626 -0.1978  0.4743
  305MOL0     C40137   4.594  10.681  11.336  0.7828  0.4540  0.4575
  305MOL0     C40138   4.493  10.567  11.350  0.6300  0.2081 -0.2168
  305MOL0     C40139   4.347  10.622  11.342 -0.0114  0.5188  0.2984
  305MOL0     C40140   4.265  10.492  11.300  0.3212  0.9825 -0.3743
  305MOL0     C40141   4.114  10.532  11.270  0.3903  0.6057 -0.4840
  305MOL0     C40142   4.036  10.590  11.394 -0.3356 -0.5573 -0.0446
  305MOL0     C40143   3.899  10.654  11.366  0.4701 -0.2804  0.2845
  305MOL0     C40144   3.894  10.789  11.308  0.1418 -0.3027 -0.4856
  305MOL0     N40145   3.771  10.866  11.355 -0.8057  0.4019  0.3889
  305MOL0     C40146   3.645  10.820  11.336 -0.6882  0.3778  0.6390
  305MOL0     C40147   3.562  10.906  11.394  0.1110  0.2889  1.0037
  305MOL0     C40148   3.412  10.911  11.388 -0.2109 -0.0097 -0.6778
  305MOL0     C40149   3.365  10.951  11.247 -0.0130  0.1156 -0.5203
  305MOL0     C40150   3.214  10.989  11.218 -0.3746  0.1315  0.4487
  305MOL0     C40151   3.125  10.895  11.304 -0.4113 -0.6168  0.0082
  305MOL0     O40152   2.991  10.915  11.263  0.1911  0.4803 -0.8290
  305MOL0     C40153   2.902  10.815  11.298 -0.4731  0.1097  1.1430
  305MOL0     C40154   2.780  10.817  11.228 -0.2839 -0.8041 -0.1898
  305MOL0     C40155   2.680  10.732  11.270  0.2512 -0.2483  0.8426
  305MOL0     C40156   2.697  10.634  11.364 -0.5157 -0.6076  0.0109
  305MOL0     C40157   2.585  10.549  11.405  0.2747  0.1905 -0.2789
  305MOL0     O40158   2.610  10.472  11.511 -0.8261  0.8173 -0.3070
  305MOL0     C40159   2.542  10.362  11.562  1.2819  0.2367  0.9723
  305MOL0     C40160   2.514  10.256  11.471  0.1988 -0.1924  0.2858
  305MOL0     C40161   2.440  10.151  11.521 -0.0568 -0.1220  0.3419
  305MOL0     C40162   2.405  10.128  11.655 -0.6011  0.3723  0.7173
  305MOL0     O40163   2.339  10.022  11.719 -0.9319  0.4362  0.5686
  305MOL0     C40164   2.386   9.896  11.674 -0.9181  0.3402  0.5119
  305MOL0     C40165   2.324   9.780  11.766  0.6006 -0.0116 -0.0809
  305MOL0     C40166   2.335   9.822  11.912 -0.3530 -0.3092  0.1856
  305MOL0     C40167   2.322   9.699  12.007  0.2975  0.1149 -0.0189
  305MOL0     C40168   2.329   9.743  12.152 -0.6152  0.0571 -0.1882
  305MOL0     C40169   2.202   9.814  12.199 -0.1056  0.2312 -0.0875
  305MOL0     C40170   2.211   9.876  12.333 -0.3931 -0.7388  0.1818
  305MOL0     C40171   2.346   9.932  12.379  0.7951  0.2452  0.6178
  305MOL0    Cl40172   2.332  10.039  12.526  0.5868 -0.2467 -0.4029
  305MOL0     C40173   2.454  10.229  11.741  0.8606  0.5727 -0.4774
  305MOL0     C40174   2.503  10.351  11.693  0.5511 -0.7695  0.0739
  305MOL0     O40175   2.486  10.546  11.336 -0.7756  0.1411  0.5001
  305MOL0     C40176   2.824  10.626  11.423 -0.8314  0.1479 -0.2986
  305MOL0     C40177   2.925  10.714  11.389 -0.4201  1.0099  0.9336
  305MOL0     N40178   3.644  10.999  11.446  0.4318  0.4102 -0.4577
  305MOL0     N40179   3.768  10.977  11.427  0.1960  0.0909 -0.7689
  305MOL0     C40180   4.822  10.849  11.357 -0.2937 -1.0193  1.2234
  305MOL0     C40181   4.944  10.914  11.363 -0.1326  0.5220 -0.0859
  305MOL0     C40182   5.361  11.068  11.315  0.9730  0.1556 -0.1362
  305MOL0     C40183   5.400  11.194  11.257 -0.6491  0.8308 -0.1912
  305MOL0     C40184   5.526  11.247  11.281 -0.1459  0.0767 -0.3874
  305MOL0     C40185   5.616  11.180  11.363 -0.5596  0.7229  0.3343
  305MOL0     O40186   5.738  11.241  11.377 -0.0626  0.4596 -0.8020
  305MOL0     C40187   5.835  11.203  11.478  0.9863  0.0858  0.3310
  305MOL0     C40188   5.971  11.271  11.463  0.2721 -0.4232 -0.6835
  305MOL0     C40189   5.987  11.392  11.557 -0.8683 -0.2052 -1.1764
  305MOL0     C40190   6.076  11.506  11.498 -0.0347  0.0131 -0.3216
  305MOL0     C40191   6.204  11.465  11.436 -0.1927  0.2738  0.5934
  305MOL0     C40192   6.291  11.418  11.363 -0.4420  0.8794 -0.3402
  305MOL0     C40193   5.569  11.056  11.411 -0.0287 -0.8467 -0.5329
  305MOL0     C40194   5.446  10.997  11.391 -0.5944  0.8344 -0.4675
  305MOL0     H40195   5.161  10.643  11.352  0.9259  0.8395  1.4765
  305MOL0     H40196   4.934  10.532  11.337 -1.6930  0.0686 -0.3346
  305MOL0     H40197   4.579  10.720  11.235 -3.3535 -0.6395  0.4703
  305MOL0     H40198   4.577  10.760  11.410 -0.9163 -0.2158  0.8248
  305MOL0     H40199   4.499  10.525  11.451  2.5716  1.0948  0.0873
  305MOL0     H40200   4.512  10.491  11.273  0.9178  0.8202 -0.7680
  305MOL0     H40201   4.340  10.697  11.263  1.7840  0.1230 -0.2842
  305MOL0     H40202   4.311  10.665  11.436 -0.9740  0.9381 -0.2497
  305MOL0     H40203   4.301  10.459  11.202  3.1290 -0.9467  1.1631
  305MOL0     H40204   4.270  10.405  11.366 -0.3658 -1.7655 -3.6384
  305MOL0     H40205   4.058  10.447  11.231  0.2313  0.9914 -1.1232
  305MOL0     H40206   4.112  10.605  11.188 -1.3196 -0.9187 -1.8966
  305MOL0     H40207   4.092  10.665  11.449 -3.0033  0.6973  1.1318
  305MOL0     H40208   4.035  10.511  11.470  2.5999  0.0934  0.7920
  305MOL0     H40209   3.833  10.586  11.311 -1.9708  4.6150 -3.5848
  305MOL0     H40210   3.857  10.662  11.467 -0.1384  2.2105 -0.0992
  305MOL0     H40211   3.890  10.777  11.199  0.9500 -1.5923 -0.3925
  305MOL0     H40212   3.982  10.847  11.337 -1.2496  1.4087  0.4762
  305MOL0     H40213   3.613  10.733  11.281  0.3212  1.3827 -1.6829
  305MOL0     H40214   3.368  10.978  11.463  0.0647  0.6656 -1.1063
  305MOL0     H40215   3.382  10.808  11.406  1.0250 -0.2445  0.1167
  305MOL0     H40216   3.392  10.868  11.181 -1.6599 -0.0265 -1.0748
  305MOL0     H40217   3.427  11.039  11.230  1.1625 -0.2154  1.6846
  305MOL0     H40218   3.206  11.093  11.254 -0.5988 -0.0121  0.8255
  305MOL0     H40219   3.198  10.986  11.110  2.9224 -2.8231 -0.1000
  305MOL0     H40220   3.140  10.905  11.411 -2.8373  3.6803  0.1862
  305MOL0     H40221   3.155  10.793  11.280  0.7940  0.1745 -2.1244
  305MOL0     H40222   2.760  10.888  11.148 -1.5407  0.7726  1.4435
  305MOL0     H40223   2.591  10.729  11.208  0.2554 -1.9304  0.8651
  305MOL0     H40224   2.564  10.264  11.375 -1.1863  1.0432 -0.3841
  305MOL0     H40225   2.404  10.073  11.454  1.0067 -1.2045  0.9973
  305MOL0     H40226   2.495   9.888  11.681 -0.5070  3.0878 -1.0277
  305MOL0     H40227   2.365   9.883  11.567 -0.0788 -1.5428  0.5422
  305MOL0     H40228   2.362   9.680  11.747  0.0860 -0.4583  1.1646
  305MOL0     H40229   2.221   9.784  11.730  0.5281  0.5885  0.1692
  305MOL0     H40230   2.260   9.901  11.928 -0.3232 -0.1133 -0.6261
  305MOL0     H40231   2.435   9.862  11.929 -0.3048  0.1987 -1.1687
  305MOL0     H40232   2.228   9.648  11.986  0.0420  1.0918 -1.3853
  305MOL0     H40233   2.395   9.620  11.987  1.2464  0.9031  0.2387
  305MOL0     H40234   2.424   9.794  12.166 -0.9884  1.0764 -1.1796
  305MOL0     H40235   2.339   9.647  12.204 -0.8601 -1.3147 -2.5171
  305MOL0     H40236   2.107   9.761  12.193 -1.4551  2.5190 -0.0520
  305MOL0     H40237   2.181   9.900  12.135  1.2960  0.3866 -0.3727
  305MOL0     H40238   2.129   9.947  12.347 -0.0241 -0.4867  1.0978
  305MOL0     H40239   2.191   9.790  12.398  2.1035 -0.5165  1.3422
  305MOL0     H40240   2.391   9.996  12.302  3.1809 -1.1315  0.7705
  305MOL0     H40241   2.421   9.854  12.395  0.1301 -0.5718 -0.1638
  305MOL0     H40242   2.422  10.221  11.845  0.2347 -0.6722 -0.7426
  305MOL0     H40243   2.533  10.432  11.759 -1.5500  0.9578 -0.9641
  305MOL0     H40244   2.838  10.563  11.509  0.8399  1.0562  0.1350
  305MOL0     H40245   3.016  10.717  11.448 -0.6195 -0.4660  1.3549
  305MOL0     H40246   4.725  10.896  11.347  0.0780 -0.4872 -0.0713
  305MOL0     H40247   4.944  11.022  11.371  0.2057  0.5100  0.1071
  305MOL0     H40248   5.328  11.248  11.196 -3.7856 -3.6924 -0.9830
  305MOL0     H40249   5.550  11.335  11.221 -4.3205  1.6863 -0.0265
  305MOL0     H40250   5.860  11.098  11.465  0.6338  0.2651 -2.6988
  305MOL0     H40251   5.794  11.226  11.576 -0.9005  0.1975 -0.4447
  305MOL0     H40252   6.043  11.198  11.501  1.5733  2.4193  2.9375
  305MOL0     H40253   6.004  11.300  11.362 -1.0162 -1.5286 -1.4568
  305MOL0     H40254   6.048  11.351  11.638  0.3243  1.1230 -1.3525
  305MOL0     H40255   5.897  11.422  11.611 -1.5028  1.5703 -3.1057
  305MOL0     H40256   6.021  11.568  11.427 -0.3275  0.6750  0.4671
  305MOL0     H40257   6.105  11.576  11.577  0.1183 -1.1520  0.6952
  305MOL0     H40258   6.360  11.364  11.301 -0.7603  0.3110 -0.2134
  305MOL0     H40259   5.642  11.001  11.470 -0.5908  0.8580  1.9160
  305MOL0     H40260   5.410  10.908  11.441  2.9459  1.0924  2.9910
  306MOL0     O40261   0.621   8.068   1.343 -1.0275 -0.1832 -0.9387
  306MOL0     C40262   0.720   8.043   1.414 -0.5041 -0.4624  0.9666
  306MOL0     O40263   0.718   7.979   1.535 -0.0722  0.5601 -0.3521
  306MOL0     C40264   0.607   7.936   1.593  0.0506 -0.6189 -0.0601
  306MOL0     C40265   0.643   7.840   1.681 -0.5594  0.0516 -1.0985
  306MOL0     C40266   0.549   7.779   1.764 -0.1122 -0.1960 -0.0788
  306MOL0     C40267   0.420   7.811   1.749  0.1528 -0.3296  0.2102
  306MOL0     O40268   0.323   7.742   1.821  0.1441  0.1516 -0.1610
  306MOL0     C40269   0.224   7.831   1.876  0.5689  0.2020  0.1036
  306MOL0     C40270   0.158   7.778   2.006 -0.9279 -0.3239  0.6932
  306MOL0     C40271   0.038   7.853   2.042 -0.1337 -0.4240  0.4993
  306MOL0     C40272  -0.028   7.800   2.167  0.3093  0.9989 -0.0914
  306MOL0     C40273  -0.166   7.856   2.183  0.5667  0.5264 -0.0107
  306MOL0     C40274  -0.242   7.803   2.307 -0.2173 -0.0429  0.2344
  306MOL0     C40275  -0.378   7.874   2.312 -0.1365 -0.9370 -0.4874
  306MOL0     C40276  -0.477   7.822   2.416 -0.1125  0.1202 -0.1116
  306MOL0     N40277  -0.613   7.875   2.397 -0.4364 -0.5211 -0.7246
  306MOL0     C40278  -0.693   7.853   2.291 -0.2616  0.0513  0.3932
  306MOL0     C40279  -0.771   7.967   2.289 -0.1932  0.8906  1.1496
  306MOL0     C40280  -0.877   7.983   2.181  0.3644 -0.2285 -0.5411
  306MOL0     C40281  -0.988   7.875   2.209  0.4208  0.8033 -0.2153
  306MOL0     C40282  -1.078   7.884   2.084  0.0425  0.3195 -0.6815
  306MOL0     C40283  -1.170   8.012   2.079  0.1118 -0.3251  0.1164
  306MOL0     O40284  -1.252   8.006   1.957 -0.2652  0.5769 -0.8898
  306MOL0     C40285  -1.381   7.961   1.968 -0.0937  0.4369 -0.4711
  306MOL0     C40286  -1.453   7.968   1.850  0.0302  0.0859 -0.4493
  306MOL0     C40287  -1.583   7.917   1.847 -0.5621  0.1048  0.4357
  306MOL0     C40288  -1.644   7.859   1.955  0.1495 -0.3157 -0.0705
  306MOL0     C40289  -1.780   7.802   1.945 -0.7434  1.1276 -0.7688
  306MOL0     O40290  -1.842   7.813   1.829 -0.0331 -0.3546  0.0272
  306MOL0     C40291  -1.974   7.778   1.828  0.1638  0.5855 -0.8441
  306MOL0     C40292  -2.067   7.822   1.922 -0.3044 -0.2565 -0.1356
  306MOL0     C40293  -2.191   7.766   1.923 -0.8826 -0.3477  0.0197
  306MOL0     C40294  -2.237   7.672   1.831  0.9675  0.4584 -0.5078
  306MOL0     O40295  -2.370   7.633   1.831  0.2606 -0.4339 -0.4813
  306MOL0     C40296  -2.407   7.494   1.818 -0.8018 -0.2205 -0.1119
  306MOL0     C40297  -2.559   7.494   1.782  0.8390  0.7461 -0.2851
  306MOL0     C40298  -2.616   7.350   1.777  0.2525 -0.2626  0.5468
  306MOL0     C40299  -2.757   7.356   1.718  0.6312 -0.2879 -0.2847
  306MOL0     C40300  -2.838   7.213   1.721  0.1853 -0.2305 -0.4970
  306MOL0     C40301  -2.816   7.121   1.843  0.1795 -1.3387  0.8359
  306MOL0     C40302  -2.892   6.991   1.850  0.0671 -0.1833  0.6335
  306MOL0     C40303  -2.966   6.980   1.988  0.6416 -1.1672  0.4366
  306MOL0    Cl40304  -3.111   7.084   1.996 -0.3430  0.1510  0.4307
  306MOL0     C40305  -2.143   7.625   1.735 -0.1839  1.5582 -0.8255
  306MOL0     C40306  -2.014   7.678   1.736 -0.6606  0.5701  0.1339
  306MOL0     O40307  -1.824   7.749   2.049 -0.8200  0.3348 -0.7124
  306MOL0     C40308  -1.577   7.850   2.072  0.1152 -0.6915  1.2951
  306MOL0     C40309  -1.444   7.898   2.082 -0.4034 -0.9122  0.2531
  306MOL0     N40310  -0.741   8.040   2.403  0.0834  0.4382 -0.3534
  306MOL0     N40311  -0.648   7.989   2.466 -0.1539  0.1050 -0.5507
  306MOL0     C40312   0.378   7.909   1.645  0.2009 -0.0801  0.7678
  306MOL0     C40313   0.475   7.970   1.570 -0.4025 -0.3112  0.8165
  306MOL0     C40314   0.843   8.090   1.354 -0.7634 -0.3086 -0.1548
  306MOL0     C40315   0.859   8.097   1.215  0.7169 -0.6319 -0.4318
  306MOL0     C40316   0.977   8.138   1.161  0.0811  0.4328 -0.4982
  306MOL0     C40317   1.082   8.174   1.243  0.0915 -0.0471 -0.0190
  306MOL0     O40318   1.186   8.234   1.182  0.1828  0.2654 -0.2472
  306MOL0     C40319   1.307   8.152   1.174  0.7839 -0.0079  0.2494
  306MOL0     C40320   1.416   8.235   1.231 -0.0520  0.2313  0.3701
  306MOL0     C40321   1.548   8.153   1.224 -1.7942 -0.3664 -0.2818
  306MOL0     C40322   1.650   8.209   1.312 -0.5725  0.1412  0.4867
  306MOL0     C40323   1.697   8.350   1.287 -0.0870 -0.0161  0.7681
  306MOL0     C40324   1.720   8.464   1.261  0.0214 -0.0927  0.4398
  306MOL0     C40325   1.077   8.148   1.373  0.8052  0.0624  0.5140
  306MOL0     C40326   0.962   8.091   1.431  0.5404 -0.8070 -0.1273
  306MOL0     H40327   0.746   7.813   1.700 -1.4171 -1.6533  1.6239
  306MOL0     H40328   0.575   7.703   1.837 -0.9202 -0.6452 -0.2414
  306MOL0     H40329   0.142   7.834   1.804  0.7226  1.4847 -0.0437
  306MOL0     H40330   0.262   7.933   1.891  2.9356 -0.4255 -1.0865
  306MOL0     H40331   0.232   7.792   2.086  1.1213  0.3076 -1.2010
  306MOL0     H40332   0.138   7.672   1.990  1.2905 -0.4062 -2.5273
  306MOL0     H40333  -0.028   7.853   1.955  2.4432 -1.1383 -1.5754
  306MOL0     H40334   0.054   7.960   2.057 -1.6237 -0.2909  1.4218
  306MOL0     H40335  -0.039   7.691   2.163 -0.1996  1.0679 -0.7944
  306MOL0     H40336   0.037   7.826   2.251  1.0530  1.9640 -0.9374
  306MOL0     H40337  -0.219   7.834   2.090 -1.5198  2.7330  0.5479
  306MOL0     H40338  -0.160   7.965   2.187 -2.1586  0.8334 -1.5199
  306MOL0     H40339  -0.183   7.836   2.393  1.8210 -2.1998 -0.2231
  306MOL0     H40340  -0.250   7.694   2.308 -3.6267  0.0708  2.3429
  306MOL0     H40341  -0.372   7.982   2.330 -1.8375 -0.8913  0.0061
  306MOL0     H40342  -0.424   7.856   2.215 -0.0302 -1.4550 -0.4423
  306MOL0     H40343  -0.437   7.840   2.516  1.7996 -2.5772 -0.2969
  306MOL0     H40344  -0.472   7.713   2.407  1.2842  0.1813 -0.2782
  306MOL0     H40345  -0.689   7.770   2.222 -0.4423  0.7630 -0.4901
  306MOL0     H40346  -0.844   7.973   2.078 -1.8333 -1.3515 -1.1877
  306MOL0     H40347  -0.906   8.087   2.204  1.4809 -0.2798  1.4108
  306MOL0     H40348  -1.031   7.871   2.310  2.2574  3.3245  0.7782
  306MOL0     H40349  -0.940   7.778   2.192  0.4538  0.9616 -1.0716
  306MOL0     H40350  -1.011   7.880   1.998  3.9314  2.6194  1.9336
  306MOL0     H40351  -1.145   7.798   2.091  1.4543 -0.6752  2.1899
  306MOL0     H40352  -1.103   8.099   2.081 -0.8015  0.4320 -0.9153
  306MOL0     H40353  -1.244   8.023   2.158 -3.5755 -0.9613 -2.9846
  306MOL0     H40354  -1.395   7.997   1.763  3.8220  0.3212  1.8854
  306MOL0     H40355  -1.628   7.918   1.749  1.8499  0.3599 -0.7303
  306MOL0     H40356  -2.035   7.886   2.004  2.9593  0.7809 -2.0175
  306MOL0     H40357  -2.252   7.795   2.008  0.4287  2.0909  0.2032
  306MOL0     H40358  -2.388   7.429   1.904 -1.3057 -1.9946 -1.2858
  306MOL0     H40359  -2.356   7.452   1.731 -0.3775 -0.1828  0.1191
  306MOL0     H40360  -2.576   7.541   1.684 -2.1082 -1.0398 -0.7706
  306MOL0     H40361  -2.613   7.554   1.856 -2.1248 -2.6929  0.6221
  306MOL0     H40362  -2.619   7.304   1.876 -1.9304 -1.2273  0.1096
  306MOL0     H40363  -2.564   7.292   1.700 -4.6013 -2.9377 -1.2350
  306MOL0     H40364  -2.808   7.425   1.785 -0.2831 -0.0905 -1.1598
  306MOL0     H40365  -2.749   7.409   1.622  2.4929  2.3632  1.1914
  306MOL0     H40366  -2.815   7.153   1.632 -1.2063 -2.5181  0.5786
  306MOL0     H40367  -2.942   7.245   1.722  0.6084  1.2067  0.4634
  306MOL0     H40368  -2.836   7.185   1.930 -1.1031 -1.1334  0.4080
  306MOL0     H40369  -2.709   7.103   1.859  0.7883  1.7987  1.0019
  306MOL0     H40370  -2.964   6.983   1.769 -1.7688  0.1893  2.1564
  306MOL0     H40371  -2.828   6.904   1.836 -0.4084 -0.5079  0.4511
  306MOL0     H40372  -2.905   6.992   2.078 -0.9429  0.1767  1.3898
  306MOL0     H40373  -2.994   6.874   1.979 -2.3521 -0.3111 -2.3981
  306MOL0     H40374  -2.158   7.534   1.676  5.2507 -0.0201 -0.4055
  306MOL0     H40375  -1.927   7.644   1.681 -0.7725  0.2781  0.1360
  306MOL0     H40376  -1.624   7.790   2.149 -1.4633 -0.3806  0.6144
  306MOL0     H40377  -1.393   7.875   2.175  2.4599  2.3519 -0.2874
  306MOL0     H40378   0.274   7.930   1.623  0.0004 -0.8964  0.9144
  306MOL0     H40379   0.455   8.054   1.505 -2.6303  1.6559  3.7578
  306MOL0     H40380   0.784   8.067   1.143  0.7325 -1.5521 -0.0831
  306MOL0     H40381   0.982   8.146   1.053  1.0937 -1.4225 -0.6379
  306MOL0     H40382   1.328   8.123   1.071 -1.5966 -0.0737 -0.2825
  306MOL0     H40383   1.292   8.060   1.232  0.4212 -0.5587 -0.6928
  306MOL0     H40384   1.444   8.325   1.177  2.6570 -2.0873 -2.4584
  306MOL0     H40385   1.398   8.264   1.335 -0.8401  1.0024  0.0278
  306MOL0     H40386   1.576   8.161   1.119 -2.4001 -0.6990 -0.4698
  306MOL0     H40387   1.543   8.048   1.255  0.1169 -0.1419  0.9588
  306MOL0     H40388   1.623   8.188   1.416  0.4592  1.3291  1.0193
  306MOL0     H40389   1.741   8.150   1.301 -0.9912 -0.0491 -3.0270
  306MOL0     H40390   1.743   8.568   1.254  0.0266 -0.1575 -0.6971
  306MOL0     H40391   1.162   8.164   1.439  0.6121  0.8863  0.5757
  306MOL0     H40392   0.959   8.067   1.537 -1.0054  0.4308  0.1538
  307MOL0     O40393   3.642   2.305   2.946  0.0075 -0.3424 -0.3895
  307MOL0     C40394   3.689   2.318   2.836  0.2924  0.2142  0.5259
  307MOL0     O40395   3.627   2.298   2.717  0.7633  1.0570 -0.5167
  307MOL0     C40396   3.493   2.279   2.716  0.3039  0.2370  0.1307
  307MOL0     C40397   3.406   2.359   2.791  0.4573 -0.6341 -1.7456
  307MOL0     C40398   3.267   2.349   2.773 -0.7539  0.2712  0.5656
  307MOL0     C40399   3.213   2.257   2.684 -0.4010 -0.1689 -0.9761
  307MOL0     O40400   3.085   2.241   2.645  0.9200  0.4847  0.0879
  307MOL0     C40401   2.985   2.329   2.685  0.0408 -0.5250 -0.0663
  307MOL0     C40402   2.864   2.282   2.600  0.1804  0.4113 -0.5486
  307MOL0     C40403   2.788   2.164   2.664 -0.5627  0.1053  0.7185
  307MOL0     C40404   2.747   2.206   2.804 -0.4026 -0.3184  0.0616
  307MOL0     C40405   2.649   2.101   2.882  0.8685  0.4612 -0.6555
  307MOL0     C40406   2.512   2.100   2.817 -0.4659  0.2279 -0.7431
  307MOL0     C40407   2.418   2.040   2.929  0.1004  0.1260 -0.5161
  307MOL0     C40408   2.274   2.042   2.885  0.4630 -0.2347 -0.2414
  307MOL0     N40409   2.239   1.955   2.769 -0.2173  0.4282 -0.2918
  307MOL0     C40410   2.285   1.825   2.765 -0.7039  0.6362  0.1985
  307MOL0     C40411   2.194   1.764   2.683  0.3489  0.4482  0.7121
  307MOL0     C40412   2.199   1.617   2.644 -0.2669  0.0437  0.8964
  307MOL0     C40413   2.147   1.519   2.755  0.1429  0.3818 -0.0169
  307MOL0     C40414   2.021   1.578   2.828 -0.6149  0.3986  0.0253
  307MOL0     C40415   1.898   1.564   2.739 -0.3762 -0.2496 -0.5350
  307MOL0     O40416   1.779   1.603   2.805 -0.4233  0.2854 -0.1059
  307MOL0     C40417   1.659   1.596   2.745  0.5684 -0.2804  0.6502
  307MOL0     C40418   1.627   1.552   2.617  0.2952  0.0923 -0.9721
  307MOL0     C40419   1.499   1.560   2.563 -0.1298  0.0765 -0.2479
  307MOL0     C40420   1.392   1.609   2.628 -1.5557  0.2212 -0.9618
  307MOL0     C40421   1.260   1.622   2.564 -1.4824  0.1529 -1.0637
  307MOL0     O40422   1.173   1.653   2.661 -1.1151  0.1669 -0.1667
  307MOL0     C40423   1.041   1.658   2.633 -0.2830  0.2900  0.2030
  307MOL0     C40424   0.953   1.772   2.640 -0.8992 -0.3782  0.2047
  307MOL0     C40425   0.819   1.760   2.598  0.1393  1.1869  0.5395
  307MOL0     C40426   0.765   1.639   2.566  0.2312 -0.1689 -0.5098
  307MOL0     O40427   0.635   1.641   2.509 -0.5428 -1.1397 -0.1486
  307MOL0     C40428   0.607   1.549   2.404  0.7670 -0.2930 -0.3628
  307MOL0     C40429   0.470   1.556   2.324  0.2661 -0.7166 -0.4532
  307MOL0     C40430   0.351   1.581   2.421 -0.4762  0.0962 -0.2382
  307MOL0     C40431   0.329   1.724   2.484 -0.4388 -0.0256  0.1942
  307MOL0     C40432   0.192   1.728   2.558 -0.3218  0.1883  1.4190
  307MOL0     C40433   0.185   1.657   2.693  0.1964 -0.9306  0.0028
  307MOL0     C40434   0.045   1.676   2.756 -0.6775 -0.5674 -0.9251
  307MOL0     C40435   0.038   1.610   2.891 -0.3897  0.9484  0.6194
  307MOL0    Cl40436   0.034   1.427   2.894 -0.2756 -0.1680 -0.2011
  307MOL0     C40437   0.851   1.525   2.563 -0.5288 -0.8700  0.4045
  307MOL0     C40438   0.982   1.533   2.593 -0.3506  0.3213  0.0479
  307MOL0     O40439   1.233   1.597   2.450  0.3750  0.5758  0.5053
  307MOL0     C40440   1.431   1.670   2.756 -0.0908  0.4130 -0.3211
  307MOL0     C40441   1.557   1.657   2.811  0.5140  0.6986  0.8509
  307MOL0     N40442   2.105   1.859   2.640  0.9045  0.1399 -0.5389
  307MOL0     N40443   2.125   1.968   2.699  0.6346 -1.2925 -0.2265
  307MOL0     C40444   3.301   2.168   2.615 -0.2446 -0.6343 -0.2179
  307MOL0     C40445   3.440   2.182   2.632 -0.5076  0.2701  0.2569
  307MOL0     C40446   3.841   2.322   2.826  0.2366  0.7654  0.0173
  307MOL0     C40447   3.924   2.321   2.941 -0.2084 -0.8363  0.9235
  307MOL0     C40448   4.060   2.346   2.929 -0.1980 -0.0613  0.8692
  307MOL0     C40449   4.114   2.356   2.799 -0.3823 -0.2489  0.1898
  307MOL0     O40450   4.242   2.381   2.789 -0.7829 -0.4747 -0.2993
  307MOL0     C40451   4.306   2.439   2.669  0.4239 -0.8699  0.2602
  307MOL0     C40452   4.451   2.463   2.697 -0.2043 -0.1882  0.3486
  307MOL0     C40453   4.473   2.579   2.794 -0.4986  0.4350 -0.0549
  307MOL0     C40454   4.618   2.620   2.789  0.3347 -0.7503  0.0157
  307MOL0     C40455   4.724   2.520   2.819  0.3412  0.3135  0.2814
  307MOL0     C40456   4.819   2.445   2.833 -0.1568 -0.2385 -0.2682
  307MOL0     C40457   4.035   2.344   2.687  0.5595 -1.5172 -0.1975
  307MOL0     C40458   3.903   2.328   2.696  0.2128 -0.0803 -0.1463
  307MOL0     H40459   3.445   2.440   2.853 -0.6264 -3.1035  2.5991
  307MOL0     H40460   3.208   2.422   2.827  1.5180 -0.9549  5.1706
  307MOL0     H40461   3.009   2.429   2.647 -0.6637  0.3977  1.7522
  307MOL0     H40462   2.968   2.337   2.793 -2.3424  0.2650 -0.4154
  307MOL0     H40463   2.892   2.251   2.499 -0.8592  0.7437 -0.9520
  307MOL0     H40464   2.804   2.366   2.566  0.8093  0.9535 -0.3342
  307MOL0     H40465   2.851   2.075   2.670 -2.7394 -1.4124  3.5172
  307MOL0     H40466   2.703   2.132   2.603 -1.3236  0.9652  1.3080
  307MOL0     H40467   2.837   2.204   2.866  0.5893 -2.6199 -1.3533
  307MOL0     H40468   2.696   2.303   2.808 -2.2657 -1.1970 -1.1193
  307MOL0     H40469   2.641   2.137   2.985  0.2270  0.5787 -0.7477
  307MOL0     H40470   2.682   1.996   2.886 -0.4416 -0.0212 -1.8587
  307MOL0     H40471   2.512   2.050   2.720  3.1335 -0.4889 -0.4978
  307MOL0     H40472   2.481   2.204   2.805  0.3287  0.5307 -0.2141
  307MOL0     H40473   2.438   1.934   2.949 -0.5456  0.6128  3.6827
  307MOL0     H40474   2.427   2.087   3.028 -0.2046 -3.2325  1.2515
  307MOL0     H40475   2.246   2.145   2.857  0.4524 -0.1820 -0.0357
  307MOL0     H40476   2.197   2.014   2.957 -0.4742  1.3894 -0.5674
  307MOL0     H40477   2.373   1.777   2.806 -2.1462 -1.2923  1.2249
  307MOL0     H40478   2.304   1.593   2.622 -0.5189 -4.2155  3.3132
  307MOL0     H40479   2.141   1.601   2.553 -1.4009 -2.3616  1.9569
  307MOL0     H40480   2.227   1.488   2.822 -0.0082  0.1256  0.0495
  307MOL0     H40481   2.116   1.429   2.700  0.2378 -0.7820  1.7741
  307MOL0     H40482   2.013   1.526   2.924  2.4484  1.5556  1.0118
  307MOL0     H40483   2.031   1.683   2.856 -0.3105  0.8719 -1.7247
  307MOL0     H40484   1.884   1.460   2.708  2.3103 -0.9409  0.2498
  307MOL0     H40485   1.915   1.630   2.654 -2.3018  3.6540  1.8202
  307MOL0     H40486   1.699   1.530   2.539 -0.6748  0.0506 -1.8748
  307MOL0     H40487   1.494   1.521   2.462  0.9581 -0.1583 -0.2279
  307MOL0     H40488   0.994   1.868   2.668 -1.1926 -0.5478  1.2587
  307MOL0     H40489   0.756   1.848   2.594 -0.0955  1.0014  0.0392
  307MOL0     H40490   0.610   1.443   2.433 -0.6565 -0.2022  0.1870
  307MOL0     H40491   0.675   1.564   2.320 -0.8912 -1.5783 -2.0124
  307MOL0     H40492   0.462   1.460   2.274  1.3256 -2.0121  1.7255
  307MOL0     H40493   0.475   1.650   2.267  4.0419  1.9449  3.5339
  307MOL0     H40494   0.361   1.506   2.501  2.8433  0.2087 -0.4016
  307MOL0     H40495   0.256   1.556   2.372 -2.5007  3.1616  1.8126
  307MOL0     H40496   0.414   1.755   2.544  2.1828 -2.7754 -1.7930
  307MOL0     H40497   0.330   1.806   2.411 -1.6572  0.8890  1.1657
  307MOL0     H40498   0.120   1.683   2.491 -0.3321 -1.2194  2.3402
  307MOL0     H40499   0.167   1.835   2.565  2.6764  1.1161 -0.2523
  307MOL0     H40500   0.260   1.704   2.757 -0.4226 -2.0693  1.6073
  307MOL0     H40501   0.188   1.550   2.670 -1.7557 -1.1692  0.6683
  307MOL0     H40502   0.018   1.779   2.780  0.0372 -0.4924 -0.4258
  307MOL0     H40503  -0.030   1.628   2.692  1.9269 -7.2260  0.2134
  307MOL0     H40504  -0.047   1.650   2.946 -0.8161  1.8695 -0.6414
  307MOL0     H40505   0.122   1.642   2.952  0.1241  0.8918 -0.0420
  307MOL0     H40506   0.816   1.431   2.523 -1.0901 -1.1281  1.4883
  307MOL0     H40507   1.035   1.440   2.576 -1.6250 -1.3789  4.1691
  307MOL0     H40508   1.358   1.722   2.817  0.4407 -1.4143  2.0029
  307MOL0     H40509   1.584   1.697   2.908 -1.2050 -0.0739  1.6946
  307MOL0     H40510   3.260   2.100   2.542 -1.7036 -0.7208  0.6449
  307MOL0     H40511   3.505   2.121   2.568 -1.1394  2.0119 -2.1925
  307MOL0     H40512   3.884   2.319   3.042 -1.1786 -1.2053  0.5482
  307MOL0     H40513   4.119   2.356   3.019  0.2028 -1.3768  0.7783
  307MOL0     H40514   4.246   2.527   2.642  0.4640 -1.2487 -1.1627
  307MOL0     H40515   4.303   2.374   2.580 -1.7274  0.1474 -0.4635
  307MOL0     H40516   4.497   2.375   2.744  0.6776  0.8270  1.4504
  307MOL0     H40517   4.496   2.485   2.600  0.2762 -0.4889  0.5017
  307MOL0     H40518   4.444   2.543   2.893 -3.2126  3.2529  0.3541
  307MOL0     H40519   4.404   2.656   2.759 -3.3400 -2.8779 -2.4172
  307MOL0     H40520   4.638   2.673   2.695  1.4821 -1.3140 -0.0709
  307MOL0     H40521   4.639   2.701   2.861 -0.4776 -0.2974 -0.2481
  307MOL0     H40522   4.907   2.386   2.816  0.6628  0.4240  1.4095
  307MOL0     H40523   4.075   2.349   2.586 -1.0531 -2.1952 -0.9089
  307MOL0     H40524   3.836   2.321   2.611 -0.8874  1.5773  0.5295
  308MOL0     O40525   3.620   5.656  10.411  0.1202  0.1965  0.2863
  308MOL0     C40526   3.652   5.545  10.455  0.2262  1.2867 -0.2096
  308MOL0     O40527   3.562   5.435  10.474 -0.1367  0.2045  0.4845
  308MOL0     C40528   3.438   5.428  10.412 -0.3638 -0.4865  0.9551
  308MOL0     C40529   3.350   5.323  10.448 -0.1955 -0.2502  0.2557
  308MOL0     C40530   3.221   5.309  10.391 -0.3860 -0.0648  0.5230
  308MOL0     C40531   3.186   5.396  10.289  0.2209  0.6742 -0.0113
  308MOL0     O40532   3.073   5.383  10.220 -0.1358  0.8317 -0.1063
  308MOL0     C40533   2.960   5.398  10.305  0.1303  0.3602 -0.1660
  308MOL0     C40534   2.835   5.410  10.215 -0.2507 -0.0785  0.9013
  308MOL0     C40535   2.718   5.470  10.298  0.0477  0.2199 -0.2590
  308MOL0     C40536   2.597   5.491  10.218  0.5440 -0.4443  0.2011
  308MOL0     C40537   2.481   5.550  10.296  0.0726  0.2134 -0.5325
  308MOL0     C40538   2.363   5.609  10.201 -0.5813  0.1945  0.4429
  308MOL0     C40539   2.279   5.493  10.141 -0.3527 -0.5441  0.0386
  308MOL0     C40540   2.169   5.540  10.053  0.3143  0.4137  0.6427
  308MOL0     N40541   2.051   5.585  10.144 -0.2539  0.2510 -0.6879
  308MOL0     C40542   1.933   5.520  10.164 -0.2332  0.1813 -0.3668
  308MOL0     C40543   1.847   5.610  10.218  0.4238 -0.0165  0.2997
  308MOL0     C40544   1.737   5.556  10.303 -0.0556 -0.3680  0.1929
  308MOL0     C40545   1.639   5.656  10.353 -1.7868  0.0350  0.7611
  308MOL0     C40546   1.511   5.598  10.407 -0.1315 -0.0468 -0.1191
  308MOL0     C40547   1.390   5.710  10.426 -0.4532  0.2345 -0.6873
  308MOL0     O40548   1.329   5.716  10.300  0.3346 -0.8936 -0.8781
  308MOL0     C40549   1.204   5.663  10.304  0.1641  0.2906  1.1549
  308MOL0     C40550   1.095   5.741  10.330 -0.1395 -0.3130 -0.1774
  308MOL0     C40551   0.965   5.690  10.333  0.6484  0.5870 -0.4625
  308MOL0     C40552   0.949   5.550  10.308 -0.5591 -0.9323 -0.4801
  308MOL0     C40553   0.818   5.490  10.331 -0.2096  0.4300  0.8429
  308MOL0     O40554   0.730   5.565  10.391 -0.2345 -0.5968 -0.2640
  308MOL0     C40555   0.598   5.539  10.412  0.0795 -0.7557  0.7643
  308MOL0     C40556   0.515   5.446  10.355 -0.8608  0.0801 -0.6399
  308MOL0     C40557   0.383   5.437  10.395 -0.2628 -0.0243 -0.4879
  308MOL0     C40558   0.327   5.536  10.471  0.3145  0.7119  0.1383
  308MOL0     O40559   0.192   5.538  10.500 -0.0666  0.3440  0.1975
  308MOL0     C40560   0.134   5.653  10.429  0.0089  0.3067  0.0669
  308MOL0     C40561  -0.015   5.660  10.458  0.3801 -0.8073  0.5736
  308MOL0     C40562  -0.103   5.554  10.398  0.6473  0.3230 -0.4107
  308MOL0     C40563  -0.257   5.588  10.429 -0.6937  0.2395 -0.4341
  308MOL0     C40564  -0.357   5.483  10.365 -0.2501 -0.2632 -0.0493
  308MOL0     C40565  -0.499   5.542  10.378  0.2928 -0.4465  0.6099
  308MOL0     C40566  -0.591   5.444  10.298 -0.0757  0.1706  0.2156
  308MOL0     C40567  -0.733   5.481  10.302 -0.2496 -0.1792 -0.6749
  308MOL0    Cl40568  -0.786   5.519  10.462  0.0808  0.0523  0.0897
  308MOL0     C40569   0.405   5.628  10.525 -1.3340  0.3154  1.2019
  308MOL0     C40570   0.540   5.633  10.498 -0.3658 -0.0431  0.3078
  308MOL0     O40571   0.802   5.373  10.303 -0.0483  0.6122 -0.2383
  308MOL0     C40572   1.062   5.470  10.275 -1.0447  0.6894 -0.4839
  308MOL0     C40573   1.192   5.526  10.267 -0.1098  0.1792 -0.6767
  308MOL0     N40574   1.912   5.731  10.226  0.4636  0.0789 -0.3865
  308MOL0     N40575   2.035   5.714  10.185 -0.4526 -0.2086 -0.6445
  308MOL0     C40576   3.273   5.493  10.241  0.1975  0.4246 -1.2295
  308MOL0     C40577   3.398   5.512  10.304  0.0398  0.6375 -0.4766
  308MOL0     C40578   3.790   5.528  10.514 -0.1221 -0.1391 -0.0603
  308MOL0     C40579   3.833   5.413  10.591  0.9894  0.4872  0.3843
  308MOL0     C40580   3.961   5.405  10.642 -0.1145  0.1159 -0.6792
  308MOL0     C40581   4.046   5.510  10.627 -0.3746  0.4752 -0.3484
  308MOL0     O40582   4.169   5.482  10.674 -0.8370 -0.2116  0.3100
  308MOL0     C40583   4.277   5.557  10.625  0.3557 -0.0217  0.3445
  308MOL0     C40584   4.345   5.500  10.489 -0.8158 -0.3313 -0.4562
  308MOL0     C40585   4.281   5.561  10.362 -0.5555 -0.2034  0.5378
  308MOL0     C40586   4.367   5.570  10.232  0.4650 -0.0641 -0.4807
  308MOL0     C40587   4.380   5.437  10.180 -0.6738 -0.5590 -1.0942
  308MOL0     C40588   4.393   5.326  10.142 -0.3129  0.3653 -0.2063
  308MOL0     C40589   4.002   5.628  10.564 -0.4293  0.5423 -0.0406
  308MOL0     C40590   3.881   5.635  10.500  0.8319 -0.3439 -0.0139
  308MOL0     H40591   3.392   5.238  10.502 -0.2757 -0.9286 -0.7358
  308MOL0     H40592   3.170   5.213  10.391  3.8964 -2.6396  0.2621
  308MOL0     H40593   2.976   5.494  10.355  3.4484  0.0829 -0.4639
  308MOL0     H40594   2.947   5.318  10.378  1.0234  0.0657 -0.3168
  308MOL0     H40595   2.809   5.306  10.191  0.9793 -1.4457  4.7153
  308MOL0     H40596   2.864   5.474  10.131  1.9220 -0.1362  1.5324
  308MOL0     H40597   2.750   5.564  10.343 -1.6878  0.4521  0.5791
  308MOL0     H40598   2.701   5.407  10.386  1.1517 -0.9971 -0.8757
  308MOL0     H40599   2.630   5.562  10.141 -0.9208 -1.5696 -1.5645
  308MOL0     H40600   2.566   5.397  10.172 -2.2152  0.7777 -0.7122
  308MOL0     H40601   2.518   5.632  10.359 -0.8067  1.0722 -1.0927
  308MOL0     H40602   2.434   5.475  10.360  1.4526  0.6136  1.0004
  308MOL0     H40603   2.400   5.678  10.125 -1.1374  1.3714  1.2121
  308MOL0     H40604   2.298   5.679  10.254  0.0983  1.1515  0.0493
  308MOL0     H40605   2.356   5.437  10.087  0.5763 -0.5695  1.3439
  308MOL0     H40606   2.246   5.426  10.220 -2.8236  0.7285  0.1926
  308MOL0     H40607   2.145   5.456   9.987  2.1784  0.9734 -0.8615
  308MOL0     H40608   2.195   5.618   9.982 -0.1672  0.7671  0.8528
  308MOL0     H40609   1.904   5.417  10.148 -1.1058  0.5985 -1.6011
  308MOL0     H40610   1.779   5.484  10.374  3.2103 -0.2322 -1.4194
  308MOL0     H40611   1.694   5.494  10.224 -0.5442 -2.0164  1.6848
  308MOL0     H40612   1.610   5.720  10.269 -3.4322  1.6338  2.4525
  308MOL0     H40613   1.686   5.712  10.434 -0.9816 -1.5637  1.4256
  308MOL0     H40614   1.472   5.521  10.340  0.5524  0.1125 -0.7090
  308MOL0     H40615   1.532   5.554  10.505 -0.2476  1.4107  0.5885
  308MOL0     H40616   1.423   5.811  10.452 -0.0287 -0.7037  3.0032
  308MOL0     H40617   1.321   5.673  10.502 -2.0450 -0.6624 -2.4850
  308MOL0     H40618   1.102   5.842  10.369  1.8460 -1.1408  1.7940
  308MOL0     H40619   0.875   5.744  10.360 -1.0328 -1.6965 -1.1254
  308MOL0     H40620   0.548   5.367  10.289  0.2839  0.0784 -0.1014
  308MOL0     H40621   0.320   5.354  10.365 -0.6889 -0.6399  1.8861
  308MOL0     H40622   0.136   5.638  10.321 -0.8327 -1.8811  0.3016
  308MOL0     H40623   0.176   5.748  10.464 -1.6468  0.8641  0.6429
  308MOL0     H40624  -0.043   5.760  10.423  2.0948  0.5678  2.8795
  308MOL0     H40625  -0.030   5.665  10.566  1.6403 -0.1462  0.7303
  308MOL0     H40626  -0.079   5.457  10.442  0.0579  1.2965  2.2439
  308MOL0     H40627  -0.089   5.554  10.290 -0.1052  0.3835 -0.5143
  308MOL0     H40628  -0.275   5.602  10.536 -0.2536 -1.1190 -0.1563
  308MOL0     H40629  -0.279   5.677  10.370 -1.6644  0.2303 -0.1006
  308MOL0     H40630  -0.354   5.388  10.420  3.2963 -0.7195 -0.8231
  308MOL0     H40631  -0.330   5.470  10.260 -1.2162  1.1068 -0.4966
  308MOL0     H40632  -0.499   5.646  10.344 -1.9324 -0.6112 -0.0456
  308MOL0     H40633  -0.512   5.540  10.486  2.7537  2.3368  1.0679
  308MOL0     H40634  -0.563   5.427  10.194 -1.5169 -3.1245  0.2359
  308MOL0     H40635  -0.579   5.346  10.345  0.0113 -0.1908 -0.5467
  308MOL0     H40636  -0.800   5.401  10.271 -0.3068 -1.2464  1.9016
  308MOL0     H40637  -0.751   5.574  10.247 -0.8576  0.7268  0.9763
  308MOL0     H40638   0.366   5.700  10.597  2.2458  1.4409  2.2289
  308MOL0     H40639   0.606   5.703  10.548  0.3140 -0.1810 -0.3799
  308MOL0     H40640   1.028   5.367  10.267 -1.6907  0.6799  1.6359
  308MOL0     H40641   1.278   5.460  10.264  0.1169  0.3347  1.2468
  308MOL0     H40642   3.240   5.563  10.166 -1.0397  2.1910  0.8619
  308MOL0     H40643   3.468   5.576  10.251  0.8090 -0.0248 -0.2851
  308MOL0     H40644   3.765   5.328  10.591 -0.2963  1.4782 -0.7266
  308MOL0     H40645   3.973   5.316  10.702 -0.9256  0.4639  0.0156
  308MOL0     H40646   4.360   5.555  10.696  1.1624 -0.1407 -0.5775
  308MOL0     H40647   4.246   5.660  10.608  1.4188  0.0278 -1.7184
  308MOL0     H40648   4.448   5.539  10.489 -1.1164  0.5366 -1.7996
  308MOL0     H40649   4.354   5.391  10.484  1.3470 -0.1849 -0.7175
  308MOL0     H40650   4.246   5.663  10.384  4.6774  1.9146  0.5754
  308MOL0     H40651   4.190   5.505  10.340 -0.4479  0.4259 -1.7409
  308MOL0     H40652   4.335   5.635  10.150  1.9155  0.2455 -0.8252
  308MOL0     H40653   4.464   5.613  10.259  0.6658 -0.3779 -0.7081
  308MOL0     H40654   4.396   5.228  10.100 -0.9698  0.6605 -0.9723
  308MOL0     H40655   4.062   5.716  10.542 -1.2217  2.2208  3.7045
  308MOL0     H40656   3.859   5.733  10.459  1.6615 -0.0255  0.2855
  309MOL0     O40657   6.037   0.937   4.188  1.1275 -0.4527  0.6503
  309MOL0     C40658   6.056   0.848   4.263  0.8482  0.2513 -0.0752
  309MOL0     O40659   6.155   0.841   4.352  0.3615  0.5328 -0.3241
  309MOL0     C40660   6.249   0.945   4.350 -0.4283  0.1262 -0.7215
  309MOL0     C40661   6.279   1.004   4.476 -0.0824 -0.8104 -0.1565
  309MOL0     C40662   6.379   1.098   4.495  0.8373 -0.2938 -0.2783
  309MOL0     C40663   6.452   1.130   4.379 -0.1460 -0.3328 -0.5417
  309MOL0     O40664   6.544   1.232   4.389 -0.1391 -0.2625 -0.0089
  309MOL0     C40665   6.656   1.227   4.301 -1.1532 -0.0657 -0.0663
  309MOL0     C40666   6.770   1.322   4.363  1.1078  0.2369  0.1727
  309MOL0     C40667   6.821   1.278   4.497  1.4147  0.2819  0.9714
  309MOL0     C40668   6.922   1.375   4.556  0.2631 -0.5947  0.5072
  309MOL0     C40669   6.993   1.328   4.682  0.0187  0.3107 -0.3372
  309MOL0     C40670   7.088   1.193   4.667 -0.3412 -0.1147  0.6807
  309MOL0     C40671   7.106   1.133   4.805  0.4703  0.5019  0.3207
  309MOL0     C40672   7.208   1.208   4.897  0.2452  0.0570 -0.3828
  309MOL0     N40673   7.157   1.320   4.974 -0.3423  1.1666  0.4014
  309MOL0     C40674   7.235   1.413   5.040  0.1465 -0.7190 -0.4340
  309MOL0     C40675   7.146   1.498   5.107 -0.3596 -0.4035  0.2410
  309MOL0     C40676   7.175   1.611   5.204 -0.5053  0.7669 -0.4497
  309MOL0     C40677   7.216   1.555   5.338 -1.0831 -0.3030  0.3574
  309MOL0     C40678   7.305   1.653   5.406 -0.3339  0.5703  0.8607
  309MOL0     C40679   7.459   1.646   5.366  0.6776 -0.1893 -0.3009
  309MOL0     O40680   7.492   1.682   5.224  0.0488 -0.3510  0.1559
  309MOL0     C40681   7.624   1.664   5.191  0.7644 -0.5840  0.3121
  309MOL0     C40682   7.659   1.708   5.067  0.5618 -0.4337 -0.1715
  309MOL0     C40683   7.796   1.721   5.025 -0.1425 -0.2077  0.5132
  309MOL0     C40684   7.899   1.669   5.109  0.4723  0.2390  0.9587
  309MOL0     C40685   8.035   1.682   5.062  0.1311 -0.0038 -0.1239
  309MOL0     O40686   8.077   1.623   4.952 -0.0613  0.3020 -0.4342
  309MOL0     C40687   8.213   1.607   4.931  0.2040  0.2115 -0.5765
  309MOL0     C40688   8.318   1.697   4.928  0.1161  0.4988  0.7605
  309MOL0     C40689   8.448   1.665   4.907 -0.0919  0.2434  0.9690
  309MOL0     C40690   8.479   1.530   4.898 -1.8296 -0.1054 -0.4727
  309MOL0     O40691   8.605   1.481   4.872 -0.0222  0.1605  0.3158
  309MOL0     C40692   8.677   1.539   4.762  0.2756  0.7904  0.5491
  309MOL0     C40693   8.821   1.489   4.769  0.1381 -0.7387  0.4908
  309MOL0     C40694   8.921   1.564   4.681 -0.1752 -0.5187  0.4599
  309MOL0     C40695   8.924   1.549   4.529 -0.4569 -0.0084  0.7657
  309MOL0     C40696   8.998   1.660   4.442 -0.0840 -0.0577 -0.0979
  309MOL0     C40697   9.146   1.668   4.491 -0.2363 -0.8899  0.4076
  309MOL0     C40698   9.225   1.736   4.373 -0.4563 -0.1445  0.2432
  309MOL0     C40699   9.357   1.777   4.428 -0.3641 -1.2245 -0.3261
  309MOL0    Cl40700   9.450   1.636   4.486 -0.3297 -0.3742  0.0608
  309MOL0     C40701   8.377   1.437   4.904 -0.3812  1.3361  0.2536
  309MOL0     C40702   8.247   1.478   4.905  0.1707 -0.1579  0.2893
  309MOL0     O40703   8.109   1.755   5.133  0.4944  0.0966  0.3281
  309MOL0     C40704   7.860   1.631   5.238  0.2012  0.0898 -0.1206
  309MOL0     C40705   7.722   1.625   5.282 -1.0129  0.1507 -0.1554
  309MOL0     N40706   7.014   1.457   5.070 -0.3972  0.0379 -0.7657
  309MOL0     N40707   7.027   1.356   4.993  0.5753 -0.5776  0.0951
  309MOL0     C40708   6.432   1.074   4.259  0.6932  0.7991 -0.4095
  309MOL0     C40709   6.339   0.976   4.247  0.8340  0.4165  0.1683
  309MOL0     C40710   5.950   0.740   4.277 -0.2345 -0.7673  1.1440
  309MOL0     C40711   5.933   0.671   4.392 -0.0673 -0.0039 -0.6995
  309MOL0     C40712   5.838   0.566   4.398  0.1118  0.1286  0.6081
  309MOL0     C40713   5.752   0.539   4.292  0.3822 -0.5125  0.3421
  309MOL0     O40714   5.643   0.451   4.283  0.2927 -0.2435 -0.5522
  309MOL0     C40715   5.612   0.383   4.407  0.4930  1.3998  0.8864
  309MOL0     C40716   5.508   0.275   4.394  0.0272 -0.0581  0.7431
  309MOL0     C40717   5.392   0.309   4.301 -0.7431 -0.6104  0.9979
  309MOL0     C40718   5.303   0.190   4.293 -0.0023  0.5076  0.4238
  309MOL0     C40719   5.164   0.233   4.254  0.0795 -0.6788  0.5462
  309MOL0     C40720   5.053   0.274   4.240  0.5164  0.5620 -0.5174
  309MOL0     C40721   5.775   0.610   4.172  0.5323 -0.1372 -0.9015
  309MOL0     C40722   5.864   0.707   4.164  0.1990 -0.1593 -0.9332
  309MOL0     H40723   6.217   0.960   4.553 -2.3404 -0.8619 -1.8936
  309MOL0     H40724   6.401   1.145   4.590  0.0379  2.2407 -1.2665
  309MOL0     H40725   6.618   1.271   4.208  0.4878  0.7674 -0.3892
  309MOL0     H40726   6.689   1.125   4.281  1.9549  1.0759 -1.4744
  309MOL0     H40727   6.727   1.422   4.373  0.0321 -0.0661 -1.1762
  309MOL0     H40728   6.852   1.331   4.292 -0.5997  1.8798 -1.7139
  309MOL0     H40729   6.862   1.176   4.494  1.6408  0.3879  0.1957
  309MOL0     H40730   6.736   1.271   4.565 -1.4963  0.9355 -2.3214
  309MOL0     H40731   6.997   1.396   4.479  0.4099  0.5771  0.9371
  309MOL0     H40732   6.879   1.476   4.563  1.6396 -0.0644  2.0425
  309MOL0     H40733   6.924   1.308   4.765  1.4505  1.0825  1.0952
  309MOL0     H40734   7.055   1.409   4.722 -1.5710  2.1247 -1.3808
  309MOL0     H40735   7.182   1.218   4.616  1.8185 -0.7399  4.0249
  309MOL0     H40736   7.032   1.121   4.606 -0.4298  0.4924  0.0298
  309MOL0     H40737   7.008   1.126   4.852 -0.1773  1.0645 -0.8857
  309MOL0     H40738   7.138   1.031   4.780 -2.1380  0.1155 -1.9633
  309MOL0     H40739   7.295   1.242   4.839  0.7681 -2.2315 -1.0186
  309MOL0     H40740   7.243   1.135   4.970 -1.3844  1.8515  2.3855
  309MOL0     H40741   7.343   1.417   5.052  0.0477 -1.3895  0.9263
  309MOL0     H40742   7.088   1.678   5.202 -0.2834  1.0843  0.2630
  309MOL0     H40743   7.258   1.671   5.164 -2.1558  2.2851 -1.7960
  309MOL0     H40744   7.264   1.457   5.328  0.5675  0.5217 -0.0780
  309MOL0     H40745   7.120   1.549   5.391 -2.0933 -2.6417 -1.5138
  309MOL0     H40746   7.262   1.751   5.387  0.7048  0.3837 -3.3770
  309MOL0     H40747   7.301   1.629   5.513 -1.5012 -0.0400  0.6965
  309MOL0     H40748   7.486   1.544   5.394  0.7341  0.3707  1.8528
  309MOL0     H40749   7.518   1.705   5.436  0.8425 -1.8421  0.9983
  309MOL0     H40750   7.582   1.750   5.003  0.2348  2.3190  1.8417
  309MOL0     H40751   7.818   1.745   4.922  1.4393 -1.3384  0.5441
  309MOL0     H40752   8.300   1.804   4.934 -1.8624  0.1602  2.2975
  309MOL0     H40753   8.523   1.742   4.892  0.6925 -0.7915 -0.8620
  309MOL0     H40754   8.675   1.649   4.766 -1.6763  0.8590 -0.9660
  309MOL0     H40755   8.633   1.506   4.668  1.7234  0.3794 -0.0198
  309MOL0     H40756   8.831   1.383   4.744 -0.9516 -0.8497  0.4714
  309MOL0     H40757   8.851   1.497   4.874  0.1350  2.4921  0.3495
  309MOL0     H40758   9.020   1.527   4.707  0.3182 -0.2630 -0.9761
  309MOL0     H40759   8.908   1.668   4.715 -3.3407 -0.9251  0.7884
  309MOL0     H40760   8.964   1.454   4.492 -0.3337  0.9357 -1.7211
  309MOL0     H40761   8.819   1.568   4.505 -1.1258  0.5494  3.7190
  309MOL0     H40762   8.941   1.752   4.452 -0.8049 -0.4899 -0.1423
  309MOL0     H40763   9.009   1.618   4.341  3.0847 -1.7805  0.8307
  309MOL0     H40764   9.199   1.574   4.505  2.0354  0.2078 -0.3986
  309MOL0     H40765   9.147   1.729   4.582 -1.7768  2.2614 -1.5107
  309MOL0     H40766   9.226   1.666   4.289  2.2484 -0.4404  0.4475
  309MOL0     H40767   9.166   1.819   4.333  2.9666  1.1757 -2.5694
  309MOL0     H40768   9.337   1.838   4.516 -1.2379 -1.6317 -0.2293
  309MOL0     H40769   9.421   1.833   4.359  1.7422 -0.6665  1.9437
  309MOL0     H40770   8.396   1.331   4.894 -2.2553  0.9911 -0.1294
  309MOL0     H40771   8.168   1.404   4.909  1.4015 -1.6025 -1.1023
  309MOL0     H40772   7.930   1.592   5.312 -1.5662 -3.6641 -0.2024
  309MOL0     H40773   7.696   1.598   5.383 -2.3784  0.8956 -0.2842
  309MOL0     H40774   6.486   1.099   4.169  0.9855 -1.3821 -0.8892
  309MOL0     H40775   6.316   0.915   4.160  2.5763 -0.9630  0.6283
  309MOL0     H40776   5.992   0.683   4.483  1.7108 -2.7042 -1.3734
  309MOL0     H40777   5.831   0.503   4.486  1.0570 -2.1451 -0.8673
  309MOL0     H40778   5.571   0.457   4.476  1.3302  0.6927  2.1696
  309MOL0     H40779   5.695   0.328   4.451  0.3461 -0.8492 -1.3925
  309MOL0     H40780   5.551   0.191   4.340  0.9011 -0.5318  2.1302
  309MOL0     H40781   5.468   0.254   4.493  2.6030 -0.8366  1.6953
  309MOL0     H40782   5.428   0.323   4.199 -3.0500 -2.6889 -0.2427
  309MOL0     H40783   5.331   0.385   4.350  2.0713  1.4694  1.4974
  309MOL0     H40784   5.337   0.115   4.222 -1.5500 -0.3355  0.5301
  309MOL0     H40785   5.301   0.148   4.394  0.2999  1.4178  0.8169
  309MOL0     H40786   4.956   0.319   4.226  0.9218  1.7376  0.2309
  309MOL0     H40787   5.710   0.593   4.086 -1.6808  1.1259  0.4461
  309MOL0     H40788   5.876   0.761   4.070 -0.2403  0.1303 -0.8257
  310MOL0     O40789  10.827   0.190   8.061  0.6039 -0.7920 -0.6717
  310MOL0     C40790  10.881   0.186   7.954  0.0513 -0.2180  0.3364
  310MOL0     O40791  10.839   0.242   7.847 -0.3415  0.5019  0.3789
  310MOL0     C40792  10.709   0.292   7.845 -0.6544 -0.1590  0.8454
  310MOL0     C40793  10.605   0.225   7.777  0.5435  0.6730 -0.7930
  310MOL0     C40794  10.477   0.283   7.776  0.5581  1.4335  0.4052
  310MOL0     C40795  10.458   0.418   7.830 -0.5324  0.7508  0.5182
  310MOL0     O40796  10.348   0.489   7.804 -0.4058  0.0382  0.1521
  310MOL0     C40797  10.378   0.592   7.706 -0.6298 -0.5829 -0.2583
  310MOL0     C40798  10.273   0.691   7.733 -0.1469 -0.2143  0.0226
  310MOL0     C40799  10.321   0.796   7.837  0.4272  1.3135 -0.7221
  310MOL0     C40800  10.214   0.908   7.855  0.1360 -0.8922  0.3498
  310MOL0     C40801  10.277   1.042   7.821 -0.1764  1.6183 -0.3787
  310MOL0     C40802  10.177   1.161   7.801 -0.1471  0.2599 -0.6888
  310MOL0     C40803  10.100   1.187   7.937  0.4403  0.4694 -0.1700
  310MOL0     C40804  10.002   1.307   7.931  0.0942 -0.0123  0.6208
  310MOL0     N40805   9.882   1.286   7.846 -0.1405  0.3531  0.9363
  310MOL0     C40806   9.802   1.174   7.845  0.6646 -0.8977 -0.6077
  310MOL0     C40807   9.722   1.172   7.736  1.4450 -0.6241 -0.0849
  310MOL0     C40808   9.660   1.041   7.687  0.2789 -0.3456  0.1889
  310MOL0     C40809   9.760   0.953   7.617 -0.7379  0.3159 -0.2782
  310MOL0     C40810   9.778   0.974   7.465 -0.5059 -0.0691  0.7574
  310MOL0     C40811   9.884   0.877   7.406  0.2915 -0.3020  0.0761
  310MOL0     O40812  10.014   0.945   7.435 -0.3561 -0.2883 -0.1081
  310MOL0     C40813  10.133   0.880   7.410  0.3542 -0.5128 -0.2606
  310MOL0     C40814  10.156   0.746   7.365 -1.3219 -0.6390 -0.7838
  310MOL0     C40815  10.292   0.694   7.349  0.4709  0.5326  0.3131
  310MOL0     C40816  10.398   0.773   7.383 -0.3279 -0.6109  0.0158
  310MOL0     C40817  10.538   0.720   7.369  0.6280 -0.3114 -1.3763
  310MOL0     O40818  10.550   0.588   7.377 -0.5419  0.3356  0.2833
  310MOL0     C40819  10.676   0.547   7.387  0.1266  0.9566  0.3731
  310MOL0     C40820  10.723   0.508   7.510 -0.5045 -0.1142  0.7495
  310MOL0     C40821  10.861   0.493   7.528 -0.0160 -0.7393 -1.1472
  310MOL0     C40822  10.942   0.487   7.425  0.4841  0.0597 -0.3873
  310MOL0     O40823  11.071   0.464   7.450  0.0719  0.5304  0.2532
  310MOL0     C40824  11.163   0.456   7.341  0.1953  0.2489 -0.5307
  310MOL0     C40825  11.303   0.398   7.383  0.5687  0.1427 -0.6990
  310MOL0     C40826  11.304   0.239   7.404  0.6461  0.5159 -0.2745
  310MOL0     C40827  11.429   0.169   7.341 -0.9876 -0.2882 -0.0823
  310MOL0     C40828  11.546   0.164   7.440  0.1414  0.1289 -0.0300
  310MOL0     C40829  11.680   0.128   7.372 -0.3941 -0.0671 -0.1610
  310MOL0     C40830  11.802   0.123   7.461 -0.0681 -0.3063 -0.2571
  310MOL0     C40831  11.924   0.109   7.367  0.0551  0.1374 -0.7737
  310MOL0    Cl40832  12.073   0.101   7.459 -0.0358  0.0948 -0.0042
  310MOL0     C40833  10.889   0.497   7.297  0.1924 -0.4003  0.6774
  310MOL0     C40834  10.758   0.536   7.273  0.2749 -0.6614  0.5175
  310MOL0     O40835  10.623   0.807   7.365 -0.9444 -0.1204  0.3226
  310MOL0     C40836  10.377   0.906   7.444  0.2688  0.3301 -0.4669
  310MOL0     C40837  10.247   0.955   7.455  0.2602 -0.4968 -1.0045
  310MOL0     N40838   9.744   1.297   7.679  0.4042  0.0633  0.4224
  310MOL0     N40839   9.828   1.367   7.742  0.0664 -0.4022  1.1291
  310MOL0     C40840  10.553   0.478   7.914  0.2929  0.0234 -0.1492
  310MOL0     C40841  10.680   0.415   7.913  0.1886 -0.9158  0.2224
  310MOL0     C40842  11.012   0.111   7.953  1.2188 -0.8069 -0.2468
  310MOL0     C40843  11.076   0.067   8.065  0.4450 -0.1398  0.8572
  310MOL0     C40844  11.186  -0.024   8.060  0.2483  0.6192 -0.4740
  310MOL0     C40845  11.244  -0.051   7.934  0.4557 -0.1089 -0.4045
  310MOL0     O40846  11.350  -0.134   7.914 -0.1256  0.1515  0.3778
  310MOL0     C40847  11.322  -0.280   7.894 -0.2973 -0.8206  0.2407
  310MOL0     C40848  11.338  -0.356   8.033  0.7572 -0.2250  0.0657
  310MOL0     C40849  11.477  -0.351   8.087  0.5500 -0.0861  0.1916
  310MOL0     C40850  11.492  -0.424   8.220  0.4017 -0.1705  0.5783
  310MOL0     C40851  11.635  -0.443   8.261  0.7247  0.3791 -0.2820
  310MOL0     C40852  11.751  -0.456   8.294 -0.0608 -0.1207 -0.3797
  310MOL0     C40853  11.187   0.007   7.820  0.8330  0.5116  0.5446
  310MOL0     C40854  11.062   0.080   7.822 -0.8530 -0.5629  0.0256
  310MOL0     H40855  10.638   0.127   7.746 -1.2269 -1.0581  2.3511
  310MOL0     H40856  10.390   0.242   7.727 -0.2741  3.5660  0.0258
  310MOL0     H40857  10.370   0.557   7.603 -3.2792  1.2022 -0.7655
  310MOL0     H40858  10.476   0.641   7.713 -1.2856  0.5340  2.0243
  310MOL0     H40859  10.178   0.646   7.764 -1.3230  1.6492 -0.7317
  310MOL0     H40860  10.246   0.735   7.637  0.8269  1.4473  0.4741
  310MOL0     H40861  10.420   0.841   7.822  1.4487 -0.3110  0.7750
  310MOL0     H40862  10.333   0.759   7.940 -2.2033  1.0484 -0.4481
  310MOL0     H40863  10.130   0.893   7.786 -0.8338 -0.5078  1.4115
  310MOL0     H40864  10.165   0.910   7.953 -3.3210  1.8504 -1.2347
  310MOL0     H40865  10.330   1.036   7.725 -1.3921 -0.4478 -0.9850
  310MOL0     H40866  10.341   1.063   7.907 -2.5972  1.5074  1.5774
  310MOL0     H40867  10.113   1.134   7.716  1.3983  1.9065 -2.4822
  310MOL0     H40868  10.229   1.247   7.760 -0.0684 -0.5514 -2.3915
  310MOL0     H40869  10.040   1.099   7.961 -2.7595  2.3735 -0.4222
  310MOL0     H40870  10.176   1.214   8.011 -0.8913  0.0486  1.4169
  310MOL0     H40871  10.066   1.386   7.889  0.0543  0.5976  1.6651
  310MOL0     H40872   9.975   1.333   8.034  3.0817  0.9712  1.2751
  310MOL0     H40873   9.809   1.098   7.922 -0.6683 -2.0380 -1.5592
  310MOL0     H40874   9.579   1.076   7.623  2.3488  2.7012 -1.0075
  310MOL0     H40875   9.621   0.988   7.773 -0.0457 -2.4821 -1.2033
  310MOL0     H40876   9.731   0.849   7.638  1.2671 -0.4034 -0.8708
  310MOL0     H40877   9.855   0.967   7.670 -1.1825 -0.2564  0.7219
  310MOL0     H40878   9.684   0.963   7.411  1.0212  0.2987 -2.1487
  310MOL0     H40879   9.816   1.075   7.448 -1.2474  0.1212  0.1597
  310MOL0     H40880   9.862   0.861   7.300 -0.1739 -1.8458  0.3875
  310MOL0     H40881   9.863   0.786   7.462 -0.7558 -0.1509 -0.0549
  310MOL0     H40882  10.081   0.671   7.339 -0.8880 -0.5968 -2.2657
  310MOL0     H40883  10.305   0.592   7.316  1.6532  0.6606  0.3172
  310MOL0     H40884  10.659   0.507   7.598 -0.9323 -2.6555  0.4793
  310MOL0     H40885  10.903   0.470   7.626 -0.2239 -0.7229 -1.0528
  310MOL0     H40886  11.171   0.558   7.303 -3.6965  1.1079  0.4701
  310MOL0     H40887  11.134   0.401   7.250  0.5506  0.0006 -0.4963
  310MOL0     H40888  11.336   0.442   7.477  1.2516  1.2405 -1.4262
  310MOL0     H40889  11.373   0.437   7.309  0.0360 -0.0854 -1.3388
  310MOL0     H40890  11.213   0.198   7.360 -0.3960  0.5673  1.7314
  310MOL0     H40891  11.299   0.216   7.510  3.2016  1.9526  0.2625
  310MOL0     H40892  11.403   0.067   7.310  2.9271 -1.4895  0.0902
  310MOL0     H40893  11.469   0.225   7.256  1.9183 -1.0428  0.6815
  310MOL0     H40894  11.533   0.107   7.532  0.4778  1.0479  0.5948
  310MOL0     H40895  11.563   0.268   7.469  0.6124  0.0028  0.1486
  310MOL0     H40896  11.693   0.198   7.288  4.5479  0.4290  0.7184
  310MOL0     H40897  11.667   0.032   7.321  1.3086 -1.9584  2.7014
  310MOL0     H40898  11.823   0.220   7.507  2.8786 -0.7424 -0.4372
  310MOL0     H40899  11.796   0.033   7.523  3.7709 -1.3415 -1.1171
  310MOL0     H40900  11.930   0.201   7.307 -1.1110 -0.1029 -1.2819
  310MOL0     H40901  11.907   0.020   7.307 -0.2259 -1.3578  1.4096
  310MOL0     H40902  10.942   0.474   7.205  0.1841 -2.2826  1.1043
  310MOL0     H40903  10.709   0.554   7.178  1.6596  1.4820  0.1416
  310MOL0     H40904  10.466   0.960   7.472  0.8207 -1.1111  0.7002
  310MOL0     H40905  10.226   1.049   7.506 -2.4511 -1.5010 -0.0937
  310MOL0     H40906  10.534   0.556   7.987  1.0715 -0.0466  0.1412
  310MOL0     H40907  10.753   0.459   7.981 -0.2904 -1.7340  1.2886
  310MOL0     H40908  11.028   0.090   8.160 -0.4277  1.7420  0.0080
  310MOL0     H40909  11.217  -0.069   8.153 -0.4426  2.9479  0.9570
  310MOL0     H40910  11.400  -0.310   7.824 -1.1143  1.7722 -1.9665
  310MOL0     H40911  11.222  -0.286   7.848  0.2781 -0.3766 -1.1268
  310MOL0     H40912  11.263  -0.321   8.104 -0.1714 -0.2398 -0.8795
  310MOL0     H40913  11.303  -0.458   8.017  1.9225 -0.5838 -0.3283
  310MOL0     H40914  11.506  -0.247   8.108  1.1708 -0.6726  2.5113
  310MOL0     H40915  11.546  -0.393   8.013 -0.3237 -0.4843 -0.4141
  310MOL0     H40916  11.436  -0.367   8.295  0.4498  0.5668  0.0615
  310MOL0     H40917  11.438  -0.518   8.221  0.7429 -0.3673  0.9756
  310MOL0     H40918  11.854  -0.478   8.315 -0.4412 -3.0919 -1.1316
  310MOL0     H40919  11.242  -0.009   7.728  0.6658  1.1248  0.3340
  310MOL0     H40920  11.023   0.115   7.726 -1.6092  0.7499  0.7794
  311MOL0     O40921   2.757   4.059   0.777 -0.4744  0.4194  0.1270
  311MOL0     C40922   2.773   4.013   0.888  0.3678 -0.0001  0.3404
  311MOL0     O40923   2.695   4.037   0.985 -0.7207  0.1845  0.0412
  311MOL0     C40924   2.562   4.081   0.976 -0.4259 -1.2439  0.6399
  311MOL0     C40925   2.490   4.087   1.094 -0.4106  0.5903  0.0894
  311MOL0     C40926   2.349   4.093   1.096  0.2397  0.1473  0.6875
  311MOL0     C40927   2.280   4.117   0.974  0.3687  0.3065  0.5074
  311MOL0     O40928   2.146   4.116   0.972  0.8903  0.2947 -0.8608
  311MOL0     C40929   2.066   4.181   0.875 -0.4755  0.3152  0.3565
  311MOL0     C40930   1.936   4.237   0.949 -0.1828 -0.5793 -0.0102
  311MOL0     C40931   1.810   4.230   0.857 -0.1549 -0.9200  0.6620
  311MOL0     C40932   1.810   4.315   0.730 -0.5639  0.3961  0.7453
  311MOL0     C40933   1.672   4.294   0.655  0.2065  0.4373  0.7600
  311MOL0     C40934   1.674   4.384   0.533 -0.2447  0.2973  0.2347
  311MOL0     C40935   1.547   4.380   0.457 -0.7823  0.8128  0.0126
  311MOL0     C40936   1.549   4.448   0.318 -0.1171  0.1166 -0.7128
  311MOL0     N40937   1.420   4.461   0.255  0.7883 -0.8970  0.3801
  311MOL0     C40938   1.318   4.539   0.285 -0.3912 -0.1695 -0.3160
  311MOL0     C40939   1.225   4.510   0.187  1.0666  1.3417  0.0206
  311MOL0     C40940   1.084   4.572   0.181  0.1334  0.1520  0.1408
  311MOL0     C40941   0.988   4.451   0.205  0.3137  0.5741 -0.1601
  311MOL0     C40942   0.856   4.513   0.222 -0.1780  0.1877 -0.5164
  311MOL0     C40943   0.752   4.400   0.248 -0.2484  0.2973  0.5029
  311MOL0     O40944   0.623   4.454   0.257 -0.4887 -0.0222  0.6146
  311MOL0     C40945   0.515   4.386   0.205  1.0932 -0.3718 -0.8577
  311MOL0     C40946   0.523   4.258   0.151 -0.2349 -0.0428 -0.9556
  311MOL0     C40947   0.405   4.190   0.123  0.4884  0.2023 -0.8893
  311MOL0     C40948   0.273   4.234   0.142 -0.5498 -0.4722  0.2906
  311MOL0     C40949   0.152   4.157   0.119 -0.1528 -0.3418 -1.0104
  311MOL0     O40950   0.036   4.211   0.101  0.1503  0.0040  0.7674
  311MOL0     C40951  -0.074   4.131   0.081  0.9951  0.3537  1.4609
  311MOL0     C40952  -0.149   4.130  -0.037 -0.3470  0.0854  0.3030
  311MOL0     C40953  -0.250   4.035  -0.061  0.8155 -0.0566  0.2814
  311MOL0     C40954  -0.295   3.949   0.040  0.3453 -0.0465  0.4412
  311MOL0     O40955  -0.396   3.866   0.017  0.0877  0.3994  0.3014
  311MOL0     C40956  -0.486   3.833   0.131  0.0204 -0.0061  0.1621
  311MOL0     C40957  -0.622   3.794   0.071 -0.0377 -0.2635  0.4333
  311MOL0     C40958  -0.704   3.768   0.205 -0.8693 -0.2616  0.3198
  311MOL0     C40959  -0.848   3.713   0.177 -0.5390 -0.2648 -0.4488
  311MOL0     C40960  -0.906   3.660   0.311  0.3615 -0.4278 -0.5013
  311MOL0     C40961  -0.893   3.770   0.425 -0.1278 -1.1479 -0.4359
  311MOL0     C40962  -0.983   3.749   0.541  0.1971  0.1156 -0.1793
  311MOL0     C40963  -0.956   3.856   0.647  0.0048 -0.3618  0.3121
  311MOL0    Cl40964  -1.078   3.850   0.765 -0.4405 -0.1818 -0.2764
  311MOL0     C40965  -0.222   3.943   0.164  0.7814 -0.4242 -0.5573
  311MOL0     C40966  -0.107   4.029   0.172  0.7405 -0.0917 -0.2913
  311MOL0     O40967   0.172   4.030   0.119 -0.2236  0.9232  0.5560
  311MOL0     C40968   0.271   4.372   0.172 -0.5762  0.4587 -0.5404
  311MOL0     C40969   0.388   4.445   0.204 -0.3993 -0.0927 -0.8686
  311MOL0     N40970   1.273   4.413   0.107 -0.0595 -0.0461 -0.7886
  311MOL0     N40971   1.390   4.379   0.156  0.2271  1.0084  0.2050
  311MOL0     C40972   2.345   4.107   0.853 -0.4633 -0.7706  0.0105
  311MOL0     C40973   2.492   4.091   0.849  0.6527  0.7399 -0.3674
  311MOL0     C40974   2.875   3.914   0.905  0.3748  0.3361 -0.0904
  311MOL0     C40975   2.873   3.832   1.020 -1.2316 -0.2171 -0.7036
  311MOL0     C40976   2.969   3.731   1.038  0.9266 -0.5472  0.5091
  311MOL0     C40977   3.081   3.722   0.954  0.7201  0.2935  0.6830
  311MOL0     O40978   3.176   3.626   0.975 -0.0657  0.2869 -0.3528
  311MOL0     C40979   3.145   3.485   0.973  0.3937 -0.1503  0.7752
  311MOL0     C40980   3.165   3.421   1.107 -0.1761  1.1239 -0.2157
  311MOL0     C40981   3.309   3.436   1.161  0.0272  0.3821 -0.4352
  311MOL0     C40982   3.320   3.347   1.283 -0.0711 -0.4015  0.0480
  311MOL0     C40983   3.317   3.210   1.251  0.0231 -0.0705 -0.5565
  311MOL0     C40984   3.294   3.089   1.212 -0.3935  0.2494 -0.5850
  311MOL0     C40985   3.097   3.816   0.855 -0.1460 -0.4495  0.4023
  311MOL0     C40986   2.994   3.906   0.822 -0.1076  0.5893  0.5187
  311MOL0     H40987   2.551   4.078   1.183  1.0183  0.8033 -0.8255
  311MOL0     H40988   2.289   4.076   1.185 -3.1003  2.0397 -1.0253
  311MOL0     H40989   2.034   4.095   0.814 -0.8209  0.8690 -0.2612
  311MOL0     H40990   2.125   4.249   0.813  2.6611 -2.0822  0.4812
  311MOL0     H40991   1.948   4.343   0.974 -2.4960  0.5466 -3.1123
  311MOL0     H40992   1.919   4.184   1.043  4.6629  1.2809  2.2610
  311MOL0     H40993   1.715   4.256   0.906 -0.8469  0.4531 -1.2889
  311MOL0     H40994   1.801   4.127   0.821  1.0770 -0.8703  0.1967
  311MOL0     H40995   1.820   4.422   0.751  3.8296  0.2747  0.1690
  311MOL0     H40996   1.891   4.280   0.665 -1.5660 -1.6614  0.5309
  311MOL0     H40997   1.587   4.318   0.720  0.6036 -0.4847  1.6618
  311MOL0     H40998   1.673   4.191   0.619 -0.5860  0.4479  0.6846
  311MOL0     H40999   1.753   4.355   0.463  0.4317  1.4982  0.4756
  311MOL0     H41000   1.689   4.488   0.563  0.0312  1.5837 -3.7710
  311MOL0     H41001   1.531   4.273   0.440 -0.0636  1.1385 -3.2406
  311MOL0     H41002   1.469   4.424   0.520  1.4509  0.7843  3.0619
  311MOL0     H41003   1.615   4.392   0.251  1.2737 -0.2161  0.8679
  311MOL0     H41004   1.590   4.548   0.337 -0.4416 -0.0184  0.7890
  311MOL0     H41005   1.320   4.606   0.370 -2.9318  0.8315 -0.9695
  311MOL0     H41006   1.066   4.619   0.084 -0.4097 -0.0583  0.1400
  311MOL0     H41007   1.074   4.651   0.256 -1.1117  0.8037 -0.6779
  311MOL0     H41008   1.014   4.379   0.284  1.0637 -0.5614 -1.3999
  311MOL0     H41009   0.986   4.400   0.109 -2.3272 -1.6454  0.9495
  311MOL0     H41010   0.859   4.573   0.313  1.4754 -1.4799  0.6011
  311MOL0     H41011   0.825   4.565   0.130 -0.0827 -0.1313 -0.7312
  311MOL0     H41012   0.759   4.348   0.345 -1.4913  1.8741  1.4911
  311MOL0     H41013   0.761   4.332   0.163 -1.8967  1.1207 -0.3541
  311MOL0     H41014   0.616   4.201   0.149  0.6022  1.1986  0.2163
  311MOL0     H41015   0.417   4.089   0.085 -0.3094  0.0156 -0.6742
  311MOL0     H41016  -0.114   4.205  -0.107 -2.6475  3.2213  2.2543
  311MOL0     H41017  -0.304   4.035  -0.155  0.0936  0.4069  0.6867
  311MOL0     H41018  -0.500   3.918   0.199  0.5661 -1.2748  1.9418
  311MOL0     H41019  -0.446   3.750   0.189 -4.0703 -0.1218  3.3148
  311MOL0     H41020  -0.619   3.703   0.010  2.3118  0.4368 -0.5937
  311MOL0     H41021  -0.670   3.876   0.018 -1.8262 -0.8084  1.1314
  311MOL0     H41022  -0.708   3.862   0.260 -0.2953 -0.7951  1.2873
  311MOL0     H41023  -0.659   3.690   0.266 -3.2884 -2.5920 -0.6941
  311MOL0     H41024  -0.907   3.801   0.149  0.1775  0.7702  1.1488
  311MOL0     H41025  -0.867   3.631   0.107 -3.4769  0.7556 -0.9641
  311MOL0     H41026  -0.852   3.571   0.345 -1.7272 -0.4431  3.4064
  311MOL0     H41027  -1.010   3.626   0.306  0.4359 -0.9511  0.9544
  311MOL0     H41028  -0.917   3.869   0.385 -0.6672 -0.7383  0.8555
  311MOL0     H41029  -0.798   3.761   0.479 -2.6579 -0.4382  4.7445
  311MOL0     H41030  -1.086   3.754   0.505  0.4398  2.9175 -0.7132
  311MOL0     H41031  -0.965   3.649   0.580 -0.0667  0.0933 -0.1152
  311MOL0     H41032  -0.946   3.957   0.604  2.9604 -1.0540 -0.9094
  311MOL0     H41033  -0.857   3.841   0.692  0.7897  1.2137 -0.7495
  311MOL0     H41034  -0.243   3.850   0.217  2.3824 -0.3628  0.2677
  311MOL0     H41035  -0.040   4.020   0.256 -0.0302 -0.8178  0.2606
  311MOL0     H41036   0.174   4.421   0.180 -1.0544 -0.7159  1.8830
  311MOL0     H41037   0.393   4.549   0.235 -0.6337 -0.0345 -1.0218
  311MOL0     H41038   2.293   4.106   0.758  1.0173  2.4933 -0.9909
  311MOL0     H41039   2.530   4.071   0.749  3.2474 -1.3608  0.9055
  311MOL0     H41040   2.798   3.853   1.096 -1.8481  4.0178 -2.2056
  311MOL0     H41041   2.969   3.665   1.124 -2.1182 -1.1120  0.1544
  311MOL0     H41042   3.209   3.437   0.899  0.6534 -0.6509  1.3134
  311MOL0     H41043   3.041   3.476   0.939  0.7080  1.2008 -0.6700
  311MOL0     H41044   3.094   3.456   1.182  0.7905  0.1071  1.2152
  311MOL0     H41045   3.128   3.318   1.108 -1.7751  1.6768 -0.0546
  311MOL0     H41046   3.321   3.542   1.186 -1.6321  0.7791 -1.1846
  311MOL0     H41047   3.381   3.396   1.089 -0.5548 -3.7874  1.0423
  311MOL0     H41048   3.413   3.370   1.336 -0.3573 -0.6337  0.6604
  311MOL0     H41049   3.235   3.361   1.350  1.3376  0.7289  1.6814
  311MOL0     H41050   3.281   2.985   1.190  0.5886  0.2107 -1.0222
  311MOL0     H41051   3.185   3.797   0.794  0.0397 -1.3317  0.9188
  311MOL0     H41052   2.999   3.970   0.735 -0.9379  1.2644  0.9461
  312MOL0     O41053   3.312  10.988   2.947 -0.3421 -0.5593  0.4154
  312MOL0     C41054   3.335  10.981   2.826 -0.3313  0.3107 -0.7788
  312MOL0     O41055   3.244  10.971   2.725  0.4805  0.0472  0.2257
  312MOL0     C41056   3.117  11.009   2.749 -0.5486 -0.5985  0.2895
  312MOL0     C41057   3.017  10.927   2.689  1.0218 -1.1030  1.0573
  312MOL0     C41058   2.883  10.979   2.700 -1.2443 -0.4529 -0.9561
  312MOL0     C41059   2.859  11.104   2.771  0.3000 -0.1862  0.4273
  312MOL0     O41060   2.734  11.149   2.790 -0.0629  0.1016  0.1420
  312MOL0     C41061   2.649  11.140   2.679  0.4896  0.1046  0.2001
  312MOL0     C41062   2.522  11.217   2.702 -1.2181  0.1402 -0.3752
  312MOL0     C41063   2.435  11.144   2.810 -0.9446  0.0449  0.5047
  312MOL0     C41064   2.307  11.237   2.820 -0.9392  0.0928  0.9488
  312MOL0     C41065   2.213  11.177   2.927 -0.3363 -0.8941 -0.6351
  312MOL0     C41066   2.117  11.072   2.864  0.0800  0.4189 -0.1801
  312MOL0     C41067   2.069  10.989   2.978 -0.0447  0.5098 -0.4753
  312MOL0     C41068   2.021  10.850   2.926 -1.2859 -0.2916  0.4478
  312MOL0     N41069   2.123  10.762   2.851  0.1083  0.0739 -0.3113
  312MOL0     C41070   2.251  10.740   2.892 -0.5109  0.3331  0.5738
  312MOL0     C41071   2.302  10.654   2.804 -0.2197  0.3600  0.5372
  312MOL0     C41072   2.436  10.593   2.807 -0.2793  0.8106  0.1421
  312MOL0     C41073   2.547  10.698   2.813  0.3039 -0.0219 -0.6299
  312MOL0     C41074   2.647  10.664   2.931  0.2292  0.1265  0.5464
  312MOL0     C41075   2.747  10.769   2.961  0.7366  0.1593  0.3165
  312MOL0     O41076   2.807  10.753   3.096  0.5384 -0.1051  0.1024
  312MOL0     C41077   2.947  10.758   3.101  0.2355  0.5196  0.4372
  312MOL0     C41078   3.043  10.737   2.987 -0.7052  0.0506  0.1418
  312MOL0     C41079   3.178  10.716   3.011  0.0471  0.2907  0.6489
  312MOL0     C41080   3.225  10.716   3.144 -0.5031 -0.4155  0.3202
  312MOL0     C41081   3.357  10.699   3.181 -0.1798  0.6172  0.5435
  312MOL0     O41082   3.446  10.667   3.081 -0.2396  0.0365  0.2497
  312MOL0     C41083   3.576  10.651   3.113 -0.4883  0.8239 -0.2416
  312MOL0     C41084   3.638  10.752   3.187 -0.4006  0.0396  0.7075
  312MOL0     C41085   3.767  10.742   3.226  0.0910 -0.0265 -0.0945
  312MOL0     C41086   3.849  10.634   3.185 -0.8755 -0.2145  0.4314
  312MOL0     O41087   3.984  10.624   3.209  1.2979  0.4955  0.5691
  312MOL0     C41088   4.028  10.693   3.325 -0.4849 -0.4400  0.1369
  312MOL0     C41089   4.167  10.652   3.380 -0.3763 -0.1132 -0.7753
  312MOL0     C41090   4.288  10.673   3.288  0.2471 -0.3237 -0.2056
  312MOL0     C41091   4.417  10.666   3.372 -0.2360  1.0898 -0.2946
  312MOL0     C41092   4.540  10.632   3.280  0.2318 -0.0786 -0.1236
  312MOL0     C41093   4.651  10.574   3.365  0.1014  0.9319  1.2546
  312MOL0     C41094   4.721  10.659   3.463  0.6191 -0.0729 -0.2808
  312MOL0     C41095   4.848  10.723   3.409 -0.8368 -0.2004  1.0539
  312MOL0    Cl41096   4.915  10.842   3.524 -0.1079 -0.2148  0.0014
  312MOL0     C41097   3.788  10.530   3.107 -0.6437  0.5410 -0.6809
  312MOL0     C41098   3.646  10.531   3.082 -0.1940 -0.7806 -0.0686
  312MOL0     O41099   3.385  10.700   3.305  0.5681 -0.4279 -0.1489
  312MOL0     C41100   3.131  10.732   3.251 -0.0773  0.3406  0.5207
  312MOL0     C41101   3.000  10.758   3.226  0.5258 -0.0095 -0.1669
  312MOL0     N41102   2.207  10.632   2.706  0.2356  0.2138  0.0446
  312MOL0     N41103   2.102  10.699   2.737  0.7331 -0.0051  0.2544
  312MOL0     C41104   2.963  11.188   2.818 -0.8603  0.1581  0.4912
  312MOL0     C41105   3.089  11.142   2.802 -0.1843 -0.2594 -0.5853
  312MOL0     C41106   3.465  10.986   2.789 -0.4268  0.6817 -0.7268
  312MOL0     C41107   3.565  10.947   2.884  0.2216 -0.2855 -0.4938
  312MOL0     C41108   3.697  10.934   2.833 -0.6003  0.6926 -0.5502
  312MOL0     C41109   3.735  10.960   2.699 -0.8903 -0.7548 -0.4474
  312MOL0     O41110   3.861  10.929   2.671 -0.2569 -0.2481  0.3505
  312MOL0     C41111   3.913  10.970   2.544  0.0197  0.5924  0.4998
  312MOL0     C41112   4.061  10.924   2.531 -1.1453 -0.2189  0.2624
  312MOL0     C41113   4.125  10.989   2.407  0.3968 -0.1626  0.9271
  312MOL0     C41114   4.270  10.943   2.387 -0.1806 -0.1384  0.7721
  312MOL0     C41115   4.340  11.026   2.283  0.1751 -0.2217  0.1212
  312MOL0     C41116   4.384  11.081   2.189 -0.3115  0.4836  0.9475
  312MOL0     C41117   3.639  10.994   2.605  0.7716 -0.0786  0.6233
  312MOL0     C41118   3.505  11.007   2.651 -0.0846 -0.8682 -0.5330
  312MOL0     H41119   3.047  10.842   2.629  3.0760  0.2794  0.0047
  312MOL0     H41120   2.805  10.915   2.661  0.8498 -5.3530  1.9152
  312MOL0     H41121   2.624  11.037   2.652  1.4632  0.0076 -0.3976
  312MOL0     H41122   2.701  11.188   2.596  0.4257  1.7579  1.0846
  312MOL0     H41123   2.467  11.208   2.607 -2.3763  0.0646  0.2878
  312MOL0     H41124   2.538  11.324   2.717 -0.9345  0.2213 -1.2083
  312MOL0     H41125   2.487  11.141   2.906 -1.1821 -0.2558  0.6253
  312MOL0     H41126   2.403  11.041   2.791 -0.1866 -0.9457  3.9412
  312MOL0     H41127   2.345  11.336   2.845 -1.0042  0.6269 -0.9597
  312MOL0     H41128   2.251  11.235   2.726  1.7277 -0.3901 -0.7332
  312MOL0     H41129   2.155  11.260   2.969  1.7858 -0.3192  1.3590
  312MOL0     H41130   2.274  11.131   3.005 -1.6532  0.7310  1.4492
  312MOL0     H41131   2.176  11.007   2.798 -1.4312  0.6054 -1.8035
  312MOL0     H41132   2.040  11.113   2.797 -1.3537 -1.8358 -0.0165
  312MOL0     H41133   2.144  10.984   3.058 -2.8386  1.6326  2.4233
  312MOL0     H41134   1.984  11.035   3.029 -0.5485  0.4791 -1.2782
  312MOL0     H41135   1.929  10.860   2.868 -2.4700 -0.3749  2.2307
  312MOL0     H41136   1.987  10.796   3.015 -2.9786 -0.6235 -0.3543
  312MOL0     H41137   2.301  10.783   2.979  0.9493 -1.0372  0.4591
  312MOL0     H41138   2.442  10.545   2.709  1.9605  0.5254  0.3679
  312MOL0     H41139   2.444  10.523   2.891  1.0735  0.4173 -0.2914
  312MOL0     H41140   2.501  10.796   2.832  0.3075 -0.1324 -0.0124
  312MOL0     H41141   2.607  10.717   2.724 -0.5324  4.4937 -0.4876
  312MOL0     H41142   2.584  10.655   3.020 -3.6573 -0.2288 -1.9877
  312MOL0     H41143   2.698  10.569   2.913  3.6493  1.6964  1.0962
  312MOL0     H41144   2.684  10.858   2.962  2.5585  1.5384  2.1618
  312MOL0     H41145   2.828  10.782   2.890  3.2220 -3.6596  2.0922
  312MOL0     H41146   3.017  10.739   2.882  2.6937  1.4507 -0.7966
  312MOL0     H41147   3.242  10.706   2.923  0.4048  0.9434  0.8259
  312MOL0     H41148   3.585  10.842   3.218 -4.6844 -1.4201 -1.5969
  312MOL0     H41149   3.822  10.824   3.272  2.1563  0.6896 -3.4515
  312MOL0     H41150   3.954  10.670   3.402 -0.8914  1.1876  0.2549
  312MOL0     H41151   4.033  10.800   3.307  0.2100 -0.1042  2.0877
  312MOL0     H41152   4.150  10.548   3.409 -2.0831  0.4445  0.3976
  312MOL0     H41153   4.179  10.707   3.474 -1.1029 -1.2524  0.0191
  312MOL0     H41154   4.283  10.765   3.230 -0.4665 -1.1061 -1.4138
  312MOL0     H41155   4.276  10.594   3.214 -0.4740 -0.8683  0.4724
  312MOL0     H41156   4.441  10.752   3.436 -1.9416 -0.1035  2.1088
  312MOL0     H41157   4.405  10.588   3.449  1.4873 -0.0917 -1.1665
  312MOL0     H41158   4.577  10.726   3.237  2.4612  0.2915  2.3385
  312MOL0     H41159   4.506  10.564   3.202 -2.5285 -0.4308  1.2848
  312MOL0     H41160   4.722  10.534   3.292 -0.4439  0.6361  0.8740
  312MOL0     H41161   4.613  10.492   3.427  0.2610 -0.2569 -0.1421
  312MOL0     H41162   4.655  10.742   3.490  1.5680  1.2138 -1.7004
  312MOL0     H41163   4.758  10.602   3.549  0.8148 -0.7262 -0.7920
  312MOL0     H41164   4.835  10.766   3.310  0.7377 -1.6076  0.1887
  312MOL0     H41165   4.923  10.645   3.393 -0.5363  0.3003 -0.0790
  312MOL0     H41166   3.855  10.447   3.089  0.2092  0.5971  1.8772
  312MOL0     H41167   3.587  10.460   3.026 -2.3433  1.4160 -0.7969
  312MOL0     H41168   3.156  10.736   3.356  0.0376 -1.2433  0.5726
  312MOL0     H41169   2.942  10.780   3.316 -0.6952 -2.9853 -0.1138
  312MOL0     H41170   2.938  11.284   2.862  0.2563  0.7715 -0.1531
  312MOL0     H41171   3.171  11.206   2.834  0.6705 -0.6915 -1.8377
  312MOL0     H41172   3.544  10.915   2.986 -0.7917 -1.0311 -0.9258
  312MOL0     H41173   3.777  10.909   2.902 -1.3602  1.3536  0.5999
  312MOL0     H41174   3.896  11.077   2.537 -0.9155  0.3670 -1.3747
  312MOL0     H41175   3.853  10.927   2.463 -0.6093  0.8316  0.8356
  312MOL0     H41176   4.119  10.958   2.617 -2.0113 -1.3524  1.3481
  312MOL0     H41177   4.067  10.814   2.530 -1.0716 -0.2416  1.3830
  312MOL0     H41178   4.122  11.098   2.415 -1.5142  0.2103 -2.6168
  312MOL0     H41179   4.067  10.961   2.318 -0.3767 -1.4699  1.8082
  312MOL0     H41180   4.332  10.948   2.477 -0.9408 -3.5471  1.6338
  312MOL0     H41181   4.270  10.840   2.352  2.1576  1.0930 -3.5699
  312MOL0     H41182   4.426  11.132   2.105 -0.5219  0.4887  0.8465
  312MOL0     H41183   3.666  10.985   2.500 -4.9503 -0.1931 -1.2148
  312MOL0     H41184   3.424  11.035   2.585 -1.5160 -0.5026  1.2722
  313MOL0     O41185   5.949   5.018   6.955 -0.5141  0.6870 -0.4580
  313MOL0     C41186   5.978   5.135   6.987  0.5682 -0.0603 -0.2992
  313MOL0     O41187   5.892   5.245   7.007 -0.4545  0.4177  0.0111
  313MOL0     C41188   5.759   5.205   6.995 -0.8493 -0.8692 -0.8090
  313MOL0     C41189   5.681   5.189   7.108  0.7920 -0.5609  0.4413
  313MOL0     C41190   5.542   5.164   7.101  0.0978  0.0422  0.1215
  313MOL0     C41191   5.479   5.150   6.978 -0.9130 -0.1007  0.4190
  313MOL0     O41192   5.342   5.142   6.957  0.0408  0.1500  0.2749
  313MOL0     C41193   5.263   5.064   7.047  0.3462 -0.1207 -0.3525
  313MOL0     C41194   5.121   5.060   7.004 -0.3101  0.2502 -0.3505
  313MOL0     C41195   5.062   5.202   6.989 -0.7369 -0.0283 -0.8480
  313MOL0     C41196   4.915   5.217   6.976  0.8553  0.4390  0.6415
  313MOL0     C41197   4.895   5.367   6.953 -0.0917  0.5394  0.1456
  313MOL0     C41198   4.756   5.399   6.888 -0.1327 -0.1352  0.1708
  313MOL0     C41199   4.729   5.547   6.891  0.1246  0.1753  0.0336
  313MOL0     C41200   4.582   5.577   6.831  0.1991 -0.2983  0.5384
  313MOL0     N41201   4.573   5.565   6.684  0.1235 -0.5519 -0.2456
  313MOL0     C41202   4.642   5.628   6.586 -0.5124 -0.2226 -0.6053
  313MOL0     C41203   4.612   5.566   6.477 -0.0964 -0.1175 -0.2968
  313MOL0     C41204   4.657   5.591   6.343 -0.1319  0.1447  0.8025
  313MOL0     C41205   4.570   5.516   6.232 -0.6250 -0.4578  0.1046
  313MOL0     C41206   4.627   5.572   6.097  0.6432  0.5693 -0.7515
  313MOL0     C41207   4.559   5.537   5.963  0.1861  0.7385  0.0260
  313MOL0     O41208   4.444   5.614   5.931  0.1721  0.2874 -0.6600
  313MOL0     C41209   4.354   5.571   5.838 -0.3245 -0.1421  0.3564
  313MOL0     C41210   4.390   5.502   5.717 -0.9588  1.2112 -0.8797
  313MOL0     C41211   4.296   5.449   5.626  0.0669  0.6080 -0.0439
  313MOL0     C41212   4.156   5.474   5.647  0.9496  0.3637 -0.4281
  313MOL0     C41213   4.060   5.420   5.557  0.7601  0.2416  0.3902
  313MOL0     O41214   3.920   5.436   5.587 -0.5123 -0.9054 -0.2845
  313MOL0     C41215   3.837   5.420   5.485 -0.4663 -0.0776 -0.1378
  313MOL0     C41216   3.834   5.510   5.376 -0.0187 -0.4131  0.5957
  313MOL0     C41217   3.749   5.484   5.268 -0.1955 -0.2959 -0.7913
  313MOL0     C41218   3.672   5.376   5.274  0.6306 -1.3488 -0.6896
  313MOL0     O41219   3.577   5.347   5.184 -1.0749  0.6754 -0.0123
  313MOL0     C41220   3.571   5.404   5.053 -0.2828 -1.2565 -0.0200
  313MOL0     C41221   3.486   5.313   4.953 -0.7368  0.1084 -0.4595
  313MOL0     C41222   3.356   5.270   5.023  0.5986 -0.6302  0.5151
  313MOL0     C41223   3.273   5.173   4.936  0.3554  0.3652  0.0829
  313MOL0     C41224   3.307   5.027   4.961 -0.6018 -0.1125 -0.2214
  313MOL0     C41225   3.217   4.941   4.880 -0.1342  0.0556  1.0123
  313MOL0     C41226   3.262   4.795   4.896 -0.1291  0.2835 -0.0544
  313MOL0     C41227   3.352   4.756   4.780 -0.1476  0.0404 -0.9649
  313MOL0    Cl41228   3.246   4.721   4.648  0.3461  0.3611  0.4979
  313MOL0     C41229   3.671   5.282   5.377  0.0492  0.0038  0.0368
  313MOL0     C41230   3.744   5.311   5.493 -0.5046 -0.2666  0.1728
  313MOL0     O41231   4.106   5.348   5.471  0.4065  0.2477  0.6424
  313MOL0     C41232   4.123   5.558   5.753  0.3436 -0.3047  0.1762
  313MOL0     C41233   4.214   5.600   5.852  0.2358  0.2445 -0.2170
  313MOL0     N41234   4.524   5.469   6.503  1.1098 -0.0439 -0.2346
  313MOL0     N41235   4.508   5.458   6.631  0.2808 -1.2100 -0.3049
  313MOL0     C41236   5.559   5.179   6.864  0.0871  0.7244  0.4689
  313MOL0     C41237   5.694   5.208   6.877 -0.9829  0.5243 -0.4133
  313MOL0     C41238   6.127   5.146   7.008  0.8431  0.2030  0.2898
  313MOL0     C41239   6.207   5.036   6.989 -0.5817  0.3418  0.3879
  313MOL0     C41240   6.344   5.049   7.005  0.0826  0.3194 -0.2026
  313MOL0     C41241   6.404   5.171   7.039 -0.3252  0.1250  0.3686
  313MOL0     O41242   6.544   5.175   7.037  0.7239 -0.4702 -1.0614
  313MOL0     C41243   6.605   5.277   7.115  0.1241  0.3039  0.7219
  313MOL0     C41244   6.756   5.281   7.112  0.3933  0.6056 -0.2648
  313MOL0     C41245   6.816   5.373   7.219 -0.8310 -0.0054 -0.3469
  313MOL0     C41246   6.972   5.363   7.217 -0.4388  0.7030  0.8916
  313MOL0     C41247   7.026   5.417   7.094 -1.3598 -0.3083  0.1478
  313MOL0     C41248   7.087   5.486   7.008 -0.7151  0.1047  0.9973
  313MOL0     C41249   6.328   5.283   7.052 -0.7298  0.2521 -0.2177
  313MOL0     C41250   6.186   5.271   7.033 -0.5834  1.3377  0.5059
  313MOL0     H41251   5.728   5.211   7.203 -0.8549 -0.6802  1.3164
  313MOL0     H41252   5.486   5.168   7.194 -1.0830  1.1006 -0.5944
  313MOL0     H41253   5.268   5.099   7.151  0.3361  1.2009 -0.7811
  313MOL0     H41254   5.307   4.966   7.067  1.9293  1.2478  3.9721
  313MOL0     H41255   5.068   5.001   7.080  1.7702 -0.9805  0.2136
  313MOL0     H41256   5.130   5.011   6.907 -4.0983 -0.2214 -0.6353
  313MOL0     H41257   5.102   5.242   6.895  0.8199  0.3194 -0.0537
  313MOL0     H41258   5.104   5.266   7.066 -0.6974  2.2507 -2.6627
  313MOL0     H41259   4.877   5.153   6.896  0.8021  2.8260 -1.3838
  313MOL0     H41260   4.861   5.195   7.068 -0.8164  0.6570 -0.2426
  313MOL0     H41261   4.967   5.414   6.885 -1.8402  0.7120 -1.6452
  313MOL0     H41262   4.898   5.421   7.048 -2.1058  0.6498  0.1835
  313MOL0     H41263   4.681   5.344   6.944 -1.0639  2.0656  1.1876
  313MOL0     H41264   4.780   5.371   6.784 -0.2909  1.8680 -0.4354
  313MOL0     H41265   4.730   5.577   6.996  0.1714  0.1279  0.0468
  313MOL0     H41266   4.810   5.599   6.839 -0.1987  1.8716  1.1547
  313MOL0     H41267   4.563   5.680   6.862  0.0293  0.7075 -2.5003
  313MOL0     H41268   4.500   5.520   6.875 -1.5446  1.3170 -0.4450
  313MOL0     H41269   4.715   5.707   6.596 -0.3717 -0.2858 -1.1440
  313MOL0     H41270   4.759   5.553   6.338  0.0455  0.0422  3.4188
  313MOL0     H41271   4.660   5.700   6.337  1.3422  0.0978  0.4604
  313MOL0     H41272   4.463   5.535   6.240 -1.0636 -0.9437 -3.3400
  313MOL0     H41273   4.584   5.408   6.230 -2.1999 -0.6688 -0.0920
  313MOL0     H41274   4.625   5.680   6.079  2.2621  0.3456 -2.6453
  313MOL0     H41275   4.727   5.533   6.119 -0.8477 -1.8744  2.5158
  313MOL0     H41276   4.538   5.432   5.943  3.1594  0.5928 -3.1454
  313MOL0     H41277   4.636   5.558   5.888  0.4584 -0.8877 -0.1796
  313MOL0     H41278   4.495   5.493   5.691 -0.4500  2.3251  0.6252
  313MOL0     H41279   4.339   5.395   5.542 -0.3237  2.2763 -1.3965
  313MOL0     H41280   3.894   5.600   5.372 -0.0235 -0.3422  1.7309
  313MOL0     H41281   3.732   5.550   5.183  0.0446  0.9033  0.0783
  313MOL0     H41282   3.674   5.396   5.019  0.8764  1.5152  2.4803
  313MOL0     H41283   3.536   5.508   5.059  1.2423 -0.8148  3.7487
  313MOL0     H41284   3.543   5.222   4.935 -1.0862  0.0494 -1.3217
  313MOL0     H41285   3.472   5.369   4.860  0.1583 -0.0189 -0.6797
  313MOL0     H41286   3.296   5.361   5.033 -0.0817 -0.6568 -2.5202
  313MOL0     H41287   3.379   5.235   5.124  0.4060 -1.3995  0.3011
  313MOL0     H41288   3.166   5.189   4.953 -0.4118 -2.6892 -1.2353
  313MOL0     H41289   3.278   5.193   4.829  2.0292 -1.3715 -0.2000
  313MOL0     H41290   3.294   4.996   5.065  1.2813 -4.1090 -0.9822
  313MOL0     H41291   3.414   5.014   4.942 -0.2560  2.6704 -0.6125
  313MOL0     H41292   3.210   4.965   4.774 -3.0971  2.2964  1.5874
  313MOL0     H41293   3.116   4.960   4.917 -1.2526 -0.1167 -1.7431
  313MOL0     H41294   3.313   4.772   4.990 -1.0529 -2.0328 -0.0397
  313MOL0     H41295   3.172   4.733   4.899 -0.4542  0.6963  3.6124
  313MOL0     H41296   3.417   4.671   4.802 -0.3909  0.7752  3.6163
  313MOL0     H41297   3.417   4.842   4.761  0.4120 -0.3014 -0.6239
  313MOL0     H41298   3.599   5.202   5.364 -0.8320  0.7118  0.4106
  313MOL0     H41299   3.742   5.250   5.582 -2.6238  0.5889  0.7780
  313MOL0     H41300   4.023   5.589   5.781  0.5348  1.5154 -0.9963
  313MOL0     H41301   4.192   5.669   5.933 -0.5867 -0.7508  0.4334
  313MOL0     H41302   5.503   5.181   6.771  3.1002 -3.1610 -1.7645
  313MOL0     H41303   5.754   5.224   6.787  2.1701 -1.9331  1.0502
  313MOL0     H41304   6.172   4.935   6.967 -1.2207  0.1306  2.2025
  313MOL0     H41305   6.414   4.966   6.998 -0.3455 -0.0728  0.1221
  313MOL0     H41306   6.569   5.250   7.215 -0.7096  0.2889  0.4301
  313MOL0     H41307   6.567   5.376   7.088  3.4859  1.1581 -1.4064
  313MOL0     H41308   6.802   5.183   7.122 -1.0454 -0.2006 -1.0753
  313MOL0     H41309   6.793   5.307   7.012  1.7309 -1.4392 -0.3492
  313MOL0     H41310   6.797   5.346   7.323  1.0086  0.0047  0.0225
  313MOL0     H41311   6.793   5.478   7.196  0.6564  0.2343 -0.8583
  313MOL0     H41312   7.012   5.432   7.292 -0.7085  1.0136  0.7504
  313MOL0     H41313   7.007   5.260   7.228 -1.7887  0.4596  4.0297
  313MOL0     H41314   7.132   5.551   6.936  2.6439 -1.6257  1.3730
  313MOL0     H41315   6.363   5.384   7.069 -2.7495  1.2651 -1.6752
  313MOL0     H41316   6.120   5.357   7.037 -0.4685  1.5739 -1.7395
  314MOL0     O41317   8.135   3.031   8.304  0.5746  0.1858  0.2123
  314MOL0     C41318   8.085   3.017   8.414 -0.8297  0.1518  0.4133
  314MOL0     O41319   7.954   2.992   8.439  0.7572  0.0090 -0.3593
  314MOL0     C41320   7.851   2.964   8.352 -1.0655  1.0154  0.0829
  314MOL0     C41321   7.856   2.955   8.217 -0.9170 -0.9536  1.3876
  314MOL0     C41322   7.738   2.925   8.136 -0.8212 -0.1585 -0.4494
  314MOL0     C41323   7.619   2.908   8.198 -0.2147 -0.3052 -0.8632
  314MOL0     O41324   7.511   2.880   8.125  0.5305 -0.2322 -0.3463
  314MOL0     C41325   7.483   2.964   8.011  0.2041 -0.5879  0.9597
  314MOL0     C41326   7.344   2.930   7.963  0.2011 -0.1265  0.2660
  314MOL0     C41327   7.234   2.995   8.038  0.7149 -0.1609  0.5411
  314MOL0     C41328   7.096   2.927   8.022 -0.6882 -0.0596  0.5417
  314MOL0     C41329   7.055   2.892   7.877 -0.8429 -0.4723  0.7855
  314MOL0     C41330   6.907   2.841   7.873 -0.0148  0.3887 -0.4422
  314MOL0     C41331   6.901   2.702   7.943 -0.0943 -0.6026  0.5205
  314MOL0     C41332   6.880   2.588   7.841  1.3085  0.6404  0.0570
  314MOL0     N41333   6.752   2.608   7.766  0.4874 -0.7287  0.2970
  314MOL0     C41334   6.625   2.593   7.819  0.5401 -0.0662  0.3472
  314MOL0     C41335   6.546   2.610   7.711 -0.2216  0.9092  0.5555
  314MOL0     C41336   6.404   2.607   7.710  0.7142  0.1315 -0.3236
  314MOL0     C41337   6.350   2.457   7.698 -0.6213 -0.1836  0.7954
  314MOL0     C41338   6.321   2.395   7.842 -0.4223  0.3626  0.0679
  314MOL0     C41339   6.172   2.413   7.882  0.7482 -0.3405 -0.5328
  314MOL0     O41340   6.129   2.552   7.888 -0.2451 -0.3596 -0.1089
  314MOL0     C41341   5.995   2.599   7.913 -0.3054  0.3990  0.4889
  314MOL0     C41342   5.966   2.740   7.879  0.6282 -0.0687 -0.2958
  314MOL0     C41343   5.830   2.783   7.905 -0.7404  1.1672  0.0172
  314MOL0     C41344   5.724   2.701   7.961  0.9717  0.5835 -0.1651
  314MOL0     C41345   5.595   2.765   7.985 -1.0401 -0.4981  0.3949
  314MOL0     O41346   5.482   2.691   8.017  0.6065 -0.9217  0.2032
  314MOL0     C41347   5.365   2.757   8.048 -0.3088  0.1799 -1.2822
  314MOL0     C41348   5.360   2.845   8.161 -0.5304 -0.7525 -0.3104
  314MOL0     C41349   5.237   2.911   8.191  0.0030 -0.1202  0.4907
  314MOL0     C41350   5.114   2.885   8.120 -0.8507 -0.6251  0.2985
  314MOL0     O41351   4.989   2.946   8.139 -0.0250  0.1670 -0.5628
  314MOL0     C41352   4.952   2.982   8.274  0.1969 -0.7480  0.2393
  314MOL0     C41353   4.812   3.041   8.260 -0.0584  0.8528 -0.5142
  314MOL0     C41354   4.707   2.960   8.321  1.0041 -0.4725  0.9642
  314MOL0     C41355   4.569   3.022   8.286 -0.6269  0.2273  0.2503
  314MOL0     C41356   4.452   2.927   8.308  0.0109  0.1619 -0.0247
  314MOL0     C41357   4.329   3.000   8.250  0.0022  0.0595  0.4750
  314MOL0     C41358   4.205   2.904   8.237 -0.4214  0.0775 -0.2289
  314MOL0     C41359   4.070   2.971   8.259 -0.6026 -0.6068  0.0240
  314MOL0    Cl41360   3.946   2.841   8.249 -0.0623  0.6178  0.4214
  314MOL0     C41361   5.125   2.794   8.012 -0.4839 -0.0930  0.0870
  314MOL0     C41362   5.244   2.730   7.980 -0.0896  0.2461  0.0766
  314MOL0     O41363   5.606   2.889   7.974 -0.2357  0.3733  0.2508
  314MOL0     C41364   5.758   2.571   8.004  0.2619  0.1650 -0.0718
  314MOL0     C41365   5.893   2.528   7.977 -0.7917  0.2909 -0.2425
  314MOL0     N41366   6.620   2.611   7.594  0.5275  0.2449 -0.4677
  314MOL0     N41367   6.742   2.603   7.627  0.4251 -0.4248 -0.3252
  314MOL0     C41368   7.617   2.919   8.340 -0.1502  0.5071 -0.1976
  314MOL0     C41369   7.733   2.937   8.407  0.2487 -0.4366 -0.1083
  314MOL0     C41370   8.171   3.044   8.523 -0.2443 -0.3242 -0.0734
  314MOL0     C41371   8.116   3.066   8.649  0.7970 -0.6368 -0.9051
  314MOL0     C41372   8.193   3.116   8.754  0.1993 -0.3530  0.2035
  314MOL0     C41373   8.336   3.128   8.743  0.5262 -1.1353 -0.3584
  314MOL0     O41374   8.391   3.173   8.863  0.7585  0.1017 -0.4791
  314MOL0     C41375   8.530   3.172   8.887 -0.0192 -0.5704 -0.5942
  314MOL0     C41376   8.590   3.309   8.856  0.7781 -0.2661  0.2235
  314MOL0     C41377   8.716   3.341   8.933 -1.1847  0.1982  0.2285
  314MOL0     C41378   8.831   3.249   8.897 -0.6860 -0.2515  0.6834
  314MOL0     C41379   8.970   3.286   8.942  0.3316 -0.3345  0.2964
  314MOL0     C41380   9.086   3.305   8.973 -0.0765  1.2403  0.5677
  314MOL0     C41381   8.392   3.106   8.619  0.2356  0.2155  0.0777
  314MOL0     C41382   8.307   3.068   8.511 -0.7497  0.0197 -0.5269
  314MOL0     H41383   7.946   2.973   8.159 -2.4815  2.5519 -0.3301
  314MOL0     H41384   7.752   2.906   8.030  0.9033 -2.3582  0.0813
  314MOL0     H41385   7.553   2.943   7.929 -0.1709 -0.9735  0.7321
  314MOL0     H41386   7.507   3.068   8.034 -0.7153  0.1679 -1.2168
  314MOL0     H41387   7.344   2.821   7.957  1.1517 -0.0457 -2.4221
  314MOL0     H41388   7.339   2.964   7.859 -2.5059 -1.6901 -0.2289
  314MOL0     H41389   7.229   3.098   8.003  3.0643 -0.5204 -1.0933
  314MOL0     H41390   7.266   2.999   8.142  3.7624 -0.0702 -0.3126
  314MOL0     H41391   7.111   2.833   8.077 -0.0373 -1.2085 -1.4934
  314MOL0     H41392   7.023   2.988   8.076 -1.3721  0.7560 -1.2282
  314MOL0     H41393   7.123   2.819   7.833  2.4041  3.0052 -0.4121
  314MOL0     H41394   7.068   2.982   7.817 -1.3992 -0.5822  0.4862
  314MOL0     H41395   6.881   2.831   7.767 -0.8712 -0.0479 -0.2072
  314MOL0     H41396   6.846   2.916   7.924 -0.4375 -0.3801  0.2165
  314MOL0     H41397   6.997   2.681   7.990  0.3421 -2.6057 -1.0829
  314MOL0     H41398   6.814   2.707   8.009  1.1006 -1.9711  2.2847
  314MOL0     H41399   6.901   2.486   7.874 -1.4442 -0.5524 -1.4881
  314MOL0     H41400   6.960   2.606   7.769  1.9871 -1.0966  0.3341
  314MOL0     H41401   6.596   2.572   7.922  1.2746 -0.3647  0.4970
  314MOL0     H41402   6.362   2.666   7.628 -0.2568 -2.4979 -1.8042
  314MOL0     H41403   6.369   2.654   7.803 -0.4264  0.7843 -1.0670
  314MOL0     H41404   6.422   2.399   7.639 -0.5777 -0.0093  0.6765
  314MOL0     H41405   6.261   2.465   7.635  0.8068  1.0895 -1.1731
  314MOL0     H41406   6.341   2.288   7.829  1.3659  0.6269  0.4493
  314MOL0     H41407   6.394   2.429   7.916  1.8983 -2.4852 -0.7383
  314MOL0     H41408   6.147   2.363   7.976  1.0350 -2.2967 -1.4369
  314MOL0     H41409   6.110   2.366   7.805 -0.4740 -0.9857  0.7997
  314MOL0     H41410   6.036   2.803   7.826 -0.7810  1.9794  0.1456
  314MOL0     H41411   5.821   2.890   7.885  4.5363  2.5227  3.0968
  314MOL0     H41412   5.456   2.868   8.208  1.3029 -3.3812 -2.4413
  314MOL0     H41413   5.232   2.987   8.268 -2.3606 -1.4040  1.7592
  314MOL0     H41414   5.024   3.049   8.321  2.7497 -2.0036 -1.6192
  314MOL0     H41415   4.947   2.896   8.343  2.1607 -2.0608 -1.1287
  314MOL0     H41416   4.794   3.072   8.157 -0.3100 -1.4510 -1.2110
  314MOL0     H41417   4.819   3.135   8.317 -0.8201 -1.0732  3.0736
  314MOL0     H41418   4.721   2.960   8.430  1.1535 -2.0920  0.9674
  314MOL0     H41419   4.718   2.856   8.288 -1.0784 -1.3991  2.9248
  314MOL0     H41420   4.547   3.101   8.359 -1.3886 -0.3729  0.6842
  314MOL0     H41421   4.570   3.051   8.181 -3.1399 -1.5838 -0.3620
  314MOL0     H41422   4.429   2.909   8.413  1.5268 -2.2970 -0.0531
  314MOL0     H41423   4.456   2.830   8.257  0.7399  0.3440 -0.3181
  314MOL0     H41424   4.358   3.042   8.153  0.3460  0.0541  0.5738
  314MOL0     H41425   4.299   3.082   8.317  0.9134  0.7204  0.0966
  314MOL0     H41426   4.204   2.842   8.147 -1.8728 -2.9734  1.7271
  314MOL0     H41427   4.215   2.828   8.316 -0.4067  0.9026  0.5823
  314MOL0     H41428   4.043   3.062   8.205 -1.1392  0.0651  1.3693
  314MOL0     H41429   4.061   3.010   8.361 -3.2601 -1.1935  0.0731
  314MOL0     H41430   5.041   2.762   7.951  1.8171 -2.8712 -1.9134
  314MOL0     H41431   5.243   2.657   7.899  0.9699  2.8177 -2.4401
  314MOL0     H41432   5.688   2.508   8.058  1.7408  2.0808  4.5891
  314MOL0     H41433   5.915   2.432   8.022 -2.5454 -0.9102 -1.7940
  314MOL0     H41434   7.526   2.872   8.376 -0.2255 -1.0728 -2.2496
  314MOL0     H41435   7.729   2.933   8.516  1.0064 -0.3602 -0.0727
  314MOL0     H41436   8.009   3.062   8.668  0.3887  0.8852 -2.5883
  314MOL0     H41437   8.143   3.150   8.844 -0.7501  1.1496 -0.8267
  314MOL0     H41438   8.574   3.087   8.834 -0.4759 -0.4257 -1.2102
  314MOL0     H41439   8.561   3.151   8.990 -1.5581  0.9910  0.2399
  314MOL0     H41440   8.615   3.314   8.749  1.3747  2.7475  0.4299
  314MOL0     H41441   8.507   3.374   8.885  1.6296  0.3758  1.2719
  314MOL0     H41442   8.692   3.325   9.039 -0.1335 -1.9941  0.2049
  314MOL0     H41443   8.742   3.441   8.899  1.6531 -0.0382  1.4027
  314MOL0     H41444   8.814   3.150   8.941  1.9544  0.0904  2.7872
  314MOL0     H41445   8.829   3.241   8.788  1.2619  0.0758  0.5805
  314MOL0     H41446   9.193   3.315   8.968 -0.2886  3.2945 -2.3433
  314MOL0     H41447   8.498   3.122   8.600 -0.0795 -0.0504 -2.1635
  314MOL0     H41448   8.366   3.041   8.423  1.0018 -2.1921  1.2079
  315MOL0     O41449   6.115   0.116   3.439  0.0869 -0.1952  0.5506
  315MOL0     C41450   6.101   0.232   3.396  0.2807 -1.1095 -0.0628
  315MOL0     O41451   5.989   0.291   3.352 -0.5642 -0.6075  0.0631
  315MOL0     C41452   5.889   0.211   3.316 -0.0516  0.3797  0.6113
  315MOL0     C41453   5.822   0.269   3.205  0.2060  0.0617  0.8201
  315MOL0     C41454   5.710   0.202   3.154 -0.6856  0.0311  0.0696
  315MOL0     C41455   5.650   0.086   3.216  0.1172 -0.1984  0.2059
  315MOL0     O41456   5.546   0.014   3.162  0.2287  0.5527  1.2533
  315MOL0     C41457   5.418   0.072   3.143 -0.0393  0.2337  0.6927
  315MOL0     C41458   5.342   0.115   3.272 -0.6415 -0.3329  0.6549
  315MOL0     C41459   5.263   0.009   3.340 -0.8271 -0.5755  0.5176
  315MOL0     C41460   5.343  -0.125   3.359  1.1651 -0.8513 -0.2059
  315MOL0     C41461   5.241  -0.245   3.395  0.0466 -0.8332 -0.5105
  315MOL0     C41462   5.218  -0.337   3.271 -0.4288 -0.1062 -0.0670
  315MOL0     C41463   5.325  -0.442   3.250 -0.4195  1.0926  0.4917
  315MOL0     C41464   5.288  -0.516   3.116  0.3767 -0.4283 -0.0647
  315MOL0     N41465   5.166  -0.590   3.109  0.3615 -0.1572  0.0912
  315MOL0     C41466   5.145  -0.720   3.143  0.0503  0.0847  0.6879
  315MOL0     C41467   5.019  -0.747   3.102  0.5815  0.1117 -0.4007
  315MOL0     C41468   4.940  -0.867   3.135  0.7933 -0.4595 -0.0763
  315MOL0     C41469   5.001  -1.000   3.092  0.3202 -0.2315  0.2082
  315MOL0     C41470   4.888  -1.097   3.045 -1.1070 -0.1245 -0.1576
  315MOL0     C41471   4.791  -1.146   3.147 -1.8611 -0.7297 -0.0255
  315MOL0     O41472   4.705  -1.240   3.089  0.4893  0.3975  0.0795
  315MOL0     C41473   4.604  -1.214   3.006 -0.1770  0.3824 -0.7500
  315MOL0     C41474   4.552  -1.306   2.911 -0.8043  0.0307 -0.2708
  315MOL0     C41475   4.442  -1.266   2.830 -0.0160 -0.3787 -0.3472
  315MOL0     C41476   4.389  -1.135   2.825 -0.1139 -0.0883  0.7434
  315MOL0     C41477   4.272  -1.091   2.736 -0.2977  0.2086 -0.4459
  315MOL0     O41478   4.226  -1.177   2.635  0.1102  0.3216 -0.1696
  315MOL0     C41479   4.113  -1.150   2.567  0.7219 -0.9058  1.4404
  315MOL0     C41480   3.981  -1.108   2.618 -1.1244  0.9647  0.4171
  315MOL0     C41481   3.874  -1.075   2.533  0.5353 -0.2116  0.4681
  315MOL0     C41482   3.883  -1.098   2.397 -0.0643 -0.4153  0.4580
  315MOL0     O41483   3.785  -1.076   2.303  0.4529 -0.6228 -0.5191
  315MOL0     C41484   3.651  -1.044   2.353 -0.8018  0.7187  0.0456
  315MOL0     C41485   3.548  -1.024   2.234 -0.2744 -0.4939 -0.0897
  315MOL0     C41486   3.400  -1.019   2.264 -0.8565 -0.3508 -0.0268
  315MOL0     C41487   3.318  -0.984   2.137 -0.4872 -0.1972 -0.0532
  315MOL0     C41488   3.172  -0.996   2.168  0.5467 -0.4945  0.1832
  315MOL0     C41489   3.090  -0.953   2.043  0.0602 -0.0896  0.0672
  315MOL0     C41490   2.940  -0.938   2.075 -1.0041  1.4955 -1.2101
  315MOL0     C41491   2.910  -0.818   2.161  0.8385 -0.4364  0.1162
  315MOL0    Cl41492   2.738  -0.796   2.193  0.2475 -0.2889 -0.4640
  315MOL0     C41493   4.005  -1.144   2.343 -1.0463 -0.4088 -0.6943
  315MOL0     C41494   4.124  -1.158   2.425 -0.0486  0.3312 -0.2598
  315MOL0     O41495   4.229  -0.981   2.755 -0.4952 -0.3726  0.0096
  315MOL0     C41496   4.457  -1.044   2.906  0.6900  0.2570 -0.5827
  315MOL0     C41497   4.553  -1.090   3.000  0.1334  0.0939  0.1306
  315MOL0     N41498   4.968  -0.638   3.035  0.5654  0.6405  0.3588
  315MOL0     N41499   5.056  -0.547   3.035 -0.5048  0.0448 -0.3997
  315MOL0     C41500   5.715   0.045   3.340  0.2185 -0.1345 -0.0593
  315MOL0     C41501   5.833   0.102   3.390 -0.0406 -1.6368 -0.5407
  315MOL0     C41502   6.226   0.310   3.402 -0.1477  0.8592  0.2595
  315MOL0     C41503   6.346   0.237   3.372 -0.3233 -0.4275 -0.3300
  315MOL0     C41504   6.471   0.300   3.389  0.3481 -0.0039 -0.4852
  315MOL0     C41505   6.477   0.435   3.424  0.3605  0.6803  0.3159
  315MOL0     O41506   6.602   0.493   3.440  0.3062  0.3089 -0.6263
  315MOL0     C41507   6.625   0.535   3.572 -0.6191 -0.1708 -0.5279
  315MOL0     C41508   6.763   0.468   3.616 -0.2060 -0.3087  0.4746
  315MOL0     C41509   6.850   0.571   3.689  0.1387  0.0417 -0.4617
  315MOL0     C41510   6.968   0.524   3.771 -0.4864  1.4901  0.3938
  315MOL0     C41511   7.064   0.636   3.785 -0.0260 -0.3669  1.0231
  315MOL0     C41512   7.131   0.728   3.819 -0.0128 -0.9326 -0.2677
  315MOL0     C41513   6.358   0.508   3.449 -0.1898 -0.2604  0.5446
  315MOL0     C41514   6.230   0.449   3.435 -0.5250  0.0646 -0.1260
  315MOL0     H41515   5.852   0.362   3.157 -3.4781  2.2994  2.4254
  315MOL0     H41516   5.664   0.224   3.058  3.0570 -3.1799 -2.8322
  315MOL0     H41517   5.352   0.007   3.085 -1.5348  0.8423  1.6472
  315MOL0     H41518   5.444   0.159   3.082 -0.9265  0.2512  0.3317
  315MOL0     H41519   5.274   0.195   3.243  0.0931  0.3676  0.8207
  315MOL0     H41520   5.414   0.159   3.342  0.6975  1.4510 -1.6922
  315MOL0     H41521   5.173  -0.009   3.280 -0.8220 -0.5902  0.5141
  315MOL0     H41522   5.227   0.044   3.437  0.2885  1.0289  0.3926
  315MOL0     H41523   5.413  -0.161   3.283 -0.8507 -1.2501 -1.9567
  315MOL0     H41524   5.402  -0.109   3.450 -1.5537  2.2417  1.2433
  315MOL0     H41525   5.145  -0.208   3.430 -0.4622 -3.0059  0.5087
  315MOL0     H41526   5.287  -0.303   3.475  3.8158  0.6914 -1.3091
  315MOL0     H41527   5.212  -0.273   3.183  1.4580  1.2107  0.6995
  315MOL0     H41528   5.116  -0.377   3.278 -1.2376  1.4567 -2.1503
  315MOL0     H41529   5.428  -0.406   3.243  0.1027 -0.5625 -1.4667
  315MOL0     H41530   5.323  -0.505   3.340  1.0574  2.0882  1.2753
  315MOL0     H41531   5.364  -0.591   3.090  0.2692  0.1254 -2.2135
  315MOL0     H41532   5.275  -0.441   3.038 -0.1198  0.4481  0.8492
  315MOL0     H41533   5.226  -0.777   3.187  1.4233 -0.4695 -2.2866
  315MOL0     H41534   4.844  -0.859   3.084  2.0601  1.6257 -2.3155
  315MOL0     H41535   4.915  -0.867   3.242  0.0222 -1.0051 -0.2452
  315MOL0     H41536   5.066  -1.045   3.168 -1.9754 -1.5049  1.5507
  315MOL0     H41537   5.076  -0.981   3.014  0.8966 -1.8845  0.3151
  315MOL0     H41538   4.832  -1.049   2.964 -0.1121 -1.0053 -1.4125
  315MOL0     H41539   4.933  -1.183   2.994 -2.2871 -1.8503  1.5736
  315MOL0     H41540   4.736  -1.059   3.184  0.5768  2.0510 -2.4492
  315MOL0     H41541   4.848  -1.194   3.228 -0.1799 -1.6975 -1.7050
  315MOL0     H41542   4.586  -1.409   2.907 -1.6066 -0.1903 -2.0659
  315MOL0     H41543   4.404  -1.343   2.764  1.6390 -0.0429 -1.7543
  315MOL0     H41544   3.969  -1.094   2.724 -0.9011  3.0723  0.1991
  315MOL0     H41545   3.782  -1.037   2.577 -0.7033  1.3837 -3.1235
  315MOL0     H41546   3.639  -0.949   2.405  0.8605 -0.0153  1.8926
  315MOL0     H41547   3.618  -1.129   2.414  7.1597 -1.9272  1.8884
  315MOL0     H41548   3.576  -1.106   2.167 -0.4644 -1.3235  0.8365
  315MOL0     H41549   3.566  -0.928   2.184 -2.9702  0.5193  0.6836
  315MOL0     H41550   3.382  -0.933   2.330  0.5706  0.5650 -0.7971
  315MOL0     H41551   3.378  -1.114   2.313 -2.2723  0.5169  1.1446
  315MOL0     H41552   3.351  -0.883   2.109 -0.3953 -0.4075 -0.7201
  315MOL0     H41553   3.343  -1.058   2.061  2.8149 -0.3013  0.9862
  315MOL0     H41554   3.143  -0.929   2.249 -1.6064  2.5420 -2.8377
  315MOL0     H41555   3.160  -1.099   2.204 -1.8264  0.5307  2.6961
  315MOL0     H41556   3.104  -1.026   1.963 -1.1984  0.3646 -0.6058
  315MOL0     H41557   3.124  -0.854   2.012  1.2388 -1.1783 -2.3928
  315MOL0     H41558   2.885  -0.950   1.981 -0.6752 -0.6458 -1.1731
  315MOL0     H41559   2.913  -1.029   2.129 -0.1120  2.6995  1.3934
  315MOL0     H41560   2.951  -0.728   2.115  0.8324 -1.0611 -1.1444
  315MOL0     H41561   2.945  -0.824   2.265 -0.3781  1.1605  0.6610
  315MOL0     H41562   4.025  -1.158   2.237  0.1911 -1.0260 -0.4112
  315MOL0     H41563   4.211  -1.186   2.365  0.9611  2.7571 -0.0296
  315MOL0     H41564   4.422  -0.941   2.898  1.6234  0.6181 -0.1595
  315MOL0     H41565   4.577  -1.013   3.073  1.5981  0.2131 -0.4474
  315MOL0     H41566   5.679  -0.043   3.391 -1.5877 -0.4389 -1.7749
  315MOL0     H41567   5.876   0.070   3.484 -1.6744 -1.5982  0.2509
  315MOL0     H41568   6.340   0.132   3.344  0.9315 -1.2458  2.2095
  315MOL0     H41569   6.554   0.232   3.374 -0.4547 -0.6087 -2.4758
  315MOL0     H41570   6.547   0.518   3.647 -0.3828 -1.3095 -0.5277
  315MOL0     H41571   6.632   0.643   3.561 -4.8070  0.2684 -0.6377
  315MOL0     H41572   6.757   0.384   3.686  0.9334 -0.3055  0.6003
  315MOL0     H41573   6.824   0.436   3.531  0.8429 -0.3577  1.2186
  315MOL0     H41574   6.789   0.620   3.766  1.0505  1.2945 -0.5037
  315MOL0     H41575   6.881   0.646   3.616  1.6608  0.3284  0.4527
  315MOL0     H41576   6.929   0.498   3.870 -0.3492  0.3693  0.1590
  315MOL0     H41577   7.021   0.438   3.730  0.0777  1.2762  1.5298
  315MOL0     H41578   7.204   0.805   3.835  0.0076 -0.6777 -1.4592
  315MOL0     H41579   6.372   0.606   3.495  1.9008  0.1773 -0.8753
  315MOL0     H41580   6.136   0.500   3.451 -1.5028 -1.6034 -0.4045
  316MOL0     O41581   2.101   3.536   5.099  0.2155  0.0439 -0.2001
  316MOL0     C41582   2.095   3.650   5.150 -0.8706  0.3951  0.2141
  316MOL0     O41583   2.162   3.691   5.256 -0.2324  0.0217  0.1376
  316MOL0     C41584   2.261   3.618   5.312 -0.2895 -0.3336  0.1953
  316MOL0     C41585   2.344   3.532   5.238 -0.2119  0.3390 -0.4814
  316MOL0     C41586   2.444   3.458   5.306  0.3315  0.5287  0.6415
  316MOL0     C41587   2.467   3.472   5.441  0.2555 -0.1109 -0.6912
  316MOL0     O41588   2.579   3.431   5.513  0.2758  0.9652  0.5823
  316MOL0     C41589   2.639   3.307   5.467 -0.3412  0.2380  0.5780
  316MOL0     C41590   2.726   3.236   5.571 -0.5854  0.1959 -1.3893
  316MOL0     C41591   2.801   3.105   5.526 -0.1078 -0.2178  0.3091
  316MOL0     C41592   2.907   3.062   5.627 -0.0776 -0.7651  0.7083
  316MOL0     C41593   2.996   2.953   5.554 -0.6193  0.5872 -0.5050
  316MOL0     C41594   2.923   2.829   5.523 -0.0356 -0.2671 -0.8035
  316MOL0     C41595   3.023   2.729   5.458  0.8232  0.5455  0.4254
  316MOL0     C41596   3.061   2.767   5.312  0.0014 -0.4974  0.5804
  316MOL0     N41597   2.947   2.832   5.235 -0.0524  0.4550 -0.2293
  316MOL0     C41598   2.832   2.762   5.194  0.6136 -0.6656 -0.1254
  316MOL0     C41599   2.742   2.861   5.169  0.6404 -0.2236  0.9863
  316MOL0     C41600   2.596   2.848   5.125 -0.4289  0.5266 -0.0639
  316MOL0     C41601   2.516   2.829   5.251  0.6819  0.2282  0.8843
  316MOL0     C41602   2.460   2.972   5.297 -0.3148  0.7988 -0.7476
  316MOL0     C41603   2.347   3.029   5.209  0.0925 -0.4542 -0.0708
  316MOL0     O41604   2.211   2.972   5.229  0.0180 -0.4993  0.6647
  316MOL0     C41605   2.100   3.033   5.182  1.1308 -0.2218  0.6811
  316MOL0     C41606   1.978   2.974   5.205  0.1065 -0.1123 -1.3885
  316MOL0     C41607   1.861   3.038   5.185 -0.0394  0.5923  0.1260
  316MOL0     C41608   1.868   3.165   5.116  0.4177  0.4281  0.2245
  316MOL0     C41609   1.749   3.244   5.081 -0.3906  0.7196 -0.3213
  316MOL0     O41610   1.635   3.187   5.116 -0.9519 -0.1060 -0.1986
  316MOL0     C41611   1.520   3.248   5.084  1.0608 -0.5794 -0.3175
  316MOL0     C41612   1.462   3.345   5.174  0.6157 -0.1128  1.1243
  316MOL0     C41613   1.329   3.378   5.151  0.4074  0.0480  0.6875
  316MOL0     C41614   1.246   3.337   5.045 -0.4211  0.2521  0.3911
  316MOL0     O41615   1.117   3.377   5.034  0.4069 -0.4250 -0.5830
  316MOL0     C41616   1.098   3.475   4.936 -0.1833 -0.0060  0.0914
  316MOL0     C41617   0.975   3.557   4.953  0.0022 -0.1113 -0.3886
  316MOL0     C41618   0.962   3.644   5.081 -0.7107 -0.3218  0.6897
  316MOL0     C41619   0.839   3.731   5.059  0.2333 -0.7006 -0.8906
  316MOL0     C41620   0.824   3.833   5.176 -0.7629  0.1067 -0.6612
  316MOL0     C41621   0.689   3.902   5.164 -0.5816  0.3441  0.2547
  316MOL0     C41622   0.662   3.970   5.020 -0.4334 -0.0674  0.1014
  316MOL0     C41623   0.527   4.047   5.008  0.0343 -0.5008  0.5369
  316MOL0    Cl41624   0.394   3.940   5.058  0.0555  0.6085  0.7314
  316MOL0     C41625   1.310   3.259   4.947  0.3613 -0.4092  0.0388
  316MOL0     C41626   1.445   3.214   4.970  0.1981  0.9428 -0.3872
  316MOL0     O41627   1.767   3.346   5.014 -0.3786  0.2501 -0.2644
  316MOL0     C41628   1.992   3.217   5.087 -0.5983  0.1487  0.6617
  316MOL0     C41629   2.107   3.154   5.122  0.0570 -0.1863 -0.3743
  316MOL0     N41630   2.794   2.978   5.200 -0.3962 -0.5282  0.1542
  316MOL0     N41631   2.914   2.961   5.227 -0.8896  0.3875 -0.0383
  316MOL0     C41632   2.374   3.553   5.519  0.9963  0.7619  0.3368
  316MOL0     C41633   2.276   3.631   5.451 -0.0726  0.7662 -0.0583
  316MOL0     C41634   1.989   3.736   5.118  0.8438  0.3294 -0.2684
  316MOL0     C41635   2.001   3.871   5.150  0.9345 -0.5408  0.7366
  316MOL0     C41636   1.888   3.953   5.140 -0.4342  0.5805 -0.8284
  316MOL0     C41637   1.776   3.907   5.074 -0.4954  0.3743 -0.0197
  316MOL0     O41638   1.679   4.005   5.042  0.3383 -0.2446  0.2186
  316MOL0     C41639   1.551   3.958   4.998  0.2424 -0.3169 -0.4216
  316MOL0     C41640   1.468   3.917   5.116 -0.4777 -0.1088  0.2396
  316MOL0     C41641   1.327   3.850   5.086  0.9705 -0.0738 -0.8522
  316MOL0     C41642   1.224   3.958   5.056 -0.4429 -0.6441  0.1529
  316MOL0     C41643   1.169   4.031   5.171  0.2243 -0.3810 -0.7494
  316MOL0     C41644   1.105   4.079   5.264 -0.5843  0.1551 -0.0096
  316MOL0     C41645   1.768   3.773   5.034 -0.0685  0.0141 -0.1582
  316MOL0     C41646   1.870   3.685   5.059  0.1415 -0.6977 -1.1269
  316MOL0     H41647   2.334   3.503   5.134 -0.0099 -1.0083 -0.1574
  316MOL0     H41648   2.507   3.392   5.246 -3.2444 -0.5898 -2.2874
  316MOL0     H41649   2.698   3.317   5.376  0.8685 -0.8596  1.1954
  316MOL0     H41650   2.565   3.229   5.443  1.9947 -2.7152  2.2142
  316MOL0     H41651   2.659   3.210   5.653  1.3371 -1.2942 -0.1829
  316MOL0     H41652   2.805   3.299   5.615 -1.3154 -0.3945  0.8910
  316MOL0     H41653   2.843   3.133   5.429  0.3835  1.4549  0.9574
  316MOL0     H41654   2.725   3.027   5.517 -2.0753  1.0304  3.8722
  316MOL0     H41655   2.974   3.147   5.636  1.6827 -1.9532 -0.5745
  316MOL0     H41656   2.866   3.033   5.724  0.1848 -0.1204  1.0140
  316MOL0     H41657   3.084   2.934   5.616 -1.1063 -2.4329 -0.5711
  316MOL0     H41658   3.027   3.011   5.467  3.0451  1.4353  1.1786
  316MOL0     H41659   2.847   2.851   5.449 -0.9566 -0.6528  0.0071
  316MOL0     H41660   2.887   2.778   5.613 -2.3206  0.3374 -1.3137
  316MOL0     H41661   3.113   2.733   5.520  1.2716 -1.0632 -0.0980
  316MOL0     H41662   2.972   2.632   5.460 -1.9397  1.9088  1.9348
  316MOL0     H41663   3.096   2.683   5.250 -2.5953 -1.9904  1.0105
  316MOL0     H41664   3.134   2.848   5.319  0.0695 -0.6610  2.0625
  316MOL0     H41665   2.826   2.654   5.180 -0.7026 -0.7650  1.0848
  316MOL0     H41666   2.593   2.759   5.061  0.1822 -0.6272  1.4473
  316MOL0     H41667   2.561   2.936   5.070 -0.5494  1.8442  2.0183
  316MOL0     H41668   2.573   2.784   5.333 -1.4415 -1.7768  1.3741
  316MOL0     H41669   2.429   2.774   5.213  2.0593  1.2265 -4.7520
  316MOL0     H41670   2.424   2.944   5.396  1.5188 -0.3408 -0.3456
  316MOL0     H41671   2.542   3.045   5.297 -0.1291  0.6862  1.7150
  316MOL0     H41672   2.374   3.016   5.103 -2.7880 -1.5661 -0.7439
  316MOL0     H41673   2.337   3.132   5.244 -1.4400 -0.2183 -1.0934
  316MOL0     H41674   1.972   2.883   5.264 -2.6887  1.8173  1.6621
  316MOL0     H41675   1.767   2.991   5.211 -0.1158  1.1956  0.9953
  316MOL0     H41676   1.522   3.361   5.263  2.3701  1.7844 -0.3007
  316MOL0     H41677   1.283   3.434   5.232  0.6460 -0.6781  1.3441
  316MOL0     H41678   1.101   3.443   4.831  0.4401  0.3559 -0.0050
  316MOL0     H41679   1.184   3.542   4.941 -0.6050  0.8269 -2.4853
  316MOL0     H41680   0.879   3.504   4.948 -1.2756  2.0163  0.0412
  316MOL0     H41681   0.983   3.627   4.870  0.2936 -1.3514 -1.4297
  316MOL0     H41682   1.049   3.710   5.088  0.5014 -1.9102  1.1490
  316MOL0     H41683   0.952   3.587   5.174 -0.4996 -0.7127  0.4717
  316MOL0     H41684   0.847   3.787   4.966 -0.0906  3.0561  1.1658
  316MOL0     H41685   0.756   3.660   5.067 -0.0404 -0.5081 -1.8793
  316MOL0     H41686   0.899   3.910   5.155  0.7978 -1.1721 -0.0091
  316MOL0     H41687   0.843   3.798   5.277  0.4922  1.7009 -0.3007
  316MOL0     H41688   0.684   3.982   5.238 -0.2921  0.6042  0.0002
  316MOL0     H41689   0.608   3.832   5.182 -0.1557  0.2885  2.1801
  316MOL0     H41690   0.741   4.044   5.003 -1.5229  1.2047  0.4189
  316MOL0     H41691   0.662   3.900   4.935  4.1463 -0.8087  0.4499
  316MOL0     H41692   0.503   4.071   4.904  1.4593  0.7347  0.4658
  316MOL0     H41693   0.527   4.143   5.061 -1.5292 -0.4951  0.5926
  316MOL0     H41694   1.247   3.214   4.871 -2.4320  0.1737  1.8462
  316MOL0     H41695   1.495   3.147   4.900 -0.1273  0.1817  0.0938
  316MOL0     H41696   2.013   3.309   5.033 -1.3820  0.9521  1.6851
  316MOL0     H41697   2.203   3.199   5.096  0.6588 -0.7215  0.8262
  316MOL0     H41698   2.379   3.565   5.627 -0.4480  0.7295  0.4282
  316MOL0     H41699   2.216   3.688   5.520 -0.6887 -0.3063  0.3196
  316MOL0     H41700   2.092   3.917   5.188  0.4299  1.2088 -0.0663
  316MOL0     H41701   1.895   4.057   5.168  1.7401  0.0058  1.0693
  316MOL0     H41702   1.560   3.895   4.909  1.2992 -1.0819  0.2069
  316MOL0     H41703   1.485   4.031   4.950 -1.1817 -0.1634  1.6776
  316MOL0     H41704   1.529   3.841   5.166 -1.6092  0.2596  2.2885
  316MOL0     H41705   1.454   4.001   5.184  0.3956 -0.8404  1.3568
  316MOL0     H41706   1.300   3.803   5.181  0.4310 -0.2449 -1.0882
  316MOL0     H41707   1.323   3.779   5.003 -2.5491 -0.3827 -0.5500
  316MOL0     H41708   1.267   4.041   4.999 -2.6257  0.1625 -0.3955
  316MOL0     H41709   1.139   3.923   4.997 -0.9795  3.9911 -2.2895
  316MOL0     H41710   1.044   4.105   5.348  0.3408 -1.1254  1.0980
  316MOL0     H41711   1.676   3.733   4.990 -2.0666  1.5769  2.3220
  316MOL0     H41712   1.861   3.582   5.027  2.2373 -0.5976 -2.1730
  317MOL0     O41713   9.959   6.918  10.970 -0.0317 -0.4147  0.1812
  317MOL0     C41714   9.929   6.796  10.949  0.0233 -0.6076 -0.0808
  317MOL0     O41715   9.816   6.735  10.983  0.3602  0.0454 -0.0897
  317MOL0     C41716   9.722   6.811  11.047 -0.2523  0.5595 -0.1147
  317MOL0     C41717   9.665   6.927  10.992  0.9041  0.2199 -0.1371
  317MOL0     C41718   9.569   7.000  11.074 -0.2059 -0.2189  0.4316
  317MOL0     C41719   9.544   6.968  11.212  0.8383  0.4204 -0.3132
  317MOL0     O41720   9.486   7.059  11.305 -0.2303  0.8163 -0.4242
  317MOL0     C41721   9.397   7.154  11.246 -0.3935  0.2770  0.0606
  317MOL0     C41722   9.469   7.294  11.265 -0.1536  0.2813 -0.0706
  317MOL0     C41723   9.425   7.362  11.398  0.7772 -0.3038  0.1023
  317MOL0     C41724   9.489   7.506  11.396 -0.2979  0.7120 -0.0144
  317MOL0     C41725   9.510   7.563  11.535  0.1042  0.4063  0.2100
  317MOL0     C41726   9.595   7.688  11.530  0.7317  0.5329 -0.7193
  317MOL0     C41727   9.735   7.681  11.491  0.0661 -0.1128  0.3274
  317MOL0     C41728   9.781   7.821  11.454 -0.3629  0.1699  0.5543
  317MOL0     N41729   9.922   7.810  11.426 -0.1322 -0.5689 -0.4825
  317MOL0     C41730  10.022   7.798  11.522  0.0210  0.8264  0.5652
  317MOL0     C41731  10.133   7.830  11.447  0.3306 -0.0813 -0.0520
  317MOL0     C41732  10.276   7.803  11.503  0.2426 -0.3935 -1.0003
  317MOL0     C41733  10.391   7.756  11.416 -0.0989  1.1391 -0.1481
  317MOL0     C41734  10.451   7.853  11.317  0.3080  0.4918 -0.2200
  317MOL0     C41735  10.573   7.803  11.245 -0.7242  0.9151 -0.1024
  317MOL0     O41736  10.691   7.852  11.304 -1.1507  0.1189  0.4577
  317MOL0     C41737  10.811   7.810  11.254  0.2121  0.3325  0.8002
  317MOL0     C41738  10.933   7.830  11.326 -1.1426  0.4058  0.1882
  317MOL0     C41739  11.052   7.777  11.286 -0.1233  0.7953  0.0089
  317MOL0     C41740  11.057   7.679  11.185 -0.1822  0.1282  0.3986
  317MOL0     C41741  11.181   7.612  11.141 -0.4455  0.3135 -0.0748
  317MOL0     O41742  11.297   7.640  11.214  0.3890  0.3460  0.0261
  317MOL0     C41743  11.406   7.564  11.193 -0.2766 -0.0723  0.4891
  317MOL0     C41744  11.482   7.549  11.303 -0.4034  0.6388 -0.1317
  317MOL0     C41745  11.612   7.507  11.305 -0.6007  0.7325 -0.6791
  317MOL0     C41746  11.672   7.461  11.185  0.3128 -0.3298  0.5817
  317MOL0     O41747  11.798   7.411  11.174 -0.5506  1.1601  0.1793
  317MOL0     C41748  11.892   7.444  11.264 -1.0698  0.0023  0.0108
  317MOL0     C41749  11.955   7.586  11.240  0.6248 -0.8434 -0.0434
  317MOL0     C41750  12.014   7.601  11.103  0.1117  0.3851 -0.7372
  317MOL0     C41751  12.112   7.716  11.097 -0.0103  0.1504  0.1105
  317MOL0     C41752  12.254   7.677  11.129  1.0297  0.1766 -0.1453
  317MOL0     C41753  12.355   7.789  11.066  0.2522 -0.3499 -0.4095
  317MOL0     C41754  12.498   7.750  11.100 -1.2020 -0.0026 -0.0405
  317MOL0     C41755  12.599   7.828  11.021  0.8563  0.1951  0.3726
  317MOL0    Cl41756  12.588   7.784  10.848 -0.3593  0.1282 -0.2704
  317MOL0     C41757  11.592   7.464  11.071  0.0253 -0.1539  0.1590
  317MOL0     C41758  11.465   7.516  11.075 -0.3841 -0.1771 -0.1851
  317MOL0     O41759  11.176   7.539  11.039  0.2906  0.3817 -0.4777
  317MOL0     C41760  10.939   7.657  11.114 -0.3378 -0.2489  1.0728
  317MOL0     C41761  10.817   7.721  11.143  0.7466  0.2305  0.5986
  317MOL0     N41762  10.098   7.865  11.320 -0.1298  0.7077 -0.4056
  317MOL0     N41763   9.974   7.851  11.310  0.5307  0.1119 -0.3729
  317MOL0     C41764   9.596   6.845  11.255 -0.2589 -0.1759  0.8336
  317MOL0     C41765   9.684   6.764  11.175 -0.2822 -1.0477 -0.2879
  317MOL0     C41766  10.046   6.708  10.901  0.1003 -0.1186  0.1148
  317MOL0     C41767  10.140   6.762  10.814 -0.9552  0.1551  1.0494
  317MOL0     C41768  10.240   6.683  10.758  0.1130  0.0935 -0.1145
  317MOL0     C41769  10.254   6.551  10.793 -0.7786 -0.2324  0.1667
  317MOL0     O41770  10.353   6.469  10.745  0.2711  0.0277  0.3232
  317MOL0     C41771  10.455   6.539  10.671  1.7372 -1.4479 -0.2651
  317MOL0     C41772  10.546   6.452  10.581  0.2866  0.3180  0.5410
  317MOL0     C41773  10.610   6.331  10.654 -0.0220  0.4063  0.7268
  317MOL0     C41774  10.712   6.246  10.579  0.0646  0.2423 -0.0687
  317MOL0     C41775  10.822   6.315  10.514 -0.3731  0.3871  1.2588
  317MOL0     C41776  10.901   6.361  10.436  0.0298  0.7190  0.1290
  317MOL0     C41777  10.161   6.495  10.887  0.5538 -0.0459  0.4253
  317MOL0     C41778  10.058   6.573  10.935 -0.7390  0.2195 -1.0847
  317MOL0     H41779   9.681   6.964  10.891  0.3959  4.2038  1.0441
  317MOL0     H41780   9.546   7.095  11.027 -0.1707 -2.3391 -4.4670
  317MOL0     H41781   9.298   7.157  11.291 -1.8997 -0.8870 -2.9028
  317MOL0     H41782   9.368   7.135  11.142  1.0121  0.6956 -0.4335
  317MOL0     H41783   9.440   7.364  11.186 -2.8605  0.2840  0.8190
  317MOL0     H41784   9.578   7.287  11.256 -0.3252 -0.0093 -3.4113
  317MOL0     H41785   9.456   7.298  11.481  0.4530 -0.9467 -0.2599
  317MOL0     H41786   9.316   7.372  11.399  0.9754  3.3465 -1.0932
  317MOL0     H41787   9.575   7.506  11.329 -1.1132 -1.6323 -1.1702
  317MOL0     H41788   9.423   7.573  11.339  1.9329  1.8378 -1.4240
  317MOL0     H41789   9.568   7.492  11.595 -0.6150  0.0334  0.4711
  317MOL0     H41790   9.421   7.565  11.597 -0.1300 -2.3436  0.1101
  317MOL0     H41791   9.592   7.722  11.634 -2.4667  0.6801 -0.7541
  317MOL0     H41792   9.542   7.767  11.475  0.1511  0.8863  0.3087
  317MOL0     H41793   9.795   7.642  11.574 -0.9595  2.7029  2.5622
  317MOL0     H41794   9.740   7.620  11.400  1.6519 -0.3575  0.5395
  317MOL0     H41795   9.758   7.884  11.540 -0.5150 -4.2394  4.1360
  317MOL0     H41796   9.724   7.854  11.367 -1.7148 -3.2137 -0.0257
  317MOL0     H41797  10.026   7.766  11.625 -0.0514  0.5648  0.4880
  317MOL0     H41798  10.253   7.723  11.574  0.2305 -0.8353 -1.4887
  317MOL0     H41799  10.310   7.882  11.569 -2.1633 -1.2390  1.4311
  317MOL0     H41800  10.356   7.665  11.368  0.9583  0.1681  0.8573
  317MOL0     H41801  10.474   7.725  11.480 -1.1231  0.0606  0.6944
  317MOL0     H41802  10.368   7.849  11.246  0.6723 -0.2967 -0.6123
  317MOL0     H41803  10.463   7.953  11.360 -1.0745  0.7245 -0.3430
  317MOL0     H41804  10.562   7.853  11.148 -2.0609  2.5555  0.8417
  317MOL0     H41805  10.560   7.695  11.238 -1.8670  1.1164 -1.5258
  317MOL0     H41806  10.929   7.900  11.408 -0.1240  1.2563 -0.4652
  317MOL0     H41807  11.138   7.790  11.350 -0.5662  1.3130  0.5073
  317MOL0     H41808  11.441   7.587  11.396 -0.2443  0.9615 -0.1918
  317MOL0     H41809  11.668   7.507  11.398  0.4608 -2.7012 -1.1377
  317MOL0     H41810  11.972   7.370  11.252 -0.2556  0.4465  2.1218
  317MOL0     H41811  11.869   7.425  11.369 -1.5641 -1.3735 -0.3321
  317MOL0     H41812  12.027   7.604  11.321  0.9700 -2.9773  0.1736
  317MOL0     H41813  11.866   7.649  11.256 -0.6163 -1.9959 -2.0161
  317MOL0     H41814  11.928   7.600  11.036 -1.4885 -0.5179  1.2217
  317MOL0     H41815  12.070   7.511  11.077  3.7006  1.9947  0.8453
  317MOL0     H41816  12.106   7.740  10.990 -1.6389  0.2831  0.2013
  317MOL0     H41817  12.073   7.804  11.148  0.6059  0.0339  0.7920
  317MOL0     H41818  12.274   7.585  11.073 -1.1814  0.3426 -1.3095
  317MOL0     H41819  12.269   7.675  11.238  3.1407 -1.1401 -0.4061
  317MOL0     H41820  12.332   7.890  11.100  1.5519 -0.2680  0.2782
  317MOL0     H41821  12.341   7.789  10.957 -0.4110 -1.4063 -0.3467
  317MOL0     H41822  12.511   7.761  11.208 -0.7884  0.5588 -0.1448
  317MOL0     H41823  12.514   7.643  11.082 -5.6939 -0.4556 -2.9253
  317MOL0     H41824  12.701   7.802  11.051 -0.2702 -3.1949  1.7289
  317MOL0     H41825  12.583   7.934  11.043  0.7173  0.0281  1.0784
  317MOL0     H41826  11.644   7.429  10.982  3.0817  0.5393  1.5122
  317MOL0     H41827  11.413   7.546  10.984  1.4117  3.1844 -0.2503
  317MOL0     H41828  10.947   7.579  11.038  1.2946  1.8327 -1.0522
  317MOL0     H41829  10.726   7.700  11.089  0.9708 -1.0546  0.6986
  317MOL0     H41830   9.572   6.810  11.355 -2.1518 -1.3792  0.0252
  317MOL0     H41831   9.751   6.686  11.207  0.5505  0.4468  1.8460
  317MOL0     H41832  10.131   6.867  10.790 -0.3286 -0.4906 -2.6956
  317MOL0     H41833  10.304   6.740  10.691 -2.6026  2.0863 -1.1941
  317MOL0     H41834  10.516   6.594  10.742  0.9924  1.6627 -1.8852
  317MOL0     H41835  10.416   6.602  10.590 -0.2692 -0.5956  1.2819
  317MOL0     H41836  10.506   6.419  10.485  0.4518  3.2901 -0.6502
  317MOL0     H41837  10.619   6.520  10.536 -1.2689  1.2961 -0.6076
  317MOL0     H41838  10.535   6.255  10.680  0.8414 -1.5690 -2.0633
  317MOL0     H41839  10.660   6.370  10.743 -0.5733  2.5705  0.1285
  317MOL0     H41840  10.754   6.177  10.652 -0.0799  1.4598  1.2237
  317MOL0     H41841  10.659   6.191  10.501 -1.9757  1.3898  0.4336
  317MOL0     H41842  10.965   6.394  10.357 -1.2135 -1.7537 -2.0457
  317MOL0     H41843  10.164   6.391  10.919 -4.2925 -1.5231 -2.7511
  317MOL0     H41844   9.994   6.519  11.004  0.5763  1.5692  1.3360
  318MOL0     O41845  10.504   6.266   9.254 -0.3727  0.2762 -0.1626
  318MOL0     C41846  10.512   6.378   9.288 -0.8409  0.6870  1.2169
  318MOL0     O41847  10.431   6.472   9.242 -1.3689  0.1297 -0.6374
  318MOL0     C41848  10.318   6.443   9.174 -0.9343  0.2733 -0.4656
  318MOL0     C41849  10.329   6.369   9.055 -0.8615 -0.4309 -1.3681
  318MOL0     C41850  10.208   6.345   9.000  0.1613 -0.2802  0.0958
  318MOL0     C41851  10.082   6.379   9.049 -0.5521 -0.0480 -0.0720
  318MOL0     O41852   9.967   6.355   8.983 -0.1881 -0.7321 -0.1709
  318MOL0     C41853   9.960   6.287   8.861  0.9216 -0.3403 -0.1242
  318MOL0     C41854   9.805   6.278   8.849 -0.3896  0.7532 -0.1652
  318MOL0     C41855   9.742   6.418   8.830  0.6483 -0.3999  0.0064
  318MOL0     C41856   9.604   6.399   8.761 -0.2542  0.3741 -0.5912
  318MOL0     C41857   9.538   6.533   8.749  0.3531  0.6364  0.3888
  318MOL0     C41858   9.395   6.502   8.681  0.0103  0.4015  0.0611
  318MOL0     C41859   9.303   6.616   8.693 -0.4100 -0.3328 -0.2464
  318MOL0     C41860   9.153   6.580   8.658  0.5116 -0.6824  0.5691
  318MOL0     N41861   9.056   6.687   8.692  0.5759  0.3839  0.9307
  318MOL0     C41862   8.927   6.667   8.658  0.3026  0.5442 -0.3797
  318MOL0     C41863   8.862   6.780   8.675 -0.2585  0.2817 -0.2314
  318MOL0     C41864   8.714   6.809   8.648  0.0930 -0.2797  0.0530
  318MOL0     C41865   8.610   6.721   8.721  0.4959  0.7030 -0.5904
  318MOL0     C41866   8.469   6.766   8.699  0.4900  0.2896  0.5892
  318MOL0     C41867   8.364   6.659   8.698 -0.1737 -0.0959 -0.0326
  318MOL0     O41868   8.237   6.714   8.727 -0.0697  0.0532 -0.7501
  318MOL0     C41869   8.135   6.615   8.750 -0.1284 -0.2154  0.6481
  318MOL0     C41870   8.002   6.663   8.777 -0.6486  0.1270  0.6250
  318MOL0     C41871   7.897   6.579   8.795  0.1902  0.2302 -0.5429
  318MOL0     C41872   7.913   6.437   8.794 -0.1959  0.8453  0.0699
  318MOL0     C41873   7.810   6.339   8.818  0.3313  0.2200  0.5832
  318MOL0     O41874   7.695   6.389   8.877  0.4971 -0.4652  0.3883
  318MOL0     C41875   7.590   6.300   8.889  0.4551  0.1366 -0.3473
  318MOL0     C41876   7.549   6.209   8.796  0.2764  0.4827 -0.5132
  318MOL0     C41877   7.430   6.132   8.816  0.6725  0.0785 -1.0026
  318MOL0     C41878   7.339   6.161   8.914  0.9203 -0.0663  0.0574
  318MOL0     O41879   7.206   6.102   8.895  0.1904  0.2046 -0.2910
  318MOL0     C41880   7.124   6.091   9.013  0.7931 -1.2743 -0.4389
  318MOL0     C41881   7.033   5.974   8.988 -0.2261 -0.0546  0.1037
  318MOL0     C41882   6.929   5.963   9.096 -0.4148  0.0108  0.1639
  318MOL0     C41883   6.844   5.839   9.081  0.6248 -0.0969  0.0591
  318MOL0     C41884   6.708   5.836   9.159 -0.1961 -0.0019  0.5637
  318MOL0     C41885   6.617   5.718   9.102 -0.2663 -0.0890  0.0813
  318MOL0     C41886   6.479   5.729   9.180  0.4210 -0.1279 -0.5760
  318MOL0     C41887   6.482   5.648   9.313  0.0196  0.1646  0.6240
  318MOL0    Cl41888   6.316   5.650   9.393  0.2752 -0.0652 -0.3039
  318MOL0     C41889   7.373   6.256   9.008  0.0261  0.2527 -0.1565
  318MOL0     C41890   7.502   6.319   8.998  0.7097 -0.2806 -0.8334
  318MOL0     O41891   7.837   6.220   8.803  0.6295  0.3552 -0.6014
  318MOL0     C41892   8.042   6.391   8.774 -0.4913  0.0918  0.2054
  318MOL0     C41893   8.154   6.473   8.751  0.3075  0.2718 -0.1598
  318MOL0     N41894   8.955   6.866   8.722  0.2272  0.0032  0.1807
  318MOL0     N41895   9.073   6.817   8.736  1.6606  0.4078  0.2810
  318MOL0     C41896  10.078   6.444   9.173  0.4493 -0.1722  1.1483
  318MOL0     C41897  10.198   6.474   9.240 -0.0474 -0.0657  0.1376
  318MOL0     C41898  10.642   6.420   9.351  0.4311 -0.1820  0.2537
  318MOL0     C41899  10.640   6.544   9.414 -0.3926  0.5692 -1.3428
  318MOL0     C41900  10.744   6.585   9.498 -0.1065 -0.3424 -0.4250
  318MOL0     C41901  10.864   6.509   9.499 -0.8309  0.3105  0.4354
  318MOL0     O41902  10.980   6.541   9.570  0.7828  0.4409 -0.2742
  318MOL0     C41903  11.023   6.674   9.594 -0.4226 -0.4278 -0.4478
  318MOL0     C41904  11.124   6.675   9.710 -0.9499 -1.0690 -0.3498
  318MOL0     C41905  11.267   6.627   9.656 -0.6307 -0.5741 -1.1079
  318MOL0     C41906  11.383   6.640   9.755  1.2621 -1.1422 -0.6355
  318MOL0     C41907  11.491   6.559   9.710  0.0982  0.3799 -0.2561
  318MOL0     C41908  11.584   6.495   9.676  0.0917  0.4831  0.6021
  318MOL0     C41909  10.860   6.386   9.430 -0.6708  0.8786 -0.6819
  318MOL0     C41910  10.751   6.340   9.356  1.6617 -0.1072 -0.2544
  318MOL0     H41911  10.421   6.334   9.010 -0.8292  0.1547 -1.7615
  318MOL0     H41912  10.211   6.286   8.909  2.4167  2.5319 -1.8289
  318MOL0     H41913   9.998   6.185   8.868  0.1245 -0.8785 -2.8555
  318MOL0     H41914   9.998   6.342   8.775 -0.3807 -0.4462 -0.7784
  318MOL0     H41915   9.766   6.234   8.941 -1.1195 -0.4285 -1.0156
  318MOL0     H41916   9.785   6.209   8.767 -1.6341 -1.7884  2.1096
  318MOL0     H41917   9.809   6.477   8.768  0.0512  0.0019 -0.2650
  318MOL0     H41918   9.727   6.468   8.926 -0.1723  2.5480 -1.5561
  318MOL0     H41919   9.620   6.355   8.662 -0.3863 -1.1376  0.0440
  318MOL0     H41920   9.547   6.324   8.817 -0.2114  1.5431  1.0803
  318MOL0     H41921   9.603   6.601   8.693  1.9368 -0.0508  1.3537
  318MOL0     H41922   9.526   6.578   8.848 -0.8701  1.5513 -0.1338
  318MOL0     H41923   9.346   6.415   8.726  0.2156  0.4014  0.2859
  318MOL0     H41924   9.409   6.470   8.577 -0.7433  1.5800 -0.4315
  318MOL0     H41925   9.310   6.673   8.786 -1.6406 -0.0657 -0.2966
  318MOL0     H41926   9.336   6.693   8.623  0.7539 -0.6907 -0.1062
  318MOL0     H41927   9.127   6.485   8.706 -1.4047 -2.8008 -4.0283
  318MOL0     H41928   9.127   6.549   8.556 -0.1102  1.8823 -0.1187
  318MOL0     H41929   8.882   6.573   8.629  1.4375 -0.3674  0.6747
  318MOL0     H41930   8.697   6.795   8.541 -1.2488  0.8760  0.0841
  318MOL0     H41931   8.702   6.913   8.677 -2.0503 -0.8657  1.4933
  318MOL0     H41932   8.645   6.710   8.824  4.8526 -0.5318 -1.9585
  318MOL0     H41933   8.616   6.623   8.673 -1.6322  0.9457 -1.4636
  318MOL0     H41934   8.446   6.848   8.768 -0.4179  1.8049 -1.4149
  318MOL0     H41935   8.464   6.804   8.597  1.7034 -3.2047 -0.9311
  318MOL0     H41936   8.390   6.578   8.767  1.6411  0.1802 -0.3396
  318MOL0     H41937   8.360   6.624   8.594  1.8797 -0.3409 -0.0714
  318MOL0     H41938   7.989   6.771   8.774  1.4253  0.4285 -2.2773
  318MOL0     H41939   7.800   6.624   8.815 -1.4504 -3.7231  1.4529
  318MOL0     H41940   7.611   6.195   8.708  1.4896 -0.5311  0.4666
  318MOL0     H41941   7.404   6.055   8.745 -3.5551 -1.3895  1.6986
  318MOL0     H41942   7.066   6.184   9.017  3.5791  0.5777 -0.4245
  318MOL0     H41943   7.185   6.084   9.103  0.3817  0.9550  0.0818
  318MOL0     H41944   7.091   5.882   8.992 -1.6343 -0.9991 -0.5376
  318MOL0     H41945   6.987   5.980   8.889  2.4796 -2.4815 -1.4579
  318MOL0     H41946   6.880   6.061   9.096  2.7555  1.7256  1.4652
  318MOL0     H41947   6.981   5.953   9.192  0.0326  0.0569 -0.0733
  318MOL0     H41948   6.815   5.825   8.976 -1.8174  0.7834  0.5598
  318MOL0     H41949   6.897   5.745   9.100 -0.7672 -0.4416  2.7036
  318MOL0     H41950   6.651   5.929   9.149  1.4508  0.8570 -1.7558
  318MOL0     H41951   6.742   5.822   9.262 -0.9452  1.3171  1.0046
  318MOL0     H41952   6.663   5.620   9.119  0.7210  0.3102 -0.2143
  318MOL0     H41953   6.599   5.733   8.995  0.8834  0.4849 -0.0479
  318MOL0     H41954   6.462   5.834   9.200  1.2995 -0.2549  0.9871
  318MOL0     H41955   6.402   5.687   9.114 -0.3797  0.6355 -0.1360
  318MOL0     H41956   6.554   5.704   9.374  1.7884  1.6714 -2.5468
  318MOL0     H41957   6.514   5.544   9.312 -1.8975 -0.4805 -1.7824
  318MOL0     H41958   7.301   6.291   9.082  1.3351  2.4648  0.1783
  318MOL0     H41959   7.508   6.406   9.062  2.8105 -2.0539  1.5898
  318MOL0     H41960   8.054   6.283   8.781 -3.5455 -0.2392  2.4611
  318MOL0     H41961   8.250   6.424   8.738  0.0756  0.1584 -1.6516
  318MOL0     H41962   9.989   6.477   9.226  1.5462  0.7299  2.5094
  318MOL0     H41963  10.206   6.532   9.332  1.1112  0.5598 -0.3419
  318MOL0     H41964  10.561   6.617   9.399 -0.9662  1.0326  2.7814
  318MOL0     H41965  10.744   6.682   9.547  5.2626  0.1080 -0.7807
  318MOL0     H41966  10.939   6.737   9.624  0.2613  0.4374 -0.2933
  318MOL0     H41967  11.070   6.714   9.504 -0.4404 -1.3511 -0.8675
  318MOL0     H41968  11.130   6.781   9.737 -4.5260 -0.9103  0.3199
  318MOL0     H41969  11.101   6.616   9.799  0.2382  0.5311  1.0756
  318MOL0     H41970  11.287   6.687   9.567  2.9201  0.1186 -0.0039
  318MOL0     H41971  11.261   6.524   9.620 -3.9237 -1.1343  0.6719
  318MOL0     H41972  11.405   6.747   9.756  0.9261 -1.0710  0.6421
  318MOL0     H41973  11.350   6.610   9.855  0.9493 -0.5452 -0.5540
  318MOL0     H41974  11.659   6.426   9.644 -3.7221 -3.1486 -1.4354
  318MOL0     H41975  10.939   6.312   9.438 -1.6529 -0.3186 -1.6385
  318MOL0     H41976  10.744   6.247   9.302  1.5985  0.3937 -1.1281
  319MOL0     O41977   8.535   0.569   7.964 -0.4068 -0.7243  0.1369
  319MOL0     C41978   8.618   0.610   7.877  0.6316  0.5794  1.1337
  319MOL0     O41979   8.601   0.594   7.740 -1.2933  0.4823 -0.4480
  319MOL0     C41980   8.502   0.512   7.704  0.5268 -0.7266  0.1598
  319MOL0     C41981   8.367   0.550   7.710 -0.4339  0.4386  0.1042
  319MOL0     C41982   8.267   0.466   7.664  0.3234 -0.6015  0.3752
  319MOL0     C41983   8.303   0.336   7.620 -0.1483 -0.0053  0.7144
  319MOL0     O41984   8.213   0.243   7.580  0.1764  0.4841 -0.3322
  319MOL0     C41985   8.106   0.281   7.490  1.2469  0.1159 -0.2825
  319MOL0     C41986   8.057   0.166   7.400  1.0986 -0.2015 -0.7951
  319MOL0     C41987   8.016   0.046   7.485  0.8073 -0.1539  0.3002
  319MOL0     C41988   8.126  -0.032   7.558 -1.1805  0.5617 -0.6840
  319MOL0     C41989   8.081  -0.180   7.554  0.1349  0.6549  0.3894
  319MOL0     C41990   8.186  -0.261   7.642  0.2916 -0.7215  0.2091
  319MOL0     C41991   8.322  -0.293   7.571 -0.1122 -0.0507 -0.0845
  319MOL0     C41992   8.405  -0.387   7.654 -0.8025  0.1382 -0.2300
  319MOL0     N41993   8.352  -0.520   7.672  0.0719  0.4633  0.1662
  319MOL0     C41994   8.275  -0.588   7.584 -0.2046 -0.0789  0.3853
  319MOL0     C41995   8.250  -0.701   7.647 -0.5737 -0.2190  1.1055
  319MOL0     C41996   8.143  -0.790   7.603  0.3868  0.4962  0.9437
  319MOL0     C41997   8.086  -0.856   7.723 -0.0751 -0.0818  0.0242
  319MOL0     C41998   7.999  -0.761   7.812  0.1006  0.7311  1.0118
  319MOL0     C41999   7.853  -0.785   7.769  0.2877 -1.2374  0.5863
  319MOL0     O42000   7.827  -0.916   7.813  0.3321  0.3410 -0.8755
  319MOL0     C42001   7.703  -0.979   7.816  0.0199 -0.1831 -0.2934
  319MOL0     C42002   7.584  -0.908   7.777 -0.0128 -0.3636 -0.3597
  319MOL0     C42003   7.460  -0.974   7.794 -0.1563 -0.7487  0.2538
  319MOL0     C42004   7.449  -1.100   7.853  0.2687  0.4581  0.1888
  319MOL0     C42005   7.313  -1.160   7.880 -1.0208  0.6292  0.4009
  319MOL0     O42006   7.204  -1.099   7.846 -0.5009  0.1733  0.0045
  319MOL0     C42007   7.083  -1.151   7.889 -1.6129  0.1144 -0.0847
  319MOL0     C42008   7.025  -1.255   7.812  0.2061 -0.1158  0.6791
  319MOL0     C42009   6.904  -1.313   7.851 -0.1635 -0.1224  0.4762
  319MOL0     C42010   6.839  -1.281   7.966  0.0598  0.0991  0.3472
  319MOL0     O42011   6.727  -1.352   8.010 -0.1862 -0.8857  0.8842
  319MOL0     C42012   6.685  -1.330   8.142  0.8976  0.1373  0.3603
  319MOL0     C42013   6.575  -1.438   8.164  0.1173  0.3867  0.6982
  319MOL0     C42014   6.653  -1.577   8.170 -0.4583 -0.7682 -0.4512
  319MOL0     C42015   6.564  -1.692   8.220  0.1415 -0.2606  1.7060
  319MOL0     C42016   6.623  -1.833   8.227 -0.0456 -0.3008 -0.5868
  319MOL0     C42017   6.678  -1.889   8.093 -0.2921  0.2658 -0.2501
  319MOL0     C42018   6.731  -2.033   8.115  0.0214  0.5627 -0.3961
  319MOL0     C42019   6.757  -2.090   7.976  1.0485  0.4750 -0.4265
  319MOL0    Cl42020   6.802  -2.261   7.983 -0.0503 -0.2495  0.1071
  319MOL0     C42021   6.890  -1.168   8.040  0.2410  0.4719  0.6400
  319MOL0     C42022   7.015  -1.113   8.007 -0.3173 -0.0188  0.0319
  319MOL0     O42023   7.314  -1.265   7.943 -1.1319  0.4245  0.9287
  319MOL0     C42024   7.570  -1.169   7.879 -0.1629 -0.5217 -0.1344
  319MOL0     C42025   7.696  -1.112   7.866  0.6019  0.8707 -0.1662
  319MOL0     N42026   8.316  -0.701   7.766  0.7042  0.0349  0.1406
  319MOL0     N42027   8.380  -0.587   7.783  0.0707  0.0614 -0.2759
  319MOL0     C42028   8.438   0.303   7.613  0.5997 -0.0003  0.8738
  319MOL0     C42029   8.536   0.392   7.656  0.6860  0.4149 -0.5760
  319MOL0     C42030   8.747   0.665   7.916 -0.4278 -0.2239 -0.1128
  319MOL0     C42031   8.768   0.710   8.047  0.5995  0.0612  0.3138
  319MOL0     C42032   8.881   0.776   8.086 -0.3989 -0.2313  0.2506
  319MOL0     C42033   8.992   0.778   8.002 -0.6535  0.2224 -0.2692
  319MOL0     O42034   9.117   0.836   8.032 -0.3274  0.7291  0.3187
  319MOL0     C42035   9.156   0.843   8.171  0.8027  0.4798 -0.5833
  319MOL0     C42036   9.299   0.884   8.178  0.7092 -0.4932  0.5276
  319MOL0     C42037   9.302   1.026   8.113 -0.3814 -0.0735 -0.0197
  319MOL0     C42038   9.439   1.091   8.128 -1.0304 -0.0887 -0.1982
  319MOL0     C42039   9.563   1.013   8.111  0.1214  0.2720  0.2049
  319MOL0     C42040   9.662   0.942   8.108  0.7026 -0.1815  0.5676
  319MOL0     C42041   8.985   0.716   7.874 -0.4374 -0.1947 -0.1615
  319MOL0     C42042   8.862   0.665   7.835 -0.2533  0.0627 -0.4772
  319MOL0     H42043   8.346   0.638   7.769  1.2236  0.3891  0.8348
  319MOL0     H42044   8.160   0.483   7.666  0.1462 -0.6378 -2.9812
  319MOL0     H42045   8.135   0.366   7.428 -0.6224 -1.5204 -3.6936
  319MOL0     H42046   8.026   0.307   7.559  1.0605  0.1414 -0.5100
  319MOL0     H42047   8.129   0.135   7.324 -0.7878  0.3121 -2.8919
  319MOL0     H42048   7.972   0.208   7.344 -0.2696 -1.6304  0.1212
  319MOL0     H42049   7.958  -0.020   7.420  1.2292  0.8944 -1.1895
  319MOL0     H42050   7.941   0.078   7.559 -0.9435 -0.1959 -1.3655
  319MOL0     H42051   8.224  -0.031   7.510 -0.3834 -0.0241  0.8889
  319MOL0     H42052   8.143   0.011   7.657 -1.1470 -1.8058  0.4120
  319MOL0     H42053   8.080  -0.224   7.453 -1.4855  0.8765  0.2857
  319MOL0     H42054   7.981  -0.190   7.597  0.6086 -4.1386  0.9627
  319MOL0     H42055   8.143  -0.359   7.666  0.6461 -1.1179 -0.7278
  319MOL0     H42056   8.202  -0.209   7.737  0.7109 -0.0239 -0.2272
  319MOL0     H42057   8.308  -0.335   7.471  2.0444 -0.6054 -0.2143
  319MOL0     H42058   8.371  -0.197   7.552 -2.3634  1.4084  1.0253
  319MOL0     H42059   8.425  -0.357   7.757  0.4497 -3.6905  0.8100
  319MOL0     H42060   8.502  -0.413   7.610 -0.3312 -2.2574  2.0198
  319MOL0     H42061   8.226  -0.546   7.496  2.3225  2.2767 -0.0173
  319MOL0     H42062   8.180  -0.874   7.544 -0.4782  0.3230  0.6173
  319MOL0     H42063   8.065  -0.743   7.542 -1.1614 -0.2554  2.2660
  319MOL0     H42064   8.164  -0.908   7.780 -0.3456  1.4179  1.8962
  319MOL0     H42065   8.021  -0.938   7.693  0.0361 -0.2796  0.3239
  319MOL0     H42066   8.013  -0.791   7.917 -0.1315 -2.2763  0.2724
  319MOL0     H42067   8.032  -0.659   7.792  2.7315 -0.2275  0.1843
  319MOL0     H42068   7.840  -0.764   7.662 -0.4129  3.1178  1.3181
  319MOL0     H42069   7.797  -0.709   7.825 -1.2087 -1.7691 -0.1188
  319MOL0     H42070   7.590  -0.806   7.741  2.1259 -0.3427 -0.1052
  319MOL0     H42071   7.371  -0.917   7.767  0.6215  0.4728  0.1780
  319MOL0     H42072   7.083  -1.277   7.723  0.9101 -0.1245  1.1364
  319MOL0     H42073   6.860  -1.387   7.784 -1.5554 -0.3420  1.5680
  319MOL0     H42074   6.647  -1.230   8.165  1.0200 -0.0188  1.2822
  319MOL0     H42075   6.765  -1.347   8.214  0.3865 -1.5357  0.5941
  319MOL0     H42076   6.494  -1.438   8.090  0.2538 -1.4668  0.4974
  319MOL0     H42077   6.529  -1.428   8.263 -3.0944  0.6342 -0.7062
  319MOL0     H42078   6.740  -1.573   8.237 -0.7645 -2.0807  0.0550
  319MOL0     H42079   6.698  -1.593   8.072 -0.8599 -0.3544 -0.7031
  319MOL0     H42080   6.538  -1.668   8.323 -2.8874  0.0730  0.9694
  319MOL0     H42081   6.472  -1.700   8.160  0.9078  2.2077  0.0705
  319MOL0     H42082   6.550  -1.898   8.278 -1.5137  1.1881 -0.7119
  319MOL0     H42083   6.709  -1.832   8.294 -1.4230  0.1835  1.2667
  319MOL0     H42084   6.761  -1.837   8.044 -0.5764 -0.4075 -1.4924
  319MOL0     H42085   6.600  -1.885   8.017 -0.3209 -0.7088 -0.2866
  319MOL0     H42086   6.828  -2.045   8.164 -0.9836 -0.9373  1.3680
  319MOL0     H42087   6.660  -2.094   8.172 -1.5590  0.0711 -2.7723
  319MOL0     H42088   6.839  -2.036   7.928  1.3129  1.5698  1.1734
  319MOL0     H42089   6.668  -2.069   7.916 -0.1377 -1.3189  0.5945
  319MOL0     H42090   6.847  -1.142   8.136  1.0721 -3.7669  2.3630
  319MOL0     H42091   7.058  -1.038   8.073  0.6130  0.5427 -1.1740
  319MOL0     H42092   7.559  -1.258   7.941 -0.4426  1.2706  2.5888
  319MOL0     H42093   7.785  -1.159   7.907 -0.8500 -0.0120  2.1696
  319MOL0     H42094   8.465   0.210   7.564 -1.0828 -0.9621  1.7147
  319MOL0     H42095   8.641   0.368   7.643  1.2976  0.2644  3.4035
  319MOL0     H42096   8.683   0.726   8.113  1.5342  2.4084  1.0379
  319MOL0     H42097   8.886   0.818   8.186  2.0986  1.6709 -0.5745
  319MOL0     H42098   9.147   0.742   8.212 -2.8692  0.1190 -1.8555
  319MOL0     H42099   9.073   0.891   8.224  0.2779 -2.8815  1.9843
  319MOL0     H42100   9.344   0.899   8.276  0.3363 -0.5986  0.7156
  319MOL0     H42101   9.358   0.811   8.123  0.1832 -1.3264  1.0490
  319MOL0     H42102   9.233   1.085   8.174 -1.2486 -1.8931  0.8434
  319MOL0     H42103   9.277   1.027   8.007 -2.7462  0.8457  0.4763
  319MOL0     H42104   9.446   1.176   8.060  1.9512  0.3965  0.5898
  319MOL0     H42105   9.456   1.131   8.229 -1.4061 -2.5146  0.9123
  319MOL0     H42106   9.755   0.889   8.114  0.8214 -0.0856 -0.3250
  319MOL0     H42107   9.079   0.714   7.819  0.3186 -1.2364  1.1030
  319MOL0     H42108   8.849   0.608   7.743 -0.1295 -0.9050  0.0953
  320MOL0     O42109   1.130   9.828   7.349 -0.2156  0.3447 -0.4830
  320MOL0     C42110   1.134   9.930   7.284  0.5867 -0.3545 -0.4362
  320MOL0     O42111   1.025  10.002   7.240  0.3009 -0.1492  0.0790
  320MOL0     C42112   0.911  10.013   7.306 -0.5951 -0.5106 -0.0356
  320MOL0     C42113   0.899  10.042   7.446  0.1126  0.2335 -1.0986
  320MOL0     C42114   0.775  10.060   7.508  1.1682 -0.1894  0.6744
  320MOL0     C42115   0.656  10.062   7.430 -0.6153 -0.3876 -0.4005
  320MOL0     O42116   0.538  10.086   7.493  0.7409 -0.1509 -0.5906
  320MOL0     C42117   0.418  10.101   7.422 -0.8050 -0.3819  0.3711
  320MOL0     C42118   0.314  10.105   7.536 -0.0574 -0.7870  0.8581
  320MOL0     C42119   0.177  10.121   7.464  0.0712 -0.8362  0.0593
  320MOL0     C42120   0.075  10.191   7.551 -0.1817  0.0373  0.0755
  320MOL0     C42121  -0.043  10.236   7.464 -0.7673 -0.9600  0.2344
  320MOL0     C42122  -0.132  10.326   7.548  0.9041  1.4638 -0.1907
  320MOL0     C42123  -0.246  10.393   7.465  0.1546 -0.0116  0.1067
  320MOL0     C42124  -0.346  10.461   7.566  0.0814 -0.0936  0.3325
  320MOL0     N42125  -0.426  10.562   7.489  0.7004  0.3766  0.1697
  320MOL0     C42126  -0.378  10.665   7.410 -0.2960  0.1204  0.1933
  320MOL0     C42127  -0.487  10.745   7.391 -0.5173 -0.0734 -0.1321
  320MOL0     C42128  -0.482  10.876   7.326 -0.5574 -0.9916  0.0998
  320MOL0     C42129  -0.512  10.980   7.433  0.2872  0.5785  0.0294
  320MOL0     C42130  -0.541  11.112   7.352 -0.5159  0.8191  0.7978
  320MOL0     C42131  -0.511  11.228   7.444 -0.0261  0.1034  0.1755
  320MOL0     O42132  -0.564  11.356   7.398  0.1358  0.2891 -0.1070
  320MOL0     C42133  -0.697  11.384   7.404  0.0682  0.5582  0.8749
  320MOL0     C42134  -0.794  11.294   7.452 -0.4113  0.8821 -0.2302
  320MOL0     C42135  -0.926  11.333   7.467  0.2701 -0.0793  0.6978
  320MOL0     C42136  -0.963  11.463   7.431 -0.5366 -0.3005  0.0069
  320MOL0     C42137  -1.098  11.511   7.460  0.0589 -0.6509 -0.1294
  320MOL0     O42138  -1.121  11.642   7.431  0.0677 -0.2432 -0.5369
  320MOL0     C42139  -1.243  11.702   7.462 -0.4628  0.0262  0.7556
  320MOL0     C42140  -1.340  11.697   7.363 -0.4230  0.2507 -0.7552
  320MOL0     C42141  -1.457  11.764   7.383  0.7540 -0.3148  0.1816
  320MOL0     C42142  -1.483  11.838   7.500 -0.1443  0.5728  0.0251
  320MOL0     O42143  -1.599  11.899   7.531 -0.6805  0.6348 -0.2013
  320MOL0     C42144  -1.725  11.853   7.485  0.9039 -0.1218  0.6260
  320MOL0     C42145  -1.833  11.905   7.582 -0.8217  0.4199 -1.0221
  320MOL0     C42146  -1.979  11.876   7.536 -0.4032  0.2343 -0.5431
  320MOL0     C42147  -2.018  11.732   7.532  0.4062 -0.3613  0.8026
  320MOL0     C42148  -2.149  11.716   7.459  0.1672 -0.6133 -0.3325
  320MOL0     C42149  -2.274  11.782   7.505 -0.0048 -0.0541 -0.1439
  320MOL0     C42150  -2.367  11.860   7.409  0.0618  0.2889 -0.1693
  320MOL0     C42151  -2.342  12.012   7.411 -0.1019 -0.4483  0.1024
  320MOL0    Cl42152  -2.435  12.109   7.530  0.0681 -0.2944  0.3152
  320MOL0     C42153  -1.388  11.838   7.598 -0.0837  0.6160  0.0012
  320MOL0     C42154  -1.266  11.766   7.577  0.3024  0.4185  0.2959
  320MOL0     O42155  -1.179  11.437   7.512 -0.5415 -0.1279 -0.2314
  320MOL0     C42156  -0.872  11.551   7.374  0.1647  1.0217 -0.8558
  320MOL0     C42157  -0.734  11.514   7.362  0.0183 -0.2451  0.2966
  320MOL0     N42158  -0.592  10.683   7.446  0.0397  0.0097 -0.2645
  320MOL0     N42159  -0.560  10.567   7.498  0.2725 -0.9467 -0.5991
  320MOL0     C42160   0.665  10.042   7.292  0.4906 -0.2747  0.1231
  320MOL0     C42161   0.786  10.011   7.234 -0.0914 -0.6533  0.5860
  320MOL0     C42162   1.266   9.981   7.248  0.0565 -0.6389  0.4046
  320MOL0     C42163   1.377   9.896   7.256  0.3394 -0.6674 -0.7099
  320MOL0     C42164   1.504   9.946   7.222  0.3745  0.3505 -0.9141
  320MOL0     C42165   1.531  10.066   7.166 -1.1014  0.1780  0.0004
  320MOL0     O42166   1.652  10.111   7.122 -0.4749 -0.1049 -0.3154
  320MOL0     C42167   1.774  10.038   7.162  0.0249  0.1560 -1.0574
  320MOL0     C42168   1.877  10.144   7.168 -0.2151 -1.0136 -0.2567
  320MOL0     C42169   1.840  10.250   7.269 -0.0707 -0.7595 -1.1722
  320MOL0     C42170   1.965  10.315   7.332 -0.1651 -0.1006 -0.1936
  320MOL0     C42171   2.017  10.239   7.451  0.8790  0.1262  0.6670
  320MOL0     C42172   2.063  10.180   7.544  0.1730 -0.1588 -1.0997
  320MOL0     C42173   1.412  10.151   7.155 -1.2637  0.6494 -0.2649
  320MOL0     C42174   1.284  10.108   7.191  0.0280  0.5425 -0.1774
  320MOL0     H42175   0.989  10.058   7.504 -1.0936 -0.6714  1.1775
  320MOL0     H42176   0.763  10.091   7.611 -1.3158 -1.8844  0.9613
  320MOL0     H42177   0.403  10.018   7.352  2.8622 -0.0362 -1.0315
  320MOL0     H42178   0.419  10.187   7.354 -2.2495 -1.2146 -0.7659
  320MOL0     H42179   0.327  10.178   7.617  1.1545 -1.7072  1.5227
  320MOL0     H42180   0.310  10.015   7.598 -3.0623 -0.1534  1.7314
  320MOL0     H42181   0.155  10.034   7.403 -0.1443  0.2455 -1.4623
  320MOL0     H42182   0.194  10.187   7.379  0.3640 -1.1862 -0.1545
  320MOL0     H42183   0.032  10.114   7.616 -1.5619 -0.0017 -0.8520
  320MOL0     H42184   0.119  10.273   7.610  1.7532 -0.4848 -0.5652
  320MOL0     H42185  -0.108  10.158   7.423 -2.1969  1.5221 -2.6200
  320MOL0     H42186  -0.005  10.286   7.374  0.9063 -2.9202 -0.2191
  320MOL0     H42187  -0.068  10.395   7.603  3.6948 -2.9526  2.7314
  320MOL0     H42188  -0.172  10.253   7.619  0.8771  0.3262 -1.3441
  320MOL0     H42189  -0.198  10.465   7.398 -0.9563 -0.9835 -1.8178
  320MOL0     H42190  -0.304  10.320   7.408  1.0673 -0.4192 -0.3253
  320MOL0     H42191  -0.291  10.519   7.640 -0.3736  0.9778 -0.1537
  320MOL0     H42192  -0.413  10.393   7.620 -1.0532  1.7205  1.3085
  320MOL0     H42193  -0.272  10.680   7.391 -0.3268  0.9041  0.5805
  320MOL0     H42194  -0.545  10.876   7.236 -1.3916 -0.1210  0.6581
  320MOL0     H42195  -0.383  10.907   7.292 -1.0613  1.3334  0.5477
  320MOL0     H42196  -0.424  10.992   7.496  1.8230  2.8724 -2.3507
  320MOL0     H42197  -0.604  10.953   7.486  0.6013 -3.0583 -0.9579
  320MOL0     H42198  -0.476  11.119   7.264  1.8287  2.2787  2.5398
  320MOL0     H42199  -0.643  11.113   7.313 -0.5675  0.4896  0.9198
  320MOL0     H42200  -0.403  11.231   7.456  0.1855  0.3958 -1.5078
  320MOL0     H42201  -0.555  11.195   7.539  0.5598 -1.2253  0.0164
  320MOL0     H42202  -0.779  11.196   7.497 -1.9658  1.3791  1.4820
  320MOL0     H42203  -1.005  11.270   7.508 -0.6383  0.5522 -0.0575
  320MOL0     H42204  -1.333  11.642   7.270  2.6680  1.5909 -1.4806
  320MOL0     H42205  -1.524  11.766   7.298  1.1172  0.6808 -0.0989
  320MOL0     H42206  -1.747  11.746   7.474 -3.4343  0.6685 -0.0730
  320MOL0     H42207  -1.739  11.891   7.384  3.6036 -1.8554 -0.5250
  320MOL0     H42208  -1.820  12.013   7.590  0.8104  0.3349 -2.1835
  320MOL0     H42209  -1.812  11.849   7.674 -0.2572 -0.0998 -1.4590
  320MOL0     H42210  -1.996  11.924   7.439 -1.2170  1.7716  0.3265
  320MOL0     H42211  -2.036  11.925   7.615 -0.8556 -1.0803 -0.0308
  320MOL0     H42212  -1.941  11.671   7.483  0.4645 -1.6159  2.3810
  320MOL0     H42213  -2.045  11.686   7.627 -0.7629 -0.1751  0.5787
  320MOL0     H42214  -2.176  11.610   7.451 -0.4181 -0.3839 -1.6796
  320MOL0     H42215  -2.135  11.760   7.360 -3.1081  0.1635 -0.5688
  320MOL0     H42216  -2.254  11.830   7.601  0.3100 -1.5769  0.5906
  320MOL0     H42217  -2.336  11.696   7.532 -1.3059 -0.2263 -3.3067
  320MOL0     H42218  -2.354  11.823   7.306 -0.2720 -1.2899  0.3297
  320MOL0     H42219  -2.472  11.841   7.432  0.4997 -0.0576  1.7310
  320MOL0     H42220  -2.365  12.049   7.310  0.6328  0.9847  0.4462
  320MOL0     H42221  -2.235  12.032   7.426  0.1260  1.8005 -3.3154
  320MOL0     H42222  -1.396  11.883   7.696  3.0340  1.4964 -0.0218
  320MOL0     H42223  -1.193  11.762   7.656 -0.0262 -1.2414  0.5437
  320MOL0     H42224  -0.899  11.652   7.348  0.4065  0.6472 -2.6863
  320MOL0     H42225  -0.647  11.568   7.326 -1.2658  3.5509  2.3367
  320MOL0     H42226   0.578  10.049   7.226  0.5226 -1.4660 -0.0773
  320MOL0     H42227   0.773   9.985   7.129 -2.3377  0.9346  0.3835
  320MOL0     H42228   1.361   9.797   7.297 -1.0031  0.8643  2.8223
  320MOL0     H42229   1.579   9.868   7.219  0.1674  0.1184 -0.2778
  320MOL0     H42230   1.791   9.960   7.087  0.1480  0.3112 -1.1894
  320MOL0     H42231   1.767   9.987   7.258  2.2155 -0.7424 -1.3184
  320MOL0     H42232   1.968  10.100   7.210  1.7956 -1.0481 -4.1538
  320MOL0     H42233   1.891  10.183   7.067 -2.3065  1.4904  0.3421
  320MOL0     H42234   1.771  10.223   7.349 -0.0670 -0.6696 -1.1393
  320MOL0     H42235   1.797  10.324   7.201  0.7617 -1.4625 -2.5047
  320MOL0     H42236   2.046  10.329   7.260 -0.9761  0.2002 -1.0667
  320MOL0     H42237   1.929  10.410   7.372 -1.7135  0.1798 -2.1185
  320MOL0     H42238   2.101  10.126   7.628 -1.5616  1.0216  0.5228
  320MOL0     H42239   1.437  10.249   7.114  1.9374  0.0094 -0.1614
  320MOL0     H42240   1.200  10.174   7.176 -0.6818 -0.4023 -0.4389
  321MOL0     O42241   7.873   9.083   8.996 -0.5587 -0.5924  0.4219
  321MOL0     C42242   7.920   9.139   9.100 -0.1892 -0.0962 -0.6925
  321MOL0     O42243   7.850   9.221   9.177  0.5364 -0.1686 -0.1486
  321MOL0     C42244   7.710   9.215   9.169  0.3912  0.0387  0.5813
  321MOL0     C42245   7.645   9.330   9.113  0.1269  0.6510 -0.2867
  321MOL0     C42246   7.509   9.333   9.110  0.7444 -0.2962 -0.3301
  321MOL0     C42247   7.433   9.218   9.155  0.3118 -0.5097  0.1956
  321MOL0     O42248   7.295   9.212   9.149 -1.0538 -0.0321 -0.0058
  321MOL0     C42249   7.224   9.261   9.036 -0.2419  0.0110  0.6060
  321MOL0     C42250   7.128   9.156   8.965  0.5870 -0.1776  0.1590
  321MOL0     C42251   7.027   9.091   9.052 -0.7744  0.7143 -0.3567
  321MOL0     C42252   6.908   9.025   8.973  0.9619 -0.8639 -0.3354
  321MOL0     C42253   6.800   8.970   9.062  0.2624 -0.2001  0.3009
  321MOL0     C42254   6.668   8.998   8.984  0.5743  0.0602  0.6398
  321MOL0     C42255   6.634   8.900   8.867 -0.1522  0.4464  0.2701
  321MOL0     C42256   6.476   8.888   8.831  0.6625  0.1651 -0.5563
  321MOL0     N42257   6.462   8.843   8.692  0.6595  0.2521  0.6888
  321MOL0     C42258   6.502   8.904   8.577 -0.5266  0.6715  0.6878
  321MOL0     C42259   6.475   8.822   8.470  0.4436  0.3679 -0.0126
  321MOL0     C42260   6.519   8.828   8.329  0.7307 -0.2269 -0.6130
  321MOL0     C42261   6.395   8.829   8.234 -0.2990 -0.1418 -0.2085
  321MOL0     C42262   6.338   8.695   8.196 -0.3013 -0.4950 -0.4537
  321MOL0     C42263   6.211   8.701   8.109  0.2657 -0.6260  0.2959
  321MOL0     O42264   6.096   8.764   8.183 -0.1203  0.5946 -0.3464
  321MOL0     C42265   5.977   8.698   8.159  0.3594  0.3314  0.1241
  321MOL0     C42266   5.915   8.636   8.266 -0.6966 -0.0213 -0.0385
  321MOL0     C42267   5.784   8.601   8.251 -0.1239 -0.5217  0.0873
  321MOL0     C42268   5.718   8.603   8.126  0.7887  0.1834  0.0679
  321MOL0     C42269   5.569   8.574   8.130 -0.5682  1.0073 -0.2284
  321MOL0     O42270   5.516   8.511   8.245 -0.1710 -0.1449 -0.2575
  321MOL0     C42271   5.388   8.483   8.232  0.8969  0.3707  0.6232
  321MOL0     C42272   5.337   8.371   8.175 -0.8150  1.1790  0.3063
  321MOL0     C42273   5.200   8.338   8.191  0.3960  0.0708 -0.7599
  321MOL0     C42274   5.121   8.418   8.277 -0.4254 -0.3359  0.7880
  321MOL0     O42275   4.997   8.389   8.319  0.1297  0.4183 -0.1072
  321MOL0     C42276   4.942   8.265   8.276 -0.0137 -0.5588 -0.4852
  321MOL0     C42277   4.812   8.237   8.352  0.5461 -0.7080 -0.5815
  321MOL0     C42278   4.713   8.147   8.273 -0.0636 -0.4655  0.6840
  321MOL0     C42279   4.592   8.121   8.354 -0.5611  1.1949 -0.7048
  321MOL0     C42280   4.488   8.043   8.279  0.0391  0.4793  0.6729
  321MOL0     C42281   4.367   8.026   8.369 -0.7959  0.8793  0.9700
  321MOL0     C42282   4.277   7.918   8.308  0.1773 -0.0307 -0.2973
  321MOL0     C42283   4.194   7.965   8.183 -0.2179  0.4780 -0.6500
  321MOL0    Cl42284   4.079   7.832   8.127  0.1091 -0.2688 -0.0351
  321MOL0     C42285   5.174   8.533   8.331  0.1298 -0.5038  0.0694
  321MOL0     C42286   5.300   8.574   8.295  0.3029  0.1045 -0.0042
  321MOL0     O42287   5.507   8.612   8.031  0.6117  0.2089 -0.4601
  321MOL0     C42288   5.783   8.654   8.013  0.1584  0.1776 -1.1421
  321MOL0     C42289   5.920   8.709   8.035  0.9528  1.0839  0.0319
  321MOL0     N42290   6.397   8.721   8.521  0.0380 -0.2566  0.1405
  321MOL0     N42291   6.390   8.737   8.651  0.5746  0.1796 -0.4454
  321MOL0     C42292   7.497   9.112   9.198 -0.6980 -0.4566  0.0281
  321MOL0     C42293   7.636   9.104   9.203  0.8393  0.0710 -0.1819
  321MOL0     C42294   8.065   9.130   9.116  0.2297  0.3298 -0.1372
  321MOL0     C42295   8.138   9.146   9.230  0.5228 -0.3280 -0.1148
  321MOL0     C42296   8.276   9.135   9.222 -0.1617 -0.8333 -0.3978
  321MOL0     C42297   8.348   9.129   9.103  0.2932  0.4089 -0.4586
  321MOL0     O42298   8.491   9.134   9.090  0.1271  0.2843  0.6105
  321MOL0     C42299   8.565   9.165   9.201  0.0595  0.0662  0.0943
  321MOL0     C42300   8.702   9.167   9.179  0.5705 -0.4898  0.5061
  321MOL0     C42301   8.758   9.045   9.099 -0.1152 -1.0979 -0.0680
  321MOL0     C42302   8.912   9.043   9.108  0.6473  0.7008  0.8835
  321MOL0     C42303   8.965   9.127   9.008  0.0423  0.2563  0.3609
  321MOL0     C42304   9.014   9.221   8.938 -0.5034  0.0886 -1.1457
  321MOL0     C42305   8.271   9.114   8.989  0.0791  0.1958  0.2742
  321MOL0     C42306   8.134   9.104   8.996  0.2375  0.3560 -0.3109
  321MOL0     H42307   7.713   9.404   9.072 -0.2838  1.2973  0.1819
  321MOL0     H42308   7.459   9.418   9.064  3.0273 -0.0200 -2.5053
  321MOL0     H42309   7.293   9.293   8.958  2.0358 -0.5449  2.2929
  321MOL0     H42310   7.162   9.344   9.070 -0.0497 -0.1385  1.3359
  321MOL0     H42311   7.183   9.074   8.916  1.4059  1.1849 -1.2894
  321MOL0     H42312   7.070   9.211   8.890  0.1085  0.1755  0.7846
  321MOL0     H42313   6.993   9.171   9.119 -0.9600 -2.2538  3.4295
  321MOL0     H42314   7.073   9.007   9.106 -1.6751  0.3347 -0.1722
  321MOL0     H42315   6.865   9.099   8.904 -0.0973  1.1145  2.2607
  321MOL0     H42316   6.953   8.952   8.906 -1.2064  0.6379 -3.6770
  321MOL0     H42317   6.793   9.027   9.155  4.2079  1.8582 -0.4638
  321MOL0     H42318   6.809   8.864   9.088 -2.8429 -0.7508 -0.4452
  321MOL0     H42319   6.666   9.104   8.959 -0.2354  0.7306  3.2230
  321MOL0     H42320   6.595   8.979   9.063  0.1693 -2.4300 -0.2418
  321MOL0     H42321   6.685   8.928   8.775 -0.4854 -1.7889 -0.6728
  321MOL0     H42322   6.661   8.794   8.873 -2.0800 -0.0498  1.2796
  321MOL0     H42323   6.427   8.985   8.846  0.8555  0.1761  0.0245
  321MOL0     H42324   6.427   8.820   8.902 -0.1781  1.3095 -0.0156
  321MOL0     H42325   6.563   8.994   8.572 -4.3631  3.4931 -0.9043
  321MOL0     H42326   6.588   8.746   8.308 -0.0866 -1.7317  2.1181
  321MOL0     H42327   6.578   8.918   8.310 -1.3507  1.3383 -0.0666
  321MOL0     H42328   6.416   8.886   8.143  1.1899 -1.2451 -0.6031
  321MOL0     H42329   6.315   8.883   8.285 -1.9686 -0.5347 -2.3086
  321MOL0     H42330   6.419   8.640   8.148  0.3679 -1.2312  1.4506
  321MOL0     H42331   6.313   8.633   8.283  0.7078 -0.7923 -0.3617
  321MOL0     H42332   6.182   8.600   8.079 -3.6382  0.0911  1.1168
  321MOL0     H42333   6.239   8.760   8.021  0.1726 -0.7043  0.2130
  321MOL0     H42334   5.958   8.625   8.365 -1.9564 -1.3131  0.4007
  321MOL0     H42335   5.739   8.560   8.341  0.5207 -3.3789 -0.7906
  321MOL0     H42336   5.385   8.297   8.112 -1.4394  2.7829 -2.1958
  321MOL0     H42337   5.165   8.248   8.140 -0.2159 -1.2086  1.7798
  321MOL0     H42338   5.014   8.183   8.286 -0.6362 -1.1419 -0.6733
  321MOL0     H42339   4.922   8.272   8.169  0.0668 -5.4748 -1.0794
  321MOL0     H42340   4.756   8.330   8.365 -0.0990 -1.1025 -0.5017
  321MOL0     H42341   4.826   8.198   8.453  1.1344 -1.0700 -0.8006
  321MOL0     H42342   4.756   8.048   8.256  1.8932  0.3823  0.4655
  321MOL0     H42343   4.685   8.185   8.174  2.0899  0.7102  0.4761
  321MOL0     H42344   4.628   8.068   8.442  0.8062  0.8857 -1.4214
  321MOL0     H42345   4.551   8.215   8.391 -0.9266 -0.1538  2.5834
  321MOL0     H42346   4.525   7.944   8.250 -1.0665  0.2515 -0.0299
  321MOL0     H42347   4.461   8.084   8.182  1.7083  0.0891  0.0040
  321MOL0     H42348   4.306   8.116   8.379 -1.3645  0.4239  1.7712
  321MOL0     H42349   4.408   8.007   8.468  0.1505 -1.1536  0.2324
  321MOL0     H42350   4.331   7.824   8.294  0.8938  0.2763  0.2966
  321MOL0     H42351   4.203   7.898   8.386  0.2403  1.3288  0.1522
  321MOL0     H42352   4.262   7.991   8.101 -0.3740  1.4686 -0.4862
  321MOL0     H42353   4.130   8.052   8.200 -2.1221 -0.6202 -1.8603
  321MOL0     H42354   5.109   8.588   8.399  0.4972  1.1494 -0.8557
  321MOL0     H42355   5.336   8.661   8.350  3.3441 -0.6745 -0.5948
  321MOL0     H42356   5.739   8.667   7.914 -0.2721  0.2656 -0.9397
  321MOL0     H42357   5.984   8.752   7.959  1.7942  0.1202  0.1816
  321MOL0     H42358   7.448   9.036   9.258 -0.2264  0.2081  1.2998
  321MOL0     H42359   7.679   9.014   9.247 -0.2316 -0.4630 -0.1827
  321MOL0     H42360   8.084   9.165   9.322  1.4637  1.5445  0.0911
  321MOL0     H42361   8.319   9.144   9.321 -3.8743 -2.7729  1.5949
  321MOL0     H42362   8.548   9.097   9.285 -3.8782 -1.7026 -1.8745
  321MOL0     H42363   8.539   9.267   9.231 -0.6217 -0.4132  1.2291
  321MOL0     H42364   8.729   9.253   9.117  0.1014  0.0333  1.0140
  321MOL0     H42365   8.742   9.171   9.281  0.2877 -1.8234  0.6904
  321MOL0     H42366   8.730   9.062   8.995  0.9802  2.1841  0.0398
  321MOL0     H42367   8.715   8.958   9.150  1.2943 -1.3451  0.7633
  321MOL0     H42368   8.951   9.068   9.207  0.6062 -3.1685  2.0366
  321MOL0     H42369   8.942   8.939   9.093 -0.9873  0.3798 -0.4129
  321MOL0     H42370   9.044   9.317   8.902 -1.3595  1.3913  1.3585
  321MOL0     H42371   8.324   9.106   8.895  0.4073  0.8796  0.3954
  321MOL0     H42372   8.090   9.084   8.899  2.1343  1.7621 -1.5406
  322MOL0     O42373   8.767   5.113   6.718 -0.2008  0.2258 -0.5548
  322MOL0     C42374   8.744   5.097   6.601  0.8608 -0.0374 -0.2821
  322MOL0     O42375   8.623   5.082   6.537 -1.1460 -0.1911  0.4353
  322MOL0     C42376   8.505   5.105   6.596 -0.0057 -0.3705 -0.1622
  322MOL0     C42377   8.486   5.067   6.734  0.8171 -0.5422  0.1050
  322MOL0     C42378   8.359   5.091   6.790 -1.0022 -0.6227 -0.1207
  322MOL0     C42379   8.254   5.156   6.720 -0.7199  1.1335 -0.3658
  322MOL0     O42380   8.138   5.196   6.794  0.5911  0.2091  0.0728
  322MOL0     C42381   8.031   5.105   6.779  0.4285 -0.0112  0.4263
  322MOL0     C42382   7.913   5.152   6.857 -0.5863 -1.0623 -0.2499
  322MOL0     C42383   7.790   5.069   6.831  0.0164 -0.0047 -0.3603
  322MOL0     C42384   7.680   5.123   6.916 -0.3309  0.1117 -0.1058
  322MOL0     C42385   7.546   5.063   6.887  0.0583  0.1528  0.2787
  322MOL0     C42386   7.437   5.119   6.984 -0.2121  0.2339  0.0184
  322MOL0     C42387   7.297   5.069   6.948 -0.0715 -0.0246  0.0320
  322MOL0     C42388   7.265   4.925   7.008 -0.8920 -0.2404  0.3746
  322MOL0     N42389   7.124   4.904   7.016 -0.3007 -0.5977 -0.2665
  322MOL0     C42390   7.052   4.865   6.903  0.4118  0.0516  0.3334
  322MOL0     C42391   6.923   4.872   6.938  1.0600 -0.3102  0.0051
  322MOL0     C42392   6.797   4.842   6.854 -0.2686 -0.0294  0.4187
  322MOL0     C42393   6.751   4.960   6.772 -0.1457 -1.7077 -0.1765
  322MOL0     C42394   6.616   4.919   6.712 -0.0799  0.4475 -0.9858
  322MOL0     C42395   6.539   5.029   6.640 -0.4915 -0.0721  0.8030
  322MOL0     O42396   6.404   4.990   6.628  0.0400  0.5706 -0.0601
  322MOL0     C42397   6.341   4.987   6.498 -0.3347  0.3704  0.4956
  322MOL0     C42398   6.199   4.974   6.504  0.1645  0.4601  0.3588
  322MOL0     C42399   6.117   4.956   6.392 -0.2229 -0.8958 -0.1334
  322MOL0     C42400   6.171   4.955   6.263 -0.4437 -0.3899 -0.3863
  322MOL0     C42401   6.095   4.921   6.134  0.5391  0.4340  0.5103
  322MOL0     O42402   5.960   4.905   6.152  0.5669 -0.5543 -0.0022
  322MOL0     C42403   5.874   4.905   6.041 -0.2798 -0.0596  0.0117
  322MOL0     C42404   5.901   4.976   5.919 -0.4885  0.2070 -0.0694
  322MOL0     C42405   5.813   4.965   5.813 -0.5627  0.3464  0.4384
  322MOL0     C42406   5.715   4.869   5.814  0.3028  0.3675  0.3250
  322MOL0     O42407   5.630   4.849   5.700  0.2465 -0.3651 -0.7341
  322MOL0     C42408   5.597   4.956   5.623 -0.4351 -1.1835  0.4237
  322MOL0     C42409   5.474   4.919   5.538 -0.1617 -0.4326  0.2565
  322MOL0     C42410   5.347   4.953   5.629 -0.2727  0.0067  1.0222
  322MOL0     C42411   5.211   4.922   5.564  0.3401  0.0459  0.6008
  322MOL0     C42412   5.094   4.999   5.620  0.5027  0.2649  0.1820
  322MOL0     C42413   4.963   4.945   5.550 -0.1008 -0.7019 -0.5501
  322MOL0     C42414   4.823   4.990   5.598 -0.2987 -0.5985 -0.4436
  322MOL0     C42415   4.769   4.923   5.719 -0.7124  0.4967 -0.8498
  322MOL0    Cl42416   4.663   4.790   5.663 -0.2296 -0.0411  0.1516
  322MOL0     C42417   5.682   4.812   5.935  0.2618 -0.1421 -1.2668
  322MOL0     C42418   5.757   4.832   6.050  0.2416  0.3725 -0.0119
  322MOL0     O42419   6.157   4.895   6.026  0.0276  0.0875  0.4049
  322MOL0     C42420   6.312   4.956   6.256  0.8326  0.0401  0.1440
  322MOL0     C42421   6.394   4.981   6.364 -0.9017 -0.4197 -0.3000
  322MOL0     N42422   6.921   4.920   7.071  0.1803  0.1907 -0.1632
  322MOL0     N42423   7.041   4.935   7.121  0.7342 -0.4919 -0.1262
  322MOL0     C42424   8.279   5.196   6.590  0.2061 -0.5933  0.1986
  322MOL0     C42425   8.404   5.177   6.527 -0.1490 -0.9770  1.0716
  322MOL0     C42426   8.872   5.102   6.522 -0.5514 -0.7332 -0.9630
  322MOL0     C42427   8.869   5.138   6.388  0.6886 -0.3348 -0.4700
  322MOL0     C42428   8.981   5.150   6.312  0.1767 -0.5931  0.5079
  322MOL0     C42429   9.110   5.124   6.366 -0.1774 -0.1530  0.7038
  322MOL0     O42430   9.221   5.131   6.275  0.6636 -0.3016  0.0596
  322MOL0     C42431   9.359   5.125   6.329  0.8127 -0.1998  0.1729
  322MOL0     C42432   9.469   5.161   6.221 -0.0049 -0.8686 -0.2174
  322MOL0     C42433   9.618   5.178   6.270  0.2255 -0.4528 -0.1349
  322MOL0     C42434   9.709   5.051   6.246 -0.5942  0.2677 -0.6978
  322MOL0     C42435   9.751   5.023   6.112  0.0213  0.3747  1.0347
  322MOL0     C42436   9.777   4.977   5.997  0.1587 -0.8047 -0.1720
  322MOL0     C42437   9.119   5.092   6.506 -0.1169  0.2416  0.0387
  322MOL0     C42438   8.999   5.089   6.584  0.0907  0.1509  0.7182
  322MOL0     H42439   8.566   5.026   6.794  0.0107 -0.4524  1.2643
  322MOL0     H42440   8.350   5.068   6.895  0.4491  0.0781  0.1831
  322MOL0     H42441   8.065   5.006   6.811 -0.3113 -0.5162 -0.3090
  322MOL0     H42442   7.998   5.087   6.676  1.7628 -0.5912  0.0848
  322MOL0     H42443   7.912   5.261   6.842  2.4437 -1.2044 -2.4061
  322MOL0     H42444   7.947   5.125   6.958 -1.3846 -1.8720 -0.1877
  322MOL0     H42445   7.817   4.964   6.849  2.1910  0.4239 -0.8390
  322MOL0     H42446   7.760   5.078   6.726  2.0812 -1.5794 -1.1642
  322MOL0     H42447   7.693   5.106   7.023 -0.2029  1.7248  0.1599
  322MOL0     H42448   7.672   5.231   6.901 -4.2917 -0.0465 -0.1071
  322MOL0     H42449   7.552   4.957   6.911  2.5950  0.3303  0.6178
  322MOL0     H42450   7.513   5.076   6.783 -0.0435  0.5782  0.3623
  322MOL0     H42451   7.448   5.228   6.975 -1.3534  0.3174 -0.5744
  322MOL0     H42452   7.459   5.100   7.090  1.5276  1.9749  0.0357
  322MOL0     H42453   7.227   5.137   6.997  1.7239 -0.0569  2.8631
  322MOL0     H42454   7.280   5.062   6.840 -0.7749 -2.2275  0.2287
  322MOL0     H42455   7.310   4.924   7.107  1.3773 -1.9097 -0.5835
  322MOL0     H42456   7.300   4.837   6.952 -0.4190 -0.3707  0.8666
  322MOL0     H42457   7.093   4.833   6.808  1.7867 -2.2350  1.6145
  322MOL0     H42458   6.714   4.807   6.916 -0.9765  0.4560 -0.2427
  322MOL0     H42459   6.814   4.759   6.785  0.3803  0.0818  0.4349
  322MOL0     H42460   6.836   4.987   6.708  0.7354 -1.6495  0.9833
  322MOL0     H42461   6.745   5.048   6.837  2.1604 -2.0144  0.5521
  322MOL0     H42462   6.638   4.846   6.633 -0.2395 -0.3188 -0.3364
  322MOL0     H42463   6.551   4.870   6.785  0.1280  1.5550 -0.0281
  322MOL0     H42464   6.574   5.040   6.537 -0.8578 -2.1874  0.3977
  322MOL0     H42465   6.540   5.118   6.704 -0.3259  1.1106 -0.7907
  322MOL0     H42466   6.145   4.964   6.597 -0.5200  0.1610 -0.0630
  322MOL0     H42467   6.009   4.948   6.398 -0.2602 -1.1410 -1.0158
  322MOL0     H42468   5.986   5.043   5.916 -1.1886  1.1003 -0.4371
  322MOL0     H42469   5.828   5.013   5.717 -2.1738  2.3700  1.1193
  322MOL0     H42470   5.678   4.988   5.557 -0.3648 -0.0345  1.0505
  322MOL0     H42471   5.575   5.043   5.685  2.0071  2.2649 -3.0512
  322MOL0     H42472   5.483   4.818   5.497 -2.4260 -0.4959 -0.1922
  322MOL0     H42473   5.465   4.987   5.453  4.4556  2.2586  1.5181
  322MOL0     H42474   5.349   5.061   5.646 -2.0784  0.4745 -1.2713
  322MOL0     H42475   5.356   4.899   5.723  2.7474 -3.2348 -0.8685
  322MOL0     H42476   5.215   4.930   5.455  0.4202  1.4053  0.6877
  322MOL0     H42477   5.186   4.818   5.589 -1.7119 -0.5078 -3.0452
  322MOL0     H42478   5.106   5.105   5.596  1.8387  0.6745  2.3422
  322MOL0     H42479   5.084   4.987   5.729 -1.1391  0.6809  0.0974
  322MOL0     H42480   4.953   4.837   5.539 -3.3822 -0.5292 -0.4203
  322MOL0     H42481   4.961   4.968   5.444 -1.8768 -4.1142 -1.4011
  322MOL0     H42482   4.829   5.098   5.615 -0.4372 -0.4205 -1.4591
  322MOL0     H42483   4.760   4.959   5.514 -1.1637  2.6462 -1.1394
  322MOL0     H42484   4.711   4.998   5.774  1.4153  0.1495  2.1369
  322MOL0     H42485   4.853   4.887   5.780 -1.3001 -1.1286 -0.9603
  322MOL0     H42486   5.590   4.754   5.934 -2.1637  3.2569  0.8950
  322MOL0     H42487   5.744   4.795   6.151  2.8700  1.1236  0.6638
  322MOL0     H42488   6.356   4.949   6.157 -2.6741 -1.0063 -1.4913
  322MOL0     H42489   6.500   4.988   6.342  0.0628 -3.0640  2.7105
  322MOL0     H42490   8.209   5.263   6.542  1.1819  0.5234  0.2683
  322MOL0     H42491   8.422   5.212   6.426 -2.9608 -1.4882  0.3167
  322MOL0     H42492   8.771   5.138   6.341  0.3766 -1.2595  0.1348
  322MOL0     H42493   8.988   5.181   6.209  1.4827 -0.4577  0.6169
  322MOL0     H42494   9.370   5.023   6.366 -1.2963  0.3207  2.5018
  322MOL0     H42495   9.367   5.195   6.413 -1.1280 -0.4207  0.5832
  322MOL0     H42496   9.469   5.076   6.152 -1.6622  1.4066 -3.2780
  322MOL0     H42497   9.436   5.244   6.158 -1.3390 -1.5085 -0.4095
  322MOL0     H42498   9.621   5.201   6.377 -1.9219 -0.9881  0.0724
  322MOL0     H42499   9.669   5.255   6.211  1.5340 -1.2686 -0.1227
  322MOL0     H42500   9.802   5.054   6.303 -0.7785 -1.5980 -0.2476
  322MOL0     H42501   9.655   4.966   6.288  3.2060 -0.8857  2.4095
  322MOL0     H42502   9.797   4.938   5.900  2.4237 -0.7508  0.2090
  322MOL0     H42503   9.217   5.060   6.537 -1.1030 -1.6532  1.4211
  322MOL0     H42504   8.997   5.091   6.692 -1.7250  2.0709  0.7275
  323MOL0     O42505   4.321  11.299   6.524 -0.2857  0.0577  0.4094
  323MOL0     C42506   4.383  11.226   6.597 -1.0142  1.4731 -0.5311
  323MOL0     O42507   4.331  11.136   6.695  0.6809 -0.4962  0.2947
  323MOL0     C42508   4.201  11.088   6.685  0.2299  0.4596  0.3282
  323MOL0     C42509   4.136  11.047   6.805  0.2145  0.7930 -0.4212
  323MOL0     C42510   4.005  10.998   6.808 -0.0683 -0.3284  0.2292
  323MOL0     C42511   3.928  10.998   6.690 -1.0820  0.0789  0.2490
  323MOL0     O42512   3.802  10.956   6.679  0.6253 -0.1090 -0.5194
  323MOL0     C42513   3.714  11.006   6.784  0.9574 -0.1621  0.2153
  323MOL0     C42514   3.581  11.056   6.718 -0.5655 -0.3884 -0.5943
  323MOL0     C42515   3.518  10.954   6.614 -0.0323  0.6044 -0.2688
  323MOL0     C42516   3.467  10.823   6.690  0.0239 -0.1172 -0.3574
  323MOL0     C42517   3.358  10.743   6.609 -0.3987 -0.7566 -0.2113
  323MOL0     C42518   3.302  10.622   6.677  1.6377  0.0044 -0.1873
  323MOL0     C42519   3.166  10.648   6.735  1.0923  0.6517  0.4390
  323MOL0     C42520   3.119  10.523   6.796 -0.6394  0.1204 -0.1562
  323MOL0     N42521   3.213  10.460   6.881 -0.3515 -0.0514 -0.9342
  323MOL0     C42522   3.271  10.521   6.995 -0.1748  0.1227  0.1877
  323MOL0     C42523   3.386  10.453   7.033  0.6803  0.2682 -0.2675
  323MOL0     C42524   3.487  10.492   7.133  0.1725  0.6700 -0.2327
  323MOL0     C42525   3.588  10.593   7.070  0.1625  0.3462  0.6895
  323MOL0     C42526   3.637  10.566   6.925  0.5185  0.8427 -0.1801
  323MOL0     C42527   3.778  10.637   6.898  1.4696 -0.1710  0.0495
  323MOL0     O42528   3.874  10.553   6.980  0.7387 -1.0363  0.0612
  323MOL0     C42529   4.008  10.563   6.962 -0.2382  0.3450  0.4759
  323MOL0     C42530   4.064  10.675   6.896 -0.3686 -0.3987 -0.2844
  323MOL0     C42531   4.203  10.692   6.874  0.3386 -1.0226  0.2654
  323MOL0     C42532   4.285  10.604   6.942 -0.4387 -0.5991  0.3953
  323MOL0     C42533   4.427  10.625   6.945  0.2885  0.0666  0.1423
  323MOL0     O42534   4.470  10.699   6.839  0.0569 -0.9338  0.1581
  323MOL0     C42535   4.596  10.737   6.814  0.3016 -1.0341 -0.3739
  323MOL0     C42536   4.712  10.696   6.884  0.2876  0.0008 -0.2447
  323MOL0     C42537   4.840  10.739   6.839 -0.0698 -0.8093  1.0269
  323MOL0     C42538   4.858  10.820   6.723 -0.9047  0.6120  0.0753
  323MOL0     O42539   4.994  10.859   6.697 -0.0043 -0.0731  0.1493
  323MOL0     C42540   5.012  10.951   6.593 -0.2029  0.2022 -0.3398
  323MOL0     C42541   5.124  10.926   6.506 -0.1510 -0.3237 -0.1138
  323MOL0     C42542   5.174  11.034   6.408 -0.3564  0.1256 -0.0604
  323MOL0     C42543   5.092  11.038   6.282  0.1684 -0.0815 -0.4149
  323MOL0     C42544   5.175  11.026   6.156 -0.4909 -1.1497  0.8540
  323MOL0     C42545   5.274  11.139   6.149  0.1674 -0.2497 -0.7625
  323MOL0     C42546   5.348  11.158   6.008  0.1780 -0.1057  0.2544
  323MOL0     C42547   5.429  11.025   5.967  0.5336 -0.2820 -1.1020
  323MOL0    Cl42548   5.567  11.010   6.062 -0.3949  0.4284 -0.0304
  323MOL0     C42549   4.736  10.851   6.655 -0.3226  0.1746 -0.1662
  323MOL0     C42550   4.610  10.815   6.700 -0.0015  0.4641  0.0051
  323MOL0     O42551   4.495  10.587   7.040  0.1721  0.1467 -0.2373
  323MOL0     C42552   4.235  10.487   7.002 -1.2850  0.5210 -0.3505
  323MOL0     C42553   4.098  10.469   7.024 -0.4445  0.6704  0.1929
  323MOL0     N42554   3.387  10.344   6.943  0.5877 -0.2492 -0.4109
  323MOL0     N42555   3.290  10.354   6.862  0.1118  0.4787  0.3089
  323MOL0     C42556   3.991  11.043   6.575 -0.9811  0.0800  0.0358
  323MOL0     C42557   4.127  11.081   6.566 -0.7308 -1.0922  0.1596
  323MOL0     C42558   4.534  11.238   6.603 -0.1535 -0.0972  0.8824
  323MOL0     C42559   4.601  11.318   6.501 -0.2846  0.4989  0.4060
  323MOL0     C42560   4.735  11.343   6.514 -0.1581 -0.4716  0.4538
  323MOL0     C42561   4.810  11.292   6.621  0.3781  0.0880 -0.0467
  323MOL0     O42562   4.940  11.291   6.636  0.1783 -0.8754 -0.0792
  323MOL0     C42563   5.027  11.363   6.550  0.2394 -1.1650 -1.1885
  323MOL0     C42564   5.030  11.515   6.588  0.1746 -0.1645  0.4229
  323MOL0     C42565   5.076  11.540   6.733 -0.2331 -0.6609  0.2070
  323MOL0     C42566   5.019  11.673   6.789 -0.5456  0.4122  0.2074
  323MOL0     C42567   5.041  11.793   6.704 -0.0022  0.3394 -0.3000
  323MOL0     C42568   5.051  11.876   6.620  0.0533  0.0796 -0.1843
  323MOL0     C42569   4.749  11.202   6.712  0.2224  0.2602  0.2929
  323MOL0     C42570   4.611  11.180   6.706  0.8706 -0.1255  0.2585
  323MOL0     H42571   4.175  11.068   6.904  0.3509  2.0508 -0.7201
  323MOL0     H42572   3.966  10.979   6.908  0.3312  1.2970  0.7221
  323MOL0     H42573   3.758  11.089   6.841  1.0870 -0.4542  0.5504
  323MOL0     H42574   3.693  10.917   6.846  2.0207 -0.5566  0.0255
  323MOL0     H42575   3.608  11.153   6.674 -0.0378 -0.5050 -0.5279
  323MOL0     H42576   3.507  11.073   6.797 -1.8925 -0.7516 -1.7193
  323MOL0     H42577   3.583  10.930   6.529 -0.3432 -0.4262 -0.2329
  323MOL0     H42578   3.433  10.993   6.558  0.2114  0.1589 -0.9678
  323MOL0     H42579   3.550  10.753   6.704  1.1528  1.1651 -0.4694
  323MOL0     H42580   3.436  10.847   6.792  2.8040  1.7230  0.1570
  323MOL0     H42581   3.402  10.705   6.516 -1.6817  0.2505 -1.2750
  323MOL0     H42582   3.281  10.807   6.564 -0.1151 -1.2185 -1.4085
  323MOL0     H42583   3.373  10.586   6.752 -0.8371  1.0057  2.8386
  323MOL0     H42584   3.295  10.538   6.607 -0.1022 -0.7427  0.8405
  323MOL0     H42585   3.147  10.727   6.808  2.0424  0.0501  1.3731
  323MOL0     H42586   3.095  10.676   6.656  0.8612  0.0476  0.4284
  323MOL0     H42587   3.090  10.442   6.729 -0.2953  0.7673 -1.1103
  323MOL0     H42588   3.036  10.554   6.861  0.9573 -0.5394  2.3400
  323MOL0     H42589   3.228  10.613   7.033 -1.6259 -1.8242  3.7952
  323MOL0     H42590   3.529  10.393   7.153  1.0308  1.8018  5.2455
  323MOL0     H42591   3.452  10.531   7.229  1.8395  2.6375 -0.3753
  323MOL0     H42592   3.672  10.574   7.138  0.5412 -0.6349 -0.0226
  323MOL0     H42593   3.554  10.694   7.094 -1.0496 -0.5522  3.0580
  323MOL0     H42594   3.654  10.458   6.922 -1.7732  0.4439 -1.8839
  323MOL0     H42595   3.561  10.592   6.850 -1.2185 -1.4232  0.6708
  323MOL0     H42596   3.784  10.744   6.919 -2.6915  0.1035  0.6149
  323MOL0     H42597   3.811  10.617   6.795 -0.1980  1.0976 -0.7679
  323MOL0     H42598   4.004  10.744   6.837  0.4197  0.6139  0.0703
  323MOL0     H42599   4.239  10.774   6.813 -1.2365 -0.2085  0.3698
  323MOL0     H42600   4.710  10.634   6.973  1.4876  0.3697  0.0547
  323MOL0     H42601   4.930  10.721   6.896 -1.1009 -3.6392  1.9593
  323MOL0     H42602   5.019  11.050   6.640 -0.7785  1.6241 -3.0513
  323MOL0     H42603   4.928  10.951   6.524  1.7276  0.8263 -2.8335
  323MOL0     H42604   5.095  10.837   6.450 -3.0890  0.6219 -0.2854
  323MOL0     H42605   5.216  10.912   6.564  0.4414  0.4810 -0.8378
  323MOL0     H42606   5.275  11.002   6.380 -0.0888  2.3061 -1.8421
  323MOL0     H42607   5.179  11.137   6.444  0.0453  2.3517 -5.5898
  323MOL0     H42608   5.026  10.951   6.277 -0.4706  0.3312  0.4943
  323MOL0     H42609   5.037  11.132   6.275  2.6721  1.5505  0.2031
  323MOL0     H42610   5.105  11.034   6.072  2.8923  0.8409 -2.0218
  323MOL0     H42611   5.226  10.932   6.132 -5.9123 -3.9417 -1.5564
  323MOL0     H42612   5.353  11.123   6.223  2.6111  2.3813 -2.5844
  323MOL0     H42613   5.228  11.234   6.174  2.9384  1.4621 -1.6767
  323MOL0     H42614   5.276  11.198   5.937 -1.3500 -0.2018  1.6829
  323MOL0     H42615   5.423  11.237   6.013 -0.5475  0.7428 -1.5698
  323MOL0     H42616   5.465  11.041   5.865 -1.7092  1.4055 -1.7142
  323MOL0     H42617   5.348  10.952   5.978 -2.3547  2.7149 -0.9117
  323MOL0     H42618   4.730  10.910   6.564 -2.6872  0.5505  0.1840
  323MOL0     H42619   4.524  10.850   6.643  1.0755 -1.6780 -3.2009
  323MOL0     H42620   4.302  10.413   7.044 -3.0384 -1.8634 -1.5047
  323MOL0     H42621   4.059  10.380   7.073 -1.9816  1.8009  1.1383
  323MOL0     H42622   3.930  11.036   6.486 -2.3102  0.6790  0.8756
  323MOL0     H42623   4.164  11.122   6.473 -3.1898  0.2655 -0.2834
  323MOL0     H42624   4.547  11.351   6.412  1.2403  1.2530 -0.2682
  323MOL0     H42625   4.793  11.398   6.440 -1.4067  2.6597  1.6193
  323MOL0     H42626   4.999  11.345   6.446 -0.9641 -0.3104 -1.0331
  323MOL0     H42627   5.126  11.325   6.578  0.1645  0.9262  2.5999
  323MOL0     H42628   5.100  11.575   6.529  0.4154  1.3142  2.1562
  323MOL0     H42629   4.929  11.553   6.567  0.7864  0.8734 -0.7807
  323MOL0     H42630   5.185  11.552   6.733  0.0872 -2.9237  2.6196
  323MOL0     H42631   5.067  11.456   6.802  3.4649 -1.3149  0.0935
  323MOL0     H42632   4.913  11.668   6.814 -0.8082  4.1932  0.5007
  323MOL0     H42633   5.063  11.694   6.886  0.7743 -1.3544  0.0406
  323MOL0     H42634   5.057  11.953   6.546 -0.9443  0.1158 -0.2510
  323MOL0     H42635   4.809  11.154   6.790  1.5995  1.3196 -0.0720
  323MOL0     H42636   4.562  11.112   6.774 -0.0898 -1.6266 -1.8342
  324MOL0     O42637   5.289   1.720   4.071 -0.0921 -0.0781 -0.1393
  324MOL0     C42638   5.296   1.842   4.034  0.3309 -0.3239 -0.6728
  324MOL0     O42639   5.197   1.915   3.982 -0.0166 -0.9920  0.0062
  324MOL0     C42640   5.071   1.861   3.955 -0.1257 -1.5053  0.4351
  324MOL0     C42641   5.051   1.725   3.907 -0.0328  0.5236 -0.5366
  324MOL0     C42642   4.927   1.680   3.860  0.1253 -0.3405 -1.1672
  324MOL0     C42643   4.819   1.769   3.868 -0.7169 -0.4627 -0.2432
  324MOL0     O42644   4.696   1.729   3.826  0.4806  0.3579  0.1402
  324MOL0     C42645   4.594   1.731   3.930 -0.9980  0.1341 -0.3671
  324MOL0     C42646   4.490   1.621   3.906  0.3209  1.0602 -0.3639
  324MOL0     C42647   4.414   1.569   4.026  0.1998 -0.1899 -0.0487
  324MOL0     C42648   4.299   1.470   3.989  1.2199  0.7181 -0.4507
  324MOL0     C42649   4.147   1.516   3.990  0.2801  0.5509  0.0719
  324MOL0     C42650   4.111   1.607   3.873 -0.4748  0.1908  0.5439
  324MOL0     C42651   4.090   1.555   3.728  0.2080 -0.3761 -0.5201
  324MOL0     C42652   4.212   1.556   3.643 -1.9811 -0.8963 -0.5454
  324MOL0     N42653   4.265   1.692   3.606  0.2651  0.1317 -0.4118
  324MOL0     C42654   4.393   1.711   3.560 -0.1928  0.0424  0.9155
  324MOL0     C42655   4.395   1.843   3.531  0.4245  0.1440  0.4477
  324MOL0     C42656   4.504   1.934   3.476  0.0982 -0.0187 -0.8783
  324MOL0     C42657   4.641   1.897   3.523 -0.5708  0.4546  0.3990
  324MOL0     C42658   4.742   1.996   3.496 -0.0278 -1.0865 -0.0714
  324MOL0     C42659   4.881   1.987   3.555  0.4079 -0.1264  0.1445
  324MOL0     O42660   4.962   1.924   3.466 -0.0195  0.2040  0.0642
  324MOL0     C42661   5.099   1.942   3.475 -0.1401  1.1031  0.3417
  324MOL0     C42662   5.154   1.974   3.605  0.7420 -0.8573 -0.1294
  324MOL0     C42663   5.289   1.997   3.613  0.4269 -0.9989  0.5385
  324MOL0     C42664   5.376   1.979   3.503  0.4144 -0.1517  0.1115
  324MOL0     C42665   5.525   1.984   3.520  0.8340  0.2555 -1.3723
  324MOL0     O42666   5.573   1.946   3.640 -0.5671  0.3748  0.0757
  324MOL0     C42667   5.713   1.940   3.668 -0.1518 -0.2072 -0.2637
  324MOL0     C42668   5.741   1.908   3.799  0.9462  0.2121  1.2261
  324MOL0     C42669   5.872   1.888   3.835 -0.4687 -0.4403  0.3356
  324MOL0     C42670   5.985   1.924   3.752  0.4468 -0.2008  0.2171
  324MOL0     O42671   6.123   1.921   3.774 -0.3540  0.0507 -0.6532
  324MOL0     C42672   6.172   1.836   3.878 -0.4451 -0.0425  0.7539
  324MOL0     C42673   6.312   1.884   3.919  0.5720  0.1298  0.7791
  324MOL0     C42674   6.420   1.863   3.810 -0.4878 -0.7200  0.6410
  324MOL0     C42675   6.546   1.944   3.845 -0.1510 -0.0704  0.0839
  324MOL0     C42676   6.660   1.917   3.745 -0.2101  0.8936  0.5604
  324MOL0     C42677   6.794   2.001   3.750 -0.2845  0.3651  0.3775
  324MOL0     C42678   6.782   2.151   3.772  0.5863 -0.0974 -0.4722
  324MOL0     C42679   6.885   2.202   3.871 -0.2998  1.2720 -0.2789
  324MOL0    Cl42680   6.908   2.110   4.020 -0.0051  0.0734  0.1458
  324MOL0     C42681   5.947   1.971   3.627  0.4100 -0.7903  0.3684
  324MOL0     C42682   5.820   1.972   3.576  0.4774  0.5438  0.6213
  324MOL0     O42683   5.587   2.007   3.417  0.5596 -0.4716 -0.2695
  324MOL0     C42684   5.317   1.958   3.378  0.2588  0.9422  0.2748
  324MOL0     C42685   5.182   1.937   3.358  0.3369 -0.0730 -0.3390
  324MOL0     N42686   4.267   1.903   3.563 -0.1954 -0.0442  0.3110
  324MOL0     N42687   4.193   1.808   3.602  0.1952  0.6205  0.1026
  324MOL0     C42688   4.845   1.900   3.903  0.2139 -0.4060 -0.3179
  324MOL0     C42689   4.963   1.949   3.952  0.1076 -0.3114  0.0036
  324MOL0     C42690   5.416   1.924   4.070 -0.6475  0.4702  0.8580
  324MOL0     C42691   5.537   1.868   4.106 -0.8888  0.0809 -0.2803
  324MOL0     C42692   5.644   1.953   4.151  0.3377  0.4005 -0.1721
  324MOL0     C42693   5.633   2.092   4.135  0.4849 -0.6976 -0.2859
  324MOL0     O42694   5.732   2.186   4.165 -0.1805  0.4831  0.3768
  324MOL0     C42695   5.869   2.146   4.168 -0.9308 -0.0899 -0.3691
  324MOL0     C42696   5.953   2.270   4.144 -0.0571 -1.1452  0.3763
  324MOL0     C42697   6.099   2.237   4.147  0.0606  1.0347  0.6296
  324MOL0     C42698   6.192   2.344   4.107 -1.0179  0.4391 -0.1023
  324MOL0     C42699   6.336   2.298   4.103  0.4235 -0.3204  0.3505
  324MOL0     C42700   6.444   2.240   4.100  0.2609  0.8619  0.8821
  324MOL0     C42701   5.506   2.147   4.097 -0.1927  0.6596  0.0039
  324MOL0     C42702   5.398   2.070   4.071  0.3243  1.4079  0.2056
  324MOL0     H42703   5.137   1.659   3.910  1.2513  2.1469 -0.0980
  324MOL0     H42704   4.914   1.584   3.811  1.3924  0.7069 -3.7152
  324MOL0     H42705   4.540   1.826   3.937  2.3902  2.2233 -0.4167
  324MOL0     H42706   4.640   1.714   4.028  0.2975  3.3804 -0.2876
  324MOL0     H42707   4.544   1.534   3.868 -0.5900 -0.0820  0.8968
  324MOL0     H42708   4.426   1.654   3.824  2.4971 -0.8502 -3.0246
  324MOL0     H42709   4.371   1.659   4.073 -2.1623 -0.1815 -2.0124
  324MOL0     H42710   4.491   1.529   4.092  2.1201  1.8058 -0.9088
  324MOL0     H42711   4.328   1.419   3.897  1.9919 -2.3733  1.3477
  324MOL0     H42712   4.298   1.391   4.065  2.1610  0.4606 -0.6889
  324MOL0     H42713   4.110   1.566   4.081 -0.7436  2.7803 -1.4781
  324MOL0     H42714   4.084   1.428   3.973  0.4828  0.6205 -1.1143
  324MOL0     H42715   4.189   1.684   3.867  0.0735 -0.3686  0.3243
  324MOL0     H42716   4.023   1.661   3.908 -0.1842  0.3392  1.0411
  324MOL0     H42717   4.046   1.455   3.733  1.3076 -0.8326  3.5090
  324MOL0     H42718   4.019   1.623   3.681 -0.5569 -1.2421 -0.6352
  324MOL0     H42719   4.207   1.503   3.548 -2.1816 -1.6979 -0.1013
  324MOL0     H42720   4.292   1.505   3.698  0.8143  1.4593 -2.1343
  324MOL0     H42721   4.474   1.639   3.548  0.9980  1.6005 -1.1075
  324MOL0     H42722   4.492   2.037   3.511  1.7528 -0.7785  2.3616
  324MOL0     H42723   4.489   1.937   3.368 -2.0071 -0.0977 -0.6264
  324MOL0     H42724   4.682   1.800   3.495  3.6442  1.0481  3.3900
  324MOL0     H42725   4.632   1.892   3.632 -1.4612  0.4858  0.3355
  324MOL0     H42726   4.749   2.004   3.388  1.8613 -0.3973  0.0564
  324MOL0     H42727   4.704   2.094   3.526  3.0123 -0.9245  4.3391
  324MOL0     H42728   4.869   1.939   3.653 -0.0584  2.4870  1.4630
  324MOL0     H42729   4.917   2.090   3.563 -0.5605  0.3322 -1.1328
  324MOL0     H42730   5.080   1.980   3.684 -2.8806 -1.5405 -3.1628
  324MOL0     H42731   5.325   2.017   3.713  3.3128 -1.5587 -0.3141
  324MOL0     H42732   5.656   1.898   3.866 -0.8888  3.7224 -0.3651
  324MOL0     H42733   5.896   1.876   3.940  1.7646  3.1202  0.3807
  324MOL0     H42734   6.184   1.734   3.842  3.4472  0.5790 -0.1123
  324MOL0     H42735   6.105   1.838   3.965  1.5097 -2.8991  2.4735
  324MOL0     H42736   6.350   1.832   4.007  0.8262 -2.9908 -1.0209
  324MOL0     H42737   6.302   1.989   3.945 -0.7991  0.3271 -0.3930
  324MOL0     H42738   6.381   1.878   3.708 -1.5634 -0.8971  1.0108
  324MOL0     H42739   6.454   1.759   3.805  2.0763  0.0826 -0.1439
  324MOL0     H42740   6.507   2.046   3.837  2.8049  1.1559 -0.1743
  324MOL0     H42741   6.589   1.919   3.942  0.2384 -1.3293 -0.3980
  324MOL0     H42742   6.614   1.923   3.646 -2.0993  1.7298  1.4444
  324MOL0     H42743   6.683   1.810   3.751 -0.8204  0.5325 -2.3054
  324MOL0     H42744   6.847   1.995   3.655  2.8672 -1.9491  2.0779
  324MOL0     H42745   6.861   1.957   3.824  0.8160 -0.0784 -0.8480
  324MOL0     H42746   6.789   2.196   3.673 -0.4175 -2.6206 -1.8030
  324MOL0     H42747   6.682   2.177   3.807  0.2794 -1.1125 -0.5692
  324MOL0     H42748   6.856   2.303   3.903 -1.4697  0.7121  0.5540
  324MOL0     H42749   6.982   2.203   3.821 -0.3999 -2.9977 -0.9223
  324MOL0     H42750   6.014   2.012   3.552 -1.8483 -1.6839 -2.3224
  324MOL0     H42751   5.798   2.000   3.473  1.4244  1.8309  0.7451
  324MOL0     H42752   5.376   1.957   3.287  1.4132  0.1558  0.9922
  324MOL0     H42753   5.129   1.921   3.264 -2.8499 -0.4908  1.3998
  324MOL0     H42754   4.771   1.974   3.877 -0.3834 -0.1560  1.9085
  324MOL0     H42755   4.963   2.056   3.967 -0.5769  0.1641 -2.8401
  324MOL0     H42756   5.560   1.763   4.116  4.2352  1.0415  0.9671
  324MOL0     H42757   5.737   1.916   4.193 -0.6018 -0.8266  0.9121
  324MOL0     H42758   5.881   2.066   4.095  0.9711  0.1393 -0.3706
  324MOL0     H42759   5.894   2.107   4.268 -1.1377 -1.8563 -0.9845
  324MOL0     H42760   5.933   2.302   4.041  3.9568 -1.8713 -0.8410
  324MOL0     H42761   5.930   2.345   4.220 -0.7273 -1.9067  0.9369
  324MOL0     H42762   6.105   2.157   4.073  0.7239 -0.6600  2.4069
  324MOL0     H42763   6.138   2.195   4.240  0.6335 -1.7714 -0.7862
  324MOL0     H42764   6.158   2.375   4.008  0.4982 -1.7882 -1.4273
  324MOL0     H42765   6.201   2.431   4.172  2.5195  0.4410 -0.3974
  324MOL0     H42766   6.545   2.212   4.081 -0.4705 -2.3727  1.2616
  324MOL0     H42767   5.487   2.253   4.083  3.4794  1.3107 -1.1584
  324MOL0     H42768   5.308   2.122   4.040 -0.4225 -0.2367 -0.5544
  325MOL0     O42769   3.563   7.454   6.522 -0.6224  0.3970 -0.2038
  325MOL0     C42770   3.593   7.535   6.613  0.3794 -0.1964  0.2708
  325MOL0     O42771   3.506   7.606   6.692  0.1808  0.6028  0.5102
  325MOL0     C42772   3.367   7.596   6.660 -0.3329 -0.1161  0.3555
  325MOL0     C42773   3.280   7.580   6.761  1.0977  0.1402 -0.3922
  325MOL0     C42774   3.141   7.578   6.734  0.8374 -0.2055  0.3691
  325MOL0     C42775   3.090   7.597   6.610 -0.1696 -0.6068  0.1830
  325MOL0     O42776   2.961   7.573   6.590  0.0414 -0.5032 -0.2888
  325MOL0     C42777   2.939   7.449   6.521 -0.5869 -0.8502  0.1186
  325MOL0     C42778   2.857   7.461   6.394 -0.4684  1.3315 -0.5673
  325MOL0     C42779   2.730   7.541   6.408 -0.0138  0.4216 -0.1543
  325MOL0     C42780   2.657   7.511   6.277  0.5718 -0.5311 -0.3443
  325MOL0     C42781   2.530   7.602   6.262  0.3218 -0.5198  0.2018
  325MOL0     C42782   2.422   7.610   6.377  0.6940  0.0143  0.6293
  325MOL0     C42783   2.357   7.477   6.408 -0.1616  0.2866 -0.3826
  325MOL0     C42784   2.308   7.402   6.282  1.0312  0.4836  0.5465
  325MOL0     N42785   2.206   7.481   6.211  0.2828  0.5366  0.1646
  325MOL0     C42786   2.085   7.514   6.259 -0.6382  0.0238 -0.1118
  325MOL0     C42787   2.018   7.566   6.151  0.0974 -0.5212  0.4067
  325MOL0     C42788   1.890   7.645   6.166 -1.0070  0.0107 -0.5142
  325MOL0     C42789   1.780   7.566   6.098  0.1774 -0.5522 -0.7568
  325MOL0     C42790   1.773   7.622   5.956 -0.4431  0.3217  0.1276
  325MOL0     C42791   1.744   7.510   5.860  0.0375 -0.0715 -0.6232
  325MOL0     O42792   1.651   7.420   5.920  0.0990  0.6011 -0.6037
  325MOL0     C42793   1.517   7.448   5.905 -0.4552  0.3053  0.2777
  325MOL0     C42794   1.456   7.570   5.887  0.0282  0.2689 -0.3538
  325MOL0     C42795   1.315   7.578   5.895 -0.9800 -0.2675  0.6262
  325MOL0     C42796   1.235   7.464   5.884  0.1481 -0.0194  0.3408
  325MOL0     C42797   1.085   7.485   5.886  0.0536 -0.0578 -0.2793
  325MOL0     O42798   1.016   7.372   5.902 -0.4869  0.3739 -0.5694
  325MOL0     C42799   0.883   7.380   5.922 -0.8512  0.5875  0.3400
  325MOL0     C42800   0.821   7.346   6.042  0.2748  0.0250  0.3392
  325MOL0     C42801   0.680   7.341   6.037 -0.1256  0.3497  0.0204
  325MOL0     C42802   0.603   7.360   5.924 -1.1447  0.3186 -0.2406
  325MOL0     O42803   0.463   7.341   5.914  0.2101  0.0328 -0.2510
  325MOL0     C42804   0.389   7.374   6.034  0.8233 -0.3287 -0.4350
  325MOL0     C42805   0.241   7.400   6.001 -0.0502  0.2065 -0.8082
  325MOL0     C42806   0.170   7.267   5.965 -0.5316  0.8083 -0.3162
  325MOL0     C42807   0.032   7.301   5.908  0.6241 -0.4192 -0.5347
  325MOL0     C42808  -0.065   7.190   5.909  0.3714  0.1843 -0.0007
  325MOL0     C42809  -0.195   7.211   5.841 -1.0657  0.0522 -0.3347
  325MOL0     C42810  -0.270   7.337   5.893  0.0075 -0.4699 -0.3972
  325MOL0     C42811  -0.398   7.358   5.822  0.2041  0.7547  1.0700
  325MOL0    Cl42812  -0.526   7.226   5.847  0.1100 -0.0189 -0.1689
  325MOL0     C42813   0.668   7.400   5.805  0.1480  0.2133 -0.4776
  325MOL0     C42814   0.811   7.407   5.805 -0.0091  0.3011 -0.6962
  325MOL0     O42815   1.034   7.599   5.877  0.3873 -0.2671 -0.5373
  325MOL0     C42816   1.296   7.339   5.886 -0.3402  0.3622  0.6261
  325MOL0     C42817   1.430   7.334   5.905  0.5443 -0.4381 -0.4656
  325MOL0     N42818   2.101   7.567   6.049  0.6689  0.8917  0.7927
  325MOL0     N42819   2.218   7.524   6.084 -0.1826 -0.1304 -0.3937
  325MOL0     C42820   3.185   7.619   6.509  0.5184 -0.3727  0.0202
  325MOL0     C42821   3.325   7.618   6.529  0.4548 -0.5608  0.3322
  325MOL0     C42822   3.735   7.548   6.644  0.7662 -0.2664 -0.3624
  325MOL0     C42823   3.832   7.474   6.586 -0.7776 -0.2913  0.3833
  325MOL0     C42824   3.969   7.489   6.614  0.1939  0.6389 -0.4781
  325MOL0     C42825   4.013   7.583   6.711  0.3794  0.5317 -0.2159
  325MOL0     O42826   4.148   7.606   6.751 -0.2136 -0.3941  0.7215
  325MOL0     C42827   4.244   7.499   6.719 -0.6466 -0.0139  0.5727
  325MOL0     C42828   4.301   7.532   6.581  0.3211  0.2512  1.1140
  325MOL0     C42829   4.433   7.455   6.535 -0.2825 -0.7568 -0.2733
  325MOL0     C42830   4.473   7.464   6.386  0.3613 -0.3804  0.1667
  325MOL0     C42831   4.359   7.410   6.294  0.2949  0.2154  0.1873
  325MOL0     C42832   4.265   7.369   6.230  0.4112  0.3157 -0.7321
  325MOL0     C42833   3.916   7.650   6.779 -0.0051 -0.5227  0.3005
  325MOL0     C42834   3.779   7.639   6.742  0.1587  0.5912 -0.3843
  325MOL0     H42835   3.316   7.583   6.864  3.1955  0.1876 -1.0760
  325MOL0     H42836   3.074   7.570   6.818  1.0394 -2.0607  0.3835
  325MOL0     H42837   2.874   7.393   6.589 -0.0536 -0.6763  0.7832
  325MOL0     H42838   3.031   7.398   6.492 -1.2434 -0.9030 -1.9976
  325MOL0     H42839   2.828   7.358   6.372 -0.6395  0.7009  2.1877
  325MOL0     H42840   2.922   7.496   6.313  1.2475  2.2746  1.1244
  325MOL0     H42841   2.762   7.645   6.409 -0.4277  0.5893 -1.5564
  325MOL0     H42842   2.676   7.520   6.500  0.0345 -0.3484 -0.2950
  325MOL0     H42843   2.728   7.531   6.196 -0.8372  1.6250 -1.1255
  325MOL0     H42844   2.629   7.407   6.259 -0.3332 -0.5440  0.9939
  325MOL0     H42845   2.478   7.586   6.168  2.1057  1.5394 -1.2543
  325MOL0     H42846   2.560   7.707   6.252  1.2464 -0.9255 -1.9299
  325MOL0     H42847   2.341   7.678   6.347 -0.3234 -0.3474  2.4413
  325MOL0     H42848   2.479   7.651   6.461  2.3411  1.6976 -1.1609
  325MOL0     H42849   2.429   7.407   6.451  0.3580  0.4962 -0.8996
  325MOL0     H42850   2.275   7.500   6.476  0.2246 -0.6810  0.4375
  325MOL0     H42851   2.246   7.320   6.321 -0.3793  1.2315 -0.0374
  325MOL0     H42852   2.398   7.374   6.227  0.3825  1.1373 -0.9082
  325MOL0     H42853   2.068   7.511   6.366  0.1054  0.4543  0.0281
  325MOL0     H42854   1.902   7.742   6.117 -0.0012 -0.3255 -0.9631
  325MOL0     H42855   1.876   7.655   6.274  2.0444 -1.2375  0.1121
  325MOL0     H42856   1.683   7.589   6.142  0.4017  1.7708 -1.3882
  325MOL0     H42857   1.798   7.458   6.101 -0.0084 -0.5749 -0.3800
  325MOL0     H42858   1.689   7.692   5.953 -1.3350 -0.7482 -1.2069
  325MOL0     H42859   1.864   7.673   5.921  1.1843 -2.7673 -0.4682
  325MOL0     H42860   1.838   7.454   5.853  1.8786  2.4646  1.3318
  325MOL0     H42861   1.697   7.549   5.770 -2.9761 -2.8390 -0.3970
  325MOL0     H42862   1.517   7.658   5.870  0.7360  0.1456  1.3622
  325MOL0     H42863   1.279   7.680   5.897  2.2720  1.0480  3.7065
  325MOL0     H42864   0.886   7.326   6.126  1.2214  1.0989 -0.1011
  325MOL0     H42865   0.630   7.320   6.130  2.0134 -0.3245  1.0806
  325MOL0     H42866   0.420   7.471   6.073 -0.6573  0.7223 -1.7066
  325MOL0     H42867   0.395   7.292   6.107  2.5881  1.4805  1.5776
  325MOL0     H42868   0.220   7.473   5.923 -0.0579  2.2521  1.0125
  325MOL0     H42869   0.189   7.440   6.089 -1.5392 -3.0610 -0.0341
  325MOL0     H42870   0.158   7.201   6.051  1.3484  0.0883 -0.5540
  325MOL0     H42871   0.236   7.218   5.892 -0.6970  1.3975 -0.8677
  325MOL0     H42872  -0.014   7.377   5.972  1.0785 -0.2746 -0.3745
  325MOL0     H42873   0.049   7.350   5.812  2.1880 -0.1917 -0.1702
  325MOL0     H42874  -0.078   7.158   6.013  1.5573 -0.1905  0.0457
  325MOL0     H42875  -0.014   7.104   5.864 -0.2729 -0.1239 -0.1678
  325MOL0     H42876  -0.262   7.126   5.849 -0.8307 -0.5997 -3.6418
  325MOL0     H42877  -0.166   7.221   5.736  1.1465 -0.7331  0.1362
  325MOL0     H42878  -0.297   7.333   5.999  0.3508  0.9924 -0.2396
  325MOL0     H42879  -0.201   7.416   5.862  1.9241 -1.2172  1.6377
  325MOL0     H42880  -0.377   7.371   5.715  2.6426  0.3377  1.4373
  325MOL0     H42881  -0.430   7.455   5.861 -2.0364  0.2085  0.7093
  325MOL0     H42882   0.606   7.419   5.718 -2.2520 -1.5952  0.7208
  325MOL0     H42883   0.873   7.438   5.721 -0.3565 -0.6532 -1.3224
  325MOL0     H42884   1.232   7.252   5.884  0.9403 -0.7897  3.7193
  325MOL0     H42885   1.458   7.230   5.898 -1.6316 -1.0329 -1.0574
  325MOL0     H42886   3.142   7.648   6.413 -0.3709  3.6577  1.4195
  325MOL0     H42887   3.396   7.620   6.447 -0.0802  0.7764 -0.1174
  325MOL0     H42888   3.813   7.392   6.518 -2.4969 -0.6819  1.2821
  325MOL0     H42889   4.039   7.430   6.555  0.3001  1.6415 -1.4044
  325MOL0     H42890   4.206   7.397   6.713 -0.7888  0.0658  0.0142
  325MOL0     H42891   4.323   7.494   6.794  0.7114 -3.2089 -0.8807
  325MOL0     H42892   4.232   7.513   6.498  0.9318  0.2374  0.5998
  325MOL0     H42893   4.322   7.638   6.565  1.7569 -0.4614 -2.6841
  325MOL0     H42894   4.411   7.350   6.557  2.9974 -1.6662 -0.8452
  325MOL0     H42895   4.523   7.478   6.592 -0.9531 -1.2052  1.0155
  325MOL0     H42896   4.508   7.560   6.345  0.5908 -2.2054 -4.6436
  325MOL0     H42897   4.558   7.397   6.372  0.4946  0.2559 -2.9418
  325MOL0     H42898   4.175   7.344   6.177  0.0899 -0.5068  0.1760
  325MOL0     H42899   3.943   7.731   6.846  2.3657 -0.3910 -0.7178
  325MOL0     H42900   3.697   7.693   6.788 -1.8450 -1.9857 -0.6926
  326MOL0     O42901   5.346   9.674   3.806 -0.0946  0.2398  0.4044
  326MOL0     C42902   5.438   9.594   3.835 -0.2699  0.2872 -0.5260
  326MOL0     O42903   5.426   9.489   3.922  0.0401 -0.3426  0.2109
  326MOL0     C42904   5.296   9.457   3.967 -0.5244 -0.1899 -0.0371
  326MOL0     C42905   5.224   9.543   4.054  0.4591  0.0279 -0.2114
  326MOL0     C42906   5.092   9.517   4.088  0.5628  0.1652  0.2258
  326MOL0     C42907   5.023   9.407   4.041 -0.1314 -0.1945 -0.0032
  326MOL0     O42908   4.882   9.412   4.055  0.5228  0.0692 -0.5068
  326MOL0     C42909   4.802   9.301   4.032 -0.3748  0.8978 -0.1457
  326MOL0     C42910   4.663   9.315   4.088  0.3582 -0.7815 -0.6384
  326MOL0     C42911   4.571   9.191   4.052 -0.0262  0.1193 -0.5363
  326MOL0     C42912   4.439   9.189   4.133 -0.1124  0.0342  0.9171
  326MOL0     C42913   4.341   9.273   4.053  0.2113  1.5180 -0.2066
  326MOL0     C42914   4.202   9.254   4.130 -0.9769 -0.0359  1.0943
  326MOL0     C42915   4.176   9.370   4.233  0.2418 -0.2183 -0.1479
  326MOL0     C42916   4.044   9.348   4.308  0.2274  0.5511 -0.1776
  326MOL0     N42917   3.933   9.350   4.218 -0.3325  0.4882  0.0309
  326MOL0     C42918   3.912   9.444   4.124 -0.2842  0.1331  0.7997
  326MOL0     C42919   3.802   9.396   4.058 -0.0907  0.3895  0.3998
  326MOL0     C42920   3.737   9.463   3.946 -0.2386 -0.7025  0.2814
  326MOL0     C42921   3.774   9.414   3.808 -0.6932  0.1536  0.4798
  326MOL0     C42922   3.709   9.282   3.769  0.1844  0.5365 -0.3828
  326MOL0     C42923   3.747   9.227   3.635  0.7301  0.0761  0.0388
  326MOL0     O42924   3.882   9.276   3.597 -0.0265  0.6058 -0.3497
  326MOL0     C42925   3.979   9.184   3.609 -0.0551 -0.3960 -0.3653
  326MOL0     C42926   4.013   9.090   3.506  1.5041 -0.3499 -0.4289
  326MOL0     C42927   4.112   9.000   3.526  0.5171 -0.0492  0.4114
  326MOL0     C42928   4.195   9.002   3.641  0.1268 -0.0074 -0.4234
  326MOL0     C42929   4.305   8.900   3.654 -0.1220  0.0328  0.7734
  326MOL0     O42930   4.396   8.921   3.754 -0.5204  0.1119  0.2477
  326MOL0     C42931   4.518   8.867   3.729  0.4016  1.6136 -0.4694
  326MOL0     C42932   4.595   8.888   3.613  0.0666  0.5689 -0.5233
  326MOL0     C42933   4.714   8.827   3.594 -0.0327  0.3334 -0.6578
  326MOL0     C42934   4.759   8.729   3.688 -0.2786 -0.8446 -0.0958
  326MOL0     O42935   4.888   8.690   3.674  0.6746 -0.0961 -0.3126
  326MOL0     C42936   4.926   8.561   3.717 -0.2092  0.0079  0.3256
  326MOL0     C42937   5.035   8.514   3.613  0.4078  1.0889  0.4090
  326MOL0     C42938   5.165   8.594   3.635 -0.1116 -0.1667  0.9163
  326MOL0     C42939   5.261   8.559   3.526  0.0419  0.2604  0.2651
  326MOL0     C42940   5.412   8.578   3.565  0.5815  0.1478  0.7811
  326MOL0     C42941   5.523   8.538   3.469  0.2911  0.3154 -0.3638
  326MOL0     C42942   5.664   8.524   3.530 -0.5104 -0.0916  0.3058
  326MOL0     C42943   5.767   8.485   3.431 -1.5669  0.9897  0.9749
  326MOL0    Cl42944   5.932   8.511   3.488  0.0908 -0.3052  0.1545
  326MOL0     C42945   4.686   8.697   3.801 -0.8827 -1.0593 -0.1967
  326MOL0     C42946   4.563   8.770   3.820  0.6774  0.7792 -0.5877
  326MOL0     O42947   4.323   8.836   3.547  0.0218  0.5414 -0.0347
  326MOL0     C42948   4.160   9.092   3.748 -0.1975  0.9246  0.2035
  326MOL0     C42949   4.058   9.186   3.730  0.2179 -0.1213 -0.0926
  326MOL0     N42950   3.771   9.272   4.106  0.0833 -0.3494  0.1493
  326MOL0     N42951   3.842   9.249   4.208  0.1548  0.0095  0.5506
  326MOL0     C42952   5.099   9.311   3.971  1.7669  0.0124 -0.2434
  326MOL0     C42953   5.232   9.336   3.938 -0.0897  0.6346 -0.2879
  326MOL0     C42954   5.578   9.629   3.783  0.3354 -0.3473  1.4825
  326MOL0     C42955   5.686   9.540   3.766 -0.3622 -0.6823  0.3538
  326MOL0     C42956   5.799   9.587   3.699 -0.0631  0.0821  0.4314
  326MOL0     C42957   5.821   9.718   3.659  0.4697 -0.6487 -0.1909
  326MOL0     O42958   5.931   9.743   3.591 -0.3418 -0.5205  0.6321
  326MOL0     C42959   5.970   9.877   3.586  0.0895 -0.0223  0.1897
  326MOL0     C42960   6.085   9.884   3.486 -0.8164  0.4127  0.3041
  326MOL0     C42961   6.217   9.899   3.560 -0.2203 -0.0824  0.5482
  326MOL0     C42962   6.261   9.754   3.609  0.4885  0.5172 -0.0679
  326MOL0     C42963   6.262   9.655   3.500 -0.2408 -0.4023  0.8149
  326MOL0     C42964   6.264   9.581   3.403 -0.4517 -0.6680  0.2276
  326MOL0     C42965   5.718   9.813   3.691  0.1498  0.5026  0.8011
  326MOL0     C42966   5.597   9.766   3.746 -0.7670 -0.2955 -0.1467
  326MOL0     H42967   5.269   9.637   4.084 -1.1626  0.9751 -0.6693
  326MOL0     H42968   5.037   9.590   4.146  0.2863 -0.3108  0.5793
  326MOL0     H42969   4.848   9.208   4.066  0.3741  0.4048 -2.3373
  326MOL0     H42970   4.797   9.291   3.923  3.8552  1.8608 -0.6096
  326MOL0     H42971   4.619   9.409   4.052  1.0514  0.0834  0.6956
  326MOL0     H42972   4.680   9.317   4.196 -0.1569  1.9995 -0.5234
  326MOL0     H42973   4.636   9.104   4.067  0.1892  0.5045  0.9235
  326MOL0     H42974   4.549   9.193   3.945 -0.4487 -0.1738 -0.4595
  326MOL0     H42975   4.399   9.087   4.143  2.4016 -0.9635  1.7557
  326MOL0     H42976   4.454   9.230   4.234 -2.6655  0.8877  1.0228
  326MOL0     H42977   4.336   9.242   3.948 -0.4087 -0.0677  0.2536
  326MOL0     H42978   4.371   9.378   4.057  2.2416  1.0487 -1.6513
  326MOL0     H42979   4.190   9.154   4.174  1.2450 -0.4962  0.8119
  326MOL0     H42980   4.127   9.255   4.051 -0.1248  2.4970  0.2425
  326MOL0     H42981   4.264   9.369   4.298  0.5172 -2.2701 -0.4788
  326MOL0     H42982   4.177   9.465   4.179  0.6259  0.3401  0.8177
  326MOL0     H42983   4.026   9.425   4.383  0.6526 -0.2817  0.8032
  326MOL0     H42984   4.039   9.248   4.353 -2.3679  1.2353  1.2029
  326MOL0     H42985   3.953   9.545   4.121 -1.8985  0.8319  0.9002
  326MOL0     H42986   3.765   9.569   3.950 -0.2273 -0.7248  3.2458
  326MOL0     H42987   3.631   9.444   3.970  0.1365 -2.5981  0.5592
  326MOL0     H42988   3.883   9.409   3.799 -0.6814  0.1621  0.6200
  326MOL0     H42989   3.737   9.490   3.739  0.0753 -2.0092 -2.5200
  326MOL0     H42990   3.726   9.204   3.844 -2.1685 -0.5144 -0.8522
  326MOL0     H42991   3.600   9.280   3.766  0.1519 -2.1618 -0.4298
  326MOL0     H42992   3.674   9.256   3.558  1.8651  2.2647 -0.3015
  326MOL0     H42993   3.755   9.118   3.630 -1.1066 -0.0362 -2.7401
  326MOL0     H42994   3.955   9.103   3.415  2.1391  1.7552 -0.5654
  326MOL0     H42995   4.133   8.931   3.444 -0.7207 -0.3869  0.3553
  326MOL0     H42996   4.556   8.958   3.540 -0.8706 -0.9346 -1.5150
  326MOL0     H42997   4.785   8.855   3.517 -1.0536 -1.7321 -2.4450
  326MOL0     H42998   4.839   8.496   3.708 -0.3600 -0.1982  2.7912
  326MOL0     H42999   4.962   8.560   3.820 -3.3834  2.3256  1.5864
  326MOL0     H43000   5.006   8.526   3.508  2.5665 -1.5112 -0.6085
  326MOL0     H43001   5.058   8.408   3.623 -3.0055  0.4229  2.6764
  326MOL0     H43002   5.195   8.567   3.736  0.6406  0.6345  0.9235
  326MOL0     H43003   5.150   8.702   3.621  1.1600 -0.1461 -0.6086
  326MOL0     H43004   5.260   8.451   3.507  0.5696 -0.0072  1.6070
  326MOL0     H43005   5.237   8.607   3.431 -0.9903 -0.7255  0.0025
  326MOL0     H43006   5.439   8.548   3.666 -2.2742  1.9156  2.1983
  326MOL0     H43007   5.414   8.687   3.579  1.3526  0.2779 -0.2011
  326MOL0     H43008   5.528   8.608   3.385 -0.7228  0.2477 -0.4908
  326MOL0     H43009   5.482   8.443   3.433 -2.0527  1.2148 -0.2242
  326MOL0     H43010   5.698   8.608   3.591  1.4643 -1.8180  1.7465
  326MOL0     H43011   5.666   8.445   3.606  0.9755 -2.5026 -2.0684
  326MOL0     H43012   5.760   8.545   3.340  1.6425  2.4798  1.6050
  326MOL0     H43013   5.749   8.382   3.400  0.0679  0.0713  2.8699
  326MOL0     H43014   4.721   8.625   3.875  0.2975 -0.9819 -0.6762
  326MOL0     H43015   4.510   8.739   3.910  1.0850 -0.9248 -0.9195
  326MOL0     H43016   4.215   9.096   3.842  1.9153  0.9114 -0.9844
  326MOL0     H43017   4.042   9.266   3.802  0.1856 -0.3111  0.1117
  326MOL0     H43018   5.055   9.214   3.954  1.2251 -0.1291  1.7091
  326MOL0     H43019   5.283   9.259   3.881 -0.8654  0.0515 -0.1971
  326MOL0     H43020   5.669   9.436   3.792 -0.9997 -0.2097  2.0034
  326MOL0     H43021   5.876   9.514   3.677  0.9039  1.1879  0.0697
  326MOL0     H43022   5.999   9.913   3.685  0.3951 -0.2552  0.1880
  326MOL0     H43023   5.882   9.927   3.545 -0.9901 -0.8199  1.4814
  326MOL0     H43024   6.080   9.813   3.403  1.8921  0.8223 -0.3073
  326MOL0     H43025   6.061   9.982   3.443 -0.6128 -0.7363 -2.6695
  326MOL0     H43026   6.211   9.970   3.643  3.6635 -0.4826  1.3859
  326MOL0     H43027   6.289   9.939   3.489 -1.1868 -0.9483 -0.9746
  326MOL0     H43028   6.358   9.740   3.658  0.2321 -0.0105  0.3005
  326MOL0     H43029   6.201   9.701   3.684  0.7570  0.6932  0.2756
  326MOL0     H43030   6.264   9.531   3.308  1.8212  1.1679 -0.8345
  326MOL0     H43031   5.712   9.916   3.657  0.9542  0.4476  0.4636
  326MOL0     H43032   5.525   9.840   3.780 -0.2065  0.7884 -1.2583
  327MOL0     O43033   6.819   3.976   7.422  0.0881 -0.0749 -0.7944
  327MOL0     C43034   6.848   3.982   7.539  0.2722  0.2922 -0.3982
  327MOL0     O43035   6.766   3.985   7.649 -0.3779 -0.5597  0.5884
  327MOL0     C43036   6.635   3.993   7.609 -1.4903  0.3410 -0.6913
  327MOL0     C43037   6.575   4.114   7.575  0.3111 -0.3465 -0.4130
  327MOL0     C43038   6.433   4.121   7.553  0.7628 -0.1925  0.5048
  327MOL0     C43039   6.352   4.003   7.555 -0.5508 -0.2624 -0.3447
  327MOL0     O43040   6.223   3.997   7.508  0.5066 -0.4400  0.5829
  327MOL0     C43041   6.129   3.921   7.581  0.3107  0.2313 -0.3194
  327MOL0     C43042   5.989   3.987   7.548  0.1671 -1.7707 -0.0768
  327MOL0     C43043   5.885   3.935   7.639  0.1596  0.2515  0.2149
  327MOL0     C43044   5.748   4.003   7.594 -0.7687 -0.0652 -0.1725
  327MOL0     C43045   5.619   3.974   7.682  0.6029  0.3045 -0.4097
  327MOL0     C43046   5.482   4.034   7.633 -0.5762  0.4085 -0.2496
  327MOL0     C43047   5.441   3.983   7.488  0.2322  0.3984  0.2108
  327MOL0     C43048   5.301   4.033   7.455 -0.0583  0.1249  0.0001
  327MOL0     N43049   5.243   3.981   7.324  0.2482  0.1694 -0.5290
  327MOL0     C43050   5.117   3.930   7.326 -0.2385 -0.7147  0.7701
  327MOL0     C43051   5.101   3.862   7.211  0.0439  0.6328 -0.0955
  327MOL0     C43052   4.975   3.779   7.184  0.6442 -0.3687  1.0548
  327MOL0     C43053   4.978   3.631   7.227 -0.6611 -0.0917 -0.1123
  327MOL0     C43054   4.969   3.622   7.380  0.3008 -0.4106 -0.6429
  327MOL0     C43055   4.878   3.507   7.426 -0.1801 -0.4837 -0.3643
  327MOL0     O43056   4.759   3.493   7.345  0.0742 -0.3915  0.6658
  327MOL0     C43057   4.640   3.473   7.406 -0.5634  0.9803 -0.0970
  327MOL0     C43058   4.536   3.401   7.342 -0.5917  0.2776  0.1078
  327MOL0     C43059   4.411   3.388   7.400  0.2749 -0.3717 -0.1948
  327MOL0     C43060   4.388   3.434   7.528  0.0728  0.3248 -0.9953
  327MOL0     C43061   4.256   3.418   7.585  0.9623 -0.1550  0.9415
  327MOL0     O43062   4.167   3.353   7.502  0.0079 -0.2544 -0.0508
  327MOL0     C43063   4.034   3.361   7.534 -0.1008 -0.0429 -0.1519
  327MOL0     C43064   3.969   3.482   7.557  0.0173 -0.0103 -0.4360
  327MOL0     C43065   3.829   3.489   7.570  0.6787 -0.5350 -0.2429
  327MOL0     C43066   3.758   3.369   7.583  0.7843  0.3703 -0.3206
  327MOL0     O43067   3.624   3.370   7.572  0.0034 -0.4957  0.7910
  327MOL0     C43068   3.557   3.318   7.680 -0.0840  0.4223 -0.5151
  327MOL0     C43069   3.560   3.415   7.804  0.1043  0.2409 -0.7995
  327MOL0     C43070   3.450   3.359   7.903  0.6111 -0.9653 -0.2999
  327MOL0     C43071   3.485   3.384   8.057  0.1826 -0.0893  0.0758
  327MOL0     C43072   3.355   3.379   8.157 -0.4972  0.4701 -0.0241
  327MOL0     C43073   3.254   3.264   8.128 -0.1175 -0.3647 -0.5657
  327MOL0     C43074   3.126   3.271   8.198  1.0613  0.2931 -0.4695
  327MOL0     C43075   3.034   3.386   8.145 -0.0300 -0.0578  0.6167
  327MOL0    Cl43076   2.860   3.350   8.199 -0.3329 -0.1627  0.1499
  327MOL0     C43077   3.822   3.243   7.565  0.1982 -0.1983 -0.0540
  327MOL0     C43078   3.962   3.243   7.535  0.3490 -0.4311 -0.5163
  327MOL0     O43079   4.221   3.464   7.696 -0.7494 -0.1898 -0.1070
  327MOL0     C43080   4.492   3.499   7.600  0.0539 -0.4554  0.6550
  327MOL0     C43081   4.611   3.514   7.538 -0.3721 -0.9569 -0.0997
  327MOL0     N43082   5.214   3.875   7.129 -0.4827  0.1889 -0.9763
  327MOL0     N43083   5.299   3.950   7.198  1.1097 -0.9791  0.6058
  327MOL0     C43084   6.420   3.889   7.570 -0.2757  0.6832 -0.2006
  327MOL0     C43085   6.557   3.874   7.611 -0.0996  0.4740  0.0290
  327MOL0     C43086   6.992   3.963   7.571  0.5712  0.8122  0.4290
  327MOL0     C43087   7.089   3.923   7.478  0.3857  0.2153 -0.8608
  327MOL0     C43088   7.225   3.908   7.514 -0.9930  0.1514 -0.1978
  327MOL0     C43089   7.268   3.942   7.647 -0.1478 -0.5512 -0.2370
  327MOL0     O43090   7.400   3.933   7.675  0.4034  0.0150  0.7206
  327MOL0     C43091   7.433   3.891   7.809  0.6031  0.2198  0.2478
  327MOL0     C43092   7.484   4.007   7.890 -0.1271 -0.5221 -0.6631
  327MOL0     C43093   7.549   3.968   8.028 -0.9424 -0.9790 -0.1773
  327MOL0     C43094   7.607   4.084   8.106  0.2716  0.1270 -0.7225
  327MOL0     C43095   7.629   4.058   8.251 -0.1127  0.0725 -0.0666
  327MOL0     C43096   7.634   4.026   8.373  0.2267 -0.0351  0.1764
  327MOL0     C43097   7.165   3.962   7.742 -0.7063 -0.9176  0.0127
  327MOL0     C43098   7.031   3.989   7.702 -0.2217  1.3423 -0.2944
  327MOL0     H43099   6.639   4.200   7.563  0.0388 -0.3758 -2.3116
  327MOL0     H43100   6.387   4.217   7.529  1.8868 -0.5002 -3.6590
  327MOL0     H43101   6.148   3.927   7.688  0.9178  0.2255 -0.4200
  327MOL0     H43102   6.138   3.817   7.550  1.8317  0.3165 -0.2487
  327MOL0     H43103   5.964   3.975   7.442 -0.1922  1.2542 -0.4285
  327MOL0     H43104   6.000   4.096   7.555 -0.0885 -1.4317 -3.2910
  327MOL0     H43105   5.906   3.969   7.741 -1.1836 -0.2018  0.6647
  327MOL0     H43106   5.874   3.827   7.624  0.1881 -0.1454  2.6407
  327MOL0     H43107   5.778   4.108   7.604  3.0039 -0.9128 -0.8755
  327MOL0     H43108   5.721   3.997   7.488  1.0585  1.4881 -0.7995
  327MOL0     H43109   5.632   4.010   7.784 -0.0527  2.5176 -1.0560
  327MOL0     H43110   5.599   3.866   7.680  0.5110  0.3231 -1.3167
  327MOL0     H43111   5.477   4.143   7.643 -0.6850  0.6038 -2.0840
  327MOL0     H43112   5.400   3.999   7.696 -1.8314  0.6160 -1.6906
  327MOL0     H43113   5.508   4.007   7.405  1.6408 -1.9432  0.5450
  327MOL0     H43114   5.439   3.874   7.476  4.0043  0.1171  0.9014
  327MOL0     H43115   5.312   4.142   7.449  3.7757  0.0320  1.9504
  327MOL0     H43116   5.230   3.999   7.532 -0.7450 -1.6740 -1.3557
  327MOL0     H43117   5.031   3.953   7.388 -1.2337 -1.5237 -0.2817
  327MOL0     H43118   4.961   3.780   7.075 -0.5620  1.5152  1.1798
  327MOL0     H43119   4.880   3.816   7.225 -0.4576 -1.1123 -0.6848
  327MOL0     H43120   5.069   3.580   7.194  0.8172  1.6628  1.0136
  327MOL0     H43121   4.891   3.592   7.174 -1.2610 -1.2668  1.6428
  327MOL0     H43122   5.065   3.620   7.431 -0.7245 -1.2294  1.3520
  327MOL0     H43123   4.920   3.717   7.402  3.4747  1.8748 -2.6007
  327MOL0     H43124   4.851   3.522   7.530 -1.5887  0.4980 -0.8438
  327MOL0     H43125   4.931   3.411   7.421 -1.2593 -1.0507 -3.5324
  327MOL0     H43126   4.545   3.359   7.242  1.8991 -2.1312  1.2049
  327MOL0     H43127   4.332   3.343   7.340  0.6598 -1.4250  0.0754
  327MOL0     H43128   4.028   3.572   7.567 -0.3075  0.1973 -0.3907
  327MOL0     H43129   3.782   3.584   7.591  0.0315 -1.1693  1.3320
  327MOL0     H43130   3.610   3.225   7.700 -2.1260 -0.2940  2.0422
  327MOL0     H43131   3.456   3.284   7.656  0.8330 -2.8674 -0.1875
  327MOL0     H43132   3.537   3.516   7.770  0.3068  0.0028 -1.6857
  327MOL0     H43133   3.663   3.403   7.838  1.1845  1.2776 -3.3982
  327MOL0     H43134   3.418   3.258   7.875  0.1957 -0.5416 -1.4177
  327MOL0     H43135   3.358   3.414   7.881 -0.1738 -1.7291  0.9605
  327MOL0     H43136   3.534   3.292   8.089 -1.0158 -0.3978  1.1279
  327MOL0     H43137   3.546   3.473   8.078  0.9004 -0.3854 -0.7307
  327MOL0     H43138   3.295   3.470   8.153  1.4306  1.9376  1.9359
  327MOL0     H43139   3.391   3.361   8.259  2.0666  1.0052 -0.7572
  327MOL0     H43140   3.300   3.170   8.159  0.3643  0.7199  2.3638
  327MOL0     H43141   3.240   3.258   8.020 -2.1947  0.3237 -0.3827
  327MOL0     H43142   3.080   3.175   8.171  2.3162 -0.1976 -0.9586
  327MOL0     H43143   3.132   3.284   8.306  0.5435  1.2053 -0.5419
  327MOL0     H43144   3.045   3.391   8.037  2.3652  0.8562  0.8385
  327MOL0     H43145   3.076   3.478   8.187  0.2472  0.7456 -1.3270
  327MOL0     H43146   3.765   3.153   7.550  2.1045 -1.2476 -1.5301
  327MOL0     H43147   3.998   3.143   7.514  0.2734 -1.1406  2.3735
  327MOL0     H43148   4.457   3.534   7.697 -2.8042  0.5096 -0.6127
  327MOL0     H43149   4.675   3.573   7.603 -3.6737  1.7684  0.9567
  327MOL0     H43150   6.365   3.798   7.554 -1.0877  1.7712 -5.0942
  327MOL0     H43151   6.590   3.771   7.616  0.7619  0.6107 -1.7265
  327MOL0     H43152   7.071   3.897   7.375 -1.0426 -2.9686  0.0480
  327MOL0     H43153   7.300   3.876   7.442 -0.2445 -0.2440  0.7326
  327MOL0     H43154   7.524   3.830   7.801  1.4503  1.5277 -0.5304
  327MOL0     H43155   7.354   3.839   7.864 -0.6421  2.8078  1.0487
  327MOL0     H43156   7.557   4.055   7.824 -0.7907 -1.4079 -2.0932
  327MOL0     H43157   7.405   4.083   7.899  0.3429 -0.0425 -0.5142
  327MOL0     H43158   7.630   3.900   7.999 -0.8799 -0.6913 -0.6705
  327MOL0     H43159   7.475   3.917   8.092  0.1662 -1.4675  0.7688
  327MOL0     H43160   7.704   4.124   8.075  1.0423  0.9817  2.3857
  327MOL0     H43161   7.535   4.166   8.105  1.3217  1.2301  2.3651
  327MOL0     H43162   7.649   3.990   8.473 -1.5599  0.0891  0.5214
  327MOL0     H43163   7.183   3.977   7.848  2.1658  3.2099 -0.8270
  327MOL0     H43164   6.966   4.006   7.788  0.8814 -1.3281  1.1897
  328MOL0     O43165   3.553   0.434   5.993 -0.3114  0.1582  0.0874
  328MOL0     C43166   3.572   0.377   6.098  0.3797  0.8087  0.6450
  328MOL0     O43167   3.477   0.314   6.180 -0.5136 -0.1874 -0.1950
  328MOL0     C43168   3.340   0.301   6.134 -0.0349  0.7478 -0.6950
  328MOL0     C43169   3.294   0.324   6.001  1.4696 -0.2274 -0.8231
  328MOL0     C43170   3.155   0.316   5.964 -1.1560  0.7706 -0.3150
  328MOL0     C43171   3.067   0.264   6.064 -1.0977 -0.7428  0.6269
  328MOL0     O43172   2.932   0.240   6.041  0.0750 -0.1391 -0.1376
  328MOL0     C43173   2.867   0.322   5.949  0.0096  0.0260  0.1015
  328MOL0     C43174   2.719   0.303   5.970  0.3486  0.0828 -0.1410
  328MOL0     C43175   2.648   0.343   5.841  0.1404  0.0992  0.0037
  328MOL0     C43176   2.510   0.279   5.845  0.4302 -0.0606  0.1266
  328MOL0     C43177   2.431   0.329   5.724  0.5193 -0.1588 -0.0712
  328MOL0     C43178   2.297   0.259   5.701  0.7067  1.0077  0.2574
  328MOL0     C43179   2.205   0.241   5.831 -0.0391  0.3577  1.0478
  328MOL0     C43180   2.172   0.379   5.895 -0.0563  0.6559  0.7230
  328MOL0     N43181   2.106   0.470   5.798  0.2524 -0.1570 -0.1681
  328MOL0     C43182   2.108   0.605   5.787  0.2919  0.4248  0.5893
  328MOL0     C43183   2.011   0.634   5.693 -0.6386 -0.4907 -0.4155
  328MOL0     C43184   1.956   0.761   5.633 -1.3363 -0.0167  0.3316
  328MOL0     C43185   1.809   0.783   5.693 -0.4557 -0.1591  0.4069
  328MOL0     C43186   1.760   0.919   5.664 -0.3441 -0.0878 -0.5242
  328MOL0     C43187   1.732   0.953   5.511  0.5169  0.6602  0.2936
  328MOL0     O43188   1.729   1.099   5.500 -1.1702 -0.1329  0.2076
  328MOL0     C43189   1.710   1.148   5.371  0.4463 -0.4202 -0.3737
  328MOL0     C43190   1.698   1.288   5.373 -0.9288 -0.4410  0.5349
  328MOL0     C43191   1.661   1.359   5.261 -0.2009  0.0762  0.7683
  328MOL0     C43192   1.638   1.285   5.136  1.2588  0.5546 -0.9951
  328MOL0     C43193   1.614   1.347   5.006 -0.7372 -0.4336 -0.1069
  328MOL0     O43194   1.635   1.485   5.004 -0.2309 -1.0771  0.7042
  328MOL0     C43195   1.600   1.554   4.882  0.0745 -0.1410 -1.1167
  328MOL0     C43196   1.700   1.583   4.786  0.2679 -0.7295  0.7687
  328MOL0     C43197   1.666   1.669   4.678 -0.1232  0.3007 -0.5871
  328MOL0     C43198   1.532   1.721   4.661  0.2064  0.2999  0.2676
  328MOL0     O43199   1.511   1.794   4.548  0.7668 -0.9043 -0.0740
  328MOL0     C43200   1.392   1.878   4.531  0.1698 -0.1200 -0.2200
  328MOL0     C43201   1.390   1.941   4.392 -0.6223 -0.0536  0.5544
  328MOL0     C43202   1.300   2.068   4.372  0.1029  0.5317 -0.3899
  328MOL0     C43203   1.161   2.069   4.442 -0.4669  0.3052  0.3742
  328MOL0     C43204   1.091   2.204   4.432 -0.4176 -0.3245  0.4777
  328MOL0     C43205   0.934   2.207   4.453  0.1139 -0.3363  0.8552
  328MOL0     C43206   0.870   2.338   4.476 -0.1219 -0.2482  0.1708
  328MOL0     C43207   0.720   2.331   4.453  0.5872 -0.1747  0.1261
  328MOL0    Cl43208   0.685   2.307   4.283  0.2217 -0.0963  0.4654
  328MOL0     C43209   1.432   1.690   4.756 -0.6584  1.1427  0.4589
  328MOL0     C43210   1.467   1.607   4.867 -0.2316  0.8043  0.4021
  328MOL0     O43211   1.562   1.273   4.917  0.4522 -0.5980  0.0542
  328MOL0     C43212   1.644   1.143   5.143  1.0860  0.5588 -0.7903
  328MOL0     C43213   1.689   1.074   5.254 -0.6716 -1.5919 -0.1196
  328MOL0     N43214   1.950   0.521   5.665 -0.3647  0.1640  0.2686
  328MOL0     N43215   2.003   0.423   5.725 -0.2132  0.5036 -0.5704
  328MOL0     C43216   3.108   0.242   6.192 -1.1275 -0.1958  0.6613
  328MOL0     C43217   3.244   0.265   6.227 -0.2247 -0.1336  0.0894
  328MOL0     C43218   3.715   0.378   6.144  0.7009  1.3173 -0.1252
  328MOL0     C43219   3.741   0.321   6.271  0.1067  0.2362  0.0368
  328MOL0     C43220   3.868   0.326   6.320 -0.0794  0.3553 -0.0420
  328MOL0     C43221   3.979   0.370   6.237  0.6689  0.3987 -0.1489
  328MOL0     O43222   4.105   0.392   6.285  0.6972 -0.3401 -1.1866
  328MOL0     C43223   4.141   0.302   6.396 -0.0225 -0.0622 -0.5152
  328MOL0     C43224   4.297   0.319   6.412 -0.4503 -0.3749  0.3185
  328MOL0     C43225   4.343   0.457   6.462  0.0019  0.2534 -0.3979
  328MOL0     C43226   4.490   0.468   6.480  0.9184 -1.3049  0.0751
  328MOL0     C43227   4.549   0.383   6.585  0.4110 -0.2303  0.2577
  328MOL0     C43228   4.583   0.298   6.656 -0.2688 -0.1869 -0.5393
  328MOL0     C43229   3.956   0.408   6.110  0.6706 -0.6022  0.4554
  328MOL0     C43230   3.822   0.411   6.062  0.1470  0.1105  0.3086
  328MOL0     H43231   3.362   0.341   5.918  1.8199 -1.8689 -0.9037
  328MOL0     H43232   3.128   0.339   5.861 -0.0390  0.9149 -0.5844
  328MOL0     H43233   2.886   0.313   5.842  0.5499 -0.0493  0.2042
  328MOL0     H43234   2.899   0.421   5.983  2.6311 -0.6664 -0.1858
  328MOL0     H43235   2.681   0.365   6.051  1.1026  1.7053 -0.9710
  328MOL0     H43236   2.705   0.196   5.985 -2.1096  0.5848  1.9161
  328MOL0     H43237   2.702   0.304   5.754 -2.5795  0.3983 -1.9573
  328MOL0     H43238   2.640   0.452   5.836 -0.9690  0.1983  2.3660
  328MOL0     H43239   2.528   0.172   5.832 -1.0014 -0.2168 -0.8091
  328MOL0     H43240   2.453   0.304   5.935 -1.2655  1.1522 -1.2266
  328MOL0     H43241   2.476   0.301   5.628 -1.0338 -2.1066 -0.3106
  328MOL0     H43242   2.420   0.437   5.732  1.0967  0.0134 -1.3656
  328MOL0     H43243   2.332   0.159   5.672  2.0235  1.4041  0.3767
  328MOL0     H43244   2.238   0.303   5.620 -1.0468  0.4557  1.1928
  328MOL0     H43245   2.111   0.192   5.807  0.2459  0.3200 -0.0404
  328MOL0     H43246   2.259   0.175   5.899  1.6903 -1.2956 -1.7642
  328MOL0     H43247   2.259   0.440   5.920  1.6128 -0.2276 -2.4570
  328MOL0     H43248   2.103   0.367   5.979 -0.5161  2.1908  0.6046
  328MOL0     H43249   2.175   0.658   5.855  1.9548 -0.7920 -0.0143
  328MOL0     H43250   1.964   0.756   5.524  1.5429  0.2511  0.4744
  328MOL0     H43251   2.016   0.848   5.659 -0.2107 -0.2167 -1.4480
  328MOL0     H43252   1.799   0.773   5.801  0.5009  1.0076  0.6284
  328MOL0     H43253   1.733   0.711   5.661 -1.2468  0.7776  0.1281
  328MOL0     H43254   1.666   0.940   5.715 -0.6353 -2.4200 -0.0005
  328MOL0     H43255   1.837   0.989   5.699  2.5850 -2.7594 -1.2724
  328MOL0     H43256   1.635   0.915   5.478  0.8611 -1.1393  1.2437
  328MOL0     H43257   1.812   0.906   5.453  1.4646 -0.2562  2.2361
  328MOL0     H43258   1.706   1.341   5.468 -2.8629 -0.6481  0.8604
  328MOL0     H43259   1.652   1.467   5.259 -0.4766  0.0505 -0.3217
  328MOL0     H43260   1.804   1.554   4.797 -0.0614 -3.3377 -1.8872
  328MOL0     H43261   1.740   1.697   4.604  0.2686  0.9369  0.0348
  328MOL0     H43262   1.387   1.963   4.599 -1.1499 -0.7879  0.5525
  328MOL0     H43263   1.303   1.819   4.554 -0.2997 -0.1800 -2.0321
  328MOL0     H43264   1.370   1.862   4.319 -2.7754  1.5939 -0.7504
  328MOL0     H43265   1.493   1.975   4.375 -0.8567  1.2369  1.5580
  328MOL0     H43266   1.276   2.071   4.265 -1.5843  2.8582 -0.0341
  328MOL0     H43267   1.356   2.154   4.408  3.1352 -0.6805 -1.8354
  328MOL0     H43268   1.105   2.004   4.374  0.9748  1.0643 -1.6430
  328MOL0     H43269   1.178   2.037   4.545  1.5593  0.8998  0.2568
  328MOL0     H43270   1.100   2.240   4.329 -0.3048 -0.5110  0.4223
  328MOL0     H43271   1.151   2.276   4.488  1.9906 -0.4007 -1.7855
  328MOL0     H43272   0.906   2.151   4.542  0.0989 -3.0486 -0.7412
  328MOL0     H43273   0.892   2.146   4.372  1.1124 -0.7438  0.6198
  328MOL0     H43274   0.886   2.369   4.580  0.6018  0.9394 -0.2651
  328MOL0     H43275   0.914   2.413   4.410  0.1108 -0.4063  0.1465
  328MOL0     H43276   0.676   2.422   4.494  0.2525 -0.1721 -0.2314
  328MOL0     H43277   0.674   2.252   4.513 -0.1937 -0.0406 -0.2832
  328MOL0     H43278   1.336   1.736   4.736 -0.4097  1.1995 -0.6437
  328MOL0     H43279   1.392   1.571   4.938 -0.1918  0.8351  0.4602
  328MOL0     H43280   1.611   1.096   5.051 -2.6176  0.8325  0.2338
  328MOL0     H43281   1.691   0.965   5.248 -1.5010 -1.5667 -1.1375
  328MOL0     H43282   3.032   0.218   6.267 -1.3632  0.2723  0.5721
  328MOL0     H43283   3.292   0.268   6.324  0.7835  1.8350 -0.4301
  328MOL0     H43284   3.662   0.283   6.335  0.1736 -2.2231 -1.2001
  328MOL0     H43285   3.895   0.285   6.417  2.3847 -0.7751 -1.1122
  328MOL0     H43286   4.109   0.199   6.373 -1.6672  0.1058  0.8258
  328MOL0     H43287   4.096   0.323   6.494  1.6076  1.6508 -0.0892
  328MOL0     H43288   4.332   0.240   6.480  1.1965  1.4316  1.6908
  328MOL0     H43289   4.345   0.301   6.315 -2.4283  2.9026 -1.4320
  328MOL0     H43290   4.304   0.471   6.563  2.1319 -1.1567  0.6971
  328MOL0     H43291   4.297   0.528   6.392 -1.7275 -0.2684  0.1544
  328MOL0     H43292   4.543   0.431   6.391 -1.3649 -0.6586 -1.6398
  328MOL0     H43293   4.519   0.571   6.503  0.8598 -1.4378  0.7878
  328MOL0     H43294   4.603   0.212   6.718  1.1367 -0.6105 -1.5336
  328MOL0     H43295   4.036   0.438   6.043 -2.0391  1.0919 -2.3026
  328MOL0     H43296   3.789   0.435   5.962 -2.1997 -2.1165  0.4542
  329MOL0     O43297   2.022   8.053   2.269 -0.3164 -0.2086 -0.1539
  329MOL0     C43298   1.984   8.049   2.155 -0.1552 -0.2251 -0.7025
  329MOL0     O43299   1.858   8.033   2.119 -0.0838 -0.2018  0.7265
  329MOL0     C43300   1.750   8.055   2.202 -0.2482  0.9027 -0.3987
  329MOL0     C43301   1.750   8.123   2.323 -0.0025  0.7550 -0.4123
  329MOL0     C43302   1.632   8.126   2.404 -0.1160  0.7184  0.0532
  329MOL0     C43303   1.511   8.073   2.361 -0.2368 -0.4908 -0.1196
  329MOL0     O43304   1.408   8.067   2.447 -0.5260 -0.8356  0.3022
  329MOL0     C43305   1.323   8.184   2.434  0.7970  0.0350 -0.3704
  329MOL0     C43306   1.202   8.152   2.344  1.1054  0.5667  0.5898
  329MOL0     C43307   1.073   8.225   2.368  0.2139 -0.3175  0.0765
  329MOL0     C43308   0.976   8.222   2.257 -0.5164  0.9122  0.6247
  329MOL0     C43309   0.869   8.332   2.269 -0.3990  0.5676 -0.7312
  329MOL0     C43310   0.801   8.328   2.125 -0.1213 -0.1029  0.2026
  329MOL0     C43311   0.705   8.446   2.105 -0.7032 -0.4388 -0.4455
  329MOL0     C43312   0.602   8.473   2.208  0.5606 -0.2280  0.5777
  329MOL0     N43313   0.526   8.350   2.231 -0.1712  0.1722  0.0470
  329MOL0     C43314   0.412   8.313   2.175 -0.0138 -0.6654  0.0584
  329MOL0     C43315   0.376   8.202   2.241 -0.6406  0.1288  0.5567
  329MOL0     C43316   0.253   8.119   2.219  0.4402 -0.2535  0.0374
  329MOL0     C43317   0.156   8.139   2.327  0.1502 -0.2843  0.1116
  329MOL0     C43318   0.105   8.291   2.322 -0.1076  0.1369 -0.6364
  329MOL0     C43319  -0.045   8.295   2.361 -0.5619 -0.4338 -0.5199
  329MOL0     O43320  -0.103   8.413   2.316  0.0570  0.6613 -0.5827
  329MOL0     C43321  -0.241   8.416   2.306  0.3930  0.0289 -0.2034
  329MOL0     C43322  -0.279   8.543   2.256  0.2114 -0.0269  0.2642
  329MOL0     C43323  -0.415   8.566   2.228  1.0202  0.6361 -0.3077
  329MOL0     C43324  -0.516   8.479   2.273 -0.1156 -0.4454 -0.5544
  329MOL0     C43325  -0.658   8.521   2.277  0.4994 -0.2153 -0.1017
  329MOL0     O43326  -0.746   8.438   2.354 -0.3585 -0.7130 -0.2252
  329MOL0     C43327  -0.877   8.462   2.335 -0.1396 -0.5202 -0.4921
  329MOL0     C43328  -0.953   8.492   2.450 -0.5412 -0.5289  0.1383
  329MOL0     C43329  -1.092   8.495   2.441  0.8068 -0.1892  0.0438
  329MOL0     C43330  -1.160   8.472   2.317  0.2198 -0.0453  0.1427
  329MOL0     O43331  -1.297   8.474   2.319 -0.2349 -0.4350  0.0545
  329MOL0     C43332  -1.358   8.378   2.238 -1.0290 -0.3887  1.2298
  329MOL0     C43333  -1.510   8.387   2.233  0.4349  1.3478 -0.5537
  329MOL0     C43334  -1.595   8.282   2.141 -0.1693  0.2463  0.5868
  329MOL0     C43335  -1.733   8.245   2.202 -0.2608  0.4947 -0.6144
  329MOL0     C43336  -1.817   8.151   2.119  0.0023  0.4476 -0.2939
  329MOL0     C43337  -1.972   8.164   2.142 -0.1381 -0.0716  0.3285
  329MOL0     C43338  -2.018   8.130   2.282 -0.2954 -0.2234 -0.2426
  329MOL0     C43339  -2.169   8.107   2.288  0.5948  0.2312 -1.3373
  329MOL0    Cl43340  -2.222   7.951   2.217 -0.0635  0.1872  0.1456
  329MOL0     C43341  -1.079   8.442   2.204 -0.5317 -0.1703  1.7987
  329MOL0     C43342  -0.940   8.434   2.215  0.3118 -0.3641 -0.0398
  329MOL0     O43343  -0.693   8.625   2.220  0.2967  0.2288  0.4390
  329MOL0     C43344  -0.476   8.364   2.343 -0.9351  0.2910 -0.8212
  329MOL0     C43345  -0.341   8.330   2.353  0.3958  0.5245 -0.2863
  329MOL0     N43346   0.458   8.194   2.349 -0.3774 -0.2685  0.6457
  329MOL0     N43347   0.550   8.284   2.346  0.5136  0.0934 -0.9870
  329MOL0     C43348   1.508   8.005   2.241  0.0314 -0.0704  0.9910
  329MOL0     C43349   1.627   7.996   2.163 -0.9064  0.0702  0.4615
  329MOL0     C43350   2.085   8.027   2.051 -0.6077  0.4683 -0.0057
  329MOL0     C43351   2.222   8.052   2.063 -0.2275  0.8230 -0.2753
  329MOL0     C43352   2.314   8.013   1.961  0.5267 -0.6033 -0.0818
  329MOL0     C43353   2.275   7.972   1.841 -0.2002  0.5608 -0.1909
  329MOL0     O43354   2.348   7.947   1.731 -0.4427  0.1537  0.2825
  329MOL0     C43355   2.494   7.923   1.754  0.1791  0.2211 -0.4963
  329MOL0     C43356   2.570   7.893   1.628 -0.7653  0.2433  0.1014
  329MOL0     C43357   2.551   7.757   1.570  0.8301  0.3935 -0.4282
  329MOL0     C43358   2.674   7.693   1.504  0.1143 -0.1690  0.5716
  329MOL0     C43359   2.667   7.549   1.498  0.1875 -0.9090 -0.5369
  329MOL0     C43360   2.646   7.429   1.493 -0.0913  0.7538 -0.2300
  329MOL0     C43361   2.141   7.951   1.827  0.6834  0.3834  0.7759
  329MOL0     C43362   2.050   7.983   1.929  0.4744 -0.5849  0.7992
  329MOL0     H43363   1.836   8.181   2.354 -0.4873  2.0076 -1.3199
  329MOL0     H43364   1.636   8.171   2.503  2.1435  0.6394  0.0416
  329MOL0     H43365   1.370   8.275   2.394 -1.0155 -0.0342 -2.9362
  329MOL0     H43366   1.282   8.206   2.533 -0.2593  0.8248 -0.9565
  329MOL0     H43367   1.175   8.046   2.355  0.5677  0.7755  1.4395
  329MOL0     H43368   1.225   8.171   2.239 -2.3705 -1.0954 -0.6469
  329MOL0     H43369   1.111   8.324   2.396  0.1604 -0.5856  1.1554
  329MOL0     H43370   1.019   8.195   2.459  1.1427 -1.2514  0.3374
  329MOL0     H43371   1.032   8.236   2.164 -1.0425 -1.9103 -0.2403
  329MOL0     H43372   0.934   8.121   2.262 -1.6153  1.3598  0.8080
  329MOL0     H43373   0.909   8.431   2.290 -0.8005  0.2463  1.8597
  329MOL0     H43374   0.791   8.307   2.342 -0.3381 -3.0993 -1.7106
  329MOL0     H43375   0.743   8.237   2.110 -2.0653  0.8594  1.4945
  329MOL0     H43376   0.873   8.328   2.043 -0.4003  2.6726 -0.1204
  329MOL0     H43377   0.778   8.526   2.097 -0.0840 -1.0799 -1.3212
  329MOL0     H43378   0.662   8.426   2.006 -1.1111 -2.1581  0.0351
  329MOL0     H43379   0.535   8.551   2.168 -1.2125 -1.4495  1.0307
  329MOL0     H43380   0.651   8.508   2.299  1.2804  2.6217 -0.8005
  329MOL0     H43381   0.356   8.362   2.096  1.5214  4.2577  1.6373
  329MOL0     H43382   0.276   8.013   2.215 -3.0500 -1.2693  2.1905
  329MOL0     H43383   0.207   8.145   2.123  3.3222  2.7359 -0.7206
  329MOL0     H43384   0.200   8.122   2.426  0.9579 -0.8234 -0.3279
  329MOL0     H43385   0.081   8.062   2.310  1.4732 -1.7338  0.6276
  329MOL0     H43386   0.169   8.353   2.385 -0.8860  3.0102 -2.4857
  329MOL0     H43387   0.120   8.336   2.224 -0.5581  2.3084  0.2163
  329MOL0     H43388  -0.058   8.281   2.468  1.5764  1.2891  0.0129
  329MOL0     H43389  -0.091   8.205   2.318  0.8124 -0.4621 -2.0467
  329MOL0     H43390  -0.214   8.625   2.226 -0.2205 -0.8330 -3.3259
  329MOL0     H43391  -0.460   8.659   2.194 -0.2928  0.0704 -0.1491
  329MOL0     H43392  -0.896   8.504   2.541 -0.2780  1.8379 -0.2685
  329MOL0     H43393  -1.149   8.507   2.533 -1.0519 -1.4792 -0.8793
  329MOL0     H43394  -1.322   8.279   2.267 -1.3224 -0.6959  0.5759
  329MOL0     H43395  -1.336   8.385   2.131 -1.6467  1.6851  1.1965
  329MOL0     H43396  -1.540   8.490   2.214 -0.0333  1.9472  2.7487
  329MOL0     H43397  -1.548   8.391   2.336  0.8331  2.9351 -0.4543
  329MOL0     H43398  -1.542   8.187   2.132  0.6388  0.6051  1.3253
  329MOL0     H43399  -1.608   8.335   2.046  0.7809  0.7624  0.7304
  329MOL0     H43400  -1.706   8.185   2.289 -0.2691  0.8439 -0.3682
  329MOL0     H43401  -1.793   8.329   2.237 -2.9587 -1.1837 -0.9262
  329MOL0     H43402  -1.788   8.047   2.137 -2.2998 -0.2302 -0.2489
  329MOL0     H43403  -1.805   8.168   2.012 -3.9711  0.6178 -0.8270
  329MOL0     H43404  -2.026   8.108   2.065  2.2183  1.3798 -2.6329
  329MOL0     H43405  -2.003   8.266   2.119  0.7446 -0.1381 -1.3475
  329MOL0     H43406  -1.953   8.058   2.333  0.8718  0.5830 -0.5368
  329MOL0     H43407  -1.997   8.223   2.336  1.7880 -0.2592 -0.8951
  329MOL0     H43408  -2.224   8.191   2.245 -0.0611  0.5663  0.1068
  329MOL0     H43409  -2.196   8.105   2.394  0.9928  2.5662 -1.1449
  329MOL0     H43410  -1.132   8.419   2.112  0.3458 -0.5753  1.3820
  329MOL0     H43411  -0.894   8.405   2.121  0.6774  0.7304 -0.2124
  329MOL0     H43412  -0.551   8.306   2.397 -0.4992  0.5540  0.0975
  329MOL0     H43413  -0.307   8.242   2.408  0.2411  0.4300 -0.3427
  329MOL0     H43414   1.419   7.963   2.195  1.0634 -1.1402 -0.1132
  329MOL0     H43415   1.627   7.942   2.069 -1.8944  0.7040  0.0738
  329MOL0     H43416   2.272   8.085   2.153  0.7625  1.9223 -1.1991
  329MOL0     H43417   2.418   8.037   1.980  0.5746 -1.6539  1.1206
  329MOL0     H43418   2.501   7.835   1.818  3.3210  0.6678 -0.0865
  329MOL0     H43419   2.552   7.994   1.814  0.6667 -1.3125  0.8991
  329MOL0     H43420   2.539   7.965   1.551 -1.0441  1.2726  1.1503
  329MOL0     H43421   2.675   7.906   1.654 -0.8485  2.4688 -0.4367
  329MOL0     H43422   2.470   7.762   1.497  0.2455  0.3732  0.2056
  329MOL0     H43423   2.529   7.674   1.639 -3.2331 -0.8940 -2.9188
  329MOL0     H43424   2.701   7.746   1.412  0.8125 -0.0820  0.8259
  329MOL0     H43425   2.758   7.713   1.571 -1.9304  2.5607  2.5437
  329MOL0     H43426   2.640   7.323   1.507  1.7369  0.8160  1.4538
  329MOL0     H43427   2.087   7.904   1.746 -0.0419  0.5976  1.1238
  329MOL0     H43428   1.945   7.967   1.905  0.4529  1.0678 -0.3903
  330MOL0     O43429   4.180   2.862   9.665  0.3147 -0.5799 -0.6204
  330MOL0     C43430   4.217   2.977   9.673 -0.3828 -0.1169 -0.8400
  330MOL0     O43431   4.141   3.088   9.684 -0.0395 -0.0067  0.2438
  330MOL0     C43432   4.009   3.078   9.724 -0.5117 -0.2904  0.3433
  330MOL0     C43433   3.926   3.179   9.685 -0.5594 -0.8675  0.5537
  330MOL0     C43434   3.796   3.197   9.729  0.7469  0.5573  0.3702
  330MOL0     C43435   3.740   3.106   9.807 -0.6585 -0.3537 -0.1873
  330MOL0     O43436   3.605   3.128   9.840 -0.0276 -0.7601 -0.1403
  330MOL0     C43437   3.540   3.007   9.892  0.0964  1.0075 -0.4723
  330MOL0     C43438   3.394   3.035   9.919  0.1943 -0.1502  0.0322
  330MOL0     C43439   3.313   3.075   9.789 -0.5902  0.3295  0.1062
  330MOL0     C43440   3.186   3.141   9.840 -0.4723 -0.3582  0.2274
  330MOL0     C43441   3.104   3.175   9.716 -0.4489  0.9959 -0.7452
  330MOL0     C43442   2.963   3.230   9.766 -0.5559  0.1940 -0.7361
  330MOL0     C43443   2.943   3.371   9.720  0.8495 -0.3872 -0.5389
  330MOL0     C43444   2.977   3.477   9.831  0.2283  0.0716 -0.0569
  330MOL0     N43445   2.934   3.619   9.793  0.0602  0.2014 -0.1208
  330MOL0     C43446   2.984   3.680   9.684 -0.0048 -0.1901  0.0495
  330MOL0     C43447   2.926   3.803   9.683 -0.0402 -1.1342  0.5306
  330MOL0     C43448   2.949   3.920   9.593  0.0759 -0.1572 -0.5842
  330MOL0     C43449   2.826   3.974   9.530  0.4420 -0.5006 -0.6884
  330MOL0     C43450   2.764   3.878   9.440 -0.3062  0.1083  0.0756
  330MOL0     C43451   2.622   3.905   9.429 -0.6595  0.3013 -0.0994
  330MOL0     O43452   2.563   3.891   9.560  0.2988  0.0168  0.3619
  330MOL0     C43453   2.429   3.908   9.569  0.2922 -0.8901  1.1304
  330MOL0     C43454   2.369   3.880   9.696 -0.2081  0.6521 -0.1625
  330MOL0     C43455   2.237   3.899   9.719 -0.3357  0.6468 -0.2498
  330MOL0     C43456   2.151   3.940   9.614  0.1788 -0.9023 -1.4887
  330MOL0     C43457   2.008   3.977   9.635 -0.3238  0.6452  0.2232
  330MOL0     O43458   1.959   3.940   9.756 -0.1665 -0.3928  0.3736
  330MOL0     C43459   1.827   3.960   9.783  0.3315  0.4053  0.7613
  330MOL0     C43460   1.719   3.948   9.694  0.6173  0.0953 -0.4337
  330MOL0     C43461   1.585   3.976   9.728 -0.6988 -0.3776 -0.0263
  330MOL0     C43462   1.571   4.022   9.860  0.0132 -0.2515  0.6714
  330MOL0     O43463   1.437   4.044   9.891  0.0243 -0.1167  0.1873
  330MOL0     C43464   1.383   3.992  10.012 -0.3726 -0.0919 -0.8316
  330MOL0     C43465   1.239   4.042  10.040 -0.4611  0.6001  0.0837
  330MOL0     C43466   1.226   4.191  10.074  0.5002 -0.0890 -0.4398
  330MOL0     C43467   1.090   4.235  10.095 -0.0557 -0.2339 -1.0512
  330MOL0     C43468   1.053   4.381  10.125 -0.2654 -0.9725 -0.1398
  330MOL0     C43469   0.903   4.401  10.116 -0.6818 -0.2477  0.1710
  330MOL0     C43470   0.874   4.555  10.128  0.2639 -0.3468  0.2387
  330MOL0     C43471   0.734   4.605  10.152 -1.0594  0.2110  0.1329
  330MOL0    Cl43472   0.676   4.578  10.309 -0.6121  0.1953  0.1452
  330MOL0     C43473   1.676   4.037   9.951 -0.0300  0.1313 -0.1207
  330MOL0     C43474   1.794   3.993   9.914 -0.1446 -0.0821 -0.5490
  330MOL0     O43475   1.946   4.029   9.543 -0.3508 -0.0495  0.5589
  330MOL0     C43476   2.202   3.954   9.487  0.5464  0.4290  0.3389
  330MOL0     C43477   2.337   3.943   9.469  0.0852 -0.0937  0.2815
  330MOL0     N43478   2.833   3.811   9.782  0.8135 -0.2146  0.6235
  330MOL0     N43479   2.830   3.693   9.838 -0.2166 -0.8042  0.3476
  330MOL0     C43480   3.819   3.006   9.855 -1.1224 -0.1163  0.8682
  330MOL0     C43481   3.953   2.992   9.823  0.0938  0.0085  0.0163
  330MOL0     C43482   4.355   3.013   9.654  0.3597  0.0122  0.8853
  330MOL0     C43483   4.398   3.152   9.659  0.6170  0.0983  0.2056
  330MOL0     C43484   4.526   3.199   9.642  0.6105  0.5506 -0.1831
  330MOL0     C43485   4.622   3.108   9.625 -1.7915  0.4317  0.1296
  330MOL0     O43486   4.754   3.145   9.621 -0.1174  0.1362 -0.0607
  330MOL0     C43487   4.851   3.070   9.707  0.7493  0.2732 -0.4230
  330MOL0     C43488   4.990   3.069   9.644  0.2517 -0.1664  0.2266
  330MOL0     C43489   5.054   3.206   9.657 -0.0613 -0.1978  0.1590
  330MOL0     C43490   5.191   3.199   9.592 -0.5640  0.3256 -0.8158
  330MOL0     C43491   5.305   3.179   9.686  0.6433 -0.3738  0.2697
  330MOL0     C43492   5.388   3.180   9.773  0.0840  0.0234  0.2808
  330MOL0     C43493   4.594   2.967   9.606 -0.1425 -0.3336  0.1510
  330MOL0     C43494   4.459   2.922   9.624  0.6435  0.1627  0.4016
  330MOL0     H43495   3.959   3.251   9.609 -0.3342 -3.4680 -1.9936
  330MOL0     H43496   3.732   3.282   9.705 -1.7781 -0.5615  2.6413
  330MOL0     H43497   3.582   2.970   9.986 -0.1904 -3.7072 -1.9260
  330MOL0     H43498   3.547   2.926   9.818 -5.0706 -1.6071  1.4008
  330MOL0     H43499   3.397   3.118   9.991 -2.2625  0.5660 -0.6076
  330MOL0     H43500   3.344   2.955   9.974 -2.0477  0.2604 -1.2838
  330MOL0     H43501   3.288   2.984   9.733 -0.7600 -0.2012  1.0262
  330MOL0     H43502   3.373   3.137   9.722 -2.0808  0.0936 -1.5225
  330MOL0     H43503   3.134   3.079   9.914  3.3697 -2.3966  1.5147
  330MOL0     H43504   3.216   3.237   9.884  1.0676  0.1220 -1.7365
  330MOL0     H43505   3.070   3.090   9.657  0.6595  0.9649 -1.3577
  330MOL0     H43506   3.159   3.242   9.649  2.6684  2.1331  2.6050
  330MOL0     H43507   2.956   3.213   9.874  0.0410 -0.8864 -0.8510
  330MOL0     H43508   2.882   3.171   9.724  0.2275 -1.4069 -0.0845
  330MOL0     H43509   2.997   3.388   9.626  0.4678 -1.1491 -0.9055
  330MOL0     H43510   2.836   3.386   9.708  0.8375  2.5303  2.1139
  330MOL0     H43511   3.081   3.462   9.859 -0.4694 -0.2096  2.6597
  330MOL0     H43512   2.924   3.450   9.923 -0.1713  2.3900  0.4535
  330MOL0     H43513   3.057   3.651   9.610  3.7652  0.2936  3.2300
  330MOL0     H43514   3.028   3.891   9.522  2.2697  0.5015  1.4602
  330MOL0     H43515   2.983   4.007   9.650  0.4838 -0.0818 -0.9384
  330MOL0     H43516   2.863   4.070   9.494 -0.9941  0.7317  0.9231
  330MOL0     H43517   2.758   4.005   9.610 -0.3872  2.2928 -2.3317
  330MOL0     H43518   2.821   3.875   9.346 -0.0864  0.5639  0.1943
  330MOL0     H43519   2.769   3.776   9.479  0.4257 -0.1998 -0.7969
  330MOL0     H43520   2.577   3.829   9.364 -0.9641 -1.6210  2.2123
  330MOL0     H43521   2.618   3.999   9.373  0.9008 -0.8934 -2.4080
  330MOL0     H43522   2.438   3.849   9.773 -0.7373 -3.5662 -1.1351
  330MOL0     H43523   2.206   3.891   9.822  2.2804 -0.2484  0.5239
  330MOL0     H43524   1.731   3.903   9.596 -0.7820  0.4603 -0.7912
  330MOL0     H43525   1.495   3.958   9.671 -1.1432  0.9703  0.2213
  330MOL0     H43526   1.460   4.018  10.085  0.2532  0.6935 -1.7325
  330MOL0     H43527   1.368   3.884  10.019 -4.1423  0.2947 -1.0012
  330MOL0     H43528   1.207   3.990  10.131 -2.5111 -0.1390 -1.0136
  330MOL0     H43529   1.172   4.012   9.960  0.1393 -4.3317  1.1041
  330MOL0     H43530   1.268   4.244   9.988  3.0155  3.5206  2.6872
  330MOL0     H43531   1.294   4.211  10.157  0.0809  0.0047 -0.1154
  330MOL0     H43532   1.018   4.205  10.018 -0.4251 -0.7270 -0.5259
  330MOL0     H43533   1.063   4.187  10.190  1.2042  0.8661 -0.1021
  330MOL0     H43534   1.102   4.450  10.057 -1.4306  1.3564  1.2530
  330MOL0     H43535   1.079   4.413  10.227  0.0706 -0.2239 -0.4578
  330MOL0     H43536   0.866   4.343  10.201 -0.2794 -0.0181  0.5073
  330MOL0     H43537   0.866   4.358  10.023  0.3003 -1.2185  0.2138
  330MOL0     H43538   0.931   4.591  10.214  0.0167 -0.6207  0.5164
  330MOL0     H43539   0.916   4.609  10.042  0.3801  0.2938  0.6913
  330MOL0     H43540   0.664   4.555  10.084 -2.9381  0.8729  1.5073
  330MOL0     H43541   0.745   4.713  10.136 -1.4958  0.3340  0.6246
  330MOL0     H43542   1.649   4.061  10.054  0.3045  1.7051 -0.3856
  330MOL0     H43543   1.877   3.992   9.983 -1.8531 -0.3045  1.6028
  330MOL0     H43544   2.136   3.979   9.405  2.0287  0.7476 -0.8098
  330MOL0     H43545   2.369   3.975   9.370 -0.3294 -1.8588 -0.4613
  330MOL0     H43546   3.785   2.947   9.940  1.3031 -1.1750  1.1861
  330MOL0     H43547   4.013   2.916   9.872  2.7041  1.6674 -0.4101
  330MOL0     H43548   4.334   3.233   9.692  1.3842  0.7011  0.2380
  330MOL0     H43549   4.544   3.306   9.653  2.4183  0.1800  0.8314
  330MOL0     H43550   4.824   2.964   9.713 -3.5312  1.1340 -0.9151
  330MOL0     H43551   4.852   3.105   9.811  0.1532 -2.7713  0.7171
  330MOL0     H43552   5.044   2.989   9.695 -0.6978  2.4841  6.2755
  330MOL0     H43553   4.972   3.046   9.538  0.1934 -1.4673  0.5041
  330MOL0     H43554   5.054   3.239   9.761 -1.2116  3.1537 -0.7665
  330MOL0     H43555   4.992   3.280   9.605 -4.1372 -2.6956  0.9947
  330MOL0     H43556   5.199   3.130   9.507  1.1559  1.1006 -1.3368
  330MOL0     H43557   5.211   3.300   9.555  1.8453  0.2602  0.1095
  330MOL0     H43558   5.473   3.197   9.835  1.0986  2.0022 -1.5529
  330MOL0     H43559   4.660   2.884   9.581  0.8522  0.3876  0.3450
  330MOL0     H43560   4.442   2.818   9.598  0.3615  0.7011 -1.7005
  331MOL0     O43561   6.970   7.371   4.875  0.7806  0.0467 -0.0525
  331MOL0     C43562   6.892   7.418   4.956  0.2592 -0.9596  0.0220
  331MOL0     O43563   6.925   7.517   5.042  0.1284 -0.2010 -0.6519
  331MOL0     C43564   7.056   7.524   5.083  0.5613  0.2829  0.8724
  331MOL0     C43565   7.159   7.568   4.994 -0.1111 -0.3489 -0.1684
  331MOL0     C43566   7.294   7.567   5.043  0.0406  0.0751  0.4004
  331MOL0     C43567   7.324   7.530   5.178  0.1443 -0.1543  0.9177
  331MOL0     O43568   7.455   7.535   5.218 -0.1499  0.2012  0.4325
  331MOL0     C43569   7.492   7.509   5.351 -1.0330 -0.2892  0.0927
  331MOL0     C43570   7.651   7.506   5.353  0.4200 -0.4146  0.2790
  331MOL0     C43571   7.710   7.637   5.302  0.0832 -0.2910  0.4268
  331MOL0     C43572   7.850   7.647   5.359 -0.9458 -0.0358  0.6056
  331MOL0     C43573   7.902   7.791   5.330 -1.0617 -0.1183  0.7108
  331MOL0     C43574   7.929   7.808   5.180  0.2485  0.8803  0.0618
  331MOL0     C43575   7.978   7.946   5.151 -0.0528 -0.0014  0.6844
  331MOL0     C43576   8.005   7.992   5.007 -0.0667  0.0002  0.7438
  331MOL0     N43577   7.878   7.960   4.929 -0.0964 -0.2618 -0.3377
  331MOL0     C43578   7.748   7.988   4.964  0.2461  0.3568 -0.7213
  331MOL0     C43579   7.678   7.891   4.903  0.3107 -0.5427  0.0855
  331MOL0     C43580   7.535   7.858   4.953  0.2945 -0.0200  0.6891
  331MOL0     C43581   7.437   7.909   4.863  1.1073  0.0096  0.5318
  331MOL0     C43582   7.456   7.891   4.712 -0.6504 -0.7127  0.0743
  331MOL0     C43583   7.466   7.745   4.665  0.1492 -0.8236 -0.4653
  331MOL0     O43584   7.343   7.662   4.680 -0.1824 -0.5466  0.6880
  331MOL0     C43585   7.240   7.650   4.586 -0.7440 -0.2160  0.0795
  331MOL0     C43586   7.238   7.730   4.470  0.4600  0.5098  0.2851
  331MOL0     C43587   7.127   7.723   4.382 -0.4673 -0.0034 -0.3277
  331MOL0     C43588   7.027   7.632   4.408  0.4273  0.2682 -0.3835
  331MOL0     C43589   6.930   7.599   4.301  0.4895  0.3704  0.0419
  331MOL0     O43590   6.922   7.469   4.264 -0.8517  0.9409 -0.0763
  331MOL0     C43591   6.855   7.445   4.148  0.7732 -0.3527 -0.3538
  331MOL0     C43592   6.713   7.418   4.144 -0.0838 -0.9375 -0.3248
  331MOL0     C43593   6.649   7.367   4.023  0.1676  0.5680  0.8392
  331MOL0     C43594   6.723   7.353   3.905 -0.6934  1.5026  0.7949
  331MOL0     O43595   6.680   7.333   3.774 -0.2219  0.2213  0.0102
  331MOL0     C43596   6.539   7.301   3.759  0.3111 -1.1427 -0.3723
  331MOL0     C43597   6.499   7.365   3.632  0.0788  0.3587  0.2579
  331MOL0     C43598   6.351   7.334   3.594 -0.1944  0.0635 -0.8230
  331MOL0     C43599   6.333   7.331   3.440  0.4383 -1.1182 -0.5020
  331MOL0     C43600   6.200   7.270   3.386  0.1020  0.8042  0.1158
  331MOL0     C43601   6.066   7.309   3.432  0.0295  0.6753  0.0127
  331MOL0     C43602   5.961   7.216   3.384  0.5548 -0.3233  0.5179
  331MOL0     C43603   5.952   7.207   3.223  0.1068  0.0801 -0.4434
  331MOL0    Cl43604   5.810   7.111   3.180 -0.0758  0.0059  0.4863
  331MOL0     C43605   6.860   7.391   3.906  1.0816  1.2825 -1.0259
  331MOL0     C43606   6.926   7.436   4.021  0.2196 -0.2753  0.7739
  331MOL0     O43607   6.876   7.694   4.235  0.0185 -0.4910 -0.5776
  331MOL0     C43608   7.027   7.559   4.527 -0.4299 -0.7819 -0.8143
  331MOL0     C43609   7.136   7.572   4.617 -0.0813 -0.0331 -0.2586
  331MOL0     N43610   7.761   7.830   4.813 -0.1914  0.6839 -0.4706
  331MOL0     N43611   7.876   7.883   4.820  0.0054 -0.4744 -0.2482
  331MOL0     C43612   7.218   7.478   5.253 -0.1371  0.4563  0.4375
  331MOL0     C43613   7.083   7.479   5.209  1.2220  0.0161  0.0184
  331MOL0     C43614   6.755   7.360   4.963 -0.2923 -0.5234  0.3299
  331MOL0     C43615   6.711   7.280   4.855 -0.1086  0.3858  0.4937
  331MOL0     C43616   6.579   7.231   4.850 -0.5038  0.0766 -0.2433
  331MOL0     C43617   6.497   7.242   4.964 -1.0472 -0.2653 -0.1853
  331MOL0     O43618   6.369   7.186   4.974  0.0305 -0.6093  0.3847
  331MOL0     C43619   6.306   7.156   4.849 -0.3191 -1.0540 -0.3382
  331MOL0     C43620   6.158   7.119   4.867 -0.4667 -0.1121  0.0859
  331MOL0     C43621   6.150   6.975   4.919 -0.4627 -0.0065 -0.7893
  331MOL0     C43622   6.007   6.945   4.962 -0.6856 -0.4633 -0.2117
  331MOL0     C43623   5.928   6.965   4.845  0.1502  0.6457  0.6188
  331MOL0     C43624   5.846   6.972   4.759  0.2553  0.2385 -0.1159
  331MOL0     C43625   6.550   7.303   5.078 -0.6810  0.7045 -0.0347
  331MOL0     C43626   6.675   7.364   5.080 -0.5672 -0.0015  0.5282
  331MOL0     H43627   7.143   7.620   4.900  0.7202 -0.4925 -0.3908
  331MOL0     H43628   7.367   7.594   4.967 -0.7460 -0.9867 -0.7808
  331MOL0     H43629   7.446   7.418   5.392 -0.7958 -1.1329 -1.4453
  331MOL0     H43630   7.462   7.589   5.420 -1.4722 -0.3875  0.0194
  331MOL0     H43631   7.685   7.423   5.291 -1.2734 -0.0255 -1.2656
  331MOL0     H43632   7.679   7.479   5.456  0.9145 -3.0068 -0.4593
  331MOL0     H43633   7.647   7.717   5.342  2.2383  1.4629  0.4687
  331MOL0     H43634   7.710   7.643   5.193  0.8714 -0.1240  0.4355
  331MOL0     H43635   7.848   7.644   5.469 -0.2326  3.2831  0.8341
  331MOL0     H43636   7.911   7.568   5.316 -3.0326 -1.8575  0.8441
  331MOL0     H43637   7.995   7.811   5.383  1.2102  0.1468 -3.0205
  331MOL0     H43638   7.829   7.866   5.362 -1.3282  0.7590 -1.7006
  331MOL0     H43639   7.834   7.795   5.127 -1.0300  0.3083  2.3411
  331MOL0     H43640   8.000   7.729   5.155  1.7294  1.1242  3.1106
  331MOL0     H43641   7.914   8.021   5.198  1.6397  1.9179  0.0561
  331MOL0     H43642   8.067   7.956   5.213  0.1920 -1.2650  0.5510
  331MOL0     H43643   8.090   7.941   4.960 -0.0583 -2.5685  3.3169
  331MOL0     H43644   8.038   8.096   4.995 -0.1642 -0.1455 -1.1770
  331MOL0     H43645   7.714   8.052   5.045  0.8797  0.8707 -0.8440
  331MOL0     H43646   7.518   7.910   5.048 -2.1112 -2.2773  1.6372
  331MOL0     H43647   7.537   7.753   4.982 -0.2037 -0.3005 -0.2422
  331MOL0     H43648   7.431   8.013   4.894 -0.8543 -0.4535  1.9752
  331MOL0     H43649   7.338   7.872   4.892 -1.4662  4.2620 -1.8654
  331MOL0     H43650   7.375   7.937   4.654  0.4399  2.7448  1.0899
  331MOL0     H43651   7.549   7.943   4.684 -0.1091 -2.0095 -0.6245
  331MOL0     H43652   7.550   7.695   4.714  0.9524 -0.8430 -1.8217
  331MOL0     H43653   7.481   7.748   4.557  0.0968  1.1758 -0.4591
  331MOL0     H43654   7.316   7.800   4.443  1.3297 -1.1681 -1.8611
  331MOL0     H43655   7.117   7.794   4.300 -4.1318 -0.7696 -0.7207
  331MOL0     H43656   6.653   7.424   4.234 -0.3807  1.2139 -0.6130
  331MOL0     H43657   6.546   7.336   4.033  0.1300  0.7764  1.1242
  331MOL0     H43658   6.476   7.354   3.831  0.3095  0.7316 -1.6719
  331MOL0     H43659   6.542   7.192   3.757 -0.1701 -1.1689  0.2333
  331MOL0     H43660   6.567   7.322   3.559 -1.6114 -0.7183 -0.7484
  331MOL0     H43661   6.505   7.475   3.629  0.2579  0.3312 -0.4154
  331MOL0     H43662   6.293   7.416   3.638  2.1812  1.4369 -0.1050
  331MOL0     H43663   6.323   7.239   3.641  2.9401 -0.2277  0.7184
  331MOL0     H43664   6.336   7.433   3.399 -0.3603 -1.9387 -2.7722
  331MOL0     H43665   6.414   7.277   3.390 -0.9455 -2.8158 -0.9869
  331MOL0     H43666   6.202   7.164   3.413 -5.3516 -0.0139 -1.4327
  331MOL0     H43667   6.200   7.276   3.277 -2.3559  2.8221  0.1222
  331MOL0     H43668   6.056   7.410   3.390  1.2846  0.5213 -0.7192
  331MOL0     H43669   6.071   7.298   3.541 -0.3557 -1.4508 -0.1497
  331MOL0     H43670   5.985   7.115   3.419  3.6497 -0.0277 -0.4068
  331MOL0     H43671   5.870   7.265   3.419 -1.9511 -3.5496 -0.8816
  331MOL0     H43672   6.038   7.161   3.172 -0.2520 -0.5859 -0.4592
  331MOL0     H43673   5.932   7.308   3.187 -1.4378  0.5667  1.6142
  331MOL0     H43674   6.916   7.373   3.814  0.0874  0.5515 -1.5080
  331MOL0     H43675   7.033   7.451   4.009  0.3622 -1.9069 -0.2063
  331MOL0     H43676   6.947   7.495   4.563  0.2083 -2.1125 -1.6693
  331MOL0     H43677   7.141   7.528   4.716 -0.5074 -0.6250 -0.4960
  331MOL0     H43678   7.237   7.435   5.351  0.3028 -0.2974  0.0334
  331MOL0     H43679   6.998   7.460   5.274  0.5902  0.9242 -0.5074
  331MOL0     H43680   6.772   7.258   4.768 -2.6475  0.5462 -1.4797
  331MOL0     H43681   6.547   7.158   4.775 -0.2366 -2.4160  1.9155
  331MOL0     H43682   6.358   7.075   4.797 -0.2599 -0.4660 -1.2226
  331MOL0     H43683   6.305   7.244   4.784 -0.2102  0.0938  1.1370
  331MOL0     H43684   6.129   7.188   4.946 -3.2887 -3.8147  2.6600
  331MOL0     H43685   6.098   7.142   4.778  0.2626 -1.5572 -0.8145
  331MOL0     H43686   6.214   6.963   5.007 -0.8152  3.4683  0.0872
  331MOL0     H43687   6.188   6.899   4.850 -1.6043 -2.3432  1.0280
  331MOL0     H43688   5.993   6.841   4.992 -1.1709 -0.4735 -0.4583
  331MOL0     H43689   5.967   7.006   5.043 -1.9943 -0.8454 -0.5308
  331MOL0     H43690   5.765   6.997   4.693  0.5701  2.6433  0.3160
  331MOL0     H43691   6.493   7.319   5.169 -1.1375 -0.6619 -0.0566
  331MOL0     H43692   6.711   7.416   5.168  2.1928  0.1363 -0.5515
  332MOL0     O43693  10.600   0.723   4.228 -1.2887 -0.3963 -0.0671
  332MOL0     C43694  10.686   0.815   4.259 -0.1003  0.2241 -0.3220
  332MOL0     O43695  10.697   0.883   4.376  0.1658 -0.1570  0.1905
  332MOL0     C43696  10.592   0.908   4.461 -0.0185 -0.0698  0.4510
  332MOL0     C43697  10.610   0.878   4.597 -0.5244  0.0160  0.6233
  332MOL0     C43698  10.501   0.889   4.682 -0.2753 -0.5616 -0.4374
  332MOL0     C43699  10.379   0.928   4.627  1.4229 -0.3195 -0.7191
  332MOL0     O43700  10.263   0.954   4.704  0.0975  0.1424 -0.4934
  332MOL0     C43701  10.270   1.059   4.799 -0.3982  0.3930  0.8004
  332MOL0     C43702  10.154   1.162   4.774 -0.4601 -0.9331 -0.9548
  332MOL0     C43703  10.018   1.114   4.837 -0.2731 -0.5813 -0.8102
  332MOL0     C43704   9.914   1.223   4.850  0.0974  0.1379 -0.6349
  332MOL0     C43705   9.780   1.163   4.884 -0.5821 -0.1591  0.5008
  332MOL0     C43706   9.668   1.267   4.900  0.1628  0.6834 -0.5491
  332MOL0     C43707   9.529   1.209   4.918 -0.6223 -0.4640  0.7012
  332MOL0     C43708   9.437   1.309   4.994 -0.7406  0.4279 -0.0781
  332MOL0     N43709   9.310   1.248   5.034  0.6963  0.6307 -0.3543
  332MOL0     C43710   9.293   1.149   5.130 -0.4362 -0.5695  0.5938
  332MOL0     C43711   9.157   1.150   5.156 -0.4298 -0.0822  0.3369
  332MOL0     C43712   9.093   1.056   5.257  0.0084 -0.4842  0.3523
  332MOL0     C43713   8.960   1.105   5.280  0.0801 -0.1213 -0.8240
  332MOL0     C43714   8.906   1.025   5.395  0.3936 -0.4176 -0.0541
  332MOL0     C43715   8.755   1.010   5.380  1.5543  0.2877  0.4086
  332MOL0     O43716   8.721   0.905   5.468 -0.2510  0.6511 -0.8452
  332MOL0     C43717   8.588   0.878   5.486  0.4200 -0.1844 -0.3667
  332MOL0     C43718   8.481   0.954   5.441 -0.3135 -1.1761  0.7711
  332MOL0     C43719   8.353   0.935   5.481  0.2308  0.2028  0.8347
  332MOL0     C43720   8.320   0.831   5.561 -0.5013  0.6628  0.2525
  332MOL0     C43721   8.180   0.803   5.607  0.6257  0.1687 -0.4573
  332MOL0     O43722   8.079   0.880   5.547 -0.2933  0.3469 -0.0837
  332MOL0     C43723   7.948   0.845   5.558 -0.1523  0.1135 -0.5243
  332MOL0     C43724   7.876   0.818   5.680  0.2094  0.2805 -0.3469
  332MOL0     C43725   7.734   0.799   5.659 -0.6042  1.7973 -0.4657
  332MOL0     C43726   7.680   0.812   5.534 -0.1402  0.2883  0.6167
  332MOL0     O43727   7.539   0.798   5.531 -0.0862 -0.4936 -0.1646
  332MOL0     C43728   7.499   0.671   5.573 -0.3699 -0.1102 -1.1661
  332MOL0     C43729   7.349   0.669   5.534 -0.3123  0.5596 -0.4917
  332MOL0     C43730   7.257   0.566   5.612  0.3662  0.7968  0.4035
  332MOL0     C43731   7.293   0.412   5.593 -0.2674  0.7391 -0.3539
  332MOL0     C43732   7.171   0.324   5.619 -0.1304 -0.3059  0.2857
  332MOL0     C43733   7.114   0.336   5.761 -1.0018  0.2955  0.1131
  332MOL0     C43734   6.993   0.249   5.774 -0.6581  0.6650 -0.2532
  332MOL0     C43735   6.923   0.267   5.915  0.2364 -0.3339  1.0634
  332MOL0    Cl43736   7.031   0.232   6.049 -0.0267  0.4549 -0.3200
  332MOL0     C43737   7.753   0.822   5.414 -0.0705 -0.4923  0.0528
  332MOL0     C43738   7.890   0.850   5.428 -0.3042 -0.1226  0.3621
  332MOL0     O43739   8.159   0.703   5.682  0.2846  0.2714  0.3021
  332MOL0     C43740   8.425   0.744   5.607  0.5484 -0.0651  0.0760
  332MOL0     C43741   8.554   0.772   5.570  0.4760 -0.9028 -1.0556
  332MOL0     N43742   9.089   1.246   5.082 -0.8438 -0.3511  0.4871
  332MOL0     N43743   9.181   1.304   5.016  0.2064 -0.3916  0.3574
  332MOL0     C43744  10.360   0.963   4.490  0.7931  0.5501  1.0054
  332MOL0     C43745  10.469   0.949   4.406 -0.3312 -0.0602 -1.6393
  332MOL0     C43746  10.812   0.813   4.177 -0.8772 -1.1028  0.0723
  332MOL0     C43747  10.913   0.912   4.190  0.5097 -0.3019 -0.6857
  332MOL0     C43748  11.038   0.896   4.131  0.9665  0.0741  0.1281
  332MOL0     C43749  11.068   0.789   4.056 -0.3204 -0.4635 -0.1333
  332MOL0     O43750  11.196   0.788   4.001 -0.0839  0.0855  0.0692
  332MOL0     C43751  11.220   0.751   3.860 -0.2837  0.2334  0.7256
  332MOL0     C43752  11.147   0.849   3.776  0.1648 -0.3686  0.5331
  332MOL0     C43753  11.182   0.994   3.816 -0.4500 -0.3197  0.6741
  332MOL0     C43754  11.113   1.096   3.718 -0.5970 -0.4160  0.1527
  332MOL0     C43755  11.218   1.119   3.614  2.1387  0.2367  0.2750
  332MOL0     C43756  11.296   1.145   3.532 -0.7494 -0.0309 -0.5077
  332MOL0     C43757  10.969   0.690   4.040  0.2484 -1.0537 -0.0565
  332MOL0     C43758  10.848   0.701   4.100 -0.2254  0.1000 -0.1341
  332MOL0     H43759  10.699   0.828   4.632  0.0076  1.3928  1.3399
  332MOL0     H43760  10.506   0.882   4.791  2.5707  0.3417 -0.4282
  332MOL0     H43761  10.366   1.109   4.786 -0.9275  0.8791 -2.0268
  332MOL0     H43762  10.251   1.007   4.893 -3.0874 -2.1886 -0.9896
  332MOL0     H43763  10.142   1.173   4.666  1.2020  0.8665 -1.0092
  332MOL0     H43764  10.189   1.249   4.829 -1.1875 -0.7490 -0.7714
  332MOL0     H43765  10.024   1.086   4.943  2.0211 -1.1835 -1.0458
  332MOL0     H43766   9.983   1.029   4.778 -2.8254 -0.3245  0.1843
  332MOL0     H43767   9.949   1.298   4.921  0.0680 -0.4966  0.0593
  332MOL0     H43768   9.891   1.280   4.759 -1.6588 -0.9734 -0.9467
  332MOL0     H43769   9.790   1.099   4.973  0.0565 -0.7988 -0.0234
  332MOL0     H43770   9.741   1.099   4.804 -0.8675  0.8373 -0.1685
  332MOL0     H43771   9.673   1.318   4.803  1.6572  1.2657 -0.1960
  332MOL0     H43772   9.698   1.334   4.981  0.7345 -0.2804  0.0519
  332MOL0     H43773   9.495   1.179   4.819 -0.2712 -1.2124  0.8048
  332MOL0     H43774   9.522   1.119   4.980  1.6949  0.4661  2.4784
  332MOL0     H43775   9.405   1.399   4.941 -2.1814  1.2514  2.0479
  332MOL0     H43776   9.496   1.337   5.082 -0.7046  1.9834 -0.5552
  332MOL0     H43777   9.368   1.086   5.176  1.5109  1.8525  0.9385
  332MOL0     H43778   9.148   1.041   5.350 -1.0699 -1.4301  0.8647
  332MOL0     H43779   9.091   0.955   5.213  3.2420 -0.1476 -0.7737
  332MOL0     H43780   8.902   1.087   5.189 -1.5868 -1.6628  0.4685
  332MOL0     H43781   8.959   1.207   5.319 -0.1269 -1.2641  2.5634
  332MOL0     H43782   8.944   0.923   5.397 -0.0006 -0.5467  1.5851
  332MOL0     H43783   8.927   1.081   5.486 -2.5594 -0.4160  0.7085
  332MOL0     H43784   8.734   0.978   5.278  0.6943 -1.8803  1.2021
  332MOL0     H43785   8.701   1.105   5.386  2.0586  1.0311 -3.9173
  332MOL0     H43786   8.495   1.035   5.371  1.2153 -0.7848  1.4750
  332MOL0     H43787   8.274   0.995   5.437 -1.4071 -1.9477  0.6554
  332MOL0     H43788   7.944   0.830   5.764  0.4741  2.2102 -0.7835
  332MOL0     H43789   7.676   0.784   5.749  1.5112  0.3200  0.7287
  332MOL0     H43790   7.499   0.667   5.683  1.2063 -2.1007 -1.1730
  332MOL0     H43791   7.563   0.593   5.531  2.3588  0.7946  0.9991
  332MOL0     H43792   7.341   0.660   5.426 -2.3266  0.4879 -0.3581
  332MOL0     H43793   7.304   0.765   5.560  2.5122  1.0010  3.9511
  332MOL0     H43794   7.153   0.583   5.582 -1.0650 -3.3414  2.3655
  332MOL0     H43795   7.261   0.583   5.720  2.2241 -3.0049  1.1000
  332MOL0     H43796   7.321   0.392   5.489  1.4173 -0.4095  0.2714
  332MOL0     H43797   7.382   0.382   5.649  0.8530  1.3573 -1.7334
  332MOL0     H43798   7.178   0.217   5.598 -3.8843 -1.0317  1.8894
  332MOL0     H43799   7.099   0.372   5.552 -0.8989  0.5993  1.7067
  332MOL0     H43800   7.083   0.437   5.790 -2.0324  0.0016  0.1050
  332MOL0     H43801   7.194   0.302   5.827 -0.7419 -2.3208 -1.4228
  332MOL0     H43802   6.925   0.283   5.696 -0.8776 -0.5315 -0.6106
  332MOL0     H43803   7.019   0.145   5.751 -2.9443  0.0879 -0.4546
  332MOL0     H43804   6.841   0.194   5.911  0.2217 -0.2723 -0.1195
  332MOL0     H43805   6.879   0.367   5.912 -0.9014 -0.7484 -3.7360
  332MOL0     H43806   7.709   0.824   5.315 -0.2351  4.1445 -0.0240
  332MOL0     H43807   7.939   0.888   5.338  0.3789 -1.3358  0.1999
  332MOL0     H43808   8.395   0.660   5.668  0.5664  0.6522  1.0897
  332MOL0     H43809   8.632   0.706   5.609  1.7150  0.6212 -0.8793
  332MOL0     H43810  10.268   1.006   4.452  0.7394 -0.6738 -0.3557
  332MOL0     H43811  10.470   0.946   4.297 -2.2661 -2.1855 -1.6846
  332MOL0     H43812  10.885   1.000   4.247 -0.5681 -0.5009 -0.8809
  332MOL0     H43813  11.114   0.973   4.140  1.3076 -0.3873  1.6108
  332MOL0     H43814  11.190   0.647   3.842 -1.6922  0.6107  0.7940
  332MOL0     H43815  11.327   0.760   3.841 -0.3157 -0.8946 -0.1187
  332MOL0     H43816  11.176   0.828   3.672 -1.5597  0.0228 -0.0666
  332MOL0     H43817  11.039   0.833   3.785  0.5413 -4.8435 -0.3024
  332MOL0     H43818  11.290   1.006   3.805 -0.6407 -0.7758 -2.7763
  332MOL0     H43819  11.162   1.016   3.921 -1.9513 -1.0591  0.5728
  332MOL0     H43820  11.014   1.057   3.690  0.1852 -3.7965  1.5527
  332MOL0     H43821  11.093   1.193   3.764  1.7803 -0.2439  0.9381
  332MOL0     H43822  11.375   1.158   3.460  2.6106 -0.8941  2.6982
  332MOL0     H43823  10.992   0.597   3.988 -0.4828 -0.6978 -1.0534
  332MOL0     H43824  10.784   0.614   4.087  1.5581 -1.2911  0.0085
  333MOL0     O43825   3.007   3.200   9.019  0.2188  0.3265 -0.4673
  333MOL0     C43826   3.036   3.084   8.996 -0.1667 -0.5634 -0.4766
  333MOL0     O43827   2.947   2.986   8.976 -0.0667  0.0126  0.3127
  333MOL0     C43828   2.811   3.010   8.979 -0.4615 -0.0567 -0.7866
  333MOL0     C43829   2.737   2.998   8.860 -0.3547  0.0761  0.6517
  333MOL0     C43830   2.600   3.020   8.858  0.7242 -0.8586  0.3766
  333MOL0     C43831   2.528   3.060   8.966  0.0852 -0.5890  0.3096
  333MOL0     O43832   2.393   3.061   8.955 -0.2043  0.1594 -0.2913
  333MOL0     C43833   2.335   3.160   9.037  0.5308 -0.0595  0.1500
  333MOL0     C43834   2.209   3.206   8.960 -0.8241 -0.5767  0.3466
  333MOL0     C43835   2.142   3.305   9.033 -0.0997 -0.3689 -0.8994
  333MOL0     C43836   2.024   3.359   8.961  0.3894 -0.7478 -0.5689
  333MOL0     C43837   1.939   3.441   9.057  0.8558 -0.2872 -0.0682
  333MOL0     C43838   1.817   3.502   8.987  0.1166 -0.1900  0.4680
  333MOL0     C43839   1.718   3.562   9.091 -0.1454 -0.3084  0.1703
  333MOL0     C43840   1.594   3.627   9.027 -0.0242 -0.5047 -0.4550
  333MOL0     N43841   1.496   3.692   9.117 -0.9173 -0.1713 -0.0526
  333MOL0     C43842   1.504   3.719   9.250  0.0439 -0.0743  0.0190
  333MOL0     C43843   1.384   3.763   9.280 -0.0416  0.4912 -0.6161
  333MOL0     C43844   1.352   3.828   9.418 -0.3063  0.0310  0.3417
  333MOL0     C43845   1.209   3.840   9.423 -0.2336 -0.5740  0.8084
  333MOL0     C43846   1.170   3.894   9.561 -0.6891 -0.1540  0.3161
  333MOL0     C43847   1.026   3.894   9.576  0.1416  0.6177  1.4619
  333MOL0     O43848   0.996   3.880   9.715 -0.3363  1.1352 -0.0972
  333MOL0     C43849   0.885   3.929   9.773  0.0051 -0.1252  0.7957
  333MOL0     C43850   0.887   3.956   9.911  0.5063  0.0831 -0.2562
  333MOL0     C43851   0.769   4.009   9.972  0.4624  0.4285  0.2036
  333MOL0     C43852   0.653   4.026   9.893 -0.1637  0.4460 -0.0099
  333MOL0     C43853   0.528   4.071   9.956  0.0033 -0.0603 -0.5001
  333MOL0     O43854   0.420   4.103   9.875 -0.2651 -0.1026 -0.1838
  333MOL0     C43855   0.305   4.156   9.918  1.3185 -0.3888  0.4006
  333MOL0     C43856   0.246   4.259   9.849  0.1882 -0.2714  0.2795
  333MOL0     C43857   0.115   4.309   9.877  0.3059  0.2493 -0.1807
  333MOL0     C43858   0.049   4.257   9.994  0.4152  1.0167  0.2576
  333MOL0     O43859  -0.068   4.304  10.036 -0.2521  0.3734 -0.1746
  333MOL0     C43860  -0.154   4.366   9.945  0.2243  0.8576  0.2550
  333MOL0     C43861  -0.297   4.369   9.993  0.4349 -0.4877 -0.5924
  333MOL0     C43862  -0.343   4.248  10.078 -0.7350 -0.2107  1.0203
  333MOL0     C43863  -0.488   4.250  10.099 -0.6722  0.4783  0.0789
  333MOL0     C43864  -0.537   4.325  10.225  0.2388  0.5073 -0.4329
  333MOL0     C43865  -0.685   4.332  10.238  0.6315 -1.0414  0.7434
  333MOL0     C43866  -0.725   4.386  10.368 -0.9646 -0.6126 -0.0605
  333MOL0     C43867  -0.878   4.396  10.380  0.2647 -0.4314 -0.0375
  333MOL0    Cl43868  -0.919   4.504  10.517 -0.0971 -0.4585  0.4585
  333MOL0     C43869   0.107   4.150  10.070  0.3825 -0.8106 -0.0411
  333MOL0     C43870   0.233   4.107  10.034 -0.2062 -0.5331  0.0947
  333MOL0     O43871   0.530   4.084  10.076 -0.5759  0.4319  0.5062
  333MOL0     C43872   0.651   3.989   9.756  0.3181 -0.3966 -0.2845
  333MOL0     C43873   0.774   3.951   9.702 -0.5398  0.0497 -0.0804
  333MOL0     N43874   1.300   3.746   9.177 -0.1391 -0.8863  0.1605
  333MOL0     N43875   1.368   3.699   9.081 -0.2621 -0.0597 -0.3399
  333MOL0     C43876   2.599   3.099   9.084 -0.6783  0.1373 -0.3811
  333MOL0     C43877   2.739   3.066   9.088  0.1391 -0.3226  0.3161
  333MOL0     C43878   3.172   3.055   8.988 -0.8555  0.0254 -0.3085
  333MOL0     C43879   3.224   2.937   9.044  0.1231 -0.0593  0.1849
  333MOL0     C43880   3.358   2.911   9.054  0.2081 -0.0671 -0.4528
  333MOL0     C43881   3.449   2.996   9.004  0.1312 -0.3390  0.0359
  333MOL0     O43882   3.582   2.980   9.021  0.6297 -0.1081 -0.6118
  333MOL0     C43883   3.651   2.891   8.933 -0.3033  0.4288  0.3263
  333MOL0     C43884   3.779   2.834   8.997  0.2147 -0.0339  0.4458
  333MOL0     C43885   3.861   2.753   8.893 -0.6824  0.6942  0.4150
  333MOL0     C43886   3.852   2.605   8.925  0.0357  0.2644  0.4912
  333MOL0     C43887   3.729   2.549   8.867  0.5702 -0.4093 -0.1630
  333MOL0     C43888   3.625   2.512   8.820  0.2992  0.3756 -0.2207
  333MOL0     C43889   3.402   3.115   8.955 -0.7074 -0.2802 -0.1886
  333MOL0     C43890   3.265   3.146   8.942  0.3612 -0.0501  0.1295
  333MOL0     H43891   2.782   2.957   8.771 -0.4834 -0.1009  0.6651
  333MOL0     H43892   2.545   2.998   8.766 -0.2305  2.3367  0.0624
  333MOL0     H43893   2.398   3.247   9.056  1.9329 -0.9516 -0.3432
  333MOL0     H43894   2.304   3.126   9.137  0.6671  3.3602  1.4736
  333MOL0     H43895   2.142   3.119   8.959 -2.1487  0.3900 -1.5833
  333MOL0     H43896   2.225   3.237   8.856 -0.1856 -0.6292  0.4264
  333MOL0     H43897   2.204   3.391   9.057  0.0944 -0.5747 -0.6499
  333MOL0     H43898   2.119   3.270   9.135  2.4572  3.9396  1.4658
  333MOL0     H43899   2.058   3.431   8.886 -0.7208 -1.9375 -2.2820
  333MOL0     H43900   1.955   3.292   8.909 -0.6796  0.8631 -1.2935
  333MOL0     H43901   1.998   3.523   9.102  0.2464 -0.4209  1.0036
  333MOL0     H43902   1.901   3.377   9.137 -2.0650  1.2602 -0.0846
  333MOL0     H43903   1.765   3.422   8.934  0.6638 -0.8364  0.8944
  333MOL0     H43904   1.851   3.577   8.915 -0.9570  1.2450  1.3924
  333MOL0     H43905   1.681   3.501   9.174 -3.9512 -0.7195 -1.6029
  333MOL0     H43906   1.777   3.645   9.133  1.3460 -0.6308 -1.1831
  333MOL0     H43907   1.543   3.547   8.971 -0.7181  0.6367 -1.5233
  333MOL0     H43908   1.640   3.703   8.963 -1.0119  0.9949  0.5551
  333MOL0     H43909   1.588   3.708   9.317  1.8704 -0.4890 -2.2399
  333MOL0     H43910   1.392   3.928   9.434 -5.5140  2.4343  0.2627
  333MOL0     H43911   1.382   3.754   9.494  0.0751  0.5828  0.7352
  333MOL0     H43912   1.157   3.752   9.385  0.0638 -0.0670 -0.8561
  333MOL0     H43913   1.173   3.911   9.349  2.3408 -0.4307 -0.4289
  333MOL0     H43914   1.218   3.829   9.634 -0.1063 -0.4259 -0.2993
  333MOL0     H43915   1.193   4.001   9.562 -1.5660  0.0462  2.0272
  333MOL0     H43916   0.983   3.808   9.525  2.2792 -0.9546  2.1746
  333MOL0     H43917   0.981   3.982   9.529  1.0605  0.0286 -0.6510
  333MOL0     H43918   0.971   3.940   9.977  1.1037  2.1831 -0.4345
  333MOL0     H43919   0.779   4.025  10.079  2.0484 -2.1325  0.5484
  333MOL0     H43920   0.300   4.298   9.763  0.4186  2.7504  1.6376
  333MOL0     H43921   0.075   4.381   9.807 -1.1027  0.5576  0.8969
  333MOL0     H43922  -0.148   4.310   9.852  0.6811  1.8730 -0.3416
  333MOL0     H43923  -0.128   4.470   9.921 -1.0204  1.1201 -0.0616
  333MOL0     H43924  -0.356   4.391   9.904  0.7534  3.7937  0.0269
  333MOL0     H43925  -0.313   4.455  10.059  2.2561  0.1256 -0.8763
  333MOL0     H43926  -0.286   4.227  10.169 -0.6980 -1.7576  0.6657
  333MOL0     H43927  -0.327   4.166  10.007  0.3960  0.5365  0.4027
  333MOL0     H43928  -0.539   4.290  10.010 -0.4666 -1.8836 -1.1946
  333MOL0     H43929  -0.526   4.147  10.102 -2.8342  1.1894 -0.9100
  333MOL0     H43930  -0.486   4.421  10.237 -2.3630  1.9513 -0.0831
  333MOL0     H43931  -0.505   4.274  10.316  3.2305  0.4615 -1.4138
  333MOL0     H43932  -0.732   4.236  10.216 -0.8752  0.2712 -2.4911
  333MOL0     H43933  -0.713   4.392  10.150  3.8956  1.0739  0.9737
  333MOL0     H43934  -0.691   4.320  10.448 -1.1951 -1.6787 -0.8133
  333MOL0     H43935  -0.673   4.482  10.374  0.1426 -1.1413 -0.9297
  333MOL0     H43936  -0.922   4.296  10.390  0.3529 -0.2447  3.0853
  333MOL0     H43937  -0.923   4.430  10.286 -0.8781 -0.5485  0.4598
  333MOL0     H43938   0.061   4.112  10.161  1.8768 -3.1456 -0.1722
  333MOL0     H43939   0.273   4.029  10.098  0.2938 -1.1080 -0.9005
  333MOL0     H43940   0.556   3.982   9.703 -0.4067  0.2489  0.8817
  333MOL0     H43941   0.787   3.911   9.602 -0.1272  0.4169 -0.1772
  333MOL0     H43942   2.557   3.135   9.177  1.3303  1.3065  0.1253
  333MOL0     H43943   2.788   3.085   9.182  1.9926 -0.4739 -0.5864
  333MOL0     H43944   3.162   2.861   9.092 -0.0893 -0.6323 -0.9475
  333MOL0     H43945   3.380   2.818   9.105  0.7665  1.2201  1.8106
  333MOL0     H43946   3.680   2.952   8.847 -1.4083 -1.6164 -1.5907
  333MOL0     H43947   3.590   2.807   8.900 -0.0088  0.4489 -0.2868
  333MOL0     H43948   3.842   2.921   9.018 -1.6743  1.3170  0.7773
  333MOL0     H43949   3.758   2.781   9.091 -1.0434 -1.8290 -0.7707
  333MOL0     H43950   3.968   2.778   8.895 -0.6786  0.9417 -1.4301
  333MOL0     H43951   3.827   2.772   8.791 -0.5613 -0.8356  0.0573
  333MOL0     H43952   3.938   2.553   8.882  0.7921  1.6839  0.2373
  333MOL0     H43953   3.848   2.587   9.033  2.2477  0.0499  0.5838
  333MOL0     H43954   3.526   2.495   8.782  0.3805 -1.4049  0.3290
  333MOL0     H43955   3.479   3.176   8.909  0.7757 -3.6626 -2.6662
  333MOL0     H43956   3.243   3.249   8.913  0.6603  0.6347  2.1307
  334MOL0     O43957   1.676   0.191   8.028  0.4607 -0.0111 -0.0864
  334MOL0     C43958   1.655   0.184   8.153 -0.1816  0.7023  0.2691
  334MOL0     O43959   1.731   0.114   8.242 -0.7896  0.6692 -0.0348
  334MOL0     C43960   1.858   0.070   8.210  0.0658 -0.0206  1.4252
  334MOL0     C43961   1.888  -0.056   8.259 -0.4253  0.5160  0.0962
  334MOL0     C43962   2.016  -0.112   8.275  0.9326 -0.4096 -0.4693
  334MOL0     C43963   2.116  -0.038   8.214  0.9186  0.6879  0.1052
  334MOL0     O43964   2.240  -0.092   8.227 -0.1523 -0.0044 -0.5465
  334MOL0     C43965   2.292  -0.128   8.096  0.1360 -0.5641 -0.0070
  334MOL0     C43966   2.438  -0.172   8.127  0.8099 -0.9862  1.1371
  334MOL0     C43967   2.544  -0.068   8.165 -0.3291  0.4565 -0.4596
  334MOL0     C43968   2.680  -0.146   8.166 -0.1740  0.4995  0.1009
  334MOL0     C43969   2.798  -0.057   8.129 -0.0032 -0.1070 -0.4950
  334MOL0     C43970   2.919  -0.132   8.111  0.1341  0.4558  0.0108
  334MOL0     C43971   2.971  -0.194   8.240  0.4190 -0.2113  0.7880
  334MOL0     C43972   3.007  -0.343   8.221  0.0498  1.4426  0.2396
  334MOL0     N43973   2.906  -0.434   8.160 -0.3174 -0.3318  0.7103
  334MOL0     C43974   2.791  -0.471   8.220 -0.0626  0.1799 -1.0444
  334MOL0     C43975   2.723  -0.532   8.127  0.8170 -0.4164  0.6040
  334MOL0     C43976   2.590  -0.597   8.133 -0.3027 -0.9942 -0.0219
  334MOL0     C43977   2.545  -0.640   8.278 -0.2568  0.2962  0.3483
  334MOL0     C43978   2.421  -0.737   8.275 -0.5419  0.4537  0.8540
  334MOL0     C43979   2.298  -0.673   8.229 -0.0178  0.4413  0.7228
  334MOL0     O43980   2.242  -0.594   8.338  0.3551  0.1770  0.7455
  334MOL0     C43981   2.116  -0.544   8.306  0.1560  1.2852 -0.4764
  334MOL0     C43982   2.084  -0.498   8.181  0.2607 -0.2101  0.1135
  334MOL0     C43983   1.952  -0.454   8.150 -0.5097 -0.5669 -0.4025
  334MOL0     C43984   1.856  -0.447   8.257  0.2239 -0.2169 -0.1575
  334MOL0     C43985   1.720  -0.400   8.232 -0.1113  0.3412  1.0714
  334MOL0     O43986   1.655  -0.346   8.339  0.5247  0.0812 -0.0796
  334MOL0     C43987   1.541  -0.270   8.333 -0.5568 -0.2788  0.3906
  334MOL0     C43988   1.502  -0.212   8.212  0.1013 -0.5318  0.2295
  334MOL0     C43989   1.381  -0.141   8.209  0.1714  1.1447 -0.2534
  334MOL0     C43990   1.292  -0.145   8.319 -0.4767 -0.6484 -0.2772
  334MOL0     O43991   1.164  -0.097   8.320 -0.1738  0.8284  0.3865
  334MOL0     C43992   1.130  -0.004   8.215  0.0295 -0.6960  0.2675
  334MOL0     C43993   1.009   0.071   8.285  0.1406 -0.0085 -0.2415
  334MOL0     C43994   0.970   0.193   8.204  0.0744  0.4146  0.5714
  334MOL0     C43995   0.864   0.273   8.277  0.0855  0.4241 -0.2056
  334MOL0     C43996   0.802   0.393   8.188 -0.0064 -0.1792 -0.7505
  334MOL0     C43997   0.693   0.461   8.271 -0.3899 -0.4103 -0.2178
  334MOL0     C43998   0.603   0.533   8.170 -0.4932  0.0609 -0.3325
  334MOL0     C43999   0.475   0.591   8.243  0.0488 -0.2122 -0.4498
  334MOL0    Cl44000   0.370   0.679   8.129  0.0835 -0.3237 -0.1873
  334MOL0     C44001   1.343  -0.192   8.445 -0.7291  0.4071 -0.0517
  334MOL0     C44002   1.465  -0.256   8.446  0.0365  0.8762  0.3943
  334MOL0     O44003   1.679  -0.424   8.113  0.2779 -0.1820  0.3405
  334MOL0     C44004   1.891  -0.487   8.387 -0.0132  0.6030 -0.5779
  334MOL0     C44005   2.019  -0.531   8.409 -0.3211  0.2579  0.1927
  334MOL0     N44006   2.807  -0.552   8.014 -0.5359 -1.0694 -0.3094
  334MOL0     N44007   2.912  -0.479   8.033  0.2195 -0.0786 -0.0232
  334MOL0     C44008   2.082   0.082   8.141  0.3305  0.1787  0.1015
  334MOL0     C44009   1.957   0.139   8.139  0.4926  0.2351  0.0456
  334MOL0     C44010   1.539   0.269   8.207  0.0342  0.2169  0.2504
  334MOL0     C44011   1.491   0.248   8.337 -0.6633 -0.4455 -0.1548
  334MOL0     C44012   1.388   0.329   8.382 -0.0693  0.0689  0.7883
  334MOL0     C44013   1.327   0.427   8.311  0.5614 -0.6573 -0.4872
  334MOL0     O44014   1.234   0.522   8.355 -0.8931 -0.4957  0.3037
  334MOL0     C44015   1.175   0.506   8.487  0.0466  1.0401  0.4924
  334MOL0     C44016   1.076   0.616   8.492  0.3590 -0.2558  0.7231
  334MOL0     C44017   1.051   0.658   8.630 -0.6218 -0.1284 -0.3208
  334MOL0     C44018   0.942   0.761   8.642  0.8831 -0.5693  0.3094
  334MOL0     C44019   0.810   0.697   8.614  1.4950 -0.0507  0.5687
  334MOL0     C44020   0.692   0.663   8.591 -0.5682  0.4498 -0.0559
  334MOL0     C44021   1.379   0.448   8.178  0.9434  0.0245  0.4597
  334MOL0     C44022   1.483   0.372   8.129  0.3145  0.1266  0.1097
  334MOL0     H44023   1.804  -0.106   8.308  0.9321  0.4070  2.4303
  334MOL0     H44024   2.031  -0.212   8.315 -2.2440 -0.0404  2.0666
  334MOL0     H44025   2.290  -0.049   8.021  0.1906 -2.1478 -1.7368
  334MOL0     H44026   2.244  -0.219   8.059 -0.1674 -0.1809 -0.5502
  334MOL0     H44027   2.468  -0.229   8.038  0.8333 -2.3248  1.9770
  334MOL0     H44028   2.442  -0.241   8.211  0.8051  1.6607  3.4551
  334MOL0     H44029   2.524  -0.019   8.260 -1.7369  1.4621 -1.2416
  334MOL0     H44030   2.548   0.016   8.095  1.4642  1.7653  1.1430
  334MOL0     H44031   2.704  -0.180   8.267  3.7744  1.6825 -0.2928
  334MOL0     H44032   2.678  -0.229   8.095 -3.0798 -0.1567  0.8185
  334MOL0     H44033   2.829   0.014   8.206  2.0481  0.4536 -1.7604
  334MOL0     H44034   2.761  -0.012   8.036 -3.5846 -0.3744  0.6431
  334MOL0     H44035   2.997  -0.065   8.075  0.8551 -0.7088 -0.6819
  334MOL0     H44036   2.902  -0.201   8.027  1.9121  1.4412 -1.2313
  334MOL0     H44037   3.061  -0.139   8.269 -0.3124  1.0174  0.7794
  334MOL0     H44038   2.899  -0.179   8.321 -2.8377 -1.5760 -1.6202
  334MOL0     H44039   3.030  -0.388   8.318 -0.3879  0.4548 -0.1090
  334MOL0     H44040   3.092  -0.353   8.152 -1.0209 -0.3120 -0.9147
  334MOL0     H44041   2.758  -0.460   8.323 -0.5604 -1.9643 -0.9158
  334MOL0     H44042   2.600  -0.678   8.060  2.0619  1.3974 -2.6210
  334MOL0     H44043   2.509  -0.534   8.094 -1.3153 -2.9863 -1.3323
  334MOL0     H44044   2.521  -0.557   8.344 -0.4142 -1.3980  2.5419
  334MOL0     H44045   2.631  -0.697   8.316 -0.1037  0.4037  0.1675
  334MOL0     H44046   2.446  -0.826   8.216  0.9606  2.1682 -1.2887
  334MOL0     H44047   2.403  -0.764   8.379 -2.4554  2.0482  1.0009
  334MOL0     H44048   2.227  -0.754   8.213  0.7499 -0.2073  0.5557
  334MOL0     H44049   2.326  -0.613   8.142 -2.1844 -1.5290 -1.4914
  334MOL0     H44050   2.159  -0.495   8.102  1.4016  0.3231  1.1765
  334MOL0     H44051   1.942  -0.405   8.054  0.1820  1.0765  0.3338
  334MOL0     H44052   1.557  -0.215   8.119  0.8959  1.1830  0.6015
  334MOL0     H44053   1.339  -0.103   8.116  0.3441 -0.4930 -1.0189
  334MOL0     H44054   1.104  -0.058   8.123  0.2546  2.1474 -1.5896
  334MOL0     H44055   1.206   0.072   8.194 -0.0476 -1.2601 -2.4165
  334MOL0     H44056   1.041   0.112   8.381  1.0227  2.2248 -1.4334
  334MOL0     H44057   0.928  -0.002   8.290 -1.5822  1.7340 -1.2747
  334MOL0     H44058   0.941   0.182   8.099  1.7218  1.1084  0.0067
  334MOL0     H44059   1.059   0.257   8.196  1.1406 -1.1940 -1.0988
  334MOL0     H44060   0.784   0.217   8.325  0.4155  1.2628  1.3677
  334MOL0     H44061   0.902   0.327   8.364 -1.3238  1.3308 -0.1177
  334MOL0     H44062   0.761   0.356   8.093  2.3729 -0.8097 -1.6058
  334MOL0     H44063   0.879   0.466   8.160  1.4442 -1.3843 -0.0498
  334MOL0     H44064   0.733   0.546   8.327 -0.5630 -0.3700 -0.1568
  334MOL0     H44065   0.642   0.386   8.332  1.2350 -2.4319 -1.2403
  334MOL0     H44066   0.662   0.619   8.138 -0.5796  0.5314  0.7250
  334MOL0     H44067   0.570   0.471   8.086  0.7851 -1.0358 -0.0603
  334MOL0     H44068   0.504   0.668   8.315 -1.5284 -0.6163  0.6653
  334MOL0     H44069   0.422   0.511   8.295  2.8258 -1.1314  1.1489
  334MOL0     H44070   1.288  -0.173   8.537  3.3608  1.8829  2.3825
  334MOL0     H44071   1.502  -0.304   8.536 -3.2753 -2.2727  0.3118
  334MOL0     H44072   1.829  -0.463   8.473  2.2439 -0.0628  1.3629
  334MOL0     H44073   2.056  -0.537   8.511  0.5698 -0.6090 -0.1675
  334MOL0     H44074   2.177   0.131   8.122  0.7670 -0.7423 -0.1446
  334MOL0     H44075   1.944   0.237   8.094  2.7812  0.2416 -0.7488
  334MOL0     H44076   1.552   0.185   8.401  2.1654  0.6114 -1.5926
  334MOL0     H44077   1.349   0.290   8.475  0.7799  2.7979  2.4199
  334MOL0     H44078   1.246   0.514   8.570 -1.1032 -1.9774  1.9134
  334MOL0     H44079   1.129   0.407   8.486 -0.0105  1.0398  1.8607
  334MOL0     H44080   1.117   0.704   8.442 -0.3626 -0.0580  0.4735
  334MOL0     H44081   0.989   0.583   8.436  1.4440  0.9067 -1.7864
  334MOL0     H44082   1.145   0.691   8.675 -0.5075 -1.1388  0.2298
  334MOL0     H44083   1.024   0.565   8.682  0.3462 -0.7591 -0.9160
  334MOL0     H44084   0.932   0.808   8.740 -1.1030 -2.0700  0.8899
  334MOL0     H44085   0.968   0.841   8.573 -0.3121  1.0993  1.6995
  334MOL0     H44086   0.604   0.621   8.547  2.7007 -3.4962 -3.8335
  334MOL0     H44087   1.331   0.531   8.127 -0.5189 -0.0838  1.5909
  334MOL0     H44088   1.525   0.388   8.030 -0.8433  0.4354 -0.3458
  335MOL0     O44089   8.441  10.599   9.033 -0.5586 -0.5370 -0.7993
  335MOL0     C44090   8.503  10.648   8.937  0.3192 -0.0154 -0.5225
  335MOL0     O44091   8.446  10.738   8.849 -0.5060 -1.1454 -0.2316
  335MOL0     C44092   8.315  10.761   8.858  0.2478  0.3425  0.8774
  335MOL0     C44093   8.231  10.737   8.751  0.4127  0.4628  0.4070
  335MOL0     C44094   8.099  10.784   8.748  0.1343  0.1253  0.2362
  335MOL0     C44095   8.049  10.855   8.853  0.1603 -0.5376 -0.0890
  335MOL0     O44096   7.917  10.895   8.840  0.0953  0.5360 -0.2434
  335MOL0     C44097   7.881  11.032   8.878 -0.4242  0.4984  0.1466
  335MOL0     C44098   7.821  11.045   9.015  0.6789 -0.1131  0.9953
  335MOL0     C44099   7.678  10.987   9.004 -0.2990  0.3403 -0.6252
  335MOL0     C44100   7.605  11.030   9.133 -0.5451 -0.8026  0.0502
  335MOL0     C44101   7.454  11.000   9.129  0.6829  0.6555 -0.4396
  335MOL0     C44102   7.397  11.020   9.280 -0.4746 -0.0136 -0.2523
  335MOL0     C44103   7.251  10.997   9.294  0.5699 -0.3788  0.2395
  335MOL0     C44104   7.166  11.094   9.208  0.0745 -0.1958 -0.6944
  335MOL0     N44105   7.025  11.111   9.259  0.4203 -0.5180  0.6489
  335MOL0     C44106   6.912  11.043   9.227 -0.4586 -1.3867 -0.1633
  335MOL0     C44107   6.815  11.080   9.309 -0.7597  0.5806  0.3826
  335MOL0     C44108   6.669  11.041   9.308  0.0906 -0.2795  0.1940
  335MOL0     C44109   6.589  11.137   9.229  0.7785  0.0194  0.8376
  335MOL0     C44110   6.444  11.114   9.269  0.0480 -0.0159 -0.0468
  335MOL0     C44111   6.335  11.195   9.203 -0.0267  0.0874 -0.9386
  335MOL0     O44112   6.216  11.172   9.279  0.6854  0.3216  0.4286
  335MOL0     C44113   6.094  11.208   9.217  0.9029  0.8923  0.0628
  335MOL0     C44114   6.069  11.278   9.098  0.4536  0.1633 -0.2610
  335MOL0     C44115   5.931  11.303   9.058 -0.2279 -0.5194 -0.1393
  335MOL0     C44116   5.825  11.254   9.134 -0.1227  0.2829 -0.4187
  335MOL0     C44117   5.683  11.285   9.118 -0.3601 -0.4243  0.1084
  335MOL0     O44118   5.599  11.255   9.220  0.5243  0.6381 -0.4485
  335MOL0     C44119   5.463  11.252   9.193 -0.6752  0.7885 -0.1311
  335MOL0     C44120   5.388  11.374   9.158  0.8410  0.5866  0.1000
  335MOL0     C44121   5.253  11.352   9.119 -1.0734  0.5801  0.0553
  335MOL0     C44122   5.184  11.228   9.133  0.1705 -0.2179  0.9370
  335MOL0     O44123   5.054  11.208   9.105  0.4691 -0.7894  0.7883
  335MOL0     C44124   5.024  11.130   8.991 -0.2198 -0.0191 -0.0268
  335MOL0     C44125   4.920  11.031   9.054 -0.2816 -0.4767 -0.0288
  335MOL0     C44126   4.847  10.933   8.962  0.1746 -0.1270 -0.3741
  335MOL0     C44127   4.754  10.837   9.037 -0.2484  0.4885 -0.8485
  335MOL0     C44128   4.605  10.879   9.060 -0.4741 -0.7590  0.3270
  335MOL0     C44129   4.512  10.765   9.108  0.0284  0.6806  0.3470
  335MOL0     C44130   4.468  10.660   9.008  0.0275  0.9336  0.2485
  335MOL0     C44131   4.332  10.594   9.033  0.4587  0.4563 -0.7209
  335MOL0    Cl44132   4.319  10.480   8.900 -0.3902 -0.0491  0.3684
  335MOL0     C44133   5.255  11.113   9.183  0.1615  0.0430  0.1783
  335MOL0     C44134   5.392  11.126   9.203 -0.2966  0.0354  0.9048
  335MOL0     O44135   5.651  11.333   9.013  0.8531 -0.1941  0.1609
  335MOL0     C44136   5.861  11.181   9.248  0.3772 -0.0119  0.6153
  335MOL0     C44137   5.988  11.155   9.292 -0.5001 -0.7209  0.1276
  335MOL0     N44138   6.870  11.171   9.400 -0.8191  0.2729 -0.5748
  335MOL0     N44139   6.987  11.182   9.369  0.6008  0.3870  0.2813
  335MOL0     C44140   8.127  10.880   8.971 -0.5885  1.1850 -0.2177
  335MOL0     C44141   8.262  10.834   8.962 -0.2290  0.0972  0.3384
  335MOL0     C44142   8.639  10.601   8.902 -0.3374  0.6621 -0.2063
  335MOL0     C44143   8.722  10.681   8.821  0.2044 -0.3004  0.0957
  335MOL0     C44144   8.851  10.635   8.786  0.2484 -0.1687 -0.1647
  335MOL0     C44145   8.899  10.509   8.826 -1.0001 -0.1537 -0.4983
  335MOL0     O44146   9.021  10.467   8.771  0.6567 -0.1733 -0.2271
  335MOL0     C44147   9.134  10.537   8.834  0.1333 -0.7569  0.2566
  335MOL0     C44148   9.248  10.446   8.876 -0.1998 -0.9771  0.7362
  335MOL0     C44149   9.348  10.521   8.955 -0.2260 -0.0616  0.0791
  335MOL0     C44150   9.481  10.440   8.970  1.3809 -0.0812  0.2401
  335MOL0     C44151   9.463  10.379   9.104 -0.0753 -0.5597 -0.5698
  335MOL0     C44152   9.442  10.352   9.220 -0.1584 -0.1522 -0.0586
  335MOL0     C44153   8.810  10.427   8.910 -0.5880  0.3635  0.2933
  335MOL0     C44154   8.691  10.482   8.952 -0.5883 -0.0122  0.1061
  335MOL0     H44155   8.267  10.676   8.669 -0.4003 -0.6641  0.8741
  335MOL0     H44156   8.031  10.761   8.666 -1.8276  4.1822  0.4655
  335MOL0     H44157   7.802  11.074   8.815 -0.3467 -0.1308 -0.3786
  335MOL0     H44158   7.958  11.110   8.871 -0.8585  0.8705 -0.5945
  335MOL0     H44159   7.824  11.151   9.043  1.2516 -0.0564  0.7523
  335MOL0     H44160   7.884  10.988   9.084  2.4013  0.7344  0.2038
  335MOL0     H44161   7.693  10.879   8.994  0.5897  0.4649 -0.7403
  335MOL0     H44162   7.621  11.043   8.930 -2.1990 -1.6152 -0.7284
  335MOL0     H44163   7.647  10.973   9.216 -0.1632  0.4563  0.7426
  335MOL0     H44164   7.626  11.136   9.148 -1.9744 -0.1387 -2.2352
  335MOL0     H44165   7.436  10.899   9.091  1.3743  0.2383  0.2865
  335MOL0     H44166   7.426  11.079   9.059  1.4437  3.6215  2.3732
  335MOL0     H44167   7.415  11.125   9.308 -1.8895 -0.1863  1.4432
  335MOL0     H44168   7.460  10.968   9.352 -2.7043 -0.5521  1.4163
  335MOL0     H44169   7.228  10.897   9.258 -0.0702  0.0883 -0.6871
  335MOL0     H44170   7.233  11.012   9.401 -1.2516  0.5618 -0.1595
  335MOL0     H44171   7.158  11.060   9.105  1.8999  1.1558 -1.3241
  335MOL0     H44172   7.208  11.195   9.207 -1.3820  0.4330 -1.0705
  335MOL0     H44173   6.901  10.972   9.146 -0.3214 -2.8449  1.0574
  335MOL0     H44174   6.643  11.050   9.414  0.9506  1.7969  0.2672
  335MOL0     H44175   6.662  10.935   9.281  2.4522 -1.1984  2.7088
  335MOL0     H44176   6.607  11.114   9.123  1.5833  2.7803  0.2971
  335MOL0     H44177   6.601  11.245   9.228 -3.3636  0.6390 -0.4726
  335MOL0     H44178   6.425  11.010   9.242  1.2203 -0.3902  0.4766
  335MOL0     H44179   6.432  11.126   9.377 -1.4574  2.6800 -0.4134
  335MOL0     H44180   6.321  11.160   9.101  0.9010  0.4402 -1.1911
  335MOL0     H44181   6.353  11.302   9.207 -2.5495  0.5655 -0.3213
  335MOL0     H44182   6.145  11.312   9.029 -1.2773 -1.0938 -2.9633
  335MOL0     H44183   5.911  11.370   8.975  1.4592  1.6320  1.0852
  335MOL0     H44184   5.427  11.472   9.129 -0.1682  0.4641 -1.8147
  335MOL0     H44185   5.190  11.431   9.079  0.0637  1.4698 -0.0248
  335MOL0     H44186   5.110  11.080   8.946 -0.1882 -0.9362  1.0036
  335MOL0     H44187   4.987  11.178   8.900  0.9210 -1.5004 -1.3225
  335MOL0     H44188   4.849  11.101   9.098  0.9481  2.5139 -2.3663
  335MOL0     H44189   4.951  10.978   9.144 -0.7502  3.8953  3.0076
  335MOL0     H44190   4.918  10.865   8.913  1.2785 -1.4170  2.7921
  335MOL0     H44191   4.790  10.987   8.886 -0.9177  0.1360  0.6102
  335MOL0     H44192   4.755  10.744   8.980  1.9119  1.5404 -2.6870
  335MOL0     H44193   4.795  10.832   9.139 -0.9387  0.7022 -0.5522
  335MOL0     H44194   4.559  10.906   8.964 -1.1495  0.1403  0.8871
  335MOL0     H44195   4.616  10.964   9.129  2.4895  2.5232 -3.6697
  335MOL0     H44196   4.421  10.815   9.141  0.0952  1.1693 -0.2055
  335MOL0     H44197   4.555  10.703   9.188 -1.0512 -0.8355 -0.2018
  335MOL0     H44198   4.465  10.707   8.910  0.2306  0.4582  0.0088
  335MOL0     H44199   4.546  10.583   9.015  2.5950  3.4129  0.6950
  335MOL0     H44200   4.250  10.665   9.043 -1.4219 -1.8282  1.6086
  335MOL0     H44201   4.335  10.530   9.121  1.3128 -1.7637 -2.2617
  335MOL0     H44202   5.199  11.021   9.197  1.2584 -0.7541 -0.4449
  335MOL0     H44203   5.451  11.046   9.247  0.6815  1.0999  1.5975
  335MOL0     H44204   5.777  11.133   9.298 -2.8159  2.3468 -2.0881
  335MOL0     H44205   5.999  11.110   9.390  2.5288  2.9397  1.7269
  335MOL0     H44206   8.078  10.932   9.053 -1.9616  0.5960 -0.6438
  335MOL0     H44207   8.328  10.859   9.045 -1.2937  1.9351  0.6825
  335MOL0     H44208   8.685  10.776   8.786  1.7802  0.8485  1.4111
  335MOL0     H44209   8.914  10.709   8.737 -0.2547  1.1530  1.0877
  335MOL0     H44210   9.102  10.591   8.923  0.2543  0.3422 -0.3420
  335MOL0     H44211   9.176  10.623   8.781 -1.5082  1.5616  2.4596
  335MOL0     H44212   9.208  10.361   8.932 -2.0438 -1.1257 -0.7198
  335MOL0     H44213   9.302  10.411   8.788  4.1116  2.7009  1.5001
  335MOL0     H44214   9.298  10.547   9.048  0.2718  0.1024  0.3059
  335MOL0     H44215   9.363  10.620   8.909 -1.0534  0.5902  1.1735
  335MOL0     H44216   9.470  10.361   8.894 -0.3067 -1.9303  2.2611
  335MOL0     H44217   9.580  10.485   8.969  1.5033 -0.0800  3.1569
  335MOL0     H44218   9.439  10.308   9.317  0.9613 -1.1059 -0.4297
  335MOL0     H44219   8.834  10.322   8.923  0.2223  0.4390 -0.4559
  335MOL0     H44220   8.628  10.426   9.020 -1.8567  1.9542  0.6370
  336MOL0     O44221   4.020  11.125   3.649 -0.1769 -1.3208  0.8823
  336MOL0     C44222   4.062  11.073   3.545  0.8951 -0.2631 -0.5758
  336MOL0     O44223   3.983  10.995   3.460 -0.2665 -0.0874  0.3189
  336MOL0     C44224   3.860  10.962   3.506 -0.0627 -0.2093  0.5171
  336MOL0     C44225   3.843  10.886   3.618 -0.1245 -0.3765 -0.1903
  336MOL0     C44226   3.716  10.860   3.672 -0.2724  0.7399  0.1055
  336MOL0     C44227   3.602  10.918   3.614  0.6917  0.4602  0.0014
  336MOL0     O44228   3.483  10.891   3.683  0.1426 -0.3146 -0.3081
  336MOL0     C44229   3.361  10.856   3.608 -0.6426 -0.1772 -0.1745
  336MOL0     C44230   3.265  10.811   3.718 -0.3560 -0.6142 -0.3014
  336MOL0     C44231   3.131  10.761   3.651  0.1073  1.1975 -0.1667
  336MOL0     C44232   3.039  10.731   3.765  0.2423 -0.0198  1.9952
  336MOL0     C44233   2.887  10.712   3.721  0.5118  0.1171  0.4853
  336MOL0     C44234   2.831  10.826   3.635 -0.5997  0.2230  0.1351
  336MOL0     C44235   2.851  10.972   3.690 -0.3505 -0.3372 -0.4738
  336MOL0     C44236   2.743  10.999   3.798 -1.1579  0.3888 -0.4490
  336MOL0     N44237   2.624  11.028   3.726  0.2263 -0.4035 -0.2864
  336MOL0     C44238   2.585  11.155   3.690  0.7514  0.0174 -0.1124
  336MOL0     C44239   2.461  11.139   3.635 -0.6476 -0.1815  0.2327
  336MOL0     C44240   2.373  11.253   3.588 -0.9373  0.3211  0.7558
  336MOL0     C44241   2.257  11.277   3.682 -0.3293 -0.2444 -0.0195
  336MOL0     C44242   2.206  11.428   3.660 -0.1647  0.0503  0.3360
  336MOL0     C44243   2.095  11.471   3.765 -0.3835 -0.5504  0.1545
  336MOL0     O44244   2.036  11.589   3.712  0.4199  0.0714 -0.2026
  336MOL0     C44245   1.922  11.639   3.760  1.3470 -0.3401  0.2928
  336MOL0     C44246   1.860  11.735   3.683  1.0848  0.4620 -0.6907
  336MOL0     C44247   1.739  11.784   3.716  1.6105 -0.3522  0.1559
  336MOL0     C44248   1.660  11.733   3.824 -0.1923  0.2642 -0.3257
  336MOL0     C44249   1.532  11.784   3.858  0.4521 -0.5967  0.4998
  336MOL0     O44250   1.475  11.867   3.766 -0.4660 -0.1385 -0.1663
  336MOL0     C44251   1.366  11.943   3.809 -0.2551  0.2329 -0.3207
  336MOL0     C44252   1.367  12.079   3.777 -0.6369 -0.6895 -0.4846
  336MOL0     C44253   1.244  12.152   3.799  0.2196  0.1308 -0.0792
  336MOL0     C44254   1.135  12.099   3.856  0.1039  0.4746 -0.4761
  336MOL0     O44255   1.025  12.188   3.859 -0.5803 -0.4212  0.1347
  336MOL0     C44256   0.904  12.118   3.851  0.0137  0.0484 -0.3680
  336MOL0     C44257   0.802  12.233   3.820  0.4511  0.0641 -0.2728
  336MOL0     C44258   0.661  12.177   3.804 -0.3146 -0.2181  0.5304
  336MOL0     C44259   0.563  12.289   3.792  0.4251  0.2170  0.5590
  336MOL0     C44260   0.428  12.255   3.854 -0.6106 -0.1145  0.2384
  336MOL0     C44261   0.342  12.167   3.771  0.5225  0.0201  0.3102
  336MOL0     C44262   0.307  12.216   3.627 -0.6684 -0.1764  0.0276
  336MOL0     C44263   0.214  12.107   3.551  0.7757  0.5745 -0.0509
  336MOL0    Cl44264   0.123  12.173   3.413  0.5050  0.1100  0.4317
  336MOL0     C44265   1.143  11.969   3.904  0.4409 -0.2158  0.3241
  336MOL0     C44266   1.256  11.894   3.877  0.3927  0.0367  0.2612
  336MOL0     O44267   1.496  11.764   3.977 -0.2644 -0.2327 -0.0043
  336MOL0     C44268   1.725  11.641   3.917 -0.0477 -0.4182 -0.4057
  336MOL0     C44269   1.857  11.598   3.882 -0.2899  0.4142 -0.7403
  336MOL0     N44270   2.421  11.009   3.652  0.5388  0.5927  0.2250
  336MOL0     N44271   2.517  10.945   3.690 -0.1901 -0.2009  0.2699
  336MOL0     C44272   3.613  10.992   3.501 -0.0531  0.4014  0.1055
  336MOL0     C44273   3.744  11.009   3.443 -0.8902 -0.2497  0.0815
  336MOL0     C44274   4.204  11.088   3.508 -0.4219 -1.1433 -0.0694
  336MOL0     C44275   4.298  11.173   3.571  0.7020  0.1901  0.0241
  336MOL0     C44276   4.423  11.196   3.520 -0.1741  0.0230 -0.2637
  336MOL0     C44277   4.472  11.135   3.405  1.5413  0.6606  0.6903
  336MOL0     O44278   4.604  11.157   3.369  0.1044  0.1833  0.0511
  336MOL0     C44279   4.685  11.057   3.295 -0.3556  0.2775  0.9632
  336MOL0     C44280   4.837  11.095   3.298 -0.1171  0.9247 -0.1572
  336MOL0     C44281   4.874  11.242   3.259 -0.8885 -0.0549 -0.5197
  336MOL0     C44282   4.882  11.335   3.377  0.5535 -0.1211  0.4038
  336MOL0     C44283   4.945  11.464   3.350  0.4464  0.3843 -1.1105
  336MOL0     C44284   4.982  11.578   3.340 -0.1703 -0.0516 -0.2630
  336MOL0     C44285   4.374  11.062   3.339 -0.8200  0.7431 -0.5262
  336MOL0     C44286   4.251  11.031   3.391  0.4415 -0.3828  0.4814
  336MOL0     H44287   3.925  10.833   3.665 -2.1405 -1.1328  2.7775
  336MOL0     H44288   3.703  10.805   3.764  1.2923  0.5066  0.2041
  336MOL0     H44289   3.386  10.785   3.530  2.5775 -0.3022  0.8080
  336MOL0     H44290   3.317  10.941   3.556 -0.5131 -1.0477 -1.7480
  336MOL0     H44291   3.241  10.897   3.781 -1.7530  1.3750 -3.3505
  336MOL0     H44292   3.309  10.733   3.781  1.1259  0.2563 -0.2144
  336MOL0     H44293   3.141  10.670   3.592  3.5294  1.9250 -0.9315
  336MOL0     H44294   3.083  10.840   3.593 -2.4834  0.7177  1.1790
  336MOL0     H44295   3.088  10.649   3.818 -0.4555 -1.2499  0.7905
  336MOL0     H44296   3.041  10.814   3.837 -0.1533 -0.1669  2.1783
  336MOL0     H44297   2.843  10.709   3.822  1.4281  0.0366  0.8964
  336MOL0     H44298   2.854  10.621   3.669 -0.8607  0.8059  0.0963
  336MOL0     H44299   2.725  10.807   3.617 -0.3160 -0.9766 -0.3569
  336MOL0     H44300   2.872  10.824   3.533 -0.5563  1.2172  0.1261
  336MOL0     H44301   2.950  10.976   3.735 -1.2791 -0.9910  1.7386
  336MOL0     H44302   2.830  11.041   3.607 -0.2120 -1.2935 -1.3312
  336MOL0     H44303   2.776  11.083   3.859  3.0473 -0.2097 -1.6250
  336MOL0     H44304   2.714  10.922   3.871 -0.1231 -1.1541 -1.5933
  336MOL0     H44305   2.637  11.251   3.694  0.3796  0.3644 -2.2716
  336MOL0     H44306   2.338  11.219   3.491 -1.8228  1.8881  0.4903
  336MOL0     H44307   2.435  11.342   3.571  1.3124 -1.2281  0.4208
  336MOL0     H44308   2.296  11.276   3.784 -0.4323  1.3271  0.0579
  336MOL0     H44309   2.179  11.201   3.671  0.4056 -1.4442  2.3370
  336MOL0     H44310   2.290  11.498   3.667 -0.2439  0.0699  1.3392
  336MOL0     H44311   2.168  11.440   3.559 -0.3840 -1.1947  0.2539
  336MOL0     H44312   2.154  11.491   3.855  4.1082 -2.6430 -2.0203
  336MOL0     H44313   2.026  11.389   3.786  0.9210 -1.3877  1.4093
  336MOL0     H44314   1.920  11.774   3.602  2.7859  1.5265  1.0013
  336MOL0     H44315   1.696  11.859   3.650  1.4496 -1.7783 -1.4136
  336MOL0     H44316   1.449  12.125   3.723  0.3808 -0.4016  1.2331
  336MOL0     H44317   1.244  12.252   3.757 -1.0014  0.4173  0.5756
  336MOL0     H44318   0.885  12.060   3.942 -2.5631  0.5947 -0.4745
  336MOL0     H44319   0.897  12.045   3.770 -1.0421  1.0262 -1.1852
  336MOL0     H44320   0.821  12.287   3.727  1.5361  1.8162  0.9071
  336MOL0     H44321   0.808  12.299   3.908 -2.5004  0.0883  0.0145
  336MOL0     H44322   0.643  12.120   3.896 -2.0550 -1.2689 -0.3915
  336MOL0     H44323   0.647  12.116   3.714 -1.1414  0.4054  0.2249
  336MOL0     H44324   0.606  12.379   3.838 -1.1916  2.5265 -2.1571
  336MOL0     H44325   0.550  12.303   3.684 -1.3867 -3.1589  0.2270
  336MOL0     H44326   0.373  12.348   3.871 -0.0499  0.4858 -1.0905
  336MOL0     H44327   0.452  12.207   3.949  0.4288 -2.0561 -0.9311
  336MOL0     H44328   0.243  12.156   3.816 -0.6228  1.7654 -1.5804
  336MOL0     H44329   0.384  12.067   3.768 -0.2654 -0.3563  1.2353
  336MOL0     H44330   0.252  12.310   3.632  2.7786  2.0362  0.3684
  336MOL0     H44331   0.391  12.235   3.559 -0.8750  0.2555 -0.1042
  336MOL0     H44332   0.143  12.063   3.622 -1.1392  0.5976 -1.8704
  336MOL0     H44333   0.276  12.024   3.517  0.9232  0.7754 -0.2758
  336MOL0     H44334   1.058  11.915   3.944  0.5316  0.6438  1.7197
  336MOL0     H44335   1.243  11.788   3.892 -0.6485  0.0816 -0.2432
  336MOL0     H44336   1.681  11.606   4.010  1.4777  4.3685  2.4456
  336MOL0     H44337   1.899  11.533   3.957  0.3691  1.7462  0.0881
  336MOL0     H44338   3.523  11.038   3.461 -1.2305 -0.0545  2.0916
  336MOL0     H44339   3.759  11.066   3.352  3.6875 -1.0415  0.1009
  336MOL0     H44340   4.275  11.229   3.661  1.7382  4.9503 -2.3737
  336MOL0     H44341   4.489  11.269   3.566  1.0328 -0.5617 -1.0115
  336MOL0     H44342   4.639  11.057   3.195 -0.9754 -2.0057  1.1839
  336MOL0     H44343   4.665  10.956   3.332 -1.2522  0.3950  0.8166
  336MOL0     H44344   4.890  11.071   3.390  2.0533 -3.4611 -2.2499
  336MOL0     H44345   4.879  11.036   3.217  1.1740  1.2132  0.2751
  336MOL0     H44346   4.814  11.281   3.176 -1.0808 -0.7924 -0.7435
  336MOL0     H44347   4.980  11.229   3.232 -0.7371  1.3173 -0.6307
  336MOL0     H44348   4.779  11.341   3.414  0.3262 -1.3784  0.0419
  336MOL0     H44349   4.950  11.297   3.454  3.6050 -3.5924 -3.5262
  336MOL0     H44350   5.016  11.680   3.337 -2.8392  1.0493  2.3763
  336MOL0     H44351   4.415  11.016   3.250  2.2674  0.4917  0.8654
  336MOL0     H44352   4.176  10.970   3.340 -1.0735  3.6230 -2.6505
  337MOL0     O44353   2.186   3.932   9.166  0.1581 -0.3085 -0.9381
  337MOL0     C44354   2.168   3.831   9.098  1.3808 -0.0657  0.2514
  337MOL0     O44355   2.042   3.789   9.057 -0.0238  0.2048 -0.1531
  337MOL0     C44356   1.938   3.871   9.085  0.8505 -0.2597 -0.9712
  337MOL0     C44357   1.848   3.908   8.985 -1.4173  0.0172  0.6882
  337MOL0     C44358   1.729   3.980   9.003  0.2792 -0.0729  0.1456
  337MOL0     C44359   1.692   4.019   9.132 -0.5887  0.3736 -1.0998
  337MOL0     O44360   1.592   4.109   9.162 -0.0851  0.4338  0.3700
  337MOL0     C44361   1.474   4.110   9.074 -1.0974  0.4962  0.2941
  337MOL0     C44362   1.352   4.169   9.140 -0.6792  0.0510 -0.3911
  337MOL0     C44363   1.240   4.200   9.039  0.1195 -0.4974 -0.9331
  337MOL0     C44364   1.128   4.294   9.091  0.7713 -0.1214 -0.2339
  337MOL0     C44365   1.056   4.228   9.207 -0.3082 -0.1595 -0.4904
  337MOL0     C44366   0.962   4.113   9.174  0.6576  0.4892  0.4109
  337MOL0     C44367   0.858   4.163   9.072  0.7545 -0.3964  0.2689
  337MOL0     C44368   0.735   4.076   9.058 -0.1619  0.7551  0.7683
  337MOL0     N44369   0.769   3.929   9.047  0.6566  0.3296  0.3201
  337MOL0     C44370   0.867   3.877   8.963 -0.5706  0.1037 -0.5089
  337MOL0     C44371   0.832   3.742   8.953  0.0911 -0.1109 -0.1272
  337MOL0     C44372   0.883   3.635   8.861 -0.1689 -0.4985  0.8579
  337MOL0     C44373   1.010   3.568   8.921  0.1375 -0.5447 -1.2233
  337MOL0     C44374   1.076   3.483   8.812  0.2262  0.5292  0.1281
  337MOL0     C44375   1.216   3.425   8.859 -0.2084  0.1048  0.2598
  337MOL0     O44376   1.232   3.322   8.767  0.4155 -0.6903 -0.4723
  337MOL0     C44377   1.357   3.269   8.743  0.2967  0.2644 -0.5591
  337MOL0     C44378   1.454   3.259   8.846  0.0971 -0.5923  0.6925
  337MOL0     C44379   1.572   3.188   8.827 -0.2515  0.4741 -0.2940
  337MOL0     C44380   1.588   3.116   8.710  0.2171  0.6308  0.5521
  337MOL0     C44381   1.717   3.031   8.695  0.0903  0.0209 -0.1827
  337MOL0     O44382   1.809   3.045   8.794 -0.2319 -0.3688 -0.1892
  337MOL0     C44383   1.913   2.961   8.773  0.0979 -0.0917 -0.9121
  337MOL0     C44384   2.021   3.010   8.694 -0.1737  0.9768  0.2211
  337MOL0     C44385   2.133   2.923   8.674 -0.0984  0.3226  0.3131
  337MOL0     C44386   2.133   2.799   8.740 -0.5241  0.6505  0.0117
  337MOL0     O44387   2.250   2.723   8.759  0.0583  0.0551 -0.0285
  337MOL0     C44388   2.359   2.724   8.665 -0.0676  1.0894 -0.0505
  337MOL0     C44389   2.472   2.641   8.725  0.5403  0.0806  0.9231
  337MOL0     C44390   2.576   2.614   8.619 -0.2537 -0.5080 -1.0291
  337MOL0     C44391   2.661   2.733   8.571  0.2114  0.3442 -0.5130
  337MOL0     C44392   2.746   2.688   8.452  0.5210 -0.6741 -0.2137
  337MOL0     C44393   2.849   2.803   8.419 -0.3349 -0.8425  0.6823
  337MOL0     C44394   2.937   2.765   8.306  0.1187  0.1493  0.2810
  337MOL0     C44395   3.088   2.798   8.316 -0.1575 -0.8343  0.4075
  337MOL0    Cl44396   3.144   2.959   8.329 -0.3617  0.5172 -0.0248
  337MOL0     C44397   2.026   2.755   8.818 -0.1941  0.2789  0.0884
  337MOL0     C44398   1.918   2.838   8.843 -0.5869 -0.2101 -0.5020
  337MOL0     O44399   1.732   2.964   8.593  0.1125 -0.2223  0.5361
  337MOL0     C44400   1.497   3.122   8.598  0.5954 -0.4483 -0.2380
  337MOL0     C44401   1.375   3.198   8.613 -0.4963 -0.2247 -0.8141
  337MOL0     N44402   0.728   3.719   9.040 -0.3706  0.3852  0.6733
  337MOL0     N44403   0.697   3.825   9.103  0.3901 -0.1432 -0.0676
  337MOL0     C44404   1.781   3.992   9.236  0.3019  0.2277 -0.2311
  337MOL0     C44405   1.898   3.917   9.214 -0.0058 -1.0582  0.4620
  337MOL0     C44406   2.284   3.763   9.056 -0.5858  0.5899  0.3374
  337MOL0     C44407   2.279   3.655   8.967  0.3544 -0.0745  0.0690
  337MOL0     C44408   2.391   3.585   8.926 -0.7579  0.3922 -0.1753
  337MOL0     C44409   2.518   3.628   8.968  0.4652  0.4297  0.6994
  337MOL0     O44410   2.633   3.565   8.935 -0.3562  0.2111  0.1125
  337MOL0     C44411   2.639   3.428   8.905 -0.4445  0.4751 -1.0206
  337MOL0     C44412   2.784   3.393   8.878  0.1091 -0.5004 -0.5085
  337MOL0     C44413   2.847   3.454   8.752  0.7829 -0.1399 -0.2068
  337MOL0     C44414   2.975   3.384   8.692  0.2247  0.5170 -0.2332
  337MOL0     C44415   2.953   3.249   8.633 -0.0224 -0.7420  0.6009
  337MOL0     C44416   2.902   3.143   8.599 -0.5986  1.0689  0.4368
  337MOL0     C44417   2.524   3.725   9.058  0.1152 -0.2131 -0.3641
  337MOL0     C44418   2.411   3.794   9.103  0.4157  0.9142 -0.2001
  337MOL0     H44419   1.874   3.868   8.887  4.5164  0.0081  1.8630
  337MOL0     H44420   1.669   4.009   8.918 -1.5533 -1.3169  0.9473
  337MOL0     H44421   1.455   4.006   9.044  3.3333 -0.1847 -0.8748
  337MOL0     H44422   1.505   4.151   8.978  2.8102 -0.0023  1.1624
  337MOL0     H44423   1.386   4.258   9.194 -1.9482  0.7967 -0.7823
  337MOL0     H44424   1.308   4.097   9.210  1.3566 -2.3087 -1.4182
  337MOL0     H44425   1.203   4.105   8.999 -2.8001 -0.8571  2.1657
  337MOL0     H44426   1.268   4.260   8.952 -1.1966 -1.4225 -2.0306
  337MOL0     H44427   1.161   4.393   9.125  0.3930 -0.5134  1.3883
  337MOL0     H44428   1.049   4.313   9.018  4.1442  2.3893 -3.6570
  337MOL0     H44429   0.990   4.306   9.246  2.4559  0.6943  2.9325
  337MOL0     H44430   1.128   4.203   9.284  1.4886  1.9097 -1.3870
  337MOL0     H44431   0.899   4.094   9.261 -1.6945 -0.5087 -1.3919
  337MOL0     H44432   1.010   4.019   9.145  1.6203  1.7642 -2.5016
  337MOL0     H44433   0.816   4.259   9.104 -0.6962 -0.8037 -0.3071
  337MOL0     H44434   0.912   4.166   8.977  1.3994 -2.6130  0.5049
  337MOL0     H44435   0.667   4.108   8.979 -3.0519  1.1969  3.2538
  337MOL0     H44436   0.668   4.077   9.144 -2.2135 -1.1556 -0.7070
  337MOL0     H44437   0.947   3.932   8.914 -2.0671  1.9798 -0.9739
  337MOL0     H44438   0.908   3.671   8.760  0.1932 -0.5294  0.9349
  337MOL0     H44439   0.812   3.553   8.850  0.1330 -0.5662 -0.9652
  337MOL0     H44440   0.974   3.510   9.007 -1.2162  1.4676 -0.3395
  337MOL0     H44441   1.085   3.640   8.955  2.0619 -2.8477 -0.4109
  337MOL0     H44442   1.005   3.403   8.788  1.7708 -1.2004  1.1455
  337MOL0     H44443   1.094   3.543   8.722 -3.0179  1.5052 -0.0187
  337MOL0     H44444   1.221   3.395   8.964  1.7463  0.8203  0.4170
  337MOL0     H44445   1.299   3.493   8.837 -0.6813  0.5901 -0.0472
  337MOL0     H44446   1.432   3.292   8.946  0.2753 -0.0360  0.5494
  337MOL0     H44447   1.647   3.175   8.904  0.3406 -2.3160 -1.2548
  337MOL0     H44448   2.025   3.109   8.650 -1.0112  1.4569  1.1922
  337MOL0     H44449   2.219   2.957   8.617  2.5150 -3.1585  1.7672
  337MOL0     H44450   2.395   2.823   8.636  3.0237  0.2585  0.6076
  337MOL0     H44451   2.321   2.677   8.574 -2.0545 -0.1734  1.3450
  337MOL0     H44452   2.433   2.548   8.766  0.5106 -0.0956  0.4957
  337MOL0     H44453   2.510   2.705   8.806 -2.0011  1.8391  0.8456
  337MOL0     H44454   2.536   2.549   8.540  1.6004  0.2598 -2.6885
  337MOL0     H44455   2.646   2.544   8.666  1.1216  1.4824 -0.0164
  337MOL0     H44456   2.600   2.819   8.540  1.8457  0.0482 -5.4435
  337MOL0     H44457   2.739   2.762   8.642 -1.3135 -0.3563  1.5680
  337MOL0     H44458   2.679   2.665   8.368  0.0406 -1.2704  0.3254
  337MOL0     H44459   2.798   2.603   8.496 -1.1785  0.3635  4.2543
  337MOL0     H44460   2.901   2.843   8.507 -0.4991 -1.7897  1.2201
  337MOL0     H44461   2.785   2.887   8.391 -0.0451 -1.2338 -1.3024
  337MOL0     H44462   2.919   2.660   8.283 -1.0884  0.3666  0.1674
  337MOL0     H44463   2.897   2.825   8.224  1.7104  1.5598  0.4904
  337MOL0     H44464   3.121   2.767   8.216  0.0075 -1.5155  0.6670
  337MOL0     H44465   3.141   2.734   8.387  2.1029 -0.9247 -1.2293
  337MOL0     H44466   2.040   2.654   8.853  1.6132  0.3077 -0.4612
  337MOL0     H44467   1.840   2.798   8.906 -0.4318 -1.2396 -0.9467
  337MOL0     H44468   1.540   3.080   8.507  1.4083  0.0973 -0.1241
  337MOL0     H44469   1.315   3.207   8.523  2.3798 -0.6210 -2.9125
  337MOL0     H44470   1.765   4.031   9.336 -0.6342 -0.4138 -0.1207
  337MOL0     H44471   1.963   3.898   9.299  1.4591 -0.7414 -0.5457
  337MOL0     H44472   2.188   3.613   8.926  0.5426  1.1593 -1.7215
  337MOL0     H44473   2.385   3.507   8.851 -1.1179 -0.0487  0.3007
  337MOL0     H44474   2.577   3.406   8.818 -3.5909  2.7655  0.4386
  337MOL0     H44475   2.603   3.370   8.991  1.9153 -4.5642 -2.9857
  337MOL0     H44476   2.854   3.413   8.959  4.3854 -2.9109 -3.2036
  337MOL0     H44477   2.786   3.284   8.866  0.0414 -0.8485  2.1323
  337MOL0     H44478   2.864   3.559   8.775 -2.4249 -0.0943  2.9339
  337MOL0     H44479   2.772   3.459   8.673  0.9920 -3.5448 -0.7803
  337MOL0     H44480   3.025   3.446   8.617 -0.3109  1.1361 -0.0912
  337MOL0     H44481   3.046   3.364   8.773  1.0777 -3.8590 -1.8236
  337MOL0     H44482   2.860   3.052   8.560  4.3737 -1.4868  0.2397
  337MOL0     H44483   2.616   3.765   9.100 -1.6307  3.3799  0.3692
  337MOL0     H44484   2.434   3.870   9.177  1.5655  1.5124 -1.1331
  338MOL0     O44485  10.900   5.638  10.021 -0.4258  0.5488 -0.5085
  338MOL0     C44486  10.941   5.739  10.073  1.1184  0.0830 -0.0101
  338MOL0     O44487  10.865   5.831  10.136  0.1220 -0.3064 -0.1429
  338MOL0     C44488  10.735   5.834  10.102  0.5809 -0.2856  0.3223
  338MOL0     C44489  10.649   5.854  10.209 -0.1868 -0.0695  0.1911
  338MOL0     C44490  10.514   5.853  10.195  0.5454 -0.2533 -0.0174
  338MOL0     C44491  10.456   5.852  10.068 -0.3704 -0.1754 -0.5368
  338MOL0     O44492  10.319   5.859  10.052 -0.1255 -0.0302 -0.6556
  338MOL0     C44493  10.254   5.965  10.119 -0.1437  0.2808  0.6922
  338MOL0     C44494  10.105   5.944  10.095 -0.3279  0.0182 -0.3947
  338MOL0     C44495  10.018   6.055  10.172 -0.3530  0.2148 -0.2473
  338MOL0     C44496   9.864   6.057  10.137 -0.3678 -1.1148  0.2214
  338MOL0     C44497   9.792   6.114  10.253 -0.0900  0.6304  1.0822
  338MOL0     C44498   9.645   6.150  10.225 -0.3213 -0.1937 -0.1003
  338MOL0     C44499   9.559   6.177  10.348 -0.1376  0.0413 -0.8633
  338MOL0     C44500   9.410   6.191  10.310  1.0721 -0.6824  0.1165
  338MOL0     N44501   9.325   6.197  10.432 -0.3826 -0.2694  0.0594
  338MOL0     C44502   9.326   6.297  10.520  0.2061  0.2066 -0.7432
  338MOL0     C44503   9.226   6.261  10.609 -0.2562 -0.5740  0.3395
  338MOL0     C44504   9.200   6.322  10.735  0.2305  0.3348 -0.1319
  338MOL0     C44505   9.086   6.435  10.716 -0.8031  0.3778  0.2478
  338MOL0     C44506   9.029   6.478  10.854  0.5747 -0.1854  0.0393
  338MOL0     C44507   8.884   6.540  10.871  0.4115 -0.6659  0.6383
  338MOL0     O44508   8.852   6.565  11.009  0.7136  0.8519  0.6792
  338MOL0     C44509   8.732   6.629  11.041  0.2789 -0.4603  0.1517
  338MOL0     C44510   8.688   6.624  11.174 -0.3774 -0.1720 -0.3486
  338MOL0     C44511   8.580   6.703  11.221  0.0498 -0.0032  0.6346
  338MOL0     C44512   8.494   6.761  11.127 -0.0785  0.1353  0.4928
  338MOL0     C44513   8.361   6.813  11.171  0.5301 -0.6395 -0.2067
  338MOL0     O44514   8.303   6.904  11.089  0.4471  0.3867  1.4687
  338MOL0     C44515   8.182   6.959  11.118 -0.1047  0.9767  0.1243
  338MOL0     C44516   8.163   7.014  11.244  0.3438 -0.6521  0.3341
  338MOL0     C44517   8.042   7.085  11.265  0.1235 -0.4039 -0.2712
  338MOL0     C44518   7.949   7.094  11.163  0.6613 -0.3999 -0.0234
  338MOL0     O44519   7.830   7.157  11.183  0.2091  0.8048  0.2698
  338MOL0     C44520   7.757   7.099  11.293  0.5646  0.5721  0.3377
  338MOL0     C44521   7.609   7.088  11.247 -0.0530  0.0786  0.4600
  338MOL0     C44522   7.536   7.221  11.288 -0.8405 -0.3315 -0.1606
  338MOL0     C44523   7.391   7.244  11.236 -0.1674 -0.7607 -0.4770
  338MOL0     C44524   7.297   7.291  11.345  0.5361 -0.3799  0.1568
  338MOL0     C44525   7.151   7.331  11.305  1.0242 -0.0756 -0.3102
  338MOL0     C44526   7.081   7.192  11.274  0.1981  0.1726 -0.7733
  338MOL0     C44527   6.957   7.175  11.360  1.2391  0.7082 -0.4619
  338MOL0    Cl44528   6.812   7.290  11.313  0.1895  0.2833 -0.6727
  338MOL0     C44529   7.977   7.041  11.040 -0.7741 -0.0473  0.3318
  338MOL0     C44530   8.089   6.970  11.016 -0.2464  0.6264  0.0201
  338MOL0     O44531   8.314   6.767  11.276  0.0436  1.0881 -0.8403
  338MOL0     C44532   8.530   6.773  10.994 -0.5800  0.2207  0.1608
  338MOL0     C44533   8.648   6.712  10.953 -0.3035 -0.0204 -1.3089
  338MOL0     N44534   9.159   6.149  10.571 -0.0550 -0.3481 -0.3210
  338MOL0     N44535   9.222   6.112  10.462 -0.2368 -0.4809  0.3942
  338MOL0     C44536  10.542   5.858   9.957 -0.8718 -0.3222  0.2297
  338MOL0     C44537  10.681   5.838   9.969  0.4747  0.6426  0.4440
  338MOL0     C44538  11.086   5.750  10.071  0.1943 -0.7618 -0.6327
  338MOL0     C44539  11.148   5.874  10.116  0.3641  1.0329 -0.4165
  338MOL0     C44540  11.287   5.887  10.113 -0.3879 -0.6345  1.2109
  338MOL0     C44541  11.362   5.772  10.075 -0.2160 -0.6091  0.4153
  338MOL0     O44542  11.498   5.766  10.084  0.6872  0.3148  0.4873
  338MOL0     C44543  11.558   5.862  10.175 -0.6171  0.3684  0.2536
  338MOL0     C44544  11.695   5.810  10.210  0.4342 -0.6222 -0.3304
  338MOL0     C44545  11.796   5.823  10.097 -0.0014 -1.3450 -0.2895
  338MOL0     C44546  11.933   5.772  10.123  0.4213 -0.4854 -0.7497
  338MOL0     C44547  12.022   5.788  10.009  0.2703  0.6857  0.2103
  338MOL0     C44548  12.101   5.798   9.916  0.1713 -0.3744 -1.6266
  338MOL0     C44549  11.300   5.650  10.036  0.0034 -0.3003  0.4307
  338MOL0     C44550  11.166   5.634  10.036 -0.2984  0.1968 -0.1120
  338MOL0     H44551  10.689   5.869  10.309 -0.9231  0.3297  0.4292
  338MOL0     H44552  10.452   5.853  10.285 -0.9408  0.1944 -1.0021
  338MOL0     H44553  10.289   6.054  10.066 -0.7113 -0.1530 -0.4653
  338MOL0     H44554  10.259   5.971  10.228 -2.6554  1.6975  0.8240
  338MOL0     H44555  10.082   5.843  10.131  2.5386 -1.3821 -2.0999
  338MOL0     H44556  10.092   5.940   9.987 -0.1851 -1.4659 -0.3749
  338MOL0     H44557  10.048   6.154  10.136  2.6265 -0.4314  0.1610
  338MOL0     H44558  10.048   6.053  10.277 -1.1587 -1.4662 -0.0120
  338MOL0     H44559   9.852   6.115  10.045  0.4271 -1.8717 -0.3836
  338MOL0     H44560   9.817   5.962  10.109 -0.0067 -1.1618 -0.2313
  338MOL0     H44561   9.841   6.209  10.279 -1.0952  1.1396  1.1618
  338MOL0     H44562   9.806   6.049  10.340 -0.5979  1.7343  2.0314
  338MOL0     H44563   9.604   6.063  10.174  0.5623  0.1011 -1.3616
  338MOL0     H44564   9.648   6.238  10.160  1.7055  0.6774  1.0944
  338MOL0     H44565   9.573   6.102  10.426 -0.7715 -0.1817 -0.9555
  338MOL0     H44566   9.594   6.270  10.393  1.0300  0.6875 -2.9701
  338MOL0     H44567   9.373   6.114  10.242 -2.8565  0.8191  0.3139
  338MOL0     H44568   9.418   6.289  10.262  0.9855  0.1726  1.7499
  338MOL0     H44569   9.406   6.371  10.524  0.9044 -0.4991 -1.4141
  338MOL0     H44570   9.287   6.369  10.782  0.8245  0.2767 -1.1507
  338MOL0     H44571   9.166   6.242  10.801  0.0214 -0.4344 -1.1409
  338MOL0     H44572   9.016   6.377  10.655  2.4464 -1.6095 -1.9685
  338MOL0     H44573   9.134   6.517  10.662  2.7305 -3.4527 -3.1783
  338MOL0     H44574   9.035   6.392  10.921 -0.4374  0.6608  1.2705
  338MOL0     H44575   9.100   6.554  10.888  0.8886 -0.6181  0.3716
  338MOL0     H44576   8.817   6.471  10.819  1.1000  0.7901 -2.3788
  338MOL0     H44577   8.884   6.632  10.813  0.4021 -0.4610  0.9590
  338MOL0     H44578   8.746   6.563  11.242  1.2190 -0.6640 -2.0654
  338MOL0     H44579   8.545   6.679  11.321 -1.1423  0.7795  0.4344
  338MOL0     H44580   8.240   7.033  11.318  0.7828  0.8239 -0.4535
  338MOL0     H44581   8.017   7.140  11.356  1.3383 -2.2086  1.2481
  338MOL0     H44582   7.764   7.159  11.384  0.4134 -1.2452  1.6086
  338MOL0     H44583   7.801   7.002  11.320  3.1914  1.5049 -0.2568
  338MOL0     H44584   7.568   6.994  11.287 -1.0892  1.4830  2.9199
  338MOL0     H44585   7.609   7.082  11.138  2.1880 -1.2927  0.4852
  338MOL0     H44586   7.598   7.306  11.258 -1.4313  0.0384 -0.3409
  338MOL0     H44587   7.534   7.226  11.397 -0.7651  0.4481 -0.1885
  338MOL0     H44588   7.385   7.314  11.152 -1.4057 -0.2946 -0.0150
  338MOL0     H44589   7.351   7.149  11.200  1.1892 -2.0713  1.2904
  338MOL0     H44590   7.345   7.386  11.371  0.0413  0.3389 -1.4539
  338MOL0     H44591   7.297   7.220  11.428 -1.8912  0.2369  0.7601
  338MOL0     H44592   7.145   7.388  11.212 -2.1672  1.4635  0.6905
  338MOL0     H44593   7.091   7.390  11.376 -1.5380 -2.9959  0.1670
  338MOL0     H44594   7.046   7.184  11.170 -1.4464 -1.0744 -0.1690
  338MOL0     H44595   7.145   7.105  11.291 -1.6625 -1.2439 -0.6677
  338MOL0     H44596   6.972   7.202  11.465  0.4191 -0.0319 -0.1353
  338MOL0     H44597   6.924   7.071  11.359 -0.5487  1.2072  0.6183
  338MOL0     H44598   7.901   7.050  10.963 -1.7545 -0.3410  1.2339
  338MOL0     H44599   8.114   6.939  10.915  1.9289 -0.9613  0.9632
  338MOL0     H44600   8.473   6.813  10.911 -0.7172  0.5687  0.4221
  338MOL0     H44601   8.687   6.721  10.852  2.3827 -4.1713 -0.9084
  338MOL0     H44602  10.510   5.876   9.855  0.7544  3.9222  0.2569
  338MOL0     H44603  10.756   5.828   9.891  0.9385  0.9201  0.8552
  338MOL0     H44604  11.085   5.958  10.142  0.2580  0.4228  1.3850
  338MOL0     H44605  11.339   5.982  10.127  0.7198 -0.6521 -1.9443
  338MOL0     H44606  11.499   5.878  10.266  0.8943  1.9493  1.0008
  338MOL0     H44607  11.574   5.960  10.131 -1.4326  0.0018 -0.9103
  338MOL0     H44608  11.731   5.866  10.298 -0.7863 -0.5169  0.1268
  338MOL0     H44609  11.686   5.703  10.231  4.2104 -0.5712  2.6617
  338MOL0     H44610  11.793   5.930  10.072 -1.0635 -1.4181 -0.5248
  338MOL0     H44611  11.752   5.775  10.009  1.1520 -0.5972 -1.3156
  338MOL0     H44612  11.973   5.827  10.208  0.6754 -2.8774  0.7854
  338MOL0     H44613  11.940   5.665  10.146  0.6841 -0.5888 -1.2879
  338MOL0     H44614  12.181   5.826   9.851 -0.3099  0.7563 -1.7568
  338MOL0     H44615  11.356   5.566   9.998  2.8749  1.2707  0.8614
  338MOL0     H44616  11.111   5.542  10.020 -1.1121  0.0009  3.0828
  339MOL0     O44617   8.528   4.201   4.185  0.0248 -0.4341  0.4220
  339MOL0     C44618   8.489   4.313   4.231 -0.3080 -0.2420  0.5531
  339MOL0     O44619   8.368   4.367   4.216 -0.2688 -0.1092  0.1166
  339MOL0     C44620   8.259   4.299   4.175 -0.1306 -0.9650 -0.0204
  339MOL0     C44621   8.168   4.380   4.123  0.0175  0.2074  0.3376
  339MOL0     C44622   8.050   4.323   4.068  0.1408 -0.5728  0.0318
  339MOL0     C44623   8.024   4.186   4.075  0.0182 -0.1209  0.4860
  339MOL0     O44624   7.924   4.129   4.004  0.1273 -0.1076 -0.4088
  339MOL0     C44625   7.819   4.199   3.936  0.4120 -0.4718  0.2993
  339MOL0     C44626   7.691   4.114   3.913 -0.1916  0.0247 -0.3904
  339MOL0     C44627   7.697   4.035   3.786 -0.8729  0.1201 -0.2110
  339MOL0     C44628   7.580   3.947   3.752  0.8283 -0.0498 -0.3725
  339MOL0     C44629   7.597   3.883   3.612 -1.3213 -0.9905 -0.4487
  339MOL0     C44630   7.482   3.827   3.543  0.1387  0.3276 -0.0567
  339MOL0     C44631   7.377   3.928   3.498 -0.7778 -0.2739  0.6743
  339MOL0     C44632   7.403   3.980   3.347  0.5597 -0.8504  0.4161
  339MOL0     N44633   7.297   4.064   3.289  0.7787 -0.5351 -0.8261
  339MOL0     C44634   7.178   4.015   3.236 -0.8221  0.4918  0.1619
  339MOL0     C44635   7.109   4.121   3.194 -0.1297 -0.3646 -0.0006
  339MOL0     C44636   6.991   4.122   3.104 -0.6636 -0.8785  0.1017
  339MOL0     C44637   6.859   4.082   3.166 -1.2339  0.5620 -0.2306
  339MOL0     C44638   6.731   4.111   3.090 -0.4750 -0.4964  0.3188
  339MOL0     C44639   6.607   4.058   3.165 -0.1351 -0.4211 -0.4495
  339MOL0     O44640   6.485   4.076   3.094 -0.3843  0.8202  0.0203
  339MOL0     C44641   6.368   4.053   3.162  0.2696  0.8334 -0.0049
  339MOL0     C44642   6.354   3.995   3.288  0.7295 -0.5132 -0.2702
  339MOL0     C44643   6.223   3.981   3.354 -0.2289 -0.1324  0.0255
  339MOL0     C44644   6.103   4.025   3.287  0.6572 -0.7427  0.4713
  339MOL0     C44645   5.978   4.016   3.353 -0.5259  0.2316  0.7275
  339MOL0     O44646   5.869   4.011   3.264  0.1230 -0.3049  0.7232
  339MOL0     C44647   5.742   3.970   3.306 -0.1489  0.4291 -0.5100
  339MOL0     C44648   5.653   3.957   3.203 -0.6761 -0.0978  0.5699
  339MOL0     C44649   5.531   3.910   3.225  0.3077  0.3562  0.2541
  339MOL0     C44650   5.486   3.880   3.351 -0.6612  0.9399 -0.0040
  339MOL0     O44651   5.363   3.822   3.364 -0.1464 -0.3670  0.2129
  339MOL0     C44652   5.299   3.839   3.498 -0.6452  0.4951 -0.3056
  339MOL0     C44653   5.153   3.797   3.490  1.0752 -0.1261 -0.9837
  339MOL0     C44654   5.111   3.816   3.639  0.3223 -0.0714 -0.4049
  339MOL0     C44655   4.969   3.797   3.665 -0.0588  1.4309  0.2760
  339MOL0     C44656   4.858   3.881   3.592  0.1851 -0.4063  0.5353
  339MOL0     C44657   4.727   3.893   3.660  0.2904  0.0240  0.3256
  339MOL0     C44658   4.640   3.770   3.653  0.3066  0.2698 -0.3610
  339MOL0     C44659   4.516   3.787   3.737  0.8543  0.5166 -0.5548
  339MOL0    Cl44660   4.399   3.660   3.711 -0.2143  0.0275 -0.2316
  339MOL0     C44661   5.569   3.893   3.458 -0.0242 -0.4579  0.2259
  339MOL0     C44662   5.696   3.949   3.445  0.1813  0.0241  0.1448
  339MOL0     O44663   5.979   4.026   3.472  0.2916  0.3169  0.3157
  339MOL0     C44664   6.126   4.073   3.156 -0.7800 -0.1143 -0.6074
  339MOL0     C44665   6.252   4.080   3.092 -0.2455  0.5163  0.8300
  339MOL0     N44666   7.183   4.236   3.224  0.3370  0.5238 -0.3112
  339MOL0     N44667   7.293   4.202   3.273 -0.6378 -0.1940 -0.4674
  339MOL0     C44668   8.123   4.103   4.135  0.1348  0.4336  0.0911
  339MOL0     C44669   8.238   4.161   4.182 -0.0935 -0.5815  0.3393
  339MOL0     C44670   8.594   4.397   4.301  0.4194  0.6109 -0.4871
  339MOL0     C44671   8.714   4.342   4.353 -0.1759 -0.1473 -0.3695
  339MOL0     C44672   8.794   4.418   4.438  0.0571 -0.5147  0.3426
  339MOL0     C44673   8.760   4.546   4.463  0.0183  0.4244 -0.1017
  339MOL0     O44674   8.835   4.609   4.561 -0.4976  0.6539  0.2298
  339MOL0     C44675   8.916   4.712   4.517  0.1342 -0.0742 -0.0801
  339MOL0     C44676   8.977   4.772   4.640  0.0375 -0.1283 -0.1034
  339MOL0     C44677   9.104   4.688   4.674 -0.5395 -0.5044 -0.1440
  339MOL0     C44678   9.189   4.721   4.795  0.4486  0.8315  0.8342
  339MOL0     C44679   9.330   4.673   4.786 -0.1064 -0.6968  0.9529
  339MOL0     C44680   9.447   4.647   4.775 -0.2091 -0.5720  0.6828
  339MOL0     C44681   8.647   4.604   4.403  0.1482  0.3249  1.0077
  339MOL0     C44682   8.565   4.531   4.319  0.2339 -0.7650 -0.5859
  339MOL0     H44683   8.183   4.488   4.121 -0.5484  0.2963  0.7103
  339MOL0     H44684   7.985   4.392   4.015  0.9029  0.6703  0.6631
  339MOL0     H44685   7.850   4.233   3.837 -2.0758 -0.2199 -0.4597
  339MOL0     H44686   7.789   4.280   4.004 -0.7408  1.1525 -2.0263
  339MOL0     H44687   7.602   4.174   3.892 -0.6291 -1.1715 -2.2000
  339MOL0     H44688   7.671   4.045   3.995  1.3861 -0.4911 -0.3950
  339MOL0     H44689   7.786   3.972   3.791  1.0466  2.7738  2.8280
  339MOL0     H44690   7.720   4.101   3.701 -1.7988  1.3399  0.4397
  339MOL0     H44691   7.545   3.879   3.830  0.3761  2.6892  1.9666
  339MOL0     H44692   7.490   4.010   3.751  1.1193  0.4941  1.9078
  339MOL0     H44693   7.678   3.810   3.613  1.0133  1.4639  0.9101
  339MOL0     H44694   7.630   3.967   3.550 -1.5715  1.2601  2.2850
  339MOL0     H44695   7.439   3.753   3.610 -0.2192  0.4844 -0.1134
  339MOL0     H44696   7.508   3.781   3.447  0.6515  2.1282 -0.8305
  339MOL0     H44697   7.281   3.876   3.513 -2.3145  2.1990 -0.0522
  339MOL0     H44698   7.368   4.016   3.562 -0.5561 -0.2503  0.6739
  339MOL0     H44699   7.416   3.900   3.273 -1.1620 -0.3509 -0.4911
  339MOL0     H44700   7.499   4.029   3.360  1.5320 -2.0960 -1.5502
  339MOL0     H44701   7.153   3.911   3.221 -4.0076  1.0321  0.9984
  339MOL0     H44702   7.003   4.048   3.023 -4.0654  1.2161 -2.6138
  339MOL0     H44703   6.987   4.224   3.064  4.3420  0.4135  2.1075
  339MOL0     H44704   6.848   4.129   3.264  0.1272  0.8714 -0.2150
  339MOL0     H44705   6.873   3.976   3.189  0.9841  0.8822  0.0452
  339MOL0     H44706   6.730   4.217   3.064  2.8136 -0.8555 -1.8479
  339MOL0     H44707   6.736   4.058   2.995  0.0629 -0.5709  0.3866
  339MOL0     H44708   6.597   4.114   3.259  1.7021 -0.1282 -0.3908
  339MOL0     H44709   6.610   3.950   3.182 -1.2334 -0.5719 -1.1488
  339MOL0     H44710   6.439   3.962   3.348  1.5782  0.5509 -0.8572
  339MOL0     H44711   6.219   3.939   3.454  0.7584 -0.0402  0.1095
  339MOL0     H44712   5.682   3.988   3.103 -0.0730  2.1798  1.4069
  339MOL0     H44713   5.467   3.917   3.138 -1.0388  2.4375  1.3186
  339MOL0     H44714   5.311   3.946   3.521  1.4148 -0.0999  1.7344
  339MOL0     H44715   5.358   3.777   3.565  0.3482  1.0862 -0.6204
  339MOL0     H44716   5.152   3.694   3.453  2.6823  0.4990 -2.9318
  339MOL0     H44717   5.093   3.863   3.427  0.5755 -0.6186 -1.0232
  339MOL0     H44718   5.135   3.916   3.675 -2.3505 -0.9067  4.7254
  339MOL0     H44719   5.171   3.739   3.690 -0.7775 -1.2312 -0.7969
  339MOL0     H44720   4.944   3.691   3.652  1.2237  1.0119  1.0654
  339MOL0     H44721   4.953   3.808   3.773  1.5313 -2.7908  1.1289
  339MOL0     H44722   4.848   3.844   3.490  0.8369  2.3415 -0.6079
  339MOL0     H44723   4.904   3.978   3.572  2.1181 -1.3959 -0.0724
  339MOL0     H44724   4.669   3.982   3.634 -0.0035 -0.8566 -2.4133
  339MOL0     H44725   4.743   3.912   3.766  1.1783 -1.3319  0.4616
  339MOL0     H44726   4.594   3.767   3.554 -4.2448  2.3288  1.3774
  339MOL0     H44727   4.700   3.683   3.682  3.9481  2.8856  0.5921
  339MOL0     H44728   4.467   3.875   3.696 -0.4431 -1.3020 -3.2537
  339MOL0     H44729   4.535   3.784   3.845  2.4541 -3.1775 -0.7811
  339MOL0     H44730   5.541   3.869   3.561  0.8133  0.9245  0.8124
  339MOL0     H44731   5.753   3.954   3.537 -1.5720  1.3863  1.2144
  339MOL0     H44732   6.044   4.108   3.095 -0.2678  0.9600 -0.6943
  339MOL0     H44733   6.258   4.123   2.993  2.6072  0.5068  0.9264
  339MOL0     H44734   8.111   3.995   4.142  1.4125  0.0983 -1.8788
  339MOL0     H44735   8.307   4.102   4.241 -0.7657 -1.4745  0.2523
  339MOL0     H44736   8.758   4.246   4.329  2.2570  0.5106  1.1056
  339MOL0     H44737   8.877   4.376   4.494 -1.0072 -1.5963  1.1656
  339MOL0     H44738   8.849   4.777   4.460  1.0008 -0.8225 -2.0563
  339MOL0     H44739   8.989   4.684   4.440  1.2344  1.1047  0.5098
  339MOL0     H44740   9.014   4.869   4.604 -0.2220 -0.3335 -0.9488
  339MOL0     H44741   8.909   4.777   4.725 -0.0620  1.9624 -0.2488
  339MOL0     H44742   9.170   4.696   4.587  0.4380 -0.0696  0.6187
  339MOL0     H44743   9.070   4.585   4.687 -1.2630 -0.1542  0.8367
  339MOL0     H44744   9.180   4.830   4.794  1.9395  0.9724  0.0678
  339MOL0     H44745   9.141   4.681   4.884  2.1812 -0.4119  1.2667
  339MOL0     H44746   9.553   4.634   4.768 -0.0053  1.3169 -0.6902
  339MOL0     H44747   8.631   4.708   4.429 -1.6835 -0.5384  3.8279
  339MOL0     H44748   8.483   4.581   4.269  0.8589  1.0621  0.0968
  340MOL0     O44749   4.079   1.175   1.982  0.0389  1.1300  0.1268
  340MOL0     C44750   4.150   1.276   1.964  0.6417 -0.3817  0.1676
  340MOL0     O44751   4.141   1.365   1.864  0.2115  0.4712 -0.1051
  340MOL0     C44752   4.057   1.336   1.754  0.4898 -0.0206 -1.0152
  340MOL0     C44753   4.088   1.239   1.657 -0.2340  0.3746 -0.0323
  340MOL0     C44754   3.997   1.212   1.552  0.6417  0.1064  1.1653
  340MOL0     C44755   3.878   1.281   1.543  0.2021  0.6445 -0.1693
  340MOL0     O44756   3.771   1.225   1.465 -0.2746  0.9374  0.6131
  340MOL0     C44757   3.646   1.302   1.447 -0.1971 -0.0718  0.4132
  340MOL0     C44758   3.654   1.429   1.351 -0.3519 -0.6389 -0.3642
  340MOL0     C44759   3.537   1.525   1.353  0.4642 -0.1477  0.2291
  340MOL0     C44760   3.403   1.456   1.318  1.3426  0.0638  0.3549
  340MOL0     C44761   3.307   1.570   1.282 -0.3636  0.0056  0.9421
  340MOL0     C44762   3.176   1.508   1.244  0.5124  0.0408 -0.1639
  340MOL0     C44763   3.114   1.580   1.129 -0.6757 -0.3367 -0.6614
  340MOL0     C44764   3.086   1.728   1.165 -0.0248  0.2761 -0.2043
  340MOL0     N44765   2.970   1.786   1.094  0.1741 -0.1799  0.1416
  340MOL0     C44766   2.839   1.765   1.129 -0.8575  0.3050 -0.2155
  340MOL0     C44767   2.765   1.817   1.034 -0.1225 -0.0065 -0.5616
  340MOL0     C44768   2.612   1.810   1.053  0.1084  0.7533 -0.5947
  340MOL0     C44769   2.544   1.896   0.940 -0.4541  0.0712 -0.5445
  340MOL0     C44770   2.570   2.046   0.956 -0.0207  0.0559  0.0890
  340MOL0     C44771   2.515   2.116   1.078  0.4148  0.1628 -0.0820
  340MOL0     O44772   2.536   2.258   1.062  0.8283  0.0166  0.3797
  340MOL0     C44773   2.460   2.342   1.150  0.2233  0.4848  0.6182
  340MOL0     C44774   2.399   2.432   1.083 -0.0314 -0.5693 -0.5421
  340MOL0     C44775   2.299   2.519   1.133  0.1113 -0.5161 -0.3270
  340MOL0     C44776   2.277   2.531   1.271 -0.3329  0.3511  0.4642
  340MOL0     C44777   2.184   2.622   1.322  0.1341 -1.2807  0.2270
  340MOL0     O44778   2.117   2.711   1.232  0.3544  0.1017  0.7600
  340MOL0     C44779   2.018   2.783   1.281 -0.6046 -0.6296  0.6477
  340MOL0     C44780   1.911   2.718   1.331 -0.3948 -0.4898  0.0953
  340MOL0     C44781   1.808   2.791   1.377 -0.0748 -0.3625 -0.1638
  340MOL0     C44782   1.804   2.927   1.356  0.5214 -0.7733 -0.7148
  340MOL0     O44783   1.692   3.005   1.383  0.2858 -0.1025  1.2619
  340MOL0     C44784   1.576   2.964   1.298 -0.0204 -0.3772 -0.6237
  340MOL0     C44785   1.450   2.969   1.382  0.0067 -0.6253 -0.1900
  340MOL0     C44786   1.432   3.108   1.453  0.9124  0.0145  0.3999
  340MOL0     C44787   1.298   3.110   1.538  0.5147 -0.3611  0.1102
  340MOL0     C44788   1.238   3.255   1.540  0.5735  0.1203 -0.5719
  340MOL0     C44789   1.329   3.369   1.590 -0.1691  0.0754 -0.2971
  340MOL0     C44790   1.255   3.499   1.560 -0.3576 -0.8169  0.9380
  340MOL0     C44791   1.345   3.620   1.610  0.4372  0.2181  0.2999
  340MOL0    Cl44792   1.240   3.771   1.605 -0.3890 -0.0259  0.0573
  340MOL0     C44793   1.918   2.999   1.313  0.1984 -0.0065 -0.5049
  340MOL0     C44794   2.023   2.921   1.270  0.2350  0.2598 -0.0230
  340MOL0     O44795   2.164   2.622   1.447 -0.2157  0.0261 -0.2726
  340MOL0     C44796   2.353   2.433   1.348 -0.1197  0.0058 -1.2016
  340MOL0     C44797   2.440   2.335   1.289 -0.2689 -0.1735 -1.3710
  340MOL0     N44798   2.845   1.892   0.953 -0.0642  0.4590 -0.0026
  340MOL0     N44799   2.971   1.869   0.985 -0.0041 -0.7202  0.1639
  340MOL0     C44800   3.853   1.393   1.627 -0.0719 -0.4900  0.3057
  340MOL0     C44801   3.941   1.421   1.732  0.8245 -0.1074 -0.3248
  340MOL0     C44802   4.261   1.298   2.060 -0.7359  0.0606  0.5509
  340MOL0     C44803   4.271   1.218   2.176 -0.5246  0.5340 -0.3747
  340MOL0     C44804   4.371   1.245   2.268 -0.1441  0.0798  0.7038
  340MOL0     C44805   4.455   1.355   2.245  1.0916  1.0437  0.0699
  340MOL0     O44806   4.556   1.365   2.336 -0.4070  0.1194  0.4867
  340MOL0     C44807   4.531   1.443   2.459 -0.2372 -0.0577  0.2449
  340MOL0     C44808   4.527   1.595   2.443 -0.0201  0.4450  0.7866
  340MOL0     C44809   4.505   1.674   2.576 -0.1547 -0.7935 -0.3517
  340MOL0     C44810   4.404   1.623   2.677 -0.2371  0.6923 -0.8663
  340MOL0     C44811   4.273   1.590   2.619 -0.1527 -0.3223  0.9251
  340MOL0     C44812   4.164   1.575   2.567  0.4343 -0.6444 -0.7402
  340MOL0     C44813   4.452   1.433   2.125  0.1889 -0.0430 -0.8004
  340MOL0     C44814   4.354   1.409   2.037  0.6700  0.9046 -0.6584
  340MOL0     H44815   4.179   1.181   1.646 -1.7003 -1.8884 -0.8621
  340MOL0     H44816   4.016   1.134   1.479  0.1606  1.8203 -0.8711
  340MOL0     H44817   3.627   1.352   1.542  2.4542 -0.0882  1.0367
  340MOL0     H44818   3.566   1.233   1.419  0.8841 -0.6420 -1.5327
  340MOL0     H44819   3.649   1.388   1.250 -0.6741 -2.1628  0.2410
  340MOL0     H44820   3.744   1.487   1.372 -0.2496 -1.9495  3.6620
  340MOL0     H44821   3.563   1.604   1.282  0.3371  0.4782  0.8702
  340MOL0     H44822   3.533   1.582   1.447  1.0206  2.9027 -1.4637
  340MOL0     H44823   3.413   1.385   1.236  2.1517  0.3261  0.2220
  340MOL0     H44824   3.370   1.406   1.410  0.9499  2.2891  1.5000
  340MOL0     H44825   3.350   1.620   1.195 -2.3868 -0.3088 -0.3056
  340MOL0     H44826   3.310   1.634   1.370 -0.1425 -1.7957  2.3048
  340MOL0     H44827   3.108   1.502   1.329 -0.4687  1.1510 -0.8441
  340MOL0     H44828   3.193   1.409   1.201  2.2471  0.7062 -1.1503
  340MOL0     H44829   3.163   1.576   1.032 -0.0988 -0.6555 -0.3603
  340MOL0     H44830   3.016   1.536   1.105 -1.1320  0.5740 -0.4945
  340MOL0     H44831   3.174   1.781   1.126  0.3326  0.2711  0.5868
  340MOL0     H44832   3.075   1.743   1.272  2.5423 -2.3453  0.5792
  340MOL0     H44833   2.810   1.710   1.218  1.2484  0.2886  0.5158
  340MOL0     H44834   2.592   1.840   1.157  1.8222  1.8360 -0.5493
  340MOL0     H44835   2.598   1.702   1.042  1.6800  0.7430 -3.1471
  340MOL0     H44836   2.437   1.873   0.951 -0.6965  1.0696 -0.6840
  340MOL0     H44837   2.564   1.867   0.836 -0.7552 -1.4056 -0.2095
  340MOL0     H44838   2.674   2.078   0.962 -0.4545  1.3602  1.0282
  340MOL0     H44839   2.531   2.099   0.868  0.2446 -1.3762 -0.9343
  340MOL0     H44840   2.563   2.086   1.171  0.4986 -0.9017 -0.4503
  340MOL0     H44841   2.406   2.105   1.086  0.1007  2.3001 -0.9848
  340MOL0     H44842   2.419   2.440   0.977  0.4019 -0.2324 -0.4392
  340MOL0     H44843   2.245   2.589   1.071  0.0639  2.2596  2.5573
  340MOL0     H44844   1.912   2.611   1.344  0.8845 -0.6661 -1.2015
  340MOL0     H44845   1.726   2.735   1.422  2.2397 -3.1156  0.9004
  340MOL0     H44846   1.594   2.862   1.264 -0.6048 -1.9679  3.2982
  340MOL0     H44847   1.564   3.035   1.216  1.3695  2.0132  1.0992
  340MOL0     H44848   1.457   2.887   1.455  0.5690 -2.8830 -2.6409
  340MOL0     H44849   1.366   2.946   1.316 -2.5664 -1.1479  2.9782
  340MOL0     H44850   1.420   3.175   1.368  1.7312 -0.0560  0.2239
  340MOL0     H44851   1.523   3.142   1.503  0.7145  0.8424  0.2132
  340MOL0     H44852   1.219   3.044   1.501  1.0235 -0.1564 -1.4215
  340MOL0     H44853   1.321   3.085   1.642  2.2380  0.1232 -0.1214
  340MOL0     H44854   1.149   3.247   1.604  0.2724 -0.2116 -1.0240
  340MOL0     H44855   1.211   3.280   1.437 -0.3160  1.2667 -0.0882
  340MOL0     H44856   1.424   3.367   1.536 -1.2497 -0.5580 -2.2908
  340MOL0     H44857   1.357   3.363   1.696  2.7170 -2.2787 -1.0535
  340MOL0     H44858   1.250   3.509   1.451  0.6146 -0.4144  0.9128
  340MOL0     H44859   1.152   3.509   1.595 -1.4437  0.8139 -2.2399
  340MOL0     H44860   1.429   3.628   1.540 -0.8584  0.7396 -1.2564
  340MOL0     H44861   1.376   3.604   1.713  1.0343 -0.7379 -0.0137
  340MOL0     H44862   1.929   3.107   1.313 -2.0566  0.2739  0.9278
  340MOL0     H44863   2.107   2.968   1.219  0.6428  0.8302  1.1387
  340MOL0     H44864   2.335   2.416   1.454  1.6909  1.4466 -0.6111
  340MOL0     H44865   2.510   2.278   1.349 -2.1402 -1.0539  0.0600
  340MOL0     H44866   3.769   1.459   1.607 -3.2701 -3.9272  1.2626
  340MOL0     H44867   3.919   1.509   1.790  2.0088  0.8040 -1.1968
  340MOL0     H44868   4.204   1.136   2.199 -0.1263  0.2998 -0.0393
  340MOL0     H44869   4.397   1.180   2.351 -0.5025 -0.2842  0.5330
  340MOL0     H44870   4.605   1.422   2.537 -0.7935  1.8585  1.3503
  340MOL0     H44871   4.436   1.400   2.493 -0.6076  0.4992 -0.0609
  340MOL0     H44872   4.614   1.632   2.388  0.8717 -0.4011  1.5804
  340MOL0     H44873   4.446   1.609   2.371  0.7562 -0.6686 -0.3481
  340MOL0     H44874   4.465   1.766   2.531 -2.3339 -2.1821 -1.4276
  340MOL0     H44875   4.600   1.697   2.625 -0.8844 -1.1143  1.2853
  340MOL0     H44876   4.425   1.532   2.733 -4.5453  0.5689  0.9603
  340MOL0     H44877   4.379   1.704   2.747 -1.2679  1.7526 -2.3867
  340MOL0     H44878   4.071   1.548   2.521 -0.0736 -0.7972  0.3642
  340MOL0     H44879   4.526   1.507   2.097 -0.7205  0.9206 -0.6643
  340MOL0     H44880   4.340   1.478   1.954 -0.0748  0.0318 -1.2695
  341MOL0     O44881   7.129  10.820   8.902 -0.4925 -0.1958  0.1468
  341MOL0     C44882   7.134  10.720   8.828 -0.0080 -0.1100 -0.4972
  341MOL0     O44883   7.031  10.629   8.818  0.1662 -0.1049  0.0247
  341MOL0     C44884   6.900  10.656   8.861 -0.0537  0.2869  0.3609
  341MOL0     C44885   6.796  10.682   8.765  0.3859 -0.5545  1.1132
  341MOL0     C44886   6.670  10.727   8.796 -0.1617  0.4227 -0.0477
  341MOL0     C44887   6.632  10.744   8.932 -1.1068 -0.6806  0.4721
  341MOL0     O44888   6.522  10.805   8.980 -0.7552 -0.8844  0.4271
  341MOL0     C44889   6.397  10.793   8.924 -0.0372 -0.0031 -1.1492
  341MOL0     C44890   6.282  10.843   9.004 -0.2498 -0.7860  0.0063
  341MOL0     C44891   6.154  10.838   8.916 -0.5564 -0.2153 -0.1108
  341MOL0     C44892   6.031  10.875   8.995 -0.4822  0.2278 -0.4246
  341MOL0     C44893   5.904  10.847   8.907  0.0713  1.1273  0.0260
  341MOL0     C44894   5.777  10.921   8.957  0.1886 -0.7214  0.5704
  341MOL0     C44895   5.649  10.857   8.898  0.4522  0.4599  0.2455
  341MOL0     C44896   5.538  10.943   8.924 -0.5691  0.3585  0.2296
  341MOL0     N44897   5.418  10.870   8.889  0.0785 -0.1539 -0.3321
  341MOL0     C44898   5.363  10.856   8.764 -0.2376  0.1653 -0.8766
  341MOL0     C44899   5.254  10.782   8.779 -1.1327  0.0298  0.3696
  341MOL0     C44900   5.148  10.746   8.681 -0.7122 -0.1211  0.1948
  341MOL0     C44901   5.070  10.865   8.629 -1.1216 -0.3365  0.8803
  341MOL0     C44902   4.977  10.806   8.523  0.2310  0.4558  0.1257
  341MOL0     C44903   4.873  10.900   8.471 -0.0518 -0.0385  0.4578
  341MOL0     O44904   4.942  10.996   8.391  0.7766  0.1869  1.4505
  341MOL0     C44905   4.847  11.092   8.339 -0.2691 -0.3631  1.6093
  341MOL0     C44906   4.707  11.093   8.335 -0.2286 -0.4042 -0.3149
  341MOL0     C44907   4.645  11.193   8.269 -0.1592 -0.6824 -0.8568
  341MOL0     C44908   4.708  11.288   8.196  0.4409  0.1596  0.3161
  341MOL0     C44909   4.632  11.399   8.134  0.7677  0.4190  0.0836
  341MOL0     O44910   4.493  11.384   8.137  0.0249 -0.4325  0.0518
  341MOL0     C44911   4.410  11.472   8.068 -0.6159 -1.0403  0.0053
  341MOL0     C44912   4.413  11.609   8.097  0.6257  0.2377 -0.1754
  341MOL0     C44913   4.294  11.680   8.072 -0.1532 -0.5840  0.7549
  341MOL0     C44914   4.184  11.626   8.000  0.4117  0.2629 -0.1069
  341MOL0     O44915   4.066  11.687   7.972  0.5642 -0.3132  0.5373
  341MOL0     C44916   4.045  11.833   7.984 -0.7793  0.2622 -0.5444
  341MOL0     C44917   3.979  11.883   7.857 -0.4743  0.2890 -0.2324
  341MOL0     C44918   3.833  11.841   7.858 -1.0222 -0.9873  0.1329
  341MOL0     C44919   3.750  11.922   7.755  0.1402  0.2160  0.3344
  341MOL0     C44920   3.614  11.874   7.722 -0.2315 -0.4275  0.7163
  341MOL0     C44921   3.516  11.911   7.840 -0.4062 -0.5304  0.8474
  341MOL0     C44922   3.444  12.043   7.815  0.0500  0.8277  0.1853
  341MOL0     C44923   3.303  12.022   7.743 -0.6845  0.5775  0.5671
  341MOL0    Cl44924   3.184  11.935   7.846 -0.3064  0.2753 -0.4346
  341MOL0     C44925   4.197  11.493   7.962  0.4091 -0.7856 -0.5596
  341MOL0     C44926   4.300  11.411   8.006  0.0124  0.0313 -0.4788
  341MOL0     O44927   4.688  11.476   8.058  0.4585  0.1450  0.1991
  341MOL0     C44928   4.847  11.285   8.196  0.7057 -0.4190  0.2452
  341MOL0     C44929   4.914  11.193   8.278 -0.0687 -0.5287  1.4127
  341MOL0     N44930   5.243  10.751   8.913 -0.2632 -0.4509 -0.0437
  341MOL0     N44931   5.338  10.808   8.983 -0.2882  0.4419  0.6858
  341MOL0     C44932   6.729  10.725   9.029 -0.0637  0.4817 -0.0170
  341MOL0     C44933   6.864  10.675   9.000  0.1996 -0.0497 -0.1015
  341MOL0     C44934   7.268  10.690   8.776 -0.4446  0.0927 -0.0916
  341MOL0     C44935   7.372  10.781   8.798 -0.4549 -0.2775 -0.5923
  341MOL0     C44936   7.504  10.747   8.758 -0.0264 -0.2990 -0.7070
  341MOL0     C44937   7.531  10.620   8.695 -0.1666  0.5716  0.1890
  341MOL0     O44938   7.653  10.581   8.649 -0.5992  0.2700 -0.1872
  341MOL0     C44939   7.776  10.648   8.692  0.3122 -0.5924 -0.1079
  341MOL0     C44940   7.857  10.540   8.758 -0.2327 -0.4509  0.2061
  341MOL0     C44941   7.938  10.447   8.671 -0.6984  0.1501 -0.0566
  341MOL0     C44942   7.997  10.321   8.740  0.0814 -0.8003  0.3424
  341MOL0     C44943   8.097  10.365   8.833 -1.0155  0.0250 -0.1235
  341MOL0     C44944   8.181  10.424   8.910 -0.0094  0.6927  0.0795
  341MOL0     C44945   7.425  10.528   8.679 -0.5587 -0.2025 -0.2502
  341MOL0     C44946   7.298  10.565   8.721  0.0748 -0.5592  0.0209
  341MOL0     H44947   6.823  10.677   8.660  0.1199  1.1966  0.9393
  341MOL0     H44948   6.610  10.762   8.713 -1.9215  0.9833  1.3972
  341MOL0     H44949   6.382  10.687   8.901 -1.4626  0.4392 -2.4303
  341MOL0     H44950   6.391  10.851   8.831 -2.7246  1.7018 -0.0247
  341MOL0     H44951   6.296  10.940   9.052  0.6474 -1.1336  0.4686
  341MOL0     H44952   6.254  10.770   9.081 -2.3600  0.1563  0.2242
  341MOL0     H44953   6.138  10.738   8.876  1.5481 -1.5998  2.2058
  341MOL0     H44954   6.166  10.916   8.841  0.1199  1.0415  1.2359
  341MOL0     H44955   6.021  10.825   9.092  4.1565  1.9788  1.2424
  341MOL0     H44956   6.032  10.984   9.009 -2.1336 -0.0107  2.3732
  341MOL0     H44957   5.897  10.738   8.902 -0.0962  1.0101  1.9885
  341MOL0     H44958   5.916  10.872   8.802 -1.9481 -1.7287 -1.0038
  341MOL0     H44959   5.778  11.027   8.928 -1.2207 -0.9272 -0.3617
  341MOL0     H44960   5.766  10.925   9.066  3.6071  1.2805  0.9904
  341MOL0     H44961   5.654  10.838   8.790 -3.4815  0.4053 -0.0570
  341MOL0     H44962   5.644  10.767   8.959  2.3862 -0.7596 -1.2429
  341MOL0     H44963   5.545  11.029   8.857  1.6147 -0.5790 -0.8708
  341MOL0     H44964   5.527  10.981   9.026  0.6473 -0.8908  0.8605
  341MOL0     H44965   5.402  10.905   8.675 -0.5253  0.0148 -1.0892
  341MOL0     H44966   5.084  10.671   8.729 -0.9086 -0.7667 -1.0214
  341MOL0     H44967   5.198  10.683   8.607  1.1614 -0.2936  1.5394
  341MOL0     H44968   5.138  10.918   8.562 -0.4151  1.1682  2.6799
  341MOL0     H44969   5.032  10.938   8.702  0.0397  0.0755  1.0950
  341MOL0     H44970   5.040  10.765   8.443  0.6299  0.2504  0.5434
  341MOL0     H44971   4.915  10.730   8.572  0.0885  0.9690  0.7536
  341MOL0     H44972   4.820  10.941   8.557  0.2559  1.0829  0.1283
  341MOL0     H44973   4.797  10.850   8.411  1.9393 -1.3912 -1.1006
  341MOL0     H44974   4.646  11.020   8.387  0.7134 -1.3436 -0.4646
  341MOL0     H44975   4.537  11.189   8.261 -0.4971 -0.1895  2.2637
  341MOL0     H44976   4.503  11.652   8.140  2.7805 -3.6971 -0.3407
  341MOL0     H44977   4.301  11.783   8.104  0.4961 -0.3371 -0.1606
  341MOL0     H44978   4.134  11.892   8.005 -2.6897  2.9206  0.6707
  341MOL0     H44979   3.974  11.846   8.066 -2.3700  2.0796 -2.0949
  341MOL0     H44980   4.030  11.834   7.773 -1.1487  0.7008 -0.8928
  341MOL0     H44981   3.989  11.991   7.841  1.2777  0.6617  2.7238
  341MOL0     H44982   3.784  11.851   7.956 -1.2008 -1.4457  0.0928
  341MOL0     H44983   3.825  11.733   7.846 -0.0441 -1.7367  4.4247
  341MOL0     H44984   3.754  12.030   7.773 -1.6466 -0.1745  3.8067
  341MOL0     H44985   3.801  11.929   7.658 -0.2682  2.2239  0.2131
  341MOL0     H44986   3.617  11.765   7.713 -0.4557 -0.4175  0.5067
  341MOL0     H44987   3.580  11.927   7.632 -1.8900  0.3311  1.7428
  341MOL0     H44988   3.569  11.922   7.935  0.4756  1.9279  0.1504
  341MOL0     H44989   3.445  11.829   7.855 -0.3056 -0.4794  1.6413
  341MOL0     H44990   3.419  12.084   7.913 -1.1100 -2.0375  1.1954
  341MOL0     H44991   3.510  12.120   7.773 -0.2097  2.4543  2.5854
  341MOL0     H44992   3.330  11.953   7.662 -2.4391 -2.3800  2.2943
  341MOL0     H44993   3.260  12.117   7.711 -2.2478 -1.0676 -2.6267
  341MOL0     H44994   4.107  11.445   7.926 -2.1927 -0.3345  4.4023
  341MOL0     H44995   4.296  11.303   8.007 -0.1297  0.0357  0.2561
  341MOL0     H44996   4.894  11.355   8.129 -0.1058 -2.3859 -2.5650
  341MOL0     H44997   5.022  11.195   8.288  0.1166 -1.5359 -0.0107
  341MOL0     H44998   6.684  10.730   9.128 -0.2258 -0.7888 -0.0159
  341MOL0     H44999   6.933  10.662   9.082  0.5053  1.7452 -0.0462
  341MOL0     H45000   7.357  10.883   8.830  0.6602 -0.2222 -0.1754
  341MOL0     H45001   7.572  10.831   8.763 -0.2272 -0.0600 -1.7247
  341MOL0     H45002   7.753  10.729   8.762 -0.8568 -0.8947 -0.1090
  341MOL0     H45003   7.808  10.701   8.602 -1.6840 -0.1323 -0.5882
  341MOL0     H45004   7.923  10.588   8.831  3.8215 -2.3266 -1.8881
  341MOL0     H45005   7.787  10.480   8.817 -0.7228  1.1410  1.2945
  341MOL0     H45006   8.018  10.511   8.631  0.4300 -1.2269 -0.0698
  341MOL0     H45007   7.874  10.410   8.591 -1.9899  1.9152  0.0916
  341MOL0     H45008   7.914  10.255   8.766 -1.3125  0.2642 -1.1816
  341MOL0     H45009   8.051  10.258   8.670 -0.9401 -3.8814  2.1202
  341MOL0     H45010   8.245  10.484   8.970 -0.4833  0.6923  0.5965
  341MOL0     H45011   7.436  10.425   8.645 -3.0709 -1.1222  1.4156
  341MOL0     H45012   7.219  10.491   8.714  1.4664 -2.2663  1.4470
  342MOL0     O45013  10.489   1.491   9.525  0.0266  0.4393  0.9426
  342MOL0     C45014  10.483   1.413   9.620 -0.4215  0.5319 -0.7085
  342MOL0     O45015  10.380   1.326   9.653 -0.3155  0.1477 -0.2574
  342MOL0     C45016  10.268   1.331   9.573  0.6285  0.7407  0.1464
  342MOL0     C45017  10.195   1.446   9.545  0.3074 -0.6057 -1.3364
  342MOL0     C45018  10.080   1.433   9.468  0.2826  0.1097  0.1204
  342MOL0     C45019  10.028   1.317   9.425 -0.2619 -0.2658  0.0962
  342MOL0     O45020   9.920   1.332   9.343  0.7474  0.0184 -0.4591
  342MOL0     C45021   9.887   1.215   9.268  0.9438  0.0424  0.6778
  342MOL0     C45022   9.744   1.225   9.213 -0.1003 -0.2191  0.7758
  342MOL0     C45023   9.621   1.186   9.314 -0.2514 -0.7297 -0.6097
  342MOL0     C45024   9.477   1.204   9.247 -0.3873 -0.3258  0.0759
  342MOL0     C45025   9.359   1.174   9.338 -1.3336  0.8554  0.3015
  342MOL0     C45026   9.225   1.194   9.262  0.1335  1.5088 -0.8759
  342MOL0     C45027   9.108   1.200   9.358 -0.0436 -0.8774 -0.3312
  342MOL0     C45028   9.106   1.333   9.435  0.4379  0.7141  0.4025
  342MOL0     N45029   9.037   1.440   9.359  0.2103 -0.1219  0.2062
  342MOL0     C45030   9.006   1.559   9.415  0.1036  0.8680  0.3814
  342MOL0     C45031   8.957   1.631   9.313  0.1103 -0.2243  0.0064
  342MOL0     C45032   8.913   1.773   9.342 -0.2310 -0.8748  0.2705
  342MOL0     C45033   8.769   1.780   9.408 -0.2830 -0.4520 -0.0309
  342MOL0     C45034   8.657   1.740   9.307 -0.9725 -0.6357 -0.8320
  342MOL0     C45035   8.519   1.777   9.358 -0.1743 -1.0099  0.2498
  342MOL0     O45036   8.480   1.716   9.481  0.2418  1.0236 -0.1419
  342MOL0     C45037   8.358   1.750   9.525  0.3983  0.7409  0.6450
  342MOL0     C45038   8.317   1.885   9.555  0.4649  0.5792 -0.3776
  342MOL0     C45039   8.178   1.914   9.590 -1.4017 -0.2461 -0.7517
  342MOL0     C45040   8.094   1.803   9.617  0.5940 -0.9426 -0.1290
  342MOL0     C45041   7.960   1.826   9.675 -0.6214 -0.3409 -0.4432
  342MOL0     O45042   7.869   1.736   9.650  0.0717  0.3408  0.7882
  342MOL0     C45043   7.757   1.738   9.730  0.3510  0.6214  0.0093
  342MOL0     C45044   7.731   1.628   9.820  0.1817  0.2160 -0.0955
  342MOL0     C45045   7.619   1.628   9.907 -0.6850  0.0420  0.3852
  342MOL0     C45046   7.533   1.742   9.911 -0.1538  0.2453 -0.9388
  342MOL0     O45047   7.432   1.728   9.994  0.5668 -0.0961  0.3356
  342MOL0     C45048   7.331   1.835   9.981 -0.0456  0.8990 -0.3761
  342MOL0     C45049   7.221   1.800  10.078  1.0163 -0.2642 -0.7531
  342MOL0     C45050   7.135   1.914  10.125 -0.1467 -0.0360 -0.7406
  342MOL0     C45051   7.049   1.858  10.245 -0.4258  0.2409  0.1545
  342MOL0     C45052   6.953   1.966  10.290  0.3104  0.4479  0.6147
  342MOL0     C45053   6.902   1.932  10.429 -0.5208 -0.2998 -0.6147
  342MOL0     C45054   6.808   2.047  10.474  0.0293 -0.7743  0.6121
  342MOL0     C45055   6.769   2.047  10.619 -0.0780 -0.2711 -0.3567
  342MOL0    Cl45056   6.694   2.206  10.648 -0.2962  0.1680 -0.0731
  342MOL0     C45057   7.563   1.851   9.820 -0.3923  0.3272 -1.1594
  342MOL0     C45058   7.676   1.852   9.742 -0.5992 -0.2746 -0.4474
  342MOL0     O45059   7.950   1.925   9.738  0.4182 -0.2644  0.7110
  342MOL0     C45060   8.130   1.669   9.573  0.0568  0.8594  0.2715
  342MOL0     C45061   8.262   1.648   9.534 -0.5900 -0.2901  0.1737
  342MOL0     N45062   8.975   1.558   9.198 -0.1558  0.9300 -0.3437
  342MOL0     N45063   9.022   1.441   9.225  0.6204  0.2510  0.6288
  342MOL0     C45064  10.097   1.205   9.465  0.4525 -0.3968 -0.4938
  342MOL0     C45065  10.208   1.209   9.548  0.0667 -0.2009 -0.2698
  342MOL0     C45066  10.608   1.429   9.712  0.1179  0.0507 -0.2996
  342MOL0     C45067  10.630   1.340   9.816 -0.0876  0.3911  0.2780
  342MOL0     C45068  10.740   1.350   9.898 -1.0397  0.0192 -0.1352
  342MOL0     C45069  10.834   1.450   9.878  0.5782  0.7413 -0.5089
  342MOL0     O45070  10.924   1.473   9.987  0.7819  0.2376  0.3071
  342MOL0     C45071  10.997   1.603   9.995 -0.2355  0.8910  0.5128
  342MOL0     C45072  11.137   1.582   9.921 -1.2846  0.0003 -0.3980
  342MOL0     C45073  11.242   1.697   9.946  0.4581  1.6183  0.4363
  342MOL0     C45074  11.209   1.828   9.872  0.3740 -0.0332 -0.6577
  342MOL0     C45075  11.228   1.820   9.734  0.4093 -0.3570 -0.3187
  342MOL0     C45076  11.238   1.814   9.617 -0.0537  0.2249 -0.5796
  342MOL0     C45077  10.811   1.536   9.773  0.1801  0.7498  0.4571
  342MOL0     C45078  10.704   1.526   9.689 -0.5900 -0.6516 -0.5230
  342MOL0     H45079  10.232   1.545   9.570  1.5956 -1.5511  0.7699
  342MOL0     H45080  10.041   1.528   9.433  2.7845  0.7465 -1.1815
  342MOL0     H45081   9.870   1.128   9.333 -3.6197  0.3137  0.1259
  342MOL0     H45082   9.958   1.190   9.188 -1.0961 -2.3173 -0.5505
  342MOL0     H45083   9.739   1.162   9.124  0.3866 -1.6835  1.7573
  342MOL0     H45084   9.728   1.327   9.176  1.9261  0.3441  1.3353
  342MOL0     H45085   9.621   1.242   9.408  3.4281 -4.7885  2.1682
  342MOL0     H45086   9.639   1.082   9.342  1.1687  0.1278  1.9920
  342MOL0     H45087   9.470   1.306   9.208  1.0897  0.5895  2.0020
  342MOL0     H45088   9.471   1.127   9.169  3.4102 -1.0161  0.2641
  342MOL0     H45089   9.363   1.235   9.428  0.1757 -1.1851  1.7069
  342MOL0     H45090   9.361   1.072   9.378 -1.4922  0.2369 -1.2101
  342MOL0     H45091   9.205   1.113   9.191  0.2594  1.3266 -0.7040
  342MOL0     H45092   9.228   1.288   9.206 -0.2189  2.5055  0.7294
  342MOL0     H45093   9.012   1.199   9.305 -1.1492  2.6352  1.2808
  342MOL0     H45094   9.111   1.113   9.424 -1.8878  0.6451  1.8874
  342MOL0     H45095   9.207   1.375   9.442  0.7937  0.0740 -0.6794
  342MOL0     H45096   9.051   1.326   9.529 -0.9971 -1.9283 -0.5236
  342MOL0     H45097   9.024   1.596   9.515 -1.9079 -2.0676  1.9876
  342MOL0     H45098   8.921   1.828   9.248  0.2368  0.3652  1.0210
  342MOL0     H45099   8.983   1.818   9.413  0.8003 -1.1033 -0.5604
  342MOL0     H45100   8.749   1.883   9.439  0.2339 -0.5966  0.7831
  342MOL0     H45101   8.770   1.712   9.493  0.5742 -0.1655  0.1963
  342MOL0     H45102   8.684   1.791   9.215  1.3216  0.1513  0.2056
  342MOL0     H45103   8.653   1.634   9.282  0.3341 -0.4381 -2.0296
  342MOL0     H45104   8.446   1.742   9.285  0.8652  0.0572 -1.3758
  342MOL0     H45105   8.506   1.886   9.360 -2.1756 -0.9915 -3.7565
  342MOL0     H45106   8.392   1.964   9.560 -0.0774  1.0139  2.6683
  342MOL0     H45107   8.148   2.013   9.622  1.6994  0.7597 -0.5716
  342MOL0     H45108   7.805   1.548   9.818  1.0031  0.9588 -1.0404
  342MOL0     H45109   7.585   1.538   9.958 -1.6445 -0.9985 -1.9100
  342MOL0     H45110   7.286   1.828   9.881 -2.2467 -3.0948  0.6939
  342MOL0     H45111   7.369   1.936   9.997  1.0869  0.5001 -0.4186
  342MOL0     H45112   7.264   1.769  10.174 -1.4106 -1.5851 -0.0032
  342MOL0     H45113   7.151   1.726  10.039  1.2989  0.3554 -2.5514
  342MOL0     H45114   7.066   1.948  10.048  1.0248  0.0363 -1.7992
  342MOL0     H45115   7.194   2.000  10.159  0.4574 -1.0941  1.0078
  342MOL0     H45116   6.991   1.772  10.212 -0.4194  0.6198 -0.9004
  342MOL0     H45117   7.123   1.831  10.321 -1.1278  1.1627  1.2108
  342MOL0     H45118   6.869   1.967  10.220  0.1761 -0.7818  0.7200
  342MOL0     H45119   7.010   2.059  10.285  1.2309 -0.1615 -2.4141
  342MOL0     H45120   6.983   1.908  10.499 -0.2876 -2.2854 -1.5089
  342MOL0     H45121   6.837   1.845  10.429 -2.4260  1.0477  0.2777
  342MOL0     H45122   6.854   2.143  10.450 -0.2493 -0.4006  1.5283
  342MOL0     H45123   6.716   2.033  10.417  0.1863 -1.3979  0.5063
  342MOL0     H45124   6.857   2.022  10.679 -0.5550 -1.9624 -0.2973
  342MOL0     H45125   6.695   1.971  10.647 -0.3842  0.9553  2.5234
  342MOL0     H45126   7.513   1.947   9.812 -0.4790  0.2186 -2.0314
  342MOL0     H45127   7.701   1.947   9.696 -0.4390 -0.1414 -0.0888
  342MOL0     H45128   8.070   1.581   9.593  1.4746  0.2161  2.0164
  342MOL0     H45129   8.288   1.544   9.518 -1.3683 -0.7904  1.8895
  342MOL0     H45130  10.076   1.104   9.430  3.2120 -1.5648  0.9592
  342MOL0     H45131  10.263   1.122   9.582  3.4356  1.1122 -1.8546
  342MOL0     H45132  10.558   1.263   9.846 -0.5683  0.2720 -1.1227
  342MOL0     H45133  10.759   1.272   9.970  0.3307  0.6383  0.2023
  342MOL0     H45134  11.028   1.628  10.097  0.3231  2.2164  0.0391
  342MOL0     H45135  10.946   1.692   9.958 -0.8495  0.3000 -0.0946
  342MOL0     H45136  11.181   1.484   9.942  3.0237  1.2753 -2.2988
  342MOL0     H45137  11.115   1.587   9.814 -2.8514 -0.2487 -0.1222
  342MOL0     H45138  11.341   1.669   9.910  1.6508  4.2515  1.4114
  342MOL0     H45139  11.263   1.707  10.053  1.7289 -0.9249  0.5040
  342MOL0     H45140  11.102   1.849   9.884 -0.3630 -1.4292 -3.8259
  342MOL0     H45141  11.267   1.912   9.910  2.8174 -1.9263  0.0796
  342MOL0     H45142  11.245   1.814   9.510  0.4076 -2.1531 -0.5840
  342MOL0     H45143  10.880   1.618   9.757 -0.3264  0.9934 -0.5784
  342MOL0     H45144  10.690   1.597   9.608 -1.9467 -0.4577 -0.1439
  343MOL0     O45145   6.231   6.351   8.016 -0.3751  0.4990  0.3881
  343MOL0     C45146   6.189   6.257   8.082 -0.4014  0.9093 -0.0080
  343MOL0     O45147   6.101   6.258   8.186 -0.2574  0.4219  0.2622
  343MOL0     C45148   6.057   6.392   8.223 -0.2545 -0.0627  0.5002
  343MOL0     C45149   6.139   6.466   8.303  0.2384  0.8321  0.0400
  343MOL0     C45150   6.104   6.600   8.328  0.5538  0.0077 -0.5374
  343MOL0     C45151   5.983   6.652   8.269  0.3025  0.0035 -0.5862
  343MOL0     O45152   5.953   6.782   8.283  0.6449 -0.4247 -0.7677
  343MOL0     C45153   5.935   6.855   8.409 -0.2058  0.5331  0.4129
  343MOL0     C45154   5.937   7.013   8.382  0.2884 -0.7501  0.3681
  343MOL0     C45155   5.797   7.070   8.409  0.8364  0.2908 -1.1557
  343MOL0     C45156   5.789   7.217   8.382  0.6349 -0.1075  0.0380
  343MOL0     C45157   5.662   7.277   8.447 -0.4170 -0.0361  0.1574
  343MOL0     C45158   5.540   7.225   8.375  0.0304  0.2068  0.4677
  343MOL0     C45159   5.417   7.320   8.406 -0.3657 -0.4996  0.2766
  343MOL0     C45160   5.296   7.302   8.319 -0.6987  0.4715  0.7139
  343MOL0     N45161   5.262   7.163   8.314  0.1184 -0.0670 -0.5945
  343MOL0     C45162   5.220   7.107   8.205  0.4339  0.3567 -0.2060
  343MOL0     C45163   5.191   6.978   8.239 -0.1539 -0.1024  0.5820
  343MOL0     C45164   5.132   6.874   8.152  0.0913  0.8043  0.5235
  343MOL0     C45165   5.225   6.816   8.044  0.2018 -0.6443 -0.2948
  343MOL0     C45166   5.360   6.780   8.110  0.3132 -0.1082 -0.3768
  343MOL0     C45167   5.459   6.714   8.020 -0.6493  0.2925  0.4854
  343MOL0     O45168   5.488   6.782   7.901  0.3337  0.2694  0.5055
  343MOL0     C45169   5.540   6.911   7.915  0.9757  0.4013  0.1794
  343MOL0     C45170   5.464   7.016   7.867 -0.0163 -0.7357  0.5660
  343MOL0     C45171   5.503   7.153   7.899  0.3546  0.1416  0.4993
  343MOL0     C45172   5.625   7.178   7.963 -0.1657 -0.5473 -0.1677
  343MOL0     C45173   5.666   7.313   8.002 -0.2895 -0.7803 -0.0579
  343MOL0     O45174   5.797   7.331   8.035 -0.1106  0.2841 -0.8170
  343MOL0     C45175   5.854   7.458   8.041  0.6301 -0.5129 -0.2322
  343MOL0     C45176   5.935   7.484   8.151  0.1113 -0.7204 -0.4181
  343MOL0     C45177   6.004   7.599   8.155  0.0352 -0.2085  0.7318
  343MOL0     C45178   5.998   7.702   8.057 -0.0855  0.0996  0.1738
  343MOL0     O45179   6.076   7.816   8.056  0.0471 -0.4312 -0.5298
  343MOL0     C45180   6.192   7.793   7.972  0.3054  0.1817  0.2521
  343MOL0     C45181   6.327   7.841   8.026  0.1576  0.7591  0.5436
  343MOL0     C45182   6.367   7.772   8.162  1.1924 -0.5213  0.6844
  343MOL0     C45183   6.488   7.831   8.225 -0.2021  0.6078 -0.6062
  343MOL0     C45184   6.448   7.945   8.316  0.2398  1.3051 -0.2231
  343MOL0     C45185   6.379   7.901   8.449 -0.2048 -0.0081 -0.7131
  343MOL0     C45186   6.390   7.988   8.564 -0.3748  0.9275  0.6645
  343MOL0     C45187   6.267   7.952   8.661  0.0960  0.3766 -0.0134
  343MOL0    Cl45188   6.257   7.778   8.696  0.5354 -0.0661  0.0553
  343MOL0     C45189   5.920   7.670   7.944  0.0159  1.2619 -0.0612
  343MOL0     C45190   5.838   7.554   7.942 -0.6078 -0.1446 -0.7748
  343MOL0     O45191   5.584   7.409   7.984  0.8060 -0.3092 -0.6281
  343MOL0     C45192   5.711   7.070   8.005  1.3816 -0.3899 -0.8660
  343MOL0     C45193   5.659   6.939   7.984 -0.5108 -1.1363  0.6390
  343MOL0     N45194   5.228   6.957   8.374  0.3139  0.2325 -0.4325
  343MOL0     N45195   5.274   7.072   8.415  0.1626 -0.0112 -0.2316
  343MOL0     C45196   5.907   6.569   8.187  0.1941  0.0387  0.6327
  343MOL0     C45197   5.942   6.436   8.162 -0.8423 -0.4926  0.4609
  343MOL0     C45198   6.241   6.119   8.049 -1.1178 -0.4662  0.7034
  343MOL0     C45199   6.200   6.009   8.125  0.1822  0.2623  0.7257
  343MOL0     C45200   6.265   5.885   8.105  0.5412 -0.2226  0.1641
  343MOL0     C45201   6.366   5.872   8.014  0.5453 -0.5643 -0.3078
  343MOL0     O45202   6.421   5.748   7.999  0.0408  0.3583  0.5116
  343MOL0     C45203   6.530   5.722   7.912 -0.2611 -0.0469 -0.7364
  343MOL0     C45204   6.593   5.586   7.961 -0.7152 -0.6319  0.0273
  343MOL0     C45205   6.641   5.603   8.110  0.5789 -0.9875 -0.4504
  343MOL0     C45206   6.670   5.467   8.173 -0.4050  0.2684 -0.3033
  343MOL0     C45207   6.759   5.379   8.092 -0.5658 -0.8239  0.5880
  343MOL0     C45208   6.825   5.287   8.042  0.2110 -0.2087  0.3384
  343MOL0     C45209   6.407   5.982   7.924 -0.0702 -0.6129  0.3808
  343MOL0     C45210   6.346   6.108   7.945 -0.8799  0.1511 -0.0054
  343MOL0     H45211   6.225   6.415   8.346 -0.6672  0.5593  1.6119
  343MOL0     H45212   6.160   6.669   8.390  1.1470  1.3829 -2.5264
  343MOL0     H45213   6.013   6.840   8.485 -0.2356  0.8434  0.5058
  343MOL0     H45214   5.843   6.818   8.454  0.5626  0.1540  1.7470
  343MOL0     H45215   5.959   7.023   8.275 -2.0323  3.3159  0.0879
  343MOL0     H45216   6.009   7.058   8.451  0.7655 -1.0491  0.0701
  343MOL0     H45217   5.792   7.064   8.518 -1.6143 -0.7848 -1.2557
  343MOL0     H45218   5.724   7.003   8.362  0.3519  0.1633 -0.2385
  343MOL0     H45219   5.880   7.266   8.417  0.9332 -0.8201  0.2850
  343MOL0     H45220   5.782   7.230   8.273 -0.2627 -2.3320 -0.2226
  343MOL0     H45221   5.673   7.386   8.435 -0.5434 -0.1087 -0.7348
  343MOL0     H45222   5.662   7.262   8.555 -3.7803  0.0528  0.2890
  343MOL0     H45223   5.528   7.124   8.415 -1.5542  0.4214  0.6026
  343MOL0     H45224   5.564   7.205   8.270 -0.6902 -1.4223  0.5845
  343MOL0     H45225   5.395   7.282   8.506  0.8816  1.2478  1.2531
  343MOL0     H45226   5.450   7.424   8.413  0.7170 -0.8647  0.9173
  343MOL0     H45227   5.325   7.342   8.222  1.3645 -1.8628  0.2770
  343MOL0     H45228   5.209   7.359   8.353 -0.8297  0.8631 -0.2404
  343MOL0     H45229   5.199   7.159   8.113  0.8306  0.7947 -0.0551
  343MOL0     H45230   5.044   6.921   8.108 -0.8479 -1.6667 -0.3810
  343MOL0     H45231   5.102   6.798   8.224  0.4041  0.3412  0.1727
  343MOL0     H45232   5.231   6.874   7.952  0.0111 -2.5688 -1.5783
  343MOL0     H45233   5.189   6.724   7.997 -2.0558  0.5805 -1.0917
  343MOL0     H45234   5.406   6.873   8.145 -1.0406  0.0791  1.0222
  343MOL0     H45235   5.332   6.713   8.191 -2.3348  0.8253 -0.4218
  343MOL0     H45236   5.415   6.618   7.992 -1.9206  0.4272  1.9432
  343MOL0     H45237   5.555   6.698   8.070 -0.1507  0.2814 -0.4494
  343MOL0     H45238   5.372   7.005   7.811  1.2967  0.7608 -2.0809
  343MOL0     H45239   5.446   7.240   7.872  3.4010  2.0925 -0.1363
  343MOL0     H45240   5.951   7.417   8.235  1.7203 -0.0218 -0.1419
  343MOL0     H45241   6.069   7.615   8.240 -2.9440  2.3104  2.7602
  343MOL0     H45242   6.169   7.831   7.872 -0.4675  1.1888  0.7966
  343MOL0     H45243   6.209   7.688   7.946 -2.3119 -0.1378 -0.4226
  343MOL0     H45244   6.310   7.945   8.056 -3.3858 -0.0831  1.9839
  343MOL0     H45245   6.401   7.824   7.947  0.4559  0.4453  0.8821
  343MOL0     H45246   6.366   7.666   8.135 -2.2837 -0.1798 -1.1494
  343MOL0     H45247   6.276   7.780   8.222  0.8108  1.9990 -0.1190
  343MOL0     H45248   6.523   7.754   8.294 -0.8631 -0.3509 -1.3100
  343MOL0     H45249   6.572   7.858   8.160  0.7572 -1.9351 -0.5067
  343MOL0     H45250   6.383   8.013   8.260  0.7243  1.8179 -0.1663
  343MOL0     H45251   6.537   7.999   8.351 -1.2417  3.0200  1.0893
  343MOL0     H45252   6.417   7.802   8.475  3.7940  0.9398 -2.2826
  343MOL0     H45253   6.273   7.881   8.431 -0.9602  2.8359  0.0101
  343MOL0     H45254   6.486   7.969   8.613 -0.2442  0.2056  0.1522
  343MOL0     H45255   6.388   8.092   8.530  1.1329  0.8285  0.2113
  343MOL0     H45256   6.180   7.993   8.609 -0.1194 -1.4779 -1.2132
  343MOL0     H45257   6.274   8.019   8.748  1.3904  0.3661 -0.0940
  343MOL0     H45258   5.908   7.740   7.863 -3.1550  0.5100 -0.4067
  343MOL0     H45259   5.763   7.532   7.867 -0.0826 -0.6711 -1.1522
  343MOL0     H45260   5.797   7.079   8.070  0.0830  2.0088  0.6854
  343MOL0     H45261   5.719   6.855   8.015  2.2841 -0.7239 -2.9727
  343MOL0     H45262   5.821   6.609   8.134  1.1501  3.7059  1.5380
  343MOL0     H45263   5.883   6.375   8.094 -0.7042  0.7127 -0.7932
  343MOL0     H45264   6.130   6.025   8.207 -1.1732  0.7049 -0.4793
  343MOL0     H45265   6.233   5.801   8.166  5.4317  1.0476  5.3440
  343MOL0     H45266   6.607   5.800   7.924 -3.0078  2.6686  0.4520
  343MOL0     H45267   6.502   5.709   7.807 -0.7456 -1.7931 -0.4160
  343MOL0     H45268   6.517   5.507   7.957  0.5067 -1.9202  0.9980
  343MOL0     H45269   6.677   5.557   7.898  0.3862 -0.6596  1.4735
  343MOL0     H45270   6.578   5.669   8.171  1.8052 -1.0968  0.9798
  343MOL0     H45271   6.739   5.651   8.109 -0.5613  1.9377  3.3106
  343MOL0     H45272   6.721   5.478   8.269  0.9993 -0.7381 -0.9058
  343MOL0     H45273   6.577   5.415   8.196  0.5248 -1.1394  0.3962
  343MOL0     H45274   6.879   5.206   7.998  0.9152  0.5997 -0.3253
  343MOL0     H45275   6.489   5.970   7.854 -1.5753  0.3646 -1.6274
  343MOL0     H45276   6.380   6.193   7.887 -0.3273  1.1909  1.7828
  344MOL0     O45277   8.278   2.311   5.697  0.3369 -0.4531 -0.3493
  344MOL0     C45278   8.328   2.384   5.609 -0.0557  0.2402 -0.4862
  344MOL0     O45279   8.257   2.465   5.517  0.4756  0.2543 -0.2040
  344MOL0     C45280   8.127   2.442   5.480 -0.3177  0.4672  0.1861
  344MOL0     C45281   8.114   2.424   5.341  0.3201 -0.5869  0.0481
  344MOL0     C45282   7.981   2.416   5.291 -0.3191  0.3041 -0.1011
  344MOL0     C45283   7.868   2.432   5.366  0.5072  0.5853 -0.9786
  344MOL0     O45284   7.741   2.424   5.314 -0.0753 -0.1576 -0.5977
  344MOL0     C45285   7.715   2.390   5.173  0.1245  0.1945 -0.2032
  344MOL0     C45286   7.563   2.415   5.156 -0.2961 -0.0018  0.7891
  344MOL0     C45287   7.551   2.564   5.166 -0.0714  0.0261 -0.3685
  344MOL0     C45288   7.403   2.599   5.143  1.0334 -0.4233  0.8173
  344MOL0     C45289   7.362   2.748   5.174  1.0649 -0.3827  0.2670
  344MOL0     C45290   7.230   2.805   5.112 -0.2378  0.7832 -0.3029
  344MOL0     C45291   7.105   2.737   5.162 -0.8887  0.3843  0.6784
  344MOL0     C45292   6.987   2.823   5.122 -0.7697  0.5211 -0.0349
  344MOL0     N45293   6.872   2.758   5.186  0.9223  0.4214 -0.1762
  344MOL0     C45294   6.830   2.629   5.196 -0.1959 -0.8776 -0.3064
  344MOL0     C45295   6.711   2.627   5.264  0.2361 -0.0730  0.1532
  344MOL0     C45296   6.630   2.509   5.304  1.0527 -0.0203  0.2450
  344MOL0     C45297   6.671   2.445   5.441 -0.7123  0.4451  0.1411
  344MOL0     C45298   6.611   2.296   5.450  0.6361 -0.0812 -0.1096
  344MOL0     C45299   6.462   2.294   5.447  0.1538  0.4609 -0.7433
  344MOL0     O45300   6.429   2.190   5.545  0.3276 -0.7488 -0.7497
  344MOL0     C45301   6.301   2.172   5.579 -0.4938 -0.3053 -0.2560
  344MOL0     C45302   6.197   2.252   5.532  0.0939 -0.4353 -0.0266
  344MOL0     C45303   6.065   2.228   5.585 -0.4245 -0.5787 -0.5526
  344MOL0     C45304   6.041   2.126   5.684 -0.2813 -0.0462 -0.1512
  344MOL0     C45305   5.901   2.110   5.734 -0.2412  0.2082 -1.2385
  344MOL0     O45306   5.895   2.037   5.853  0.4401 -0.0658 -0.4013
  344MOL0     C45307   5.787   2.025   5.939  0.3625 -0.1731 -0.7275
  344MOL0     C45308   5.809   1.936   6.045  0.6542 -0.2268  0.1204
  344MOL0     C45309   5.719   1.923   6.152 -0.1400 -0.1371  0.1478
  344MOL0     C45310   5.601   1.996   6.154 -0.9895  0.3580  0.2835
  344MOL0     O45311   5.498   1.986   6.245 -0.2500  0.1553  0.2254
  344MOL0     C45312   5.484   1.851   6.299 -0.6129 -0.0174 -0.6413
  344MOL0     C45313   5.359   1.853   6.389 -0.1069 -0.5012  0.6384
  344MOL0     C45314   5.236   1.892   6.309 -1.5131  0.1831  0.5935
  344MOL0     C45315   5.108   1.866   6.388  0.5301 -0.2259  0.3103
  344MOL0     C45316   4.994   1.845   6.291  0.1814 -0.1552  0.3765
  344MOL0     C45317   4.865   1.829   6.377 -0.5648 -0.8289  0.0071
  344MOL0     C45318   4.734   1.827   6.297  0.0430 -1.2193  0.3173
  344MOL0     C45319   4.694   1.698   6.231  0.0186  0.3103 -0.3552
  344MOL0    Cl45320   4.524   1.703   6.181  0.2405  0.0830 -0.0012
  344MOL0     C45321   5.574   2.078   6.046 -0.1047  0.7771 -0.3587
  344MOL0     C45322   5.664   2.097   5.936 -0.2336 -0.8330 -0.2035
  344MOL0     O45323   5.802   2.164   5.670 -0.2202  0.1962 -0.1196
  344MOL0     C45324   6.146   2.045   5.733 -0.9722  0.3983  0.2548
  344MOL0     C45325   6.275   2.079   5.687 -0.6574  0.0851  0.6057
  344MOL0     N45326   6.681   2.760   5.296 -0.5739  0.4050 -0.0896
  344MOL0     N45327   6.782   2.837   5.254 -0.3773 -0.1069  0.3279
  344MOL0     C45328   7.885   2.453   5.503  0.2368  0.0906 -0.3429
  344MOL0     C45329   8.013   2.453   5.553 -0.0476 -0.2129  0.2192
  344MOL0     C45330   8.474   2.410   5.600 -0.1211  0.7248 -0.1422
  344MOL0     C45331   8.539   2.428   5.475  0.3839  0.2167 -0.6811
  344MOL0     C45332   8.676   2.439   5.481 -0.4829 -0.6434  0.2281
  344MOL0     C45333   8.751   2.433   5.596  0.2633 -1.0115 -0.1487
  344MOL0     O45334   8.897   2.438   5.596  0.7945 -0.8486  0.1085
  344MOL0     C45335   8.956   2.455   5.465 -0.1568 -0.1104 -0.2351
  344MOL0     C45336   9.107   2.454   5.468 -0.3301 -0.4867 -0.6971
  344MOL0     C45337   9.151   2.345   5.560 -1.0581 -0.6011  0.1590
  344MOL0     C45338   9.284   2.303   5.528 -0.3343  0.7920  0.1111
  344MOL0     C45339   9.383   2.408   5.557  0.7189 -0.0301 -0.4309
  344MOL0     C45340   9.463   2.491   5.594  0.2013 -0.3950 -0.0692
  344MOL0     C45341   8.684   2.403   5.716  0.0981  1.2831  0.4378
  344MOL0     C45342   8.550   2.387   5.712  0.3326 -0.4712  0.0337
  344MOL0     H45343   8.198   2.426   5.272  0.2895 -0.3624  0.0179
  344MOL0     H45344   7.973   2.426   5.183 -0.8052  2.3583  0.0748
  344MOL0     H45345   7.726   2.285   5.144 -1.7823 -1.0381  3.0051
  344MOL0     H45346   7.770   2.462   5.112  0.0585  1.3273  1.0177
  344MOL0     H45347   7.497   2.359   5.223  0.9456 -3.1452 -0.4339
  344MOL0     H45348   7.531   2.372   5.061 -1.6528 -1.8276  2.0115
  344MOL0     H45349   7.616   2.624   5.102  1.3203  1.0884  1.9472
  344MOL0     H45350   7.574   2.612   5.262 -1.3794  1.0525 -0.5369
  344MOL0     H45351   7.371   2.571   5.042  1.3797 -0.7127  0.7824
  344MOL0     H45352   7.341   2.534   5.206 -0.5433  0.7542  0.5216
  344MOL0     H45353   7.429   2.821   5.126 -0.4723  0.4299 -0.7141
  344MOL0     H45354   7.368   2.752   5.283  1.8552  0.5738  0.2114
  344MOL0     H45355   7.223   2.794   5.003  2.2048  0.8269 -0.5232
  344MOL0     H45356   7.218   2.911   5.137 -0.3665  0.9904 -1.2110
  344MOL0     H45357   7.098   2.637   5.118  0.6228  0.8277 -0.6497
  344MOL0     H45358   7.112   2.743   5.271 -0.3723  3.6789  0.5462
  344MOL0     H45359   6.971   2.835   5.015  0.3147 -0.8061 -0.3782
  344MOL0     H45360   6.996   2.925   5.161  0.4442 -0.2931  2.0559
  344MOL0     H45361   6.886   2.541   5.165 -0.0787 -0.8048 -0.3034
  344MOL0     H45362   6.621   2.437   5.222 -0.5775  0.8378 -0.3734
  344MOL0     H45363   6.528   2.541   5.326  0.8145 -0.2398 -0.4937
  344MOL0     H45364   6.645   2.500   5.532 -0.5409  0.9611 -0.1142
  344MOL0     H45365   6.778   2.423   5.452 -0.4683  1.2537 -0.5288
  344MOL0     H45366   6.652   2.233   5.370  0.4222 -2.1268  1.3214
  344MOL0     H45367   6.645   2.256   5.546  0.9665  0.1929 -0.1090
  344MOL0     H45368   6.425   2.267   5.348  2.4094  0.5343 -1.6695
  344MOL0     H45369   6.420   2.393   5.467  1.1000  0.6913  0.1847
  344MOL0     H45370   6.220   2.325   5.455  1.4526 -1.3003 -0.4705
  344MOL0     H45371   5.983   2.285   5.542  3.2505  4.4497 -1.8417
  344MOL0     H45372   5.904   1.883   6.034  1.2797  0.8881 -0.0484
  344MOL0     H45373   5.747   1.837   6.213  1.8002 -1.2572 -2.1485
  344MOL0     H45374   5.571   1.828   6.362 -0.9835 -0.4269 -0.2707
  344MOL0     H45375   5.476   1.782   6.215 -0.1901 -0.9480  0.0594
  344MOL0     H45376   5.378   1.916   6.477  1.4795 -0.4458  0.2843
  344MOL0     H45377   5.334   1.755   6.430  0.5564 -0.5463  0.9480
  344MOL0     H45378   5.238   1.840   6.213 -0.7243  0.0214  0.6844
  344MOL0     H45379   5.240   2.000   6.293  3.0301  0.1754  0.3729
  344MOL0     H45380   5.111   1.777   6.451 -2.5263 -1.7084 -1.4143
  344MOL0     H45381   5.086   1.955   6.448 -0.2349  0.9057 -1.5653
  344MOL0     H45382   5.000   1.753   6.233  2.4543 -0.9290  1.7075
  344MOL0     H45383   4.985   1.934   6.227  0.9781  0.1885  0.7256
  344MOL0     H45384   4.860   1.930   6.418  1.3715 -1.2553  1.4413
  344MOL0     H45385   4.867   1.761   6.462  0.1890  0.4483  1.0435
  344MOL0     H45386   4.657   1.871   6.361 -2.5872 -0.8223 -2.8253
  344MOL0     H45387   4.738   1.908   6.224 -3.2916 -0.5341  0.7590
  344MOL0     H45388   4.716   1.614   6.297 -0.3444 -0.1807 -0.8581
  344MOL0     H45389   4.762   1.668   6.151  2.5769 -4.5454  3.1721
  344MOL0     H45390   5.472   2.114   6.030 -0.6918 -1.5157 -2.4452
  344MOL0     H45391   5.636   2.172   5.863  0.4189  0.0935  0.4691
  344MOL0     H45392   6.126   1.964   5.802  0.2900 -0.1427  0.0199
  344MOL0     H45393   6.361   2.029   5.731 -1.5091 -0.5839  1.5875
  344MOL0     H45394   7.801   2.472   5.568 -0.7183  3.4672 -2.2938
  344MOL0     H45395   8.011   2.470   5.660 -1.9796 -1.6140  0.4669
  344MOL0     H45396   8.487   2.444   5.381  0.2140  3.1496 -0.1824
  344MOL0     H45397   8.722   2.455   5.384  1.6173  2.3091  1.5353
  344MOL0     H45398   8.929   2.552   5.421  1.4574 -0.9470 -3.3410
  344MOL0     H45399   8.920   2.375   5.399  2.2982 -2.5548  1.1931
  344MOL0     H45400   9.153   2.451   5.369  2.6820  0.0718  0.5863
  344MOL0     H45401   9.135   2.552   5.509 -0.6106 -0.1784 -1.2370
  344MOL0     H45402   9.072   2.270   5.558 -1.0264 -0.6093 -0.7952
  344MOL0     H45403   9.152   2.376   5.666  0.5588  0.1812 -0.0416
  344MOL0     H45404   9.311   2.217   5.589 -1.7661  0.9460  1.0152
  344MOL0     H45405   9.288   2.287   5.420 -0.4666  1.1593  0.0497
  344MOL0     H45406   9.521   2.574   5.628 -1.5176  0.9638 -0.3229
  344MOL0     H45407   8.731   2.397   5.814 -0.2138  3.3873  0.7715
  344MOL0     H45408   8.496   2.352   5.800 -2.4416  1.0697 -0.9333
  345MOL0     O45409   8.461  10.437   6.191  0.4112 -0.5561  0.3984
  345MOL0     C45410   8.508  10.349   6.258  0.5919 -0.6433  1.3018
  345MOL0     O45411   8.444  10.253   6.316  1.1977  0.6603  0.5533
  345MOL0     C45412   8.302  10.255   6.323 -0.3299  0.7363  1.8682
  345MOL0     C45413   8.225  10.369   6.355 -0.7293  1.0487 -1.1911
  345MOL0     C45414   8.081  10.356   6.375 -0.4127  0.5170 -0.0989
  345MOL0     C45415   8.014  10.235   6.361  0.2740  0.4768  0.7406
  345MOL0     O45416   7.875  10.218   6.382 -0.1943 -0.1703  0.0170
  345MOL0     C45417   7.839  10.099   6.472  0.0329 -0.5329 -0.6365
  345MOL0     C45418   7.698  10.061   6.428  0.0931 -0.2476  0.6791
  345MOL0     C45419   7.601  10.151   6.503 -0.5589 -0.0533  0.0433
  345MOL0     C45420   7.465  10.170   6.425 -0.6467  0.3312  0.6291
  345MOL0     C45421   7.353  10.111   6.516 -0.5028  0.9775 -0.7334
  345MOL0     C45422   7.217  10.158   6.461 -0.1614  0.4090 -0.7908
  345MOL0     C45423   7.097  10.124   6.557 -0.4168  0.0979 -0.0710
  345MOL0     C45424   6.997  10.010   6.513 -0.7743  0.4834  0.2062
  345MOL0     N45425   6.871  10.012   6.593  0.0928 -0.0501 -0.7178
  345MOL0     C45426   6.833   9.905   6.683 -0.3713 -0.8950 -0.3996
  345MOL0     C45427   6.699   9.930   6.712 -0.5218 -0.5751 -0.6144
  345MOL0     C45428   6.601   9.847   6.796 -0.2675  0.7800 -0.2691
  345MOL0     C45429   6.455   9.866   6.742 -0.9618  1.0575  0.2549
  345MOL0     C45430   6.358   9.743   6.785 -0.8803 -0.1126 -0.0891
  345MOL0     C45431   6.211   9.776   6.780 -0.2940 -0.4404  0.8479
  345MOL0     O45432   6.178   9.844   6.661  0.0296 -0.2185  1.1169
  345MOL0     C45433   6.150   9.980   6.665 -0.6738  0.0185  0.6893
  345MOL0     C45434   6.223  10.062   6.579 -0.1877  0.2489  0.4372
  345MOL0     C45435   6.205  10.203   6.600  0.3168 -0.2475 -0.3213
  345MOL0     C45436   6.105  10.253   6.690  0.1205 -0.0172  0.6747
  345MOL0     C45437   6.110  10.395   6.726 -0.0193  1.3024 -0.5840
  345MOL0     O45438   5.989  10.437   6.774  0.2664  0.9383  0.0729
  345MOL0     C45439   5.962  10.548   6.855 -0.3903 -0.5534  0.1313
  345MOL0     C45440   6.052  10.647   6.902 -0.2808 -0.2566  0.1934
  345MOL0     C45441   6.009  10.754   6.984 -0.6501  1.1022  0.4333
  345MOL0     C45442   5.873  10.761   7.028  0.2779  0.4399 -0.0049
  345MOL0     O45443   5.825  10.866   7.108  0.1722  0.2725 -0.1310
  345MOL0     C45444   5.860  11.007   7.071  0.2803  0.0495 -0.1680
  345MOL0     C45445   5.759  11.063   6.972 -0.0314 -0.6400 -1.2604
  345MOL0     C45446   5.766  11.004   6.834 -0.5474 -0.2538  0.7564
  345MOL0     C45447   5.629  11.018   6.757 -0.3218 -0.3750 -0.6925
  345MOL0     C45448   5.641  10.980   6.607  0.2028 -0.1955 -0.0356
  345MOL0     C45449   5.595  10.847   6.566  0.8210  0.9697 -0.5550
  345MOL0     C45450   5.651  10.815   6.430 -0.3180  0.0005  0.7594
  345MOL0     C45451   5.576  10.701   6.356 -0.0147 -0.3782  0.4956
  345MOL0    Cl45452   5.405  10.759   6.328  0.3373 -0.1834 -0.2385
  345MOL0     C45453   5.780  10.667   6.981  0.0952 -0.4043  0.2369
  345MOL0     C45454   5.830  10.563   6.893  0.7325 -0.3807  0.7780
  345MOL0     O45455   6.206  10.466   6.701 -0.5545 -0.4925  0.0036
  345MOL0     C45456   6.017  10.160   6.754  0.3117  0.4798 -0.2109
  345MOL0     C45457   6.037  10.029   6.733 -0.7053 -0.2708 -1.3235
  345MOL0     N45458   6.667  10.044   6.647  0.4166  0.1301 -0.0998
  345MOL0     N45459   6.768  10.096   6.581  0.0876  0.0751  0.4708
  345MOL0     C45460   8.089  10.124   6.310  0.5688 -1.3046  0.4866
  345MOL0     C45461   8.234  10.138   6.295  0.0041 -0.6766  0.5215
  345MOL0     C45462   8.652  10.362   6.297  0.2862 -0.6136  0.3579
  345MOL0     C45463   8.713  10.263   6.377  0.9984 -0.7982  0.0003
  345MOL0     C45464   8.847  10.281   6.407  0.0985  0.2898 -0.7852
  345MOL0     C45465   8.924  10.389   6.373  0.3379 -1.0878 -0.8767
  345MOL0     O45466   9.055  10.393   6.416  0.3995  0.5986 -0.9933
  345MOL0     C45467   9.156  10.450   6.330  0.4524 -0.1016 -0.2101
  345MOL0     C45468   9.304  10.409   6.381  0.2890  0.5518 -0.3629
  345MOL0     C45469   9.341  10.494   6.507  1.0109 -0.6621 -0.0709
  345MOL0     C45470   9.464  10.449   6.575 -0.7893  0.3093  0.5829
  345MOL0     C45471   9.577  10.443   6.483 -0.5625  1.1982  0.2012
  345MOL0     C45472   9.668  10.432   6.399 -0.2799  0.4118 -0.9367
  345MOL0     C45473   8.866  10.489   6.288 -1.3470 -0.2725  0.1864
  345MOL0     C45474   8.731  10.471   6.251  0.2779  0.3367 -0.2164
  345MOL0     H45475   8.272  10.467   6.363  0.9795  0.1876 -0.2913
  345MOL0     H45476   8.018  10.440   6.400 -0.1865  0.3803  0.9693
  345MOL0     H45477   7.829  10.128   6.577 -1.3642 -2.2302 -0.2564
  345MOL0     H45478   7.917  10.023   6.470  0.7204  0.1146  0.5030
  345MOL0     H45479   7.694   9.955   6.455  1.9117 -0.6963 -0.6261
  345MOL0     H45480   7.680  10.074   6.321 -5.1524 -0.9650  1.2229
  345MOL0     H45481   7.646  10.250   6.513  0.6932 -0.6547  0.6506
  345MOL0     H45482   7.592  10.104   6.601 -0.0468 -0.4483 -0.0946
  345MOL0     H45483   7.456  10.275   6.394 -0.2128 -0.6883 -3.5491
  345MOL0     H45484   7.464  10.114   6.330 -2.4716 -0.9909  1.3591
  345MOL0     H45485   7.359  10.150   6.618 -0.0113  1.3301 -0.8916
  345MOL0     H45486   7.359  10.001   6.514 -2.8560  0.5606  3.2220
  345MOL0     H45487   7.208  10.112   6.362  1.7133 -0.8978 -0.3922
  345MOL0     H45488   7.229  10.267   6.452  1.5597  0.1061 -3.0739
  345MOL0     H45489   7.140  10.105   6.656  0.7899  0.4930 -0.5114
  345MOL0     H45490   7.032  10.213   6.560 -0.9462 -0.1885 -1.8536
  345MOL0     H45491   7.052   9.916   6.520  2.3027  1.7275 -3.5468
  345MOL0     H45492   6.971  10.026   6.407  0.6235  2.1257  0.0630
  345MOL0     H45493   6.887   9.820   6.724  1.0371  1.5138  3.1525
  345MOL0     H45494   6.605   9.883   6.899  0.4681 -0.9574  0.3420
  345MOL0     H45495   6.635   9.743   6.790  0.7131  0.9586  1.4428
  345MOL0     H45496   6.465   9.872   6.633  3.1042 -0.8850  0.3352
  345MOL0     H45497   6.411   9.959   6.780 -1.9440 -0.4605  3.1368
  345MOL0     H45498   6.381   9.657   6.722 -1.4749  0.1063 -0.6114
  345MOL0     H45499   6.385   9.718   6.888 -0.7246  0.8002  0.1053
  345MOL0     H45500   6.190   9.835   6.870  0.5315 -0.0601  0.7979
  345MOL0     H45501   6.142   9.692   6.794  2.3250 -2.6456  1.4118
  345MOL0     H45502   6.282  10.017   6.500 -0.1710  2.7214 -1.0819
  345MOL0     H45503   6.279  10.274   6.566 -0.7857  0.7986 -0.6139
  345MOL0     H45504   6.153  10.658   6.864 -0.3326 -4.0885 -1.4550
  345MOL0     H45505   6.082  10.826   7.019 -0.6263  1.1059  0.3768
  345MOL0     H45506   5.957  11.012   7.021 -0.3655 -1.7324 -1.7079
  345MOL0     H45507   5.862  11.075   7.157 -0.6127 -0.5333  0.3401
  345MOL0     H45508   5.783  11.169   6.967  0.5962 -0.3756  3.2920
  345MOL0     H45509   5.657  11.053   7.009  0.3534  0.8595  0.3110
  345MOL0     H45510   5.784  10.897   6.844 -1.3938 -0.4159  0.5997
  345MOL0     H45511   5.852  11.040   6.777 -1.1171  1.2457  0.7854
  345MOL0     H45512   5.556  10.942   6.789  1.0423 -1.6408 -0.4687
  345MOL0     H45513   5.579  11.113   6.775 -1.0770 -0.7381 -0.8119
  345MOL0     H45514   5.745  10.989   6.574  0.1303  2.1328  0.1751
  345MOL0     H45515   5.591  11.055   6.545  1.3370 -0.2959 -1.1053
  345MOL0     H45516   5.486  10.842   6.567  0.8764 -1.4227  0.7138
  345MOL0     H45517   5.636  10.760   6.618  0.0037  0.6753 -0.3858
  345MOL0     H45518   5.643  10.899   6.360  0.0284  0.2949  1.0680
  345MOL0     H45519   5.757  10.787   6.435 -0.4383 -0.3855  1.1620
  345MOL0     H45520   5.582  10.605   6.409  0.3229 -0.8531 -0.3897
  345MOL0     H45521   5.622  10.686   6.258  0.8414  2.5760  0.3624
  345MOL0     H45522   5.672  10.674   6.984  0.1455  0.4354  0.2120
  345MOL0     H45523   5.748  10.506   6.850  0.5785  2.3817 -3.1825
  345MOL0     H45524   5.934  10.194   6.814  2.4520  3.7338  1.1604
  345MOL0     H45525   5.967   9.965   6.786  0.3174  0.1537  0.6576
  345MOL0     H45526   8.039  10.030   6.289  1.3368 -2.4224  3.1667
  345MOL0     H45527   8.295  10.057   6.257 -0.9021 -2.4854  2.7671
  345MOL0     H45528   8.651  10.175   6.397  1.1005 -1.3548 -1.9490
  345MOL0     H45529   8.900  10.205   6.464  0.6627  1.6797  0.6108
  345MOL0     H45530   9.136  10.558   6.324  1.0995 -0.0206 -1.3369
  345MOL0     H45531   9.135  10.405   6.232 -2.9734 -0.6602  0.6291
  345MOL0     H45532   9.300  10.306   6.418  1.1912  1.6291  3.1300
  345MOL0     H45533   9.383  10.413   6.306 -0.7448 -2.5473 -1.7868
  345MOL0     H45534   9.259  10.476   6.578  0.5933 -0.0451 -0.3884
  345MOL0     H45535   9.355  10.601   6.490 -0.4681 -0.1097  1.7802
  345MOL0     H45536   9.498  10.519   6.652  2.4106 -0.4648  0.0144
  345MOL0     H45537   9.462  10.353   6.627 -3.7726 -1.0291 -1.7291
  345MOL0     H45538   9.761  10.416   6.349  2.5259  1.1851  3.4170
  345MOL0     H45539   8.925  10.575   6.258 -2.8849 -0.1103 -2.6839
  345MOL0     H45540   8.676  10.551   6.203 -1.5187 -1.5581 -1.5318
  346MOL0     O45541   2.355   9.675   5.464  0.1998  0.0186  0.7841
  346MOL0     C45542   2.390   9.558   5.480 -0.1076 -0.1431  0.0628
  346MOL0     O45543   2.310   9.459   5.515  0.4862 -0.5506 -0.4958
  346MOL0     C45544   2.179   9.472   5.514 -0.5395  0.9031  0.1685
  346MOL0     C45545   2.108   9.384   5.433  0.2982  0.2062  0.4685
  346MOL0     C45546   1.969   9.388   5.425  0.2356  0.4022  0.7982
  346MOL0     C45547   1.895   9.476   5.508  0.1740 -0.4984 -0.3167
  346MOL0     O45548   1.757   9.495   5.502  0.4100  0.2542  0.7368
  346MOL0     C45549   1.691   9.468   5.375  0.0368 -0.3366 -0.0347
  346MOL0     C45550   1.550   9.524   5.383 -0.4053 -0.8567  0.0994
  346MOL0     C45551   1.465   9.477   5.266  0.0713 -0.6799  0.2572
  346MOL0     C45552   1.329   9.551   5.273  0.1682 -0.4680  0.5831
  346MOL0     C45553   1.240   9.508   5.154  0.7025  0.1076  0.1258
  346MOL0     C45554   1.091   9.536   5.180 -0.4370  0.7212 -0.2287
  346MOL0     C45555   1.018   9.550   5.045 -0.0236 -0.7564  0.0007
  346MOL0     C45556   0.876   9.609   5.069  0.7128  0.0978 -0.6806
  346MOL0     N45557   0.775   9.504   5.069 -0.0948  0.1075  0.4264
  346MOL0     C45558   0.660   9.498   5.148 -0.0444 -0.4516  0.8136
  346MOL0     C45559   0.579   9.403   5.094  0.0622 -0.1956  0.7532
  346MOL0     C45560   0.450   9.354   5.143  0.0818  0.3489 -0.5376
  346MOL0     C45561   0.335   9.433   5.080  0.7799 -0.1389 -0.2778
  346MOL0     C45562   0.211   9.403   5.161 -0.5308 -0.4474  0.8745
  346MOL0     C45563   0.180   9.261   5.167 -0.3126 -0.2240 -0.0833
  346MOL0     O45564   0.060   9.239   5.241 -0.0109  0.1402  0.1169
  346MOL0     C45565   0.015   9.109   5.244  0.3465  0.2476  0.0465
  346MOL0     C45566  -0.097   9.086   5.323 -0.6083  0.6360 -0.2612
  346MOL0     C45567  -0.154   8.954   5.333 -0.6331 -0.6660  0.8561
  346MOL0     C45568  -0.107   8.852   5.251 -0.2117  0.0968 -1.1237
  346MOL0     C45569  -0.172   8.721   5.257  0.7244 -0.4599  0.1431
  346MOL0     O45570  -0.294   8.712   5.316  0.1981  0.0022 -0.5232
  346MOL0     C45571  -0.332   8.583   5.342  0.3287 -0.6240 -0.4790
  346MOL0     C45572  -0.261   8.495   5.426  1.3034 -0.3130  0.3504
  346MOL0     C45573  -0.321   8.372   5.454  0.4556 -0.7365 -0.3957
  346MOL0     C45574  -0.442   8.332   5.398 -1.0990  0.7337  0.3796
  346MOL0     O45575  -0.495   8.210   5.426  0.2808  0.2970  0.5612
  346MOL0     C45576  -0.614   8.236   5.510 -0.3065 -0.3197 -0.9127
  346MOL0     C45577  -0.716   8.131   5.467  0.1067  0.7573  0.8044
  346MOL0     C45578  -0.802   8.081   5.577 -0.3226 -0.5033  0.1042
  346MOL0     C45579  -0.918   7.996   5.519 -0.4462  0.2528 -0.6820
  346MOL0     C45580  -1.025   7.958   5.624 -0.5557 -0.2072 -0.1916
  346MOL0     C45581  -0.974   7.864   5.733  0.0710 -0.2945 -0.2147
  346MOL0     C45582  -1.079   7.865   5.856  0.0374 -0.6038  0.0255
  346MOL0     C45583  -1.196   7.767   5.829  0.7515 -0.1459  0.4668
  346MOL0    Cl45584  -1.307   7.801   5.957  0.1276 -0.2767 -0.2641
  346MOL0     C45585  -0.508   8.419   5.307 -0.9842  0.4041  0.0291
  346MOL0     C45586  -0.450   8.546   5.286  0.2604  0.0684 -0.0535
  346MOL0     O45587  -0.111   8.632   5.197  0.2456  0.5718 -0.4786
  346MOL0     C45588   0.004   8.882   5.169  0.6158  0.3048 -0.8536
  346MOL0     C45589   0.071   9.001   5.169  0.2217  0.4720 -0.0891
  346MOL0     N45590   0.636   9.353   4.979 -0.0454 -0.1983  0.1736
  346MOL0     N45591   0.746   9.419   4.966  0.3374 -0.0947  0.2081
  346MOL0     C45592   1.965   9.559   5.594 -0.3048  0.3703 -0.0378
  346MOL0     C45593   2.108   9.564   5.595  0.6656 -0.5479  0.3233
  346MOL0     C45594   2.527   9.513   5.459  0.3866 -0.0236 -0.0508
  346MOL0     C45595   2.572   9.387   5.494  0.7020 -0.3118 -0.7473
  346MOL0     C45596   2.710   9.355   5.478  0.5454  0.5664 -0.8924
  346MOL0     C45597   2.802   9.442   5.408 -0.4811  0.6329 -0.0965
  346MOL0     O45598   2.939   9.404   5.399 -0.1475 -0.0600  0.4586
  346MOL0     C45599   3.029   9.494   5.319  0.1683 -0.2344  0.4316
  346MOL0     C45600   3.181   9.449   5.332  1.1417  0.4289  0.2573
  346MOL0     C45601   3.272   9.532   5.232  0.1807  0.1280 -0.4690
  346MOL0     C45602   3.420   9.505   5.259  0.5535 -0.6878  0.4186
  346MOL0     C45603   3.502   9.581   5.155 -0.2433 -0.4436  0.3026
  346MOL0     C45604   3.561   9.646   5.067 -0.1226 -0.6095 -0.4854
  346MOL0     C45605   2.748   9.561   5.371 -0.1659  0.2450  0.1223
  346MOL0     C45606   2.621   9.595   5.397  0.2753 -1.0090  0.0471
  346MOL0     H45607   2.160   9.322   5.361 -2.2263  0.8841 -2.0916
  346MOL0     H45608   1.911   9.330   5.354  0.0586 -1.0603  2.0835
  346MOL0     H45609   1.690   9.362   5.351 -1.8227  0.0634 -2.0374
  346MOL0     H45610   1.750   9.518   5.297  1.3248 -0.2863  0.9296
  346MOL0     H45611   1.559   9.633   5.386 -2.9257 -0.5860  0.6206
  346MOL0     H45612   1.500   9.488   5.474 -0.0085 -2.8206 -0.4156
  346MOL0     H45613   1.448   9.370   5.277  0.8404 -1.1141 -2.1724
  346MOL0     H45614   1.513   9.488   5.168  1.1211 -5.2141  0.0675
  346MOL0     H45615   1.284   9.525   5.369 -0.2676 -4.1971 -0.4467
  346MOL0     H45616   1.345   9.657   5.251 -1.1951 -0.5629 -1.0870
  346MOL0     H45617   1.258   9.403   5.130  0.0170  0.7240 -3.7167
  346MOL0     H45618   1.268   9.568   5.066 -1.5928  0.0972 -0.6745
  346MOL0     H45619   1.098   9.633   5.229  0.2598  1.4630 -1.7519
  346MOL0     H45620   1.038   9.458   5.237 -1.2538  0.3507 -1.4528
  346MOL0     H45621   1.074   9.624   4.986 -2.1831  1.8852  1.0462
  346MOL0     H45622   1.010   9.460   4.985 -1.5334 -2.4851  2.6129
  346MOL0     H45623   0.845   9.679   4.991 -1.1963  0.2212  0.1184
  346MOL0     H45624   0.875   9.661   5.165  0.8100  0.4672 -0.8811
  346MOL0     H45625   0.637   9.556   5.237 -1.2545  0.5362 -0.1047
  346MOL0     H45626   0.450   9.355   5.252 -0.8576 -0.2923 -0.5182
  346MOL0     H45627   0.442   9.247   5.122  2.5412 -0.2309  1.0965
  346MOL0     H45628   0.316   9.437   4.973  2.7796  2.1828 -0.6337
  346MOL0     H45629   0.370   9.536   5.092  3.2824 -0.9711 -0.0468
  346MOL0     H45630   0.217   9.448   5.261 -1.5669  2.4856 -0.2801
  346MOL0     H45631   0.125   9.450   5.113 -1.1228  0.1423  2.4415
  346MOL0     H45632   0.256   9.218   5.234  0.7569  2.1857  0.3715
  346MOL0     H45633   0.184   9.212   5.070  0.8722  1.2133 -0.8026
  346MOL0     H45634  -0.134   9.160   5.393  0.3501 -0.2316  1.2260
  346MOL0     H45635  -0.248   8.946   5.387 -0.5281  2.4375  1.6971
  346MOL0     H45636  -0.173   8.510   5.487  1.3971 -1.7594  0.6027
  346MOL0     H45637  -0.268   8.308   5.524 -0.2421 -0.7101  0.1699
  346MOL0     H45638  -0.654   8.336   5.490  0.9221  0.1168 -1.2837
  346MOL0     H45639  -0.587   8.218   5.614  1.2152 -0.9299 -1.3726
  346MOL0     H45640  -0.670   8.047   5.413 -0.7060  1.3509 -0.8685
  346MOL0     H45641  -0.785   8.176   5.395 -0.3103  0.7431  1.1915
  346MOL0     H45642  -0.852   8.164   5.629 -1.9998 -0.8047 -0.9540
  346MOL0     H45643  -0.739   8.020   5.643  2.8103 -0.1033 -2.2965
  346MOL0     H45644  -0.960   8.049   5.433  1.4911  0.0952 -1.7727
  346MOL0     H45645  -0.868   7.906   5.483 -2.0868 -0.7323 -0.6347
  346MOL0     H45646  -1.100   7.904   5.565 -0.7977  0.6187 -0.6469
  346MOL0     H45647  -1.069   8.050   5.664  0.0741  1.7986 -3.6896
  346MOL0     H45648  -0.878   7.890   5.779 -0.2351  0.4011  0.0446
  346MOL0     H45649  -0.953   7.768   5.687  0.4620  0.3111 -1.3330
  346MOL0     H45650  -1.023   7.826   5.942  2.0401 -0.6924 -1.2512
  346MOL0     H45651  -1.126   7.962   5.873 -2.0339 -1.4835 -0.4432
  346MOL0     H45652  -1.149   7.668   5.826  1.6489  0.2828  0.1642
  346MOL0     H45653  -1.244   7.791   5.734 -0.2081  1.7165  1.3610
  346MOL0     H45654  -0.591   8.372   5.255  0.7083  0.2411 -2.7550
  346MOL0     H45655  -0.495   8.614   5.216 -1.9277  1.1526  2.2410
  346MOL0     H45656   0.041   8.800   5.108 -1.7557 -0.7356 -1.0100
  346MOL0     H45657   0.158   9.006   5.104  2.4702  0.0126  2.6796
  346MOL0     H45658   1.913   9.638   5.647  0.3106  1.6411 -1.2480
  346MOL0     H45659   2.170   9.631   5.654  3.5010 -1.5003 -1.4161
  346MOL0     H45660   2.510   9.308   5.534 -0.8096 -0.1974 -2.6687
  346MOL0     H45661   2.744   9.253   5.490  0.8215  0.8420  0.9063
  346MOL0     H45662   3.021   9.597   5.357  1.9809  0.6718 -1.4327
  346MOL0     H45663   3.011   9.493   5.211 -0.8331 -2.3131  0.5800
  346MOL0     H45664   3.208   9.469   5.436 -0.5609 -1.3195  1.1040
  346MOL0     H45665   3.188   9.341   5.316 -1.8102  0.1078  0.5305
  346MOL0     H45666   3.256   9.638   5.250 -1.9975  0.1561 -2.1019
  346MOL0     H45667   3.243   9.503   5.130 -0.7648  1.4023 -0.5786
  346MOL0     H45668   3.461   9.543   5.353  0.8646 -0.6674  0.2770
  346MOL0     H45669   3.451   9.401   5.250  2.8474 -0.1899  1.8809
  346MOL0     H45670   3.619   9.698   4.994  1.0294  1.6210  1.8564
  346MOL0     H45671   2.803   9.648   5.337  1.8323 -1.0390 -0.0880
  346MOL0     H45672   2.590   9.697   5.376 -1.9354 -1.4704  0.7683
  347MOL0     O45673   5.550   7.547  10.110 -0.3530  0.2881  0.5808
  347MOL0     C45674   5.465   7.459  10.111  0.2679 -0.0360  0.3013
  347MOL0     O45675   5.340   7.468  10.165  0.5298 -0.2790 -0.4887
  347MOL0     C45676   5.286   7.596  10.185 -0.3129 -0.0212  0.7227
  347MOL0     C45677   5.279   7.681  10.071 -0.4816  0.1505  0.1529
  347MOL0     C45678   5.217   7.810  10.071  0.9937  0.9011 -0.2056
  347MOL0     C45679   5.148   7.845  10.189  0.0417  0.7646 -0.7498
  347MOL0     O45680   5.087   7.962  10.231 -0.2307  0.0568 -0.8190
  347MOL0     C45681   5.114   8.063  10.135  0.0545  0.2101 -0.1019
  347MOL0     C45682   5.034   8.195  10.165 -0.0264  0.5434 -0.6302
  347MOL0     C45683   4.892   8.183  10.124 -0.1272 -0.0546  0.5906
  347MOL0     C45684   4.819   8.315  10.149  0.8043 -0.2081 -0.6957
  347MOL0     C45685   4.808   8.403  10.014  0.6285 -0.6433  0.5228
  347MOL0     C45686   4.728   8.538  10.041  0.3567 -0.0853  0.2102
  347MOL0     C45687   4.577   8.524  10.029  0.7626 -1.0773  0.6421
  347MOL0     C45688   4.488   8.481  10.137 -0.2168  0.2090 -0.5693
  347MOL0     N45689   4.343   8.484  10.110 -0.2240  0.2122 -0.5208
  347MOL0     C45690   4.273   8.597  10.109 -0.0985  0.4403 -1.0854
  347MOL0     C45691   4.149   8.563  10.070  0.9527 -0.6029 -0.0265
  347MOL0     C45692   4.046   8.662  10.036 -0.7123  0.3602 -0.2331
  347MOL0     C45693   3.945   8.671  10.147  0.0096 -0.4411 -0.2323
  347MOL0     C45694   3.826   8.576  10.123  0.9451  0.3480 -1.0820
  347MOL0     C45695   3.716   8.587  10.231  0.0961  0.0202  0.1845
  347MOL0     O45696   3.585   8.587  10.158  0.7589 -0.1065 -0.3976
  347MOL0     C45697   3.473   8.608  10.229  1.0262  0.4261  0.2213
  347MOL0     C45698   3.357   8.637  10.152  0.5466 -0.4738  0.5393
  347MOL0     C45699   3.224   8.651  10.204 -1.1603  0.0933  0.2098
  347MOL0     C45700   3.212   8.640  10.345 -0.1085  0.3546  0.6390
  347MOL0     C45701   3.080   8.662  10.409 -0.4578 -0.1649 -0.7469
  347MOL0     O45702   2.978   8.720  10.341  0.4108 -0.0280  0.1751
  347MOL0     C45703   2.870   8.774  10.422 -0.9514  0.7694  0.0562
  347MOL0     C45704   2.746   8.747  10.371 -0.5791 -0.4729  0.2142
  347MOL0     C45705   2.629   8.793  10.420  0.7149  0.1924 -1.0209
  347MOL0     C45706   2.638   8.866  10.540  0.9476  1.3239  0.1034
  347MOL0     O45707   2.513   8.897  10.587  0.0393 -0.2116  0.1344
  347MOL0     C45708   2.513   8.963  10.720 -0.0884 -0.2912  0.7576
  347MOL0     C45709   2.371   9.018  10.760 -0.1407 -0.2926  0.4773
  347MOL0     C45710   2.333   9.124  10.653  0.0204 -0.2331 -0.0941
  347MOL0     C45711   2.180   9.147  10.674  0.2564  0.1893  0.1480
  347MOL0     C45712   2.131   9.260  10.582 -0.1303  0.7805 -0.1741
  347MOL0     C45713   1.991   9.304  10.606 -0.6379 -0.0931 -0.3350
  347MOL0     C45714   1.892   9.187  10.572 -0.4363  0.2638 -0.2096
  347MOL0     C45715   1.783   9.229  10.472 -0.5760 -0.4424 -0.3167
  347MOL0    Cl45716   1.680   9.085  10.438  0.2371 -0.4348 -0.0237
  347MOL0     C45717   2.762   8.895  10.602 -1.6921 -0.0838  0.4326
  347MOL0     C45718   2.881   8.852  10.535  0.8828 -0.5551 -0.7757
  347MOL0     O45719   3.081   8.633  10.530 -1.0728 -0.3557  0.2378
  347MOL0     C45720   3.322   8.619  10.427 -0.5611  0.4341  0.6077
  347MOL0     C45721   3.450   8.593  10.371 -0.4338  0.1163 -0.0082
  347MOL0     N45722   4.135   8.425  10.079 -0.2925  0.3319 -0.0035
  347MOL0     N45723   4.255   8.375  10.098  0.2432 -0.3470  0.3074
  347MOL0     C45724   5.155   7.755  10.299 -0.1305  0.0270 -0.3025
  347MOL0     C45725   5.230   7.640  10.302  0.2533 -0.7153 -0.8540
  347MOL0     C45726   5.485   7.333  10.032  0.6867  0.1217 -0.7258
  347MOL0     C45727   5.567   7.328   9.926  0.2828  0.3821 -0.2491
  347MOL0     C45728   5.585   7.210   9.849  0.2027 -0.7124  0.8321
  347MOL0     C45729   5.525   7.090   9.891  0.6512 -0.0765  0.1472
  347MOL0     O45730   5.543   6.965   9.819 -0.3371 -0.0252  0.0394
  347MOL0     C45731   5.610   6.960   9.692 -0.3461  0.8987  0.5029
  347MOL0     C45732   5.545   7.054   9.592  0.7123 -0.1611 -0.3664
  347MOL0     C45733   5.631   7.136   9.500  0.2450 -0.5015 -0.5976
  347MOL0     C45734   5.591   7.121   9.349 -0.1512 -0.7446 -0.3812
  347MOL0     C45735   5.644   7.005   9.281 -0.2572 -0.1663  0.0244
  347MOL0     C45736   5.698   6.908   9.237 -1.2613  0.8466 -0.4398
  347MOL0     C45737   5.433   7.099  10.002 -0.0670  0.5862  1.5199
  347MOL0     C45738   5.406   7.216  10.066 -0.4086 -0.3357  0.2861
  347MOL0     H45739   5.325   7.639   9.982 -2.2653 -0.5458 -0.4740
  347MOL0     H45740   5.220   7.874   9.983  3.4496  0.2077 -0.6960
  347MOL0     H45741   5.078   8.028  10.037  2.1492 -1.2374 -0.4153
  347MOL0     H45742   5.221   8.082  10.131  0.4268 -1.6407  0.4517
  347MOL0     H45743   5.086   8.268  10.103 -0.9374 -0.1155 -2.2115
  347MOL0     H45744   5.050   8.206  10.273 -0.9332 -1.4218 -0.2485
  347MOL0     H45745   4.838   8.105  10.178  1.7512 -2.4211 -0.7497
  347MOL0     H45746   4.877   8.155  10.019  0.1116  0.3390  0.4472
  347MOL0     H45747   4.717   8.285  10.178  0.0496  1.0015 -1.9846
  347MOL0     H45748   4.869   8.374  10.226  0.8749  2.4189 -2.6272
  347MOL0     H45749   4.748   8.347   9.942 -1.2977 -0.7045  2.1081
  347MOL0     H45750   4.910   8.414   9.976  0.4878  0.1220  0.3609
  347MOL0     H45751   4.759   8.623   9.980 -0.8836 -1.7148 -2.8878
  347MOL0     H45752   4.752   8.569  10.144 -1.1602 -2.8818  1.5356
  347MOL0     H45753   4.543   8.619   9.988 -0.3093 -1.4050  0.7371
  347MOL0     H45754   4.563   8.460   9.941  1.9330  0.6049 -0.8339
  347MOL0     H45755   4.496   8.544  10.226 -1.8241 -1.0776  0.5558
  347MOL0     H45756   4.513   8.377  10.160  0.6661  0.8375  1.6072
  347MOL0     H45757   4.318   8.696  10.114 -0.3348  0.5717 -1.4887
  347MOL0     H45758   3.992   8.643   9.943 -2.6354  1.7597  0.5251
  347MOL0     H45759   4.093   8.760  10.023 -2.5994  1.2534 -0.6979
  347MOL0     H45760   3.919   8.777  10.143  0.8030 -0.2635 -1.2684
  347MOL0     H45761   4.002   8.646  10.238 -0.2752  1.3008  0.4676
  347MOL0     H45762   3.778   8.610  10.031  0.5511  2.9353 -0.0293
  347MOL0     H45763   3.853   8.473  10.099 -1.3608 -0.3458 -0.9479
  347MOL0     H45764   3.727   8.683  10.281  1.3770  0.3452 -0.6638
  347MOL0     H45765   3.725   8.509  10.307  0.9687  0.1757  0.2485
  347MOL0     H45766   3.362   8.635  10.044 -2.7734 -1.2823  0.3012
  347MOL0     H45767   3.133   8.658  10.146  0.0954  2.5728 -1.6435
  347MOL0     H45768   2.748   8.695  10.276 -3.7377 -1.6966  0.6967
  347MOL0     H45769   2.536   8.773  10.368  1.0327  2.6271 -2.6846
  347MOL0     H45770   2.582   9.047  10.712 -1.0973  0.5213  0.3012
  347MOL0     H45771   2.539   8.896  10.802 -1.3959 -3.9738 -1.5412
  347MOL0     H45772   2.368   9.053  10.863  3.6477 -5.4169  2.8101
  347MOL0     H45773   2.303   8.932  10.763 -3.8620  2.3763  3.7601
  347MOL0     H45774   2.351   9.095  10.549  0.9062  0.0008 -0.0160
  347MOL0     H45775   2.384   9.216  10.683 -0.6614 -0.9368  3.7478
  347MOL0     H45776   2.131   9.050  10.655  4.5317 -2.3698  0.8977
  347MOL0     H45777   2.163   9.177  10.778  2.9523 -0.2264  0.7686
  347MOL0     H45778   2.134   9.219  10.480  0.1797  1.0036 -0.2570
  347MOL0     H45779   2.193   9.350  10.591  0.7006  0.3777 -1.5725
  347MOL0     H45780   1.967   9.397  10.554 -1.8793  0.4035  1.0691
  347MOL0     H45781   1.978   9.323  10.713  0.7831  2.4262 -0.5432
  347MOL0     H45782   1.941   9.099  10.529  0.7470  1.6371 -1.8564
  347MOL0     H45783   1.847   9.160  10.667 -1.4412  1.4154 -0.3329
  347MOL0     H45784   1.828   9.269  10.381  1.2525 -3.8283 -1.0719
  347MOL0     H45785   1.709   9.299  10.512 -1.0243 -1.5863  0.9220
  347MOL0     H45786   2.769   8.951  10.694 -1.1121  2.1258 -0.8841
  347MOL0     H45787   2.980   8.877  10.574  1.0569  0.0943 -1.6133
  347MOL0     H45788   3.314   8.611  10.535  1.5963  3.0616  1.0664
  347MOL0     H45789   3.525   8.563  10.444 -2.1894 -0.6606  1.5602
  347MOL0     H45790   5.091   7.782  10.382  2.8867 -0.2320  2.2842
  347MOL0     H45791   5.222   7.568  10.383  2.4139 -1.6802 -1.4231
  347MOL0     H45792   5.620   7.419   9.900 -1.8613  1.2148 -1.9554
  347MOL0     H45793   5.647   7.225   9.761 -1.2656  3.1223  0.2506
  347MOL0     H45794   5.616   6.863   9.642  1.1100  1.9219 -1.4120
  347MOL0     H45795   5.716   6.978   9.711  1.1411 -4.0964 -1.4968
  347MOL0     H45796   5.472   7.001   9.530  0.7894  0.5910 -1.1186
  347MOL0     H45797   5.489   7.133   9.644  0.6900 -0.2691 -0.2262
  347MOL0     H45798   5.740   7.124   9.509  0.5608  2.6838  1.2216
  347MOL0     H45799   5.614   7.242   9.521  2.6844 -0.2431  0.4523
  347MOL0     H45800   5.482   7.124   9.338 -0.1269 -0.4213 -0.5458
  347MOL0     H45801   5.631   7.212   9.304 -0.7325  0.6471  1.7406
  347MOL0     H45802   5.747   6.832   9.179 -2.6481  0.3077 -0.9334
  347MOL0     H45803   5.390   7.008  10.042 -0.6166  0.8946  1.6356
  347MOL0     H45804   5.330   7.218  10.143 -0.3401 -1.1813  0.3817
  348MOL0     O45805   0.370   8.863   1.456 -0.6055 -0.2954  0.5275
  348MOL0     C45806   0.393   8.954   1.374 -0.0290 -0.3495 -0.5825
  348MOL0     O45807   0.289   9.042   1.331 -0.4018 -0.6275 -0.6551
  348MOL0     C45808   0.166   9.018   1.377 -0.0989  0.8073  0.1082
  348MOL0     C45809   0.110   9.051   1.503  0.7215 -1.0849 -0.0807
  348MOL0     C45810  -0.023   9.016   1.525 -0.3601  0.2128  0.5578
  348MOL0     C45811  -0.102   8.938   1.434  0.7852 -0.7077 -0.5371
  348MOL0     O45812  -0.240   8.903   1.448  0.3526 -0.4612 -0.0920
  348MOL0     C45813  -0.299   8.913   1.579  0.8032  0.7111 -0.3750
  348MOL0     C45814  -0.398   9.037   1.585 -0.6484  0.5983  0.2837
  348MOL0     C45815  -0.518   9.025   1.684 -0.1485 -0.0183  0.2917
  348MOL0     C45816  -0.618   9.142   1.658 -0.1124 -1.0313 -0.3116
  348MOL0     C45817  -0.748   9.131   1.748 -0.2562 -0.5769  0.0228
  348MOL0     C45818  -0.848   9.243   1.717  0.5933 -0.2966 -0.9615
  348MOL0     C45819  -0.963   9.247   1.823 -0.2762  0.3869 -0.1031
  348MOL0     C45820  -1.043   9.384   1.811 -0.5618  0.1124 -0.6619
  348MOL0     N45821  -1.102   9.403   1.679 -0.4035 -0.2500 -0.2795
  348MOL0     C45822  -1.217   9.351   1.633  0.1427 -0.7713  0.0496
  348MOL0     C45823  -1.207   9.366   1.500  0.0228  1.2521 -0.1767
  348MOL0     C45824  -1.297   9.323   1.384 -0.1911 -0.3965 -0.0421
  348MOL0     C45825  -1.424   9.404   1.351  0.2465  0.6200 -0.4680
  348MOL0     C45826  -1.506   9.435   1.472  0.0921  0.6378 -0.4932
  348MOL0     C45827  -1.572   9.310   1.532 -0.4744  0.8194 -0.1982
  348MOL0     O45828  -1.678   9.262   1.450 -0.3672 -0.3601  0.1290
  348MOL0     C45829  -1.798   9.234   1.506 -0.2399  1.2030 -0.2214
  348MOL0     C45830  -1.865   9.113   1.479  0.5131  1.1523 -0.1186
  348MOL0     C45831  -1.995   9.083   1.518  0.0905 -0.1239  0.7795
  348MOL0     C45832  -2.058   9.193   1.576  0.7019 -0.1693  0.6756
  348MOL0     C45833  -2.202   9.177   1.597  0.3068 -0.4370  0.7629
  348MOL0     O45834  -2.256   9.065   1.559  0.3491  0.1796  0.0487
  348MOL0     C45835  -2.392   9.038   1.584 -0.2996  0.5824  0.0638
  348MOL0     C45836  -2.464   8.947   1.499 -0.7363 -0.3212  0.9427
  348MOL0     C45837  -2.596   8.900   1.522 -0.0007 -0.6200 -0.5988
  348MOL0     C45838  -2.656   8.952   1.641 -0.0965  0.1171  0.3359
  348MOL0     O45839  -2.778   8.898   1.674  0.5825  0.0458  1.0809
  348MOL0     C45840  -2.892   8.984   1.637  0.8529  0.5019 -0.3425
  348MOL0     C45841  -2.922   8.974   1.489  0.1928  0.2281 -0.4861
  348MOL0     C45842  -3.055   9.055   1.458 -0.2260 -0.2355 -0.5719
  348MOL0     C45843  -3.176   8.969   1.460  0.0900  0.5704  0.4520
  348MOL0     C45844  -3.295   9.047   1.394  0.3454  0.2892  0.3902
  348MOL0     C45845  -3.397   8.944   1.336 -0.3891  0.7166 -0.8674
  348MOL0     C45846  -3.505   9.029   1.268 -0.2804 -0.4951 -0.1859
  348MOL0     C45847  -3.624   8.944   1.221 -0.1126  0.4956 -0.4337
  348MOL0    Cl45848  -3.575   8.858   1.063 -0.1662 -0.2028 -0.5414
  348MOL0     C45849  -2.587   9.048   1.721  0.6356  0.3245 -0.0011
  348MOL0     C45850  -2.455   9.081   1.699 -0.2890  0.1283  0.3289
  348MOL0     O45851  -2.259   9.272   1.646  0.5100 -0.6959 -0.4114
  348MOL0     C45852  -1.994   9.315   1.592  0.5390 -0.1340  0.2736
  348MOL0     C45853  -1.859   9.336   1.576 -0.3086 -0.1696 -0.8443
  348MOL0     N45854  -1.103   9.448   1.470 -0.2329 -0.6436  0.0082
  348MOL0     N45855  -1.044   9.476   1.580  0.8585  0.5859  0.4085
  348MOL0     C45856  -0.040   8.896   1.327 -0.1436 -0.7762  0.3755
  348MOL0     C45857   0.098   8.931   1.295  0.0285  0.5299  0.6519
  348MOL0     C45858   0.532   8.978   1.326 -0.1909 -0.9119 -0.4135
  348MOL0     C45859   0.644   8.905   1.366  0.3427 -0.3755  0.5141
  348MOL0     C45860   0.767   8.918   1.308  0.1531  0.5038 -0.1905
  348MOL0     C45861   0.789   9.016   1.216 -0.2827  0.4506  0.5440
  348MOL0     O45862   0.903   9.047   1.157 -0.5817  0.4523  0.2160
  348MOL0     C45863   1.009   8.949   1.172 -0.9021  0.7841  0.1149
  348MOL0     C45864   1.078   8.964   1.042  0.6621  0.4143 -0.9182
  348MOL0     C45865   1.142   9.097   1.007 -0.5029 -0.6991  0.6126
  348MOL0     C45866   1.246   9.085   0.901 -0.0811 -0.3588 -0.1774
  348MOL0     C45867   1.223   8.983   0.799 -0.0173 -0.5702  0.1012
  348MOL0     C45868   1.226   8.882   0.731 -0.5882  0.0193  0.4686
  348MOL0     C45869   0.682   9.104   1.181 -0.2232 -0.2897 -0.1468
  348MOL0     C45870   0.557   9.087   1.235 -0.0464  0.2797 -0.6224
  348MOL0     H45871   0.158   9.106   1.583 -1.1609  1.8207 -0.7971
  348MOL0     H45872  -0.070   9.053   1.616 -1.0672  1.4765 -0.2885
  348MOL0     H45873  -0.238   8.918   1.669 -0.4846 -0.8229  0.6370
  348MOL0     H45874  -0.347   8.817   1.601  1.3409  0.8013  1.2988
  348MOL0     H45875  -0.440   9.054   1.486 -1.3238  1.5551  0.7239
  348MOL0     H45876  -0.350   9.132   1.609  1.3173  0.3709 -2.2593
  348MOL0     H45877  -0.478   9.023   1.786 -1.5411 -1.7590  0.8497
  348MOL0     H45878  -0.572   8.934   1.656  0.7074 -0.5162  0.2196
  348MOL0     H45879  -0.570   9.236   1.687  1.9973 -1.6650 -1.5171
  348MOL0     H45880  -0.640   9.150   1.551 -0.0238 -0.4221 -0.2894
  348MOL0     H45881  -0.715   9.145   1.851 -2.2696  1.4168  0.4836
  348MOL0     H45882  -0.799   9.037   1.728 -3.6077  0.8534  1.1886
  348MOL0     H45883  -0.894   9.237   1.618 -2.5811  3.2928  0.0787
  348MOL0     H45884  -0.804   9.343   1.722  2.5195 -1.0509 -1.4894
  348MOL0     H45885  -1.030   9.162   1.814  1.6470 -1.2839  0.6802
  348MOL0     H45886  -0.931   9.253   1.928 -4.0884 -0.6808  1.2837
  348MOL0     H45887  -0.983   9.472   1.837 -1.9461  1.2780 -1.2859
  348MOL0     H45888  -1.130   9.378   1.877 -0.2427 -0.6125 -0.2984
  348MOL0     H45889  -1.286   9.287   1.687 -0.5387 -3.2494 -3.4126
  348MOL0     H45890  -1.326   9.218   1.401  0.2847 -0.5754 -0.3247
  348MOL0     H45891  -1.236   9.325   1.294  1.2490 -0.5160  0.8994
  348MOL0     H45892  -1.489   9.349   1.282  0.2688 -1.6299  1.1970
  348MOL0     H45893  -1.398   9.500   1.306  0.5069  0.8928  0.2512
  348MOL0     H45894  -1.438   9.480   1.545  1.8518 -0.2605 -1.5187
  348MOL0     H45895  -1.576   9.518   1.459  0.4665  1.7100  3.2012
  348MOL0     H45896  -1.609   9.336   1.632  4.2910  0.4391  1.9242
  348MOL0     H45897  -1.497   9.232   1.546  1.4504  2.0728 -2.6498
  348MOL0     H45898  -1.798   9.036   1.441 -1.0268 -1.7355  2.6333
  348MOL0     H45899  -2.048   8.989   1.505  1.4782 -0.8385  0.1399
  348MOL0     H45900  -2.405   8.892   1.427 -2.1931  2.0806 -2.3114
  348MOL0     H45901  -2.630   8.821   1.456  2.5589 -0.0877 -2.7698
  348MOL0     H45902  -2.887   9.091   1.659 -2.7880  0.9860 -1.2549
  348MOL0     H45903  -2.977   8.948   1.696  0.0453  0.8019 -1.2895
  348MOL0     H45904  -2.941   8.870   1.457  2.4551 -0.6563  0.8144
  348MOL0     H45905  -2.838   9.004   1.426  1.0473 -4.9847 -2.4137
  348MOL0     H45906  -3.054   9.093   1.355 -2.5980  0.8840 -0.2698
  348MOL0     H45907  -3.063   9.143   1.523  0.6514  0.1444 -0.9630
  348MOL0     H45908  -3.151   8.878   1.404 -2.5365 -0.0425  0.1265
  348MOL0     H45909  -3.193   8.932   1.561 -0.8204  0.4809  0.2710
  348MOL0     H45910  -3.267   9.117   1.315 -3.2855  2.3159  0.6795
  348MOL0     H45911  -3.362   9.107   1.456 -2.9961 -0.1984 -2.4371
  348MOL0     H45912  -3.440   8.895   1.423  0.9693 -0.3752 -0.7898
  348MOL0     H45913  -3.345   8.870   1.274 -2.9110 -0.4624 -1.7154
  348MOL0     H45914  -3.562   9.101   1.327 -1.8387 -2.4489  0.8237
  348MOL0     H45915  -3.454   9.073   1.181  1.1839 -0.8352  0.4727
  348MOL0     H45916  -3.700   9.021   1.209  1.9813  2.6632 -0.4582
  348MOL0     H45917  -3.660   8.871   1.294 -1.8082  1.1883 -0.5383
  348MOL0     H45918  -2.640   9.081   1.810  0.3139  1.4877 -0.6044
  348MOL0     H45919  -2.413   9.152   1.769 -0.2480  1.9712 -1.4648
  348MOL0     H45920  -2.052   9.402   1.622 -1.7378 -1.9442  1.4862
  348MOL0     H45921  -1.820   9.436   1.589 -1.3717  0.3631 -1.5422
  348MOL0     H45922  -0.089   8.835   1.252 -0.6125 -0.0676  0.0918
  348MOL0     H45923   0.135   8.900   1.197  2.5858 -0.3273  1.8039
  348MOL0     H45924   0.636   8.837   1.450  0.3875  1.3862  1.9979
  348MOL0     H45925   0.850   8.859   1.346  0.9919  1.2409 -0.8324
  348MOL0     H45926   0.981   8.843   1.176  1.1138  0.1953 -0.1858
  348MOL0     H45927   1.076   8.975   1.254  0.8435  0.4235 -1.1397
  348MOL0     H45928   1.163   8.897   1.061  2.3776  2.2441 -1.7711
  348MOL0     H45929   1.023   8.907   0.967 -0.0591 -2.0965  1.3487
  348MOL0     H45930   1.180   9.148   1.096  1.8124 -1.0609 -0.1019
  348MOL0     H45931   1.058   9.152   0.963 -2.2909 -4.2964 -0.8714
  348MOL0     H45932   1.249   9.171   0.832  2.0888  0.0369  0.3412
  348MOL0     H45933   1.344   9.079   0.948  0.4088 -3.6044 -1.3270
  348MOL0     H45934   1.213   8.795   0.670 -1.4994 -0.4804  1.3434
  348MOL0     H45935   0.713   9.179   1.109  2.2868 -1.7397 -0.7190
  348MOL0     H45936   0.481   9.158   1.204 -1.1028  1.0761  3.2942
  349MOL0     O45937   1.265   5.678   7.866  0.2918  0.4956 -0.0303
  349MOL0     C45938   1.265   5.755   7.961 -0.0265  0.2529  0.3010
  349MOL0     O45939   1.155   5.803   8.023  0.7452  0.0306  0.1550
  349MOL0     C45940   1.033   5.738   7.997  0.4320 -0.4029 -0.5943
  349MOL0     C45941   0.914   5.810   7.993  0.4006  1.1497 -1.2409
  349MOL0     C45942   0.790   5.740   7.978  0.1014  0.3631 -0.8768
  349MOL0     C45943   0.785   5.601   7.977  0.4475  0.2749  0.6099
  349MOL0     O45944   0.676   5.521   7.944  0.0176 -0.2047  0.3039
  349MOL0     C45945   0.545   5.574   7.967  0.2734  0.0045 -0.6941
  349MOL0     C45946   0.437   5.470   7.937  0.1595 -0.1304 -0.5085
  349MOL0     C45947   0.297   5.520   7.972  0.8577  0.0953  0.4183
  349MOL0     C45948   0.200   5.407   7.936  0.2249  0.0201 -0.3640
  349MOL0     C45949   0.055   5.459   7.974 -0.5236  0.5250 -0.7988
  349MOL0     C45950  -0.053   5.353   7.960  0.3102 -1.1603  0.0369
  349MOL0     C45951  -0.188   5.408   7.994  0.1941  0.2256 -0.4787
  349MOL0     C45952  -0.306   5.316   7.960  0.4268  1.2843 -0.7866
  349MOL0     N45953  -0.433   5.342   8.020  0.3379 -0.6088  0.2676
  349MOL0     C45954  -0.457   5.348   8.151  0.2939 -0.6540  0.6705
  349MOL0     C45955  -0.585   5.375   8.166  0.2234  0.5484 -0.6947
  349MOL0     C45956  -0.665   5.394   8.294 -0.6971 -0.0818 -0.0802
  349MOL0     C45957  -0.657   5.528   8.347 -0.9516 -0.2581 -0.0513
  349MOL0     C45958  -0.791   5.609   8.323 -1.1990  0.1828  0.1303
  349MOL0     C45959  -0.838   5.608   8.179  0.0587 -0.4760  0.0426
  349MOL0     O45960  -0.934   5.715   8.156 -0.1484 -0.3504 -0.2139
  349MOL0     C45961  -1.072   5.691   8.164  0.1589  0.3405 -0.6413
  349MOL0     C45962  -1.134   5.568   8.151  0.3025 -0.6653  0.1200
  349MOL0     C45963  -1.272   5.551   8.174  0.0553  0.3239 -0.4045
  349MOL0     C45964  -1.356   5.659   8.201  0.2070  1.0851  0.1966
  349MOL0     C45965  -1.498   5.635   8.224  0.2962 -0.7245 -0.5275
  349MOL0     O45966  -1.567   5.747   8.200 -0.2066 -0.3190 -0.1962
  349MOL0     C45967  -1.704   5.753   8.220 -0.2454  0.7754 -0.4933
  349MOL0     C45968  -1.788   5.788   8.118  1.0167 -0.3565  0.2597
  349MOL0     C45969  -1.928   5.799   8.136  0.2592  0.4371 -0.2241
  349MOL0     C45970  -1.980   5.778   8.260  1.1102 -0.7277  0.0263
  349MOL0     O45971  -2.112   5.773   8.278  0.6212  0.3125  0.8410
  349MOL0     C45972  -2.198   5.823   8.176 -0.4510 -0.2637 -0.3814
  349MOL0     C45973  -2.344   5.832   8.221 -0.3904  0.3846 -0.5317
  349MOL0     C45974  -2.384   5.947   8.315 -0.0406  0.1882  0.6146
  349MOL0     C45975  -2.524   5.929   8.370  0.6769 -0.2928 -0.6116
  349MOL0     C45976  -2.634   5.957   8.269  0.0805 -0.2916 -0.3345
  349MOL0     C45977  -2.766   5.984   8.342  0.9411 -0.2774 -0.0355
  349MOL0     C45978  -2.816   5.868   8.422 -0.3950  0.1244 -0.6213
  349MOL0     C45979  -2.926   5.890   8.522 -0.2556  0.5559 -0.0195
  349MOL0    Cl45980  -3.072   5.971   8.451  0.1189  0.1219 -0.1506
  349MOL0     C45981  -1.901   5.738   8.363 -0.3466 -0.3766  0.3686
  349MOL0     C45982  -1.762   5.731   8.345 -0.3524 -0.9987 -0.2915
  349MOL0     O45983  -1.545   5.530   8.272 -0.0419  0.5304 -0.6733
  349MOL0     C45984  -1.299   5.786   8.201  1.0624  0.7565 -0.2794
  349MOL0     C45985  -1.164   5.802   8.174  0.1205 -0.0341 -0.3385
  349MOL0     N45986  -0.649   5.370   8.044 -0.5986 -0.1549  0.4957
  349MOL0     N45987  -0.555   5.334   7.959 -0.4128  0.7566  0.6294
  349MOL0     C45988   0.906   5.534   7.976  0.3204 -0.2798  0.7041
  349MOL0     C45989   1.028   5.597   7.990 -0.6247 -0.0796  0.0031
  349MOL0     C45990   1.394   5.833   7.978  0.5066 -0.4681  0.2196
  349MOL0     C45991   1.499   5.827   7.877  0.6966  0.1096 -0.8602
  349MOL0     C45992   1.604   5.907   7.899 -0.8543 -0.6884 -0.4528
  349MOL0     C45993   1.615   5.989   8.014 -1.3501 -0.6859 -0.1902
  349MOL0     O45994   1.717   6.076   8.035  0.9067 -0.8555 -0.5219
  349MOL0     C45995   1.836   6.061   7.957 -0.3107  0.8431 -0.2427
  349MOL0     C45996   1.934   6.165   8.006  0.0256 -0.0243 -0.2347
  349MOL0     C45997   2.080   6.119   7.968  0.3860 -0.0176  0.3909
  349MOL0     C45998   2.096   6.082   7.822  0.0366  0.2305  0.0249
  349MOL0     C45999   2.241   6.066   7.784  0.6967 -0.6295  1.0371
  349MOL0     C46000   2.365   6.061   7.751 -0.5289 -0.2180  0.2814
  349MOL0     C46001   1.519   5.988   8.110  0.2595  0.5128  0.6849
  349MOL0     C46002   1.398   5.925   8.085  0.4461 -0.1499 -0.3295
  349MOL0     H46003   0.922   5.916   8.017 -0.4452  0.8357  0.6050
  349MOL0     H46004   0.697   5.795   7.974  0.9374  1.7588 -2.1055
  349MOL0     H46005   0.527   5.651   7.891  0.5436 -0.0164 -0.7795
  349MOL0     H46006   0.542   5.619   8.066 -1.5702  1.0299 -1.1656
  349MOL0     H46007   0.459   5.383   7.999  0.0055  1.5689  2.0875
  349MOL0     H46008   0.445   5.446   7.831  0.2954  0.6419 -0.6761
  349MOL0     H46009   0.273   5.611   7.917  1.6514  1.3181  1.9950
  349MOL0     H46010   0.285   5.536   8.080 -4.4627  2.5107 -0.2275
  349MOL0     H46011   0.212   5.384   7.830  2.3031  0.9472 -0.3703
  349MOL0     H46012   0.213   5.305   7.973 -1.0160  0.0615  0.2546
  349MOL0     H46013   0.034   5.532   7.894 -4.2854  0.9011  0.3227
  349MOL0     H46014   0.051   5.500   8.075  1.9345 -3.8429  1.3442
  349MOL0     H46015  -0.033   5.263   8.019  0.7063 -2.5509 -2.1135
  349MOL0     H46016  -0.050   5.328   7.854 -0.4629 -1.5914  0.1028
  349MOL0     H46017  -0.182   5.412   8.103 -2.1921 -3.2042 -0.0499
  349MOL0     H46018  -0.197   5.502   7.940 -0.8556 -0.8388 -2.2622
  349MOL0     H46019  -0.282   5.216   7.996 -4.3184  0.5818  1.1536
  349MOL0     H46020  -0.324   5.316   7.852 -0.8480  2.4568 -0.6104
  349MOL0     H46021  -0.396   5.347   8.241  1.4612 -1.1414 -0.0925
  349MOL0     H46022  -0.619   5.320   8.360  1.0958  2.0613  1.2233
  349MOL0     H46023  -0.770   5.369   8.274 -0.6917  1.9685 -3.4648
  349MOL0     H46024  -0.566   5.581   8.317 -1.1825 -1.4199 -3.0705
  349MOL0     H46025  -0.645   5.517   8.455 -3.3938 -1.9050  0.1166
  349MOL0     H46026  -0.876   5.572   8.381 -1.6670 -0.7297 -1.0897
  349MOL0     H46027  -0.766   5.712   8.351 -2.1999  0.1368  1.2770
  349MOL0     H46028  -0.873   5.512   8.140 -0.7000 -0.0641 -0.3066
  349MOL0     H46029  -0.746   5.625   8.121  2.1842 -0.7215  3.1111
  349MOL0     H46030  -1.074   5.478   8.142  1.8412  0.4079 -0.7531
  349MOL0     H46031  -1.313   5.453   8.152  0.3685 -0.0682  0.6973
  349MOL0     H46032  -1.748   5.822   8.023  0.1066  3.5825  1.1122
  349MOL0     H46033  -1.981   5.832   8.047  1.3259  0.4348 -0.8657
  349MOL0     H46034  -2.184   5.757   8.090 -2.9785  0.3285 -1.3296
  349MOL0     H46035  -2.176   5.927   8.150  3.1481 -0.0471  2.7991
  349MOL0     H46036  -2.386   5.735   8.249 -2.1557  1.5718  1.0647
  349MOL0     H46037  -2.406   5.849   8.133 -1.6035  2.0919  0.6049
  349MOL0     H46038  -2.374   6.039   8.257  0.3985 -0.8036 -0.9391
  349MOL0     H46039  -2.314   5.945   8.399 -1.5918  0.3715  1.9518
  349MOL0     H46040  -2.523   5.826   8.407  1.7304 -0.5857 -1.4118
  349MOL0     H46041  -2.529   6.005   8.449  1.4543  1.9206 -2.5690
  349MOL0     H46042  -2.631   5.875   8.197  2.0482  0.2232 -0.9206
  349MOL0     H46043  -2.607   6.048   8.214  0.2541 -0.1945 -0.0913
  349MOL0     H46044  -2.848   5.998   8.271 -0.2117 -2.0554  0.8909
  349MOL0     H46045  -2.766   6.076   8.402  0.3557 -0.1634 -0.2107
  349MOL0     H46046  -2.846   5.791   8.350  2.4884 -3.4925  1.6631
  349MOL0     H46047  -2.731   5.827   8.477 -2.0169 -0.6157  1.4189
  349MOL0     H46048  -2.890   5.944   8.610  0.0825 -0.1408  0.2751
  349MOL0     H46049  -2.952   5.789   8.555  0.2862 -0.3891 -2.2809
  349MOL0     H46050  -1.941   5.720   8.462 -0.8531  0.6569  0.3659
  349MOL0     H46051  -1.700   5.707   8.431 -1.5718  0.2154  0.9667
  349MOL0     H46052  -1.362   5.870   8.228 -1.7408 -1.9452  2.4019
  349MOL0     H46053  -1.126   5.904   8.177 -2.1635  0.8913 -0.4106
  349MOL0     H46054   0.901   5.427   7.956  1.7912  0.3120 -4.1609
  349MOL0     H46055   1.116   5.533   7.995 -2.1442 -2.3915 -1.0687
  349MOL0     H46056   1.492   5.748   7.803  0.9392 -2.4737  1.6677
  349MOL0     H46057   1.682   5.912   7.824  1.4042  3.2251  1.7643
  349MOL0     H46058   1.808   6.051   7.852 -3.2496 -1.8845  0.6442
  349MOL0     H46059   1.873   5.965   7.994 -2.6516 -0.1062 -0.2428
  349MOL0     H46060   1.918   6.260   7.954 -0.0971 -1.1582 -2.4073
  349MOL0     H46061   1.919   6.189   8.111 -1.7133 -1.3993 -0.1243
  349MOL0     H46062   2.126   6.053   8.042  1.8527  1.0257  0.4601
  349MOL0     H46063   2.138   6.212   7.966 -1.0774  0.9538 -2.0897
  349MOL0     H46064   2.056   5.982   7.807  0.7531  0.0740 -0.9290
  349MOL0     H46065   2.043   6.143   7.747  3.0432  0.4659 -2.0813
  349MOL0     H46066   2.471   6.071   7.738 -0.4896  0.4485  1.0637
  349MOL0     H46067   1.528   6.046   8.200 -2.7484 -0.4377  1.7353
  349MOL0     H46068   1.318   5.940   8.156  0.3410  1.0148 -0.6744
  350MOL0     O46069   9.515   3.206   0.705  0.1604  0.7021  0.2067
  350MOL0     C46070   9.559   3.111   0.634 -0.5091 -0.9252 -0.5590
  350MOL0     O46071   9.493   3.037   0.549  0.3693 -0.7341 -0.0218
  350MOL0     C46072   9.357   3.031   0.569  0.4133  0.4942  0.0515
  350MOL0     C46073   9.276   3.100   0.478 -0.1445 -0.0830 -0.5440
  350MOL0     C46074   9.144   3.109   0.496 -0.1295 -0.4422  0.5413
  350MOL0     C46075   9.076   3.054   0.598  1.1504  0.2193 -0.5110
  350MOL0     O46076   8.937   3.062   0.595  0.1094  0.1311 -0.4347
  350MOL0     C46077   8.855   3.001   0.696  0.8180 -0.6694 -0.7971
  350MOL0     C46078   8.708   3.062   0.676 -0.6363  0.5806  0.1459
  350MOL0     C46079   8.616   2.993   0.784  0.3314  0.2811  0.2957
  350MOL0     C46080   8.476   3.058   0.767 -0.0994 -0.6936  0.6740
  350MOL0     C46081   8.389   3.040   0.888 -0.3553 -0.6399 -0.1835
  350MOL0     C46082   8.256   3.112   0.883 -0.2220  0.6340 -0.6909
  350MOL0     C46083   8.211   3.141   1.035 -0.0669 -0.6131  0.0646
  350MOL0     C46084   8.201   3.017   1.134  0.9686 -0.1460  0.3196
  350MOL0     N46085   8.103   2.909   1.091  0.3134 -0.5250 -0.3927
  350MOL0     C46086   8.095   2.847   0.969  0.5056  0.6052 -0.2109
  350MOL0     C46087   8.011   2.746   0.985 -0.1234  1.8061  0.0537
  350MOL0     C46088   7.980   2.649   0.873 -0.1743 -0.2819 -0.3139
  350MOL0     C46089   7.900   2.729   0.769 -0.0666  0.6283 -0.1383
  350MOL0     C46090   7.858   2.626   0.657 -0.8330  0.2197 -0.5996
  350MOL0     C46091   7.792   2.683   0.533 -0.1286 -0.4576 -0.0429
  350MOL0     O46092   7.776   2.584   0.438  0.2454 -0.4694 -0.5301
  350MOL0     C46093   7.880   2.557   0.351  0.6725  0.6077 -1.6486
  350MOL0     C46094   7.992   2.632   0.334 -0.0481 -0.1715 -1.2046
  350MOL0     C46095   8.094   2.604   0.239  0.0918 -1.1444 -0.9184
  350MOL0     C46096   8.080   2.493   0.154  0.9752 -0.0352 -0.6073
  350MOL0     C46097   8.189   2.464   0.072 -0.2175  0.2985 -0.6210
  350MOL0     O46098   8.302   2.542   0.078  0.5980  0.0501 -0.3889
  350MOL0     C46099   8.422   2.518   0.016 -0.5642  0.2397 -1.1514
  350MOL0     C46100   8.480   2.623  -0.055 -0.5883 -0.2469  0.7867
  350MOL0     C46101   8.612   2.612  -0.102  0.0073 -0.8462  0.0452
  350MOL0     C46102   8.681   2.492  -0.086 -0.8829  0.8500 -0.5352
  350MOL0     O46103   8.813   2.500  -0.123  0.0015 -0.1034  0.0740
  350MOL0     C46104   8.839   2.435  -0.246  0.5842 -0.0909  1.3057
  350MOL0     C46105   8.972   2.480  -0.294 -0.0275  0.2276 -0.1552
  350MOL0     C46106   8.969   2.630  -0.341  0.6787  1.0060  0.2223
  350MOL0     C46107   9.038   2.658  -0.469 -0.2887  0.6978 -0.3561
  350MOL0     C46108   9.057   2.808  -0.483  0.7781  0.1658 -0.4065
  350MOL0     C46109   9.183   2.853  -0.417 -0.4463  0.3188  0.4494
  350MOL0     C46110   9.228   3.004  -0.462  0.2306  0.7768  0.5117
  350MOL0     C46111   9.367   3.039  -0.411  0.5789 -0.2230 -0.0019
  350MOL0    Cl46112   9.479   2.996  -0.542 -0.4694 -0.0133 -0.0674
  350MOL0     C46113   8.621   2.380  -0.026  0.0522  0.5607  0.6402
  350MOL0     C46114   8.491   2.389   0.023  0.1572 -0.6998 -0.1653
  350MOL0     O46115   8.175   2.369   0.005 -0.0954 -0.1372 -0.0461
  350MOL0     C46116   7.958   2.423   0.165  0.3818 -0.1945 -0.9771
  350MOL0     C46117   7.859   2.449   0.263  0.5712  0.1538  0.9778
  350MOL0     N46118   7.965   2.746   1.118  1.3300  0.1526  0.6232
  350MOL0     N46119   8.015   2.850   1.180  0.5351 -0.1253  0.0932
  350MOL0     C46120   9.154   2.973   0.683 -0.6665  0.9730  0.7232
  350MOL0     C46121   9.296   2.966   0.673  0.4090  0.4498 -0.1444
  350MOL0     C46122   9.704   3.084   0.650 -0.1987 -0.4143  0.9031
  350MOL0     C46123   9.784   3.152   0.752  1.0661 -0.1760  0.0620
  350MOL0     C46124   9.919   3.127   0.766  0.3423  0.6803 -0.4175
  350MOL0     C46125   9.982   3.031   0.696  0.1685  0.8485 -0.1008
  350MOL0     O46126  10.112   3.020   0.734 -0.3709  0.0009 -0.2641
  350MOL0     C46127  10.192   2.911   0.665 -0.0274 -0.3033  0.1892
  350MOL0     C46128  10.339   2.943   0.701  0.1912  0.2854 -0.1501
  350MOL0     C46129  10.392   2.905   0.839  0.0187 -0.4364  0.2948
  350MOL0     C46130  10.378   2.755   0.861  0.0312  0.0895 -0.5339
  350MOL0     C46131  10.496   2.682   0.814  0.2791 -0.4850  0.1213
  350MOL0     C46132  10.594   2.618   0.782 -0.2629  0.6316  0.6527
  350MOL0     C46133   9.914   2.964   0.588  0.4062 -0.4434 -0.7035
  350MOL0     C46134   9.776   2.995   0.569 -0.1290  0.5291  0.2871
  350MOL0     H46135   9.322   3.152   0.395 -0.2542 -0.1795 -0.6645
  350MOL0     H46136   9.100   3.162   0.412  1.0823 -1.8331 -1.0590
  350MOL0     H46137   8.901   3.027   0.792 -0.2879 -1.1853 -0.1045
  350MOL0     H46138   8.851   2.893   0.678  0.5376 -0.7221 -0.4349
  350MOL0     H46139   8.664   3.039   0.578  0.8478  0.2358 -0.4667
  350MOL0     H46140   8.712   3.171   0.686 -1.5312  0.5382  1.2085
  350MOL0     H46141   8.659   3.005   0.883  2.4216 -1.3360 -0.3459
  350MOL0     H46142   8.602   2.889   0.755 -0.0716  0.1480  0.9674
  350MOL0     H46143   8.479   3.166   0.752  0.2351 -0.9851 -1.6227
  350MOL0     H46144   8.427   3.010   0.682  1.0084  1.0149 -0.9979
  350MOL0     H46145   8.443   3.069   0.978 -1.3583  2.6511 -0.5247
  350MOL0     H46146   8.372   2.933   0.900  0.8557 -0.9621 -1.0354
  350MOL0     H46147   8.182   3.062   0.820  1.1120  1.0258 -2.6623
  350MOL0     H46148   8.274   3.206   0.830  0.4114  0.1516 -1.3618
  350MOL0     H46149   8.264   3.222   1.085 -2.6996 -0.1679  2.4138
  350MOL0     H46150   8.110   3.183   1.025 -0.2166 -0.8490  0.5468
  350MOL0     H46151   8.182   3.051   1.236 -0.7480 -4.0458  1.4935
  350MOL0     H46152   8.300   2.970   1.136  1.0052 -0.1137  2.7234
  350MOL0     H46153   8.143   2.868   0.874 -2.4653 -0.3269 -2.0546
  350MOL0     H46154   7.926   2.560   0.905  0.3687 -1.1535 -1.7579
  350MOL0     H46155   8.073   2.616   0.827 -0.1584  2.4779 -2.5974
  350MOL0     H46156   7.960   2.804   0.717  2.3535 -3.6933 -4.3843
  350MOL0     H46157   7.816   2.789   0.805 -1.4146  0.0228 -2.0718
  350MOL0     H46158   7.943   2.566   0.622 -0.3796  1.3950 -1.5902
  350MOL0     H46159   7.777   2.566   0.700  1.8931 -2.2722  1.4908
  350MOL0     H46160   7.846   2.773   0.502 -1.9030  1.8509  2.9848
  350MOL0     H46161   7.692   2.723   0.552  0.1785 -0.0714  0.8200
  350MOL0     H46162   8.023   2.719   0.390  1.4539 -0.6616 -1.2367
  350MOL0     H46163   8.177   2.674   0.248 -0.3243 -0.9096  2.1788
  350MOL0     H46164   8.431   2.719  -0.072  0.2203 -0.1112 -0.9212
  350MOL0     H46165   8.674   2.691  -0.144  3.3845 -2.9044  0.7057
  350MOL0     H46166   8.760   2.454  -0.319 -0.7922  2.1064  3.2091
  350MOL0     H46167   8.846   2.328  -0.224  1.1358 -0.0810  1.1959
  350MOL0     H46168   8.985   2.412  -0.379 -4.7748  1.0059 -1.8257
  350MOL0     H46169   9.061   2.462  -0.233 -0.6372  0.9502  0.9755
  350MOL0     H46170   9.003   2.684  -0.253  0.2326 -2.3921  2.6586
  350MOL0     H46171   8.866   2.660  -0.362 -0.5355  1.7138  5.7371
  350MOL0     H46172   9.134   2.607  -0.458 -0.4165  0.8817  2.1125
  350MOL0     H46173   8.973   2.618  -0.548  1.0270  0.0388 -1.1318
  350MOL0     H46174   8.970   2.857  -0.440 -1.2100 -2.2791 -1.3961
  350MOL0     H46175   9.060   2.832  -0.590 -0.4764 -0.0640 -0.5063
  350MOL0     H46176   9.261   2.779  -0.441  0.1009 -0.3745  3.8816
  350MOL0     H46177   9.169   2.834  -0.310 -1.0755 -2.5795 -0.0401
  350MOL0     H46178   9.223   3.000  -0.571  0.4129 -3.5734  0.5115
  350MOL0     H46179   9.160   3.077  -0.417 -1.2762  0.1541 -0.6710
  350MOL0     H46180   9.394   2.979  -0.324 -0.0208  1.0358  1.0812
  350MOL0     H46181   9.375   3.145  -0.384  1.0438 -0.0859 -0.6570
  350MOL0     H46182   8.681   2.295   0.006  1.3876  0.9292 -0.7546
  350MOL0     H46183   8.440   2.307   0.072 -2.1398 -0.7224 -2.3835
  350MOL0     H46184   7.946   2.334   0.105 -0.9039 -2.2340  2.0579
  350MOL0     H46185   7.770   2.389   0.278  0.0500  1.3273  2.7982
  350MOL0     H46186   9.100   2.916   0.758 -3.1341  0.1830 -1.5004
  350MOL0     H46187   9.352   2.914   0.750 -3.0900 -0.0153  2.3737
  350MOL0     H46188   9.743   3.236   0.807  0.5716  0.7650 -1.6796
  350MOL0     H46189   9.979   3.179   0.840 -1.3862  0.0538  1.5195
  350MOL0     H46190  10.197   2.902   0.557  3.6126 -2.6051  0.3601
  350MOL0     H46191  10.163   2.809   0.690 -3.1470  0.0300 -1.5884
  350MOL0     H46192  10.407   2.890   0.633  3.2150  0.2312  2.6589
  350MOL0     H46193  10.334   3.052   0.692 -2.4673  0.2541  0.1638
  350MOL0     H46194  10.334   2.953   0.918  0.4223  0.6099 -0.0361
  350MOL0     H46195  10.495   2.943   0.840 -0.7242  1.7481 -0.4326
  350MOL0     H46196  10.371   2.748   0.970 -0.9363  2.4494 -0.3862
  350MOL0     H46197  10.283   2.717   0.823  0.8821  0.0014 -2.6964
  350MOL0     H46198  10.689   2.576   0.758 -0.8992 -1.4405  1.5870
  350MOL0     H46199   9.969   2.902   0.517  1.0626  0.7788 -1.2772
  350MOL0     H46200   9.717   2.944   0.493 -1.5068 -1.8517  2.7838
  351MOL0     O46201   8.199   3.780   6.998  0.5183  0.0859  0.2602
  351MOL0     C46202   8.194   3.711   7.103  0.1872  0.0206 -0.0658
  351MOL0     O46203   8.084   3.638   7.143  0.1075  0.1121 -0.2339
  351MOL0     C46204   7.967   3.651   7.068  0.0077 -0.3121 -0.1706
  351MOL0     C46205   7.849   3.697   7.125  0.1638  0.4862 -0.0774
  351MOL0     C46206   7.723   3.680   7.073 -0.3872 -0.2551 -0.2909
  351MOL0     C46207   7.710   3.617   6.941  1.1714 -0.4559 -0.8484
  351MOL0     O46208   7.580   3.601   6.882 -0.2186 -0.6596 -0.7341
  351MOL0     C46209   7.543   3.471   6.833 -0.8142 -0.6083 -0.2557
  351MOL0     C46210   7.407   3.445   6.884 -0.4747 -0.7217  0.0697
  351MOL0     C46211   7.349   3.315   6.821  0.1922 -1.3319  0.2839
  351MOL0     C46212   7.203   3.311   6.844  0.1615 -0.5020 -0.4652
  351MOL0     C46213   7.156   3.181   6.768 -0.6915 -0.5437  0.1630
  351MOL0     C46214   7.000   3.154   6.786  0.1507 -0.8184 -0.0435
  351MOL0     C46215   6.981   3.010   6.734  0.3374 -0.0974  0.1024
  351MOL0     C46216   6.833   2.962   6.763 -0.0312  0.2224 -0.1497
  351MOL0     N46217   6.729   3.005   6.677  0.2904  0.0230  0.1304
  351MOL0     C46218   6.677   3.132   6.666 -0.0096 -0.1887 -0.4690
  351MOL0     C46219   6.587   3.127   6.565 -0.4036 -0.7562 -0.1255
  351MOL0     C46220   6.514   3.246   6.518  0.4181 -0.2154  0.0285
  351MOL0     C46221   6.571   3.282   6.383 -1.2238  0.8287 -0.6481
  351MOL0     C46222   6.641   3.415   6.377 -0.0255  0.0440  0.2458
  351MOL0     C46223   6.783   3.409   6.423 -0.9441 -0.7751  0.0873
  351MOL0     O46224   6.861   3.346   6.327  0.5637  0.1538  0.4334
  351MOL0     C46225   7.000   3.371   6.328 -0.3502  0.6922  0.5386
  351MOL0     C46226   7.065   3.415   6.445 -0.4405 -0.2301 -0.1529
  351MOL0     C46227   7.201   3.434   6.459 -0.1118 -0.2208 -0.0703
  351MOL0     C46228   7.280   3.397   6.353  0.7265  0.1384 -0.3287
  351MOL0     C46229   7.417   3.409   6.373 -0.4019 -0.5151  0.0073
  351MOL0     O46230   7.491   3.413   6.258 -0.1326  1.0151 -0.2940
  351MOL0     C46231   7.625   3.386   6.274 -0.1362 -0.4843 -0.4642
  351MOL0     C46232   7.710   3.474   6.351 -0.9744  0.2985 -0.6940
  351MOL0     C46233   7.852   3.456   6.347 -0.2846  0.8832  0.2732
  351MOL0     C46234   7.912   3.355   6.266 -0.4552 -0.4205  0.1433
  351MOL0     O46235   8.034   3.320   6.258 -0.6177  0.7547 -0.4356
  351MOL0     C46236   8.102   3.354   6.137 -0.2187 -0.0780 -1.0906
  351MOL0     C46237   8.243   3.407   6.163 -0.2063  0.7641  0.0490
  351MOL0     C46238   8.325   3.398   6.032 -0.0081 -0.5228 -0.5933
  351MOL0     C46239   8.467   3.445   6.055 -0.3696 -0.4848 -0.4115
  351MOL0     C46240   8.550   3.427   5.925 -0.5712  0.0998  0.0178
  351MOL0     C46241   8.685   3.498   5.939  1.0149 -0.2258 -0.6375
  351MOL0     C46242   8.787   3.423   5.858 -0.3050 -0.7621 -0.5767
  351MOL0     C46243   8.923   3.424   5.930  0.0226  0.3686  0.6069
  351MOL0    Cl46244   8.909   3.362   6.094  0.3322  0.5477  0.1100
  351MOL0     C46245   7.821   3.265   6.201 -0.4126 -0.0629  0.6547
  351MOL0     C46246   7.677   3.281   6.203  0.6247  0.1215  0.9816
  351MOL0     O46247   7.468   3.407   6.485 -0.3070  0.5009 -0.1512
  351MOL0     C46248   7.220   3.346   6.236 -0.7514  1.1741  0.4334
  351MOL0     C46249   7.079   3.330   6.221  0.5531 -0.0167 -0.3315
  351MOL0     N46250   6.582   2.995   6.527  0.5052  0.3957  0.6236
  351MOL0     N46251   6.658   2.924   6.590  0.4345 -1.4105 -0.8094
  351MOL0     C46252   7.832   3.564   6.882  0.5570  0.5843  0.3337
  351MOL0     C46253   7.953   3.590   6.939 -0.5261 -0.2538 -0.4217
  351MOL0     C46254   8.325   3.699   7.171 -0.7315  0.0924  0.1447
  351MOL0     C46255   8.451   3.747   7.110  0.8277 -0.0709 -1.0725
  351MOL0     C46256   8.573   3.724   7.177 -0.2307  0.2418  0.3114
  351MOL0     C46257   8.574   3.658   7.299  0.4627 -0.4551 -0.4366
  351MOL0     O46258   8.688   3.645   7.369 -0.3651  0.0729  0.1438
  351MOL0     C46259   8.703   3.746   7.473  0.2984  0.3658 -0.4129
  351MOL0     C46260   8.857   3.771   7.497  0.8955  0.5305  1.3759
  351MOL0     C46261   8.925   3.677   7.582  1.2045  0.6276  0.1788
  351MOL0     C46262   9.069   3.699   7.622  0.4368 -0.0669  0.2561
  351MOL0     C46263   9.148   3.729   7.499 -0.3205  0.3082 -0.7561
  351MOL0     C46264   9.217   3.726   7.398 -0.4520 -0.7618  0.0679
  351MOL0     C46265   8.456   3.603   7.343 -0.3744  1.0192 -0.2113
  351MOL0     C46266   8.330   3.619   7.286  0.1408  0.5178  1.2362
  351MOL0     H46267   7.847   3.756   7.216 -2.5384  0.0177  0.2567
  351MOL0     H46268   7.642   3.722   7.132 -0.6668  0.1715 -0.9636
  351MOL0     H46269   7.607   3.387   6.858 -0.9968 -2.0972 -4.1937
  351MOL0     H46270   7.534   3.469   6.724 -1.3965 -0.2735 -0.2215
  351MOL0     H46271   7.348   3.528   6.845  0.3982 -0.4953 -0.8036
  351MOL0     H46272   7.408   3.442   6.993 -1.3743  0.8993  0.1389
  351MOL0     H46273   7.396   3.227   6.865  1.6804  0.3614  2.3125
  351MOL0     H46274   7.373   3.330   6.716 -2.1183  0.9903 -0.0169
  351MOL0     H46275   7.175   3.312   6.950 -0.5844  3.3510 -0.5613
  351MOL0     H46276   7.147   3.399   6.810  2.2024  1.5100  1.0169
  351MOL0     H46277   7.215   3.094   6.798 -0.2743 -1.3887 -2.8227
  351MOL0     H46278   7.163   3.196   6.660 -1.9831  4.2196  0.5032
  351MOL0     H46279   6.943   3.229   6.730 -1.0487 -1.6494  0.0022
  351MOL0     H46280   6.973   3.156   6.892  0.7703 -1.5130  0.1393
  351MOL0     H46281   6.989   3.012   6.625 -0.6021 -1.8842 -0.0360
  351MOL0     H46282   7.054   2.945   6.781 -0.0481  0.3584  1.3711
  351MOL0     H46283   6.802   2.991   6.864 -0.3408  1.6472 -0.6282
  351MOL0     H46284   6.828   2.853   6.755  0.0272  0.0066  2.2568
  351MOL0     H46285   6.712   3.216   6.725 -1.7771  0.2757 -0.0031
  351MOL0     H46286   6.535   3.322   6.594  3.0671  0.2217 -1.0231
  351MOL0     H46287   6.405   3.235   6.518  0.2172  1.5046 -0.0582
  351MOL0     H46288   6.494   3.291   6.306 -0.4205  0.9648 -1.4551
  351MOL0     H46289   6.644   3.208   6.350 -1.0234  0.0510  1.3663
  351MOL0     H46290   6.635   3.464   6.279 -0.6561  0.9065  0.7116
  351MOL0     H46291   6.591   3.488   6.440  0.2873 -1.2419  2.0626
  351MOL0     H46292   6.796   3.370   6.524  2.7404 -2.1770 -0.7804
  351MOL0     H46293   6.808   3.516   6.422 -1.2314 -0.6908  0.9992
  351MOL0     H46294   7.002   3.451   6.525 -1.7804 -1.7303 -0.4993
  351MOL0     H46295   7.245   3.477   6.549  2.1866  2.2813 -2.1900
  351MOL0     H46296   7.670   3.560   6.404  0.2335 -0.4792  1.5914
  351MOL0     H46297   7.917   3.520   6.406  0.4427  1.7528 -1.4164
  351MOL0     H46298   8.039   3.423   6.080 -2.4991  0.7515  2.1666
  351MOL0     H46299   8.116   3.257   6.088  0.6925 -0.0524 -0.9051
  351MOL0     H46300   8.294   3.348   6.239  0.1710  1.8221  0.6259
  351MOL0     H46301   8.242   3.508   6.205 -1.2927  0.2040  1.4261
  351MOL0     H46302   8.273   3.450   5.951 -0.6668 -0.4149 -0.0995
  351MOL0     H46303   8.337   3.290   6.017  1.2987 -0.2152 -2.1270
  351MOL0     H46304   8.463   3.550   6.086 -0.4211 -0.7158  0.4035
  351MOL0     H46305   8.507   3.382   6.136 -2.8854 -1.3551  0.2461
  351MOL0     H46306   8.483   3.466   5.848  0.1807  0.6332 -0.3898
  351MOL0     H46307   8.567   3.321   5.903 -0.7249  0.1804 -0.5064
  351MOL0     H46308   8.710   3.506   6.046 -2.9730 -1.1456  0.5631
  351MOL0     H46309   8.682   3.603   5.908 -0.0711 -0.3105 -0.8477
  351MOL0     H46310   8.761   3.321   5.829 -1.2252 -0.9419  0.7454
  351MOL0     H46311   8.805   3.482   5.768 -3.2695  3.4378  1.2622
  351MOL0     H46312   8.973   3.521   5.934  1.9692 -0.5007 -0.8010
  351MOL0     H46313   9.003   3.378   5.871  0.5955  1.2365  0.6851
  351MOL0     H46314   7.876   3.184   6.153  1.8898  1.2248  0.9508
  351MOL0     H46315   7.618   3.210   6.145  1.2663  0.3052  0.0894
  351MOL0     H46316   7.288   3.325   6.155  1.0563  1.6085  1.7795
  351MOL0     H46317   7.033   3.300   6.127  3.3618  0.3877 -1.9689
  351MOL0     H46318   7.834   3.527   6.780  1.1505 -1.3951  1.0092
  351MOL0     H46319   8.046   3.579   6.884 -1.1710 -1.1695 -1.3780
  351MOL0     H46320   8.445   3.794   7.012 -1.9027 -1.7862 -1.8500
  351MOL0     H46321   8.662   3.771   7.136  0.0918  1.9735  2.7644
  351MOL0     H46322   8.662   3.714   7.569  3.8384 -1.5184  0.6543
  351MOL0     H46323   8.669   3.844   7.436  2.7259  1.4670  0.0441
  351MOL0     H46324   8.913   3.785   7.404 -0.5911  0.9165  0.5006
  351MOL0     H46325   8.866   3.871   7.541  1.8793  1.2327 -0.2941
  351MOL0     H46326   8.913   3.582   7.529 -1.3863 -1.2574  3.7709
  351MOL0     H46327   8.872   3.663   7.676  1.5269 -0.1353  0.2573
  351MOL0     H46328   9.074   3.779   7.697  2.8690  0.4086 -0.3124
  351MOL0     H46329   9.124   3.623   7.677  0.6700  1.8839  2.9438
  351MOL0     H46330   9.287   3.715   7.317 -0.1356  1.6686 -0.0472
  351MOL0     H46331   8.472   3.534   7.425  3.3158 -0.8069 -2.2352
  351MOL0     H46332   8.247   3.558   7.321  1.3776 -0.8663  1.8907
  352MOL0     O46333   3.681   7.531   4.763  0.2860 -0.1858 -0.4220
  352MOL0     C46334   3.586   7.500   4.689 -0.5410  1.1936  0.3239
  352MOL0     O46335   3.609   7.423   4.572 -0.3319  0.1062 -0.1827
  352MOL0     C46336   3.741   7.407   4.522  0.2510  0.3723  0.4463
  352MOL0     C46337   3.843   7.504   4.532  0.0951  0.2953  0.7028
  352MOL0     C46338   3.975   7.477   4.481  0.9784  0.1350 -0.0831
  352MOL0     C46339   3.992   7.355   4.414  0.5610  0.6246  0.3548
  352MOL0     O46340   4.117   7.328   4.368 -0.2778  0.0623  0.0653
  352MOL0     C46341   4.150   7.199   4.311 -0.8223 -0.2918 -0.1628
  352MOL0     C46342   4.228   7.217   4.175  0.5929  0.5168  0.3331
  352MOL0     C46343   4.337   7.103   4.158 -0.8319 -0.2935 -0.4512
  352MOL0     C46344   4.418   7.127   4.027 -0.3538 -0.3958  0.2438
  352MOL0     C46345   4.535   7.034   3.995  0.3443  0.9337  0.1396
  352MOL0     C46346   4.620   6.987   4.104  0.1265  0.8612 -0.9641
  352MOL0     C46347   4.721   7.083   4.167  0.0187 -0.2492 -1.2470
  352MOL0     C46348   4.841   7.019   4.243 -0.4185 -0.5138 -0.1675
  352MOL0     N46349   4.783   6.950   4.360 -0.1432  0.3884  0.0143
  352MOL0     C46350   4.728   6.834   4.362 -0.5937  0.6929  0.5414
  352MOL0     C46351   4.659   6.832   4.480 -0.3324 -0.3499  0.3411
  352MOL0     C46352   4.564   6.722   4.511  0.3326  0.6279 -0.0473
  352MOL0     C46353   4.423   6.774   4.475  0.3663 -0.2174  0.7244
  352MOL0     C46354   4.311   6.678   4.521  0.3409 -0.0720 -0.6562
  352MOL0     C46355   4.196   6.770   4.564  1.0010 -0.5651 -0.2502
  352MOL0     O46356   4.114   6.794   4.444 -0.0950 -0.7469  0.1367
  352MOL0     C46357   3.985   6.833   4.439 -0.8971  0.4851  0.0691
  352MOL0     C46358   3.935   6.875   4.314 -0.0163 -0.6808 -0.0493
  352MOL0     C46359   3.808   6.935   4.302 -0.6044 -0.2931  0.3038
  352MOL0     C46360   3.717   6.930   4.409 -0.1296  0.4523 -0.4377
  352MOL0     C46361   3.576   6.975   4.391 -0.3107 -0.1965  0.3612
  352MOL0     O46362   3.513   7.013   4.493  0.9712  0.2362 -0.0320
  352MOL0     C46363   3.384   7.062   4.478  0.6501  0.1692 -0.1842
  352MOL0     C46364   3.364   7.195   4.443  0.3937  0.3047 -1.1327
  352MOL0     C46365   3.238   7.248   4.398 -0.0262  0.0210 -0.4025
  352MOL0     C46366   3.123   7.167   4.406  0.4110  0.7004 -0.8980
  352MOL0     O46367   2.991   7.211   4.380 -0.4703 -0.0481  0.3652
  352MOL0     C46368   2.963   7.353   4.373 -0.8072 -0.1423 -0.4630
  352MOL0     C46369   2.815   7.377   4.377 -0.3468 -0.8938 -0.1699
  352MOL0     C46370   2.740   7.318   4.507 -1.0979 -0.2876  0.2296
  352MOL0     C46371   2.606   7.392   4.530 -0.6877  0.7446  0.1601
  352MOL0     C46372   2.512   7.325   4.427  0.2534  0.3392  0.7528
  352MOL0     C46373   2.384   7.402   4.422  0.1729  0.1155 -0.1885
  352MOL0     C46374   2.267   7.330   4.353 -0.4427  0.6939  0.1819
  352MOL0     C46375   2.133   7.396   4.398 -0.0930 -0.8597  0.1793
  352MOL0    Cl46376   1.990   7.319   4.316  0.2165 -0.0974 -0.1372
  352MOL0     C46377   3.145   7.030   4.448  0.2368  0.3215 -0.7607
  352MOL0     C46378   3.269   6.979   4.490 -0.3875 -0.7109 -0.0226
  352MOL0     O46379   3.533   6.958   4.276 -0.5665  0.0270  0.2304
  352MOL0     C46380   3.770   6.902   4.534 -0.8654  0.0619  0.6611
  352MOL0     C46381   3.901   6.844   4.550 -0.1333 -0.3720 -0.5125
  352MOL0     N46382   4.688   6.944   4.555 -0.3066  0.1223 -0.0264
  352MOL0     N46383   4.765   7.016   4.479  0.4461  0.0120  0.1029
  352MOL0     C46384   3.883   7.256   4.409 -0.4265 -0.5475 -0.3509
  352MOL0     C46385   3.763   7.288   4.459  0.1187  0.0569 -0.1055
  352MOL0     C46386   3.446   7.539   4.720 -0.0529  0.6450  0.3127
  352MOL0     C46387   3.423   7.618   4.833 -0.7812  0.4271  0.2659
  352MOL0     C46388   3.295   7.667   4.858  0.1118  0.1871 -0.0039
  352MOL0     C46389   3.184   7.628   4.780 -1.2743 -0.2059 -1.0286
  352MOL0     O46390   3.061   7.666   4.813 -0.3105 -0.0779  0.4926
  352MOL0     C46391   2.969   7.558   4.840 -0.6741 -0.3193  0.3283
  352MOL0     C46392   2.856   7.605   4.924 -0.3112 -0.0767 -0.5756
  352MOL0     C46393   2.875   7.599   5.075 -0.3787 -1.0007  0.1905
  352MOL0     C46394   2.774   7.682   5.150 -0.1715  0.7751 -0.5388
  352MOL0     C46395   2.667   7.592   5.189  0.3876  0.2789 -0.7925
  352MOL0     C46396   2.575   7.522   5.234 -1.0433  1.1298 -0.8938
  352MOL0     C46397   3.210   7.551   4.671 -0.6308 -0.1898  0.0152
  352MOL0     C46398   3.334   7.505   4.645 -0.0211  0.6211 -0.2843
  352MOL0     H46399   3.835   7.603   4.577  0.3844  1.8666 -2.4710
  352MOL0     H46400   4.055   7.550   4.475  0.2009  0.8936 -2.8251
  352MOL0     H46401   4.061   7.135   4.299 -1.9787  0.7317  2.1589
  352MOL0     H46402   4.213   7.148   4.385 -0.7936  0.6174  0.4472
  352MOL0     H46403   4.282   7.312   4.185  0.2030  1.1528 -2.7157
  352MOL0     H46404   4.167   7.223   4.085  0.0744  0.5382  0.6835
  352MOL0     H46405   4.291   7.004   4.166 -3.5412  0.9723  1.5666
  352MOL0     H46406   4.407   7.111   4.242 -1.4340 -1.0818  0.1455
  352MOL0     H46407   4.348   7.123   3.943 -0.3718  2.7533 -0.0382
  352MOL0     H46408   4.448   7.233   4.030 -2.3407  0.2239 -0.2653
  352MOL0     H46409   4.585   7.082   3.911 -2.3163  2.4930 -0.6633
  352MOL0     H46410   4.505   6.940   3.946  2.6453  0.5422 -0.6172
  352MOL0     H46411   4.679   6.898   4.079  3.7735  2.1572  2.1709
  352MOL0     H46412   4.555   6.956   4.186 -0.7242  0.3819 -1.7944
  352MOL0     H46413   4.752   7.145   4.083 -1.8388  0.6988 -1.2999
  352MOL0     H46414   4.665   7.146   4.237 -1.2319 -0.7463 -1.7674
  352MOL0     H46415   4.908   7.097   4.278  2.0345 -1.9352 -1.4319
  352MOL0     H46416   4.907   6.951   4.189 -0.4732  0.1450 -1.0922
  352MOL0     H46417   4.714   6.770   4.275  1.6440 -0.2618  0.8298
  352MOL0     H46418   4.581   6.702   4.617  1.7094  1.3597 -0.1104
  352MOL0     H46419   4.580   6.633   4.450  1.1745 -0.3321  1.5089
  352MOL0     H46420   4.420   6.807   4.371 -0.9095  2.1688  1.4443
  352MOL0     H46421   4.406   6.871   4.523 -1.7293 -1.2167  2.1768
  352MOL0     H46422   4.272   6.612   4.443  1.0500  2.3603 -3.1767
  352MOL0     H46423   4.332   6.623   4.614 -0.9280  2.3912  1.2097
  352MOL0     H46424   4.225   6.865   4.610  0.3442  0.9276 -2.7102
  352MOL0     H46425   4.136   6.710   4.634  1.4639  0.1481  0.7826
  352MOL0     H46426   4.008   6.871   4.234  1.2520 -0.0354  1.0320
  352MOL0     H46427   3.770   6.976   4.208 -2.7597  2.8804  2.3602
  352MOL0     H46428   3.448   7.262   4.430  0.7587 -0.1236 -0.9862
  352MOL0     H46429   3.242   7.342   4.343  1.9718  0.7974  0.9854
  352MOL0     H46430   3.016   7.398   4.289  0.3963  3.7310  2.0976
  352MOL0     H46431   3.012   7.406   4.455  1.4239 -0.3515 -1.5769
  352MOL0     H46432   2.768   7.329   4.291 -0.1188 -1.5869  0.0917
  352MOL0     H46433   2.790   7.484   4.374  1.8554 -0.3041  0.7300
  352MOL0     H46434   2.809   7.339   4.590  1.3988  2.5227 -2.2978
  352MOL0     H46435   2.731   7.210   4.492 -3.5758 -0.2540  0.9853
  352MOL0     H46436   2.564   7.371   4.629  2.4648  0.1405  1.5026
  352MOL0     H46437   2.605   7.500   4.512  1.4069  1.1017  1.8478
  352MOL0     H46438   2.499   7.221   4.457 -1.1149 -0.3987 -2.0680
  352MOL0     H46439   2.552   7.326   4.325  0.9311 -0.5182  1.0003
  352MOL0     H46440   2.400   7.500   4.376 -0.7189 -0.1358 -1.0541
  352MOL0     H46441   2.353   7.436   4.521 -2.4309  1.1160 -1.2647
  352MOL0     H46442   2.268   7.334   4.244 -0.0974  0.6862  0.1829
  352MOL0     H46443   2.274   7.227   4.388 -1.7583  0.2683 -0.7552
  352MOL0     H46444   2.130   7.503   4.374 -1.0458 -1.6748 -4.4135
  352MOL0     H46445   2.121   7.385   4.506 -3.3119 -1.3140 -0.1538
  352MOL0     H46446   3.063   6.961   4.459 -0.1364  0.9030  0.1773
  352MOL0     H46447   3.284   6.874   4.511  0.5271 -0.8225 -1.1832
  352MOL0     H46448   3.720   6.908   4.630  3.3224 -0.7782  3.1793
  352MOL0     H46449   3.927   6.829   4.654  1.6521  1.2534 -0.6676
  352MOL0     H46450   3.875   7.161   4.357 -1.3531  0.7607 -2.7703
  352MOL0     H46451   3.680   7.217   4.461  0.2738 -0.1958 -1.4572
  352MOL0     H46452   3.508   7.632   4.899  0.3568  0.2301 -1.1017
  352MOL0     H46453   3.298   7.745   4.933  2.8415  1.5227 -1.3232
  352MOL0     H46454   3.014   7.469   4.885  0.6442 -0.5478 -1.3484
  352MOL0     H46455   2.913   7.521   4.753  1.1889  1.3057 -1.6762
  352MOL0     H46456   2.824   7.708   4.906 -3.4269  0.0581  3.9936
  352MOL0     H46457   2.767   7.550   4.892 -0.7661  0.7489 -0.7619
  352MOL0     H46458   2.970   7.637   5.114  0.0661 -2.2902  0.4364
  352MOL0     H46459   2.875   7.495   5.110 -0.3936 -0.5318  1.6515
  352MOL0     H46460   2.805   7.738   5.239 -2.3302  1.4817 -0.1840
  352MOL0     H46461   2.744   7.762   5.082 -1.3807  1.2931  0.5631
  352MOL0     H46462   2.495   7.462   5.272  1.9562 -1.4019  2.0077
  352MOL0     H46463   3.123   7.528   4.610 -1.0405 -0.4859  0.6956
  352MOL0     H46464   3.344   7.464   4.545  1.2864  0.3740 -0.0705
  353MOL0     O46465   3.686   7.949   9.525  0.3838  0.1085  0.8039
  353MOL0     C46466   3.667   7.859   9.611 -0.4058 -0.5026  0.6909
  353MOL0     O46467   3.545   7.799   9.640 -0.8597  0.4015 -0.3189
  353MOL0     C46468   3.447   7.829   9.553 -0.0323 -0.7649  0.3058
  353MOL0     C46469   3.414   7.750   9.444 -0.3799 -0.1438  0.4599
  353MOL0     C46470   3.315   7.795   9.357  0.3978 -1.0420  1.2003
  353MOL0     C46471   3.236   7.914   9.372  0.4839 -0.0211 -0.4681
  353MOL0     O46472   3.136   7.966   9.299  0.0683  0.0140  0.4827
  353MOL0     C46473   3.118   7.896   9.174  0.2944  0.0899  0.3942
  353MOL0     C46474   3.033   7.975   9.074  0.9909 -0.2044  0.3849
  353MOL0     C46475   3.095   8.093   9.008  0.2935  0.2811 -0.5132
  353MOL0     C46476   3.004   8.153   8.898  0.0369  0.2387 -0.0557
  353MOL0     C46477   3.073   8.273   8.834  0.1667 -0.7680 -0.5118
  353MOL0     C46478   3.028   8.319   8.691 -0.4141 -0.5408 -0.0486
  353MOL0     C46479   3.105   8.439   8.649  0.4419 -0.3123 -0.4489
  353MOL0     C46480   3.083   8.455   8.505  0.8526 -0.0085  0.4626
  353MOL0     N46481   3.161   8.359   8.420 -0.5140  0.4345  0.8223
  353MOL0     C46482   3.130   8.303   8.300  0.4408  0.8683 -1.1737
  353MOL0     C46483   3.225   8.209   8.264 -1.1458 -0.5076 -0.1903
  353MOL0     C46484   3.215   8.119   8.149  0.5080  0.5265 -0.6394
  353MOL0     C46485   3.199   7.973   8.192 -0.5251  0.7833 -1.4439
  353MOL0     C46486   3.181   7.886   8.064  0.1980 -0.7230  0.4378
  353MOL0     C46487   3.166   7.732   8.082 -0.7406 -0.2885 -0.4803
  353MOL0     O46488   3.049   7.696   8.154 -0.0583 -0.3625 -0.5966
  353MOL0     C46489   2.922   7.736   8.116 -0.5271 -0.4665  0.0793
  353MOL0     C46490   2.818   7.768   8.203 -1.8306  0.6103 -0.2955
  353MOL0     C46491   2.689   7.780   8.163  1.2979 -0.5622  0.1253
  353MOL0     C46492   2.662   7.785   8.023  0.0955  0.2737  0.2503
  353MOL0     C46493   2.523   7.804   7.971 -0.2762 -0.1306 -0.0110
  353MOL0     O46494   2.511   7.785   7.839 -0.3459 -0.8091  0.0308
  353MOL0     C46495   2.391   7.814   7.785 -0.0320  0.2842 -0.3743
  353MOL0     C46496   2.365   7.942   7.739 -0.0203 -0.2864 -0.5146
  353MOL0     C46497   2.239   7.972   7.691 -0.3122 -0.2778  0.1562
  353MOL0     C46498   2.138   7.875   7.687  0.2963 -0.4130 -0.9038
  353MOL0     O46499   2.017   7.915   7.644 -0.1661 -0.1213 -0.0848
  353MOL0     C46500   1.924   7.812   7.601  0.5730 -0.3152 -0.8015
  353MOL0     C46501   1.802   7.859   7.511 -0.2097  1.2030 -0.2274
  353MOL0     C46502   1.853   7.886   7.362  0.2316  0.5835 -0.3567
  353MOL0     C46503   1.720   7.911   7.290 -0.8066  0.6179 -0.5735
  353MOL0     C46504   1.743   7.948   7.144  0.5519 -0.6030 -0.3033
  353MOL0     C46505   1.621   7.955   7.049  0.0626 -0.1168 -0.7505
  353MOL0     C46506   1.652   8.011   6.911 -0.0551 -0.2158 -0.5099
  353MOL0     C46507   1.672   8.164   6.917  0.1769  0.4139 -0.0211
  353MOL0    Cl46508   1.703   8.217   6.753 -0.0854 -0.7836  0.2355
  353MOL0     C46509   2.161   7.742   7.736 -0.5766  0.2345 -0.2019
  353MOL0     C46510   2.291   7.708   7.780  0.2933  0.5118  0.7978
  353MOL0     O46511   2.441   7.838   8.048  0.1321  0.5430 -0.4559
  353MOL0     C46512   2.769   7.768   7.930  0.6309  0.4778 -0.4474
  353MOL0     C46513   2.901   7.753   7.974  0.1282  0.3438  0.4740
  353MOL0     N46514   3.311   8.202   8.372  0.6217  0.1583  0.3449
  353MOL0     N46515   3.275   8.289   8.463 -0.3368 -0.9182 -0.2077
  353MOL0     C46516   3.273   7.988   9.487 -0.3039  0.2237  0.1431
  353MOL0     C46517   3.376   7.947   9.568  0.0804 -0.2897 -0.3357
  353MOL0     C46518   3.780   7.821   9.700 -0.2535 -0.0261  0.5079
  353MOL0     C46519   3.915   7.847   9.655 -0.2962  0.4689 -0.1749
  353MOL0     C46520   4.027   7.824   9.742  0.6884 -0.7090  0.0641
  353MOL0     C46521   4.013   7.757   9.861  0.2345 -0.3764 -0.7599
  353MOL0     O46522   4.115   7.756   9.959 -0.0392 -0.2095  0.2997
  353MOL0     C46523   4.097   7.851  10.064  0.2728 -1.0554  0.5488
  353MOL0     C46524   4.227   7.898  10.123 -0.2284 -0.0826 -0.1850
  353MOL0     C46525   4.336   7.945  10.014  0.5854  0.8851  0.5296
  353MOL0     C46526   4.458   8.012  10.074  0.4644  0.1948 -0.6612
  353MOL0     C46527   4.539   8.057   9.964 -0.5325 -0.4837 -0.1328
  353MOL0     C46528   4.616   8.079   9.873  0.1539 -0.1370 -0.1785
  353MOL0     C46529   3.881   7.722   9.900 -0.4462 -0.2183 -0.1882
  353MOL0     C46530   3.773   7.754   9.818  0.6672  0.3652  0.5074
  353MOL0     H46531   3.451   7.653   9.411 -0.7587 -0.3846  0.7371
  353MOL0     H46532   3.280   7.726   9.281  0.8802 -1.3169  1.2219
  353MOL0     H46533   3.070   7.801   9.195  0.0128 -0.5429 -2.5983
  353MOL0     H46534   3.215   7.880   9.126 -1.0129 -0.6493 -2.1674
  353MOL0     H46535   2.943   8.005   9.128  0.0650 -0.1663 -1.1246
  353MOL0     H46536   3.000   7.904   8.997 -0.8046  0.0674  0.8496
  353MOL0     H46537   3.192   8.067   8.966  0.0207 -2.6075  0.4269
  353MOL0     H46538   3.095   8.164   9.091 -2.7901  0.3276 -0.4371
  353MOL0     H46539   2.971   8.076   8.828  1.6451 -0.5475  0.0014
  353MOL0     H46540   2.914   8.195   8.943  0.4840 -2.0512  3.3902
  353MOL0     H46541   3.178   8.249   8.815  0.3781  1.2451 -2.2686
  353MOL0     H46542   3.084   8.360   8.899 -0.2065 -0.1842 -1.2265
  353MOL0     H46543   2.922   8.347   8.701  0.0983  1.4973  0.1167
  353MOL0     H46544   3.042   8.238   8.619 -0.0476 -1.3893  0.9525
  353MOL0     H46545   3.070   8.532   8.694  1.1118 -0.9166  1.4147
  353MOL0     H46546   3.211   8.427   8.671  0.1671 -2.7715 -0.1588
  353MOL0     H46547   3.103   8.555   8.467 -0.5807 -0.1665 -0.8155
  353MOL0     H46548   2.979   8.424   8.487  1.3460 -2.1429  0.9928
  353MOL0     H46549   3.042   8.334   8.244  0.6270  0.7780 -1.5188
  353MOL0     H46550   3.304   8.125   8.085 -0.7781 -1.0479 -2.7439
  353MOL0     H46551   3.136   8.163   8.087  0.1653  0.4967 -0.2240
  353MOL0     H46552   3.115   7.959   8.260  0.0878  1.4373 -0.5278
  353MOL0     H46553   3.280   7.931   8.252  0.6237  0.3586 -3.2246
  353MOL0     H46554   3.096   7.916   8.002 -1.7086 -1.6121  2.4813
  353MOL0     H46555   3.275   7.893   8.010 -0.5293  2.8489 -0.6275
  353MOL0     H46556   3.251   7.695   8.140 -0.5109  0.1129 -0.5565
  353MOL0     H46557   3.168   7.683   7.984  2.8143  0.0048 -0.7010
  353MOL0     H46558   2.827   7.770   8.312  0.9036  0.3206 -0.4372
  353MOL0     H46559   2.615   7.810   8.236  1.2484  2.7100 -1.0756
  353MOL0     H46560   2.442   8.018   7.738  1.6585 -1.9083 -1.6970
  353MOL0     H46561   2.219   8.078   7.675  2.2394  0.3818  0.9295
  353MOL0     H46562   1.876   7.768   7.689 -0.0386 -1.0391 -1.4853
  353MOL0     H46563   1.973   7.731   7.547  1.6626  0.4306 -0.9835
  353MOL0     H46564   1.772   7.952   7.559  0.0599  1.2112 -0.0751
  353MOL0     H46565   1.714   7.794   7.520  0.0169  0.8660 -0.4163
  353MOL0     H46566   1.904   7.793   7.334 -0.6832 -1.2222  3.3364
  353MOL0     H46567   1.921   7.971   7.359 -0.5610  1.2295 -0.2525
  353MOL0     H46568   1.659   7.822   7.304 -2.3395  2.0743  3.2774
  353MOL0     H46569   1.670   7.996   7.338 -0.4240  0.3129  0.3663
  353MOL0     H46570   1.804   7.873   7.093 -2.9670 -2.8126 -1.6794
  353MOL0     H46571   1.786   8.048   7.147 -1.7918  0.6106 -2.6484
  353MOL0     H46572   1.537   8.003   7.101 -0.3549 -0.8398 -0.7419
  353MOL0     H46573   1.594   7.851   7.029 -0.9059  0.2994 -1.6902
  353MOL0     H46574   1.746   7.963   6.883  0.6648  2.0466 -2.2708
  353MOL0     H46575   1.573   7.984   6.840  0.8264 -0.8044 -1.2914
  353MOL0     H46576   1.754   8.200   6.980  1.1509 -0.1468 -0.9317
  353MOL0     H46577   1.580   8.216   6.944  0.1581 -0.1929  1.1336
  353MOL0     H46578   2.088   7.662   7.731  1.1608 -1.3233 -2.6335
  353MOL0     H46579   2.324   7.605   7.784  0.9983  0.7174  0.6086
  353MOL0     H46580   2.743   7.780   7.825  0.3816  2.5100 -0.2050
  353MOL0     H46581   2.975   7.761   7.896 -2.4418  1.3760 -2.0219
  353MOL0     H46582   3.231   8.082   9.522 -0.0582 -0.0292  1.1779
  353MOL0     H46583   3.395   8.017   9.648 -0.7736  0.6237 -0.9105
  353MOL0     H46584   3.916   7.890   9.556 -0.7496  0.9817  0.0393
  353MOL0     H46585   4.124   7.866   9.714 -0.3518  1.4866 -0.4796
  353MOL0     H46586   4.042   7.806  10.146 -2.5070 -0.2110 -0.7289
  353MOL0     H46587   4.042   7.938  10.025  2.1103 -0.5372 -1.0446
  353MOL0     H46588   4.200   7.984  10.186 -1.5976 -1.2748  0.9123
  353MOL0     H46589   4.279   7.818  10.176  1.8105  2.1790  1.4284
  353MOL0     H46590   4.292   8.014   9.941  0.2795  0.4344  0.2854
  353MOL0     H46591   4.358   7.849   9.968 -2.8793 -0.5655  1.5550
  353MOL0     H46592   4.433   8.088  10.148  0.3029 -0.2863 -0.2162
  353MOL0     H46593   4.520   7.935  10.121  0.9798  1.0093  0.0088
  353MOL0     H46594   4.666   8.099   9.780 -0.2336  0.4017 -0.2781
  353MOL0     H46595   3.871   7.677   9.999  1.7760 -2.7812 -1.0102
  353MOL0     H46596   3.679   7.724   9.861  0.0963 -2.3085 -2.2898
  354MOL0     O46597   2.756   7.153   4.813  0.4434 -0.4250 -0.5806
  354MOL0     C46598   2.799   7.119   4.922 -0.1723 -0.2286  0.7492
  354MOL0     O46599   2.733   7.116   5.042 -0.3059  0.6364  0.1839
  354MOL0     C46600   2.593   7.142   5.057  1.0634 -0.3212 -0.1211
  354MOL0     C46601   2.554   7.121   5.190  0.3592  0.8421  0.1212
  354MOL0     C46602   2.429   7.164   5.231  0.4500  1.5004  0.2671
  354MOL0     C46603   2.339   7.214   5.140  0.0108  1.1494 -0.2287
  354MOL0     O46604   2.219   7.252   5.192  0.7057 -0.2570 -0.1820
  354MOL0     C46605   2.103   7.177   5.142  0.4079 -0.2837  0.2119
  354MOL0     C46606   1.964   7.200   5.205  0.3526  0.2451  0.3196
  354MOL0     C46607   1.887   7.068   5.194 -0.6413 -0.4470 -0.2486
  354MOL0     C46608   1.734   7.088   5.201 -0.0717  0.0463  0.1468
  354MOL0     C46609   1.703   7.147   5.335  0.5354 -0.2524 -1.0827
  354MOL0     C46610   1.772   7.100   5.466  0.8216  0.1717  0.3710
  354MOL0     C46611   1.750   7.197   5.582  0.0266  0.2439 -0.4680
  354MOL0     C46612   1.850   7.178   5.692 -0.4976 -0.4017 -0.0397
  354MOL0     N46613   1.979   7.234   5.667 -0.8129  0.5204 -0.0865
  354MOL0     C46614   2.003   7.345   5.592 -0.1695 -0.5457  0.0939
  354MOL0     C46615   2.136   7.353   5.564  0.3586 -0.6486 -0.4133
  354MOL0     C46616   2.208   7.466   5.486  0.1706  0.9619  0.0774
  354MOL0     C46617   2.156   7.605   5.526 -0.3638  0.2378 -0.7976
  354MOL0     C46618   2.141   7.641   5.670 -0.1511  0.1305 -0.1841
  354MOL0     C46619   2.123   7.798   5.693 -0.0144  1.0071  0.0607
  354MOL0     O46620   2.237   7.877   5.647 -0.4504  0.0125 -0.5418
  354MOL0     C46621   2.348   7.880   5.730  0.2507  0.4086  0.0535
  354MOL0     C46622   2.364   7.808   5.849  0.5291 -0.3132  0.0012
  354MOL0     C46623   2.481   7.818   5.924  0.2823  0.1734 -0.2702
  354MOL0     C46624   2.578   7.908   5.888 -0.8772 -0.3141  0.3124
  354MOL0     C46625   2.707   7.918   5.967  0.7247  0.1120  0.2680
  354MOL0     O46626   2.732   7.811   6.043  0.5955 -0.2672  0.7073
  354MOL0     C46627   2.849   7.808   6.109  0.1705 -0.6587  1.0005
  354MOL0     C46628   2.869   7.856   6.234 -0.3051 -0.3762 -0.1479
  354MOL0     C46629   3.000   7.861   6.292 -0.5884 -0.9245  0.0698
  354MOL0     C46630   3.116   7.826   6.223  0.5978  0.6143 -0.2024
  354MOL0     O46631   3.244   7.814   6.268  0.6264  0.1115 -0.7288
  354MOL0     C46632   3.295   7.921   6.345  0.0248  0.0669 -0.4193
  354MOL0     C46633   3.401   8.004   6.264 -0.9030 -0.4432  0.4217
  354MOL0     C46634   3.469   8.110   6.352 -0.2475  0.3724 -0.1307
  354MOL0     C46635   3.556   8.186   6.255 -0.3572 -1.0025  0.5405
  354MOL0     C46636   3.619   8.306   6.337  0.6933  0.0144  0.1629
  354MOL0     C46637   3.748   8.371   6.273  0.3754 -0.1191 -0.1404
  354MOL0     C46638   3.873   8.287   6.275 -0.6248 -0.2959 -0.5119
  354MOL0     C46639   3.992   8.369   6.243 -0.6180 -0.1869  0.3525
  354MOL0    Cl46640   4.074   8.474   6.366 -0.6929 -0.0817 -0.5122
  354MOL0     C46641   3.095   7.772   6.098  0.3688  0.0779  0.4692
  354MOL0     C46642   2.961   7.767   6.037 -0.3226 -0.5368  0.0132
  354MOL0     O46643   2.774   8.016   5.954 -0.4852 -0.0017  0.1318
  354MOL0     C46644   2.568   7.974   5.771  0.2020 -0.3767  1.3306
  354MOL0     C46645   2.455   7.960   5.689  0.4147  0.3547  0.3804
  354MOL0     N46646   2.190   7.233   5.622  0.5618  0.0407  0.0837
  354MOL0     N46647   2.097   7.169   5.687 -0.2343  0.2881 -0.1627
  354MOL0     C46648   2.371   7.225   5.001  0.4044 -0.4288 -0.4406
  354MOL0     C46649   2.504   7.195   4.969 -0.4075  0.3592  0.5567
  354MOL0     C46650   2.946   7.087   4.907 -0.3166 -0.1479 -0.2124
  354MOL0     C46651   3.003   7.003   5.000  0.4435 -0.4042  0.3536
  354MOL0     C46652   3.139   6.974   5.000  0.6440  0.0896  0.4580
  354MOL0     C46653   3.219   7.057   4.921  0.0708  0.1409 -0.0685
  354MOL0     O46654   3.350   7.044   4.954  0.3420  0.1120  0.4822
  354MOL0     C46655   3.429   7.157   4.917  0.6495  0.3172 -0.5902
  354MOL0     C46656   3.558   7.148   5.012  0.3931  0.3226 -0.4072
  354MOL0     C46657   3.651   7.027   4.999 -0.0352 -0.0574 -0.8559
  354MOL0     C46658   3.728   7.005   4.864 -0.0206  0.5019  0.7122
  354MOL0     C46659   3.800   7.126   4.826 -0.5039  0.2137 -0.3826
  354MOL0     C46660   3.847   7.232   4.797  0.1965  0.3467 -0.2090
  354MOL0     C46661   3.163   7.127   4.819 -0.7304 -0.7541  0.2076
  354MOL0     C46662   3.029   7.136   4.806  0.7099 -0.7300 -0.7994
  354MOL0     H46663   2.628   7.085   5.261  2.2267  0.2840 -2.0136
  354MOL0     H46664   2.398   7.151   5.335  1.9020  3.1233  0.9501
  354MOL0     H46665   2.122   7.072   5.167 -0.6949 -0.5916 -0.1761
  354MOL0     H46666   2.081   7.193   5.036 -1.9285  1.8565  0.9166
  354MOL0     H46667   1.910   7.274   5.145  3.2805  0.6728 -2.0145
  354MOL0     H46668   1.983   7.231   5.308  1.3946  3.6858 -0.7956
  354MOL0     H46669   1.929   6.992   5.261 -2.1409 -1.8362 -0.8309
  354MOL0     H46670   1.904   7.023   5.096  1.5451  0.0159 -0.1336
  354MOL0     H46671   1.700   7.159   5.125 -2.5111 -1.0580  0.1045
  354MOL0     H46672   1.676   6.997   5.184 -1.5820  1.4401 -2.9237
  354MOL0     H46673   1.598   7.123   5.354  0.1597  1.3508 -0.9723
  354MOL0     H46674   1.714   7.255   5.319 -2.9130  0.0135 -2.4351
  354MOL0     H46675   1.881   7.094   5.462  0.8442  0.8729 -0.2590
  354MOL0     H46676   1.731   7.001   5.488 -2.4496  0.7412 -2.2560
  354MOL0     H46677   1.744   7.295   5.534  1.9134  1.4157  1.5211
  354MOL0     H46678   1.653   7.174   5.626 -0.9803 -0.2588 -2.7755
  354MOL0     H46679   1.868   7.071   5.700 -0.6278 -0.8545 -3.8626
  354MOL0     H46680   1.813   7.221   5.786 -0.8976 -3.0166  1.0903
  354MOL0     H46681   1.926   7.414   5.558 -0.4530 -0.3390  1.1108
  354MOL0     H46682   2.189   7.449   5.380 -1.5342  1.5206  0.2591
  354MOL0     H46683   2.314   7.453   5.511 -0.4970 -0.8790  2.3915
  354MOL0     H46684   2.053   7.611   5.489 -1.3178  1.2033  1.8317
  354MOL0     H46685   2.210   7.689   5.479 -0.1671  0.0534 -0.9041
  354MOL0     H46686   2.059   7.587   5.717 -0.2546  0.3316 -0.1359
  354MOL0     H46687   2.224   7.600   5.730  2.0055  2.0473 -1.6714
  354MOL0     H46688   2.112   7.805   5.801 -1.2689 -0.2628  0.0474
  354MOL0     H46689   2.032   7.830   5.640  0.1369 -1.7183 -2.1124
  354MOL0     H46690   2.291   7.746   5.902 -2.4725  0.3551 -2.9683
  354MOL0     H46691   2.470   7.761   6.016  1.0573 -1.5673 -1.1938
  354MOL0     H46692   2.785   7.887   6.295  0.9487 -2.0151  2.6069
  354MOL0     H46693   3.007   7.885   6.397  0.0786 -2.2404  0.3471
  354MOL0     H46694   3.348   7.889   6.435  0.6153 -1.2085 -1.2001
  354MOL0     H46695   3.211   7.983   6.379 -1.8697 -2.8938  0.6981
  354MOL0     H46696   3.349   8.056   6.183 -0.2774 -0.3128  0.1003
  354MOL0     H46697   3.482   7.939   6.230 -0.0939 -1.1947  3.4264
  354MOL0     H46698   3.524   8.059   6.432  0.2192  0.7579 -0.2032
  354MOL0     H46699   3.394   8.178   6.394 -1.9005 -1.6242  0.3321
  354MOL0     H46700   3.633   8.121   6.214  0.6999  1.9903 -2.7386
  354MOL0     H46701   3.512   8.231   6.165  1.3333 -0.4730 -0.0652
  354MOL0     H46702   3.639   8.259   6.433  0.6391 -0.7367 -0.1904
  354MOL0     H46703   3.540   8.380   6.355 -0.5171 -0.9230 -1.0133
  354MOL0     H46704   3.762   8.461   6.332  1.4662 -1.3369  1.5700
  354MOL0     H46705   3.717   8.392   6.170 -0.1210  1.4186  0.2989
  354MOL0     H46706   3.890   8.238   6.371 -1.7795  0.7920  0.2823
  354MOL0     H46707   3.871   8.204   6.204  1.4016 -0.4226 -0.4724
  354MOL0     H46708   3.967   8.447   6.171 -1.5508  1.0466  1.9195
  354MOL0     H46709   4.068   8.302   6.202 -0.4542 -0.4154  1.0089
  354MOL0     H46710   3.166   7.724   6.032 -1.6525 -2.7867  0.1460
  354MOL0     H46711   2.952   7.744   5.931 -4.4361 -2.0426  0.4940
  354MOL0     H46712   2.654   8.025   5.729 -1.8683 -0.3457 -3.4388
  354MOL0     H46713   2.436   8.014   5.597 -0.6980  0.4824  0.6644
  354MOL0     H46714   2.304   7.271   4.929 -1.6501  1.2320  2.3392
  354MOL0     H46715   2.532   7.211   4.865  0.7534  1.4810  1.0098
  354MOL0     H46716   2.937   6.967   5.077 -2.5489 -0.7982 -2.2039
  354MOL0     H46717   3.181   6.914   5.080  1.9583  0.8511  0.3706
  354MOL0     H46718   3.378   7.251   4.938  1.1934  0.4954 -0.0075
  354MOL0     H46719   3.464   7.166   4.814  3.9221  3.8426  0.5612
  354MOL0     H46720   3.618   7.239   5.003  0.6227  0.2438  0.2638
  354MOL0     H46721   3.517   7.148   5.114 -0.4952 -0.1025 -0.7467
  354MOL0     H46722   3.577   6.949   5.022 -2.8516  2.8422  0.7947
  354MOL0     H46723   3.731   7.029   5.073  1.1073  0.8805 -2.0546
  354MOL0     H46724   3.797   6.922   4.881 -1.3292 -0.5580  1.0590
  354MOL0     H46725   3.644   6.981   4.799 -0.3094  0.5512  1.0624
  354MOL0     H46726   3.872   7.335   4.785 -0.5658  0.4921 -0.6061
  354MOL0     H46727   3.227   7.179   4.748 -1.1728  0.6268  0.7784
  354MOL0     H46728   2.987   7.193   4.724  1.3342  2.6585  1.0444
  355MOL0     O46729   1.515   4.725   0.541 -0.0208  0.0853 -0.1094
  355MOL0     C46730   1.519   4.702   0.663 -0.2860  0.7061 -0.4137
  355MOL0     O46731   1.407   4.674   0.740 -0.2936 -0.3543 -0.1651
  355MOL0     C46732   1.271   4.674   0.706 -0.1008  0.6541  0.6655
  355MOL0     C46733   1.200   4.584   0.774  0.1934  0.4183 -0.1979
  355MOL0     C46734   1.069   4.565   0.743  1.0932  0.6022  0.3823
  355MOL0     C46735   1.004   4.636   0.637 -0.6566 -0.4326  0.0957
  355MOL0     O46736   0.877   4.615   0.587  0.0196 -0.0869  0.4952
  355MOL0     C46737   0.770   4.598   0.679 -0.3987  0.5103 -0.0336
  355MOL0     C46738   0.640   4.669   0.645 -0.2304 -0.5695 -1.0348
  355MOL0     C46739   0.534   4.652   0.753  0.1029 -0.5156  0.9176
  355MOL0     C46740   0.408   4.742   0.714  0.3831  0.4575 -1.1078
  355MOL0     C46741   0.337   4.710   0.584  0.1837 -1.3430 -0.4673
  355MOL0     C46742   0.278   4.570   0.579 -0.2795 -0.2007 -0.7634
  355MOL0     C46743   0.137   4.565   0.647 -0.4258  1.2635 -0.8376
  355MOL0     C46744   0.048   4.448   0.590  0.0286  0.4473 -0.6846
  355MOL0     N46745  -0.088   4.451   0.642 -0.5604  0.3685  0.4662
  355MOL0     C46746  -0.198   4.523   0.592  0.8969 -1.2102  0.0987
  355MOL0     C46747  -0.310   4.492   0.656  0.6593  0.2263 -0.5457
  355MOL0     C46748  -0.455   4.539   0.625  0.4200  0.1857  1.2878
  355MOL0     C46749  -0.489   4.685   0.659  0.2905  0.1508 -0.3212
  355MOL0     C46750  -0.634   4.702   0.700 -0.0389  0.1287  0.4145
  355MOL0     C46751  -0.723   4.669   0.571 -0.0652 -0.0674 -0.1769
  355MOL0     O46752  -0.679   4.770   0.479 -0.0227 -0.0851  1.0670
  355MOL0     C46753  -0.797   4.826   0.441  0.1378  0.4079  0.9245
  355MOL0     C46754  -0.881   4.763   0.342 -0.2421 -0.5502  0.3624
  355MOL0     C46755  -1.003   4.823   0.307 -0.0795  0.9998  0.0010
  355MOL0     C46756  -1.047   4.928   0.382  0.7862 -0.0458  0.5908
  355MOL0     C46757  -1.194   4.976   0.363  0.1623 -0.0434 -0.0868
  355MOL0     O46758  -1.256   5.030   0.475 -0.2397 -0.0182 -0.5072
  355MOL0     C46759  -1.395   5.040   0.474  1.1621  0.7509  0.0270
  355MOL0     C46760  -1.483   4.935   0.442  0.3442  0.2464  0.3589
  355MOL0     C46761  -1.625   4.941   0.451  0.5404  0.0872 -0.5341
  355MOL0     C46762  -1.683   5.050   0.516 -0.5981 -0.9152  0.3933
  355MOL0     O46763  -1.816   5.041   0.542  0.0319  0.3300  0.1256
  355MOL0     C46764  -1.880   5.152   0.602 -0.5287 -0.5965 -0.2290
  355MOL0     C46765  -1.875   5.150   0.752  0.2289 -0.6079  0.2777
  355MOL0     C46766  -1.969   5.260   0.811 -0.0033  0.4930 -0.1316
  355MOL0     C46767  -1.970   5.242   0.964  0.5001  0.2473 -0.7445
  355MOL0     C46768  -2.039   5.370   1.011 -0.5857  0.4037 -0.3295
  355MOL0     C46769  -2.031   5.383   1.166 -0.7055  0.4335  0.1693
  355MOL0     C46770  -2.093   5.513   1.227 -0.4608  0.2772  0.2293
  355MOL0     C46771  -2.020   5.640   1.178  0.3662 -0.5133 -0.0280
  355MOL0    Cl46772  -1.836   5.630   1.202 -0.0975  0.0183 -0.2193
  355MOL0     C46773  -1.597   5.161   0.547 -0.2668  0.7595 -0.3194
  355MOL0     C46774  -1.458   5.143   0.544  0.2426 -0.4540  1.0764
  355MOL0     O46775  -1.242   4.979   0.252 -0.0641  0.1298  0.5698
  355MOL0     C46776  -0.962   4.993   0.467  0.5694  0.0298  0.2831
  355MOL0     C46777  -0.836   4.945   0.492 -0.7844 -0.2901 -0.3005
  355MOL0     N46778  -0.264   4.389   0.741 -0.1416  0.3378  0.9049
  355MOL0     N46779  -0.136   4.372   0.742  0.1727 -0.6943  0.4281
  355MOL0     C46780   1.080   4.734   0.576 -0.4315 -0.0453 -0.1455
  355MOL0     C46781   1.211   4.763   0.614  0.1530 -0.2151 -0.7961
  355MOL0     C46782   1.656   4.701   0.725 -0.1826 -0.0230  0.0750
  355MOL0     C46783   1.775   4.720   0.657 -0.3623  0.7575  0.1083
  355MOL0     C46784   1.897   4.721   0.722 -0.4798  0.0757  0.4313
  355MOL0     C46785   1.914   4.714   0.862  0.5144  1.0240  0.8827
  355MOL0     O46786   2.037   4.725   0.919 -0.1874 -0.1418  0.3649
  355MOL0     C46787   2.059   4.669   1.050  0.3962  0.0749  0.1101
  355MOL0     C46788   2.215   4.641   1.055  0.6637  0.3691  0.4256
  355MOL0     C46789   2.269   4.540   0.946  0.5196  0.6449 -0.6888
  355MOL0     C46790   2.415   4.500   0.978 -0.6803  0.3329  0.3549
  355MOL0     C46791   2.501   4.503   0.860 -0.0781 -0.4453 -0.3161
  355MOL0     C46792   2.591   4.488   0.784  0.0035 -0.4436  0.3320
  355MOL0     C46793   1.793   4.707   0.935  1.0520 -0.4591 -0.1778
  355MOL0     C46794   1.669   4.706   0.864 -0.0419  0.1833 -0.7648
  355MOL0     H46795   1.243   4.529   0.857 -1.7024 -1.4596 -0.3453
  355MOL0     H46796   1.007   4.492   0.795  0.7809  0.2365 -0.4945
  355MOL0     H46797   0.800   4.629   0.779  1.6819 -1.9362  0.1898
  355MOL0     H46798   0.749   4.491   0.682 -0.3986  0.5171  0.1821
  355MOL0     H46799   0.617   4.626   0.547  2.1646  1.4235 -2.5954
  355MOL0     H46800   0.650   4.775   0.619 -1.6179 -1.0428 -3.8564
  355MOL0     H46801   0.573   4.686   0.849 -0.7390  0.4511  0.9361
  355MOL0     H46802   0.488   4.554   0.768 -2.5330  0.9660  3.6559
  355MOL0     H46803   0.336   4.736   0.796 -0.8749 -0.0095 -2.2086
  355MOL0     H46804   0.438   4.847   0.717  0.3265  0.4771  1.3998
  355MOL0     H46805   0.404   4.721   0.498 -0.2482  1.4548 -0.5701
  355MOL0     H46806   0.257   4.783   0.568 -0.7803 -2.1399  0.6252
  355MOL0     H46807   0.343   4.489   0.612  2.3499  0.9392 -2.7567
  355MOL0     H46808   0.262   4.547   0.473 -2.0434 -0.8912 -0.3782
  355MOL0     H46809   0.141   4.557   0.756 -0.1851  1.5471 -0.8256
  355MOL0     H46810   0.075   4.651   0.625 -0.0061  2.6579  2.7113
  355MOL0     H46811   0.093   4.357   0.631  1.2294 -0.0271 -2.8813
  355MOL0     H46812   0.045   4.434   0.481  0.2928 -2.4876 -0.3923
  355MOL0     H46813  -0.192   4.587   0.504  0.1827  1.2415  1.7156
  355MOL0     H46814  -0.521   4.476   0.686 -1.4891  1.6812  0.8650
  355MOL0     H46815  -0.474   4.520   0.519 -0.0603  4.7995  0.3511
  355MOL0     H46816  -0.474   4.755   0.576 -0.5163 -0.2146 -0.7972
  355MOL0     H46817  -0.436   4.724   0.746 -1.8448  1.4821  0.4696
  355MOL0     H46818  -0.653   4.630   0.780  2.4560 -2.4628 -1.1059
  355MOL0     H46819  -0.654   4.803   0.737 -3.4604 -0.0317 -0.6765
  355MOL0     H46820  -0.828   4.668   0.601  0.3377  0.5074  1.3407
  355MOL0     H46821  -0.700   4.569   0.533  2.5292  0.1889  0.5450
  355MOL0     H46822  -0.865   4.665   0.297 -1.1311 -0.6958  0.3508
  355MOL0     H46823  -1.061   4.775   0.228 -0.4864 -0.3417  1.0786
  355MOL0     H46824  -1.441   4.846   0.396 -2.1491  0.0066 -1.7282
  355MOL0     H46825  -1.687   4.856   0.425 -0.4930  1.0607 -1.3661
  355MOL0     H46826  -1.986   5.151   0.574 -0.7385  2.3895  0.0855
  355MOL0     H46827  -1.846   5.247   0.559  0.1163 -0.6683  0.1080
  355MOL0     H46828  -1.772   5.154   0.789  0.7913  0.4386 -1.2780
  355MOL0     H46829  -1.911   5.054   0.790  2.5300 -2.7191 -2.4271
  355MOL0     H46830  -2.069   5.241   0.770  0.7788 -1.7897 -1.1575
  355MOL0     H46831  -1.936   5.362   0.788 -0.7361  0.5603 -0.9679
  355MOL0     H46832  -2.025   5.150   0.981  0.7382 -0.0146 -1.3472
  355MOL0     H46833  -1.868   5.245   1.002  0.9587 -0.5464 -1.8661
  355MOL0     H46834  -2.143   5.380   0.978 -0.2937 -0.9536 -1.8196
  355MOL0     H46835  -1.984   5.457   0.974  3.0227 -1.4818  0.2068
  355MOL0     H46836  -1.924   5.383   1.191  0.7761 -1.1197 -4.9583
  355MOL0     H46837  -2.086   5.301   1.213  0.9250 -1.1576 -0.5740
  355MOL0     H46838  -2.198   5.518   1.196 -0.1746 -0.1908 -0.8760
  355MOL0     H46839  -2.083   5.507   1.336  3.2150 -1.7826 -0.0439
  355MOL0     H46840  -2.068   5.725   1.227  0.4510 -0.6910  0.3642
  355MOL0     H46841  -2.036   5.649   1.070  0.6027  0.4132  0.0124
  355MOL0     H46842  -1.633   5.252   0.595 -2.9211 -2.1061  3.8387
  355MOL0     H46843  -1.402   5.225   0.589  0.3104 -0.7976  1.6321
  355MOL0     H46844  -1.004   5.087   0.503  0.2366  0.2673 -0.7114
  355MOL0     H46845  -0.780   5.006   0.562  1.0864 -2.2687  0.0246
  355MOL0     H46846   1.037   4.790   0.495 -1.1525 -0.2286  0.1077
  355MOL0     H46847   1.270   4.844   0.573  0.9611 -0.8886 -0.9885
  355MOL0     H46848   1.760   4.716   0.550  1.4232 -0.7131 -0.1295
  355MOL0     H46849   1.971   4.754   0.649 -2.4889  0.7479 -1.3921
  355MOL0     H46850   2.007   4.573   1.061 -0.0744 -0.0473 -2.5056
  355MOL0     H46851   2.036   4.745   1.124  2.3992 -0.3441  1.2411
  355MOL0     H46852   2.274   4.734   1.052  2.1053 -0.5279 -0.4759
  355MOL0     H46853   2.238   4.592   1.151 -1.7247  0.3243  1.0325
  355MOL0     H46854   2.267   4.586   0.847  1.1969  0.9864 -0.5480
  355MOL0     H46855   2.209   4.448   0.951 -1.7327  1.9525  5.6244
  355MOL0     H46856   2.450   4.577   1.047  0.4259  1.4439 -1.3748
  355MOL0     H46857   2.422   4.399   1.021 -1.7529 -0.1319 -0.5017
  355MOL0     H46858   2.671   4.474   0.713 -0.6756  0.4969 -0.6540
  355MOL0     H46859   1.794   4.718   1.043 -2.0263  1.6925 -0.2320
  355MOL0     H46860   1.579   4.691   0.923  1.0820  1.9662  1.5330
  356MOL0     O46861   4.721   7.796   8.239  0.2493  0.1333  0.0745
  356MOL0     C46862   4.687   7.731   8.333 -0.1360  0.6987 -0.8748
  356MOL0     O46863   4.728   7.751   8.459  0.1816 -0.1572  0.2247
  356MOL0     C46864   4.829   7.845   8.488  1.0209 -0.2814  0.2163
  356MOL0     C46865   4.826   7.892   8.614  0.0396 -0.2897 -0.8551
  356MOL0     C46866   4.911   7.988   8.662 -0.0670 -0.5873 -0.6764
  356MOL0     C46867   5.021   8.031   8.580  0.7883 -0.9383 -0.5986
  356MOL0     O46868   5.119   8.110   8.642 -0.8176 -0.3166 -0.2484
  356MOL0     C46869   5.234   8.140   8.561  0.4577  0.9325 -0.8345
  356MOL0     C46870   5.332   8.226   8.638 -0.3815  0.0772 -1.0265
  356MOL0     C46871   5.461   8.255   8.561 -0.6404 -0.3292  0.3028
  356MOL0     C46872   5.564   8.311   8.659 -0.2470  0.2308 -0.8455
  356MOL0     C46873   5.547   8.469   8.688  0.1564  0.4068 -0.4483
  356MOL0     C46874   5.632   8.516   8.802  0.4799  0.1105  1.1884
  356MOL0     C46875   5.562   8.589   8.914  0.1603 -0.2112  0.3856
  356MOL0     C46876   5.657   8.646   9.025 -0.5868 -0.4161  0.3785
  356MOL0     N46877   5.571   8.724   9.113  0.1150 -1.4173 -0.9420
  356MOL0     C46878   5.538   8.861   9.104 -0.4259  0.5605 -0.4305
  356MOL0     C46879   5.470   8.891   9.220 -0.5464  0.9539 -0.5345
  356MOL0     C46880   5.427   9.022   9.257  0.4291  0.6805 -0.4956
  356MOL0     C46881   5.315   9.089   9.169 -0.1783  0.2792 -0.1951
  356MOL0     C46882   5.171   9.024   9.162 -0.0527 -0.0963  0.2732
  356MOL0     C46883   5.077   9.101   9.070  0.1025 -0.0208 -0.6092
  356MOL0     O46884   4.946   9.037   9.081  0.2265  0.7013  0.3857
  356MOL0     C46885   4.830   9.107   9.070  0.5339 -0.8854 -0.0581
  356MOL0     C46886   4.823   9.239   9.029  0.1085 -0.3612  0.3544
  356MOL0     C46887   4.710   9.295   8.992  0.1953 -0.3133  0.1938
  356MOL0     C46888   4.587   9.232   9.017  0.2180  0.9016  0.0177
  356MOL0     C46889   4.463   9.286   8.973  0.0290  0.7059  0.4871
  356MOL0     O46890   4.350   9.211   8.983  0.0956  0.2732  0.3468
  356MOL0     C46891   4.238   9.237   8.901  0.3554 -0.0975  0.0978
  356MOL0     C46892   4.240   9.288   8.770  0.5583  1.1404 -0.0320
  356MOL0     C46893   4.117   9.306   8.706  0.6967  0.1951 -0.5753
  356MOL0     C46894   3.997   9.260   8.752  0.3181 -0.9230  1.0043
  356MOL0     O46895   3.880   9.249   8.678  0.8880  0.2308  0.2437
  356MOL0     C46896   3.876   9.288   8.536  0.2686 -0.4092  0.4951
  356MOL0     C46897   3.740   9.265   8.467  0.1747  0.4163  0.4169
  356MOL0     C46898   3.755   9.291   8.314  0.4132 -0.6825 -0.0510
  356MOL0     C46899   3.737   9.437   8.265 -0.0151 -0.6998 -0.2595
  356MOL0     C46900   3.595   9.488   8.304  0.8088  0.2824 -0.0127
  356MOL0     C46901   3.571   9.628   8.236  0.0018  0.3268  0.2738
  356MOL0     C46902   3.414   9.666   8.236 -0.3521 -0.2690  0.1920
  356MOL0     C46903   3.339   9.564   8.155  0.9391 -0.0236 -0.2369
  356MOL0    Cl46904   3.167   9.628   8.132 -0.5381  0.5147  0.0714
  356MOL0     C46905   4.000   9.206   8.877 -0.0046  0.2053  0.2414
  356MOL0     C46906   4.111   9.198   8.956 -0.8820  0.8455 -0.4410
  356MOL0     O46907   4.471   9.398   8.920 -0.1990  0.4275  0.0912
  356MOL0     C46908   4.589   9.104   9.076 -0.1952 -0.6699  0.3490
  356MOL0     C46909   4.707   9.043   9.109 -0.1493 -0.2848 -0.1708
  356MOL0     N46910   5.465   8.775   9.296  0.0888  0.4784 -0.5447
  356MOL0     N46911   5.533   8.680   9.232  1.2622 -0.1064 -0.2677
  356MOL0     C46912   5.035   7.976   8.452  0.7127  0.3226  0.8147
  356MOL0     C46913   4.931   7.886   8.408 -0.2736 -0.1689  0.1649
  356MOL0     C46914   4.580   7.632   8.317  0.0127 -0.3467  0.8248
  356MOL0     C46915   4.541   7.587   8.187 -0.5087  0.0241  0.0878
  356MOL0     C46916   4.434   7.505   8.169  0.3296  0.6814  0.8497
  356MOL0     C46917   4.357   7.469   8.276 -0.1430  0.1164 -0.9698
  356MOL0     O46918   4.242   7.397   8.249 -1.0289 -0.3037  0.1877
  356MOL0     C46919   4.123   7.392   8.331 -0.2699 -0.3378  0.7582
  356MOL0     C46920   3.987   7.444   8.264 -0.0109 -0.1776  0.0270
  356MOL0     C46921   3.858   7.417   8.340  0.6520 -0.3689 -0.5827
  356MOL0     C46922   3.745   7.499   8.279  0.7308 -0.5657  0.7798
  356MOL0     C46923   3.679   7.410   8.178  0.2491 -0.1805 -0.0388
  356MOL0     C46924   3.633   7.337   8.094  0.1123 -0.7739  0.6246
  356MOL0     C46925   4.401   7.498   8.406  0.3201  0.1618  0.2598
  356MOL0     C46926   4.506   7.587   8.428  0.3844 -0.2496 -0.0096
  356MOL0     H46927   4.756   7.874   8.695  0.0581  1.1164 -0.4882
  356MOL0     H46928   4.895   8.024   8.763 -1.8430  0.7642 -1.3920
  356MOL0     H46929   5.193   8.190   8.472  1.5301  0.2315 -1.7527
  356MOL0     H46930   5.281   8.045   8.533 -0.2695  0.3454 -0.0675
  356MOL0     H46931   5.360   8.176   8.731 -1.8649  2.5139  0.8742
  356MOL0     H46932   5.288   8.319   8.674 -0.4726 -0.0266 -0.8699
  356MOL0     H46933   5.455   8.317   8.472 -0.3664 -1.8280 -0.8097
  356MOL0     H46934   5.504   8.160   8.528  0.2558  0.4522 -0.8180
  356MOL0     H46935   5.549   8.262   8.755 -2.4754  2.7543  0.2106
  356MOL0     H46936   5.667   8.290   8.628 -0.2085 -2.1209  0.6479
  356MOL0     H46937   5.440   8.486   8.707  0.1534  2.6784 -2.1173
  356MOL0     H46938   5.571   8.506   8.588 -1.6635 -0.1206 -1.1254
  356MOL0     H46939   5.705   8.586   8.763 -0.6187  0.7869  0.2743
  356MOL0     H46940   5.681   8.432   8.853  0.3911 -0.5482  0.2304
  356MOL0     H46941   5.514   8.676   8.867 -1.6343 -1.4924 -0.2794
  356MOL0     H46942   5.483   8.519   8.943  0.2582 -0.8474 -0.8146
  356MOL0     H46943   5.725   8.717   8.975 -0.5097 -1.2288 -0.7242
  356MOL0     H46944   5.716   8.569   9.077  1.0736  1.0418  0.7609
  356MOL0     H46945   5.560   8.935   9.028 -2.9177  0.5984 -1.2107
  356MOL0     H46946   5.520   9.079   9.250  1.0705 -0.5306 -2.5474
  356MOL0     H46947   5.406   9.030   9.364  2.2686  2.0675 -0.1895
  356MOL0     H46948   5.362   9.087   9.070  2.6147 -0.2941  1.0314
  356MOL0     H46949   5.294   9.193   9.195 -0.0938 -0.0452  1.2736
  356MOL0     H46950   5.187   8.925   9.119  1.6599 -0.1672  0.9697
  356MOL0     H46951   5.132   9.023   9.264  0.1729 -0.8649  0.3583
  356MOL0     H46952   5.113   9.104   8.967 -1.2065 -0.0416 -1.0785
  356MOL0     H46953   5.085   9.205   9.101  1.7554  0.3876 -2.2021
  356MOL0     H46954   4.912   9.295   9.002  0.7247 -2.8125 -3.3958
  356MOL0     H46955   4.710   9.390   8.940  0.1076 -1.7162 -2.5514
  356MOL0     H46956   4.331   9.337   8.736  2.9258 -3.4399 -1.2045
  356MOL0     H46957   4.131   9.368   8.618  1.0897  2.8597  1.2678
  356MOL0     H46958   3.944   9.216   8.491  0.6448 -0.1100  0.5826
  356MOL0     H46959   3.911   9.389   8.515 -1.2731 -0.3926 -2.4281
  356MOL0     H46960   3.660   9.322   8.516  0.6619 -0.2608  2.0376
  356MOL0     H46961   3.711   9.162   8.488 -0.7568  0.7689  0.9362
  356MOL0     H46962   3.675   9.227   8.277 -0.3718  0.4341 -0.3121
  356MOL0     H46963   3.847   9.244   8.278 -0.1210 -2.0078  0.2673
  356MOL0     H46964   3.816   9.499   8.309  1.5925 -0.8397 -2.6947
  356MOL0     H46965   3.742   9.446   8.156 -1.3833  2.0470 -0.1855
  356MOL0     H46966   3.580   9.498   8.412  0.7227  0.3481 -0.0305
  356MOL0     H46967   3.527   9.408   8.272  3.1068 -2.2599  1.0691
  356MOL0     H46968   3.603   9.620   8.132 -3.6587 -0.4864 -0.9034
  356MOL0     H46969   3.626   9.710   8.284 -0.6164  0.2430  1.1352
  356MOL0     H46970   3.377   9.653   8.338  2.5661 -0.6064  1.3150
  356MOL0     H46971   3.399   9.768   8.197 -1.3717 -1.2063 -2.0510
  356MOL0     H46972   3.329   9.472   8.214 -1.0959  0.0817 -0.3375
  356MOL0     H46973   3.393   9.548   8.062  1.0206 -0.3357 -0.1362
  356MOL0     H46974   3.903   9.179   8.918 -0.0210  1.0874  0.7971
  356MOL0     H46975   4.102   9.156   9.055 -1.1057  0.0128 -0.8078
  356MOL0     H46976   4.493   9.052   9.080  0.1479 -1.2321  2.3960
  356MOL0     H46977   4.715   8.944   9.154  2.2557  1.0347  2.6259
  356MOL0     H46978   5.123   7.996   8.392  1.0359  0.6964  1.4067
  356MOL0     H46979   4.927   7.841   8.310 -1.0036 -2.3984  1.1486
  356MOL0     H46980   4.592   7.621   8.098 -0.2216 -2.3480 -0.7278
  356MOL0     H46981   4.409   7.460   8.074 -0.6582  0.7684  1.0589
  356MOL0     H46982   4.134   7.434   8.432 -0.7330  0.1858  0.5963
  356MOL0     H46983   4.100   7.287   8.353 -0.0821 -1.0724 -2.1951
  356MOL0     H46984   3.997   7.550   8.237  0.6350  0.5616  2.8225
  356MOL0     H46985   3.970   7.405   8.163 -3.0666  0.7376  0.0703
  356MOL0     H46986   3.875   7.454   8.442  0.4010  0.2186 -0.7504
  356MOL0     H46987   3.832   7.312   8.325 -0.6781 -0.3975  1.5203
  356MOL0     H46988   3.657   7.509   8.342  1.2210  1.5489  1.1804
  356MOL0     H46989   3.777   7.592   8.232 -3.1581  1.0722  0.9874
  356MOL0     H46990   3.603   7.268   8.017 -0.2751  0.4520 -0.3560
  356MOL0     H46991   4.336   7.479   8.491 -1.3456  0.6067 -0.8543
  356MOL0     H46992   4.533   7.612   8.530  1.6209 -3.0699  0.4644
  357MOL0     O46993  11.191   6.383   0.024 -0.6542 -0.6406  0.1054
  357MOL0     C46994  11.218   6.358   0.143 -0.6402 -0.0770  0.1910
  357MOL0     O46995  11.128   6.353   0.257 -0.2448  0.3643  0.5775
  357MOL0     C46996  10.997   6.397   0.257 -0.0944  0.1912 -0.2013
  357MOL0     C46997  10.924   6.468   0.155 -0.9148  0.7735 -0.1781
  357MOL0     C46998  10.790   6.507   0.165  0.0150  0.4472  0.1270
  357MOL0     C46999  10.717   6.470   0.276  0.9832  1.1058 -0.0862
  357MOL0     O47000  10.580   6.494   0.276  0.1242 -0.8039 -0.3446
  357MOL0     C47001  10.499   6.476   0.398  0.0377 -0.0809  0.5916
  357MOL0     C47002  10.357   6.504   0.361 -0.0635  0.2846 -0.7472
  357MOL0     C47003  10.265   6.543   0.481 -0.5169 -0.2119  0.4857
  357MOL0     C47004  10.136   6.604   0.433  0.3652  0.2916  0.3622
  357MOL0     C47005  10.030   6.586   0.542 -0.0322  0.5094 -0.1784
  357MOL0     C47006   9.943   6.453   0.534 -0.1421 -0.4638  0.2420
  357MOL0     C47007   9.847   6.458   0.653 -0.8113  0.7927  0.0050
  357MOL0     C47008   9.759   6.335   0.657  0.3251 -0.0473 -0.2137
  357MOL0     N47009   9.808   6.236   0.748  0.1676  0.1712 -0.1118
  357MOL0     C47010   9.779   6.215   0.884 -0.0879 -0.4987  0.3680
  357MOL0     C47011   9.865   6.118   0.930  0.3414  0.1289 -0.0883
  357MOL0     C47012   9.864   6.076   1.075  0.3792 -0.6061  0.3056
  357MOL0     C47013   9.775   5.956   1.106 -0.0489  0.6801 -0.5604
  357MOL0     C47014   9.813   5.894   1.243  0.5509 -0.9074 -0.2587
  357MOL0     C47015   9.789   5.971   1.382  0.0915  0.5013  0.9037
  357MOL0     O47016   9.674   6.052   1.390  0.1635  0.4985  0.2178
  357MOL0     C47017   9.552   6.008   1.444  0.5179  0.8686  1.1606
  357MOL0     C47018   9.530   5.879   1.495 -0.0463  0.0396  0.5895
  357MOL0     C47019   9.399   5.831   1.518  0.2125  0.2792  0.2020
  357MOL0     C47020   9.285   5.909   1.482 -0.8551 -0.0345  0.0305
  357MOL0     C47021   9.150   5.855   1.495  0.9892  0.6886  0.5609
  357MOL0     O47022   9.113   5.775   1.599  0.1700  0.2068  0.2431
  357MOL0     C47023   8.992   5.708   1.588 -0.7277  0.3172 -0.0423
  357MOL0     C47024   8.876   5.772   1.608  0.1664  0.2699 -0.6333
  357MOL0     C47025   8.749   5.707   1.588 -1.0167  0.1869 -1.1583
  357MOL0     C47026   8.748   5.574   1.543  0.5085  0.2660 -0.2469
  357MOL0     O47027   8.629   5.512   1.509 -0.2292 -0.7467  0.4061
  357MOL0     C47028   8.629   5.423   1.387  0.1695 -0.2299  0.1759
  357MOL0     C47029   8.597   5.517   1.273 -0.1868  0.5253  0.5610
  357MOL0     C47030   8.629   5.455   1.145 -0.2772  0.5951  0.2111
  357MOL0     C47031   8.541   5.333   1.112  0.1696 -0.2637  0.8940
  357MOL0     C47032   8.558   5.292   0.964  0.2295  0.1945 -0.1289
  357MOL0     C47033   8.461   5.176   0.942 -0.2326 -0.1916  0.2638
  357MOL0     C47034   8.463   5.140   0.787  0.0225  0.3070 -1.4577
  357MOL0     C47035   8.337   5.060   0.743  1.1689  0.1765 -0.1935
  357MOL0    Cl47036   8.371   5.019   0.571 -0.1948 -0.3137  0.3635
  357MOL0     C47037   8.868   5.501   1.535  0.2740  0.7551  0.8334
  357MOL0     C47038   8.987   5.570   1.558 -0.0129  0.8964  0.8203
  357MOL0     O47039   9.072   5.908   1.417  0.3942  0.0615  0.6137
  357MOL0     C47040   9.309   6.035   1.437 -0.1040 -0.3809 -1.1232
  357MOL0     C47041   9.439   6.087   1.420 -0.5211  0.4607 -0.1337
  357MOL0     N47042   9.933   6.079   0.816 -0.6958  0.0267  0.3570
  357MOL0     N47043   9.894   6.141   0.715 -0.0934 -0.7988  0.1972
  357MOL0     C47044  10.780   6.393   0.377  0.1933 -0.9881  0.1821
  357MOL0     C47045  10.922   6.371   0.374  0.0661  0.2004 -0.6252
  357MOL0     C47046  11.356   6.316   0.182  0.4760  0.2430  1.1659
  357MOL0     C47047  11.403   6.304   0.315 -0.4119 -0.3549 -0.6719
  357MOL0     C47048  11.531   6.253   0.343  0.0425  0.1355  0.0044
  357MOL0     C47049  11.617   6.205   0.239 -0.0830 -0.3321 -0.1560
  357MOL0     O47050  11.736   6.150   0.288  0.0234 -0.1472  0.3503
  357MOL0     C47051  11.843   6.174   0.201 -0.3846  0.4223  0.5491
  357MOL0     C47052  11.959   6.102   0.259 -1.1762 -0.2685 -0.6927
  357MOL0     C47053  12.030   6.166   0.390 -0.2524 -0.2844 -0.8297
  357MOL0     C47054  12.149   6.076   0.431 -0.5212  0.3174  0.1956
  357MOL0     C47055  12.272   6.095   0.361  0.4217  0.2067  1.1135
  357MOL0     C47056  12.386   6.099   0.302  0.1604  0.0007 -1.2377
  357MOL0     C47057  11.573   6.223   0.105 -0.0249 -0.0728 -0.8657
  357MOL0     C47058  11.444   6.275   0.074 -0.4647 -0.1913 -0.0414
  357MOL0     H47059  10.976   6.475   0.060  0.9854 -4.3691  0.1672
  357MOL0     H47060  10.733   6.559   0.089 -1.0995 -1.7962 -0.6554
  357MOL0     H47061  10.525   6.545   0.479  0.2598  0.8065 -0.2183
  357MOL0     H47062  10.504   6.374   0.435 -5.2314 -1.5238 -1.7351
  357MOL0     H47063  10.313   6.410   0.327 -0.8801 -0.6006  2.3761
  357MOL0     H47064  10.352   6.580   0.283  0.3828 -1.2709 -2.3532
  357MOL0     H47065  10.306   6.636   0.523 -3.6259  2.2464 -1.4839
  357MOL0     H47066  10.244   6.456   0.544 -2.3193  0.6384  1.1250
  357MOL0     H47067  10.152   6.709   0.407 -1.8759  0.6232  0.1030
  357MOL0     H47068  10.115   6.547   0.342  0.3746  0.8974 -0.0256
  357MOL0     H47069   9.958   6.668   0.532 -0.0399  0.8388  2.0624
  357MOL0     H47070  10.078   6.597   0.640 -0.9975  1.8973  0.1706
  357MOL0     H47071  10.010   6.367   0.533 -0.0943 -0.4994 -3.1441
  357MOL0     H47072   9.894   6.443   0.437  2.7150 -1.7601 -1.1830
  357MOL0     H47073   9.911   6.456   0.741  1.5393 -2.0897 -1.5637
  357MOL0     H47074   9.789   6.550   0.647 -2.9654 -0.4270  1.2105
  357MOL0     H47075   9.726   6.298   0.560 -3.5259 -0.4289  1.0575
  357MOL0     H47076   9.663   6.364   0.703 -0.3887 -3.6860  0.8879
  357MOL0     H47077   9.700   6.263   0.940 -1.5011 -2.7066  0.3793
  357MOL0     H47078   9.830   6.160   1.136 -2.0345 -0.4797 -1.1025
  357MOL0     H47079   9.962   6.048   1.113 -0.9714 -0.0981  4.7048
  357MOL0     H47080   9.783   5.879   1.029 -1.6051 -0.5597  0.4526
  357MOL0     H47081   9.670   5.987   1.108  1.0024  4.8803  0.9402
  357MOL0     H47082   9.754   5.801   1.241  2.8896 -2.4671 -0.2991
  357MOL0     H47083   9.917   5.860   1.246  1.1293  0.5377  4.0714
  357MOL0     H47084   9.879   6.029   1.402 -0.8105  2.5976 -0.6818
  357MOL0     H47085   9.795   5.905   1.469 -1.6944  1.4616  1.8127
  357MOL0     H47086   9.611   5.817   1.532 -0.4868 -0.0294  1.4717
  357MOL0     H47087   9.379   5.735   1.563 -2.5820  0.3482 -0.7279
  357MOL0     H47088   8.879   5.879   1.624  1.5503  0.1789 -0.0932
  357MOL0     H47089   8.653   5.757   1.600 -0.6875  1.0358 -1.9397
  357MOL0     H47090   8.544   5.358   1.409 -0.7719  1.1788  0.8035
  357MOL0     H47091   8.717   5.359   1.374  0.2453  0.0521 -0.7699
  357MOL0     H47092   8.649   5.613   1.280  0.2074  0.2395  1.7341
  357MOL0     H47093   8.489   5.534   1.281 -0.3727 -0.1752 -0.3461
  357MOL0     H47094   8.731   5.414   1.150  0.1090  1.5012 -0.0761
  357MOL0     H47095   8.622   5.514   1.053  0.2822 -2.2447 -1.8091
  357MOL0     H47096   8.575   5.250   1.175  0.5279 -0.4821  0.4205
  357MOL0     H47097   8.434   5.341   1.132  0.3335 -0.3012  1.8795
  357MOL0     H47098   8.658   5.265   0.929 -0.8926 -3.3825 -1.0412
  357MOL0     H47099   8.520   5.369   0.896  2.3390  4.2485  2.8445
  357MOL0     H47100   8.360   5.201   0.978 -0.2969 -0.4146  0.2414
  357MOL0     H47101   8.493   5.083   0.990  0.4612 -1.3100 -2.2031
  357MOL0     H47102   8.477   5.236   0.735 -0.9838  3.3308  3.1691
  357MOL0     H47103   8.549   5.075   0.770  1.5866  2.6100 -2.9740
  357MOL0     H47104   8.237   5.102   0.754  0.0867 -2.3018  0.0243
  357MOL0     H47105   8.323   4.966   0.798 -1.6702 -0.1890 -1.3879
  357MOL0     H47106   8.890   5.399   1.505  1.6633  1.0364  0.8306
  357MOL0     H47107   9.080   5.516   1.547  0.1692  1.0280  1.6429
  357MOL0     H47108   9.222   6.098   1.420 -1.0572 -0.9790  1.1034
  357MOL0     H47109   9.462   6.185   1.378  0.3605 -0.5511 -2.1496
  357MOL0     H47110  10.734   6.371   0.473  0.6857  1.1101  0.9600
  357MOL0     H47111  10.968   6.326   0.461 -1.7989  1.7754  1.2643
  357MOL0     H47112  11.340   6.341   0.395  0.6676  1.7108 -0.6903
  357MOL0     H47113  11.572   6.243   0.443  3.3476 -0.6022 -1.2606
  357MOL0     H47114  11.862   6.280   0.185  1.9813  0.2214  1.5364
  357MOL0     H47115  11.815   6.129   0.105  1.4279 -0.5399  0.4270
  357MOL0     H47116  11.921   6.000   0.272  3.4756 -2.4491 -1.9955
  357MOL0     H47117  12.039   6.098   0.184 -0.6559  0.1283 -0.1626
  357MOL0     H47118  11.954   6.159   0.469  0.6488  0.6893  0.1545
  357MOL0     H47119  12.058   6.271   0.378  1.1063 -0.4494  0.5466
  357MOL0     H47120  12.181   6.097   0.534  2.4247  1.2063 -0.7797
  357MOL0     H47121  12.121   5.971   0.423  0.8736  0.0028 -0.8939
  357MOL0     H47122  12.481   6.087   0.254  0.7208 -0.2484 -0.1000
  357MOL0     H47123  11.633   6.190   0.020 -2.0799 -5.0294 -0.7675
  357MOL0     H47124  11.418   6.297  -0.029 -0.3779  2.0541  0.3686
  358MOL0     O47125   7.670   2.897   3.075  0.5739  0.0220  0.1830
  358MOL0     C47126   7.716   2.845   2.974 -0.4651 -0.2467  0.4973
  358MOL0     O47127   7.636   2.803   2.865 -0.0405 -0.0375  0.1134
  358MOL0     C47128   7.506   2.821   2.883  0.1256  1.0874 -0.2148
  358MOL0     C47129   7.436   2.703   2.916 -0.4665 -0.7269  0.1184
  358MOL0     C47130   7.296   2.714   2.922 -0.7371  0.1902  0.2518
  358MOL0     C47131   7.221   2.827   2.908 -0.5674  0.7192  0.4575
  358MOL0     O47132   7.083   2.811   2.904  0.6781 -0.3286 -0.0434
  358MOL0     C47133   7.002   2.925   2.941  0.7963  1.1300 -0.1106
  358MOL0     C47134   6.856   2.867   2.972 -0.4128  0.0649  0.2283
  358MOL0     C47135   6.765   2.970   3.019  0.2155  0.1536  0.3287
  358MOL0     C47136   6.626   2.914   3.015  0.0883 -0.1484 -0.1172
  358MOL0     C47137   6.533   3.032   2.986  0.5559  0.1105 -0.1142
  358MOL0     C47138   6.383   2.986   2.970  1.2710  0.7094 -0.6542
  358MOL0     C47139   6.299   3.085   2.888 -0.5693  0.9445 -0.0457
  358MOL0     C47140   6.240   3.194   2.969  0.1003 -0.0882 -0.5252
  358MOL0     N47141   6.104   3.158   3.019  0.1022 -0.4008 -0.2291
  358MOL0     C47142   5.984   3.191   2.959 -0.7060 -0.8856 -0.0979
  358MOL0     C47143   5.886   3.156   3.044 -0.1749  0.9684  1.2555
  358MOL0     C47144   5.739   3.174   3.018 -0.9588 -0.9517 -0.0323
  358MOL0     C47145   5.649   3.089   3.101  0.4165 -1.0697  0.5517
  358MOL0     C47146   5.505   3.103   3.051  0.4438 -0.1646  0.3762
  358MOL0     C47147   5.400   3.017   3.122 -0.2521  0.6744 -0.1914
  358MOL0     O47148   5.277   3.066   3.077  0.8874  0.0807  0.2943
  358MOL0     C47149   5.155   3.002   3.106 -0.1523 -0.9237 -0.3929
  358MOL0     C47150   5.054   3.043   3.026 -0.2267 -0.0703  0.4275
  358MOL0     C47151   4.932   2.985   3.032 -0.3266 -0.0793  0.1213
  358MOL0     C47152   4.895   2.898   3.134 -0.7138  0.7904  0.2072
  358MOL0     C47153   4.752   2.851   3.146  0.2931 -0.5675 -0.4810
  358MOL0     O47154   4.725   2.756   3.246 -0.2100  0.0507 -0.5418
  358MOL0     C47155   4.601   2.707   3.259  0.1191  0.1592  0.5093
  358MOL0     C47156   4.502   2.683   3.158  0.4736  0.9532 -0.0866
  358MOL0     C47157   4.390   2.600   3.190  0.7995  0.1806 -0.2557
  358MOL0     C47158   4.355   2.557   3.310 -0.3644 -1.0502  0.2572
  358MOL0     O47159   4.242   2.487   3.311 -0.0078 -0.6719 -0.5675
  358MOL0     C47160   4.165   2.476   3.442  0.8946  0.6462  0.1831
  358MOL0     C47161   4.028   2.546   3.428  0.5663  0.1682 -0.9054
  358MOL0     C47162   3.939   2.488   3.315  0.2133  0.2108  0.1951
  358MOL0     C47163   3.800   2.545   3.327  0.1940 -0.2269  0.0159
  358MOL0     C47164   3.693   2.439   3.278  0.0840 -0.3939  0.2117
  358MOL0     C47165   3.552   2.506   3.297 -0.5378  0.4771 -0.0046
  358MOL0     C47166   3.435   2.422   3.229  0.2393  0.7933  0.0714
  358MOL0     C47167   3.306   2.492   3.243  0.2026 -0.0943 -0.0989
  358MOL0    Cl47168   3.183   2.394   3.161  0.3421  0.4721 -0.0452
  358MOL0     C47169   4.442   2.586   3.416 -1.2115 -0.4252 -0.4147
  358MOL0     C47170   4.571   2.645   3.387  0.4601 -0.1552  0.5000
  358MOL0     O47171   4.671   2.922   3.090  0.3999  0.2737  0.2980
  358MOL0     C47172   4.993   2.865   3.229  0.2909  0.3288  0.0472
  358MOL0     C47173   5.132   2.914   3.217  0.4422 -0.5987 -0.7350
  358MOL0     N47174   5.946   3.096   3.149  0.4613  0.1065 -0.4357
  358MOL0     N47175   6.077   3.098   3.139 -0.0339 -0.5850  1.0485
  358MOL0     C47176   7.295   2.942   2.896  0.4484 -0.1251 -0.0032
  358MOL0     C47177   7.430   2.940   2.875 -0.3012  0.3224  0.6182
  358MOL0     C47178   7.866   2.852   2.961  0.6781 -1.5322 -0.1290
  358MOL0     C47179   7.922   2.818   2.834  0.1813 -0.3315 -0.2558
  358MOL0     C47180   8.062   2.806   2.820  0.3152 -0.1663  0.1656
  358MOL0     C47181   8.144   2.849   2.925 -0.5086  0.2757  0.8268
  358MOL0     O47182   8.282   2.836   2.899  0.2506  0.2127 -0.4921
  358MOL0     C47183   8.379   2.834   3.007 -0.4531 -0.1698  0.7951
  358MOL0     C47184   8.488   2.731   2.980  0.1754  0.6251  0.0097
  358MOL0     C47185   8.536   2.736   2.829  1.0169  0.3592  0.6369
  358MOL0     C47186   8.660   2.656   2.807  0.4262 -0.0885  0.1742
  358MOL0     C47187   8.777   2.732   2.843  0.5505  0.7142  0.5801
  358MOL0     C47188   8.883   2.777   2.871 -0.2100 -0.2141  0.5571
  358MOL0     C47189   8.086   2.898   3.040 -1.1389  0.1476  0.2470
  358MOL0     C47190   7.952   2.894   3.058 -0.9751  0.5366 -0.9851
  358MOL0     H47191   7.481   2.607   2.940 -0.0702  0.2163  3.6758
  358MOL0     H47192   7.242   2.622   2.942  0.2048 -0.2245  0.9739
  358MOL0     H47193   6.998   2.997   2.859  0.6820  0.1405 -1.0005
  358MOL0     H47194   7.047   2.969   3.030 -1.0001 -1.0732  2.0527
  358MOL0     H47195   6.862   2.803   3.060  0.4703  2.1013  1.7190
  358MOL0     H47196   6.818   2.812   2.885 -0.7359 -0.9194  0.9769
  358MOL0     H47197   6.765   3.060   2.956 -2.3443  0.6363  0.8852
  358MOL0     H47198   6.799   2.998   3.119  2.6558 -2.0260  0.2287
  358MOL0     H47199   6.620   2.847   2.929 -1.0497 -1.9093  1.2673
  358MOL0     H47200   6.585   2.861   3.102  0.5029 -0.8083 -0.3168
  358MOL0     H47201   6.567   3.073   2.891  1.1250  3.7563  1.4679
  358MOL0     H47202   6.540   3.101   3.071 -0.5138 -0.8993  0.8467
  358MOL0     H47203   6.327   2.959   3.060  1.4163 -0.6419 -0.9460
  358MOL0     H47204   6.385   2.895   2.909 -0.9823 -2.1795  3.1249
  358MOL0     H47205   6.364   3.136   2.817  0.3405  1.9345  1.4381
  358MOL0     H47206   6.215   3.036   2.837 -2.1567  0.5208  2.7802
  358MOL0     H47207   6.223   3.283   2.907  0.8002  0.7017  0.3845
  358MOL0     H47208   6.305   3.222   3.052  2.0295  2.9158 -2.8334
  358MOL0     H47209   5.979   3.253   2.869  0.5646  0.7172  0.8783
  358MOL0     H47210   5.712   3.164   2.912 -1.9049 -1.9916  0.2870
  358MOL0     H47211   5.712   3.275   3.050 -1.6401 -1.4701  1.0949
  358MOL0     H47212   5.661   3.099   3.210  0.5897 -0.4867  0.4839
  358MOL0     H47213   5.689   2.989   3.082 -0.9512 -1.5473  0.1401
  358MOL0     H47214   5.467   3.205   3.044 -1.5999 -0.9113  0.1261
  358MOL0     H47215   5.497   3.076   2.945 -1.2685 -1.4396  0.7974
  358MOL0     H47216   5.399   3.027   3.231  2.6791 -0.5409  0.0346
  358MOL0     H47217   5.416   2.910   3.101  5.6361  1.1822 -0.0285
  358MOL0     H47218   5.077   3.117   2.950 -1.6950  1.0537  1.0198
  358MOL0     H47219   4.867   3.016   2.951  1.3646 -2.5131 -2.3363
  358MOL0     H47220   4.518   2.701   3.052  2.8737 -3.7405 -0.7866
  358MOL0     H47221   4.314   2.582   3.114 -1.9854  1.1665  2.1018
  358MOL0     H47222   4.218   2.518   3.529 -0.8911 -0.1312  1.7073
  358MOL0     H47223   4.157   2.370   3.465  3.2025  0.2508 -0.6114
  358MOL0     H47224   4.040   2.655   3.422 -1.7636  0.6406  1.3093
  358MOL0     H47225   3.970   2.534   3.520  0.1958 -0.4407 -1.2174
  358MOL0     H47226   3.928   2.380   3.328 -2.9833  0.1532 -1.8447
  358MOL0     H47227   3.960   2.524   3.213 -3.6963  0.8733 -0.5327
  358MOL0     H47228   3.783   2.559   3.434 -0.1312 -1.5610  0.1455
  358MOL0     H47229   3.781   2.645   3.287 -0.5770  0.1469  1.2674
  358MOL0     H47230   3.707   2.347   3.335  0.8507 -0.1676  0.4084
  358MOL0     H47231   3.692   2.415   3.171  0.6740  2.9034 -0.6567
  358MOL0     H47232   3.550   2.603   3.247 -1.1392 -0.1638 -1.2787
  358MOL0     H47233   3.525   2.521   3.402 -0.2427  3.7255 -0.2946
  358MOL0     H47234   3.459   2.415   3.122  1.1229  0.3140  0.2874
  358MOL0     H47235   3.444   2.318   3.260 -0.2287  0.4397 -0.9268
  358MOL0     H47236   3.321   2.578   3.177  2.4316 -2.3228 -2.7672
  358MOL0     H47237   3.289   2.506   3.350  1.2491  1.4669 -0.0988
  358MOL0     H47238   4.428   2.575   3.524  0.1256  3.0882  0.2597
  358MOL0     H47239   4.643   2.659   3.466  0.0512  0.2619  0.8032
  358MOL0     H47240   4.968   2.806   3.316  2.1442 -1.9155 -0.8171
  358MOL0     H47241   5.208   2.892   3.291 -0.2109 -0.9364 -0.1501
  358MOL0     H47242   7.234   3.032   2.897  1.4297  0.5693  1.1492
  358MOL0     H47243   7.489   3.028   2.851 -0.3375 -0.4341 -2.6110
  358MOL0     H47244   7.853   2.793   2.755  1.3953 -1.0556 -1.1203
  358MOL0     H47245   8.114   2.781   2.728 -0.8847  1.7383 -1.1154
  358MOL0     H47246   8.333   2.821   3.106 -2.0135  0.5394  0.1884
  358MOL0     H47247   8.425   2.933   3.015 -2.4074  0.7242  1.5371
  358MOL0     H47248   8.577   2.756   3.038  0.1907  0.5572  0.0151
  358MOL0     H47249   8.459   2.629   3.008 -0.0334  0.1464 -1.8151
  358MOL0     H47250   8.553   2.838   2.793  0.4845  0.9808  2.0883
  358MOL0     H47251   8.457   2.689   2.769  1.3624  1.4303 -0.7094
  358MOL0     H47252   8.657   2.559   2.857 -0.8261 -2.2123 -3.6808
  358MOL0     H47253   8.676   2.630   2.702  3.1804  2.0095 -0.0450
  358MOL0     H47254   8.980   2.822   2.885 -0.5653  0.6119  0.4194
  358MOL0     H47255   8.150   2.946   3.112  2.2764  1.5940 -3.3833
  358MOL0     H47256   7.908   2.927   3.152 -0.1214  0.6740 -0.6297
  359MOL0     O47257  10.187   6.090   8.698 -0.0878  0.8419  0.3716
  359MOL0     C47258  10.228   5.980   8.662  0.1514 -0.7904  0.1872
  359MOL0     O47259  10.162   5.899   8.575  0.3271 -0.0265 -0.1114
  359MOL0     C47260  10.026   5.917   8.557 -0.1720 -0.4453 -0.0031
  359MOL0     C47261   9.953   5.802   8.594  0.6768  0.4414  0.2586
  359MOL0     C47262   9.814   5.809   8.604 -0.7359  0.3117 -0.5368
  359MOL0     C47263   9.753   5.929   8.575  0.1304 -0.5033  0.2484
  359MOL0     O47264   9.618   5.931   8.611  0.8716 -0.4715 -0.2160
  359MOL0     C47265   9.575   6.008   8.720  0.3989 -0.4880  0.2738
  359MOL0     C47266   9.438   5.972   8.780 -0.2934 -0.1337  0.2748
  359MOL0     C47267   9.389   6.081   8.882  0.1864  0.1911 -0.7512
  359MOL0     C47268   9.294   6.014   8.984 -0.6388 -0.3721  0.0300
  359MOL0     C47269   9.164   5.960   8.934 -0.6989 -0.2829 -0.1179
  359MOL0     C47270   9.103   5.869   9.038  0.3816  0.3789 -0.4875
  359MOL0     C47271   8.965   5.795   9.008 -0.0846  1.0132 -0.0267
  359MOL0     C47272   8.853   5.897   8.968  0.4155 -0.2861 -0.1830
  359MOL0     N47273   8.726   5.831   8.940  0.4323  0.1956  0.0511
  359MOL0     C47274   8.615   5.826   9.024  0.1975  0.3788  0.3218
  359MOL0     C47275   8.525   5.763   8.941 -0.2330 -0.2928 -0.1647
  359MOL0     C47276   8.387   5.726   8.981 -0.6995  0.0440  0.9070
  359MOL0     C47277   8.281   5.794   8.893  0.9260  0.1544  0.0726
  359MOL0     C47278   8.137   5.798   8.954 -0.5454  0.0447  0.6526
  359MOL0     C47279   8.024   5.854   8.862 -0.5394  0.2561  0.4451
  359MOL0     O47280   7.902   5.811   8.904 -0.3890  0.1519 -0.1266
  359MOL0     C47281   7.791   5.826   8.828 -0.7023  0.9529  0.5827
  359MOL0     C47282   7.793   5.885   8.702 -0.4151 -0.4682 -0.2338
  359MOL0     C47283   7.681   5.896   8.618  0.1085 -0.4226 -0.0513
  359MOL0     C47284   7.560   5.837   8.653 -0.3278 -0.1609  0.6790
  359MOL0     C47285   7.440   5.823   8.577 -0.9042 -0.2648 -0.3150
  359MOL0     O47286   7.378   5.711   8.616  1.3235  0.0752 -0.4033
  359MOL0     C47287   7.243   5.704   8.585 -0.1159 -0.6564 -0.5438
  359MOL0     C47288   7.192   5.588   8.537  0.5084 -0.1714  0.3395
  359MOL0     C47289   7.052   5.572   8.514 -0.2055  0.1636  0.4919
  359MOL0     C47290   6.958   5.673   8.551 -1.1156  0.3510 -1.1473
  359MOL0     O47291   6.828   5.639   8.530  0.0488 -0.6018 -0.4296
  359MOL0     C47292   6.726   5.745   8.510 -0.9383  0.1873 -0.9781
  359MOL0     C47293   6.739   5.809   8.377 -0.5594  0.1958 -0.6340
  359MOL0     C47294   6.634   5.918   8.361  0.1517  0.1279  1.0151
  359MOL0     C47295   6.624   5.994   8.223 -0.9472 -0.2096 -0.5422
  359MOL0     C47296   6.727   6.105   8.217  0.9609  0.0941 -0.1369
  359MOL0     C47297   6.717   6.175   8.073  0.3946 -0.2347  1.0393
  359MOL0     C47298   6.832   6.271   8.043 -0.5356 -0.1333  0.0936
  359MOL0     C47299   6.823   6.348   7.920  0.8187  0.1217  0.7911
  359MOL0    Cl47300   6.770   6.244   7.778  0.4095 -0.2606 -0.1173
  359MOL0     C47301   7.009   5.787   8.621  1.0461 -0.8084  1.2536
  359MOL0     C47302   7.151   5.799   8.631  0.6121 -0.4591 -0.6299
  359MOL0     O47303   7.404   5.908   8.493 -0.1210  0.0885  0.1956
  359MOL0     C47304   7.562   5.780   8.790  0.6283  0.6902 -0.7994
  359MOL0     C47305   7.672   5.776   8.873  0.7829  0.2638 -0.8900
  359MOL0     N47306   8.573   5.745   8.812 -0.4484  0.5580 -0.1666
  359MOL0     N47307   8.692   5.781   8.814  0.2066 -0.6616  0.8228
  359MOL0     C47308   9.826   6.042   8.519  0.3773 -0.0863 -0.1198
  359MOL0     C47309   9.967   6.035   8.513 -0.4065  0.0862  1.0360
  359MOL0     C47310  10.366   5.944   8.687 -0.2884 -0.6925 -0.3550
  359MOL0     C47311  10.430   6.018   8.798  0.2964  0.4676 -0.0486
  359MOL0     C47312  10.566   6.002   8.817 -0.9040  0.6377 -0.1828
  359MOL0     C47313  10.639   5.899   8.745  0.2877 -0.2264 -0.1065
  359MOL0     O47314  10.777   5.880   8.764  0.2392  0.4021  0.4714
  359MOL0     C47315  10.845   5.987   8.828 -0.5594  0.1005  0.0867
  359MOL0     C47316  10.989   5.958   8.765  0.6380 -0.4513 -0.7046
  359MOL0     C47317  11.089   6.038   8.848 -0.1939 -0.5399  0.3172
  359MOL0     C47318  11.234   6.004   8.804  0.0030  0.2451  0.8491
  359MOL0     C47319  11.332   6.056   8.895 -0.0977  0.0491  0.1304
  359MOL0     C47320  11.413   6.106   8.972 -0.2599 -0.6708  0.1662
  359MOL0     C47321  10.575   5.831   8.638  0.3689  0.6469  0.1940
  359MOL0     C47322  10.436   5.842   8.614 -0.2901 -0.5861  0.5774
  359MOL0     H47323  10.004   5.710   8.622  0.6883 -0.0807 -1.3916
  359MOL0     H47324   9.752   5.723   8.629  0.2849 -1.2811 -3.1626
  359MOL0     H47325   9.569   6.109   8.679 -0.7552  0.2336  2.1061
  359MOL0     H47326   9.648   6.017   8.801 -1.3493 -0.8323  1.9491
  359MOL0     H47327   9.447   5.871   8.822 -1.1472 -0.7463 -0.9530
  359MOL0     H47328   9.364   5.975   8.700  0.5736  1.3554 -0.4941
  359MOL0     H47329   9.325   6.144   8.819 -0.7132 -1.1653 -1.2500
  359MOL0     H47330   9.475   6.132   8.926 -0.9780  1.3697  0.2374
  359MOL0     H47331   9.351   5.928   9.019 -3.5327 -2.1136  0.7877
  359MOL0     H47332   9.275   6.081   9.069  0.4621 -0.2442  0.1826
  359MOL0     H47333   9.176   5.895   8.847 -0.2736  1.3474 -1.3279
  359MOL0     H47334   9.097   6.041   8.902 -2.1620 -1.0620  0.8049
  359MOL0     H47335   9.089   5.915   9.136 -2.3192 -1.5115  0.1144
  359MOL0     H47336   9.177   5.789   9.048 -2.1422 -2.2354 -1.4280
  359MOL0     H47337   8.972   5.717   8.932 -3.9015 -2.3410  2.6433
  359MOL0     H47338   8.929   5.748   9.100  1.0424 -0.6123 -0.3734
  359MOL0     H47339   8.878   5.961   8.882  1.7021  0.4656  0.7095
  359MOL0     H47340   8.842   5.968   9.051  1.6870 -1.0564  0.6809
  359MOL0     H47341   8.613   5.841   9.131  1.1251  1.1427  0.2405
  359MOL0     H47342   8.369   5.760   9.083 -1.5505  3.0002 -0.1242
  359MOL0     H47343   8.371   5.618   8.983  1.2736 -0.4165 -1.8274
  359MOL0     H47344   8.296   5.757   8.792 -1.1153  0.1171 -0.2595
  359MOL0     H47345   8.307   5.901   8.892  0.1441  0.3403 -0.7775
  359MOL0     H47346   8.109   5.697   8.984  0.6662  0.5600  3.8808
  359MOL0     H47347   8.145   5.851   9.050  1.7312  0.5121  0.2680
  359MOL0     H47348   8.058   5.809   8.768  1.2653 -1.2821  1.7566
  359MOL0     H47349   8.016   5.962   8.846 -1.3746  0.0300 -0.8870
  359MOL0     H47350   7.883   5.933   8.664 -0.2151  0.4769  1.3828
  359MOL0     H47351   7.688   5.940   8.519  2.4739 -2.5888 -0.9526
  359MOL0     H47352   7.253   5.501   8.514  0.7518  0.4868 -1.7633
  359MOL0     H47353   7.027   5.480   8.462 -0.8222  0.1734  0.7583
  359MOL0     H47354   6.728   5.813   8.595 -3.9253 -0.1079 -0.5611
  359MOL0     H47355   6.634   5.689   8.526 -0.9332 -0.4459 -2.8662
  359MOL0     H47356   6.729   5.729   8.304 -1.2474 -0.2914 -0.0088
  359MOL0     H47357   6.836   5.858   8.361 -2.2195  3.3775 -1.9284
  359MOL0     H47358   6.649   5.999   8.434 -1.5327  0.3868  1.1158
  359MOL0     H47359   6.538   5.872   8.386 -0.3628  1.6941  2.0865
  359MOL0     H47360   6.639   5.920   8.144  0.1018 -1.7838  1.0407
  359MOL0     H47361   6.521   6.029   8.211 -0.8843 -0.0852 -0.7338
  359MOL0     H47362   6.828   6.079   8.247  1.7529  2.6799 -0.3030
  359MOL0     H47363   6.700   6.186   8.285 -0.5178  0.1199 -0.6996
  359MOL0     H47364   6.627   6.237   8.066 -0.6434 -1.1612  4.2192
  359MOL0     H47365   6.703   6.096   7.998 -1.2088  1.5437 -0.6510
  359MOL0     H47366   6.844   6.342   8.126 -0.9406  0.4497 -0.3396
  359MOL0     H47367   6.930   6.222   8.042 -0.6768 -0.5313 -2.7978
  359MOL0     H47368   6.921   6.391   7.894  0.0356  1.1091 -0.6881
  359MOL0     H47369   6.757   6.435   7.924 -0.3137 -0.5670 -1.5312
  359MOL0     H47370   6.943   5.867   8.650  1.0367 -0.4124  0.1895
  359MOL0     H47371   7.184   5.891   8.679 -0.9632  0.6965 -1.6769
  359MOL0     H47372   7.478   5.726   8.833 -1.0683  1.5047 -2.9312
  359MOL0     H47373   7.658   5.713   8.960 -1.1296 -1.1716 -2.1585
  359MOL0     H47374   9.779   6.136   8.493  1.5358  0.8747  1.1680
  359MOL0     H47375  10.038   6.112   8.485 -0.1365  0.2708  2.1924
  359MOL0     H47376  10.378   6.103   8.842 -2.7721  0.1846 -2.7653
  359MOL0     H47377  10.614   6.077   8.878 -0.9949 -0.5057  1.3464
  359MOL0     H47378  10.841   5.978   8.937 -0.1276  2.0461  0.3143
  359MOL0     H47379  10.819   6.091   8.807  0.1216  0.2090 -0.2539
  359MOL0     H47380  11.014   5.852   8.775  1.0951 -0.2915 -0.0838
  359MOL0     H47381  11.001   5.988   8.661  1.5759  0.6398 -0.3146
  359MOL0     H47382  11.086   6.011   8.954  0.6768 -0.1194  0.4650
  359MOL0     H47383  11.070   6.145   8.833 -0.1076 -0.5874 -0.1559
  359MOL0     H47384  11.238   5.894   8.806 -0.9660  0.2000  0.8342
  359MOL0     H47385  11.246   6.033   8.699 -1.4584 -1.0393  0.2840
  359MOL0     H47386  11.487   6.151   9.035  0.4768 -2.2287  0.4667
  359MOL0     H47387  10.630   5.763   8.574 -1.6536 -0.4776 -0.4336
  359MOL0     H47388  10.379   5.795   8.534 -2.1710  2.2798  0.0605
  360MOL0     O47389   7.084   5.832   6.081  0.0216  0.7402 -0.4253
  360MOL0     C47390   7.064   5.722   6.024 -0.5608 -0.4221 -0.5122
  360MOL0     O47391   6.948   5.658   6.003 -0.3407 -0.3473 -0.1099
  360MOL0     C47392   6.837   5.702   6.058 -0.2585 -0.3014  0.8571
  360MOL0     C47393   6.813   5.718   6.201  0.4917 -0.4059  0.7073
  360MOL0     C47394   6.686   5.737   6.253  0.1964 -0.0653  0.1387
  360MOL0     C47395   6.582   5.760   6.161 -0.2539 -0.3823 -0.0702
  360MOL0     O47396   6.455   5.781   6.224  0.5057 -0.0045  0.4094
  360MOL0     C47397   6.337   5.781   6.144  0.3799 -0.7503  0.2963
  360MOL0     C47398   6.258   5.681   6.224 -0.6155  0.4568 -0.6226
  360MOL0     C47399   6.123   5.642   6.162  0.5319  0.5009  0.8674
  360MOL0     C47400   6.016   5.750   6.150  0.1482  1.1260  0.1253
  360MOL0     C47401   5.921   5.724   6.031 -0.1815 -0.2796 -0.6751
  360MOL0     C47402   5.818   5.833   6.010 -0.3327 -0.6438  0.2678
  360MOL0     C47403   5.727   5.780   5.894  0.1702  0.2685 -0.5643
  360MOL0     C47404   5.657   5.896   5.826  0.2835 -0.1674 -0.7757
  360MOL0     N47405   5.528   5.936   5.889  0.1723  0.8054 -0.2326
  360MOL0     C47406   5.492   6.064   5.924  0.7583  0.1287  0.4026
  360MOL0     C47407   5.359   6.054   5.950 -0.7411 -0.0913  0.2922
  360MOL0     C47408   5.279   6.173   5.994 -0.1081 -0.2814 -0.5026
  360MOL0     C47409   5.233   6.263   5.878 -0.7589  0.0027  0.9391
  360MOL0     C47410   5.159   6.385   5.928  0.0657  0.3281 -0.5658
  360MOL0     C47411   5.016   6.352   5.983  0.4876  0.1493 -0.4032
  360MOL0     O47412   4.943   6.274   5.877 -0.0269 -1.1877 -0.8769
  360MOL0     C47413   4.899   6.338   5.766 -0.5405  0.2199  0.1898
  360MOL0     C47414   4.874   6.252   5.658 -0.3134  0.4542  0.6300
  360MOL0     C47415   4.854   6.294   5.528  0.8485  0.0961  0.2672
  360MOL0     C47416   4.872   6.429   5.500 -0.1202  0.0064 -0.0973
  360MOL0     C47417   4.880   6.467   5.361  0.0057 -0.3745 -0.3516
  360MOL0     O47418   4.943   6.589   5.339  0.9741 -0.3769  0.0988
  360MOL0     C47419   4.969   6.629   5.213 -0.2047 -0.3031 -0.0702
  360MOL0     C47420   5.086   6.584   5.141  0.3423 -0.5003  0.6457
  360MOL0     C47421   5.102   6.619   5.008  0.5678 -0.3478  0.0372
  360MOL0     C47422   5.024   6.721   4.949 -0.3578  0.3176  0.2440
  360MOL0     O47423   5.045   6.773   4.822 -1.4770 -0.0021 -0.8907
  360MOL0     C47424   5.162   6.762   4.751 -0.1763  0.2970  0.5242
  360MOL0     C47425   5.134   6.841   4.626  0.4971 -0.9821  0.4529
  360MOL0     C47426   5.125   6.987   4.663  0.7793  0.3843 -0.4301
  360MOL0     C47427   5.131   7.088   4.539 -0.7926  0.0948 -0.5005
  360MOL0     C47428   5.127   7.237   4.590 -0.7726 -0.2342 -0.6182
  360MOL0     C47429   5.175   7.336   4.491  0.1486 -0.5309  0.0341
  360MOL0     C47430   5.074   7.372   4.384  1.0401 -1.0583 -0.3905
  360MOL0     C47431   5.087   7.512   4.336  0.4785 -0.7056 -0.7093
  360MOL0    Cl47432   5.232   7.534   4.247  0.0865 -0.0281  0.2910
  360MOL0     C47433   4.920   6.775   5.025 -0.0100 -1.0480 -1.2923
  360MOL0     C47434   4.898   6.733   5.154  0.7698 -0.0034  0.3720
  360MOL0     O47435   4.851   6.384   5.274  0.4339 -0.2067 -0.5793
  360MOL0     C47436   4.883   6.516   5.611 -0.2532  0.1715  0.6119
  360MOL0     C47437   4.898   6.475   5.740 -0.6216  0.7842  0.7212
  360MOL0     N47438   5.330   5.915   5.943 -0.1113 -0.6540  0.3895
  360MOL0     N47439   5.430   5.845   5.896 -0.3933 -0.3759  0.7772
  360MOL0     C47440   6.606   5.765   6.026 -0.9266  0.1266 -0.0925
  360MOL0     C47441   6.738   5.735   5.969 -0.0437 -0.1304  0.5316
  360MOL0     C47442   7.179   5.659   5.967 -0.5042 -0.4124 -0.5178
  360MOL0     C47443   7.311   5.725   5.975 -0.1766  0.6359  0.6071
  360MOL0     C47444   7.426   5.666   5.916  0.6294  0.7715 -0.0406
  360MOL0     C47445   7.418   5.537   5.855  0.4298 -0.0769 -0.0247
  360MOL0     O47446   7.523   5.470   5.792  0.0989 -0.1768  0.5692
  360MOL0     C47447   7.635   5.548   5.761 -0.5790  0.6979  0.8272
  360MOL0     C47448   7.721   5.457   5.671 -0.7044 -0.5049  0.2585
  360MOL0     C47449   7.775   5.329   5.735  0.1127  0.6938  0.0122
  360MOL0     C47450   7.844   5.248   5.622  0.8876  0.1364 -0.4533
  360MOL0     C47451   7.924   5.147   5.695 -0.2287  0.0068 -0.4420
  360MOL0     C47452   7.994   5.059   5.741  1.2054 -0.2868  1.2994
  360MOL0     C47453   7.300   5.476   5.862  0.6378  0.0007 -0.3882
  360MOL0     C47454   7.181   5.526   5.915  0.3524  0.0983 -0.0865
  360MOL0     H47455   6.892   5.698   6.272 -0.0762  1.7456  2.0383
  360MOL0     H47456   6.677   5.752   6.360 -0.8420  3.0615 -0.2722
  360MOL0     H47457   6.347   5.736   6.044  0.5150 -1.7407  0.7397
  360MOL0     H47458   6.295   5.881   6.133 -0.5764 -1.0916  0.7675
  360MOL0     H47459   6.245   5.711   6.328  0.4150 -0.8136 -0.1013
  360MOL0     H47460   6.312   5.588   6.242 -0.5936  0.8512  1.5232
  360MOL0     H47461   6.078   5.551   6.204 -1.7797  1.3737  0.4252
  360MOL0     H47462   6.153   5.604   6.063 -0.6497  1.7974 -0.0296
  360MOL0     H47463   5.963   5.754   6.245 -1.3425  0.1268 -0.6165
  360MOL0     H47464   6.060   5.847   6.125 -0.5479  1.7474  1.2729
  360MOL0     H47465   5.882   5.624   6.055  2.2636 -1.2030 -0.2727
  360MOL0     H47466   5.981   5.698   5.943 -0.2185  0.6559 -0.9875
  360MOL0     H47467   5.868   5.929   5.992 -1.1704  0.3480  2.7659
  360MOL0     H47468   5.770   5.860   6.104 -0.1182 -0.5618  0.3567
  360MOL0     H47469   5.793   5.741   5.817  0.8330 -1.3520  0.7453
  360MOL0     H47470   5.668   5.698   5.936 -0.7332  0.5533 -1.2453
  360MOL0     H47471   5.624   5.862   5.727  0.1541 -5.7282  0.8419
  360MOL0     H47472   5.720   5.983   5.806  1.2997 -0.8522 -0.5976
  360MOL0     H47473   5.559   6.149   5.927  1.7817 -0.6426 -0.2030
  360MOL0     H47474   5.340   6.232   6.063  0.5938  0.2597 -1.5485
  360MOL0     H47475   5.187   6.135   6.038 -0.3026  1.4402  0.6528
  360MOL0     H47476   5.167   6.207   5.811  2.3765  0.5842 -3.0353
  360MOL0     H47477   5.314   6.304   5.818  0.8068  2.3138  4.3562
  360MOL0     H47478   5.218   6.430   6.008 -1.4384  1.2834  0.0339
  360MOL0     H47479   5.151   6.449   5.839  0.5559  4.1769  1.9287
  360MOL0     H47480   4.961   6.441   6.015  0.2283 -0.1272 -0.0770
  360MOL0     H47481   5.025   6.283   6.068  0.5904 -2.4744 -2.4124
  360MOL0     H47482   4.867   6.145   5.677  1.6058  0.2825  0.4894
  360MOL0     H47483   4.834   6.221   5.450 -1.8311  0.7685  0.2261
  360MOL0     H47484   5.157   6.517   5.187  0.8880 -0.4179 -0.0503
  360MOL0     H47485   5.193   6.595   4.954  2.1404  0.8453  1.9752
  360MOL0     H47486   5.191   6.658   4.732 -1.4464  0.0232  0.0126
  360MOL0     H47487   5.241   6.812   4.807 -0.4196 -1.5795  2.6767
  360MOL0     H47488   5.051   6.793   4.574  1.3769 -2.3681  0.2764
  360MOL0     H47489   5.215   6.832   4.552 -0.1208  0.7140 -0.4998
  360MOL0     H47490   5.207   7.025   4.725 -0.2072  0.8382  0.6140
  360MOL0     H47491   5.034   7.015   4.716  0.8568  1.3190 -0.7787
  360MOL0     H47492   5.232   7.079   4.497  0.9877 -0.3879  3.4338
  360MOL0     H47493   5.065   7.063   4.456  0.1275  1.7488 -1.8059
  360MOL0     H47494   5.201   7.257   4.668 -0.0912 -0.5618 -1.1711
  360MOL0     H47495   5.026   7.254   4.630 -0.4839  0.2886 -0.0924
  360MOL0     H47496   5.267   7.310   4.437  0.6197  1.6563 -0.3375
  360MOL0     H47497   5.222   7.425   4.535  3.4022 -1.4145 -1.3266
  360MOL0     H47498   5.083   7.309   4.295  0.0215  0.9663 -2.0248
  360MOL0     H47499   4.969   7.368   4.417  1.3238  1.2753  1.0010
  360MOL0     H47500   5.096   7.577   4.424  1.8673 -0.4185 -1.0302
  360MOL0     H47501   5.005   7.559   4.282  1.1578  2.5548  0.8160
  360MOL0     H47502   4.865   6.858   4.984  2.8552  1.1172 -1.1016
  360MOL0     H47503   4.837   6.782   5.228  2.2608  2.4892  0.0688
  360MOL0     H47504   4.907   6.619   5.585  0.9006 -0.1263  0.4386
  360MOL0     H47505   4.926   6.537   5.825  2.2140  0.6023  0.0226
  360MOL0     H47506   6.530   5.782   5.950 -0.0639 -0.1316 -1.0449
  360MOL0     H47507   6.761   5.725   5.863  1.7545  0.5277  0.8265
  360MOL0     H47508   7.317   5.830   6.000 -0.7595  0.9817 -0.6714
  360MOL0     H47509   7.521   5.719   5.915  0.2641  1.4422  0.5285
  360MOL0     H47510   7.690   5.566   5.853 -0.7278 -0.3277  1.1286
  360MOL0     H47511   7.615   5.641   5.707 -0.9945 -0.9844 -2.1554
  360MOL0     H47512   7.656   5.433   5.587  0.1017  0.3901 -0.6545
  360MOL0     H47513   7.811   5.504   5.629 -0.3842 -1.0929  0.2671
  360MOL0     H47514   7.695   5.265   5.773  0.9904 -2.7137 -3.2691
  360MOL0     H47515   7.858   5.347   5.805 -0.0130  2.4951 -0.2376
  360MOL0     H47516   7.779   5.202   5.547  2.4632 -2.0969 -0.5383
  360MOL0     H47517   7.919   5.302   5.563  0.2474 -0.7118 -2.1066
  360MOL0     H47518   8.063   4.982   5.772  0.2645 -1.4638  0.5471
  360MOL0     H47519   7.289   5.378   5.815 -2.9042  1.0294 -2.0202
  360MOL0     H47520   7.089   5.469   5.910  1.3284 -1.4562 -1.4100
  361MOL0     O47521   4.251   6.456   1.784 -0.7210 -0.5529  0.0771
  361MOL0     C47522   4.282   6.353   1.846  0.6580 -0.1768 -0.0925
  361MOL0     O47523   4.196   6.250   1.853 -0.3546  0.2228  0.0209
  361MOL0     C47524   4.084   6.248   1.778  0.2220 -0.0649  0.0922
  361MOL0     C47525   4.056   6.312   1.653 -0.2134  0.1393 -0.2644
  361MOL0     C47526   3.930   6.300   1.582 -0.1121  1.3165 -0.0969
  361MOL0     C47527   3.825   6.218   1.636  0.0923  0.1631  0.3380
  361MOL0     O47528   3.697   6.202   1.595 -0.0393  0.4562  0.1568
  361MOL0     C47529   3.661   6.233   1.460 -0.2471 -0.5463  0.2655
  361MOL0     C47530   3.705   6.115   1.373 -0.0811  0.2033  0.1685
  361MOL0     C47531   3.665   6.135   1.226  0.0272  0.0409 -0.0325
  361MOL0     C47532   3.774   6.181   1.137 -0.1514 -0.6257 -0.0280
  361MOL0     C47533   3.726   6.174   0.993  0.9585 -0.0785  0.3929
  361MOL0     C47534   3.841   6.195   0.888  1.2632  0.0147 -0.2200
  361MOL0     C47535   3.798   6.183   0.749  0.2214 -0.4235  0.9518
  361MOL0     C47536   3.849   6.283   0.639 -0.7712  0.1950  0.6311
  361MOL0     N47537   3.760   6.395   0.605  0.7363 -0.0146  0.3514
  361MOL0     C47538   3.726   6.508   0.674  0.0563  1.1008  0.2047
  361MOL0     C47539   3.645   6.582   0.593 -0.6295  0.3977  0.6000
  361MOL0     C47540   3.580   6.709   0.635  0.4768  0.5889  0.4106
  361MOL0     C47541   3.483   6.689   0.749  1.5932 -0.1533  0.3676
  361MOL0     C47542   3.414   6.814   0.794  0.3172 -0.1944  0.1340
  361MOL0     C47543   3.312   6.783   0.902  0.4482  0.5190 -0.0480
  361MOL0     O47544   3.218   6.895   0.908 -0.3684  0.6050 -0.3101
  361MOL0     C47545   3.264   6.999   0.978 -0.3505 -0.4506 -0.7379
  361MOL0     C47546   3.295   6.990   1.118  0.0616  0.7377 -0.4252
  361MOL0     C47547   3.346   7.096   1.193  0.0517  0.2785  0.1575
  361MOL0     C47548   3.360   7.220   1.128 -0.4209  0.2649  0.6473
  361MOL0     C47549   3.419   7.338   1.200 -0.3357  0.6450  0.7237
  361MOL0     O47550   3.440   7.321   1.330  0.3262 -0.3028 -0.2583
  361MOL0     C47551   3.501   7.425   1.402  0.0541  0.2217  0.4844
  361MOL0     C47552   3.636   7.410   1.440 -0.6014  1.4480 -0.4846
  361MOL0     C47553   3.708   7.500   1.512 -0.1266  0.0712 -0.4756
  361MOL0     C47554   3.651   7.621   1.544  0.3118 -0.6268 -0.0024
  361MOL0     O47555   3.700   7.720   1.628  0.2862 -0.6153  0.0032
  361MOL0     C47556   3.819   7.699   1.693  0.0315  0.1311 -1.2338
  361MOL0     C47557   3.936   7.720   1.599  0.0918  0.4769 -0.1164
  361MOL0     C47558   3.950   7.874   1.558  0.1800 -0.2706 -0.4694
  361MOL0     C47559   4.098   7.883   1.507 -0.4961 -0.4071 -0.6966
  361MOL0     C47560   4.141   8.028   1.490  0.4141  0.6227  0.3755
  361MOL0     C47561   4.288   8.033   1.442  0.3234  0.4567  0.2812
  361MOL0     C47562   4.305   8.159   1.352 -0.1593  0.8036  1.0345
  361MOL0     C47563   4.444   8.172   1.291  0.2326  0.3439 -0.4700
  361MOL0    Cl47564   4.577   8.180   1.419  0.1658 -0.0874  0.0879
  361MOL0     C47565   3.523   7.644   1.500  0.3120 -0.4321 -0.0534
  361MOL0     C47566   3.444   7.547   1.433  0.0575 -0.2912 -0.2968
  361MOL0     O47567   3.436   7.444   1.137  0.6902  0.3953  0.1353
  361MOL0     C47568   3.307   7.239   0.996  0.8759  0.1400  0.0669
  361MOL0     C47569   3.265   7.128   0.924  0.4758  0.4329 -0.1948
  361MOL0     N47570   3.630   6.520   0.471 -1.0058  0.6952  0.1921
  361MOL0     N47571   3.700   6.406   0.482  0.6330 -0.1559  0.1652
  361MOL0     C47572   3.855   6.158   1.757 -0.8826 -0.8859 -0.5727
  361MOL0     C47573   3.976   6.174   1.823  0.4095  0.0970  0.0720
  361MOL0     C47574   4.421   6.329   1.886  0.3992  0.9082 -0.4435
  361MOL0     C47575   4.446   6.200   1.944 -0.5764  0.5480 -0.7950
  361MOL0     C47576   4.575   6.180   1.996 -0.4524 -0.5786  0.5191
  361MOL0     C47577   4.673   6.279   1.996 -0.5306 -0.0317  0.7946
  361MOL0     O47578   4.806   6.258   2.022 -1.0077  0.3582  0.0528
  361MOL0     C47579   4.849   6.165   2.122  0.4471 -0.4485  0.5250
  361MOL0     C47580   4.981   6.198   2.194 -0.2753 -0.5068 -0.2938
  361MOL0     C47581   4.993   6.348   2.238 -0.2596 -0.3716  0.2954
  361MOL0     C47582   5.125   6.383   2.297 -0.1126  0.0248  0.2625
  361MOL0     C47583   5.122   6.518   2.347 -0.6626 -0.7475 -0.4482
  361MOL0     C47584   5.095   6.629   2.390 -0.7317  0.1629 -0.2722
  361MOL0     C47585   4.647   6.405   1.935  0.9551 -0.1330  0.1333
  361MOL0     C47586   4.522   6.434   1.877 -0.1827 -0.5956 -0.1430
  361MOL0     H47587   4.136   6.355   1.594 -0.3844 -3.3398 -3.3703
  361MOL0     H47588   3.910   6.341   1.483  1.8723  1.5088 -0.4579
  361MOL0     H47589   3.719   6.319   1.425  0.7283 -1.1008  0.4964
  361MOL0     H47590   3.554   6.256   1.463  0.1198  1.3431  3.4927
  361MOL0     H47591   3.660   6.025   1.416  0.9377 -0.7717 -0.7532
  361MOL0     H47592   3.814   6.115   1.380  0.1599  2.8583 -1.8642
  361MOL0     H47593   3.571   6.191   1.223  0.4580  0.8005  0.3028
  361MOL0     H47594   3.628   6.041   1.186 -1.4312  0.5674  0.0288
  361MOL0     H47595   3.790   6.288   1.154 -2.8895 -0.2810  0.8380
  361MOL0     H47596   3.860   6.115   1.154 -0.5641 -1.3250 -0.5894
  361MOL0     H47597   3.645   6.248   0.983 -0.6167 -1.7619  0.1245
  361MOL0     H47598   3.670   6.085   0.962  0.8793 -0.4069  1.4510
  361MOL0     H47599   3.920   6.122   0.908  0.4791 -1.1681 -1.2705
  361MOL0     H47600   3.875   6.298   0.901 -1.9451  0.9099  2.3288
  361MOL0     H47601   3.814   6.081   0.714  1.1106  0.1164 -0.2680
  361MOL0     H47602   3.691   6.205   0.750  0.2192 -0.1316 -0.9804
  361MOL0     H47603   3.866   6.227   0.547  0.3324  1.7674 -0.1723
  361MOL0     H47604   3.944   6.323   0.676 -0.0030  0.0519 -1.1014
  361MOL0     H47605   3.737   6.527   0.780  0.7681  1.9395 -0.0027
  361MOL0     H47606   3.529   6.755   0.550 -0.0819 -0.1351  0.3478
  361MOL0     H47607   3.666   6.772   0.661  1.7900 -1.2527  0.7425
  361MOL0     H47608   3.531   6.645   0.838  0.4158  0.6234  1.4297
  361MOL0     H47609   3.410   6.619   0.707  0.4326  1.9471 -1.3292
  361MOL0     H47610   3.485   6.887   0.833 -0.2599 -0.0559  0.9385
  361MOL0     H47611   3.361   6.857   0.709  0.8053  0.4162  0.1359
  361MOL0     H47612   3.361   6.774   1.000 -0.6061  0.7840  0.5233
  361MOL0     H47613   3.265   6.685   0.890  0.9264  0.2416  0.2843
  361MOL0     H47614   3.289   6.900   1.178  0.8785  0.7412 -0.3266
  361MOL0     H47615   3.368   7.070   1.296  0.3525  0.8195  0.2390
  361MOL0     H47616   3.678   7.316   1.405  1.6175  1.7914  1.0402
  361MOL0     H47617   3.801   7.458   1.549 -0.1628 -2.1279 -2.6503
  361MOL0     H47618   3.818   7.603   1.746 -2.2398  0.7548 -0.0305
  361MOL0     H47619   3.832   7.776   1.769  0.8228 -1.7723  0.6771
  361MOL0     H47620   3.918   7.652   1.516  1.7950 -0.3352  0.1298
  361MOL0     H47621   4.024   7.686   1.655  0.5874  0.5831 -0.8196
  361MOL0     H47622   3.942   7.938   1.646 -1.8460 -1.8880  0.6033
  361MOL0     H47623   3.874   7.905   1.485 -0.3811  1.3592  0.7377
  361MOL0     H47624   4.157   7.826   1.579 -1.7340 -0.2933  0.4436
  361MOL0     H47625   4.098   7.827   1.414 -3.9262  0.0081 -1.0873
  361MOL0     H47626   4.133   8.075   1.588  2.9645  3.8833 -0.7798
  361MOL0     H47627   4.076   8.075   1.416 -0.3860 -0.9456  0.0365
  361MOL0     H47628   4.311   7.945   1.381  1.6897  1.5400 -0.7963
  361MOL0     H47629   4.360   8.044   1.524  1.4521  0.8333 -0.7462
  361MOL0     H47630   4.239   8.142   1.267  1.6403 -0.5600 -0.1537
  361MOL0     H47631   4.278   8.244   1.416 -2.0527 -0.6765  2.2801
  361MOL0     H47632   4.443   8.273   1.248 -0.7070  1.4371  1.9564
  361MOL0     H47633   4.477   8.091   1.225  0.6562 -0.2807  0.4970
  361MOL0     H47634   3.478   7.740   1.524  1.1091 -0.1412  0.2756
  361MOL0     H47635   3.341   7.561   1.404 -0.4216  1.1042  1.8481
  361MOL0     H47636   3.318   7.333   0.943  1.5223  1.3349  2.2042
  361MOL0     H47637   3.254   7.130   0.816 -3.3546 -0.4563  0.0224
  361MOL0     H47638   3.784   6.087   1.799 -0.0943 -1.8336 -0.7808
  361MOL0     H47639   3.988   6.118   1.915 -1.5457 -1.1783 -0.3812
  361MOL0     H47640   4.366   6.128   1.954 -2.7674  2.7386 -1.4748
  361MOL0     H47641   4.603   6.079   2.026 -1.0465 -0.7063  0.6595
  361MOL0     H47642   4.873   6.070   2.072 -0.0521  0.3304 -1.3008
  361MOL0     H47643   4.766   6.143   2.189  0.3251 -0.4935  0.3590
  361MOL0     H47644   4.992   6.142   2.287  1.9099  2.7117  1.5927
  361MOL0     H47645   5.057   6.173   2.120 -0.0235  1.0927 -0.6168
  361MOL0     H47646   4.911   6.368   2.307 -0.9728 -1.6561 -0.1507
  361MOL0     H47647   4.974   6.406   2.147 -1.5383 -0.2806  0.5987
  361MOL0     H47648   5.130   6.317   2.385 -0.0707 -0.6960 -0.2669
  361MOL0     H47649   5.207   6.371   2.226  0.1508  0.2311  0.5322
  361MOL0     H47650   5.089   6.726   2.434  3.8018  0.4639  0.1554
  361MOL0     H47651   4.730   6.475   1.934 -0.8880  2.2983  2.3381
  361MOL0     H47652   4.495   6.522   1.820 -0.1859 -1.0518 -0.8506
  362MOL0     O47653   2.456   3.696   5.828 -0.5295  1.2457  0.3140
  362MOL0     C47654   2.571   3.643   5.816 -1.4578 -0.2404 -0.4948
  362MOL0     O47655   2.608   3.513   5.847  0.4041 -0.2658 -0.2139
  362MOL0     C47656   2.522   3.452   5.934  0.1787  0.1320 -0.3571
  362MOL0     C47657   2.450   3.344   5.886 -0.7298  0.5724  0.3681
  362MOL0     C47658   2.374   3.273   5.980 -1.3785  0.5148 -0.8138
  362MOL0     C47659   2.370   3.298   6.116  0.6017  0.3761 -0.1906
  362MOL0     O47660   2.286   3.233   6.203  0.2807 -0.5626  0.0863
  362MOL0     C47661   2.160   3.292   6.194  0.6286 -0.4641  0.3995
  362MOL0     C47662   2.069   3.244   6.315  0.0019 -0.8085  0.0399
  362MOL0     C47663   2.083   3.089   6.353  0.0415 -0.4568  0.0698
  362MOL0     C47664   1.992   3.052   6.461 -0.1286  0.1684  0.0636
  362MOL0     C47665   2.024   3.103   6.596 -0.3009  1.1515 -0.0388
  362MOL0     C47666   2.161   3.057   6.648 -0.8759  0.2987 -0.8220
  362MOL0     C47667   2.188   3.060   6.798 -0.0270  0.1362  0.2802
  362MOL0     C47668   2.226   3.203   6.835 -0.4438 -0.5974 -0.3220
  362MOL0     N47669   2.199   3.225   6.978 -0.6824 -0.7798 -0.5895
  362MOL0     C47670   2.073   3.237   7.043 -0.6000 -0.0424 -0.1106
  362MOL0     C47671   2.108   3.242   7.174 -0.4221  1.0361 -0.8299
  362MOL0     C47672   2.009   3.261   7.290  1.0191  0.0158  0.5208
  362MOL0     C47673   1.882   3.334   7.237  0.3090 -0.8042  0.1882
  362MOL0     C47674   1.787   3.363   7.346 -0.1772  0.2717 -0.8835
  362MOL0     C47675   1.658   3.435   7.292 -0.3470 -0.7497 -0.8864
  362MOL0     O47676   1.677   3.559   7.229 -0.0223  0.2389 -0.1539
  362MOL0     C47677   1.568   3.643   7.222 -0.0500 -0.6502 -0.4980
  362MOL0     C47678   1.434   3.600   7.217 -0.1422 -1.2259 -0.7671
  362MOL0     C47679   1.332   3.688   7.212 -0.0738 -0.1190  0.4298
  362MOL0     C47680   1.355   3.830   7.208 -0.8457  0.3547  0.2963
  362MOL0     C47681   1.247   3.926   7.216 -0.5865 -0.4799 -0.8656
  362MOL0     O47682   1.123   3.872   7.252  0.6134  0.4192 -0.0322
  362MOL0     C47683   1.016   3.949   7.280  0.6778  0.2731 -0.1725
  362MOL0     C47684   0.971   4.038   7.184 -0.4100 -0.0489 -0.2513
  362MOL0     C47685   0.846   4.103   7.209 -0.4096  0.1698  0.7489
  362MOL0     C47686   0.779   4.096   7.335  1.0770  0.3828  0.0957
  362MOL0     O47687   0.669   4.170   7.375  0.0363  0.3758  0.0290
  362MOL0     C47688   0.665   4.306   7.320 -0.0795 -0.4531 -0.0714
  362MOL0     C47689   0.576   4.397   7.399  0.0065  0.0171  0.4550
  362MOL0     C47690   0.429   4.362   7.400  0.6407  0.1127 -0.6686
  362MOL0     C47691   0.361   4.461   7.498  0.3790 -0.5616  0.2433
  362MOL0     C47692   0.213   4.463   7.484  0.8026 -0.6256 -0.1306
  362MOL0     C47693   0.154   4.580   7.569  0.0174 -0.7978  1.2705
  362MOL0     C47694   0.002   4.564   7.546  0.8225 -0.7341  0.0923
  362MOL0     C47695  -0.067   4.699   7.577  0.0576  0.1494  0.3133
  362MOL0    Cl47696  -0.038   4.732   7.745 -0.3600 -0.6873 -0.0817
  362MOL0     C47697   0.834   4.006   7.424  0.6343 -0.1679  0.1129
  362MOL0     C47698   0.944   3.931   7.401 -0.0750  0.5275 -0.0943
  362MOL0     O47699   1.270   4.036   7.162 -0.3639  0.1056  0.1984
  362MOL0     C47700   1.493   3.869   7.202 -0.7590  0.4255 -0.1763
  362MOL0     C47701   1.596   3.773   7.214 -0.2487 -0.9156  0.5483
  362MOL0     N47702   2.243   3.237   7.192 -0.6172 -0.7725 -0.3018
  362MOL0     N47703   2.292   3.218   7.076  0.0047 -0.3273 -0.6218
  362MOL0     C47704   2.451   3.401   6.159  0.0736  0.3028  0.5885
  362MOL0     C47705   2.527   3.478   6.074  0.6089 -0.1299  0.4057
  362MOL0     C47706   2.677   3.718   5.753  0.3351 -0.0417  0.9554
  362MOL0     C47707   2.796   3.658   5.714  0.5977 -0.4625  0.1959
  362MOL0     C47708   2.905   3.731   5.659  0.1888 -0.1682  0.2904
  362MOL0     C47709   2.882   3.870   5.633  0.1424  0.7026 -0.9624
  362MOL0     O47710   2.977   3.957   5.579  0.2772  0.0121 -0.6221
  362MOL0     C47711   3.084   3.906   5.494  1.3617  0.1377 -0.1618
  362MOL0     C47712   3.127   4.011   5.397  0.0834 -0.1698  0.3460
  362MOL0     C47713   3.016   4.048   5.294 -0.0005  0.1355  0.0347
  362MOL0     C47714   2.946   3.932   5.228  0.0375 -0.1020  0.2526
  362MOL0     C47715   2.860   3.972   5.114 -0.4712 -0.4285 -0.3605
  362MOL0     C47716   2.781   4.001   5.031  0.6208  0.5125  0.6684
  362MOL0     C47717   2.764   3.937   5.660  0.6049 -0.9939 -0.0731
  362MOL0     C47718   2.660   3.859   5.725 -0.1734  0.1221 -0.4094
  362MOL0     H47719   2.454   3.299   5.787  0.0822 -0.6896  0.9385
  362MOL0     H47720   2.321   3.181   5.954 -3.5827  1.2592  0.7944
  362MOL0     H47721   2.118   3.249   6.104 -1.9040  1.0594  0.7601
  362MOL0     H47722   2.169   3.401   6.188  1.0492 -0.5425 -0.5593
  362MOL0     H47723   1.966   3.278   6.296  0.5024  1.0730  0.4777
  362MOL0     H47724   2.102   3.297   6.404  0.5524  3.0643 -2.2468
  362MOL0     H47725   2.185   3.056   6.377  0.6142  1.2460  0.1026
  362MOL0     H47726   2.055   3.035   6.262  1.1163 -0.0016 -0.5464
  362MOL0     H47727   1.889   3.085   6.442 -0.8523 -1.5318  0.8009
  362MOL0     H47728   1.981   2.944   6.460 -1.3748  0.2782 -0.8782
  362MOL0     H47729   1.942   3.077   6.664  0.7856  0.0290  0.8881
  362MOL0     H47730   2.037   3.211   6.591  0.3921  1.0225 -3.2582
  362MOL0     H47731   2.235   3.115   6.593 -1.6297  1.1899 -0.9131
  362MOL0     H47732   2.164   2.949   6.627 -2.7868 -0.0471  0.4877
  362MOL0     H47733   2.105   3.018   6.856 -0.1887 -0.2695 -0.2357
  362MOL0     H47734   2.274   2.993   6.810 -0.4598 -0.3478  0.7260
  362MOL0     H47735   2.164   3.274   6.779  0.4559 -0.3096 -0.9893
  362MOL0     H47736   2.336   3.208   6.828 -0.0362 -0.8180  3.6756
  362MOL0     H47737   1.975   3.240   6.997 -2.0504 -0.6772  2.6832
  362MOL0     H47738   2.047   3.321   7.374 -3.8410 -1.1777  3.9727
  362MOL0     H47739   1.990   3.158   7.319 -1.2634 -0.3172 -1.7834
  362MOL0     H47740   1.837   3.281   7.153  1.2519  1.2263 -1.6906
  362MOL0     H47741   1.911   3.432   7.197 -2.1318 -0.3132 -0.5793
  362MOL0     H47742   1.756   3.269   7.394  0.9883  1.3975  2.3095
  362MOL0     H47743   1.834   3.419   7.427  0.4311  0.8789 -1.6436
  362MOL0     H47744   1.597   3.447   7.382 -1.5327 -2.9234 -1.3271
  362MOL0     H47745   1.601   3.373   7.223 -1.0489 -0.7938 -0.2732
  362MOL0     H47746   1.408   3.496   7.232  0.7256 -1.2529  0.7592
  362MOL0     H47747   1.231   3.647   7.212 -0.5629  1.0269  0.2897
  362MOL0     H47748   1.019   4.060   7.089 -0.5101  0.3132 -0.2164
  362MOL0     H47749   0.796   4.156   7.128 -0.5241 -0.3278  0.4887
  362MOL0     H47750   0.628   4.300   7.217 -1.9260  2.7517  0.2813
  362MOL0     H47751   0.766   4.347   7.325  0.2388 -1.2665  0.3258
  362MOL0     H47752   0.581   4.495   7.351  0.8246 -0.3368 -0.1997
  362MOL0     H47753   0.605   4.404   7.504 -4.1589  0.4925  1.7762
  362MOL0     H47754   0.427   4.259   7.438 -0.7317  1.5517  3.8072
  362MOL0     H47755   0.387   4.370   7.300  1.4718 -0.3225 -1.0661
  362MOL0     H47756   0.386   4.451   7.604 -0.1392  5.2121  1.2613
  362MOL0     H47757   0.392   4.566   7.487  0.8761 -0.8431 -1.2933
  362MOL0     H47758   0.164   4.375   7.526 -0.2909  1.5550  3.6877
  362MOL0     H47759   0.183   4.476   7.380  2.3449  3.3918 -0.2440
  362MOL0     H47760   0.194   4.676   7.536 -1.1120  0.3609  3.0548
  362MOL0     H47761   0.175   4.557   7.674  0.0319  2.4539  2.0692
  362MOL0     H47762  -0.023   4.545   7.441  0.2967 -3.5226  0.6492
  362MOL0     H47763  -0.029   4.480   7.609 -3.6501  0.5388 -0.1111
  362MOL0     H47764  -0.173   4.688   7.552 -1.4940  1.4161  5.3007
  362MOL0     H47765  -0.018   4.773   7.513  0.8269 -1.8326 -1.5118
  362MOL0     H47766   0.773   3.984   7.511 -0.1916 -1.1749 -0.7033
  362MOL0     H47767   0.972   3.851   7.468  1.9582  0.7324 -0.6146
  362MOL0     H47768   1.521   3.974   7.197  3.3847 -0.4361  1.5022
  362MOL0     H47769   1.700   3.800   7.198  0.8421 -5.0944 -1.0479
  362MOL0     H47770   2.461   3.439   6.260  0.1514  4.1491 -0.7223
  362MOL0     H47771   2.581   3.563   6.115 -0.0982  0.9486 -0.8207
  362MOL0     H47772   2.814   3.552   5.730  3.1631 -0.1040  0.1525
  362MOL0     H47773   2.993   3.677   5.626 -0.8614 -1.6627 -0.1796
  362MOL0     H47774   3.042   3.823   5.435 -0.9020  1.7210 -0.9016
  362MOL0     H47775   3.168   3.867   5.553  1.9612  0.1121 -1.0081
  362MOL0     H47776   3.153   4.099   5.457  0.3615 -0.8599  1.2736
  362MOL0     H47777   3.218   3.986   5.342  0.5356  0.8139  0.6199
  362MOL0     H47778   3.059   4.102   5.210  0.0445 -1.6566 -1.1612
  362MOL0     H47779   2.955   4.126   5.339  2.5620  4.7233 -3.5935
  362MOL0     H47780   3.028   3.869   5.194  2.9907  2.5055  1.9818
  362MOL0     H47781   2.887   3.866   5.291 -0.9478 -0.3091 -0.8455
  362MOL0     H47782   2.696   4.032   4.973  1.2911  1.6877  0.2906
  362MOL0     H47783   2.744   4.042   5.641  0.8026 -1.0253 -0.4746
  362MOL0     H47784   2.560   3.898   5.740 -0.6666 -0.5498 -1.7562
  363MOL0     O47785   4.490   4.705  11.039  0.6063  0.4851 -0.1224
  363MOL0     C47786   4.465   4.591  11.086 -0.1585 -0.1169 -1.7117
  363MOL0     O47787   4.390   4.564  11.199  0.3555 -0.7272  0.7158
  363MOL0     C47788   4.343   4.658  11.283  0.6140  0.3004  0.3722
  363MOL0     C47789   4.332   4.624  11.415  0.0094  0.6040 -0.0058
  363MOL0     C47790   4.306   4.728  11.511 -0.6145  0.0321  0.2770
  363MOL0     C47791   4.267   4.847  11.466 -0.2614  0.5575  0.3538
  363MOL0     O47792   4.245   4.942  11.565 -0.0568 -0.1178  0.0276
  363MOL0     C47793   4.159   5.049  11.529  0.1045  0.1508 -0.1441
  363MOL0     C47794   4.113   5.135  11.643  0.6916 -0.4449 -0.4634
  363MOL0     C47795   4.015   5.234  11.581 -0.3647  0.1719  0.6106
  363MOL0     C47796   3.968   5.330  11.686  0.5026  0.5268  0.3405
  363MOL0     C47797   3.847   5.412  11.637  0.2537 -0.1303  0.5965
  363MOL0     C47798   3.820   5.525  11.737  0.0931 -0.0155 -0.1100
  363MOL0     C47799   3.786   5.473  11.887  0.7184  0.4279  0.0348
  363MOL0     C47800   3.734   5.583  11.986 -0.4517  0.4243 -0.2297
  363MOL0     N47801   3.837   5.679  12.010 -0.1817 -0.5743  0.0204
  363MOL0     C47802   3.876   5.788  11.930  0.2415 -0.5173 -0.3283
  363MOL0     C47803   4.001   5.822  11.973  0.1262 -0.0938 -0.0739
  363MOL0     C47804   4.080   5.938  11.909  0.2008  0.5559  0.0184
  363MOL0     C47805   4.216   5.903  11.863  0.6051 -0.4331  0.1744
  363MOL0     C47806   4.296   5.993  11.755 -0.0801 -0.4961  0.6366
  363MOL0     C47807   4.223   6.114  11.700  0.6260 -0.6096  0.4668
  363MOL0     O47808   4.247   6.217  11.786 -0.1224  0.0151 -0.7777
  363MOL0     C47809   4.174   6.332  11.769  0.6029  0.1425  0.9337
  363MOL0     C47810   4.201   6.432  11.861  1.4475  0.2740  0.2544
  363MOL0     C47811   4.133   6.553  11.852 -0.8562  0.6780 -0.2487
  363MOL0     C47812   4.059   6.591  11.747  0.0777  0.2985 -0.0089
  363MOL0     C47813   3.987   6.719  11.744 -0.3525  0.8706  1.3400
  363MOL0     O47814   3.898   6.747  11.640 -0.2733 -0.7567 -0.3741
  363MOL0     C47815   3.829   6.866  11.631 -0.4357 -0.3292  0.4378
  363MOL0     C47816   3.693   6.857  11.635 -0.7265  0.3064  0.7744
  363MOL0     C47817   3.608   6.959  11.626  0.4285 -0.9478  0.3097
  363MOL0     C47818   3.659   7.089  11.631  0.6563  0.7870  0.0576
  363MOL0     O47819   3.578   7.189  11.656  0.4422 -0.3130  1.2889
  363MOL0     C47820   3.612   7.282  11.763 -0.1942  0.3204 -0.1212
  363MOL0     C47821   3.555   7.421  11.735  1.1108  0.0888  0.4592
  363MOL0     C47822   3.414   7.416  11.780  0.4229  0.4527  0.7349
  363MOL0     C47823   3.347   7.557  11.803 -1.0203 -0.0976  0.6612
  363MOL0     C47824   3.200   7.536  11.843 -0.3256 -0.4011  0.0361
  363MOL0     C47825   3.176   7.479  11.978 -0.2620 -0.0544 -0.8607
  363MOL0     C47826   3.029   7.479  12.017  0.6286 -0.2170 -0.2412
  363MOL0     C47827   3.004   7.431  12.159  0.1464 -0.0439  0.0225
  363MOL0    Cl47828   3.089   7.531  12.280 -0.6327 -0.0632  0.4785
  363MOL0     C47829   3.795   7.105  11.632 -1.0437  0.2161 -0.4918
  363MOL0     C47830   3.886   6.995  11.637  0.6535  0.3141  0.4002
  363MOL0     O47831   4.016   6.802  11.830 -0.1685 -0.1787  0.3276
  363MOL0     C47832   4.024   6.496  11.648 -0.7811  0.5123 -0.6559
  363MOL0     C47833   4.080   6.366  11.663 -0.0881  1.7742 -0.3817
  363MOL0     N47834   4.031   5.742  12.084 -0.3801 -0.3896  0.6384
  363MOL0     N47835   3.941   5.651  12.095 -0.6642  0.0243 -0.0347
  363MOL0     C47836   4.248   4.874  11.325  0.4971 -0.6926  0.2365
  363MOL0     C47837   4.301   4.778  11.235  0.6362 -0.2750  0.0254
  363MOL0     C47838   4.523   4.469  11.018  0.2292  0.0272 -0.9981
  363MOL0     C47839   4.640   4.485  10.942 -0.2166 -0.8660 -0.4958
  363MOL0     C47840   4.683   4.377  10.866  1.2140  0.2459  0.7573
  363MOL0     C47841   4.605   4.263  10.848 -0.3739 -0.6260  0.6020
  363MOL0     O47842   4.641   4.158  10.763 -0.3701  0.2181  0.3952
  363MOL0     C47843   4.779   4.111  10.750  1.6901 -0.5345  0.6436
  363MOL0     C47844   4.785   3.967  10.785  0.1262 -0.0409 -0.2952
  363MOL0     C47845   4.745   3.935  10.931  0.4052  0.0110 -0.7316
  363MOL0     C47846   4.750   3.784  10.965  0.7918  0.1229  0.7283
  363MOL0     C47847   4.657   3.704  10.882  0.2743 -0.2528 -0.1615
  363MOL0     C47848   4.595   3.628  10.820  0.2558 -0.2244  0.9240
  363MOL0     C47849   4.493   4.245  10.925 -0.1146 -0.6313 -0.1697
  363MOL0     C47850   4.458   4.347  11.014  0.8394  0.2270 -0.0888
  363MOL0     H47851   4.362   4.521  11.432 -2.5341 -0.0516  1.0807
  363MOL0     H47852   4.322   4.713  11.617 -0.8075 -0.8875  0.1825
  363MOL0     H47853   4.064   5.005  11.499  0.5235 -0.2030 -0.9831
  363MOL0     H47854   4.197   5.108  11.445 -2.1130  0.7891 -0.7641
  363MOL0     H47855   4.204   5.185  11.679  0.6531 -0.9933  0.4141
  363MOL0     H47856   4.061   5.081  11.722 -5.5211  1.8663 -2.3837
  363MOL0     H47857   3.935   5.178  11.531 -0.3247 -0.9599  1.7633
  363MOL0     H47858   4.064   5.298  11.508 -2.2996  0.6123 -0.3677
  363MOL0     H47859   3.939   5.285  11.781 -3.5618  2.7000  0.3699
  363MOL0     H47860   4.041   5.405  11.715  1.0019  0.4068 -0.5494
  363MOL0     H47861   3.758   5.353  11.615  0.7589 -0.8298  0.4000
  363MOL0     H47862   3.873   5.472  11.550  2.4576  0.6735  1.7292
  363MOL0     H47863   3.734   5.576  11.693 -0.1111  0.9098  1.3223
  363MOL0     H47864   3.904   5.595  11.732  1.1617 -1.3315 -1.9017
  363MOL0     H47865   3.723   5.386  11.870 -0.1922  1.4116 -1.9559
  363MOL0     H47866   3.885   5.446  11.924  0.6898 -0.5725 -0.5854
  363MOL0     H47867   3.718   5.543  12.086 -0.3572 -0.1009 -0.4226
  363MOL0     H47868   3.645   5.632  11.945 -1.0822  1.8178  2.5795
  363MOL0     H47869   3.822   5.844  11.854  0.2957  2.2010  1.4902
  363MOL0     H47870   4.087   6.027  11.971  1.8287  0.5171 -0.0671
  363MOL0     H47871   4.029   5.981  11.822  2.3549  1.4315 -0.8766
  363MOL0     H47872   4.212   5.801  11.823 -0.5404 -0.6031  0.6827
  363MOL0     H47873   4.279   5.902  11.952 -0.7093 -0.0052  1.1418
  363MOL0     H47874   4.380   6.042  11.805 -1.3545  1.2312  1.1813
  363MOL0     H47875   4.333   5.935  11.671 -2.6194  0.6557 -1.4090
  363MOL0     H47876   4.115   6.099  11.686  0.8157 -2.2143  0.5621
  363MOL0     H47877   4.274   6.128  11.604  0.8491 -0.1591  0.6483
  363MOL0     H47878   4.254   6.412  11.953  1.1662  0.9980  0.5772
  363MOL0     H47879   4.162   6.607  11.942  2.3940  0.2131 -0.9120
  363MOL0     H47880   3.664   6.753  11.638  2.4273 -0.8269 -2.0258
  363MOL0     H47881   3.501   6.939  11.634  0.2497  0.4620  2.1679
  363MOL0     H47882   3.720   7.298  11.759 -0.4612  3.0583  1.3456
  363MOL0     H47883   3.577   7.237  11.856  0.5176 -3.0523 -1.3362
  363MOL0     H47884   3.579   7.440  11.630  2.8289 -2.9617  0.1899
  363MOL0     H47885   3.608   7.496  11.795  0.9268  0.8232 -0.2673
  363MOL0     H47886   3.405   7.355  11.871  2.5581  0.2603  0.8556
  363MOL0     H47887   3.362   7.363  11.700  0.2966 -0.8210  1.6294
  363MOL0     H47888   3.408   7.607  11.878  0.5440 -1.2424  0.1930
  363MOL0     H47889   3.361   7.616  11.712 -3.3245 -0.0173  0.2972
  363MOL0     H47890   3.138   7.481  11.772 -2.8091  0.7741  1.1645
  363MOL0     H47891   3.138   7.627  11.847 -2.1762 -1.4840 -1.7591
  363MOL0     H47892   3.227   7.539  12.054  3.2805  0.3449 -3.2829
  363MOL0     H47893   3.206   7.375  11.995 -4.4947 -1.0099  2.3920
  363MOL0     H47894   3.001   7.584  12.021  1.7253  0.0753  0.1626
  363MOL0     H47895   2.965   7.424  11.947 -0.0427 -1.1084  1.0442
  363MOL0     H47896   3.042   7.328  12.165  0.3864  0.0272 -0.2835
  363MOL0     H47897   2.899   7.419  12.186 -0.4962 -1.6484 -2.8096
  363MOL0     H47898   3.843   7.202  11.625 -0.9189  0.1553 -0.4828
  363MOL0     H47899   3.993   7.004  11.623  0.3581  2.6774 -1.0120
  363MOL0     H47900   3.955   6.514  11.566  0.4569 -0.4980 -1.9758
  363MOL0     H47901   4.055   6.291  11.588 -2.9594 -0.5573  2.5607
  363MOL0     H47902   4.218   4.975  11.297  1.2475 -0.2895  0.8285
  363MOL0     H47903   4.302   4.791  11.127 -4.0766 -0.9153 -0.3022
  363MOL0     H47904   4.685   4.584  10.936  1.5847 -1.7372 -2.7478
  363MOL0     H47905   4.765   4.380  10.795 -1.6066 -0.5239 -2.8570
  363MOL0     H47906   4.847   4.171  10.812 -1.2103  1.5507  2.0892
  363MOL0     H47907   4.800   4.121  10.643 -3.0220 -0.7212 -0.4937
  363MOL0     H47908   4.718   3.923  10.711 -0.5388  2.1116 -1.0491
  363MOL0     H47909   4.887   3.931  10.769  0.5027 -1.0203  3.4190
  363MOL0     H47910   4.653   3.978  10.971  1.6899 -0.9996  3.9204
  363MOL0     H47911   4.823   3.975  10.997 -0.1475  0.9050 -0.6084
  363MOL0     H47912   4.851   3.758  10.933  0.9650  3.0031 -1.4846
  363MOL0     H47913   4.731   3.756  11.070 -1.3877 -2.2823 -0.2008
  363MOL0     H47914   4.567   3.545  10.760  3.3518 -3.6378  3.7256
  363MOL0     H47915   4.439   4.151  10.919  0.0942 -0.7793  0.2180
  363MOL0     H47916   4.366   4.330  11.070 -0.1968  2.6347 -0.9181
  364MOL0     O47917  11.063   0.631   9.137 -0.1573  0.9896 -0.0538
  364MOL0     C47918  11.042   0.719   9.214  0.1899  0.5483 -0.8669
  364MOL0     O47919  10.933   0.812   9.199  0.3973  0.4996 -0.9213
  364MOL0     C47920  10.848   0.813   9.096  0.4512  0.2759 -0.2859
  364MOL0     C47921  10.717   0.851   9.119 -0.5863 -0.5275 -0.5283
  364MOL0     C47922  10.625   0.867   9.025  0.1252 -1.0173  0.3030
  364MOL0     C47923  10.658   0.855   8.890  0.5436  0.3169  0.1206
  364MOL0     O47924  10.563   0.873   8.784 -0.5294  0.0826  0.4481
  364MOL0     C47925  10.468   0.772   8.778  0.8396 -0.0379  0.7051
  364MOL0     C47926  10.348   0.837   8.717 -0.4136  0.8887 -0.4848
  364MOL0     C47927  10.219   0.747   8.730 -0.3110 -0.2120  0.2948
  364MOL0     C47928  10.100   0.803   8.653 -0.2241  0.2099 -0.0467
  364MOL0     C47929   9.969   0.727   8.647  0.2547 -0.5640 -0.4947
  364MOL0     C47930   9.912   0.698   8.784 -0.3481  0.6030  0.1522
  364MOL0     C47931   9.980   0.565   8.835  0.0299 -0.1015  0.2342
  364MOL0     C47932   9.957   0.543   8.985 -1.3381  0.1756 -0.1721
  364MOL0     N47933  10.045   0.438   9.030  0.1073  0.2197 -0.2540
  364MOL0     C47934  10.030   0.301   9.012 -0.2287  0.4178 -0.3562
  364MOL0     C47935  10.078   0.241   9.122 -0.7079  0.8203 -0.3012
  364MOL0     C47936  10.066   0.090   9.147 -0.1523  0.4200  0.4833
  364MOL0     C47937  10.165   0.012   9.066 -0.0319  0.1777  0.3151
  364MOL0     C47938  10.314   0.022   9.093  0.4611  0.1693  0.2868
  364MOL0     C47939  10.397  -0.066   8.991 -0.1169 -0.2941  0.3925
  364MOL0     O47940  10.388  -0.025   8.854  0.1078  0.2380 -0.0490
  364MOL0     C47941  10.398  -0.123   8.762  0.4880 -0.9602  0.1249
  364MOL0     C47942  10.469  -0.245   8.779  0.0177  0.2481 -0.1709
  364MOL0     C47943  10.482  -0.327   8.668 -0.1901  0.1758 -0.4928
  364MOL0     C47944  10.432  -0.286   8.538  0.7867 -0.3504 -0.8826
  364MOL0     C47945  10.454  -0.370   8.417 -0.0632  0.4414  0.0793
  364MOL0     O47946  10.437  -0.310   8.293  0.5472 -0.6216  0.4230
  364MOL0     C47947  10.451  -0.386   8.179  0.3683 -0.3046  0.0706
  364MOL0     C47948  10.343  -0.392   8.099 -0.0463 -0.2538 -0.0767
  364MOL0     C47949  10.328  -0.475   7.987 -0.8211  0.4975  0.3507
  364MOL0     C47950  10.435  -0.555   7.947  0.0081 -0.0252  0.3502
  364MOL0     O47951  10.413  -0.648   7.850 -0.2967 -0.0804  0.3472
  364MOL0     C47952  10.482  -0.604   7.730 -0.0274  0.5568 -0.0811
  364MOL0     C47953  10.435  -0.467   7.669  0.3744 -0.1709 -0.5341
  364MOL0     C47954  10.310  -0.486   7.582  0.1244 -0.4001 -0.3672
  364MOL0     C47955  10.256  -0.350   7.541 -0.2666 -0.7013  0.3611
  364MOL0     C47956  10.135  -0.352   7.452  0.4275  0.4608  0.0504
  364MOL0     C47957  10.026  -0.244   7.497  0.6663  0.1756 -0.5959
  364MOL0     C47958   9.881  -0.278   7.434 -0.6169  0.7990  0.9139
  364MOL0     C47959   9.809  -0.404   7.478 -0.8986 -0.4731  0.7395
  364MOL0    Cl47960   9.630  -0.389   7.421 -0.0294 -0.7619 -0.2929
  364MOL0     C47961  10.544  -0.566   8.037  0.2937  0.0001  0.2959
  364MOL0     C47962  10.556  -0.476   8.148 -0.8579  0.8000 -0.7514
  364MOL0     O47963  10.472  -0.492   8.438  0.2749  0.2782 -0.0151
  364MOL0     C47964  10.372  -0.162   8.531  0.5810 -0.6033  0.8725
  364MOL0     C47965  10.338  -0.084   8.644  0.0674 -0.4460 -0.5828
  364MOL0     N47966  10.151   0.339   9.191 -0.7871 -0.3332 -0.2047
  364MOL0     N47967  10.128   0.449   9.136 -0.3481 -1.1761  0.7566
  364MOL0     C47968  10.788   0.809   8.861  0.2534  0.6018 -0.3242
  364MOL0     C47969  10.885   0.800   8.960 -0.6792  0.0847 -0.3736
  364MOL0     C47970  11.128   0.722   9.339  0.8778  0.2084  0.7167
  364MOL0     C47971  11.233   0.634   9.358  0.2904 -0.9829 -0.3082
  364MOL0     C47972  11.297   0.618   9.487  1.6580  0.5826 -0.1847
  364MOL0     C47973  11.249   0.707   9.586 -0.4221  0.3409 -0.0531
  364MOL0     O47974  11.297   0.731   9.713 -0.0473  0.3767  0.5849
  364MOL0     C47975  11.396   0.635   9.758 -0.9566 -1.3466  0.3801
  364MOL0     C47976  11.332   0.496   9.776 -0.2521 -0.0822  0.1847
  364MOL0     C47977  11.324   0.451   9.929 -0.0377 -0.5238 -0.5130
  364MOL0     C47978  11.224   0.545   9.997 -0.3261  0.3347  0.2431
  364MOL0     C47979  11.232   0.500  10.139 -0.5497  1.1162  0.0351
  364MOL0     C47980  11.247   0.471  10.255 -0.8717  0.0578 -0.4445
  364MOL0     C47981  11.151   0.796   9.557 -0.2744  0.6798  0.0021
  364MOL0     C47982  11.088   0.804   9.437 -0.2930  0.1833 -0.2005
  364MOL0     H47983  10.685   0.878   9.219  0.4967  1.7497 -0.7395
  364MOL0     H47984  10.519   0.881   9.048  0.1931  0.1896 -0.0169
  364MOL0     H47985  10.430   0.740   8.875 -1.0728 -0.4105 -0.1376
  364MOL0     H47986  10.493   0.696   8.703 -0.8509  0.6523 -0.6319
  364MOL0     H47987  10.377   0.849   8.612 -0.3923 -1.0003 -0.7296
  364MOL0     H47988  10.330   0.933   8.767  1.1033  1.5357 -1.1176
  364MOL0     H47989  10.191   0.738   8.836 -2.7634 -2.0970 -0.4096
  364MOL0     H47990  10.255   0.650   8.694 -0.0875 -0.5744  1.4504
  364MOL0     H47991  10.078   0.905   8.685 -1.1782  0.9482 -2.7952
  364MOL0     H47992  10.138   0.815   8.551  2.8990 -1.9273  0.7270
  364MOL0     H47993   9.981   0.633   8.593  4.3865 -0.0080 -0.9406
  364MOL0     H47994   9.901   0.796   8.597  0.8591  0.3899 -0.0307
  364MOL0     H47995   9.803   0.692   8.789 -0.2251 -1.7877  1.4954
  364MOL0     H47996   9.924   0.772   8.864 -2.7198 -1.5034  2.6835
  364MOL0     H47997   9.931   0.487   8.776 -2.4840  1.5870 -0.0820
  364MOL0     H47998  10.085   0.553   8.807 -0.0604 -0.9388  0.2294
  364MOL0     H47999   9.854   0.510   9.000 -0.4327 -1.8151  2.5038
  364MOL0     H48000   9.967   0.637   9.039  0.0073  0.4273 -0.8191
  364MOL0     H48001   9.971   0.255   8.934  1.6810  0.6524 -2.0271
  364MOL0     H48002   9.969   0.054   9.110  0.2481  2.2057 -2.6523
  364MOL0     H48003  10.075   0.066   9.253 -0.8684 -2.2734 -0.0020
  364MOL0     H48004  10.146   0.043   8.962  2.6448 -0.3979 -0.4230
  364MOL0     H48005  10.139  -0.091   9.089 -1.4217 -0.0122 -1.7714
  364MOL0     H48006  10.349   0.125   9.080 -3.0791  1.4642  0.0119
  364MOL0     H48007  10.327  -0.012   9.196  0.7661 -3.0072 -0.7055
  364MOL0     H48008  10.355  -0.166   8.999 -0.3570 -0.1928  0.3800
  364MOL0     H48009  10.499  -0.094   9.020 -0.1501 -0.8139  0.0211
  364MOL0     H48010  10.528  -0.269   8.866 -0.8193  0.4356  0.4602
  364MOL0     H48011  10.531  -0.421   8.692  0.0482  0.5515  0.5296
  364MOL0     H48012  10.264  -0.318   8.111  0.3160  0.4876 -1.8297
  364MOL0     H48013  10.242  -0.469   7.921 -0.7846  2.1304  0.3974
  364MOL0     H48014  10.468  -0.681   7.654 -1.5021  2.1842 -1.5356
  364MOL0     H48015  10.591  -0.601   7.746  0.5838 -1.0531 -3.2818
  364MOL0     H48016  10.511  -0.422   7.606  0.3044 -0.6160 -0.9451
  364MOL0     H48017  10.409  -0.392   7.744 -0.4703 -1.8483  0.9438
  364MOL0     H48018  10.239  -0.541   7.644 -1.4885 -1.6297 -3.1223
  364MOL0     H48019  10.327  -0.556   7.500  2.4063 -1.2336  0.7226
  364MOL0     H48020  10.240  -0.295   7.634 -1.0756  0.1035 -0.2314
  364MOL0     H48021  10.331  -0.294   7.484 -0.6527  0.8894  1.3633
  364MOL0     H48022  10.084  -0.448   7.437 -2.5215  1.9705 -0.4548
  364MOL0     H48023  10.158  -0.330   7.348 -1.7947  1.2096 -0.3521
  364MOL0     H48024  10.061  -0.144   7.469 -0.8732 -0.3871 -5.6782
  364MOL0     H48025  10.017  -0.243   7.606  1.2196 -0.1288 -0.5439
  364MOL0     H48026   9.817  -0.189   7.440 -1.3964  0.4550 -1.1127
  364MOL0     H48027   9.900  -0.288   7.327 -4.1164 -0.3502  0.2386
  364MOL0     H48028   9.816  -0.406   7.588  0.1844 -0.6239  0.6865
  364MOL0     H48029   9.853  -0.499   7.445 -0.6638  0.1974 -0.9562
  364MOL0     H48030  10.617  -0.645   8.027  1.0969  0.3536  2.6441
  364MOL0     H48031  10.643  -0.499   8.209  1.6586 -1.7850 -4.8094
  364MOL0     H48032  10.339  -0.128   8.433  3.2669  0.4873  0.2438
  364MOL0     H48033  10.259  -0.010   8.629 -1.4690 -1.9708 -0.2682
  364MOL0     H48034  10.802   0.786   8.755  0.1960  1.8449 -0.6134
  364MOL0     H48035  10.983   0.769   8.927 -0.9740 -1.0736 -0.2135
  364MOL0     H48036  11.263   0.583   9.267 -1.8194 -0.0351 -1.5892
  364MOL0     H48037  11.377   0.546   9.504  1.4108 -0.2476 -2.2624
  364MOL0     H48038  11.431   0.679   9.852 -0.5427 -0.5931 -0.1148
  364MOL0     H48039  11.480   0.633   9.689  0.9509  0.7078  2.4508
  364MOL0     H48040  11.232   0.487   9.734 -1.6467 -0.3534  3.3081
  364MOL0     H48041  11.398   0.422   9.728 -1.0106 -2.7828  2.9776
  364MOL0     H48042  11.422   0.446   9.977 -0.0303 -3.5717 -0.6788
  364MOL0     H48043  11.287   0.349   9.938 -1.0804 -0.2398 -1.3881
  364MOL0     H48044  11.257   0.649  10.002  1.7063 -0.3160  1.8416
  364MOL0     H48045  11.126   0.532   9.950  0.1332 -0.0597 -0.6318
  364MOL0     H48046  11.266   0.469  10.360 -3.8857 -1.1797  0.1983
  364MOL0     H48047  11.124   0.860   9.640  1.4403 -2.3951  3.2101
  364MOL0     H48048  11.007   0.877   9.429  1.4369  2.1071 -1.0401
  365MOL0     O48049   7.279   6.472   9.443  0.1868  0.2149 -0.3966
  365MOL0     C48050   7.315   6.367   9.397 -0.0267  0.3540 -0.0200
  365MOL0     O48051   7.432   6.351   9.323  0.4502 -0.1903  0.2751
  365MOL0     C48052   7.529   6.442   9.335  0.6343  0.1177  0.4273
  365MOL0     C48053   7.656   6.411   9.385 -0.4664  0.3899 -0.5727
  365MOL0     C48054   7.764   6.505   9.384  0.3896 -1.2131  0.7196
  365MOL0     C48055   7.747   6.633   9.335  0.4055  0.4805  0.0459
  365MOL0     O48056   7.869   6.702   9.335 -0.5268 -0.5450  0.3836
  365MOL0     C48057   7.873   6.836   9.270 -0.2175 -0.6240 -0.4729
  365MOL0     C48058   7.843   6.954   9.366  0.2411 -1.0379 -0.9578
  365MOL0     C48059   7.909   7.077   9.306 -0.2416  0.0610 -0.1581
  365MOL0     C48060   7.923   7.176   9.420  0.8736 -0.2367  0.0129
  365MOL0     C48061   7.993   7.298   9.365 -0.1223  0.6845  0.6467
  365MOL0     C48062   8.034   7.411   9.473 -0.1631  0.6601 -0.9230
  365MOL0     C48063   8.152   7.380   9.569  0.0970  0.3297 -0.2214
  365MOL0     C48064   8.296   7.401   9.509 -0.2746 -0.3912  0.3836
  365MOL0     N48065   8.367   7.278   9.481 -0.0190  0.2480 -0.2419
  365MOL0     C48066   8.452   7.220   9.571 -1.6010  0.4504  0.2750
  365MOL0     C48067   8.522   7.123   9.496 -0.4519 -0.8581  0.1560
  365MOL0     C48068   8.645   7.049   9.551 -0.5593  0.3272  0.7559
  365MOL0     C48069   8.643   7.044   9.702 -0.2956  0.1504 -0.7945
  365MOL0     C48070   8.769   6.972   9.749  0.0200 -0.4823 -0.8157
  365MOL0     C48071   8.772   6.948   9.901 -0.4236  0.1932  0.9448
  365MOL0     O48072   8.654   6.877   9.936  0.4809  0.7134 -0.1841
  365MOL0     C48073   8.659   6.820  10.063 -0.2700  0.1263 -1.0144
  365MOL0     C48074   8.561   6.730  10.090  0.3957  0.0247  0.1686
  365MOL0     C48075   8.555   6.667  10.208 -0.4565  0.4204 -0.8041
  365MOL0     C48076   8.642   6.694  10.316  0.6427 -0.4107  0.9635
  365MOL0     C48077   8.633   6.627  10.454  0.7954  0.0868  1.0069
  365MOL0     O48078   8.553   6.516  10.463  0.4115 -0.0281  0.0491
  365MOL0     C48079   8.525   6.470  10.592 -0.8381 -0.4044  0.4597
  365MOL0     C48080   8.605   6.361  10.627  0.0399  0.3328 -0.6233
  365MOL0     C48081   8.581   6.289  10.742  0.0533  0.0485 -0.2358
  365MOL0     C48082   8.481   6.344  10.832 -0.3804 -0.9218 -0.4024
  365MOL0     O48083   8.482   6.290  10.959  0.5892 -0.1914 -0.1393
  365MOL0     C48084   8.482   6.389  11.068  0.0418  0.7600 -0.0441
  365MOL0     C48085   8.351   6.378  11.146 -0.0033 -0.0542 -0.2373
  365MOL0     C48086   8.356   6.403  11.303  0.2596 -0.5123 -0.6310
  365MOL0     C48087   8.235   6.327  11.365 -0.0625 -0.0980  0.0706
  365MOL0     C48088   8.200   6.372  11.508 -0.5142  0.0985  0.5105
  365MOL0     C48089   8.078   6.301  11.574 -0.5179 -0.0595 -0.2228
  365MOL0     C48090   7.955   6.384  11.534  0.3447 -0.2591  0.1382
  365MOL0     C48091   7.832   6.318  11.601  1.4358  0.6586  0.0939
  365MOL0    Cl48092   7.683   6.386  11.522 -0.1206  0.2078  0.0228
  365MOL0     C48093   8.394   6.443  10.783  0.4623  0.5810 -1.3137
  365MOL0     C48094   8.410   6.509  10.665  0.4512  0.7262  0.9985
  365MOL0     O48095   8.676   6.690  10.545 -0.1379 -0.3207 -0.1549
  365MOL0     C48096   8.748   6.779  10.290 -0.5253 -0.0722  0.6807
  365MOL0     C48097   8.758   6.850  10.166 -0.3518 -0.2859  0.0955
  365MOL0     N48098   8.472   7.131   9.374  0.1430  0.3606 -0.8212
  365MOL0     N48099   8.375   7.216   9.365 -1.1189  0.2055  0.8299
  365MOL0     C48100   7.618   6.666   9.290 -0.8189  0.2688  0.1476
  365MOL0     C48101   7.515   6.572   9.286  0.0504  0.3699 -0.2550
  365MOL0     C48102   7.237   6.239   9.408 -0.3438 -1.1724 -1.2271
  365MOL0     C48103   7.097   6.250   9.446  0.1923  0.1083  0.2381
  365MOL0     C48104   7.017   6.129   9.463  0.3299  0.7388  0.1458
  365MOL0     C48105   7.075   6.003   9.443 -0.3769  0.5024 -0.4015
  365MOL0     O48106   6.998   5.885   9.460 -0.2801  0.1654  0.5610
  365MOL0     C48107   7.065   5.759   9.457  0.4284  0.7807  1.0872
  365MOL0     C48108   6.951   5.653   9.471 -0.7617 -0.6415 -0.3685
  365MOL0     C48109   7.005   5.510   9.484 -0.0633 -0.2627  0.7679
  365MOL0     C48110   6.901   5.408   9.418  0.1452  0.7290  0.4546
  365MOL0     C48111   6.782   5.410   9.497 -0.1030  0.6267  0.3268
  365MOL0     C48112   6.680   5.412   9.567 -0.5069  0.3927  0.3513
  365MOL0     C48113   7.213   5.988   9.421  0.4104 -0.6852 -0.1779
  365MOL0     C48114   7.289   6.107   9.398 -0.7090  0.2661 -0.3312
  365MOL0     H48115   7.680   6.314   9.425 -1.6053  0.1777 -0.3594
  365MOL0     H48116   7.862   6.466   9.411  0.7691 -0.3857  0.5575
  365MOL0     H48117   7.807   6.829   9.183 -0.4126 -2.3429 -0.2159
  365MOL0     H48118   7.975   6.853   9.234 -0.0426  1.9699  1.0049
  365MOL0     H48119   7.884   6.937   9.466 -0.4950 -1.6709 -0.7589
  365MOL0     H48120   7.737   6.976   9.376  0.5996  0.2727  0.3156
  365MOL0     H48121   7.865   7.107   9.210  3.8636 -1.5841 -2.7757
  365MOL0     H48122   8.013   7.048   9.292 -0.8916 -3.2409  1.0443
  365MOL0     H48123   7.825   7.211   9.453  1.8928  2.7794  0.1217
  365MOL0     H48124   7.975   7.133   9.506  2.3562  1.3744 -0.0212
  365MOL0     H48125   7.929   7.342   9.289 -2.3605 -1.2654  1.2613
  365MOL0     H48126   8.084   7.258   9.319 -0.4052 -1.5644  1.8959
  365MOL0     H48127   7.948   7.434   9.536 -0.2274 -0.1494 -0.7058
  365MOL0     H48128   8.063   7.501   9.417 -0.1855  2.3455  1.6066
  365MOL0     H48129   8.144   7.458   9.646  2.2271  0.4633 -0.0821
  365MOL0     H48130   8.136   7.285   9.623 -6.0543  0.3117 -1.3222
  365MOL0     H48131   8.364   7.460   9.572  0.2983  1.4719 -1.8185
  365MOL0     H48132   8.276   7.455   9.416 -0.6329  0.2785  0.8431
  365MOL0     H48133   8.477   7.264   9.667  0.5332  3.4714 -1.4850
  365MOL0     H48134   8.739   7.093   9.519  1.1652 -2.7189  1.2820
  365MOL0     H48135   8.641   6.948   9.509 -2.5367  0.1136  1.3358
  365MOL0     H48136   8.556   6.990   9.739  0.4087 -0.0853  0.5659
  365MOL0     H48137   8.649   7.140   9.753  1.4930 -0.3762  0.0740
  365MOL0     H48138   8.775   6.872   9.705 -1.9962 -1.2273  0.4358
  365MOL0     H48139   8.861   7.026   9.727 -0.3092 -0.3141 -1.8125
  365MOL0     H48140   8.777   7.045   9.951 -0.6275  0.8753 -0.3347
  365MOL0     H48141   8.860   6.884   9.913 -0.2878 -0.7203 -3.3503
  365MOL0     H48142   8.498   6.691  10.011 -0.8397  0.1225  1.0960
  365MOL0     H48143   8.466   6.604  10.208 -0.0660 -0.1976  0.9260
  365MOL0     H48144   8.689   6.321  10.570  0.5769 -0.3938  0.6234
  365MOL0     H48145   8.643   6.208  10.778 -1.1859 -1.6302 -1.7447
  365MOL0     H48146   8.498   6.493  11.036 -0.8006  0.9028 -0.0370
  365MOL0     H48147   8.556   6.361  11.143 -1.6610  0.9918  1.8069
  365MOL0     H48148   8.305   6.280  11.130  1.7771 -0.6071 -2.4185
  365MOL0     H48149   8.291   6.455  11.097 -0.4739  0.7887  1.5792
  365MOL0     H48150   8.346   6.511  11.315 -5.1845 -0.5430 -2.2415
  365MOL0     H48151   8.446   6.372  11.356 -0.9070 -0.8204  1.2426
  365MOL0     H48152   8.150   6.344  11.299 -0.9314  0.3470  1.2760
  365MOL0     H48153   8.264   6.222  11.372  0.4637  0.0206 -0.1942
  365MOL0     H48154   8.176   6.479  11.502 -2.0178 -0.2788 -0.8170
  365MOL0     H48155   8.282   6.351  11.578 -1.4528 -2.6356  0.8877
  365MOL0     H48156   8.095   6.311  11.682 -0.8134  1.9725 -0.3280
  365MOL0     H48157   8.068   6.193  11.559  0.1795 -0.4432  1.7502
  365MOL0     H48158   7.961   6.488  11.569 -0.1206  0.2512 -1.2622
  365MOL0     H48159   7.934   6.384  11.427  0.1681 -2.8790  0.1170
  365MOL0     H48160   7.821   6.336  11.708  0.1532 -1.9661  0.4850
  365MOL0     H48161   7.828   6.210  11.584  2.0340  0.5466  0.6293
  365MOL0     H48162   8.312   6.470  10.848  0.9003  0.4098 -0.6711
  365MOL0     H48163   8.339   6.582  10.627 -1.4562 -0.3397  2.3581
  365MOL0     H48164   8.818   6.799  10.371  0.3357  0.4409 -0.1705
  365MOL0     H48165   8.847   6.907  10.140 -2.0576  2.7394  0.3894
  365MOL0     H48166   7.601   6.759   9.237  1.3068  0.6467  0.0161
  365MOL0     H48167   7.419   6.609   9.251 -1.1138 -0.8876  1.4026
  365MOL0     H48168   7.057   6.351   9.455  0.0902  0.2007 -1.0524
  365MOL0     H48169   6.911   6.133   9.486 -0.5112  1.2805 -3.2408
  365MOL0     H48170   7.139   5.745   9.536  1.0641  0.3718  0.4248
  365MOL0     H48171   7.122   5.756   9.364  0.9801 -1.2218  1.4374
  365MOL0     H48172   6.896   5.679   9.562  0.7760  1.3359  0.0746
  365MOL0     H48173   6.874   5.670   9.394 -0.2195  4.0694 -0.1959
  365MOL0     H48174   7.011   5.490   9.591 -0.2361  1.0866  1.0427
  365MOL0     H48175   7.102   5.486   9.440 -0.2162 -1.4680  1.0524
  365MOL0     H48176   6.887   5.433   9.313  0.0340 -4.2602 -0.9655
  365MOL0     H48177   6.942   5.307   9.413  0.5236  0.8620  0.7651
  365MOL0     H48178   6.593   5.419   9.629  0.0622  0.8557  1.1129
  365MOL0     H48179   7.261   5.891   9.407  0.0413 -1.0465  0.9075
  365MOL0     H48180   7.392   6.098   9.366 -0.4185  1.3741  0.2275
  366MOL0     O48181   7.193   5.223   6.080 -0.8850 -0.1675 -0.3405
  366MOL0     C48182   7.247   5.140   6.009  0.4724 -0.3593  0.3337
  366MOL0     O48183   7.190   5.090   5.892 -0.3352 -0.6804  0.0161
  366MOL0     C48184   7.061   5.062   5.897  0.3200  0.3089  1.1099
  366MOL0     C48185   7.026   4.927   5.916 -0.8950 -0.4084 -0.4127
  366MOL0     C48186   6.891   4.889   5.936  0.6138 -0.0289 -0.3768
  366MOL0     C48187   6.789   4.988   5.929 -0.6731 -0.2873 -0.4085
  366MOL0     O48188   6.656   4.959   5.934 -0.4748  0.1724  0.2862
  366MOL0     C48189   6.607   4.909   5.804  0.4231  0.2210  0.4028
  366MOL0     C48190   6.469   4.858   5.834 -0.6554  0.1139 -0.4168
  366MOL0     C48191   6.413   4.802   5.705  0.7242 -1.0191  0.4281
  366MOL0     C48192   6.281   4.726   5.737  0.0638  0.8355 -0.4787
  366MOL0     C48193   6.191   4.707   5.615  0.1191 -0.2575 -0.3345
  366MOL0     C48194   6.119   4.831   5.545 -0.5109 -0.1038 -0.2712
  366MOL0     C48195   6.016   4.781   5.448 -0.3312 -0.8583  0.0308
  366MOL0     C48196   5.891   4.709   5.511 -0.4047 -0.4627 -0.0180
  366MOL0     N48197   5.781   4.688   5.410  0.1300 -0.2291  0.2081
  366MOL0     C48198   5.714   4.568   5.395  0.4147 -0.3229  0.2560
  366MOL0     C48199   5.620   4.604   5.304  0.0838 -0.1018 -0.8448
  366MOL0     C48200   5.521   4.513   5.236  0.8834  0.0188 -0.6196
  366MOL0     C48201   5.376   4.558   5.272  0.2489  0.4689  0.0656
  366MOL0     C48202   5.315   4.642   5.168 -0.2147 -0.8321 -0.5423
  366MOL0     C48203   5.171   4.656   5.196  0.3615  0.1314  0.0985
  366MOL0     O48204   5.094   4.542   5.158  0.2431  0.5787 -0.1832
  366MOL0     C48205   4.957   4.555   5.183 -1.1366  0.7765 -0.3055
  366MOL0     C48206   4.886   4.660   5.246  1.0350  0.0483  0.3083
  366MOL0     C48207   4.745   4.656   5.250  0.6833 -0.0903 -0.2216
  366MOL0     C48208   4.668   4.550   5.205 -0.0800 -0.0444  0.1118
  366MOL0     C48209   4.520   4.560   5.225 -0.0511  0.1348 -0.1610
  366MOL0     O48210   4.462   4.679   5.215 -0.3719  0.4458  0.2201
  366MOL0     C48211   4.324   4.684   5.228 -0.1451 -0.0114 -0.4438
  366MOL0     C48212   4.242   4.692   5.118  0.5213 -0.4560  0.3144
  366MOL0     C48213   4.105   4.682   5.122  0.0773 -0.6866  0.0992
  366MOL0     C48214   4.034   4.682   5.248 -0.1745  0.4418  0.2643
  366MOL0     O48215   3.897   4.694   5.255  0.8237 -0.0499  0.2226
  366MOL0     C48216   3.819   4.660   5.135 -0.9824  0.4525 -0.8463
  366MOL0     C48217   3.668   4.671   5.169 -0.2775  0.6610  0.4293
  366MOL0     C48218   3.637   4.816   5.206 -0.6952  0.5081 -1.2830
  366MOL0     C48219   3.501   4.814   5.272 -1.1831 -0.1572 -0.3126
  366MOL0     C48220   3.484   4.954   5.341  0.6967  0.0979 -0.0568
  366MOL0     C48221   3.354   4.959   5.409 -0.1139  0.3961  0.5422
  366MOL0     C48222   3.315   5.096   5.462 -0.4720 -0.4511 -0.1280
  366MOL0     C48223   3.185   5.106   5.538 -0.7505 -0.1858  0.3478
  366MOL0    Cl48224   3.050   5.102   5.421  0.0182 -0.1779 -0.2538
  366MOL0     C48225   4.119   4.671   5.361 -0.5036 -0.4814  0.0858
  366MOL0     C48226   4.262   4.674   5.357 -0.0073  0.0234 -1.0439
  366MOL0     O48227   4.463   4.452   5.225  0.2853  0.1065 -0.7691
  366MOL0     C48228   4.742   4.445   5.144  0.1647 -0.2765  0.9677
  366MOL0     C48229   4.882   4.449   5.134 -0.7180  0.3440 -0.3478
  366MOL0     N48230   5.621   4.743   5.277 -1.0295 -0.5398 -0.3676
  366MOL0     N48231   5.726   4.783   5.336 -0.3350  0.1437  0.4055
  366MOL0     C48232   6.824   5.122   5.906  0.2790 -0.5605  0.3251
  366MOL0     C48233   6.958   5.163   5.902  0.2224  0.5512  0.2540
  366MOL0     C48234   7.394   5.107   6.038  0.7698  0.8086  0.4114
  366MOL0     C48235   7.476   5.181   6.120 -0.5482  1.2359  0.0333
  366MOL0     C48236   7.612   5.143   6.135  0.4426 -0.4775 -0.9183
  366MOL0     C48237   7.666   5.041   6.064 -0.5627 -0.6543 -0.0220
  366MOL0     O48238   7.804   5.021   6.087  0.5255 -0.5369  0.0167
  366MOL0     C48239   7.869   4.901   6.048 -0.2283 -0.3618 -0.1994
  366MOL0     C48240   8.011   4.888   6.100  0.4429  0.4415 -0.6456
  366MOL0     C48241   8.032   4.925   6.251  0.0879 -0.2327 -0.3048
  366MOL0     C48242   8.177   4.942   6.295 -0.0906 -0.1222  1.0642
  366MOL0     C48243   8.245   4.815   6.305 -0.2068  0.1958  0.3212
  366MOL0     C48244   8.311   4.716   6.314 -0.5724  0.4412 -0.2111
  366MOL0     C48245   7.587   4.974   5.972 -0.4582  0.8582  0.1888
  366MOL0     C48246   7.450   5.000   5.970 -0.6316 -0.0886 -0.4473
  366MOL0     H48247   7.100   4.847   5.914 -1.5797 -1.2689  3.0578
  366MOL0     H48248   6.857   4.788   5.953 -1.0174  0.6911  0.9448
  366MOL0     H48249   6.667   4.823   5.774  1.2091  1.5635 -2.2034
  366MOL0     H48250   6.608   4.983   5.723  1.0344  0.2453  0.4228
  366MOL0     H48251   6.408   4.941   5.870  1.0852  1.3556 -0.2186
  366MOL0     H48252   6.474   4.780   5.910 -2.0021 -0.0833 -0.5121
  366MOL0     H48253   6.485   4.744   5.645  1.8741 -1.6866  2.3692
  366MOL0     H48254   6.379   4.889   5.647  2.1129 -0.3264  0.5901
  366MOL0     H48255   6.312   4.627   5.771  1.3077  1.1762 -0.5776
  366MOL0     H48256   6.243   4.777   5.826 -1.2887  1.2508 -1.2522
  366MOL0     H48257   6.113   4.642   5.655 -0.9515  0.9232 -0.4273
  366MOL0     H48258   6.254   4.653   5.543  1.4526  0.0791  0.5309
  366MOL0     H48259   6.192   4.897   5.497  0.3517  0.1448  1.3159
  366MOL0     H48260   6.074   4.899   5.618  2.7757  1.2837  0.6567
  366MOL0     H48261   5.987   4.876   5.400  1.5824 -0.0706  0.3666
  366MOL0     H48262   6.065   4.723   5.369  0.1699 -2.0560  1.1841
  366MOL0     H48263   5.853   4.772   5.592 -0.8109 -0.5956 -0.1075
  366MOL0     H48264   5.935   4.615   5.547  1.8001 -0.2850 -1.9991
  366MOL0     H48265   5.748   4.466   5.406 -0.3857 -0.9300 -2.2686
  366MOL0     H48266   5.525   4.414   5.283  1.1406 -0.3876 -1.4861
  366MOL0     H48267   5.545   4.492   5.131  0.9219 -1.1893 -0.3859
  366MOL0     H48268   5.384   4.600   5.373 -0.6183 -1.7694  1.1134
  366MOL0     H48269   5.317   4.470   5.297  0.2094  0.4827  0.0221
  366MOL0     H48270   5.361   4.741   5.171  0.8344 -1.3120  1.5997
  366MOL0     H48271   5.335   4.605   5.067  3.5507 -2.7673  0.7146
  366MOL0     H48272   5.145   4.742   5.133  3.1441  1.4048  0.5456
  366MOL0     H48273   5.150   4.682   5.301 -0.1025 -0.2246  0.1000
  366MOL0     H48274   4.932   4.748   5.290 -0.5172  0.2718  1.6063
  366MOL0     H48275   4.693   4.718   5.322 -0.2071 -3.6419  2.4465
  366MOL0     H48276   4.287   4.690   5.019 -1.3654  0.9316 -0.6331
  366MOL0     H48277   4.056   4.676   5.025  0.0264  0.8088  0.0065
  366MOL0     H48278   3.840   4.558   5.099 -1.5908 -0.3984  1.0809
  366MOL0     H48279   3.845   4.728   5.054  2.4381 -1.2441 -1.3630
  366MOL0     H48280   3.656   4.604   5.255  1.0926  2.8210  2.3954
  366MOL0     H48281   3.601   4.633   5.091  0.5731 -2.2476  0.9986
  366MOL0     H48282   3.638   4.891   5.126  5.6438  0.3298 -1.9058
  366MOL0     H48283   3.713   4.862   5.271 -2.5168  3.1163 -0.8158
  366MOL0     H48284   3.419   4.779   5.208 -2.6794 -1.3801  2.1161
  366MOL0     H48285   3.505   4.745   5.357 -3.4036  1.8548  1.5966
  366MOL0     H48286   3.483   5.045   5.280 -0.2327 -1.0690 -1.8810
  366MOL0     H48287   3.563   4.972   5.414  1.5977  1.9812 -1.4032
  366MOL0     H48288   3.342   4.884   5.488  0.7076 -1.5735 -1.0983
  366MOL0     H48289   3.280   4.944   5.329  0.3086  1.2398 -0.0177
  366MOL0     H48290   3.410   5.121   5.511  0.0295 -2.7088  0.1768
  366MOL0     H48291   3.318   5.177   5.389  0.1768  0.7258  1.1445
  366MOL0     H48292   3.187   5.202   5.590  1.1236  0.4930 -0.8727
  366MOL0     H48293   3.173   5.032   5.617  1.0224 -0.5082  0.3540
  366MOL0     H48294   4.073   4.674   5.459 -0.0298  2.4454  0.3293
  366MOL0     H48295   4.318   4.655   5.448  0.5112  0.3749 -1.2849
  366MOL0     H48296   4.693   4.356   5.105  1.9395 -1.0822  0.4853
  366MOL0     H48297   4.935   4.371   5.079 -0.3397 -0.9358  1.7451
  366MOL0     H48298   6.750   5.201   5.907  0.7976 -0.0784  1.4930
  366MOL0     H48299   6.996   5.264   5.894  1.3655  0.1840  0.7278
  366MOL0     H48300   7.441   5.276   6.158 -1.9083  0.6288  0.3485
  366MOL0     H48301   7.680   5.190   6.206 -1.3930  1.4641 -0.3425
  366MOL0     H48302   7.879   4.898   5.939  0.6863 -1.6076 -0.0969
  366MOL0     H48303   7.806   4.822   6.088  0.2396 -1.5477 -1.7095
  366MOL0     H48304   8.042   4.784   6.090  2.4018  0.9278  0.0434
  366MOL0     H48305   8.075   4.954   6.040  1.5907 -0.6200 -0.6123
  366MOL0     H48306   7.985   4.845   6.308  0.3467 -0.3347 -0.2323
  366MOL0     H48307   7.979   5.020   6.269 -2.7867 -0.9884 -3.7161
  366MOL0     H48308   8.220   4.994   6.209 -2.0059 -0.1091  0.0641
  366MOL0     H48309   8.198   4.994   6.390  1.6421 -1.3019  1.3722
  366MOL0     H48310   8.354   4.620   6.300 -0.2161  0.8926 -2.5834
  366MOL0     H48311   7.622   4.905   5.896 -0.5829 -1.4913  2.1138
  366MOL0     H48312   7.404   4.939   5.893 -1.7064  2.1713 -1.7056
  367MOL0     O48313   1.252   3.609   3.028  0.0636  0.1849  0.8038
  367MOL0     C48314   1.282   3.725   3.054  1.0650  0.4000 -0.2272
  367MOL0     O48315   1.200   3.826   3.074  0.0241  0.1048 -0.8780
  367MOL0     C48316   1.078   3.828   3.020  0.3948  0.3343  0.9110
  367MOL0     C48317   1.047   3.780   2.896 -0.8380  0.1213 -0.8824
  367MOL0     C48318   0.918   3.790   2.852 -0.0557  0.5920  0.1378
  367MOL0     C48319   0.821   3.851   2.932  0.4202 -0.2545  0.7146
  367MOL0     O48320   0.692   3.869   2.900 -0.2119 -0.6197 -0.0037
  367MOL0     C48321   0.654   3.839   2.767 -0.3034 -0.4531 -0.0236
  367MOL0     C48322   0.501   3.872   2.751 -1.2907  0.6594 -0.1855
  367MOL0     C48323   0.456   3.861   2.607  0.0913  0.9275 -0.7890
  367MOL0     C48324   0.310   3.870   2.594 -0.2420  0.7829 -0.4043
  367MOL0     C48325   0.261   3.886   2.446 -0.3117  0.3774 -0.1362
  367MOL0     C48326   0.269   3.755   2.361  0.8346  0.0974 -0.3728
  367MOL0     C48327   0.230   3.791   2.215 -0.3876 -0.1202 -0.6077
  367MOL0     C48328   0.081   3.809   2.212 -0.5424 -0.5678 -0.5179
  367MOL0     N48329   0.035   3.794   2.072 -0.3311 -0.3545  0.2049
  367MOL0     C48330   0.075   3.873   1.963  0.0088  0.3691 -0.2198
  367MOL0     C48331   0.025   3.810   1.852  0.2314  0.4220  0.2475
  367MOL0     C48332   0.034   3.860   1.705 -0.8118  0.6076 -0.0142
  367MOL0     C48333  -0.087   3.840   1.611 -0.7584  0.1688  0.7661
  367MOL0     C48334  -0.221   3.895   1.663 -0.1975  0.6760 -0.1864
  367MOL0     C48335  -0.315   3.922   1.547 -0.0617  0.0895 -0.2381
  367MOL0     O48336  -0.434   3.970   1.605 -0.2813  0.2072  0.1799
  367MOL0     C48337  -0.531   4.042   1.540 -1.3178 -1.2246 -0.0019
  367MOL0     C48338  -0.544   4.097   1.419 -0.6220  0.2098  0.6305
  367MOL0     C48339  -0.660   4.163   1.377 -0.5082 -1.0875  0.4056
  367MOL0     C48340  -0.773   4.158   1.458  0.3091 -0.3268  0.1370
  367MOL0     C48341  -0.903   4.196   1.408  0.2904  0.0429  0.6828
  367MOL0     O48342  -1.012   4.227   1.487 -0.1735  0.0205  0.5549
  367MOL0     C48343  -1.131   4.241   1.429  0.2401 -0.5783  0.2805
  367MOL0     C48344  -1.161   4.357   1.366  0.1909  0.4490  0.5307
  367MOL0     C48345  -1.293   4.373   1.322  0.6625  1.0303 -0.4851
  367MOL0     C48346  -1.392   4.267   1.339  1.0521 -0.3290  0.9805
  367MOL0     O48347  -1.517   4.306   1.294  0.1582  0.3883 -0.3594
  367MOL0     C48348  -1.618   4.199   1.282 -0.9589 -0.6033 -1.0559
  367MOL0     C48349  -1.742   4.256   1.215 -0.2241  0.0881  0.2951
  367MOL0     C48350  -1.855   4.154   1.218 -0.4948 -0.2221 -0.1815
  367MOL0     C48351  -1.969   4.194   1.128  0.6540  0.6585 -0.0853
  367MOL0     C48352  -2.076   4.085   1.119  0.4245 -0.6864 -0.3353
  367MOL0     C48353  -2.195   4.145   1.052 -0.4688 -0.5538 -0.2387
  367MOL0     C48354  -2.316   4.059   1.070 -0.0934 -0.1280 -0.6813
  367MOL0     C48355  -2.423   4.088   0.970  0.3465  0.0264 -0.1541
  367MOL0    Cl48356  -2.483   4.255   0.984 -0.0579 -0.0286  0.0235
  367MOL0     C48357  -1.352   4.145   1.404  0.7297  0.4886 -0.6185
  367MOL0     C48358  -1.218   4.141   1.444 -0.3392 -0.0983 -0.7830
  367MOL0     O48359  -0.908   4.189   1.285 -0.1636 -0.1911 -0.7942
  367MOL0     C48360  -0.765   4.094   1.587 -0.6261 -0.0500  0.1334
  367MOL0     C48361  -0.640   4.036   1.625 -0.2708 -0.5516 -0.2028
  367MOL0     N48362  -0.021   3.689   1.903 -0.1784  0.2288 -0.8413
  367MOL0     N48363  -0.021   3.677   2.033  0.0429 -0.1848 -0.4885
  367MOL0     C48364   0.865   3.918   3.046  0.3231 -1.0092  0.5623
  367MOL0     C48365   0.990   3.910   3.088 -0.6446  0.3549  0.4213
  367MOL0     C48366   1.431   3.749   3.056  0.0294 -0.2316  0.2514
  367MOL0     C48367   1.527   3.650   3.024  0.2484 -0.4093  0.6378
  367MOL0     C48368   1.666   3.668   3.015  1.0687  0.3886 -0.2358
  367MOL0     C48369   1.718   3.797   3.050 -0.4928 -0.2744 -0.0177
  367MOL0     O48370   1.851   3.832   3.038  0.0646  0.7631 -0.2230
  367MOL0     C48371   1.885   3.964   3.009 -0.8608 -0.2967  0.3042
  367MOL0     C48372   2.033   3.959   2.941  0.1996  0.4532 -0.5723
  367MOL0     C48373   2.084   4.081   2.870 -0.3416 -0.3642  0.3670
  367MOL0     C48374   1.996   4.140   2.754  0.4239 -0.5699  0.1560
  367MOL0     C48375   2.031   4.273   2.729  0.6018 -0.5691  0.0745
  367MOL0     C48376   2.062   4.385   2.709 -0.0386 -0.3461 -0.3168
  367MOL0     C48377   1.625   3.891   3.096 -0.6416 -0.7593 -0.7313
  367MOL0     C48378   1.486   3.871   3.096  0.6208  0.4719  0.1370
  367MOL0     H48379   1.133   3.741   2.843  2.3333  4.0077  0.8565
  367MOL0     H48380   0.894   3.737   2.760 -0.3740 -0.0639  0.5825
  367MOL0     H48381   0.665   3.734   2.740 -0.7160 -0.1074 -1.6396
  367MOL0     H48382   0.701   3.898   2.688 -2.6875 -1.1619 -2.1376
  367MOL0     H48383   0.491   3.972   2.794 -0.2594  1.5252 -1.8304
  367MOL0     H48384   0.443   3.799   2.807 -0.9073  0.5127  0.0268
  367MOL0     H48385   0.494   3.761   2.583  0.1183 -0.1545  3.1308
  367MOL0     H48386   0.502   3.939   2.546 -2.0184  1.6345 -1.5610
  367MOL0     H48387   0.262   3.782   2.636 -0.3800  1.2906  0.5219
  367MOL0     H48388   0.275   3.954   2.655 -0.1981 -0.2632  1.1122
  367MOL0     H48389   0.321   3.966   2.404  1.5657 -0.8669  0.0752
  367MOL0     H48390   0.158   3.922   2.454 -0.1214  1.5784 -2.2888
  367MOL0     H48391   0.201   3.679   2.399 -0.6980  1.3020 -0.5807
  367MOL0     H48392   0.367   3.711   2.382  0.5974  0.3184  1.3131
  367MOL0     H48393   0.289   3.874   2.175  1.3542  0.3749  2.6104
  367MOL0     H48394   0.263   3.696   2.171  0.5440 -1.0841  1.9885
  367MOL0     H48395   0.064   3.907   2.256  0.9539 -1.4151  2.1522
  367MOL0     H48396   0.023   3.749   2.283 -0.3783  1.1158  1.1091
  367MOL0     H48397   0.114   3.974   1.970  2.7044 -0.4335 -1.8763
  367MOL0     H48398   0.123   3.821   1.653 -1.1216 -0.0202 -0.0882
  367MOL0     H48399   0.054   3.966   1.722 -1.2388  0.3416  2.4876
  367MOL0     H48400  -0.106   3.734   1.592  0.2409  0.1117 -0.0191
  367MOL0     H48401  -0.068   3.879   1.511 -2.6119 -0.0622  0.2979
  367MOL0     H48402  -0.267   3.835   1.743 -0.0084  0.2144 -0.4170
  367MOL0     H48403  -0.199   3.993   1.706 -2.0012  0.5649  1.1089
  367MOL0     H48404  -0.326   3.824   1.499 -3.1809  0.1467  0.1837
  367MOL0     H48405  -0.262   3.997   1.486  0.6748 -0.5865 -0.4473
  367MOL0     H48406  -0.464   4.083   1.348 -2.7346  0.8224 -2.0494
  367MOL0     H48407  -0.674   4.223   1.288 -2.5643 -0.1793  1.2649
  367MOL0     H48408  -1.087   4.436   1.359  3.1948 -2.2255  0.2284
  367MOL0     H48409  -1.338   4.458   1.272 -0.8446 -0.2578 -1.4425
  367MOL0     H48410  -1.641   4.161   1.382  1.7141 -0.8995 -0.4759
  367MOL0     H48411  -1.578   4.116   1.224  3.2981  1.5840 -1.6682
  367MOL0     H48412  -1.725   4.280   1.109  0.1125 -1.8185 -0.1111
  367MOL0     H48413  -1.767   4.345   1.273  0.2841 -2.1624  4.2836
  367MOL0     H48414  -1.893   4.144   1.320 -0.9962  0.5770 -0.2838
  367MOL0     H48415  -1.819   4.056   1.187 -2.3402 -1.3208  0.9923
  367MOL0     H48416  -2.009   4.290   1.163 -1.2792  0.6994 -2.1495
  367MOL0     H48417  -1.940   4.221   1.026 -3.2887  3.0055 -0.8323
  367MOL0     H48418  -2.092   4.041   1.218  2.5284 -2.7197 -0.8293
  367MOL0     H48419  -2.044   4.004   1.054  1.3835 -0.3980 -0.2375
  367MOL0     H48420  -2.177   4.148   0.944 -2.2324 -2.2327 -0.6436
  367MOL0     H48421  -2.214   4.243   1.097  0.0576  0.6086 -2.4044
  367MOL0     H48422  -2.287   3.953   1.063 -2.5273 -1.0685  1.6150
  367MOL0     H48423  -2.350   4.078   1.172 -2.7426  0.8421 -1.6773
  367MOL0     H48424  -2.492   4.004   0.984  2.2349 -1.2951  1.8418
  367MOL0     H48425  -2.371   4.083   0.874 -0.7221  0.4658 -0.7827
  367MOL0     H48426  -1.417   4.064   1.437 -1.6019  1.1730 -3.1971
  367MOL0     H48427  -1.185   4.064   1.513  1.4623 -0.2841 -1.7814
  367MOL0     H48428  -0.852   4.082   1.651 -1.1040 -0.9874 -0.6675
  367MOL0     H48429  -0.626   3.985   1.720 -0.1786  0.2852  0.2475
  367MOL0     H48430   0.806   3.983   3.110  0.9553 -0.3409  0.4715
  367MOL0     H48431   1.024   3.966   3.175 -2.2836  0.3905  1.0821
  367MOL0     H48432   1.486   3.558   2.985  1.7496 -0.2140 -1.5382
  367MOL0     H48433   1.738   3.594   2.981  0.7531 -0.5806  1.1200
  367MOL0     H48434   1.882   4.024   3.101  1.9631 -0.5436  0.6495
  367MOL0     H48435   1.816   4.009   2.937 -0.1579 -0.9086 -0.7839
  367MOL0     H48436   2.109   3.952   3.019  0.4887 -0.7698 -0.9436
  367MOL0     H48437   2.041   3.874   2.873  1.5414  0.6670 -0.7037
  367MOL0     H48438   2.179   4.057   2.822 -1.0549  1.0371 -1.8950
  367MOL0     H48439   2.102   4.163   2.941 -2.0569  1.0988 -0.7946
  367MOL0     H48440   2.012   4.079   2.665 -0.5693 -1.1377  0.3506
  367MOL0     H48441   1.895   4.134   2.796  0.5486 -1.6691  0.3417
  367MOL0     H48442   2.078   4.488   2.683 -2.6912  0.6824  1.6799
  367MOL0     H48443   1.666   3.988   3.124 -2.0928 -0.6239  1.1379
  367MOL0     H48444   1.422   3.954   3.125  1.4385  1.3125 -0.4285
  368MOL0     O48445   1.650   7.216   0.227 -0.1628  0.4524  0.2802
  368MOL0     C48446   1.747   7.149   0.270  0.4553  0.7279 -0.1963
  368MOL0     O48447   1.741   7.021   0.321  0.2642 -0.2929  0.2186
  368MOL0     C48448   1.618   6.959   0.329 -0.4913 -0.1265 -0.3556
  368MOL0     C48449   1.608   6.824   0.290 -0.0435  0.8161  0.2614
  368MOL0     C48450   1.497   6.748   0.304  0.2229  0.2071  0.3319
  368MOL0     C48451   1.381   6.809   0.356 -0.1138 -0.7266  0.2598
  368MOL0     O48452   1.262   6.744   0.365  0.5322 -0.0438  0.0858
  368MOL0     C48453   1.138   6.821   0.356  0.1096 -0.3264  1.0904
  368MOL0     C48454   1.019   6.750   0.288 -0.6472 -0.1649 -0.5486
  368MOL0     C48455   1.052   6.724   0.138  0.2962  1.6345 -0.4545
  368MOL0     C48456   0.923   6.668   0.071  0.2216  0.6535 -0.3091
  368MOL0     C48457   0.959   6.603  -0.058 -0.1001  0.1389  0.2498
  368MOL0     C48458   0.997   6.712  -0.174 -0.4891 -0.4471  0.2467
  368MOL0     C48459   0.874   6.802  -0.208  0.2043  0.3868  0.3534
  368MOL0     C48460   0.897   6.867  -0.349 -0.3263  0.2599  0.3761
  368MOL0     N48461   0.771   6.928  -0.401  0.3893 -0.6994 -0.1372
  368MOL0     C48462   0.659   6.862  -0.454  0.4377 -0.3514 -0.7347
  368MOL0     C48463   0.561   6.954  -0.469  0.4452 -0.1344 -0.8638
  368MOL0     C48464   0.423   6.926  -0.522  1.0385  1.0946  0.0843
  368MOL0     C48465   0.315   7.005  -0.444 -0.2155 -0.6785  0.0692
  368MOL0     C48466   0.291   7.139  -0.519  0.7856  0.2617 -0.1824
  368MOL0     C48467   0.169   7.201  -0.463  0.0946 -0.7443  0.3905
  368MOL0     O48468   0.050   7.128  -0.506 -0.4613 -0.4924 -0.3028
  368MOL0     C48469  -0.077   7.161  -0.465 -0.6257  0.6059 -0.3457
  368MOL0     C48470  -0.181   7.110  -0.545 -0.4485  0.0499 -0.2673
  368MOL0     C48471  -0.317   7.149  -0.524  0.3621 -0.5660 -0.0052
  368MOL0     C48472  -0.347   7.210  -0.399  0.2231 -0.1970 -0.1021
  368MOL0     C48473  -0.490   7.247  -0.363  0.5123  0.2121 -0.3183
  368MOL0     O48474  -0.519   7.324  -0.249  0.4798  0.7328 -0.6192
  368MOL0     C48475  -0.649   7.334  -0.215 -0.5999  0.5095  1.0404
  368MOL0     C48476  -0.701   7.246  -0.119 -1.1986 -0.1872 -0.2445
  368MOL0     C48477  -0.819   7.272  -0.050  0.8161  0.5766 -1.1574
  368MOL0     C48478  -0.899   7.375  -0.086  0.1547 -0.9601  0.0795
  368MOL0     O48479  -1.000   7.402  -0.002 -0.1741  0.1261  0.3489
  368MOL0     C48480  -1.124   7.457  -0.059 -0.6938  0.8660 -0.3578
  368MOL0     C48481  -1.199   7.379  -0.155  0.1807 -0.1156  0.4807
  368MOL0     C48482  -1.254   7.249  -0.095  0.1479  0.0161 -0.1710
  368MOL0     C48483  -1.166   7.124  -0.108  0.5942 -0.1190  0.0156
  368MOL0     C48484  -1.248   7.011  -0.045  0.1214  0.0635  0.3490
  368MOL0     C48485  -1.156   6.879  -0.043 -0.1360  0.1268  0.6404
  368MOL0     C48486  -1.226   6.774   0.040  0.4074  0.0520 -0.3463
  368MOL0     C48487  -1.147   6.642   0.040 -0.5789 -0.0720  0.3306
  368MOL0    Cl48488  -1.263   6.530   0.111  0.2914  0.1222 -0.0373
  368MOL0     C48489  -0.856   7.457  -0.201 -0.1270  0.8376 -0.4106
  368MOL0     C48490  -0.728   7.440  -0.265 -1.1460 -0.9126 -0.2768
  368MOL0     O48491  -0.575   7.201  -0.436 -0.0703 -0.2529  0.9005
  368MOL0     C48492  -0.238   7.253  -0.320  0.1562 -0.6436 -0.1662
  368MOL0     C48493  -0.101   7.231  -0.351  0.8047 -0.3398  0.2982
  368MOL0     N48494   0.620   7.077  -0.417  0.0878  0.0315  0.4146
  368MOL0     N48495   0.749   7.059  -0.401  0.6393  0.1553  0.7754
  368MOL0     C48496   1.386   6.941   0.399 -0.0320 -0.6902 -0.6222
  368MOL0     C48497   1.499   7.013   0.385 -0.2609 -0.5044 -0.8349
  368MOL0     C48498   1.881   7.219   0.269 -0.0753 -0.1104  0.1834
  368MOL0     C48499   1.998   7.160   0.317 -0.7166 -0.3340  0.7352
  368MOL0     C48500   2.116   7.230   0.330  0.0208 -0.3978  0.2071
  368MOL0     C48501   2.132   7.365   0.290  0.1629  0.1499 -0.2309
  368MOL0     O48502   2.245   7.431   0.308 -0.3625  0.3177  0.6086
  368MOL0     C48503   2.227   7.572   0.340  0.5663  0.6350 -0.3847
  368MOL0     C48504   2.367   7.624   0.375  0.4273  0.4531  0.0893
  368MOL0     C48505   2.454   7.634   0.254  0.5749 -0.8941 -0.7684
  368MOL0     C48506   2.589   7.702   0.277  0.4102  0.2868 -0.4017
  368MOL0     C48507   2.570   7.842   0.325 -0.4590 -0.6771 -0.3553
  368MOL0     C48508   2.590   7.952   0.381  0.5490  0.5876 -0.1188
  368MOL0     C48509   2.015   7.422   0.233  0.9166  0.4390 -0.4189
  368MOL0     C48510   1.895   7.352   0.228  0.2256  0.6898  0.6579
  368MOL0     H48511   1.692   6.774   0.243 -1.6528 -0.3949 -1.4566
  368MOL0     H48512   1.501   6.647   0.265  1.9536  0.1646  0.5368
  368MOL0     H48513   1.165   6.902   0.289  1.7571 -2.1514 -0.5918
  368MOL0     H48514   1.113   6.861   0.454  2.4143 -1.2953  2.1566
  368MOL0     H48515   0.934   6.818   0.301 -0.2733  0.0310  1.1487
  368MOL0     H48516   0.990   6.657   0.338 -2.7087  1.5229  1.5848
  368MOL0     H48517   1.132   6.652   0.119 -1.2083  0.6606 -3.6968
  368MOL0     H48518   1.079   6.821   0.094 -1.2202  2.8367  1.1046
  368MOL0     H48519   0.876   6.585   0.124  0.2843  0.4003 -0.6425
  368MOL0     H48520   0.855   6.752   0.055 -0.3374  0.7123  2.0373
  368MOL0     H48521   0.878   6.537  -0.088 -0.3766 -2.0189  4.9003
  368MOL0     H48522   1.050   6.545  -0.041  1.0079  1.1637 -1.8436
  368MOL0     H48523   1.027   6.655  -0.263  1.0144  1.3749 -0.4860
  368MOL0     H48524   1.081   6.776  -0.145 -0.9541  0.6240 -0.6698
  368MOL0     H48525   0.774   6.758  -0.205 -0.1821  1.1975 -0.1262
  368MOL0     H48526   0.859   6.894  -0.150 -0.5727 -0.7366  2.0052
  368MOL0     H48527   0.932   6.789  -0.417  1.8314  2.7042 -1.5305
  368MOL0     H48528   0.975   6.943  -0.351 -0.3021  0.2238 -0.1034
  368MOL0     H48529   0.644   6.759  -0.484 -0.8815 -0.6401  0.7661
  368MOL0     H48530   0.391   6.825  -0.496  0.2741  1.2401 -0.2630
  368MOL0     H48531   0.413   6.944  -0.629  0.9587 -1.2406 -0.3428
  368MOL0     H48532   0.344   7.028  -0.341  1.5161 -1.4796 -0.2165
  368MOL0     H48533   0.224   6.945  -0.444  0.8947 -2.4866 -2.1912
  368MOL0     H48534   0.380   7.201  -0.502  1.5310 -0.4122 -1.4532
  368MOL0     H48535   0.283   7.133  -0.628  0.5778  0.5068 -0.1814
  368MOL0     H48536   0.162   7.306  -0.493  1.3089 -0.7895 -0.1102
  368MOL0     H48537   0.176   7.194  -0.354  2.0378 -0.5177  0.3115
  368MOL0     H48538  -0.166   7.035  -0.622  0.9615 -1.0954  1.0474
  368MOL0     H48539  -0.395   7.117  -0.593 -0.4415  0.0815  0.5778
  368MOL0     H48540  -0.647   7.156  -0.090  2.3293  2.2965  1.5667
  368MOL0     H48541  -0.853   7.214   0.035  2.7706  1.6123  0.4229
  368MOL0     H48542  -1.106   7.548  -0.118 -1.0124  1.7812  0.9047
  368MOL0     H48543  -1.184   7.486   0.028  1.8722  1.6540  1.2532
  368MOL0     H48544  -1.135   7.361  -0.242  0.8447  1.8249  0.5042
  368MOL0     H48545  -1.279   7.444  -0.191  0.1804 -0.9717 -1.1783
  368MOL0     H48546  -1.349   7.225  -0.143 -0.4201  2.1198 -0.2004
  368MOL0     H48547  -1.284   7.272   0.008 -0.2808 -1.2663  0.0067
  368MOL0     H48548  -1.134   7.094  -0.208  4.6122  0.9431  0.8215
  368MOL0     H48549  -1.070   7.122  -0.056  1.7501  0.7990 -1.9916
  368MOL0     H48550  -1.346   6.989  -0.088 -0.0335  3.8654 -1.6355
  368MOL0     H48551  -1.274   7.039   0.058  1.6689  3.1201  0.0080
  368MOL0     H48552  -1.054   6.887  -0.005 -0.0442  1.5055  0.1434
  368MOL0     H48553  -1.144   6.843  -0.146 -0.2372 -0.4757  0.8367
  368MOL0     H48554  -1.241   6.818   0.139  0.6558  2.4346 -1.2973
  368MOL0     H48555  -1.324   6.756  -0.005  0.3198  4.5937 -2.5993
  368MOL0     H48556  -1.052   6.651   0.094 -0.1078 -1.8786 -0.1352
  368MOL0     H48557  -1.115   6.612  -0.060 -0.1552 -0.2204  0.5095
  368MOL0     H48558  -0.920   7.539  -0.229 -2.9750  0.0039  2.9402
  368MOL0     H48559  -0.686   7.505  -0.342 -0.0719 -0.8361  0.3566
  368MOL0     H48560  -0.272   7.300  -0.228 -1.6113 -1.6565 -0.2659
  368MOL0     H48561  -0.020   7.267  -0.288  1.1345 -1.4064  0.4903
  368MOL0     H48562   1.304   6.996   0.443 -0.2229 -2.0481  0.7952
  368MOL0     H48563   1.496   7.113   0.427  1.7499 -0.4565 -0.7331
  368MOL0     H48564   1.992   7.060   0.359 -2.5671 -1.3130 -1.6199
  368MOL0     H48565   2.198   7.179   0.380  1.1190 -0.8168 -1.9060
  368MOL0     H48566   2.161   7.588   0.425 -0.0328  1.0507 -0.9216
  368MOL0     H48567   2.185   7.622   0.252 -1.1175  0.2065  0.1406
  368MOL0     H48568   2.355   7.724   0.417 -1.4716  0.9836 -1.5977
  368MOL0     H48569   2.416   7.562   0.451 -1.0713 -0.7881  0.0887
  368MOL0     H48570   2.403   7.699   0.182 -1.9530  0.2715  1.8781
  368MOL0     H48571   2.455   7.530   0.217  2.2218 -1.7339  1.4345
  368MOL0     H48572   2.644   7.639   0.348 -1.0301  0.5715  1.0429
  368MOL0     H48573   2.644   7.696   0.183 -0.1168 -1.1502 -0.6332
  368MOL0     H48574   2.601   8.045   0.433 -0.2620  0.1201  0.9262
  368MOL0     H48575   2.009   7.524   0.197  3.5979  0.3804 -1.2381
  368MOL0     H48576   1.807   7.397   0.184 -0.1121 -0.4207  0.1815
  369MOL0     O48577  10.452   8.499   7.021  0.1867 -0.1949  0.0611
  369MOL0     C48578  10.452   8.508   6.899 -0.2150 -0.0061 -0.1282
  369MOL0     O48579  10.348   8.535   6.815 -0.1382  0.0022 -0.1052
  369MOL0     C48580  10.231   8.572   6.880  0.1025  1.0233 -1.0986
  369MOL0     C48581  10.224   8.682   6.964  0.7156 -0.4508  1.3190
  369MOL0     C48582  10.115   8.708   7.030 -0.4892 -0.3868  0.0548
  369MOL0     C48583  10.008   8.632   7.035  0.7306  0.3998  0.0284
  369MOL0     O48584   9.900   8.685   7.104 -0.2100  0.1178 -0.0445
  369MOL0     C48585   9.770   8.631   7.101 -0.3862  1.1914 -0.5032
  369MOL0     C48586   9.744   8.525   7.204 -0.5577 -0.6840  0.5957
  369MOL0     C48587   9.752   8.575   7.347 -0.7336 -0.1564 -0.2393
  369MOL0     C48588   9.733   8.466   7.446 -0.5988  0.2745  0.5823
  369MOL0     C48589   9.590   8.430   7.470  0.0665 -0.3999  0.1492
  369MOL0     C48590   9.511   8.541   7.543 -0.1905 -0.6805 -0.6108
  369MOL0     C48591   9.369   8.486   7.570 -0.0526 -0.4569  1.0869
  369MOL0     C48592   9.276   8.593   7.638 -0.2654  0.0511  0.0889
  369MOL0     N48593   9.161   8.521   7.706 -0.2313 -0.0257 -0.3109
  369MOL0     C48594   9.033   8.513   7.669 -1.0268  0.0114  0.2964
  369MOL0     C48595   8.978   8.411   7.736 -0.0573  0.2424 -0.3644
  369MOL0     C48596   8.840   8.368   7.713  0.3252  0.2192  0.1107
  369MOL0     C48597   8.742   8.474   7.775  0.1808 -0.2926  0.1507
  369MOL0     C48598   8.596   8.450   7.726 -0.1938 -0.5402  1.1712
  369MOL0     C48599   8.517   8.566   7.779 -0.2648  0.4736 -0.0442
  369MOL0     O48600   8.517   8.566   7.921  0.1567  0.1249  0.5628
  369MOL0     C48601   8.410   8.526   7.982 -0.6972 -0.0563 -0.7766
  369MOL0     C48602   8.275   8.555   7.945 -0.5450  0.6620  0.0915
  369MOL0     C48603   8.173   8.509   8.024  0.7208 -0.1628  0.3307
  369MOL0     C48604   8.197   8.441   8.138 -0.8498 -0.6196  0.4688
  369MOL0     C48605   8.088   8.395   8.216 -0.0608 -0.1519 -0.8082
  369MOL0     O48606   7.955   8.439   8.205 -0.7574  1.0941  0.6198
  369MOL0     C48607   7.846   8.392   8.276  0.4414  0.5250 -0.7268
  369MOL0     C48608   7.728   8.401   8.192 -0.1052 -0.3864 -0.9729
  369MOL0     C48609   7.608   8.355   8.251  0.6531  0.0893 -0.0811
  369MOL0     C48610   7.610   8.291   8.378  0.4822 -0.8652 -1.0308
  369MOL0     O48611   7.481   8.284   8.435 -0.2986  0.5305  0.7036
  369MOL0     C48612   7.479   8.328   8.574  0.2496  0.0287  0.1427
  369MOL0     C48613   7.332   8.327   8.621 -0.5061  0.1639  0.1246
  369MOL0     C48614   7.253   8.417   8.530 -0.1379 -0.6680 -0.2577
  369MOL0     C48615   7.099   8.404   8.550  0.2160 -0.2095 -0.5917
  369MOL0     C48616   7.020   8.502   8.465 -0.6615 -0.2019 -0.1076
  369MOL0     C48617   6.961   8.620   8.538 -0.7386 -0.3823 -0.4747
  369MOL0     C48618   6.935   8.733   8.443  0.5674  0.1732 -0.5803
  369MOL0     C48619   6.870   8.853   8.514  0.0309  0.2675  0.0055
  369MOL0    Cl48620   6.836   8.965   8.394  0.1538 -0.5095  0.0757
  369MOL0     C48621   7.724   8.266   8.448  0.8333 -0.1580  0.0151
  369MOL0     C48622   7.843   8.322   8.396  0.5693  0.3492 -0.3192
  369MOL0     O48623   8.117   8.323   8.309 -1.1708  0.2501 -0.1895
  369MOL0     C48624   8.328   8.423   8.184  0.1736  0.0770 -0.2044
  369MOL0     C48625   8.432   8.471   8.107  0.6769 -0.6824  0.3976
  369MOL0     N48626   9.074   8.356   7.813 -0.0215  0.0541  0.4610
  369MOL0     N48627   9.182   8.419   7.796 -0.7893  0.1987  0.5074
  369MOL0     C48628  10.007   8.510   6.959  0.4559 -0.7846 -0.4604
  369MOL0     C48629  10.118   8.480   6.881 -0.6104 -0.4392  0.7442
  369MOL0     C48630  10.592   8.504   6.842  0.0417 -0.5413 -0.0622
  369MOL0     C48631  10.624   8.546   6.711  0.1298 -0.4849  0.4086
  369MOL0     C48632  10.749   8.508   6.656 -0.8666  0.7892 -0.4954
  369MOL0     C48633  10.839   8.433   6.734 -0.1012 -0.4656  0.4626
  369MOL0     O48634  10.952   8.405   6.663  0.8772 -0.3654 -0.1649
  369MOL0     C48635  11.030   8.291   6.704  0.2985  0.2099  0.5497
  369MOL0     C48636  11.088   8.209   6.585  0.2522  0.4617  0.0960
  369MOL0     C48637  10.986   8.118   6.532 -0.3081 -0.1388  0.0314
  369MOL0     C48638  11.046   8.047   6.407 -0.7300  0.0284 -0.7615
  369MOL0     C48639  10.949   7.989   6.314 -0.7630 -0.0333 -0.3357
  369MOL0     C48640  10.889   7.926   6.231  0.6769 -0.2274 -0.2612
  369MOL0     C48641  10.820   8.423   6.870  0.1251  0.9751 -0.4659
  369MOL0     C48642  10.695   8.449   6.927 -0.2943 -0.7120 -0.0358
  369MOL0     H48643  10.304   8.755   6.965  0.0019  0.3519  2.8369
  369MOL0     H48644  10.124   8.797   7.091  1.9300 -0.3208 -0.3165
  369MOL0     H48645   9.748   8.593   7.001  1.3708 -0.6244 -0.2640
  369MOL0     H48646   9.698   8.713   7.114  0.4526  2.6110 -3.7783
  369MOL0     H48647   9.829   8.456   7.192  1.5775  1.8004  0.4400
  369MOL0     H48648   9.648   8.478   7.187 -2.5293  2.6511  1.5217
  369MOL0     H48649   9.691   8.663   7.370 -0.1457 -0.4009  2.6637
  369MOL0     H48650   9.856   8.606   7.361 -0.6761 -1.4483  3.0393
  369MOL0     H48651   9.792   8.380   7.413 -1.6539  0.6625 -2.6928
  369MOL0     H48652   9.766   8.511   7.540  1.0841 -1.0604  0.6638
  369MOL0     H48653   9.591   8.339   7.532 -2.8241 -0.6522 -0.0307
  369MOL0     H48654   9.535   8.412   7.377  1.0227 -0.4951 -0.4104
  369MOL0     H48655   9.502   8.639   7.497  1.1451 -0.6031 -0.7201
  369MOL0     H48656   9.553   8.554   7.643 -3.5321  0.4867  0.7711
  369MOL0     H48657   9.324   8.466   7.472  0.7465  1.9618  0.1460
  369MOL0     H48658   9.379   8.396   7.632 -0.1608 -1.5156 -0.3708
  369MOL0     H48659   9.229   8.649   7.557 -0.3730 -2.0041 -1.3525
  369MOL0     H48660   9.322   8.661   7.711 -1.5642 -0.9564  1.9341
  369MOL0     H48661   8.974   8.578   7.605  0.6072  3.0229  1.6474
  369MOL0     H48662   8.824   8.269   7.756 -1.8852 -0.4670 -2.0833
  369MOL0     H48663   8.824   8.355   7.606  4.1153  0.8584 -0.6631
  369MOL0     H48664   8.764   8.572   7.731  1.0305 -0.8519 -0.7006
  369MOL0     H48665   8.742   8.480   7.884  0.7800  0.2844  0.1235
  369MOL0     H48666   8.599   8.454   7.617 -0.5850  2.5956  1.1730
  369MOL0     H48667   8.556   8.354   7.759 -0.8418 -0.7881 -0.2414
  369MOL0     H48668   8.420   8.541   7.735  1.1016 -1.3499 -2.2484
  369MOL0     H48669   8.558   8.663   7.747  1.1298 -0.6936 -2.0135
  369MOL0     H48670   8.240   8.611   7.859  0.9333 -0.9616 -1.6618
  369MOL0     H48671   8.071   8.540   8.002 -0.1385 -1.3458  2.4054
  369MOL0     H48672   7.732   8.463   8.102 -0.2608 -0.1989 -0.8501
  369MOL0     H48673   7.520   8.358   8.187  1.3322 -0.4290 -1.0610
  369MOL0     H48674   7.519   8.430   8.583 -0.6449  0.2684  2.1533
  369MOL0     H48675   7.534   8.255   8.634 -0.2695 -0.0637  0.5207
  369MOL0     H48676   7.323   8.361   8.725  0.7688  0.3348  0.2012
  369MOL0     H48677   7.293   8.225   8.611  3.8614 -1.6876 -0.2508
  369MOL0     H48678   7.269   8.387   8.426  0.9105 -2.2359  0.3217
  369MOL0     H48679   7.276   8.523   8.542 -4.3738  0.3861  0.3254
  369MOL0     H48680   7.067   8.305   8.516  2.2743 -1.0029 -0.3564
  369MOL0     H48681   7.061   8.417   8.652 -1.2771 -0.7540 -1.0564
  369MOL0     H48682   6.938   8.459   8.406  0.2989  1.2339 -2.6744
  369MOL0     H48683   7.091   8.542   8.392  2.7175 -0.5737  2.6964
  369MOL0     H48684   7.024   8.664   8.616 -1.6176 -0.1066  0.0995
  369MOL0     H48685   6.874   8.588   8.597  0.2143  0.0754  1.2497
  369MOL0     H48686   7.021   8.762   8.382  1.8859 -0.8722  0.7064
  369MOL0     H48687   6.857   8.703   8.372 -1.5800  1.0635  1.2616
  369MOL0     H48688   6.946   8.893   8.581 -1.5179  0.5742  1.6716
  369MOL0     H48689   6.780   8.830   8.572  0.1042 -0.1030 -0.0231
  369MOL0     H48690   7.719   8.204   8.537 -1.7474 -0.4624 -0.2745
  369MOL0     H48691   7.938   8.317   8.449  1.9138  1.6630 -2.4750
  369MOL0     H48692   8.359   8.385   8.281  2.9673  0.7661 -0.7523
  369MOL0     H48693   8.531   8.453   8.147  0.5788 -2.3361 -0.0321
  369MOL0     H48694   9.923   8.443   6.945  1.4057 -1.7935 -1.6826
  369MOL0     H48695  10.117   8.392   6.817 -1.9280 -0.5383  0.8817
  369MOL0     H48696  10.549   8.591   6.647  1.2376  1.9292  0.6845
  369MOL0     H48697  10.784   8.538   6.558  3.3486 -1.3616  0.1083
  369MOL0     H48698  10.980   8.222   6.772 -1.6050 -3.3447 -3.8833
  369MOL0     H48699  11.121   8.322   6.755  1.3980 -2.8247  0.6391
  369MOL0     H48700  11.136   8.268   6.507 -2.1369  1.8551 -0.4325
  369MOL0     H48701  11.168   8.159   6.641  1.9689  2.8760 -0.0336
  369MOL0     H48702  10.901   8.179   6.499  0.6689  0.3321 -1.7993
  369MOL0     H48703  10.946   8.046   6.603  0.8256 -1.0762 -0.2436
  369MOL0     H48704  11.102   8.122   6.351 -1.6480  1.6781  0.4283
  369MOL0     H48705  11.123   7.976   6.438 -1.5536 -0.3881  0.4151
  369MOL0     H48706  10.835   7.860   6.166  1.0146 -0.4428 -0.3224
  369MOL0     H48707  10.889   8.400   6.950 -0.4323 -0.9900 -0.4932
  369MOL0     H48708  10.682   8.436   7.034  1.2183  3.0618  0.7491
  370MOL0     O48709   2.654   2.960   2.899  0.0594  0.3594 -0.6165
  370MOL0     C48710   2.621   3.085   2.914  1.0601 -0.1438  0.7095
  370MOL0     O48711   2.490   3.135   2.927 -0.2419 -0.7180  0.4997
  370MOL0     C48712   2.384   3.064   2.890 -0.1583 -0.0917  0.3142
  370MOL0     C48713   2.378   2.953   2.798 -0.1514 -0.1444  0.3181
  370MOL0     C48714   2.251   2.905   2.757 -0.2263 -1.4687 -0.5196
  370MOL0     C48715   2.133   2.964   2.818  0.1207  1.3124 -0.4123
  370MOL0     O48716   2.009   2.942   2.770  0.6133  0.5385 -0.2698
  370MOL0     C48717   1.994   2.891   2.638 -0.7073 -0.0066  0.1722
  370MOL0     C48718   1.855   2.923   2.579 -0.4347  0.9978  0.5455
  370MOL0     C48719   1.753   2.929   2.698 -0.0520  1.0513 -0.4350
  370MOL0     C48720   1.608   2.905   2.647 -0.6612  0.3104 -0.4420
  370MOL0     C48721   1.563   3.017   2.546  0.2524  0.2513 -0.1420
  370MOL0     C48722   1.417   3.015   2.500  0.0299 -1.1876  0.0553
  370MOL0     C48723   1.386   2.890   2.410 -0.3504 -0.0868  0.2711
  370MOL0     C48724   1.245   2.894   2.350  0.0073  0.0420  0.1394
  370MOL0     N48725   1.137   2.867   2.450  0.5994  0.4869 -0.0204
  370MOL0     C48726   1.132   2.780   2.558 -0.4176  0.9134  0.6667
  370MOL0     C48727   1.035   2.834   2.631  0.3132 -0.3002 -0.8131
  370MOL0     C48728   0.969   2.768   2.749  0.3510 -0.1967  0.5585
  370MOL0     C48729   0.911   2.633   2.721 -0.1487 -0.1419 -0.3871
  370MOL0     C48730   0.824   2.577   2.833 -0.5315  0.6173  0.8119
  370MOL0     C48731   0.679   2.631   2.851 -0.2074 -0.2720  0.8321
  370MOL0     O48732   0.592   2.571   2.754 -0.6829  0.5120  0.0506
  370MOL0     C48733   0.454   2.583   2.771 -0.5721 -0.3400 -0.9546
  370MOL0     C48734   0.386   2.659   2.873 -0.2398 -0.1461 -0.8984
  370MOL0     C48735   0.241   2.672   2.865 -1.5572 -0.9392  0.7051
  370MOL0     C48736   0.162   2.600   2.774 -0.4422  0.5457  0.6077
  370MOL0     C48737   0.007   2.602   2.780 -0.5697  1.1887  0.1000
  370MOL0     O48738  -0.067   2.513   2.695 -0.4719  0.4325 -0.0662
  370MOL0     C48739  -0.192   2.490   2.719  0.2938 -0.8462 -0.1451
  370MOL0     C48740  -0.230   2.434   2.835  0.1265 -0.3298 -0.5602
  370MOL0     C48741  -0.367   2.429   2.856 -0.4996  0.3285 -0.6271
  370MOL0     C48742  -0.464   2.471   2.763  0.1300 -0.3134 -1.5292
  370MOL0     O48743  -0.596   2.442   2.772  0.2364 -0.5110  0.5947
  370MOL0     C48744  -0.687   2.542   2.743 -0.4451 -0.8289 -0.8222
  370MOL0     C48745  -0.813   2.514   2.828 -0.4997  0.9831 -0.3943
  370MOL0     C48746  -0.785   2.547   2.970  0.0647 -0.1844 -0.5030
  370MOL0     C48747  -0.904   2.516   3.061 -0.1779  0.3690  0.2567
  370MOL0     C48748  -1.012   2.624   3.047 -0.6214  0.2388  0.1906
  370MOL0     C48749  -1.122   2.604   3.150 -0.1644 -0.7984  0.3146
  370MOL0     C48750  -1.232   2.712   3.145  0.9656  0.3910  0.5068
  370MOL0     C48751  -1.337   2.707   3.256 -0.4106  0.5310  0.2147
  370MOL0    Cl48752  -1.474   2.598   3.216  0.1997 -0.4240 -0.4577
  370MOL0     C48753  -0.422   2.521   2.645  1.0890  0.1783  0.5599
  370MOL0     C48754  -0.285   2.534   2.620 -0.8452 -0.2738 -0.0162
  370MOL0     O48755  -0.040   2.671   2.867  0.1083  0.0481  0.0592
  370MOL0     C48756   0.239   2.530   2.676  0.8838  0.4353 -0.2459
  370MOL0     C48757   0.378   2.531   2.674 -0.5758  0.5158  0.5789
  370MOL0     N48758   0.973   2.938   2.564 -0.4117  0.9535 -0.1166
  370MOL0     N48759   1.025   2.950   2.453 -0.2070  0.1448 -0.3518
  370MOL0     C48760   2.147   3.065   2.906  0.9706 -0.6688  0.8188
  370MOL0     C48761   2.272   3.116   2.943 -0.1884  0.5867 -0.0448
  370MOL0     C48762   2.730   3.177   2.894  0.4345  0.0845  0.0001
  370MOL0     C48763   2.716   3.314   2.930  0.3367  0.5780 -0.3003
  370MOL0     C48764   2.835   3.392   2.921 -0.0720  0.4849  0.0081
  370MOL0     C48765   2.958   3.342   2.879 -0.1664 -0.3211 -0.1350
  370MOL0     O48766   3.069   3.417   2.859  0.7782  0.0361  0.3035
  370MOL0     C48767   3.063   3.552   2.874 -1.0034 -0.3263  1.0038
  370MOL0     C48768   3.203   3.626   2.846 -0.5882 -0.1294 -0.1347
  370MOL0     C48769   3.323   3.553   2.890  0.0955  0.8225 -1.0224
  370MOL0     C48770   3.449   3.642   2.881 -0.4110 -0.1941 -0.5650
  370MOL0     C48771   3.578   3.567   2.886  0.4755 -1.1047 -0.5188
  370MOL0     C48772   3.680   3.508   2.875 -0.2146 -0.3464 -0.2132
  370MOL0     C48773   2.974   3.209   2.842 -0.5135 -0.3362 -0.2421
  370MOL0     C48774   2.862   3.131   2.856  0.7189  0.7989  0.1860
  370MOL0     H48775   2.471   2.912   2.760 -0.5838 -0.7882 -0.0718
  370MOL0     H48776   2.246   2.821   2.689  1.4921 -0.9069 -1.3898
  370MOL0     H48777   2.005   2.783   2.649 -1.7317 -0.1632 -0.2403
  370MOL0     H48778   2.071   2.938   2.576 -1.1462  0.8903  0.2921
  370MOL0     H48779   1.826   2.851   2.502  3.0802 -0.8717  0.7555
  370MOL0     H48780   1.855   3.024   2.537 -1.6576 -0.0930 -2.2890
  370MOL0     H48781   1.762   3.022   2.755  1.1714  0.2136  0.8115
  370MOL0     H48782   1.779   2.855   2.775  0.9161  1.5865 -0.2225
  370MOL0     H48783   1.609   2.805   2.603  1.9234 -0.0684  0.3253
  370MOL0     H48784   1.543   2.889   2.734 -1.3397 -0.8443 -1.1339
  370MOL0     H48785   1.629   3.007   2.459 -2.3853  0.7012 -2.3597
  370MOL0     H48786   1.578   3.114   2.594  2.7638 -0.3886  0.4916
  370MOL0     H48787   1.394   3.099   2.434  2.8788  0.6932  1.2555
  370MOL0     H48788   1.357   3.018   2.591  4.2220 -3.8029  3.3147
  370MOL0     H48789   1.454   2.889   2.324 -0.3550  0.9978  0.2382
  370MOL0     H48790   1.398   2.804   2.476  2.2701 -0.9962 -1.2277
  370MOL0     H48791   1.240   2.816   2.274 -0.3515  0.0687  0.1345
  370MOL0     H48792   1.217   2.993   2.315  0.1959  0.1827  0.3795
  370MOL0     H48793   1.194   2.694   2.579 -1.2321  0.5043  1.4502
  370MOL0     H48794   0.899   2.838   2.796  1.3716  0.3689  1.2717
  370MOL0     H48795   1.050   2.751   2.820 -0.2246 -1.4092  0.9549
  370MOL0     H48796   0.998   2.571   2.698  1.9310  2.5314 -0.1421
  370MOL0     H48797   0.855   2.638   2.627  2.9527  0.1066 -2.3670
  370MOL0     H48798   0.810   2.469   2.826 -1.8999  0.8619 -1.0864
  370MOL0     H48799   0.885   2.585   2.924  2.9229 -4.5018 -0.6206
  370MOL0     H48800   0.677   2.740   2.842 -1.3599 -0.4506 -2.9898
  370MOL0     H48801   0.643   2.596   2.947 -2.0336 -0.0499  0.2617
  370MOL0     H48802   0.447   2.704   2.950 -1.0353 -0.5410 -0.0220
  370MOL0     H48803   0.208   2.738   2.945 -0.6277 -2.2179  2.2049
  370MOL0     H48804  -0.159   2.405   2.911 -0.5852 -0.3898  0.0981
  370MOL0     H48805  -0.421   2.386   2.939  0.1306  1.0815  0.1897
  370MOL0     H48806  -0.720   2.540   2.639 -2.4530 -3.2157 -0.2469
  370MOL0     H48807  -0.641   2.638   2.765 -0.7971 -1.4426  3.4630
  370MOL0     H48808  -0.834   2.411   2.798 -0.0382  0.3063  1.4725
  370MOL0     H48809  -0.897   2.563   2.779 -0.3258  0.0238 -1.7192
  370MOL0     H48810  -0.768   2.655   2.971  0.4869 -0.1306 -3.3682
  370MOL0     H48811  -0.690   2.504   3.002  1.3327  1.4740 -1.8178
  370MOL0     H48812  -0.946   2.423   3.021 -2.0155  1.6572 -0.9763
  370MOL0     H48813  -0.866   2.506   3.163 -0.3551  0.1841  0.3048
  370MOL0     H48814  -1.061   2.617   2.950 -0.7301  1.1014  0.1700
  370MOL0     H48815  -0.964   2.723   3.053 -0.0448 -0.0665  0.8391
  370MOL0     H48816  -1.076   2.609   3.249 -1.6808 -2.9190  1.1732
  370MOL0     H48817  -1.169   2.510   3.121 -0.2863 -0.4849 -0.5554
  370MOL0     H48818  -1.191   2.811   3.165 -0.5809  0.7019  2.5205
  370MOL0     H48819  -1.288   2.722   3.052 -0.4511  0.5735  1.3334
  370MOL0     H48820  -1.383   2.806   3.262 -2.2111 -0.3286  1.2094
  370MOL0     H48821  -1.296   2.700   3.357  0.4189 -0.6785 -0.1794
  370MOL0     H48822  -0.500   2.555   2.578  0.6640 -0.3530  0.7742
  370MOL0     H48823  -0.248   2.578   2.528  0.9916  2.6273  1.9375
  370MOL0     H48824   0.177   2.481   2.602 -0.7457  2.2533 -0.1754
  370MOL0     H48825   0.435   2.476   2.600  0.0950  1.6374  0.2301
  370MOL0     H48826   2.054   3.106   2.946  0.7157  0.4334 -0.7972
  370MOL0     H48827   2.287   3.202   3.009  2.5995  0.1576  0.0090
  370MOL0     H48828   2.623   3.360   2.962  0.5006  0.3579  0.5196
  370MOL0     H48829   2.823   3.480   2.983 -1.4939 -0.6210  1.3527
  370MOL0     H48830   3.050   3.565   2.982  2.4752  0.3323  1.4668
  370MOL0     H48831   2.992   3.607   2.810 -0.4765 -3.8760 -3.0866
  370MOL0     H48832   3.197   3.635   2.737 -1.8469 -0.1765 -0.0841
  370MOL0     H48833   3.203   3.728   2.887  1.1177 -0.6519  1.2874
  370MOL0     H48834   3.343   3.467   2.826  1.8921  0.0639  0.4835
  370MOL0     H48835   3.319   3.516   2.992 -1.2345 -1.0649 -1.7150
  370MOL0     H48836   3.438   3.690   2.783 -1.1371  2.8253  0.8959
  370MOL0     H48837   3.458   3.718   2.959  2.5090 -1.8817  0.9324
  370MOL0     H48838   3.770   3.450   2.871  1.0548  1.3031  2.1669
  370MOL0     H48839   3.077   3.184   2.818  0.0527 -0.4668  2.1501
  370MOL0     H48840   2.873   3.024   2.841 -2.7334  0.0405  2.0142
  371MOL0     O48841   6.309   8.606   9.615 -0.0076 -0.3896 -0.3717
  371MOL0     C48842   6.377   8.525   9.672 -1.1882  0.3481  0.1132
  371MOL0     O48843   6.369   8.387   9.650  0.8236 -0.6458 -0.0260
  371MOL0     C48844   6.251   8.342   9.601 -0.1545  1.1584  0.8313
  371MOL0     C48845   6.249   8.250   9.496  0.7595 -0.1366  0.3394
  371MOL0     C48846   6.128   8.196   9.444 -0.2214 -0.4657  0.3618
  371MOL0     C48847   5.996   8.239   9.500 -1.2796 -0.2235  0.9514
  371MOL0     O48848   5.887   8.188   9.453 -0.3251  0.6435  0.4074
  371MOL0     C48849   5.768   8.220   9.529 -0.5895 -1.2405  0.8458
  371MOL0     C48850   5.653   8.124   9.481 -0.5409 -0.5361  0.7912
  371MOL0     C48851   5.607   8.164   9.337  0.6070 -0.3573  0.7681
  371MOL0     C48852   5.479   8.091   9.309  0.0378 -0.7281  0.4428
  371MOL0     C48853   5.445   8.095   9.161  0.1744  0.9708  0.3449
  371MOL0     C48854   5.324   8.003   9.146  0.3683  0.2449 -0.8903
  371MOL0     C48855   5.277   8.011   9.005 -0.9071  1.0476 -0.3326
  371MOL0     C48856   5.190   8.135   8.988 -0.6923 -0.5106  0.8638
  371MOL0     N48857   5.051   8.116   9.035  0.7056 -0.0410 -0.5933
  371MOL0     C48858   4.970   8.202   9.103  0.6245  0.3311  0.4587
  371MOL0     C48859   4.857   8.127   9.135 -0.0895 -0.6998  0.2998
  371MOL0     C48860   4.736   8.183   9.205  0.5745  0.7133 -0.9208
  371MOL0     C48861   4.739   8.139   9.351 -0.2215  0.0148  0.0452
  371MOL0     C48862   4.720   7.982   9.362  0.1447  0.2888  0.7643
  371MOL0     C48863   4.681   7.936   9.497  0.0582  0.4600  0.2543
  371MOL0     O48864   4.574   8.016   9.555 -0.6305  0.3870 -0.4696
  371MOL0     C48865   4.458   7.969   9.508  0.1926 -0.3588  1.0275
  371MOL0     C48866   4.406   8.017   9.391 -0.5385  0.0182  0.0589
  371MOL0     C48867   4.292   7.964   9.335 -0.9444  0.0881  0.1443
  371MOL0     C48868   4.221   7.861   9.397  0.8857 -0.2262 -0.5944
  371MOL0     C48869   4.108   7.794   9.335  0.2412 -0.2705  0.5943
  371MOL0     O48870   4.068   7.839   9.218  0.1725  0.0813 -0.0626
  371MOL0     C48871   3.938   7.800   9.189 -0.5014 -0.1441 -0.0398
  371MOL0     C48872   3.825   7.859   9.259  0.4371 -0.0815  0.2549
  371MOL0     C48873   3.693   7.816   9.228  0.1177 -0.8808 -0.1607
  371MOL0     C48874   3.673   7.714   9.128 -0.4834  0.0985  0.0938
  371MOL0     O48875   3.555   7.666   9.104  0.3898 -0.4617  0.1131
  371MOL0     C48876   3.546   7.526   9.067 -0.3442 -0.3520 -0.1952
  371MOL0     C48877   3.406   7.478   9.100 -0.0440  0.5925  0.4022
  371MOL0     C48878   3.291   7.553   9.027  0.4489 -0.1498 -0.7184
  371MOL0     C48879   3.152   7.509   9.090 -0.5235 -0.4831  0.0668
  371MOL0     C48880   3.037   7.578   9.002  0.2221  0.1191  0.5351
  371MOL0     C48881   2.897   7.588   9.069 -0.4976 -0.7710 -0.5215
  371MOL0     C48882   2.785   7.666   8.995 -0.4626 -0.0569 -0.3566
  371MOL0     C48883   2.681   7.743   9.077 -0.5597 -0.4265 -0.7771
  371MOL0    Cl48884   2.538   7.639   9.108 -0.0128 -0.0762  0.0184
  371MOL0     C48885   3.787   7.676   9.048 -0.2945  0.7551 -0.8584
  371MOL0     C48886   3.919   7.713   9.086  0.6613  1.0420  0.2686
  371MOL0     O48887   4.057   7.702   9.387  0.2271 -0.1159 -0.1796
  371MOL0     C48888   4.284   7.806   9.521  0.0037 -0.2697  0.6672
  371MOL0     C48889   4.395   7.868   9.575  0.6175  0.9071 -0.4508
  371MOL0     N48890   4.875   8.000   9.086 -0.4472  0.0718  0.8576
  371MOL0     N48891   4.992   7.995   9.025 -0.3993  0.0082  0.2703
  371MOL0     C48892   6.004   8.341   9.600  0.2818 -0.8397  0.2474
  371MOL0     C48893   6.127   8.391   9.644 -0.0933 -0.9380 -0.1538
  371MOL0     C48894   6.500   8.564   9.742  0.2142 -0.5373 -0.2256
  371MOL0     C48895   6.592   8.477   9.794  0.2210  0.1105 -0.1013
  371MOL0     C48896   6.701   8.520   9.872  0.2004 -0.1055  0.5272
  371MOL0     C48897   6.717   8.661   9.908 -0.1632  0.7640  0.9556
  371MOL0     O48898   6.824   8.699   9.982  0.5671 -0.5427  0.3788
  371MOL0     C48899   6.953   8.629   9.977  0.5937 -0.1079  0.9771
  371MOL0     C48900   7.044   8.714  10.056 -0.7244 -0.1846 -0.9203
  371MOL0     C48901   7.186   8.648  10.053  0.9311  0.4041  0.2125
  371MOL0     C48902   7.281   8.719  10.144 -0.3620 -0.5337 -0.1999
  371MOL0     C48903   7.308   8.848  10.067  0.4056 -0.1001  0.0760
  371MOL0     C48904   7.327   8.962  10.019 -0.4179  0.5058  0.0777
  371MOL0     C48905   6.617   8.750   9.864 -0.3258  0.3993  0.6126
  371MOL0     C48906   6.514   8.698   9.778 -0.5679  0.3412  0.1359
  371MOL0     H48907   6.345   8.207   9.470  1.3714  0.7234  1.1122
  371MOL0     H48908   6.107   8.128   9.362  1.2387 -2.2412  1.3817
  371MOL0     H48909   5.744   8.326   9.516 -1.0366 -1.5045 -0.6480
  371MOL0     H48910   5.782   8.207   9.637  0.7536  0.4192  0.9044
  371MOL0     H48911   5.570   8.139   9.551 -1.4732 -1.9434  0.0421
  371MOL0     H48912   5.685   8.020   9.486 -0.0773 -0.5180 -1.0739
  371MOL0     H48913   5.673   8.132   9.255 -0.3023  1.3310 -0.6838
  371MOL0     H48914   5.583   8.270   9.322  1.4980 -0.4613 -1.9212
  371MOL0     H48915   5.483   7.988   9.347 -0.7842 -0.0058  2.6291
  371MOL0     H48916   5.402   8.139   9.369 -0.1431 -0.6495  0.1491
  371MOL0     H48917   5.526   8.057   9.097 -1.0494 -0.6528 -0.2980
  371MOL0     H48918   5.415   8.193   9.124 -0.3357  0.4928 -0.5634
  371MOL0     H48919   5.244   8.025   9.217  3.6770  0.6870  3.0238
  371MOL0     H48920   5.341   7.899   9.176  0.7455  0.9179  1.3788
  371MOL0     H48921   5.360   8.011   8.934 -1.3234 -0.5728 -0.8624
  371MOL0     H48922   5.221   7.918   8.991  0.9616  0.0734 -1.8836
  371MOL0     H48923   5.186   8.149   8.880  3.0608 -1.2012  0.5203
  371MOL0     H48924   5.234   8.228   9.025  3.4255  0.0577 -4.3174
  371MOL0     H48925   4.999   8.304   9.126 -0.8985  1.1588 -1.0457
  371MOL0     H48926   4.648   8.143   9.155 -0.1091  0.3832  0.4734
  371MOL0     H48927   4.725   8.289   9.182 -0.9373  0.1355 -3.0805
  371MOL0     H48928   4.653   8.188   9.396 -0.2855  0.4139 -0.5058
  371MOL0     H48929   4.831   8.166   9.404  0.7267 -0.8765 -1.0654
  371MOL0     H48930   4.647   7.955   9.286  0.8116 -0.4585  0.3814
  371MOL0     H48931   4.806   7.920   9.336 -1.7234 -2.1879  0.1088
  371MOL0     H48932   4.768   7.943   9.563 -1.6451  2.4523  2.4549
  371MOL0     H48933   4.657   7.829   9.491 -1.7017  0.8534 -0.4684
  371MOL0     H48934   4.463   8.086   9.330  0.4964  0.1892  1.1869
  371MOL0     H48935   4.257   7.992   9.236  2.1886 -2.7444 -1.9863
  371MOL0     H48936   3.858   7.927   9.336  4.8950 -1.3183 -0.2816
  371MOL0     H48937   3.606   7.856   9.279  0.7844  2.6694 -1.5000
  371MOL0     H48938   3.619   7.475   9.131 -1.0179  1.1375  1.8814
  371MOL0     H48939   3.563   7.509   8.961 -0.0558 -0.4261 -0.1394
  371MOL0     H48940   3.403   7.486   9.210  3.1204 -0.6840  0.6820
  371MOL0     H48941   3.402   7.369   9.093  0.1036  0.2077  3.9762
  371MOL0     H48942   3.301   7.529   8.921  1.1951  0.1241 -0.7124
  371MOL0     H48943   3.304   7.659   9.050 -1.3945 -0.4340  2.0772
  371MOL0     H48944   3.146   7.400   9.099  2.4787 -0.6864  0.6536
  371MOL0     H48945   3.149   7.546   9.193  0.8067 -1.0367  0.3313
  371MOL0     H48946   3.023   7.521   8.910 -0.8429  0.9454  0.1646
  371MOL0     H48947   3.070   7.676   8.966  1.2630 -0.3535  0.1702
  371MOL0     H48948   2.926   7.633   9.165  0.6328 -0.2725 -1.0739
  371MOL0     H48949   2.862   7.490   9.103  2.8319 -0.7041  4.1654
  371MOL0     H48950   2.834   7.736   8.927 -0.0704  1.0809  1.0364
  371MOL0     H48951   2.731   7.591   8.936  0.1229 -1.0028  0.2694
  371MOL0     H48952   2.645   7.829   9.021  1.2870 -1.1895 -3.3090
  371MOL0     H48953   2.738   7.774   9.166  2.6866 -0.9272 -2.5075
  371MOL0     H48954   3.785   7.612   8.961 -1.1891  0.3223 -0.5290
  371MOL0     H48955   3.997   7.674   9.022  0.3094  0.1629  0.3529
  371MOL0     H48956   4.241   7.725   9.579  1.5973 -3.7774 -2.6020
  371MOL0     H48957   4.440   7.813   9.658  1.7118 -1.2339 -2.3509
  371MOL0     H48958   5.916   8.388   9.643 -0.3654 -2.3873  0.7003
  371MOL0     H48959   6.133   8.478   9.710 -2.5348 -0.9512  0.1609
  371MOL0     H48960   6.589   8.372   9.770  1.3848  0.1048 -0.3033
  371MOL0     H48961   6.777   8.448   9.900  1.3628 -0.3898 -2.8244
  371MOL0     H48962   6.978   8.625   9.871  0.6090 -0.7846  0.9984
  371MOL0     H48963   6.950   8.531  10.027 -0.7525  0.1403  1.4286
  371MOL0     H48964   7.051   8.807   9.998  2.0112  0.7708  0.7339
  371MOL0     H48965   7.021   8.731  10.161  2.3651  0.3739 -0.2314
  371MOL0     H48966   7.237   8.656   9.957  1.1463 -0.1472  0.2762
  371MOL0     H48967   7.172   8.543  10.083  1.0176 -0.2502 -1.9221
  371MOL0     H48968   7.239   8.751  10.240 -2.1033 -0.7765 -0.8524
  371MOL0     H48969   7.368   8.661  10.175  0.7389  2.2842  2.6160
  371MOL0     H48970   7.345   9.060   9.981  0.9336  0.1866 -0.1712
  371MOL0     H48971   6.620   8.856   9.887 -2.9850  1.0413 -1.4490
  371MOL0     H48972   6.435   8.765   9.747  0.9704  2.2333  0.1645
  372MOL0     O48973   7.183   7.448  10.001 -0.6301 -0.3803 -0.2786
  372MOL0     C48974   7.264   7.358  10.040  0.1773  0.1490  0.0420
  372MOL0     O48975   7.230   7.221  10.033 -0.4982 -0.4910  0.3254
  372MOL0     C48976   7.097   7.185  10.022  1.1614  0.6240 -0.0617
  372MOL0     C48977   7.028   7.119  10.120 -0.6098 -0.2140 -0.7030
  372MOL0     C48978   6.907   7.064  10.093  0.1687 -0.7691  0.3773
  372MOL0     C48979   6.839   7.089   9.964 -0.1557  0.8614  0.4043
  372MOL0     O48980   6.723   7.033   9.930  0.4959  0.1494 -0.1575
  372MOL0     C48981   6.673   7.005   9.787  0.5517 -0.0137  0.6943
  372MOL0     C48982   6.526   6.945   9.803 -0.5772  0.6590  0.0338
  372MOL0     C48983   6.523   6.828   9.911  0.4260  0.3758  0.0886
  372MOL0     C48984   6.374   6.799   9.936  0.1047 -0.0631 -0.1648
  372MOL0     C48985   6.342   6.677  10.025  0.3284  0.1539  0.0642
  372MOL0     C48986   6.189   6.664  10.049  0.2747  0.1919  0.3950
  372MOL0     C48987   6.155   6.541  10.139  0.2969 -0.8022  0.9832
  372MOL0     C48988   6.141   6.418  10.054 -0.3353 -0.5386  0.7655
  372MOL0     N48989   6.019   6.422   9.971 -0.9278 -0.0233  0.6601
  372MOL0     C48990   5.889   6.443  10.012  0.2427 -0.2629 -0.4192
  372MOL0     C48991   5.809   6.428   9.903  0.1316 -0.1430 -0.4037
  372MOL0     C48992   5.660   6.434   9.889 -0.1610 -0.6818  0.4512
  372MOL0     C48993   5.610   6.570   9.942  0.6365  0.8032  0.6641
  372MOL0     C48994   5.455   6.567   9.957 -0.5475  0.7859 -0.0070
  372MOL0     C48995   5.400   6.708   9.977  0.2125  0.3108 -0.2681
  372MOL0     O48996   5.268   6.700  10.043  0.6736 -0.0178 -0.0739
  372MOL0     C48997   5.158   6.664   9.962  0.1921 -0.0266 -1.0002
  372MOL0     C48998   5.105   6.534   9.961 -1.0307  0.0301 -0.1880
  372MOL0     C48999   4.991   6.498   9.893  0.0015 -0.0750 -0.2368
  372MOL0     C49000   4.923   6.600   9.824  0.0412 -0.2568  0.0694
  372MOL0     C49001   4.792   6.569   9.746  0.1483 -0.0988 -0.9068
  372MOL0     O49002   4.744   6.438   9.739 -0.2127 -0.3431  0.7250
  372MOL0     C49003   4.638   6.409   9.660 -0.5092  0.1275  0.2213
  372MOL0     C49004   4.577   6.287   9.689  0.5146  0.0947  0.0945
  372MOL0     C49005   4.458   6.243   9.625 -0.9388 -0.7033 -0.3583
  372MOL0     C49006   4.401   6.325   9.524  0.2411 -0.0518 -0.6920
  372MOL0     O49007   4.280   6.286   9.462  0.4160  0.0205 -0.0880
  372MOL0     C49008   4.196   6.185   9.525 -0.6183 -0.3906 -0.8653
  372MOL0     C49009   4.063   6.182   9.453  0.4692 -0.2304  0.2255
  372MOL0     C49010   3.960   6.273   9.523  0.3140  0.6344  0.3244
  372MOL0     C49011   3.835   6.283   9.437  0.6134 -0.3180  1.0009
  372MOL0     C49012   3.763   6.150   9.399  0.4340  0.1985 -0.5030
  372MOL0     C49013   3.631   6.177   9.342  0.7677  0.8980 -0.2905
  372MOL0     C49014   3.579   6.074   9.243 -0.4433  0.7127  0.4839
  372MOL0     C49015   3.434   6.062   9.244  0.2005 -0.5289  0.1441
  372MOL0    Cl49016   3.347   6.214   9.227  0.3627  0.2534 -0.0447
  372MOL0     C49017   4.470   6.441   9.485  0.5456 -0.4825 -0.3902
  372MOL0     C49018   4.583   6.484   9.552 -0.5322 -0.3474  0.5161
  372MOL0     O49019   4.740   6.673   9.709 -0.6752  0.9115 -0.0202
  372MOL0     C49020   4.973   6.736   9.838 -0.3156  0.8046  0.4506
  372MOL0     C49021   5.091   6.767   9.901  0.6576  1.1233  0.2094
  372MOL0     N49022   5.889   6.400   9.797 -0.3194  0.0890 -0.2920
  372MOL0     N49023   6.013   6.403   9.838 -0.1405  0.5568  0.4719
  372MOL0     C49024   6.903   7.167   9.867  0.2055  0.6969  0.0160
  372MOL0     C49025   7.029   7.209   9.897 -0.1463  0.1846  0.4406
  372MOL0     C49026   7.401   7.403  10.093 -0.2907 -0.3960 -0.7275
  372MOL0     C49027   7.477   7.302  10.159 -0.2134 -0.5288 -0.8220
  372MOL0     C49028   7.605   7.336  10.201 -0.0808  0.3722  0.9089
  372MOL0     C49029   7.662   7.467  10.181  0.5612 -0.0671 -0.3849
  372MOL0     O49030   7.791   7.505  10.221 -0.6094  0.5538 -0.1963
  372MOL0     C49031   7.883   7.397  10.258 -0.1500  0.3318 -0.3416
  372MOL0     C49032   8.031   7.444  10.230 -0.3715 -0.2531  0.6590
  372MOL0     C49033   8.129   7.334  10.273 -0.1487 -0.6835 -0.3667
  372MOL0     C49034   8.166   7.331  10.420 -0.7596 -0.3680 -0.1173
  372MOL0     C49035   8.275   7.428  10.457 -0.2776  0.1187  0.0176
  372MOL0     C49036   8.365   7.510  10.468 -1.0521  0.2684  0.4212
  372MOL0     C49037   7.584   7.562  10.119 -0.4394  0.4688  1.1635
  372MOL0     C49038   7.451   7.534  10.078 -0.0727 -0.4291 -0.5660
  372MOL0     H49039   7.077   7.113  10.217 -1.1014  2.5592 -0.2004
  372MOL0     H49040   6.873   6.986  10.161  3.5610 -2.0887  0.7703
  372MOL0     H49041   6.736   6.936   9.729 -0.3709 -1.0335  0.8815
  372MOL0     H49042   6.667   7.104   9.740  3.1709 -0.3518 -0.5439
  372MOL0     H49043   6.499   6.897   9.709  2.8184  1.3167 -1.3884
  372MOL0     H49044   6.451   7.016   9.841 -1.8407 -0.9549  0.7172
  372MOL0     H49045   6.569   6.855  10.007  0.3479 -0.0140  0.2359
  372MOL0     H49046   6.575   6.742   9.869 -1.9546 -1.2742  0.3403
  372MOL0     H49047   6.333   6.891   9.979 -1.3373 -1.1544  0.8816
  372MOL0     H49048   6.338   6.787   9.834  2.8563  0.9814 -1.3665
  372MOL0     H49049   6.397   6.672  10.119  1.9008 -1.6521 -0.8880
  372MOL0     H49050   6.370   6.594   9.960 -1.7500  1.4805 -2.7769
  372MOL0     H49051   6.142   6.656   9.951  2.1995  2.9821 -0.8904
  372MOL0     H49052   6.144   6.755  10.091 -1.5770 -0.9086  0.9227
  372MOL0     H49053   6.236   6.528  10.211  2.7992  2.4814 -0.9908
  372MOL0     H49054   6.066   6.549  10.203 -1.0387 -4.3014 -0.1896
  372MOL0     H49055   6.145   6.326  10.114  1.6058 -0.4887  0.7675
  372MOL0     H49056   6.224   6.400   9.985  1.0521  1.7941  1.7123
  372MOL0     H49057   5.864   6.451  10.117 -1.4361 -2.5701 -0.5554
  372MOL0     H49058   5.603   6.346   9.921 -1.2377 -0.3564 -0.5049
  372MOL0     H49059   5.637   6.444   9.782  0.6957 -0.8354  0.2453
  372MOL0     H49060   5.642   6.647   9.871 -2.2223 -0.8479 -2.7989
  372MOL0     H49061   5.649   6.591  10.041  1.1800  0.4093  0.5384
  372MOL0     H49062   5.399   6.512   9.880  1.5106  0.2344 -1.2010
  372MOL0     H49063   5.442   6.525  10.057  0.3139  0.8076  0.1218
  372MOL0     H49064   5.399   6.746   9.874  3.0120  2.5436  0.4360
  372MOL0     H49065   5.459   6.767  10.047  0.3847  0.1169 -0.2514
  372MOL0     H49066   5.147   6.454  10.021  1.1565  0.0785 -1.5417
  372MOL0     H49067   4.949   6.398   9.897 -0.5886  0.2174  1.6068
  372MOL0     H49068   4.612   6.222   9.769 -1.0691 -0.1764  0.6038
  372MOL0     H49069   4.415   6.148   9.655  1.8230 -2.8388 -2.6538
  372MOL0     H49070   4.192   6.190   9.634  1.0778 -3.0898 -0.6035
  372MOL0     H49071   4.246   6.089   9.512 -0.3329 -0.1648 -1.4387
  372MOL0     H49072   4.024   6.080   9.445 -4.3257  1.4202 -0.6051
  372MOL0     H49073   4.070   6.209   9.347 -0.2736  2.3673  0.7720
  372MOL0     H49074   4.003   6.373   9.524  1.7579  0.0446  0.1230
  372MOL0     H49075   3.927   6.236   9.620 -0.1313  2.1109  0.7607
  372MOL0     H49076   3.764   6.355   9.479 -0.4875  0.5706 -2.0622
  372MOL0     H49077   3.854   6.334   9.342  1.3028  0.1514  1.3867
  372MOL0     H49078   3.757   6.085   9.486  0.3579 -1.8282 -1.9405
  372MOL0     H49079   3.818   6.107   9.314 -0.8426 -1.4317 -0.5601
  372MOL0     H49080   3.633   6.279   9.302  0.4350  1.9121  2.0501
  372MOL0     H49081   3.570   6.185   9.433 -0.5447  1.3117 -1.1748
  372MOL0     H49082   3.608   6.105   9.142 -0.9828  0.3001  0.1932
  372MOL0     H49083   3.616   5.973   9.265 -2.3375 -0.4810 -1.3557
  372MOL0     H49084   3.408   6.037   9.347  2.2910  0.0139  0.8629
  372MOL0     H49085   3.409   5.988   9.167  0.4734  0.2219 -0.6777
  372MOL0     H49086   4.423   6.514   9.420  1.6332 -0.5546 -1.3020
  372MOL0     H49087   4.638   6.571   9.517  0.9887 -1.1186  0.9368
  372MOL0     H49088   4.934   6.822   9.784  0.6898 -0.2100 -2.0256
  372MOL0     H49089   5.130   6.867   9.920  5.4515 -0.1770 -1.1641
  372MOL0     H49090   6.856   7.213   9.781 -0.2286  0.8312  0.3179
  372MOL0     H49091   7.092   7.254   9.821  3.6028 -0.8198  2.7061
  372MOL0     H49092   7.441   7.200  10.165  1.4490 -1.0466  1.6921
  372MOL0     H49093   7.660   7.252  10.242  0.0532  0.0245  0.0462
  372MOL0     H49094   7.860   7.311  10.194 -0.8975  1.6052 -1.8369
  372MOL0     H49095   7.867   7.362  10.360  1.4832  2.1923  0.6279
  372MOL0     H49096   8.042   7.460  10.123  2.2502  1.1213  1.0467
  372MOL0     H49097   8.072   7.533  10.279  4.1891 -1.0378 -1.2124
  372MOL0     H49098   8.223   7.360  10.224  0.0905  0.4526  0.6458
  372MOL0     H49099   8.099   7.234  10.241  0.6327  0.1855 -4.3494
  372MOL0     H49100   8.072   7.352  10.470 -2.4572 -1.3781 -2.6685
  372MOL0     H49101   8.210   7.234  10.445  3.3085  1.8005  2.2103
  372MOL0     H49102   8.444   7.578  10.492  1.3476 -1.2596 -2.4565
  372MOL0     H49103   7.607   7.664  10.091  1.3549 -0.4136 -0.8832
  372MOL0     H49104   7.396   7.599  10.011 -1.2775  1.4377  2.0945
  373MOL0     O49105   8.417   6.182   9.916 -0.3292  0.8378 -0.1886
  373MOL0     C49106   8.355   6.203   9.813 -0.5881 -0.3945  0.1650
  373MOL0     O49107   8.406   6.296   9.712 -0.4599  1.1239  0.1107
  373MOL0     C49108   8.512   6.368   9.749 -0.7286  0.2879  0.7544
  373MOL0     C49109   8.638   6.305   9.776  0.3967 -0.2262 -0.3322
  373MOL0     C49110   8.750   6.387   9.801  0.2753  0.1146 -0.7064
  373MOL0     C49111   8.736   6.525   9.809 -0.9349  0.2083 -0.0195
  373MOL0     O49112   8.844   6.608   9.835 -0.4384  0.0190 -0.7088
  373MOL0     C49113   8.970   6.556   9.865  0.0168  0.1090  0.5359
  373MOL0     C49114   9.041   6.678   9.927  1.1026 -0.4336 -0.8786
  373MOL0     C49115   9.082   6.782   9.817  0.2061 -0.1229  0.9471
  373MOL0     C49116   9.120   6.918   9.880 -0.2351  0.6151 -0.8432
  373MOL0     C49117   9.264   6.958   9.920  0.7862  0.7656  0.6573
  373MOL0     C49118   9.255   7.105   9.975 -0.1264  0.9235 -0.1280
  373MOL0     C49119   9.165   7.145  10.096  0.3872  0.4537  0.3670
  373MOL0     C49120   9.208   7.057  10.219 -1.0063 -0.7914  0.9418
  373MOL0     N49121   9.123   7.076  10.333 -0.1300  0.1632  1.0061
  373MOL0     C49122   9.135   7.167  10.432 -0.2889  0.1004  0.3017
  373MOL0     C49123   9.077   7.103  10.535  0.5976 -0.0577 -1.3601
  373MOL0     C49124   9.071   7.171  10.677 -0.5747  0.5747 -0.0035
  373MOL0     C49125   8.970   7.108  10.773  0.0997  0.1420 -0.4399
  373MOL0     C49126   8.822   7.152  10.766 -0.3939  0.1143 -0.2556
  373MOL0     C49127   8.751   7.051  10.863  0.9345 -0.7728  0.6313
  373MOL0     O49128   8.617   7.090  10.871 -0.2218 -0.2273 -0.1611
  373MOL0     C49129   8.526   7.048  10.775  0.4073  0.1059  0.6839
  373MOL0     C49130   8.397   7.077  10.810 -0.3250  0.0184 -0.1713
  373MOL0     C49131   8.298   7.034  10.723 -0.8679 -0.3628  0.3380
  373MOL0     C49132   8.319   6.964  10.607 -0.0872  0.6866 -0.8072
  373MOL0     C49133   8.208   6.925  10.516  0.0617  0.6764 -0.3631
  373MOL0     O49134   8.091   6.990  10.552 -0.1848  0.0241  0.5178
  373MOL0     C49135   7.985   6.990  10.465  1.0375  0.8344 -0.8728
  373MOL0     C49136   7.971   6.961  10.331  0.0473 -0.2523  0.4310
  373MOL0     C49137   7.851   6.954  10.266  1.3153  0.3754 -0.0458
  373MOL0     C49138   7.731   6.990  10.334  0.2020  0.2228  0.8622
  373MOL0     O49139   7.616   6.984  10.249 -0.5941 -0.7518 -0.5174
  373MOL0     C49140   7.492   6.972  10.313  0.4680  0.5080  0.4047
  373MOL0     C49141   7.374   6.940  10.218 -0.6611 -0.0191 -0.9459
  373MOL0     C49142   7.365   6.789  10.186  0.3389  0.0491 -0.0159
  373MOL0     C49143   7.231   6.758  10.118  0.1362 -0.3005  0.5609
  373MOL0     C49144   7.249   6.658  10.006  0.7856 -0.6558  0.0464
  373MOL0     C49145   7.123   6.642   9.928 -0.4573  0.5410 -0.9887
  373MOL0     C49146   7.154   6.579   9.795 -0.5697  0.8771 -0.2088
  373MOL0     C49147   7.026   6.552   9.712  0.7630  0.7883 -0.1122
  373MOL0    Cl49148   6.931   6.427   9.795 -0.4371 -0.1036  0.1696
  373MOL0     C49149   7.739   7.023  10.470 -0.7065 -1.6044  0.5215
  373MOL0     C49150   7.866   7.030  10.537  0.6188 -0.7390 -0.0536
  373MOL0     O49151   8.222   6.849  10.421 -0.1273  0.6967  0.2185
  373MOL0     C49152   8.449   6.922  10.577  0.3855 -0.3384  0.6330
  373MOL0     C49153   8.555   6.970  10.660  0.3645  0.2096  0.4692
  373MOL0     N49154   9.030   6.973  10.503  0.1583 -0.2864 -0.6407
  373MOL0     N49155   9.052   6.965  10.383  0.1058  0.0983  0.1838
  373MOL0     C49156   8.611   6.577   9.798  0.3589 -0.9650  0.2860
  373MOL0     C49157   8.502   6.504   9.758  0.1679  0.8166  0.3534
  373MOL0     C49158   8.212   6.172   9.797  0.1654  0.0512 -0.8151
  373MOL0     C49159   8.146   6.143   9.919  0.4720  0.4467 -0.2229
  373MOL0     C49160   8.009   6.110   9.910  0.1747 -0.2871 -0.6342
  373MOL0     C49161   7.934   6.129   9.798  0.2017 -0.0306  0.4075
  373MOL0     O49162   7.801   6.101   9.808  0.4211 -0.4137 -0.5733
  373MOL0     C49163   7.713   6.110   9.693  0.8730 -0.5546  0.8677
  373MOL0     C49164   7.570   6.087   9.727  0.5549 -0.6926 -0.5169
  373MOL0     C49165   7.525   6.188   9.836  0.7156 -0.0071  0.8191
  373MOL0     C49166   7.476   6.317   9.774  0.4294 -0.2479  0.1105
  373MOL0     C49167   7.577   6.417   9.735  0.1955  0.6757 -0.1106
  373MOL0     C49168   7.649   6.513   9.695 -0.3647 -0.1058  0.0310
  373MOL0     C49169   7.996   6.171   9.680  0.1224  0.6980 -0.4330
  373MOL0     C49170   8.133   6.193   9.684  0.8646  0.6684  0.4423
  373MOL0     H49171   8.637   6.196   9.770 -1.2830 -0.2407 -0.2314
  373MOL0     H49172   8.853   6.355   9.808  1.6207  3.7450 -1.6627
  373MOL0     H49173   9.026   6.511   9.782 -1.6756  0.1090 -0.6710
  373MOL0     H49174   8.970   6.475   9.938 -0.1372  0.2263  0.6645
  373MOL0     H49175   9.123   6.637   9.986  1.8666 -0.7763 -2.1331
  373MOL0     H49176   8.968   6.721   9.996  1.8165  2.0092 -1.5344
  373MOL0     H49177   9.001   6.797   9.745  0.0785  1.2885  1.3532
  373MOL0     H49178   9.167   6.739   9.764  1.3973  2.8311  0.2757
  373MOL0     H49179   9.080   6.996   9.814 -0.7951  0.6183 -0.5045
  373MOL0     H49180   9.061   6.928   9.972 -1.2659 -1.0358 -1.2800
  373MOL0     H49181   9.332   6.954   9.834 -1.0897 -0.3883 -0.8700
  373MOL0     H49182   9.297   6.896  10.004 -0.4724  1.6297  1.8311
  373MOL0     H49183   9.216   7.162   9.890 -0.1416  0.2475 -0.5793
  373MOL0     H49184   9.357   7.139   9.994 -0.2524  1.4301 -0.3309
  373MOL0     H49185   9.190   7.246  10.128  3.6667 -0.1757  0.0924
  373MOL0     H49186   9.062   7.139  10.060  0.7956  1.4880 -1.0751
  373MOL0     H49187   9.305   7.088  10.259 -1.9499  2.2115  1.1778
  373MOL0     H49188   9.202   6.951  10.192  0.9429 -0.9681  1.0617
  373MOL0     H49189   9.194   7.258  10.432 -1.8348  1.1545  0.6887
  373MOL0     H49190   9.051   7.276  10.653 -1.1626  1.2436  2.9150
  373MOL0     H49191   9.166   7.174  10.733 -0.6814  1.7138  0.1322
  373MOL0     H49192   9.000   7.140  10.873 -2.7382 -0.0592  0.5589
  373MOL0     H49193   8.983   7.000  10.782  2.6077  0.4384  0.3854
  373MOL0     H49194   8.820   7.254  10.806 -0.3211  0.3627 -0.8742
  373MOL0     H49195   8.775   7.145  10.667  0.0024 -1.6730 -0.3557
  373MOL0     H49196   8.800   7.055  10.960 -1.1164 -1.2323  1.7495
  373MOL0     H49197   8.754   6.945  10.839 -1.2328 -1.4065  2.7482
  373MOL0     H49198   8.367   7.125  10.903 -1.4597 -2.1056  0.6302
  373MOL0     H49199   8.201   7.070  10.754 -0.6376  1.3820 -0.8393
  373MOL0     H49200   8.055   6.949  10.264 -0.2155 -2.8296  0.4648
  373MOL0     H49201   7.830   6.915  10.167 -0.3466 -1.1980  0.8547
  373MOL0     H49202   7.462   7.058  10.374 -2.8746 -0.5220  0.3704
  373MOL0     H49203   7.505   6.884  10.376  0.2810  1.6450  2.1109
  373MOL0     H49204   7.396   6.989  10.122 -0.8192 -1.4173 -1.7272
  373MOL0     H49205   7.281   6.973  10.266 -0.7280  1.6504 -2.1090
  373MOL0     H49206   7.376   6.716  10.266  1.9019  2.9026  2.5939
  373MOL0     H49207   7.441   6.754  10.115  0.6984 -0.7828  0.7681
  373MOL0     H49208   7.149   6.726  10.183  0.1784 -3.3612 -0.7568
  373MOL0     H49209   7.207   6.855  10.074  1.7068  0.0173  0.3431
  373MOL0     H49210   7.277   6.563  10.054 -1.1090 -1.1466  0.2275
  373MOL0     H49211   7.324   6.691   9.933 -2.2690  1.3817 -2.3824
  373MOL0     H49212   7.059   6.731   9.920  0.0918  1.1124  0.6129
  373MOL0     H49213   7.069   6.565   9.984  0.3293  1.1556  0.6953
  373MOL0     H49214   7.218   6.642   9.733  0.5046  0.0252  0.0118
  373MOL0     H49215   7.204   6.483   9.811 -0.5554  0.9608  0.2566
  373MOL0     H49216   7.047   6.523   9.609 -0.4752 -0.1746 -0.1191
  373MOL0     H49217   6.963   6.642   9.704 -0.9931 -0.3243  0.5253
  373MOL0     H49218   7.655   7.052  10.532 -0.9712 -0.9712 -0.1236
  373MOL0     H49219   7.875   7.042  10.644 -1.0053  0.0927  0.0228
  373MOL0     H49220   8.479   6.873  10.485 -0.2095 -0.5190  0.5304
  373MOL0     H49221   8.660   6.953  10.635  0.8803  0.1770  2.5229
  373MOL0     H49222   8.613   6.684   9.816  1.8151 -1.1948  1.6991
  373MOL0     H49223   8.405   6.548   9.736 -1.2581 -1.0096  2.5197
  373MOL0     H49224   8.194   6.125  10.015  1.6752 -1.0553 -1.0535
  373MOL0     H49225   7.972   6.070  10.004 -0.6179 -0.9093 -1.2010
  373MOL0     H49226   7.754   6.033   9.627 -0.2450  1.1121 -1.9532
  373MOL0     H49227   7.728   6.210   9.651  1.0804 -0.9635 -0.0387
  373MOL0     H49228   7.519   6.101   9.632  1.6745 -1.1479 -1.2028
  373MOL0     H49229   7.550   5.986   9.765 -0.1422 -0.1896  0.4946
  373MOL0     H49230   7.598   6.203   9.916 -1.5081  1.2423  2.7771
  373MOL0     H49231   7.442   6.148   9.896 -0.1395 -1.4194 -1.1766
  373MOL0     H49232   7.411   6.306   9.687 -0.3465  1.6980  0.4231
  373MOL0     H49233   7.414   6.364   9.850  0.0915  0.4077 -0.5554
  373MOL0     H49234   7.693   6.605   9.664 -1.5841 -0.2618 -2.4072
  373MOL0     H49235   7.934   6.186   9.592 -0.7847  2.3978  0.4607
  373MOL0     H49236   8.185   6.211   9.590  0.3245 -2.7891 -0.6693
  374MOL0     O49237   4.556   3.423   4.365 -0.0163  0.0763  0.7587
  374MOL0     C49238   4.570   3.485   4.261 -0.2557  0.6321  0.3598
  374MOL0     O49239   4.468   3.520   4.179  1.1491 -0.3387  0.0092
  374MOL0     C49240   4.341   3.533   4.229  0.5075 -0.0231 -0.0229
  374MOL0     C49241   4.237   3.511   4.139 -0.5802  0.4377  0.6472
  374MOL0     C49242   4.110   3.499   4.175  0.3245 -0.4247  0.0202
  374MOL0     C49243   4.075   3.509   4.309  0.6560 -0.1561  0.2873
  374MOL0     O49244   3.946   3.473   4.352 -0.6462 -0.4078  1.1624
  374MOL0     C49245   3.852   3.444   4.249 -0.5671  0.0252 -0.4133
  374MOL0     C49246   3.715   3.412   4.314  0.3095 -0.4231 -0.1220
  374MOL0     C49247   3.595   3.399   4.223 -0.5441 -0.4883 -0.2347
  374MOL0     C49248   3.469   3.363   4.297  0.3290 -0.8201  0.2908
  374MOL0     C49249   3.356   3.310   4.206 -0.6638 -0.3540 -0.1602
  374MOL0     C49250   3.229   3.290   4.293  0.4449 -0.2812  1.1539
  374MOL0     C49251   3.102   3.244   4.209 -0.3994  0.7867 -0.3093
  374MOL0     C49252   3.039   3.337   4.102  0.1444 -0.1180  0.6430
  374MOL0     N49253   2.895   3.291   4.070  0.1922  0.6175  0.1855
  374MOL0     C49254   2.854   3.165   4.026 -0.0331  1.2179 -0.3430
  374MOL0     C49255   2.720   3.169   4.010  0.6251  0.6679 -0.5953
  374MOL0     C49256   2.632   3.051   3.979 -0.2928 -0.2238 -0.8628
  374MOL0     C49257   2.490   3.091   3.968 -0.1476 -0.2395  0.4620
  374MOL0     C49258   2.403   2.976   3.902 -0.7330 -0.8738 -1.2949
  374MOL0     C49259   2.251   3.004   3.889 -0.6433  0.4679 -0.1561
  374MOL0     O49260   2.231   3.142   3.846 -0.5634 -0.1687  0.5280
  374MOL0     C49261   2.109   3.197   3.851 -0.0729  0.3696 -0.0779
  374MOL0     C49262   2.092   3.332   3.838 -0.0721  0.1737  0.3382
  374MOL0     C49263   1.967   3.398   3.852 -0.2765  0.3856  0.3385
  374MOL0     C49264   1.857   3.312   3.874 -0.0435 -0.7967 -0.7687
  374MOL0     C49265   1.729   3.383   3.877 -0.3447 -0.1921  0.5061
  374MOL0     O49266   1.632   3.318   3.936 -0.1465  0.6750 -0.0250
  374MOL0     C49267   1.500   3.358   3.912 -0.7995  1.0111  0.8149
  374MOL0     C49268   1.450   3.393   3.778 -0.2072 -0.1923 -0.1809
  374MOL0     C49269   1.309   3.418   3.768 -0.6105  0.1257  0.4628
  374MOL0     C49270   1.230   3.424   3.882  0.5781  0.0818  0.5713
  374MOL0     O49271   1.107   3.471   3.862  0.2728  0.0641 -0.4624
  374MOL0     C49272   1.019   3.487   3.977 -0.4348  0.4479 -0.2615
  374MOL0     C49273   0.883   3.546   3.938  0.3773 -0.0359  0.2769
  374MOL0     C49274   0.829   3.600   4.075 -0.3922  0.3133 -0.6214
  374MOL0     C49275   0.669   3.608   4.097  0.0890 -0.2047  0.3160
  374MOL0     C49276   0.642   3.705   4.215  0.2079 -1.1772 -0.4856
  374MOL0     C49277   0.516   3.688   4.300 -0.4427 -1.0040 -0.5027
  374MOL0     C49278   0.387   3.744   4.232  0.0312 -0.0562  0.6468
  374MOL0     C49279   0.336   3.646   4.122 -0.0008  0.3012 -0.4165
  374MOL0    Cl49280   0.187   3.557   4.143 -0.0709  0.6212  0.0037
  374MOL0     C49281   1.277   3.387   4.004 -0.0534  0.0949  0.5656
  374MOL0     C49282   1.404   3.347   4.016  0.2478  0.3685  0.0768
  374MOL0     O49283   1.716   3.494   3.821 -0.1122  0.9382 -0.9043
  374MOL0     C49284   1.866   3.174   3.887  0.0511 -0.5313 -0.6856
  374MOL0     C49285   1.991   3.116   3.867 -0.2258 -1.1862 -0.5083
  374MOL0     N49286   2.688   3.305   4.023  0.1458  0.2728 -0.2317
  374MOL0     N49287   2.791   3.376   4.063 -0.5854 -0.1360  0.6732
  374MOL0     C49288   4.171   3.543   4.401  0.0597  0.9944 -0.3177
  374MOL0     C49289   4.299   3.557   4.363  0.6468 -0.5006 -0.2764
  374MOL0     C49290   4.710   3.510   4.214  0.5737 -0.6562 -0.2110
  374MOL0     C49291   4.820   3.483   4.304  0.0534 -0.3048 -0.3599
  374MOL0     C49292   4.954   3.484   4.250 -0.4754  0.8929  0.4622
  374MOL0     C49293   4.981   3.513   4.116  0.3983 -0.1218  0.2352
  374MOL0     O49294   5.113   3.535   4.085  0.4120 -0.2968  0.3924
  374MOL0     C49295   5.128   3.625   3.967  0.8348  0.4800 -0.9644
  374MOL0     C49296   5.270   3.672   3.973  0.1469  0.2392  0.1315
  374MOL0     C49297   5.311   3.740   4.101  0.2790  0.2659  0.2282
  374MOL0     C49298   5.236   3.872   4.127 -0.1783  0.8069 -0.4682
  374MOL0     C49299   5.314   3.939   4.230  0.7952 -0.9125 -0.8813
  374MOL0     C49300   5.372   4.015   4.308  0.9021 -0.7150  1.2382
  374MOL0     C49301   4.868   3.540   4.030 -0.1690 -0.1110  0.6285
  374MOL0     C49302   4.738   3.542   4.084  0.3269  1.6373 -0.3342
  374MOL0     H49303   4.267   3.497   4.035 -1.4843  2.6679  0.0154
  374MOL0     H49304   4.034   3.473   4.102 -0.6379 -0.1822  0.9218
  374MOL0     H49305   3.888   3.357   4.192  0.4525 -0.9221  1.5480
  374MOL0     H49306   3.838   3.525   4.177 -0.2110 -0.0520 -0.5739
  374MOL0     H49307   3.695   3.495   4.384  2.0323 -2.2914  2.8121
  374MOL0     H49308   3.717   3.317   4.368  0.2655 -1.8282 -2.4897
  374MOL0     H49309   3.626   3.329   4.145 -1.3216  0.9964 -1.9571
  374MOL0     H49310   3.576   3.492   4.169  0.5607 -0.8400 -1.2647
  374MOL0     H49311   3.491   3.284   4.370 -4.0338 -3.0211 -0.4380
  374MOL0     H49312   3.427   3.443   4.359 -1.2923 -0.2262 -1.4909
  374MOL0     H49313   3.388   3.209   4.178  0.8570  0.4269 -1.3358
  374MOL0     H49314   3.335   3.365   4.114 -0.2361  0.6153  0.3071
  374MOL0     H49315   3.203   3.380   4.349  0.4157 -0.0488  0.7666
  374MOL0     H49316   3.234   3.212   4.370  0.0165 -0.7414  0.7277
  374MOL0     H49317   3.138   3.157   4.153 -1.9557  1.1113 -1.9102
  374MOL0     H49318   3.021   3.216   4.277 -0.0464  0.0854 -0.1618
  374MOL0     H49319   3.107   3.341   4.016  3.3501  1.8401  3.0414
  374MOL0     H49320   3.032   3.438   4.144 -0.4580 -0.4768  1.4383
  374MOL0     H49321   2.905   3.071   4.009 -1.7754  0.2398 -0.4668
  374MOL0     H49322   2.629   2.972   4.056 -0.4151  1.8570  1.3969
  374MOL0     H49323   2.660   3.004   3.884  1.6174 -1.5492  0.2655
  374MOL0     H49324   2.484   3.175   3.898 -4.1457 -0.6851  0.0681
  374MOL0     H49325   2.449   3.125   4.064 -1.6132  0.8462 -0.5127
  374MOL0     H49326   2.452   2.952   3.807 -0.2587 -1.7455 -0.8364
  374MOL0     H49327   2.414   2.889   3.966 -1.8109 -0.3538 -0.3724
  374MOL0     H49328   2.212   2.985   3.989  1.6540 -1.5257  0.4779
  374MOL0     H49329   2.200   2.935   3.821  0.5815  0.3970 -1.0492
  374MOL0     H49330   2.177   3.397   3.820  1.5531 -2.5262 -2.8644
  374MOL0     H49331   1.960   3.505   3.837 -4.2447  0.3485  0.8085
  374MOL0     H49332   1.513   3.389   3.690 -0.6268  0.0573 -0.4953
  374MOL0     H49333   1.267   3.431   3.668  0.0946 -0.0704  0.1403
  374MOL0     H49334   1.066   3.556   4.048 -0.7692 -0.5469  0.9735
  374MOL0     H49335   1.016   3.385   4.018 -0.3631  1.1201  1.4830
  374MOL0     H49336   0.824   3.473   3.881 -0.9000  2.0923 -1.2871
  374MOL0     H49337   0.901   3.622   3.862  0.3862 -1.1923 -0.9140
  374MOL0     H49338   0.875   3.698   4.091 -1.1886  0.7608 -1.0400
  374MOL0     H49339   0.865   3.534   4.155 -0.5531  2.2344  1.1512
  374MOL0     H49340   0.628   3.646   4.003  1.2509 -1.1319 -0.5882
  374MOL0     H49341   0.621   3.512   4.115 -0.3721  0.0527  0.4902
  374MOL0     H49342   0.637   3.806   4.171 -0.1370  0.1485  2.3460
  374MOL0     H49343   0.728   3.718   4.281  1.1093 -2.6777 -1.3375
  374MOL0     H49344   0.540   3.742   4.392  0.9842 -3.1627  0.4664
  374MOL0     H49345   0.505   3.584   4.330 -0.3865 -1.4293 -1.8550
  374MOL0     H49346   0.309   3.741   4.308  0.7604 -0.8093  1.3762
  374MOL0     H49347   0.406   3.848   4.202  2.5935 -0.7422 -0.3347
  374MOL0     H49348   0.420   3.583   4.090  0.4402 -0.2826  1.7117
  374MOL0     H49349   0.317   3.705   4.032  0.7324  3.5825  1.4302
  374MOL0     H49350   1.220   3.374   4.095 -1.5416  0.5898 -0.2577
  374MOL0     H49351   1.433   3.312   4.114  4.1225 -0.5369 -1.2119
  374MOL0     H49352   1.780   3.109   3.902 -0.3092  0.6184  3.6976
  374MOL0     H49353   1.997   3.007   3.870  1.0956 -1.1748 -1.6484
  374MOL0     H49354   4.132   3.550   4.502 -0.7412 -1.8257 -0.3457
  374MOL0     H49355   4.365   3.583   4.445 -1.7796 -2.0246  2.3440
  374MOL0     H49356   4.801   3.460   4.408 -1.6644  0.4131 -0.4870
  374MOL0     H49357   5.039   3.462   4.315  1.0703 -1.1908 -2.0638
  374MOL0     H49358   5.069   3.717   3.980  1.8206  0.8137  2.1073
  374MOL0     H49359   5.106   3.573   3.874 -1.7273  2.5025 -1.6345
  374MOL0     H49360   5.331   3.584   3.948  1.1844  0.6692  1.0430
  374MOL0     H49361   5.288   3.739   3.889  1.6616 -0.7675 -0.3934
  374MOL0     H49362   5.419   3.757   4.086  0.1763  1.7013  0.8634
  374MOL0     H49363   5.300   3.667   4.181 -0.6367 -0.0729 -0.2035
  374MOL0     H49364   5.232   3.930   4.034  0.5862  0.6845 -0.5823
  374MOL0     H49365   5.137   3.842   4.162  1.0655 -3.1950  0.1573
  374MOL0     H49366   5.439   4.074   4.368  1.0336 -1.7854  2.1774
  374MOL0     H49367   4.890   3.553   3.925 -1.2273  0.3747  0.4493
  374MOL0     H49368   4.653   3.553   4.017 -0.5971 -2.5951 -0.1111
  375MOL0     O49369   0.778   7.094   0.232 -0.5663  0.2960 -0.5815
  375MOL0     C49370   0.789   7.110   0.108  0.5364  0.2596 -0.2323
  375MOL0     O49371   0.682   7.120   0.019 -0.0227 -0.0326 -0.4191
  375MOL0     C49372   0.548   7.106   0.055  0.6766 -1.2342  0.4480
  375MOL0     C49373   0.462   7.077  -0.055 -0.2419  0.8404  0.1368
  375MOL0     C49374   0.330   7.078  -0.037  0.6013  0.2584 -0.1274
  375MOL0     C49375   0.274   7.092   0.084  0.3235 -0.8627  0.0886
  375MOL0     O49376   0.133   7.086   0.088 -0.7116 -0.3765  1.0461
  375MOL0     C49377   0.071   7.188   0.161  0.2716  0.5316 -0.8823
  375MOL0     C49378  -0.065   7.202   0.108 -0.1259  0.1218  0.2091
  375MOL0     C49379  -0.158   7.298   0.180  0.4945 -0.5150 -0.1652
  375MOL0     C49380  -0.299   7.311   0.118  0.0482 -0.4892  0.4629
  375MOL0     C49381  -0.389   7.398   0.207  0.3051  0.5961 -0.8472
  375MOL0     C49382  -0.329   7.532   0.252  0.0329  0.9630 -0.3913
  375MOL0     C49383  -0.421   7.626   0.331  0.6933 -0.6721 -0.4094
  375MOL0     C49384  -0.365   7.763   0.387  0.0614 -0.5120  0.6940
  375MOL0     N49385  -0.474   7.850   0.453 -0.1924 -0.2757  0.2070
  375MOL0     C49386  -0.580   7.914   0.376  0.3756  0.3310 -0.6907
  375MOL0     C49387  -0.647   7.981   0.476  0.4920  0.8709  1.1091
  375MOL0     C49388  -0.775   8.060   0.449 -0.4580 -0.6667  1.1961
  375MOL0     C49389  -0.873   8.042   0.554  0.2224  0.3520  0.1316
  375MOL0     C49390  -1.006   8.135   0.534  0.6111  0.8227  0.5426
  375MOL0     C49391  -1.041   8.231   0.650 -0.1992  0.0154 -0.6947
  375MOL0     O49392  -1.069   8.158   0.771  0.9490  0.5553 -0.1169
  375MOL0     C49393  -1.197   8.125   0.804 -0.7141 -0.6007 -0.0704
  375MOL0     C49394  -1.305   8.124   0.713 -0.1234  0.4196  0.6498
  375MOL0     C49395  -1.428   8.085   0.751  0.7635  0.5200 -1.2861
  375MOL0     C49396  -1.455   8.060   0.890 -0.1417 -0.2245 -0.5885
  375MOL0     C49397  -1.588   8.023   0.935  0.1142 -0.4251  0.0390
  375MOL0     O49398  -1.696   8.050   0.845 -0.4913  0.3444 -0.4775
  375MOL0     C49399  -1.828   8.020   0.874  0.5917 -0.0651  0.5026
  375MOL0     C49400  -1.917   7.967   0.782 -0.5065  0.9330  0.0463
  375MOL0     C49401  -2.053   7.945   0.816 -0.5529 -0.2329  0.6510
  375MOL0     C49402  -2.103   7.979   0.943 -0.3051  0.5397  0.9136
  375MOL0     O49403  -2.237   7.964   0.962  0.7652  0.1832  0.1956
  375MOL0     C49404  -2.286   8.006   1.091 -0.2971  0.5016  0.3203
  375MOL0     C49405  -2.436   7.981   1.102  0.4671 -1.2260 -0.5406
  375MOL0     C49406  -2.487   8.020   1.236  0.6664  0.1839 -0.3980
  375MOL0     C49407  -2.622   7.954   1.284 -0.1663 -0.5046  0.7072
  375MOL0     C49408  -2.741   7.988   1.187 -0.0698 -0.6545 -0.6471
  375MOL0     C49409  -2.801   8.133   1.201  0.1676  0.1310  0.3573
  375MOL0     C49410  -2.908   8.158   1.097  0.1007  0.1595  0.4658
  375MOL0     C49411  -2.969   8.293   1.112  0.0448  0.3527  0.1198
  375MOL0    Cl49412  -3.104   8.316   0.989 -0.1087 -0.1120 -0.2866
  375MOL0     C49413  -2.011   8.036   1.040  0.0704  0.2322  0.2570
  375MOL0     C49414  -1.873   8.049   0.998 -0.7720  0.0129 -0.7945
  375MOL0     O49415  -1.606   7.977   1.052  0.0844 -1.3095  0.1709
  375MOL0     C49416  -1.344   8.050   0.976 -1.0899 -0.1179  0.5848
  375MOL0     C49417  -1.218   8.095   0.930 -0.3257  0.1288  0.8159
  375MOL0     N49418  -0.590   7.955   0.599  0.1723  0.4548 -1.0836
  375MOL0     N49419  -0.484   7.876   0.586 -0.4612 -0.0816 -0.4767
  375MOL0     C49420   0.349   7.120   0.194  0.0061  0.3576 -0.2967
  375MOL0     C49421   0.488   7.136   0.177 -0.2366 -0.2886 -0.1902
  375MOL0     C49422   0.925   7.127   0.054  0.3398 -0.3106 -0.2246
  375MOL0     C49423   0.926   7.133  -0.085 -0.0586  0.5383 -0.6325
  375MOL0     C49424   1.049   7.140  -0.150 -0.3626  0.6715 -0.1489
  375MOL0     C49425   1.168   7.127  -0.077 -0.6598 -0.4291 -0.0617
  375MOL0     O49426   1.283   7.148  -0.159  0.0839  0.1422 -0.5324
  375MOL0     C49427   1.405   7.152  -0.084  0.7316 -0.0617  0.7393
  375MOL0     C49428   1.519   7.199  -0.175  0.3525 -0.0852 -0.2188
  375MOL0     C49429   1.609   7.299  -0.109 -0.2560  0.0490 -0.1762
  375MOL0     C49430   1.708   7.363  -0.215  0.8676 -0.5745 -0.2975
  375MOL0     C49431   1.634   7.456  -0.299  0.3527  0.9878 -0.1414
  375MOL0     C49432   1.573   7.546  -0.352 -0.3757 -0.0835  0.3600
  375MOL0     C49433   1.160   7.112   0.061 -0.4071 -0.7207  0.6696
  375MOL0     C49434   1.043   7.111   0.127  1.2327 -0.4201 -0.1120
  375MOL0     H49435   0.499   7.062  -0.156 -2.4066  2.2478 -0.9660
  375MOL0     H49436   0.258   7.055  -0.115 -2.9590  0.6180  2.8265
  375MOL0     H49437   0.125   7.284   0.162 -1.8470  1.9125  3.2187
  375MOL0     H49438   0.070   7.160   0.267  1.0351  2.1938 -0.3975
  375MOL0     H49439  -0.105   7.101   0.106  2.3045 -0.9727  1.5844
  375MOL0     H49440  -0.057   7.225   0.002  0.7809 -2.4582 -0.3558
  375MOL0     H49441  -0.113   7.398   0.181 -1.3504  0.4254  2.5815
  375MOL0     H49442  -0.177   7.255   0.279 -1.2304 -0.3215 -0.3806
  375MOL0     H49443  -0.302   7.370   0.026  0.5820  1.6365  1.7145
  375MOL0     H49444  -0.326   7.206   0.110  3.3930 -1.4709  0.5106
  375MOL0     H49445  -0.408   7.332   0.292  1.3549 -0.8573 -1.6932
  375MOL0     H49446  -0.486   7.411   0.158  0.5394 -0.6763 -1.7058
  375MOL0     H49447  -0.296   7.569   0.155  1.1038 -0.6003 -0.6632
  375MOL0     H49448  -0.249   7.498   0.319 -0.2529 -1.1509 -1.0456
  375MOL0     H49449  -0.497   7.646   0.255 -0.9252  0.4901  1.4204
  375MOL0     H49450  -0.459   7.561   0.410 -2.8469  1.4605 -0.1337
  375MOL0     H49451  -0.330   7.826   0.305 -0.1910 -0.3785  0.6883
  375MOL0     H49452  -0.282   7.746   0.456  0.9591 -0.4237 -0.3474
  375MOL0     H49453  -0.597   7.917   0.269  1.9389 -3.0487 -1.1713
  375MOL0     H49454  -0.810   8.040   0.347  0.3861 -1.1257  0.9857
  375MOL0     H49455  -0.755   8.168   0.451 -3.3425 -0.0197  0.4948
  375MOL0     H49456  -0.835   8.065   0.654  0.4855  1.5022 -0.2084
  375MOL0     H49457  -0.906   7.938   0.558  0.4909  0.2813  3.8825
  375MOL0     H49458  -0.995   8.198   0.445 -2.7123 -0.0204 -0.6141
  375MOL0     H49459  -1.093   8.073   0.510  0.0179  1.6756  0.4457
  375MOL0     H49460  -1.119   8.297   0.610  0.9601  1.4015 -0.7282
  375MOL0     H49461  -0.956   8.298   0.666  0.1137 -0.7578  1.1296
  375MOL0     H49462  -1.292   8.138   0.606  0.5177 -2.5405  0.2521
  375MOL0     H49463  -1.510   8.068   0.682 -0.1932  1.5885 -0.4390
  375MOL0     H49464  -1.881   7.952   0.681  0.1219 -2.6374  0.6713
  375MOL0     H49465  -2.124   7.916   0.739  1.6079 -0.9268 -1.1901
  375MOL0     H49466  -2.284   8.114   1.108 -0.1430  0.0104  4.4115
  375MOL0     H49467  -2.248   7.945   1.172 -0.7643 -0.6912 -0.3314
  375MOL0     H49468  -2.459   7.874   1.099 -2.4511 -0.6755 -1.0307
  375MOL0     H49469  -2.491   8.021   1.017  1.7922  0.2539 -0.7426
  375MOL0     H49470  -2.500   8.129   1.243 -1.7890 -0.0296 -0.8966
  375MOL0     H49471  -2.420   8.001   1.321 -1.7854  2.9920  2.4145
  375MOL0     H49472  -2.618   7.845   1.283 -3.7891 -0.7819 -0.5405
  375MOL0     H49473  -2.657   7.979   1.385 -0.1087 -0.2437  0.6652
  375MOL0     H49474  -2.822   7.922   1.222  1.8870 -1.6310  2.5105
  375MOL0     H49475  -2.717   7.975   1.081 -2.4025  1.8256 -1.5914
  375MOL0     H49476  -2.722   8.207   1.186 -1.6114  1.7759 -1.3858
  375MOL0     H49477  -2.845   8.142   1.300 -1.6440 -0.1090 -0.3838
  375MOL0     H49478  -2.861   8.136   1.001 -2.2629  1.2306 -1.0499
  375MOL0     H49479  -2.988   8.084   1.100  1.7798 -1.7864 -0.3830
  375MOL0     H49480  -2.895   8.372   1.099 -1.3142  1.4961 -1.0242
  375MOL0     H49481  -3.023   8.295   1.207 -0.5549 -2.1499 -0.1024
  375MOL0     H49482  -2.037   8.060   1.143  0.0667  0.8828  0.1103
  375MOL0     H49483  -1.816   8.097   1.077 -3.7420 -1.1445  2.3120
  375MOL0     H49484  -1.342   8.006   1.075  2.4021  0.3211  0.8168
  375MOL0     H49485  -1.143   8.101   1.008 -0.5825 -0.0327  1.0767
  375MOL0     H49486   0.296   7.142   0.286 -0.4958  0.8701 -0.6978
  375MOL0     H49487   0.550   7.176   0.257  1.1582  1.2453 -1.9545
  375MOL0     H49488   0.838   7.151  -0.145  0.7787 -1.7595 -2.7287
  375MOL0     H49489   1.054   7.156  -0.257 -0.4311  0.3341 -0.2058
  375MOL0     H49490   1.430   7.051  -0.053 -0.8457 -0.9284 -0.6385
  375MOL0     H49491   1.388   7.217   0.003 -0.2255 -0.7490  1.0847
  375MOL0     H49492   1.563   7.114  -0.228 -1.5381 -0.6522 -0.9761
  375MOL0     H49493   1.468   7.253  -0.256  1.8811 -0.2461 -1.3196
  375MOL0     H49494   1.668   7.247  -0.033  1.3049 -0.7444 -1.8646
  375MOL0     H49495   1.552   7.382  -0.067  2.3414  1.1610  1.3367
  375MOL0     H49496   1.783   7.429  -0.169  0.8865  0.4409 -1.7225
  375MOL0     H49497   1.756   7.283  -0.271  2.0593  0.4512 -0.7837
  375MOL0     H49498   1.533   7.622  -0.416 -0.2390  0.4008  0.8408
  375MOL0     H49499   1.249   7.102   0.122  1.0632 -0.2488 -1.3269
  375MOL0     H49500   1.048   7.114   0.236  2.7412  3.8906 -0.0853
  376MOL0     O49501   1.832   7.581   1.225 -0.4093  0.6859  0.4672
  376MOL0     C49502   1.918   7.512   1.287 -0.7051  0.2815 -0.1405
  376MOL0     O49503   1.886   7.399   1.354 -0.4256 -0.7207 -0.0254
  376MOL0     C49504   1.752   7.370   1.374  1.1980  0.1908 -0.2753
  376MOL0     C49505   1.691   7.286   1.283 -1.0138 -0.6246  0.2593
  376MOL0     C49506   1.559   7.262   1.292  0.9139  1.2746 -0.0844
  376MOL0     C49507   1.476   7.308   1.400  0.2026 -0.2044  0.1333
  376MOL0     O49508   1.347   7.257   1.405  0.2447  0.3996  0.0040
  376MOL0     C49509   1.230   7.326   1.473 -0.4674  0.0667 -0.0361
  376MOL0     C49510   1.100   7.254   1.420  0.3508  0.1781  0.4089
  376MOL0     C49511   0.979   7.329   1.478  0.4694 -0.2064  0.7859
  376MOL0     C49512   0.850   7.248   1.480  0.0380  0.5119 -0.0142
  376MOL0     C49513   0.732   7.299   1.556 -0.2106  0.7344  0.7383
  376MOL0     C49514   0.676   7.442   1.521 -0.3349 -0.9434  0.3943
  376MOL0     C49515   0.533   7.454   1.557  0.7264 -0.3490  0.3172
  376MOL0     C49516   0.425   7.388   1.457 -1.2943  1.0453  1.0995
  376MOL0     N49517   0.287   7.370   1.519 -0.8495 -0.7832 -0.1622
  376MOL0     C49518   0.216   7.471   1.591 -0.1071  0.0717 -0.0027
  376MOL0     C49519   0.150   7.408   1.691  0.4239  0.5255 -0.2002
  376MOL0     C49520   0.039   7.472   1.780 -0.4955  0.3544 -0.6398
  376MOL0     C49521  -0.110   7.447   1.739 -0.2433 -0.0955 -0.2520
  376MOL0     C49522  -0.140   7.483   1.594 -0.6000  0.2821  1.0427
  376MOL0     C49523  -0.300   7.469   1.577  0.3495 -0.1496  0.1957
  376MOL0     O49524  -0.356   7.568   1.666  0.3450  0.6460  0.7844
  376MOL0     C49525  -0.492   7.607   1.655 -0.3926 -1.3975  0.7162
  376MOL0     C49526  -0.538   7.703   1.746 -0.2209 -0.4398 -0.1070
  376MOL0     C49527  -0.660   7.761   1.740  0.8842 -0.5202 -0.2522
  376MOL0     C49528  -0.757   7.711   1.645  0.0483 -0.0370  0.4362
  376MOL0     C49529  -0.896   7.754   1.632 -0.7120 -0.1520 -0.3721
  376MOL0     O49530  -0.959   7.728   1.507  0.6086 -0.3230  0.2273
  376MOL0     C49531  -1.083   7.791   1.503  0.4547 -0.4829  0.4326
  376MOL0     C49532  -1.188   7.729   1.568  1.3285  0.2511  0.2305
  376MOL0     C49533  -1.318   7.787   1.566  0.7991  0.4965 -0.0088
  376MOL0     C49534  -1.342   7.912   1.500  0.3415  0.3080 -0.3903
  376MOL0     O49535  -1.472   7.964   1.504 -0.0252  0.2375 -0.1723
  376MOL0     C49536  -1.554   7.944   1.394 -0.0889  0.0106 -0.2189
  376MOL0     C49537  -1.682   7.880   1.437 -0.3446 -0.6041  0.4393
  376MOL0     C49538  -1.775   7.840   1.327  0.0602  1.0312 -0.5865
  376MOL0     C49539  -1.891   7.754   1.390  0.3527 -0.5470 -0.4020
  376MOL0     C49540  -2.008   7.743   1.295  0.5241  0.9165  0.5515
  376MOL0     C49541  -2.088   7.614   1.316  0.1676 -0.1279 -0.5429
  376MOL0     C49542  -2.218   7.614   1.245 -0.2709  0.1677  0.1611
  376MOL0     C49543  -2.306   7.489   1.302  0.0471  0.0671  0.2544
  376MOL0    Cl49544  -2.381   7.520   1.457 -0.0748  0.3517 -0.2756
  376MOL0     C49545  -1.227   7.972   1.449  0.2413 -0.7741 -0.5721
  376MOL0     C49546  -1.106   7.917   1.449 -0.5836  0.5760  0.3259
  376MOL0     O49547  -0.938   7.815   1.723 -0.3180  0.4647  0.4247
  376MOL0     C49548  -0.717   7.604   1.559  0.0778 -0.5852 -0.2640
  376MOL0     C49549  -0.592   7.555   1.565 -0.0545  0.7795 -0.0699
  376MOL0     N49550   0.177   7.274   1.677  0.7897 -0.2315 -0.5559
  376MOL0     N49551   0.252   7.248   1.578  0.2087  0.3567 -0.2463
  376MOL0     C49552   1.532   7.395   1.493 -0.7327 -0.0640  0.4655
  376MOL0     C49553   1.673   7.420   1.482 -0.2512  0.4537 -0.6557
  376MOL0     C49554   2.062   7.554   1.273  0.4300  0.4856  0.4468
  376MOL0     C49555   2.170   7.463   1.294  0.9079 -0.0509  0.2500
  376MOL0     C49556   2.305   7.499   1.268  0.7617  0.0033  0.4578
  376MOL0     C49557   2.334   7.631   1.217  1.1145 -0.1635  0.2573
  376MOL0     O49558   2.464   7.674   1.195 -0.2081  0.0450  0.3693
  376MOL0     C49559   2.573   7.587   1.164 -0.6740 -0.0268  0.2047
  376MOL0     C49560   2.630   7.615   1.027  0.1366 -0.0453  0.1807
  376MOL0     C49561   2.667   7.763   1.020  0.4703  0.4618  0.1910
  376MOL0     C49562   2.746   7.797   0.897  0.0830  0.6450  0.0209
  376MOL0     C49563   2.683   7.749   0.774 -0.0274 -1.4647  1.0425
  376MOL0     C49564   2.618   7.701   0.681 -0.0916  0.4866  0.1071
  376MOL0     C49565   2.227   7.720   1.205  0.0069 -0.0363 -0.7151
  376MOL0     C49566   2.094   7.681   1.232  0.4717  0.1057  0.4281
  376MOL0     H49567   1.758   7.244   1.209 -5.7592 -3.3168 -3.0449
  376MOL0     H49568   1.520   7.184   1.228  2.1104 -1.0759  1.8715
  376MOL0     H49569   1.221   7.433   1.451 -2.6652 -0.0421  0.0717
  376MOL0     H49570   1.247   7.313   1.580 -1.0143 -1.3886 -0.1042
  376MOL0     H49571   1.097   7.150   1.456  2.6716  0.0609  0.4723
  376MOL0     H49572   1.089   7.269   1.313 -2.2397  0.2694  0.6419
  376MOL0     H49573   0.952   7.420   1.423 -0.8380 -0.6266  0.6880
  376MOL0     H49574   0.999   7.367   1.578 -1.8605  0.1390  1.1866
  376MOL0     H49575   0.829   7.248   1.373  0.0533 -0.9008 -0.0376
  376MOL0     H49576   0.875   7.146   1.513  0.9664  1.7257  3.4378
  376MOL0     H49577   0.751   7.298   1.664 -0.7086 -0.0711  0.8229
  376MOL0     H49578   0.654   7.226   1.535  0.3775  0.6742 -1.5448
  376MOL0     H49579   0.677   7.456   1.412 -2.8634 -0.7121  0.3202
  376MOL0     H49580   0.726   7.526   1.570 -2.5259  0.8224 -0.2171
  376MOL0     H49581   0.510   7.385   1.638 -5.0550  0.0928 -0.5575
  376MOL0     H49582   0.492   7.552   1.582  0.8816  0.1179 -1.1310
  376MOL0     H49583   0.470   7.291   1.435  0.9072  1.9945  1.1759
  376MOL0     H49584   0.434   7.448   1.366  2.0633 -0.3472  0.3533
  376MOL0     H49585   0.231   7.578   1.579  0.8234 -0.1490 -0.9776
  376MOL0     H49586   0.063   7.579   1.788 -0.2602  0.2623 -0.1286
  376MOL0     H49587   0.049   7.422   1.877  1.5923  0.2537 -0.8699
  376MOL0     H49588  -0.180   7.501   1.804 -0.6006 -2.9535  1.9450
  376MOL0     H49589  -0.135   7.341   1.750 -2.9158  0.1056 -3.0232
  376MOL0     H49590  -0.102   7.582   1.567 -1.3936  0.3246  0.0142
  376MOL0     H49591  -0.089   7.411   1.529 -2.5208  0.2037 -0.4804
  376MOL0     H49592  -0.339   7.370   1.605  0.6724 -0.6416 -1.0484
  376MOL0     H49593  -0.330   7.496   1.476  1.9918  1.0433 -0.0149
  376MOL0     H49594  -0.471   7.737   1.824 -1.1979  0.8350  0.2192
  376MOL0     H49595  -0.700   7.837   1.805  2.8163  0.1349  0.2379
  376MOL0     H49596  -1.172   7.634   1.619 -1.6089 -0.2921  0.3149
  376MOL0     H49597  -1.403   7.745   1.619  1.2706 -0.0701  0.3235
  376MOL0     H49598  -1.497   7.892   1.317  0.9333 -0.2146  0.6631
  376MOL0     H49599  -1.572   8.046   1.357 -0.1053 -0.5357 -1.7896
  376MOL0     H49600  -1.725   7.944   1.515  0.6388  2.8807 -1.6463
  376MOL0     H49601  -1.645   7.788   1.485 -2.6742 -1.7010  0.2510
  376MOL0     H49602  -1.722   7.793   1.244 -1.3434 -1.3081 -0.2272
  376MOL0     H49603  -1.825   7.925   1.279 -2.5679  0.6294  1.2235
  376MOL0     H49604  -1.842   7.662   1.423  0.1280 -0.5135  0.0268
  376MOL0     H49605  -1.920   7.809   1.480  2.0904 -0.0980 -0.0804
  376MOL0     H49606  -1.967   7.732   1.194 -1.5430 -1.7415 -0.1167
  376MOL0     H49607  -2.061   7.839   1.300 -0.9190  0.1357  0.7672
  376MOL0     H49608  -2.109   7.615   1.423 -1.3499  1.4200 -0.8144
  376MOL0     H49609  -2.038   7.521   1.286  0.8222  0.1356 -0.3109
  376MOL0     H49610  -2.261   7.712   1.265 -1.3783 -0.4387  0.8189
  376MOL0     H49611  -2.215   7.596   1.137 -2.7392  4.4775 -0.8714
  376MOL0     H49612  -2.241   7.402   1.297  2.4907  1.8632 -1.5312
  376MOL0     H49613  -2.391   7.473   1.234 -0.3816  1.8946  0.2996
  376MOL0     H49614  -1.243   8.075   1.418 -0.9788 -0.1902  1.7214
  376MOL0     H49615  -1.014   7.968   1.423  0.5255 -1.6555 -0.3516
  376MOL0     H49616  -0.782   7.565   1.482  3.5788 -0.8187 -3.3516
  376MOL0     H49617  -0.564   7.478   1.494  1.6608  2.0169 -0.8114
  376MOL0     H49618   1.474   7.445   1.570 -2.3607 -0.4367 -0.4804
  376MOL0     H49619   1.716   7.482   1.559 -3.2519 -0.5066  2.0035
  376MOL0     H49620   2.146   7.359   1.317 -1.3850  0.4216  0.2532
  376MOL0     H49621   2.383   7.425   1.283  0.9539  0.0724 -0.1845
  376MOL0     H49622   2.537   7.484   1.161  1.1446 -0.6797 -0.5348
  376MOL0     H49623   2.649   7.587   1.243 -2.1802 -0.2458  1.7174
  376MOL0     H49624   2.721   7.555   1.017 -1.4635 -2.5805 -0.2345
  376MOL0     H49625   2.549   7.584   0.960 -0.7593 -2.1420  2.0968
  376MOL0     H49626   2.722   7.798   1.108  2.0279  0.7277 -0.8514
  376MOL0     H49627   2.575   7.821   1.010 -0.6692 -0.9392  1.8534
  376MOL0     H49628   2.776   7.902   0.888 -2.0335  1.2481 -0.5567
  376MOL0     H49629   2.834   7.732   0.900 -1.1900 -1.1679  0.2009
  376MOL0     H49630   2.594   7.644   0.594  1.4055 -1.3564  0.8243
  376MOL0     H49631   2.253   7.823   1.183  2.3953 -0.7393 -1.4539
  376MOL0     H49632   2.013   7.753   1.218  0.9800  0.5616 -0.2132
  377MOL0     O49633   1.725   4.002   4.304 -0.0931  0.1073  0.1416
  377MOL0     C49634   1.795   4.100   4.282 -0.8274  0.2345  0.8223
  377MOL0     O49635   1.757   4.210   4.220  0.2451 -0.1787  0.1858
  377MOL0     C49636   1.623   4.220   4.211 -0.1801 -0.4212 -0.3231
  377MOL0     C49637   1.562   4.149   4.107  1.0400  0.1237 -0.7368
  377MOL0     C49638   1.426   4.156   4.096 -0.9359 -0.4864 -0.6041
  377MOL0     C49639   1.347   4.239   4.177  0.2133 -0.6636 -0.3333
  377MOL0     O49640   1.220   4.259   4.145  0.3995  0.6126  0.5823
  377MOL0     C49641   1.151   4.385   4.161  0.3567 -0.5332  0.0822
  377MOL0     C49642   1.007   4.373   4.143 -0.5674  0.1128 -0.7791
  377MOL0     C49643   0.924   4.506   4.120 -0.3131  0.5228  0.9447
  377MOL0     C49644   0.784   4.487   4.157 -0.1911 -0.7504 -0.1092
  377MOL0     C49645   0.697   4.603   4.129  0.1099  0.9362  0.2052
  377MOL0     C49646   0.552   4.566   4.175 -0.1090  0.4697  0.9253
  377MOL0     C49647   0.439   4.657   4.129 -0.6989  0.2035 -0.1296
  377MOL0     C49648   0.384   4.609   3.997 -0.6331  0.6328  0.3109
  377MOL0     N49649   0.283   4.501   4.011 -0.4321  0.0101  0.5538
  377MOL0     C49650   0.145   4.503   3.993  0.1700  0.1334 -0.2520
  377MOL0     C49651   0.098   4.379   4.014  0.5389  0.2385 -0.0618
  377MOL0     C49652  -0.051   4.343   4.012  0.6576  0.6877 -0.6226
  377MOL0     C49653  -0.101   4.310   3.866  0.4298 -0.5684 -0.1261
  377MOL0     C49654  -0.254   4.287   3.876  0.5283  0.3767 -0.0273
  377MOL0     C49655  -0.328   4.237   3.750  0.9058 -0.6301  0.4233
  377MOL0     O49656  -0.333   4.330   3.639 -0.0841  0.2999  0.4826
  377MOL0     C49657  -0.419   4.301   3.528 -0.4159 -0.5224 -0.8177
  377MOL0     C49658  -0.415   4.382   3.415 -0.0759  0.5171 -0.6342
  377MOL0     C49659  -0.497   4.371   3.306  0.4502  0.9047 -0.0290
  377MOL0     C49660  -0.601   4.274   3.310 -0.5223  0.2059 -0.3132
  377MOL0     C49661  -0.695   4.267   3.193 -0.8588 -1.1534 -1.5427
  377MOL0     O49662  -0.769   4.143   3.190  0.8888  0.5281 -0.7915
  377MOL0     C49663  -0.861   4.129   3.092  0.7323 -1.1652 -0.2706
  377MOL0     C49664  -0.967   4.211   3.074  0.7013  0.6774  0.0404
  377MOL0     C49665  -1.063   4.175   2.980 -0.0117 -0.0410 -0.3473
  377MOL0     C49666  -1.061   4.052   2.912  1.1729 -0.4435  0.2477
  377MOL0     O49667  -1.159   4.010   2.833  0.7649 -0.5988 -0.0928
  377MOL0     C49668  -1.297   4.044   2.865 -0.2537  0.0454 -0.3218
  377MOL0     C49669  -1.398   3.968   2.777  0.6880  0.1708  0.2422
  377MOL0     C49670  -1.543   4.015   2.796 -0.3040  0.2305 -0.7148
  377MOL0     C49671  -1.643   3.903   2.749  0.4231  0.5992  0.9928
  377MOL0     C49672  -1.647   3.896   2.596 -0.3350  0.5520  0.4519
  377MOL0     C49673  -1.679   3.748   2.554  1.0212 -0.7987 -0.1664
  377MOL0     C49674  -1.800   3.694   2.633 -0.2863  0.2178 -0.2796
  377MOL0     C49675  -1.865   3.571   2.570 -0.0690 -0.1950  0.2517
  377MOL0    Cl49676  -1.745   3.458   2.515 -0.3736  0.0211  0.3087
  377MOL0     C49677  -0.948   3.975   2.917 -0.9402 -0.2974 -0.2617
  377MOL0     C49678  -0.844   4.017   3.006  0.0222  0.7024 -0.3853
  377MOL0     O49679  -0.711   4.361   3.119 -0.5830  0.2773 -0.1998
  377MOL0     C49680  -0.604   4.182   3.414 -0.0412  0.0874  0.0017
  377MOL0     C49681  -0.514   4.201   3.525  0.0860 -0.7287 -0.4350
  377MOL0     N49682   0.211   4.308   4.058  1.0101  0.3131  0.4757
  377MOL0     N49683   0.318   4.383   4.064 -0.1181  0.1526  0.0700
  377MOL0     C49684   1.411   4.313   4.282  0.9196 -0.8563 -0.1581
  377MOL0     C49685   1.545   4.302   4.299 -0.7583  0.2480  0.4691
  377MOL0     C49686   1.932   4.088   4.342 -0.1853 -0.2650  0.5968
  377MOL0     C49687   1.983   3.963   4.372 -0.7957  0.4250  0.1245
  377MOL0     C49688   2.112   3.952   4.433 -1.1048  0.1800 -0.0013
  377MOL0     C49689   2.182   4.064   4.474  0.4617 -0.6281 -0.0430
  377MOL0     O49690   2.301   4.038   4.538 -0.1180 -0.1129  0.7759
  377MOL0     C49691   2.359   4.146   4.614  0.1876 -0.0776 -1.2175
  377MOL0     C49692   2.473   4.081   4.688  0.4229 -0.1513 -0.0059
  377MOL0     C49693   2.597   4.051   4.591 -0.0514  0.0723  0.2737
  377MOL0     C49694   2.721   3.997   4.668 -0.2908  0.3173 -0.6404
  377MOL0     C49695   2.819   3.950   4.578 -0.1976  0.1949  0.7966
  377MOL0     C49696   2.907   3.925   4.496  0.4149  0.5821  0.4262
  377MOL0     C49697   2.133   4.194   4.438  0.3026  0.7108 -0.1554
  377MOL0     C49698   2.004   4.208   4.377  0.2225  0.1134 -0.2122
  377MOL0     H49699   1.605   4.077   4.039 -0.9064  0.7330 -2.7395
  377MOL0     H49700   1.375   4.100   4.019  1.1941 -2.0203 -0.9712
  377MOL0     H49701   1.186   4.463   4.092  1.0061 -0.1047  0.8642
  377MOL0     H49702   1.165   4.428   4.261 -0.2319 -4.6618  2.1609
  377MOL0     H49703   0.961   4.328   4.231 -1.1762  2.0665 -0.0571
  377MOL0     H49704   0.991   4.313   4.052  0.3595 -0.9337 -0.2737
  377MOL0     H49705   0.930   4.544   4.017  0.4833 -0.6185  0.5507
  377MOL0     H49706   0.972   4.578   4.187  0.3003  0.0099  1.0671
  377MOL0     H49707   0.742   4.396   4.112  0.9087 -1.4675  0.2854
  377MOL0     H49708   0.779   4.459   4.262  1.0673 -0.3092  0.0863
  377MOL0     H49709   0.715   4.617   4.022 -0.7492 -0.3922 -0.1376
  377MOL0     H49710   0.731   4.688   4.189 -1.2586  0.7883  1.2373
  377MOL0     H49711   0.552   4.577   4.283 -1.3535 -3.2966  1.4456
  377MOL0     H49712   0.527   4.460   4.162  1.4592  0.2410 -0.7270
  377MOL0     H49713   0.372   4.656   4.215 -0.0344 -1.2645  0.4167
  377MOL0     H49714   0.481   4.756   4.111 -0.8746  0.8733  2.7588
  377MOL0     H49715   0.470   4.577   3.936 -0.1235  3.9772 -0.9575
  377MOL0     H49716   0.346   4.701   3.953  0.4348  1.0391  0.1927
  377MOL0     H49717   0.084   4.588   3.965 -0.0224 -0.5172 -1.8761
  377MOL0     H49718  -0.111   4.428   4.044 -0.8184  0.0380 -1.5645
  377MOL0     H49719  -0.070   4.249   4.066  1.3963 -0.0560 -1.6135
  377MOL0     H49720  -0.048   4.221   3.831  2.3135  0.0565  0.9647
  377MOL0     H49721  -0.084   4.393   3.796  1.5306 -1.0147 -0.4056
  377MOL0     H49722  -0.273   4.213   3.954 -1.5326  2.9437  2.1125
  377MOL0     H49723  -0.315   4.372   3.911  1.1031  0.4654  0.7736
  377MOL0     H49724  -0.432   4.216   3.776  1.0767  1.7115  3.6577
  377MOL0     H49725  -0.275   4.149   3.712  1.1406  0.3018 -1.5631
  377MOL0     H49726  -0.333   4.453   3.403 -0.4604  0.8847 -1.1356
  377MOL0     H49727  -0.484   4.435   3.220 -0.9796  2.0375  0.5649
  377MOL0     H49728  -0.982   4.298   3.137 -1.1065 -0.4214  1.2339
  377MOL0     H49729  -1.153   4.235   2.968 -1.6927 -2.1513  0.8697
  377MOL0     H49730  -1.318   4.151   2.852  0.6747  0.2083 -0.5290
  377MOL0     H49731  -1.315   4.016   2.969 -0.1912 -0.2898 -0.4006
  377MOL0     H49732  -1.378   3.864   2.804  2.0954 -0.9722 -4.2396
  377MOL0     H49733  -1.372   3.978   2.671 -0.6643  4.4496  0.1330
  377MOL0     H49734  -1.560   4.100   2.730 -2.3179 -0.6887 -1.4650
  377MOL0     H49735  -1.559   4.034   2.902 -2.4425 -0.4009 -0.8631
  377MOL0     H49736  -1.605   3.809   2.791  0.8693 -1.0383 -2.6901
  377MOL0     H49737  -1.742   3.931   2.786 -0.3243  0.4918 -0.8353
  377MOL0     H49738  -1.549   3.918   2.552 -0.0238 -0.3336  0.6748
  377MOL0     H49739  -1.724   3.964   2.559 -1.0204  0.2644  1.3016
  377MOL0     H49740  -1.596   3.677   2.555  1.1908 -0.6162 -0.7651
  377MOL0     H49741  -1.711   3.742   2.450 -1.0755 -1.9811  0.4893
  377MOL0     H49742  -1.768   3.655   2.730 -1.0236  0.5263  0.0999
  377MOL0     H49743  -1.878   3.768   2.654 -1.6135 -1.2816  0.2427
  377MOL0     H49744  -1.914   3.600   2.477 -1.5035  1.5562  1.4762
  377MOL0     H49745  -1.932   3.526   2.644 -1.1641  0.1594 -0.5067
  377MOL0     H49746  -0.952   3.878   2.869 -0.3281 -1.4689  1.9630
  377MOL0     H49747  -0.754   3.959   3.024 -0.8130 -1.0921 -1.6703
  377MOL0     H49748  -0.671   4.096   3.417 -0.6653  0.5232 -0.8688
  377MOL0     H49749  -0.510   4.121   3.598  0.6060 -1.0871 -0.8408
  377MOL0     H49750   1.349   4.380   4.340  0.9538  2.0961 -3.2399
  377MOL0     H49751   1.595   4.367   4.370  1.0386  0.7540 -1.1912
  377MOL0     H49752   1.934   3.869   4.348  2.4846 -0.9695 -1.7792
  377MOL0     H49753   2.142   3.851   4.456  0.2448  0.9202  1.7620
  377MOL0     H49754   2.285   4.178   4.688  1.1817  0.2515 -0.3531
  377MOL0     H49755   2.407   4.228   4.560  2.8770  0.4779  1.7501
  377MOL0     H49756   2.512   4.157   4.756 -0.9002 -0.1945  0.8409
  377MOL0     H49757   2.436   3.989   4.734 -3.9891  1.4287  0.0477
  377MOL0     H49758   2.626   4.140   4.535 -0.6143  2.0215  2.8758
  377MOL0     H49759   2.575   3.970   4.521  0.5373  0.4418 -0.3469
  377MOL0     H49760   2.767   4.084   4.716 -1.9551  1.2307 -0.6038
  377MOL0     H49761   2.691   3.924   4.744 -0.9258  2.2555  1.0964
  377MOL0     H49762   2.982   3.895   4.425  0.3460 -1.4889  1.1615
  377MOL0     H49763   2.197   4.276   4.467  1.9736 -1.4430  2.7487
  377MOL0     H49764   1.960   4.304   4.353 -0.4685  0.3749  1.8772
  378MOL0     O49765   6.529   0.683   3.882  0.3081  0.3557  0.2316
  378MOL0     C49766   6.452   0.777   3.893 -0.3221  0.2022  0.2213
  378MOL0     O49767   6.314   0.765   3.905 -0.4403  0.7493  0.3808
  378MOL0     C49768   6.262   0.637   3.918  0.5105  0.7070 -0.0410
  378MOL0     C49769   6.275   0.544   3.821 -0.0571 -0.0127  0.1701
  378MOL0     C49770   6.201   0.425   3.820 -0.4739  0.2218 -0.2756
  378MOL0     C49771   6.121   0.395   3.931 -0.4264 -0.2745  0.1674
  378MOL0     O49772   6.043   0.284   3.940  0.9449  0.0903 -0.0216
  378MOL0     C49773   5.936   0.273   3.846 -0.6733  0.3227 -0.4613
  378MOL0     C49774   5.812   0.323   3.921 -0.3250  0.0365 -1.1178
  378MOL0     C49775   5.678   0.257   3.885 -0.3973  0.4264 -0.2833
  378MOL0     C49776   5.570   0.334   3.804 -0.1976  0.2822  0.1437
  378MOL0     C49777   5.417   0.293   3.821  0.1089 -0.8337  0.2953
  378MOL0     C49778   5.400   0.148   3.823 -0.3921  0.9054 -0.8064
  378MOL0     C49779   5.256   0.092   3.799  0.7150  0.8277 -0.1155
  378MOL0     C49780   5.173   0.131   3.917 -0.2783 -0.7093  0.1300
  378MOL0     N49781   5.065   0.034   3.923  0.0715  0.3648 -0.0744
  378MOL0     C49782   5.017  -0.034   4.035  0.1402  0.8319  0.3825
  378MOL0     C49783   4.885  -0.058   4.004  0.3239  0.4957 -0.2184
  378MOL0     C49784   4.787  -0.106   4.099  0.1484  0.5146  0.0474
  378MOL0     C49785   4.732   0.011   4.182 -0.2749 -0.4835  0.3401
  378MOL0     C49786   4.619   0.081   4.107  0.2332 -0.3630 -0.7512
  378MOL0     C49787   4.480   0.041   4.159 -1.0709 -0.0502  0.0823
  378MOL0     O49788   4.382   0.090   4.063  0.5972 -0.4980 -0.0635
  378MOL0     C49789   4.255   0.037   4.064 -0.2287 -0.2958 -0.4511
  378MOL0     C49790   4.175   0.073   3.963 -0.1421 -0.3404  0.7770
  378MOL0     C49791   4.037   0.031   3.958 -0.2031 -0.0321 -0.1435
  378MOL0     C49792   3.979  -0.040   4.070 -0.3056  0.1953 -0.5603
  378MOL0     C49793   3.836  -0.073   4.075 -0.2791 -0.9524  0.2730
  378MOL0     O49794   3.760  -0.007   3.981 -0.3706 -0.2234 -0.1762
  378MOL0     C49795   3.622  -0.029   3.980  0.2374 -0.4835  0.8510
  378MOL0     C49796   3.541  -0.006   4.086 -0.4351  0.1888 -0.0798
  378MOL0     C49797   3.401  -0.032   4.089 -1.1124 -0.0216 -0.4355
  378MOL0     C49798   3.338  -0.077   3.968 -0.0627  0.5319  0.3258
  378MOL0     O49799   3.207  -0.095   3.967  0.4846  0.2497  0.0871
  378MOL0     C49800   3.128   0.006   4.022 -0.2983  0.2590 -0.6104
  378MOL0     C49801   3.002   0.006   3.951  1.2367 -0.1230  0.8150
  378MOL0     C49802   2.906   0.095   4.022  1.2834 -0.4206  0.0758
  378MOL0     C49803   2.759   0.075   3.981  0.1753 -0.0573  0.5215
  378MOL0     C49804   2.688  -0.020   4.070 -0.1872 -0.1152 -0.4237
  378MOL0     C49805   2.541  -0.038   4.022 -1.0009  0.0701 -0.3164
  378MOL0     C49806   2.478  -0.163   4.077 -0.2521 -1.0442  0.4635
  378MOL0     C49807   2.323  -0.171   4.059 -0.5019 -0.5896  0.4130
  378MOL0    Cl49808   2.258  -0.038   4.150  0.3627 -0.1356 -0.7466
  378MOL0     C49809   3.417  -0.109   3.860 -0.3675 -0.1047 -0.0906
  378MOL0     C49810   3.558  -0.078   3.868 -0.0103  0.1250  0.7397
  378MOL0     O49811   3.793  -0.147   4.157 -0.2598 -0.1943  0.8569
  378MOL0     C49812   4.066  -0.069   4.174  0.0785  0.2097 -0.3795
  378MOL0     C49813   4.196  -0.028   4.170 -0.0901 -1.4722  0.3102
  378MOL0     N49814   4.857  -0.002   3.874  0.0906  0.2337 -0.8221
  378MOL0     N49815   4.966   0.047   3.829 -0.2933 -0.4814  0.2238
  378MOL0     C49816   6.116   0.486   4.041  0.2090  0.2942  0.5914
  378MOL0     C49817   6.183   0.614   4.034 -0.1770  0.4468  0.3154
  378MOL0     C49818   6.524   0.904   3.900  0.6634  0.4981  0.3163
  378MOL0     C49819   6.452   1.022   3.908  0.3839 -0.5475  0.5700
  378MOL0     C49820   6.509   1.147   3.921  0.2099 -0.1671  0.3799
  378MOL0     C49821   6.642   1.160   3.926 -1.0290 -0.3451  0.1499
  378MOL0     O49822   6.705   1.284   3.960  0.0013 -0.1308  0.5826
  378MOL0     C49823   6.626   1.400   3.962 -0.2454 -0.5630  0.2059
  378MOL0     C49824   6.708   1.534   3.945 -0.1673 -0.2849 -0.3831
  378MOL0     C49825   6.758   1.548   3.803  0.0074  0.5190  0.5862
  378MOL0     C49826   6.881   1.616   3.774 -0.0244  0.2498  0.2117
  378MOL0     C49827   7.004   1.540   3.798 -0.1586  0.1913 -0.2326
  378MOL0     C49828   7.100   1.477   3.827  0.2125 -0.6578 -0.1424
  378MOL0     C49829   6.720   1.043   3.916 -1.1736  0.0062 -0.8687
  378MOL0     C49830   6.662   0.916   3.910 -0.3795 -0.2188  0.3584
  378MOL0     H49831   6.340   0.579   3.741  0.8322  1.3505  1.4492
  378MOL0     H49832   6.201   0.358   3.734 -0.6038  1.9361 -1.6689
  378MOL0     H49833   5.929   0.170   3.809 -3.7448  0.1412  0.3467
  378MOL0     H49834   5.951   0.329   3.753  0.6291  3.1955  1.3533
  378MOL0     H49835   5.809   0.432   3.927  0.7641 -0.0008  0.8954
  378MOL0     H49836   5.827   0.301   4.027  0.6159 -1.7279 -1.5815
  378MOL0     H49837   5.649   0.216   3.983 -0.0025  1.3017  0.2149
  378MOL0     H49838   5.705   0.166   3.831 -0.4244  0.6068 -0.5994
  378MOL0     H49839   5.580   0.440   3.828  2.3728 -0.0758  1.0051
  378MOL0     H49840   5.585   0.341   3.696 -1.9934 -0.8963 -0.2252
  378MOL0     H49841   5.364   0.349   3.743 -0.8835  1.8192  2.6784
  378MOL0     H49842   5.382   0.342   3.912 -2.5120  1.2159 -1.6388
  378MOL0     H49843   5.440   0.105   3.915 -0.0160  0.5019 -1.1475
  378MOL0     H49844   5.465   0.101   3.748  0.1768 -2.8186  1.7538
  378MOL0     H49845   5.215   0.124   3.703 -0.0858 -2.0163 -0.8034
  378MOL0     H49846   5.269  -0.017   3.801  0.1251  0.6293  4.1504
  378MOL0     H49847   5.139   0.235   3.912 -0.0322 -0.6815 -1.4520
  378MOL0     H49848   5.240   0.109   4.001  0.8176 -0.2602 -0.6018
  378MOL0     H49849   5.080  -0.065   4.117  1.4734 -1.2292 -1.3152
  378MOL0     H49850   4.827  -0.179   4.169 -1.8595 -0.1814  0.5229
  378MOL0     H49851   4.711  -0.157   4.040  0.0715  0.1179  0.4943
  378MOL0     H49852   4.813   0.083   4.198 -0.7618 -0.0453  0.9081
  378MOL0     H49853   4.684  -0.023   4.274 -3.8284 -2.2763 -1.9468
  378MOL0     H49854   4.626   0.190   4.119 -2.9658 -0.1400  0.1289
  378MOL0     H49855   4.639   0.074   3.999  1.4433  0.0501 -0.5644
  378MOL0     H49856   4.447   0.067   4.260 -1.8392  0.1619 -0.2157
  378MOL0     H49857   4.475  -0.068   4.158 -1.5943 -0.2297  4.1153
  378MOL0     H49858   4.215   0.142   3.890  4.9388 -2.8558  0.7338
  378MOL0     H49859   3.965   0.071   3.888 -2.0065  0.4397  1.8799
  378MOL0     H49860   3.598   0.030   4.171  3.3026 -3.4025 -0.7151
  378MOL0     H49861   3.345  -0.014   4.180 -0.6732 -0.1757 -0.1319
  378MOL0     H49862   3.166   0.107   4.008 -2.0910  1.2705  1.3452
  378MOL0     H49863   3.109  -0.019   4.127  0.4560 -0.7141 -0.6855
  378MOL0     H49864   2.964  -0.097   3.959  0.6242  0.1959  2.1447
  378MOL0     H49865   3.005   0.039   3.847  1.2296 -0.4004  0.7239
  378MOL0     H49866   2.942   0.193   3.991  1.7865 -0.6148  0.0298
  378MOL0     H49867   2.908   0.075   4.129 -0.0879  1.7323  0.5569
  378MOL0     H49868   2.705   0.170   3.979 -1.5504 -0.9261  2.5736
  378MOL0     H49869   2.751   0.029   3.882 -1.4107 -0.5910  0.8858
  378MOL0     H49870   2.677   0.019   4.172 -2.2357 -0.7171 -0.3814
  378MOL0     H49871   2.736  -0.119   4.067 -0.5597 -0.4685  2.4680
  378MOL0     H49872   2.542  -0.037   3.913  0.9005  1.8855 -0.3388
  378MOL0     H49873   2.485   0.051   4.051 -0.5807  0.7816 -1.6209
  378MOL0     H49874   2.520  -0.252   4.028 -0.9914 -0.9999 -0.2545
  378MOL0     H49875   2.498  -0.183   4.183 -1.1023  2.3925  1.3827
  378MOL0     H49876   2.291  -0.268   4.098  1.2724 -1.0733  0.7565
  378MOL0     H49877   2.307  -0.169   3.950  1.8919  1.0153  0.0083
  378MOL0     H49878   3.371  -0.151   3.771  0.3691  0.4353 -0.7370
  378MOL0     H49879   3.612  -0.089   3.774 -1.5363  0.9091 -0.2549
  378MOL0     H49880   4.034  -0.130   4.257  0.9358  1.1631  0.6817
  378MOL0     H49881   4.245  -0.045   4.265 -2.5159 -0.5247  1.8384
  378MOL0     H49882   6.036   0.456   4.107 -1.8654 -1.1929 -2.3360
  378MOL0     H49883   6.178   0.697   4.103 -0.0696  0.9183 -0.2405
  378MOL0     H49884   6.345   1.003   3.900  0.4162 -1.3042  1.7424
  378MOL0     H49885   6.441   1.227   3.946 -1.8417 -1.1199 -1.7059
  378MOL0     H49886   6.562   1.406   4.051  1.1302  3.7312  1.1719
  378MOL0     H49887   6.566   1.400   3.871  2.5987 -1.4098 -1.8096
  378MOL0     H49888   6.645   1.619   3.971  0.0893 -1.0962  3.4436
  378MOL0     H49889   6.790   1.528   4.017 -1.1882  0.1037  0.8419
  378MOL0     H49890   6.671   1.604   3.767  0.4413  1.6758  1.2555
  378MOL0     H49891   6.778   1.452   3.754  0.3447  0.5930  0.5727
  378MOL0     H49892   6.875   1.647   3.669  1.7108  0.0362  0.0297
  378MOL0     H49893   6.884   1.705   3.838  1.1579  0.3751 -0.0027
  378MOL0     H49894   7.186   1.417   3.849  1.5261  0.7839 -1.0627
  378MOL0     H49895   6.827   1.048   3.936 -1.3616 -1.2289  0.6322
  378MOL0     H49896   6.717   0.823   3.904 -0.1223  0.0055 -1.2007
  379MOL0     O49897   3.986   9.337   3.065  0.1553 -0.2114  0.3791
  379MOL0     C49898   4.058   9.300   3.161  0.5207 -0.2541 -0.5694
  379MOL0     O49899   4.065   9.363   3.281 -0.1037 -0.1421 -0.1433
  379MOL0     C49900   3.990   9.473   3.307 -0.0356 -0.3854  0.1208
  379MOL0     C49901   3.860   9.456   3.330  0.0097 -0.1323  0.5719
  379MOL0     C49902   3.779   9.558   3.374  0.8638  0.6807  0.7214
  379MOL0     C49903   3.833   9.687   3.395 -0.6756 -0.3509  0.3671
  379MOL0     O49904   3.764   9.799   3.431 -0.2489 -0.1080 -0.2758
  379MOL0     C49905   3.621   9.796   3.443 -0.0817 -0.7955  0.8153
  379MOL0     C49906   3.571   9.943   3.435  0.0410  0.1468 -1.0482
  379MOL0     C49907   3.468   9.978   3.541 -0.4584  0.2940 -0.1435
  379MOL0     C49908   3.368  10.089   3.488  0.0236 -0.6938 -1.3781
  379MOL0     C49909   3.250  10.101   3.588  0.7637 -0.0417  0.2442
  379MOL0     C49910   3.149  10.210   3.535  0.5192  0.2473 -0.5342
  379MOL0     C49911   3.007  10.229   3.592  0.9514  0.2068  0.1016
  379MOL0     C49912   3.009  10.260   3.744  0.5383  0.1736 -0.3997
  379MOL0     N49913   2.873  10.262   3.806 -0.0303  0.5109 -0.5024
  379MOL0     C49914   2.806  10.146   3.831 -0.1990 -0.0616  0.0323
  379MOL0     C49915   2.704  10.175   3.910  0.2131 -0.5480 -0.9010
  379MOL0     C49916   2.621  10.064   3.971 -0.5859  0.3449 -0.0868
  379MOL0     C49917   2.481  10.060   3.914  0.0935  0.9089  0.3503
  379MOL0     C49918   2.399  10.167   3.982  0.3063 -0.1848  0.5696
  379MOL0     C49919   2.270  10.211   3.903 -0.3579  0.0679 -0.1385
  379MOL0     O49920   2.180  10.101   3.884 -0.5049 -0.1360  0.1089
  379MOL0     C49921   2.065  10.108   3.957  1.5437 -0.0024  0.2577
  379MOL0     C49922   2.057  10.125   4.097 -0.1531  0.3745 -0.1954
  379MOL0     C49923   1.935  10.139   4.169 -0.5492 -0.7897  0.5152
  379MOL0     C49924   1.809  10.144   4.100 -0.2755 -0.6369  0.0302
  379MOL0     C49925   1.681  10.182   4.175 -0.6137  0.2130 -0.0430
  379MOL0     O49926   1.568  10.189   4.105 -0.2592  0.3410 -0.5770
  379MOL0     C49927   1.447  10.228   4.155 -0.6665 -0.7585  0.1348
  379MOL0     C49928   1.431  10.307   4.269 -0.4856  0.2295  0.2423
  379MOL0     C49929   1.307  10.345   4.311 -0.2744 -0.3039 -0.7834
  379MOL0     C49930   1.194  10.291   4.258 -0.1792 -0.1633 -0.1589
  379MOL0     O49931   1.070  10.311   4.318 -0.1302 -0.5851  0.0420
  379MOL0     C49932   1.053  10.427   4.401  0.8659  0.4432 -0.5756
  379MOL0     C49933   0.904  10.436   4.431  0.5203 -0.3143 -0.0859
  379MOL0     C49934   0.848  10.305   4.491  0.3982 -0.0375 -0.5570
  379MOL0     C49935   0.698  10.331   4.491  0.4745  0.2096 -0.1003
  379MOL0     C49936   0.617  10.253   4.579 -0.1349  0.2324 -0.3709
  379MOL0     C49937   0.473  10.288   4.568 -0.9200 -0.0890 -0.3142
  379MOL0     C49938   0.378  10.219   4.661 -0.3973  0.3855 -0.2117
  379MOL0     C49939   0.238  10.276   4.654 -0.2440 -1.2707 -0.4448
  379MOL0    Cl49940   0.219  10.433   4.733  0.0801  0.1750 -0.4481
  379MOL0     C49941   1.204  10.208   4.145 -0.0259  0.4995  0.8371
  379MOL0     C49942   1.332  10.185   4.088 -0.0811  0.2008  0.1212
  379MOL0     O49943   1.693  10.213   4.294  0.4597  0.0300  0.2184
  379MOL0     C49944   1.819  10.120   3.961  0.3685  0.5679 -0.4768
  379MOL0     C49945   1.940  10.114   3.893  0.7338  0.6568  0.2908
  379MOL0     N49946   2.718  10.308   3.950  0.3571 -0.2468  0.4078
  379MOL0     N49947   2.818  10.357   3.883  0.1883  0.7401 -0.5647
  379MOL0     C49948   3.970   9.703   3.376  0.4911  0.4264  0.2763
  379MOL0     C49949   4.049   9.597   3.331  0.4474  0.0779 -0.4567
  379MOL0     C49950   4.126   9.176   3.134  0.2192  0.0819  0.8718
  379MOL0     C49951   4.107   9.094   3.018  0.2435 -0.2643  0.2672
  379MOL0     C49952   4.182   8.975   2.992  0.4532  1.0175  0.2641
  379MOL0     C49953   4.275   8.934   3.087 -0.1325  0.5445  0.3251
  379MOL0     O49954   4.348   8.820   3.073  0.5871 -0.1425 -0.0752
  379MOL0     C49955   4.340   8.752   2.950  0.4342 -0.0443  0.2459
  379MOL0     C49956   4.412   8.829   2.825  0.4673 -1.0030  0.2601
  379MOL0     C49957   4.416   8.728   2.713  0.0792  0.2275  0.2338
  379MOL0     C49958   4.490   8.788   2.597 -1.6099 -0.3771 -0.1151
  379MOL0     C49959   4.645   8.813   2.621  0.4322  0.6728  0.6574
  379MOL0     C49960   4.764   8.825   2.607 -0.5443  0.8289  0.2799
  379MOL0     C49961   4.282   9.000   3.210  1.0487 -0.7709  0.6285
  379MOL0     C49962   4.213   9.123   3.236 -1.1568 -0.2326 -0.0662
  379MOL0     H49963   3.809   9.362   3.309 -1.8481  0.8829  0.2888
  379MOL0     H49964   3.672   9.549   3.391  0.6201  3.1834  1.0096
  379MOL0     H49965   3.589   9.741   3.532 -1.4866 -1.7077 -0.2127
  379MOL0     H49966   3.588   9.752   3.349 -2.1647  0.4801  0.8915
  379MOL0     H49967   3.526   9.968   3.339 -1.7222  0.2174 -0.2477
  379MOL0     H49968   3.658  10.003   3.464 -1.1134  1.5037 -0.2530
  379MOL0     H49969   3.509  10.007   3.638 -0.2354  2.0887 -0.7351
  379MOL0     H49970   3.407   9.887   3.552 -0.3196 -0.1488 -2.4900
  379MOL0     H49971   3.423  10.184   3.488 -1.6946  0.5076  2.3391
  379MOL0     H49972   3.337  10.068   3.385 -0.3382 -0.2586 -1.3646
  379MOL0     H49973   3.295  10.139   3.680  1.0914  0.5415 -0.1535
  379MOL0     H49974   3.205  10.002   3.598  2.7321 -1.1483 -1.2245
  379MOL0     H49975   3.133  10.191   3.428 -1.3244 -1.1791 -0.0493
  379MOL0     H49976   3.206  10.304   3.539  1.2527 -0.2296  0.7624
  379MOL0     H49977   2.945  10.304   3.542  0.3353  0.1540  0.7723
  379MOL0     H49978   2.953  10.135   3.574  1.3158 -0.1570  0.8570
  379MOL0     H49979   3.056  10.355   3.772  1.7251 -0.8097  1.0860
  379MOL0     H49980   3.076  10.184   3.785  0.2592  0.3418  0.3926
  379MOL0     H49981   2.828  10.049   3.789  0.5424 -1.1866  2.8165
  379MOL0     H49982   2.617  10.056   4.080  2.9970 -1.5187  0.0710
  379MOL0     H49983   2.671   9.969   3.952 -0.9419  0.1588 -0.0786
  379MOL0     H49984   2.440   9.961   3.938 -0.7641  0.9073 -1.0438
  379MOL0     H49985   2.483  10.068   3.805  2.4894 -4.7575 -0.3508
  379MOL0     H49986   2.361  10.135   4.079  0.9230  3.3788  2.1317
  379MOL0     H49987   2.450  10.258   4.013 -0.2052  0.2581  0.1238
  379MOL0     H49988   2.292  10.236   3.799 -6.0264 -1.0733 -1.9203
  379MOL0     H49989   2.213  10.298   3.937  0.0977  0.7183 -0.9996
  379MOL0     H49990   2.158  10.141   4.133  0.8213 -0.6730 -2.3004
  379MOL0     H49991   1.934  10.162   4.275 -0.1947  1.2792  0.0966
  379MOL0     H49992   1.517  10.355   4.313 -1.8253  2.3291  0.7122
  379MOL0     H49993   1.308  10.409   4.399 -0.6907 -0.5479 -0.5949
  379MOL0     H49994   1.084  10.516   4.347 -0.7379 -0.4039 -3.0518
  379MOL0     H49995   1.105  10.415   4.497  1.5581 -0.9836 -1.1015
  379MOL0     H49996   0.856  10.471   4.339 -0.0063 -0.1562  0.2371
  379MOL0     H49997   0.897  10.515   4.507 -2.2334  0.5047 -1.0446
  379MOL0     H49998   0.890  10.293   4.592  0.3525  1.3533 -0.3551
  379MOL0     H49999   0.873  10.218   4.429  1.3489 -0.5115  0.4507
  379MOL0     H50000   0.691  10.429   4.537  1.2104  1.3554 -2.3012
  379MOL0     H50001   0.652  10.342   4.392  1.3330  3.8322 -0.2205
  379MOL0     H50002   0.654  10.268   4.681  4.5983 -2.2681 -1.4173
  379MOL0     H50003   0.626  10.146   4.556  0.7567  0.4636 -1.1672
  379MOL0     H50004   0.427  10.281   4.468 -1.6444  0.7412 -0.0582
  379MOL0     H50005   0.465  10.393   4.599 -0.8161 -0.1639 -0.0376
  379MOL0     H50006   0.363  10.113   4.640 -0.9842  0.1424  1.2991
  379MOL0     H50007   0.415  10.220   4.764 -3.1938 -3.0990  1.0490
  379MOL0     H50008   0.169  10.200   4.692 -0.3791 -1.1645 -0.4807
  379MOL0     H50009   0.214  10.294   4.549  1.9652 -1.7991 -1.1042
  379MOL0     H50010   1.113  10.161   4.110  1.8652 -1.7924 -1.4000
  379MOL0     H50011   1.332  10.123   3.999  1.0581 -1.6506  1.3346
  379MOL0     H50012   1.720  10.134   3.917  0.1693  1.6970  0.3143
  379MOL0     H50013   1.938  10.105   3.785  0.3907 -0.0209  0.3451
  379MOL0     H50014   4.014   9.802   3.375  1.0340  0.1873 -0.0437
  379MOL0     H50015   4.157   9.610   3.338  0.5565  0.1890 -2.1440
  379MOL0     H50016   4.037   9.127   2.941  0.4576 -1.3460 -0.4119
  379MOL0     H50017   4.167   8.927   2.896 -2.0118 -0.2698  1.2035
  379MOL0     H50018   4.241   8.712   2.926  0.0691 -0.7455  2.7114
  379MOL0     H50019   4.407   8.668   2.971 -0.2862 -0.2650  1.7672
  379MOL0     H50020   4.357   8.917   2.791 -0.0665 -1.1414  0.7536
  379MOL0     H50021   4.508   8.875   2.849 -0.1073 -0.7094  2.2236
  379MOL0     H50022   4.313   8.706   2.681  0.2116  0.4035 -0.3212
  379MOL0     H50023   4.466   8.633   2.735  0.4944  0.6355  1.0852
  379MOL0     H50024   4.491   8.716   2.514  3.0955 -0.5676 -0.1391
  379MOL0     H50025   4.449   8.883   2.561  4.4086  1.7236 -2.6557
  379MOL0     H50026   4.868   8.846   2.594 -0.0457 -2.0264 -0.9358
  379MOL0     H50027   4.339   8.943   3.284  1.7132 -0.3344  0.4539
  379MOL0     H50028   4.218   9.172   3.333 -3.0769  2.0740 -1.0241
  380MOL0     O50029   0.844   6.423   7.722 -0.2462  0.4115 -0.6221
  380MOL0     C50030   0.851   6.468   7.606 -0.0691 -0.7606 -0.6483
  380MOL0     O50031   0.751   6.545   7.542  0.2216  0.9658 -0.0970
  380MOL0     C50032   0.619   6.561   7.589  0.6300  1.0157  0.3832
  380MOL0     C50033   0.576   6.559   7.723 -0.4092  0.1160 -0.7447
  380MOL0     C50034   0.435   6.562   7.748  0.4546  0.8325  0.0095
  380MOL0     C50035   0.341   6.558   7.652  0.3103 -0.1273  0.5874
  380MOL0     O50036   0.210   6.568   7.696 -0.1277 -0.6530 -0.5198
  380MOL0     C50037   0.119   6.614   7.594  0.1575 -0.5688  0.3418
  380MOL0     C50038  -0.010   6.666   7.665  0.1324  0.5425  0.2445
  380MOL0     C50039  -0.087   6.744   7.566  0.0611 -0.5260 -0.4562
  380MOL0     C50040  -0.207   6.801   7.634  0.6438  0.0323 -0.0985
  380MOL0     C50041  -0.280   6.874   7.524  0.1873 -0.6911  0.5134
  380MOL0     C50042  -0.390   6.970   7.583  0.4188  0.6132  0.2153
  380MOL0     C50043  -0.532   6.924   7.579 -0.1023 -0.3635  0.4577
  380MOL0     C50044  -0.605   6.985   7.700 -0.1601  0.2375 -0.2147
  380MOL0     N50045  -0.744   6.954   7.713  0.2240 -0.1715  0.0274
  380MOL0     C50046  -0.793   6.848   7.786 -0.8321  0.0873 -1.3531
  380MOL0     C50047  -0.921   6.842   7.752 -0.2255  0.2793  0.4383
  380MOL0     C50048  -1.003   6.733   7.804 -0.1523 -0.0824  0.4054
  380MOL0     C50049  -1.157   6.744   7.776 -0.5948 -0.4622  0.5386
  380MOL0     C50050  -1.216   6.604   7.771 -0.1351 -0.0949  0.1625
  380MOL0     C50051  -1.367   6.618   7.803 -0.0435  0.0351  0.1233
  380MOL0     O50052  -1.415   6.482   7.810 -0.1468  0.2339 -0.2361
  380MOL0     C50053  -1.556   6.481   7.799 -0.4375  0.4367 -0.0553
  380MOL0     C50054  -1.618   6.364   7.788 -0.6506 -0.2033  0.1141
  380MOL0     C50055  -1.748   6.340   7.766  0.3145  0.6108 -0.4765
  380MOL0     C50056  -1.830   6.442   7.790  0.6709 -0.2945  0.6533
  380MOL0     C50057  -1.978   6.421   7.775  0.2966  0.1278  0.1083
  380MOL0     O50058  -2.049   6.540   7.795  0.3366  0.5035  0.0984
  380MOL0     C50059  -2.184   6.540   7.766 -0.3335 -0.5610  0.0436
  380MOL0     C50060  -2.230   6.577   7.647  0.2438  0.4241 -0.6468
  380MOL0     C50061  -2.369   6.590   7.622  0.0668 -0.0706  0.1364
  380MOL0     C50062  -2.457   6.571   7.729 -0.6616 -0.2307 -0.2773
  380MOL0     O50063  -2.598   6.569   7.713  0.1037 -0.0189  0.0134
  380MOL0     C50064  -2.665   6.643   7.610  0.6335  0.4479  0.2923
  380MOL0     C50065  -2.748   6.558   7.518 -0.3176 -0.3983  1.2422
  380MOL0     C50066  -2.861   6.478   7.571 -0.2505 -0.4293 -0.5691
  380MOL0     C50067  -2.975   6.569   7.631  0.2890  1.1047  0.5796
  380MOL0     C50068  -3.042   6.662   7.523  0.1410 -0.1684  0.8487
  380MOL0     C50069  -3.164   6.731   7.574 -0.0048  0.6096 -0.1461
  380MOL0     C50070  -3.296   6.655   7.563  0.6752 -0.3574  0.4394
  380MOL0     C50071  -3.416   6.732   7.636  0.4865  0.2943 -1.0041
  380MOL0    Cl50072  -3.566   6.633   7.628  0.1265  0.2207 -0.2504
  380MOL0     C50073  -2.407   6.538   7.858  0.8291  0.5736  0.4316
  380MOL0     C50074  -2.271   6.521   7.872 -0.4766 -0.1687 -0.1919
  380MOL0     O50075  -2.031   6.309   7.761  0.1729 -0.0220  0.2793
  380MOL0     C50076  -1.781   6.570   7.820 -0.3116 -0.8009  0.6467
  380MOL0     C50077  -1.645   6.597   7.819  0.6445  0.9628  0.5622
  380MOL0     N50078  -0.949   6.942   7.661  0.6704  0.0388 -0.0159
  380MOL0     N50079  -0.839   7.005   7.634  0.3643 -0.9476  0.3202
  380MOL0     C50080   0.391   6.578   7.525  0.5940  0.3825 -0.7276
  380MOL0     C50081   0.522   6.572   7.491  0.2578 -0.8079 -0.2523
  380MOL0     C50082   0.977   6.450   7.527  1.1572  0.1514  0.1858
  380MOL0     C50083   0.990   6.497   7.392 -1.4042  0.5168  0.1221
  380MOL0     C50084   1.113   6.477   7.326 -0.9616  0.2239 -0.1639
  380MOL0     C50085   1.217   6.410   7.387  0.3632 -0.2698  0.2675
  380MOL0     O50086   1.343   6.406   7.317 -0.2930  0.1897 -0.0649
  380MOL0     C50087   1.421   6.296   7.350 -0.1779  0.2437 -0.1762
  380MOL0     C50088   1.540   6.323   7.259 -0.5249 -0.1202  0.3135
  380MOL0     C50089   1.654   6.230   7.286 -0.4777  0.7137 -0.5127
  380MOL0     C50090   1.780   6.280   7.232  0.4247  0.8297  0.2685
  380MOL0     C50091   1.896   6.199   7.255 -0.8155  0.2403 -0.1563
  380MOL0     C50092   1.990   6.127   7.263 -1.0113 -0.2063  0.6733
  380MOL0     C50093   1.202   6.373   7.519 -0.3370 -0.4277 -0.4153
  380MOL0     C50094   1.081   6.391   7.588 -0.6095  0.2094  0.3147
  380MOL0     H50095   0.646   6.560   7.805 -0.0322 -2.4288 -0.9461
  380MOL0     H50096   0.405   6.573   7.851 -1.6405  0.1414 -0.4874
  380MOL0     H50097   0.099   6.526   7.532  1.2875 -0.3357 -0.3859
  380MOL0     H50098   0.156   6.690   7.525 -1.8663 -1.0193 -1.3584
  380MOL0     H50099   0.007   6.739   7.745 -0.5345 -1.2991  2.1625
  380MOL0     H50100  -0.061   6.577   7.702  1.8691 -1.5087 -1.9820
  380MOL0     H50101  -0.115   6.678   7.484  0.8811  0.5804 -1.6548
  380MOL0     H50102  -0.015   6.815   7.524 -0.4657 -0.5709 -1.4731
  380MOL0     H50103  -0.272   6.725   7.680  2.5724  0.3222  3.4396
  380MOL0     H50104  -0.183   6.868   7.717 -2.4394 -0.4066  1.2785
  380MOL0     H50105  -0.321   6.811   7.444 -3.2889  0.3634  1.2684
  380MOL0     H50106  -0.205   6.932   7.470  0.8610 -4.1722 -2.7365
  380MOL0     H50107  -0.377   7.065   7.530  0.5875 -0.9061 -2.6620
  380MOL0     H50108  -0.363   6.997   7.685  2.2450 -0.1214 -0.0293
  380MOL0     H50109  -0.567   6.972   7.487  0.3446  1.0547  0.9963
  380MOL0     H50110  -0.551   6.816   7.576  0.6635 -0.4902 -1.0140
  380MOL0     H50111  -0.586   7.093   7.699 -0.3739  0.3055  1.1706
  380MOL0     H50112  -0.552   6.951   7.789 -0.2115  2.5734  0.8014
  380MOL0     H50113  -0.732   6.775   7.839 -5.3012 -1.2962  2.6901
  380MOL0     H50114  -0.984   6.718   7.911  0.3905  1.7031  0.5947
  380MOL0     H50115  -0.972   6.639   7.758  0.4245  0.0346  0.5463
  380MOL0     H50116  -1.172   6.797   7.681  1.3173 -2.4051 -0.9363
  380MOL0     H50117  -1.204   6.805   7.854 -2.1933 -2.7439  1.4527
  380MOL0     H50118  -1.206   6.566   7.669 -6.0253  0.3079 -0.9089
  380MOL0     H50119  -1.169   6.547   7.852 -0.3822  3.9822  3.5012
  380MOL0     H50120  -1.427   6.673   7.730 -4.1357 -0.6585  2.6120
  380MOL0     H50121  -1.380   6.664   7.901  0.4439 -2.7809  1.6162
  380MOL0     H50122  -1.551   6.279   7.780 -1.0746 -0.7003  1.4320
  380MOL0     H50123  -1.789   6.243   7.739 -0.8896  1.0639 -0.3814
  380MOL0     H50124  -2.159   6.614   7.574 -1.4961 -0.0308 -2.6815
  380MOL0     H50125  -2.394   6.619   7.520  0.8505 -3.6100 -1.1859
  380MOL0     H50126  -2.595   6.707   7.557  0.2431  1.1038  0.5615
  380MOL0     H50127  -2.737   6.703   7.667 -0.3696 -1.7942  1.5147
  380MOL0     H50128  -2.676   6.490   7.472 -0.7623  0.1462 -0.3024
  380MOL0     H50129  -2.778   6.617   7.431 -1.4075 -1.0396  1.1670
  380MOL0     H50130  -2.815   6.408   7.641 -0.3095  0.2208  0.1290
  380MOL0     H50131  -2.902   6.428   7.482 -2.1327 -1.1942  0.6731
  380MOL0     H50132  -3.055   6.503   7.667 -1.9194  2.8276 -0.8756
  380MOL0     H50133  -2.939   6.630   7.714 -1.9936  1.3412  1.4707
  380MOL0     H50134  -3.073   6.587   7.450 -1.1987  1.6693 -0.5713
  380MOL0     H50135  -2.975   6.735   7.478  1.4927 -2.2586 -0.7491
  380MOL0     H50136  -3.179   6.834   7.539  1.2636  1.0192  0.4218
  380MOL0     H50137  -3.136   6.764   7.675  1.1526  1.6430 -0.7690
  380MOL0     H50138  -3.318   6.645   7.456 -2.0033  1.1989  0.7326
  380MOL0     H50139  -3.296   6.562   7.620 -0.4627 -0.5934  0.0996
  380MOL0     H50140  -3.438   6.836   7.608 -3.4189  0.0835  0.6068
  380MOL0     H50141  -3.388   6.750   7.740 -0.0688  1.5711 -1.0514
  380MOL0     H50142  -2.462   6.504   7.946 -0.1167  2.8814  0.7897
  380MOL0     H50143  -2.243   6.482   7.969  1.0789  0.4499 -0.3614
  380MOL0     H50144  -1.856   6.647   7.832 -3.5103 -3.7499  1.1777
  380MOL0     H50145  -1.604   6.693   7.849  2.2933  0.4754 -0.0752
  380MOL0     H50146   0.322   6.579   7.442  1.5997 -2.4146 -1.6985
  380MOL0     H50147   0.545   6.582   7.385  0.7915  3.5134  0.0838
  380MOL0     H50148   0.915   6.554   7.339 -3.3051  0.7139  2.8071
  380MOL0     H50149   1.117   6.510   7.223 -0.5326  1.1221  0.1300
  380MOL0     H50150   1.378   6.200   7.321 -0.7888  0.3769  0.2628
  380MOL0     H50151   1.455   6.297   7.454 -2.4465 -1.6250  0.6573
  380MOL0     H50152   1.508   6.308   7.156  2.6318 -0.7648 -0.6966
  380MOL0     H50153   1.585   6.421   7.280 -0.4214 -0.0617 -0.1600
  380MOL0     H50154   1.640   6.133   7.236 -0.9429 -0.6714  2.1539
  380MOL0     H50155   1.672   6.216   7.393  1.3938 -0.7671 -0.9570
  380MOL0     H50156   1.773   6.303   7.125 -0.1074  1.1424  0.3621
  380MOL0     H50157   1.799   6.381   7.270  0.9849  1.0201 -0.4850
  380MOL0     H50158   2.085   6.077   7.270 -0.8519  0.0610  0.4668
  380MOL0     H50159   1.280   6.314   7.567 -0.3834  1.3977  2.1252
  380MOL0     H50160   1.077   6.352   7.690  1.1885  0.3557  0.4759
  381MOL0     O50161   6.427  10.088  10.570  0.2438 -0.5308 -0.3457
  381MOL0     C50162   6.448  10.126  10.685  0.9765  0.3504  0.3043
  381MOL0     O50163   6.348  10.130  10.783 -0.0296 -0.1515  0.6550
  381MOL0     C50164   6.217  10.098  10.758 -0.5144 -0.1170  0.4654
  381MOL0     C50165   6.148  10.023  10.855 -0.4381  0.1159 -0.4133
  381MOL0     C50166   6.015   9.981  10.836  0.1446  0.1138  0.8547
  381MOL0     C50167   5.939  10.026  10.727  0.1990  0.0433  0.9853
  381MOL0     O50168   5.808  10.009  10.703  0.0888 -0.2960 -0.0428
  381MOL0     C50169   5.727  10.025  10.821  0.2795 -0.5341 -1.1923
  381MOL0     C50170   5.586  10.047  10.778  0.2191 -0.2781 -0.0021
  381MOL0     C50171   5.576  10.197  10.734  0.0908  0.6133  0.0502
  381MOL0     C50172   5.447  10.205  10.656  0.1391  0.5279 -0.7882
  381MOL0     C50173   5.444  10.334  10.578 -0.5315 -0.6412  0.1035
  381MOL0     C50174   5.443  10.458  10.665  0.3748  0.1239  0.4601
  381MOL0     C50175   5.452  10.588  10.585 -0.4025  0.0006  0.1858
  381MOL0     C50176   5.309  10.661  10.580  0.0082  0.3214 -0.7139
  381MOL0     N50177   5.200  10.577  10.521 -0.2519 -0.0978  0.5496
  381MOL0     C50178   5.126  10.485  10.591 -0.3212  0.1465  0.4789
  381MOL0     C50179   5.058  10.426  10.493 -0.2686 -0.2017  0.9805
  381MOL0     C50180   4.951  10.305  10.500 -0.3076 -1.2969 -0.4636
  381MOL0     C50181   4.961  10.227  10.632  1.1114  0.1823  0.2289
  381MOL0     C50182   4.875  10.282  10.741 -0.2089 -0.0441 -0.3345
  381MOL0     C50183   4.727  10.272  10.728 -0.2390  0.1152 -0.5218
  381MOL0     O50184   4.652  10.359  10.816  0.3013 -0.4822 -0.4706
  381MOL0     C50185   4.518  10.385  10.790  0.0698 -0.0597  0.5908
  381MOL0     C50186   4.453  10.355  10.674  1.2135  0.0957 -0.4912
  381MOL0     C50187   4.317  10.377  10.670 -0.5302 -0.3079 -0.0946
  381MOL0     C50188   4.245  10.442  10.782  0.0781 -0.1680 -0.3516
  381MOL0     C50189   4.097  10.470  10.768  0.1119  1.3295 -0.5120
  381MOL0     O50190   4.028  10.508  10.875  0.6664 -0.2061  0.1147
  381MOL0     C50191   3.891  10.539  10.879  1.0563  0.6843  0.3086
  381MOL0     C50192   3.803  10.560  10.767 -0.3229 -0.2744  0.2023
  381MOL0     C50193   3.673  10.608  10.789 -0.1849  0.2613 -1.1267
  381MOL0     C50194   3.624  10.628  10.921  0.0211  0.6459 -0.0291
  381MOL0     O50195   3.493  10.663  10.945  0.2378 -0.5123 -0.3843
  381MOL0     C50196   3.399  10.726  10.857  0.0589 -0.2116 -0.5137
  381MOL0     C50197   3.269  10.753  10.930 -0.3601 -0.4618  0.1809
  381MOL0     C50198   3.156  10.802  10.831  0.3548  0.2823  0.4498
  381MOL0     C50199   3.022  10.820  10.901  0.8784  0.4301 -0.0625
  381MOL0     C50200   2.922  10.852  10.786 -0.3737  0.2505  0.2441
  381MOL0     C50201   2.781  10.876  10.835  0.7885 -0.1591 -0.5192
  381MOL0     C50202   2.744  11.024  10.822  0.0112 -0.2806  0.3790
  381MOL0     C50203   2.599  11.046  10.868  0.4673  0.2412  0.7578
  381MOL0    Cl50204   2.577  11.026  11.038  0.1914  0.0099  0.0987
  381MOL0     C50205   3.714  10.603  11.027 -0.5240 -0.3819  0.3728
  381MOL0     C50206   3.847  10.553  11.003 -0.1808  0.2434 -0.2412
  381MOL0     O50207   4.042  10.441  10.661  0.4306  0.0384  0.2494
  381MOL0     C50208   4.317  10.466  10.897  0.2466 -0.2795  0.4778
  381MOL0     C50209   4.455  10.436  10.900  0.6484 -0.7647 -0.4410
  381MOL0     N50210   5.080  10.483  10.369 -0.7754 -0.7433  0.2210
  381MOL0     N50211   5.162  10.586  10.390 -0.1460 -0.0682  0.5515
  381MOL0     C50212   6.001  10.098  10.625  0.4681 -0.9408  0.1003
  381MOL0     C50213   6.139  10.131  10.647 -0.2527 -0.2426 -0.0399
  381MOL0     C50214   6.580  10.190  10.723 -0.5611 -1.0525 -0.2099
  381MOL0     C50215   6.691  10.194  10.632  1.2285 -0.7519  0.1555
  381MOL0     C50216   6.816  10.239  10.660  0.0532 -0.0232 -0.1092
  381MOL0     C50217   6.841  10.300  10.789  0.0489 -0.3013 -0.1253
  381MOL0     O50218   6.955  10.358  10.830 -0.5325  0.2701 -0.0504
  381MOL0     C50219   7.055  10.344  10.726 -0.5134 -0.7356 -0.7684
  381MOL0     C50220   7.189  10.365  10.784 -0.3169  0.0384 -0.3797
  381MOL0     C50221   7.292  10.372  10.670  0.5868  0.7453 -0.9004
  381MOL0     C50222   7.438  10.397  10.721 -0.5123  0.0968 -0.4005
  381MOL0     C50223   7.537  10.410  10.610 -0.0207  0.0162  0.0532
  381MOL0     C50224   7.620  10.425  10.522 -0.0896 -0.2736 -0.3570
  381MOL0     C50225   6.732  10.305  10.880 -0.0088 -0.4929 -0.7447
  381MOL0     C50226   6.604  10.242  10.851 -0.7021  0.3269 -0.7626
  381MOL0     H50227   6.202   9.997  10.945  1.6665 -2.7283 -2.3373
  381MOL0     H50228   5.973   9.919  10.914  2.7659 -4.4013 -0.9578
  381MOL0     H50229   5.767  10.094  10.896  4.0348 -3.6401 -0.0254
  381MOL0     H50230   5.741   9.934  10.880 -2.3638  1.2106  2.5614
  381MOL0     H50231   5.521  10.027  10.863  0.1183  0.1639  0.0306
  381MOL0     H50232   5.544   9.985  10.698 -3.3244 -0.1786  1.5739
  381MOL0     H50233   5.670  10.223  10.685  0.7625  0.2103  1.0859
  381MOL0     H50234   5.578  10.252  10.829  0.5390  1.0933 -0.2356
  381MOL0     H50235   5.414  10.117  10.601  0.8731  0.0181 -0.4303
  381MOL0     H50236   5.369  10.223  10.730  0.3983  1.1952 -0.6595
  381MOL0     H50237   5.352  10.337  10.518 -2.8340 -0.4196  3.3290
  381MOL0     H50238   5.536  10.337  10.519  0.5848  2.7523  1.8025
  381MOL0     H50239   5.533  10.440  10.725  1.0169  1.5370 -0.0221
  381MOL0     H50240   5.357  10.462  10.732 -0.1581  4.0717 -0.1819
  381MOL0     H50241   5.519  10.659  10.634  0.6892 -1.4691  0.9272
  381MOL0     H50242   5.490  10.560  10.487  4.4191  3.1688  0.8332
  381MOL0     H50243   5.322  10.749  10.517 -0.4026 -0.4999 -1.9689
  381MOL0     H50244   5.287  10.686  10.684  1.4395 -1.9558  0.2322
  381MOL0     H50245   5.139  10.449  10.693  2.4593 -2.1873 -0.5564
  381MOL0     H50246   4.981  10.224  10.432  0.4357 -1.3087 -0.1340
  381MOL0     H50247   4.849  10.341  10.485  0.8872  2.7886 -0.0403
  381MOL0     H50248   5.061  10.224  10.677  1.1639 -0.8601  0.0614
  381MOL0     H50249   4.920  10.127  10.617 -1.2827  0.7044  2.4833
  381MOL0     H50250   4.906  10.239  10.836  0.0254 -0.3890 -0.5654
  381MOL0     H50251   4.891  10.390  10.753 -1.6690  0.1841 -0.2288
  381MOL0     H50252   4.695  10.169  10.742  0.6381  0.0458  1.2980
  381MOL0     H50253   4.703  10.285  10.622  1.0530 -0.9892 -0.9724
  381MOL0     H50254   4.504  10.316  10.587  0.1492 -0.0397 -1.0794
  381MOL0     H50255   4.269  10.347  10.577  1.6191 -1.5552 -0.8752
  381MOL0     H50256   3.848  10.541  10.670  2.0376 -0.9144  1.3565
  381MOL0     H50257   3.606  10.643  10.712 -1.4277 -1.7423 -1.0191
  381MOL0     H50258   3.377  10.656  10.776 -2.9213  1.7022 -1.5309
  381MOL0     H50259   3.449  10.817  10.823  0.7954 -0.6583 -0.6387
  381MOL0     H50260   3.291  10.812  11.020  1.2113 -2.9537  1.5880
  381MOL0     H50261   3.227  10.663  10.976 -1.8591 -0.4514 -1.0886
  381MOL0     H50262   3.147  10.735  10.745 -2.0733  0.0363  0.8311
  381MOL0     H50263   3.186  10.904  10.801 -0.6099  0.4735  0.0882
  381MOL0     H50264   2.977  10.731  10.946 -4.4288  3.3547  1.3092
  381MOL0     H50265   3.020  10.904  10.970 -0.8960 -0.5739  1.1927
  381MOL0     H50266   2.930  10.764  10.722 -4.4596 -0.6614  0.7025
  381MOL0     H50267   2.951  10.937  10.723  0.3587 -2.2102 -2.9992
  381MOL0     H50268   2.786  10.859  10.943  1.4644 -2.4994 -0.8627
  381MOL0     H50269   2.710  10.802  10.798 -0.4584 -0.6363  2.5193
  381MOL0     H50270   2.813  11.083  10.883  2.9593 -3.0268 -0.0237
  381MOL0     H50271   2.747  11.055  10.717 -1.5446 -1.5015 -0.0501
  381MOL0     H50272   2.544  10.971  10.811 -0.6866 -0.3753  2.6413
  381MOL0     H50273   2.558  11.142  10.834  1.2141  1.1797  2.3761
  381MOL0     H50274   3.665  10.614  11.123 -2.5272  1.0170 -0.7550
  381MOL0     H50275   3.908  10.533  11.091  0.1955  3.2205  0.2655
  381MOL0     H50276   4.270  10.499  10.989 -1.5975  5.6197 -2.0845
  381MOL0     H50277   4.517  10.471  10.982 -2.1268  3.5500  0.1643
  381MOL0     H50278   5.943  10.142  10.544  1.4531  0.5259  0.1497
  381MOL0     H50279   6.185  10.184  10.564 -1.9872 -0.4078 -1.1559
  381MOL0     H50280   6.686  10.166  10.528  2.5741 -0.7764  0.0784
  381MOL0     H50281   6.879  10.247  10.572  1.6158 -0.5114  0.9222
  381MOL0     H50282   7.026  10.413  10.646 -0.7081  1.1796  0.8809
  381MOL0     H50283   7.056  10.241  10.688 -1.3437 -1.4434  1.0349
  381MOL0     H50284   7.176  10.460  10.837  1.5584  0.5997 -0.8263
  381MOL0     H50285   7.213  10.297  10.866  2.1755  0.3897 -0.7210
  381MOL0     H50286   7.267  10.451  10.598 -2.4669 -0.2606 -1.0863
  381MOL0     H50287   7.289  10.272  10.625  0.2560  0.5409 -0.4350
  381MOL0     H50288   7.451  10.497  10.764  2.3732  0.1184 -1.1693
  381MOL0     H50289   7.474  10.327  10.796 -0.7225  0.3328 -0.0766
  381MOL0     H50290   7.699  10.446  10.453 -1.4685  1.8194 -1.4525
  381MOL0     H50291   6.734  10.362  10.973 -0.4792 -0.6241 -0.6518
  381MOL0     H50292   6.520  10.249  10.919 -0.6594 -2.4831 -0.3027
  382MOL0     O50293   0.291   9.338   1.787  0.3097 -0.5257 -0.2827
  382MOL0     C50294   0.278   9.216   1.816 -0.4267 -0.1194 -0.3224
  382MOL0     O50295   0.155   9.158   1.853 -0.4698  0.6571 -0.0362
  382MOL0     C50296   0.030   9.215   1.861  0.4097 -0.4308 -0.5874
  382MOL0     C50297  -0.022   9.310   1.761 -0.0966  1.3874 -0.3852
  382MOL0     C50298  -0.146   9.372   1.789 -0.5758  0.3283  0.4235
  382MOL0     C50299  -0.216   9.354   1.909 -0.3036  0.0315 -0.7098
  382MOL0     O50300  -0.337   9.422   1.926 -0.8665  0.4192 -0.1177
  382MOL0     C50301  -0.431   9.383   2.030  0.4924 -0.5046  0.0296
  382MOL0     C50302  -0.567   9.451   1.992 -0.6495  0.9631 -0.1859
  382MOL0     C50303  -0.652   9.468   2.111 -0.2807 -0.5626  0.2123
  382MOL0     C50304  -0.794   9.490   2.066  0.0115 -0.5315  0.3008
  382MOL0     C50305  -0.891   9.494   2.182 -0.8054  0.0017  0.0871
  382MOL0     C50306  -1.036   9.544   2.152  0.5472 -0.4882  0.3126
  382MOL0     C50307  -1.132   9.528   2.270 -0.1755 -0.4892 -0.0479
  382MOL0     C50308  -1.266   9.574   2.225  0.6961  0.2465 -0.3998
  382MOL0     N50309  -1.319   9.495   2.112 -0.4864 -0.1798  0.2492
  382MOL0     C50310  -1.383   9.379   2.128 -0.7456 -0.1931  1.4706
  382MOL0     C50311  -1.415   9.337   2.004 -0.0851 -0.5965 -1.1431
  382MOL0     C50312  -1.515   9.234   1.971 -0.1351 -0.1126  0.1994
  382MOL0     C50313  -1.657   9.275   1.958 -0.2830 -0.1426  0.0989
  382MOL0     C50314  -1.748   9.154   1.957  0.0621 -0.2249 -0.5805
  382MOL0     C50315  -1.899   9.186   1.973 -0.0287 -1.2316  0.0315
  382MOL0     O50316  -1.963   9.065   1.936  0.0802  0.0805  0.3721
  382MOL0     C50317  -2.096   9.052   1.977  0.8158  0.9548 -0.4007
  382MOL0     C50318  -2.166   9.153   2.036  0.7107  0.0433 -0.5383
  382MOL0     C50319  -2.292   9.125   2.077 -1.2498 -0.6686 -0.8500
  382MOL0     C50320  -2.348   8.994   2.072  0.3412 -0.7870  0.7289
  382MOL0     C50321  -2.486   8.961   2.123 -0.5067  0.4855 -0.1389
  382MOL0     O50322  -2.521   8.832   2.154 -0.4330 -0.2041  0.4999
  382MOL0     C50323  -2.646   8.787   2.155 -0.1006 -0.4013  0.0632
  382MOL0     C50324  -2.730   8.781   2.266  0.2287  0.1924  0.4131
  382MOL0     C50325  -2.861   8.735   2.261 -0.8660 -0.2207  0.4861
  382MOL0     C50326  -2.918   8.711   2.140 -0.1533  0.4783  0.0740
  382MOL0     O50327  -3.053   8.679   2.129  0.0499  0.4312 -0.5361
  382MOL0     C50328  -3.134   8.744   2.039  0.3236 -0.9103 -0.3007
  382MOL0     C50329  -3.247   8.646   2.004  0.2589 -0.0533 -0.4447
  382MOL0     C50330  -3.377   8.726   1.971  0.0009 -0.5362  0.4538
  382MOL0     C50331  -3.494   8.636   1.942 -0.1669 -0.6870 -0.5089
  382MOL0     C50332  -3.623   8.716   1.915 -0.2566  0.7125 -0.1590
  382MOL0     C50333  -3.736   8.620   1.875 -0.2626  0.5972  0.3733
  382MOL0     C50334  -3.840   8.697   1.804  0.2191  0.0187  0.4738
  382MOL0     C50335  -3.971   8.618   1.814 -1.1220 -0.8420 -0.0306
  382MOL0    Cl50336  -3.959   8.484   1.702  0.1444  0.5714  0.0591
  382MOL0     C50337  -2.842   8.726   2.023 -0.4078 -0.0158 -0.5400
  382MOL0     C50338  -2.703   8.763   2.035  0.8153 -0.1900  0.0275
  382MOL0     O50339  -2.556   9.067   2.134  0.1125  1.1703 -0.1016
  382MOL0     C50340  -2.273   8.894   2.005 -0.6203 -0.1040 -0.4693
  382MOL0     C50341  -2.150   8.923   1.962 -0.8120 -0.5904 -0.8040
  382MOL0     N50342  -1.362   9.432   1.917 -0.4157 -0.0898 -0.3323
  382MOL0     N50343  -1.315   9.535   1.984  0.3036 -0.7481 -0.0449
  382MOL0     C50344  -0.165   9.263   2.002 -0.4220  0.2897  0.4844
  382MOL0     C50345  -0.041   9.204   1.982  1.0458 -0.2075  0.3418
  382MOL0     C50346   0.394   9.136   1.811  0.2080 -0.2717  0.4958
  382MOL0     C50347   0.526   9.195   1.830  0.4498 -0.7792 -0.2972
  382MOL0     C50348   0.635   9.108   1.811 -0.6643 -0.0215 -0.5890
  382MOL0     C50349   0.624   8.979   1.768  0.4167  0.0612  0.1822
  382MOL0     O50350   0.727   8.909   1.712 -0.0460 -0.8005 -0.4517
  382MOL0     C50351   0.859   8.909   1.771 -0.4552 -0.6182  0.2807
  382MOL0     C50352   0.859   8.873   1.923 -0.1023  0.5052 -0.5432
  382MOL0     C50353   0.922   8.735   1.950  0.6989 -0.2176 -0.1516
  382MOL0     C50354   1.079   8.743   1.947 -0.0820  0.3532  0.3739
  382MOL0     C50355   1.120   8.609   1.993  0.6170  0.0139  0.5305
  382MOL0     C50356   1.165   8.499   2.013 -0.7099 -0.0177 -0.4378
  382MOL0     C50357   0.495   8.924   1.761 -0.4786 -0.5419  0.9996
  382MOL0     C50358   0.379   8.992   1.781  0.3863 -0.2338  0.2067
  382MOL0     H50359   0.031   9.342   1.672  0.2748 -0.5119 -0.8815
  382MOL0     H50360  -0.199   9.437   1.720 -1.0935 -0.3280  0.1922
  382MOL0     H50361  -0.408   9.412   2.133 -1.6349  4.5189 -0.5988
  382MOL0     H50362  -0.438   9.275   2.045 -2.4280 -0.2308  1.2257
  382MOL0     H50363  -0.618   9.378   1.930  0.8862  0.9125 -1.4322
  382MOL0     H50364  -0.557   9.553   1.953 -1.0243  1.5831  1.2377
  382MOL0     H50365  -0.610   9.543   2.178  1.5544 -0.1585 -1.2859
  382MOL0     H50366  -0.640   9.371   2.160  4.2594 -0.9997 -1.3219
  382MOL0     H50367  -0.791   9.589   2.019 -1.5223 -1.8061 -2.8013
  382MOL0     H50368  -0.821   9.420   1.986 -2.4053  2.0461 -1.3408
  382MOL0     H50369  -0.852   9.554   2.265 -3.3072  1.7838  0.1209
  382MOL0     H50370  -0.898   9.392   2.219  0.3005  0.3116  1.1981
  382MOL0     H50371  -1.068   9.476   2.073 -0.1385  1.2104 -0.9280
  382MOL0     H50372  -1.028   9.645   2.112  1.3329 -1.4558 -2.1685
  382MOL0     H50373  -1.128   9.427   2.312  3.2182  0.0766  1.2630
  382MOL0     H50374  -1.103   9.597   2.350 -1.1179  3.4209 -2.7592
  382MOL0     H50375  -1.266   9.680   2.196  0.2668  0.9395  1.8760
  382MOL0     H50376  -1.342   9.566   2.304  1.2080  1.5000  0.2556
  382MOL0     H50377  -1.403   9.335   2.226  0.6068 -2.3796  0.8521
  382MOL0     H50378  -1.511   9.159   2.051 -0.9905 -0.0094  0.3392
  382MOL0     H50379  -1.489   9.171   1.885  0.5872 -0.9368  0.9947
  382MOL0     H50380  -1.652   9.324   1.861  1.3073 -3.9102 -1.9429
  382MOL0     H50381  -1.682   9.335   2.046  1.7956 -0.2610  0.8364
  382MOL0     H50382  -1.733   9.096   1.865 -1.2516  1.4944 -1.9457
  382MOL0     H50383  -1.730   9.093   2.045  0.4578 -1.1918 -1.3064
  382MOL0     H50384  -1.925   9.255   1.892  1.8576 -0.1948  0.2560
  382MOL0     H50385  -1.926   9.220   2.073 -0.6770  0.5646 -0.7131
  382MOL0     H50386  -2.126   9.252   2.055 -0.8129  0.0404  4.0071
  382MOL0     H50387  -2.348   9.204   2.125 -1.2291 -1.7369  1.0273
  382MOL0     H50388  -2.703   8.798   2.369 -0.7590 -2.9291  1.2858
  382MOL0     H50389  -2.931   8.724   2.344 -0.0593 -0.3543  1.1710
  382MOL0     H50390  -3.086   8.781   1.948 -0.1959 -0.1115 -0.2599
  382MOL0     H50391  -3.181   8.832   2.084  2.0248  0.8817 -1.8435
  382MOL0     H50392  -3.260   8.574   2.086  0.6329 -0.7534 -0.9874
  382MOL0     H50393  -3.214   8.583   1.921  1.5355  1.1136 -0.8689
  382MOL0     H50394  -3.358   8.780   1.878  0.8133  2.5682  2.2798
  382MOL0     H50395  -3.398   8.801   2.048 -1.2638  1.4592 -1.7253
  382MOL0     H50396  -3.480   8.574   1.854 -2.1904 -0.6477 -0.9151
  382MOL0     H50397  -3.517   8.571   2.027  2.1908  1.2242  1.8047
  382MOL0     H50398  -3.604   8.784   1.831  0.6084 -0.0051 -0.5806
  382MOL0     H50399  -3.663   8.769   2.001 -0.5399 -0.3272  0.3734
  382MOL0     H50400  -3.770   8.591   1.974  0.1784  1.0158  0.6503
  382MOL0     H50401  -3.703   8.535   1.814 -0.7303  0.7343 -0.0849
  382MOL0     H50402  -3.853   8.784   1.869  1.0558 -1.2606  2.4476
  382MOL0     H50403  -3.825   8.711   1.696 -2.6508 -0.2964 -0.0351
  382MOL0     H50404  -4.054   8.686   1.795 -1.0160 -0.6887  0.0493
  382MOL0     H50405  -3.978   8.587   1.919 -2.2428  1.1109  0.5190
  382MOL0     H50406  -2.892   8.703   1.929  0.0502  1.9539 -1.3124
  382MOL0     H50407  -2.660   8.788   1.938  0.6524 -1.3457 -0.3616
  382MOL0     H50408  -2.315   8.796   1.983 -2.2823  0.2951  0.7523
  382MOL0     H50409  -2.100   8.836   1.921 -1.3840 -0.8768 -0.8962
  382MOL0     H50410  -0.215   9.259   2.098  0.7052 -1.0007  1.0464
  382MOL0     H50411  -0.001   9.147   2.066 -1.0494  1.2844  2.4697
  382MOL0     H50412   0.545   9.293   1.873 -1.7593  0.2625 -1.5047
  382MOL0     H50413   0.732   9.148   1.839 -1.2945  1.0688  0.0925
  382MOL0     H50414   0.922   8.997   1.760  1.5652 -2.0252 -0.0193
  382MOL0     H50415   0.903   8.829   1.710  0.2002 -0.1572  0.1405
  382MOL0     H50416   0.923   8.939   1.981  1.3685 -3.1429  2.4580
  382MOL0     H50417   0.755   8.878   1.958 -0.1928  0.1067 -0.7410
  382MOL0     H50418   0.875   8.665   1.881 -1.3120  1.7382 -0.9124
  382MOL0     H50419   0.904   8.710   2.055  0.0755  1.1730  0.0946
  382MOL0     H50420   1.118   8.755   1.846  0.9438  1.9640  0.9280
  382MOL0     H50421   1.118   8.814   2.020 -0.8170  1.0770  0.0789
  382MOL0     H50422   1.204   8.404   2.044  2.8006  2.2159  2.8708
  382MOL0     H50423   0.494   8.821   1.727 -0.1946  0.6010 -2.8531
  382MOL0     H50424   0.279   8.949   1.772  0.9404 -2.1222  2.0206
  383MOL0     O50425   2.658   3.342  10.342 -0.9278 -0.7144  0.0004
  383MOL0     C50426   2.699   3.451  10.307  0.6573 -0.4724 -0.3324
  383MOL0     O50427   2.628   3.568  10.317  0.2485  0.4019  0.0304
  383MOL0     C50428   2.505   3.554  10.375 -0.2859  0.4568  0.1135
  383MOL0     C50429   2.398   3.497  10.300  0.6258  0.0363  0.2637
  383MOL0     C50430   2.265   3.497  10.348 -0.4633 -0.5203 -0.2897
  383MOL0     C50431   2.237   3.553  10.477 -0.1610 -0.0050  0.4992
  383MOL0     O50432   2.110   3.548  10.526  0.6169  0.2814 -0.2457
  383MOL0     C50433   1.994   3.558  10.451  0.5502 -0.1758 -0.0946
  383MOL0     C50434   1.883   3.573  10.547 -0.2812  0.3464  0.0424
  383MOL0     C50435   1.756   3.518  10.501  0.1283  0.4110  0.2766
  383MOL0     C50436   1.644   3.525  10.600 -0.1308 -0.1678  0.1511
  383MOL0     C50437   1.520   3.482  10.536  0.6163  0.0973  0.2483
  383MOL0     C50438   1.422   3.433  10.644 -0.1849  0.5434  0.0294
  383MOL0     C50439   1.276   3.450  10.603  0.3930  0.4098 -0.1254
  383MOL0     C50440   1.185   3.358  10.687 -0.5490 -0.7195 -0.3662
  383MOL0     N50441   1.043   3.357  10.650 -0.0352  0.2687 -0.2462
  383MOL0     C50442   0.937   3.290  10.708  0.2397  0.0537 -0.0906
  383MOL0     C50443   0.824   3.308  10.640  0.4335  0.2130 -0.5395
  383MOL0     C50444   0.686   3.253  10.659 -0.0365  1.2287  0.3164
  383MOL0     C50445   0.677   3.126  10.562  0.0095 -1.1054 -0.8474
  383MOL0     C50446   0.574   3.024  10.607  0.2743  1.0734 -0.9646
  383MOL0     C50447   0.433   3.088  10.608 -0.2301 -0.4340 -0.4015
  383MOL0     O50448   0.397   3.177  10.499 -0.2931  0.7276  0.9014
  383MOL0     C50449   0.349   3.123  10.379 -0.1893 -1.0644  0.2196
  383MOL0     C50450   0.282   3.228  10.301  0.1346 -0.2915 -0.1316
  383MOL0     C50451   0.235   3.205  10.176 -0.2878  1.1962  0.7940
  383MOL0     C50452   0.251   3.079  10.115 -0.6200 -0.5214 -0.1525
  383MOL0     C50453   0.183   3.054   9.988  0.9833 -0.4415 -0.4852
  383MOL0     O50454   0.117   3.154   9.925 -0.1647 -0.6925  0.4589
  383MOL0     C50455   0.034   3.133   9.818  0.8242  0.0277 -0.6845
  383MOL0     C50456   0.041   3.237   9.724 -0.8267 -0.0367 -0.3874
  383MOL0     C50457  -0.050   3.240   9.608 -0.4574  0.6839 -0.6250
  383MOL0     C50458  -0.128   3.128   9.584  0.5030  0.4606  0.6461
  383MOL0     O50459  -0.202   3.125   9.469 -0.1174 -0.1411 -0.5369
  383MOL0     C50460  -0.300   3.018   9.456 -0.2714 -0.7229  0.5320
  383MOL0     C50461  -0.359   3.042   9.316 -0.4632 -0.2303  0.2224
  383MOL0     C50462  -0.411   3.181   9.311  0.4210  0.9636  0.1227
  383MOL0     C50463  -0.502   3.198   9.185  0.2240  0.0530 -0.7611
  383MOL0     C50464  -0.572   3.341   9.195  0.2400  0.1667 -0.2936
  383MOL0     C50465  -0.642   3.364   9.054  0.4739 -0.4172  0.6070
  383MOL0     C50466  -0.724   3.493   9.051 -0.4414  0.6540 -0.3738
  383MOL0     C50467  -0.648   3.614   9.056  1.2621  0.6371 -0.6935
  383MOL0    Cl50468  -0.767   3.754   9.046 -0.1819  0.0292 -0.0669
  383MOL0     C50469  -0.139   3.021   9.676 -0.3147 -1.3235 -0.8761
  383MOL0     C50470  -0.050   3.027   9.793 -0.1118  0.1831  0.3341
  383MOL0     O50471   0.192   2.942   9.950 -0.5077  0.2118 -0.2669
  383MOL0     C50472   0.325   2.976  10.189  0.2463  0.2116 -1.0098
  383MOL0     C50473   0.369   2.992  10.324 -1.0577  0.4802 -0.2889
  383MOL0     N50474   0.861   3.402  10.546 -0.2386 -0.4040 -0.2907
  383MOL0     N50475   0.983   3.436  10.555 -0.0181 -0.2609  0.5704
  383MOL0     C50476   2.345   3.603  10.548  0.1837 -0.7390  0.1068
  383MOL0     C50477   2.475   3.613  10.495  0.9966 -0.1083  0.0785
  383MOL0     C50478   2.830   3.457  10.255  0.7787 -0.3880  0.3114
  383MOL0     C50479   2.883   3.571  10.209  0.4151 -0.1442 -0.0660
  383MOL0     C50480   3.016   3.583  10.155  0.3418 -0.3554  0.0535
  383MOL0     C50481   3.092   3.472  10.140  0.7067 -0.2401 -0.0042
  383MOL0     O50482   3.224   3.455  10.096  0.5926 -0.8215  0.3301
  383MOL0     C50483   3.287   3.568  10.022 -0.1286  0.3834 -0.5103
  383MOL0     C50484   3.448   3.549  10.024 -0.8353 -0.9247 -0.4609
  383MOL0     C50485   3.496   3.430   9.940  0.2909 -0.9389  0.0917
  383MOL0     C50486   3.448   3.453   9.789 -0.4885  1.3035 -0.6098
  383MOL0     C50487   3.485   3.574   9.724 -0.5925 -0.7805 -0.0634
  383MOL0     C50488   3.507   3.669   9.650  0.6460 -0.0241 -0.4408
  383MOL0     C50489   3.031   3.350  10.171 -0.4652 -0.3755 -0.1276
  383MOL0     C50490   2.907   3.342  10.233 -0.0597  0.2923  0.5423
  383MOL0     H50491   2.413   3.455  10.201 -0.2282 -3.3610  1.4416
  383MOL0     H50492   2.186   3.449  10.291  0.0994 -3.3928  1.1748
  383MOL0     H50493   1.979   3.474  10.383 -1.7670  1.4783 -1.8127
  383MOL0     H50494   1.994   3.649  10.390  2.4553 -0.7264 -0.9802
  383MOL0     H50495   1.867   3.674  10.585 -3.4675  0.3537 -0.9793
  383MOL0     H50496   1.912   3.515  10.635  0.6172  1.8572  0.7851
  383MOL0     H50497   1.790   3.414  10.495 -1.8603 -0.5994  3.6456
  383MOL0     H50498   1.728   3.561  10.404 -2.1939 -1.6866 -0.1000
  383MOL0     H50499   1.662   3.456  10.683 -1.3771 -0.4546  0.2086
  383MOL0     H50500   1.637   3.629  10.634 -1.7744  0.3984 -1.7133
  383MOL0     H50501   1.544   3.397  10.471 -1.9633 -0.9892  0.5938
  383MOL0     H50502   1.470   3.559  10.477 -1.0953 -1.9633 -1.1541
  383MOL0     H50503   1.444   3.479  10.741  0.8259  1.6054 -0.6835
  383MOL0     H50504   1.444   3.327  10.660  2.3543  1.3035  2.2015
  383MOL0     H50505   1.242   3.554  10.613 -0.0186  0.3097 -0.4108
  383MOL0     H50506   1.264   3.424  10.497 -0.3126  1.4545 -0.3288
  383MOL0     H50507   1.198   3.389  10.791  1.5565  0.7903 -1.0049
  383MOL0     H50508   1.228   3.258  10.676 -0.6188 -0.6407 -1.4374
  383MOL0     H50509   0.943   3.229  10.798 -0.7611 -0.1017 -0.1201
  383MOL0     H50510   0.606   3.325  10.641 -2.7503 -1.6326  0.0432
  383MOL0     H50511   0.675   3.217  10.762  2.6519  4.2372  1.8440
  383MOL0     H50512   0.774   3.079  10.546  0.6766  0.2873 -1.0646
  383MOL0     H50513   0.666   3.157  10.458  1.2052 -5.1156 -2.3646
  383MOL0     H50514   0.570   2.944  10.532 -0.1015  0.5614 -0.4116
  383MOL0     H50515   0.600   2.970  10.698  2.2443  1.9238 -0.9719
  383MOL0     H50516   0.427   3.170  10.680  3.4746  2.4185 -3.0015
  383MOL0     H50517   0.355   3.014  10.631 -1.4636  0.6213 -1.0657
  383MOL0     H50518   0.294   3.330  10.337 -2.6939  0.2058 -0.3844
  383MOL0     H50519   0.171   3.280  10.129  0.2854  0.3163 -1.5037
  383MOL0     H50520   0.106   3.318   9.754 -1.5445  1.4200 -2.5229
  383MOL0     H50521  -0.065   3.323   9.540 -2.9316 -0.7643 -1.9522
  383MOL0     H50522  -0.380   3.030   9.530 -0.1700  1.7461  0.3258
  383MOL0     H50523  -0.259   2.917   9.450  0.3990 -0.4753  0.8938
  383MOL0     H50524  -0.448   2.985   9.287 -0.3524  0.2730 -1.2248
  383MOL0     H50525  -0.283   3.044   9.237 -1.7062  2.1319 -1.0441
  383MOL0     H50526  -0.326   3.248   9.312  1.4107 -0.1917 -1.4494
  383MOL0     H50527  -0.476   3.202   9.397 -1.4105  0.5472 -1.0892
  383MOL0     H50528  -0.447   3.189   9.090 -0.2206  0.5664 -1.0746
  383MOL0     H50529  -0.574   3.117   9.174 -0.5290  0.9495 -3.1680
  383MOL0     H50530  -0.495   3.409   9.233 -1.1712  0.9979  1.2086
  383MOL0     H50531  -0.647   3.334   9.274  0.5744 -3.5207 -0.0908
  383MOL0     H50532  -0.714   3.284   9.033  0.2436 -0.2745  0.8476
  383MOL0     H50533  -0.567   3.366   8.975 -1.9059  2.2671 -1.7898
  383MOL0     H50534  -0.777   3.505   8.956 -1.0388  1.0890  0.0049
  383MOL0     H50535  -0.790   3.495   9.138  1.0578  0.3221  0.7994
  383MOL0     H50536  -0.576   3.616   8.974  1.4258  1.0985 -0.5426
  383MOL0     H50537  -0.586   3.604   9.145  1.0418 -1.9663 -0.7637
  383MOL0     H50538  -0.204   2.935   9.665 -0.1939 -1.2465 -2.4530
  383MOL0     H50539  -0.047   2.943   9.862 -3.6435  2.0619  3.0947
  383MOL0     H50540   0.336   2.878  10.145 -4.2718  0.3180 -2.9675
  383MOL0     H50541   0.419   2.914  10.381 -0.2990  0.3867 -1.0642
  383MOL0     H50542   2.319   3.646  10.644  0.9374 -2.1623  0.9760
  383MOL0     H50543   2.549   3.668  10.552  0.9646 -0.1995  0.2106
  383MOL0     H50544   2.815   3.655  10.217  0.8718  0.2088  0.1484
  383MOL0     H50545   3.059   3.681  10.138  0.1115 -0.6065 -2.3158
  383MOL0     H50546   3.271   3.662  10.075  0.8739  1.2508 -1.6800
  383MOL0     H50547   3.232   3.574   9.928 -0.4830 -0.8777 -0.4069
  383MOL0     H50548   3.492   3.641   9.983 -1.4885 -1.1188 -1.6411
  383MOL0     H50549   3.478   3.527  10.127  0.5511 -0.7109 -0.7875
  383MOL0     H50550   3.442   3.342   9.976 -0.7440 -1.4992 -2.5880
  383MOL0     H50551   3.605   3.421   9.945  0.5479  0.5497 -1.9270
  383MOL0     H50552   3.496   3.371   9.734  0.1266  1.9102 -0.9925
  383MOL0     H50553   3.340   3.439   9.785 -0.3774  0.6215 -2.0113
  383MOL0     H50554   3.514   3.748   9.579 -1.8773 -0.9274 -1.8272
  383MOL0     H50555   3.077   3.254  10.152 -0.1613 -0.0023 -1.3659
  383MOL0     H50556   2.869   3.242  10.253  0.4676 -0.2697 -1.0653
  384MOL0     O50557   3.570   6.529   1.082  0.0752 -0.1817 -0.2696
  384MOL0     C50558   3.599   6.563   1.192 -0.1728 -0.1869 -1.3190
  384MOL0     O50559   3.727   6.600   1.237  0.0773 -0.4836  0.4242
  384MOL0     C50560   3.832   6.594   1.151  0.0661 -0.5321 -0.5723
  384MOL0     C50561   3.848   6.665   1.034 -0.3278  0.7618 -0.6548
  384MOL0     C50562   3.950   6.652   0.943 -0.1475  0.3930  0.4884
  384MOL0     C50563   4.062   6.573   0.982  0.9594  0.6389  0.0591
  384MOL0     O50564   4.175   6.585   0.911  0.6732 -0.3826  0.3145
  384MOL0     C50565   4.297   6.610   0.975 -0.1307  0.6113  0.1524
  384MOL0     C50566   4.402   6.660   0.876  0.2213 -0.5768 -0.3298
  384MOL0     C50567   4.367   6.797   0.819 -0.3559 -0.3399 -0.4491
  384MOL0     C50568   4.482   6.840   0.732 -0.7235  0.1568  0.4043
  384MOL0     C50569   4.461   6.976   0.652 -0.3388 -0.0792 -1.5980
  384MOL0     C50570   4.578   7.031   0.563 -0.4002 -0.1764 -0.7159
  384MOL0     C50571   4.686   7.103   0.651 -0.1841 -0.0206  0.0021
  384MOL0     C50572   4.813   7.135   0.564 -0.7210  0.2380  0.1181
  384MOL0     N50573   4.784   7.230   0.456 -0.8326 -0.0695  0.0878
  384MOL0     C50574   4.756   7.205   0.330  0.1199 -0.3518  0.0594
  384MOL0     C50575   4.754   7.323   0.261 -0.3890 -0.4487 -0.3252
  384MOL0     C50576   4.720   7.343   0.109 -0.0489 -0.0288  0.1616
  384MOL0     C50577   4.588   7.291   0.069 -0.7914  0.9602 -0.4743
  384MOL0     C50578   4.570   7.285  -0.090  0.3918 -0.6649  0.5106
  384MOL0     C50579   4.562   7.419  -0.171 -0.3279  0.2586 -0.5674
  384MOL0     O50580   4.536   7.380  -0.310 -0.0216  0.5418 -0.5928
  384MOL0     C50581   4.414   7.372  -0.364 -0.2463  0.4094  0.0845
  384MOL0     C50582   4.310   7.451  -0.321 -0.7227 -0.0163  0.2830
  384MOL0     C50583   4.185   7.436  -0.384 -0.2755 -0.5348 -0.3521
  384MOL0     C50584   4.162   7.343  -0.488  0.4765 -0.7459  0.5193
  384MOL0     C50585   4.024   7.332  -0.544  0.0191  0.6847 -0.6183
  384MOL0     O50586   3.930   7.426  -0.506  0.6540  0.2832  0.3644
  384MOL0     C50587   3.800   7.384  -0.528  0.6415 -0.4936  0.1456
  384MOL0     C50588   3.713   7.350  -0.432  0.3617  0.5416 -0.1584
  384MOL0     C50589   3.578   7.324  -0.455 -0.0515  0.7007  0.2755
  384MOL0     C50590   3.523   7.323  -0.588 -0.3550 -0.3279 -0.0857
  384MOL0     O50591   3.385   7.309  -0.594 -0.0194  0.1293  0.5150
  384MOL0     C50592   3.335   7.300  -0.728  0.2685 -0.1782  0.2831
  384MOL0     C50593   3.188   7.253  -0.737  0.6520 -0.3813  0.2276
  384MOL0     C50594   3.103   7.288  -0.624  1.1554 -0.6635 -0.7971
  384MOL0     C50595   2.962   7.228  -0.647  0.0774 -0.1136  0.7016
  384MOL0     C50596   2.877   7.222  -0.514 -0.5576  1.0296  0.1720
  384MOL0     C50597   2.729   7.221  -0.537 -0.3323 -0.4023 -0.1176
  384MOL0     C50598   2.688   7.350  -0.597  0.2245 -0.5254 -0.7476
  384MOL0     C50599   2.541   7.350  -0.623  0.6696  0.4113 -0.3684
  384MOL0    Cl50600   2.492   7.235  -0.748  0.5938 -0.2294 -0.3807
  384MOL0     C50601   3.607   7.359  -0.696 -0.3794 -0.3655  0.3793
  384MOL0     C50602   3.737   7.386  -0.660 -1.5461  1.6453  0.0086
  384MOL0     O50603   4.004   7.227  -0.607  0.4469 -0.0707  0.1581
  384MOL0     C50604   4.267   7.271  -0.529 -0.8446 -0.5597 -0.3659
  384MOL0     C50605   4.398   7.288  -0.475  0.2139  0.9076 -0.2903
  384MOL0     N50606   4.798   7.421   0.348  0.0439  0.0478  0.6585
  384MOL0     N50607   4.809   7.363   0.464 -0.5371 -0.2214  0.3166
  384MOL0     C50608   4.056   6.508   1.104 -0.0948  0.8290  0.4609
  384MOL0     C50609   3.940   6.520   1.187  0.0217 -0.7589  0.3814
  384MOL0     C50610   3.502   6.531   1.309 -0.2454 -0.3511 -0.2265
  384MOL0     C50611   3.374   6.474   1.283  0.1488  0.4473 -0.0217
  384MOL0     C50612   3.298   6.417   1.387 -0.0260  0.5131 -0.9146
  384MOL0     C50613   3.334   6.427   1.521  0.2579 -0.3945  0.4471
  384MOL0     O50614   3.258   6.397   1.632  0.1214  0.4047  0.0442
  384MOL0     C50615   3.115   6.414   1.626 -0.3529 -0.2051 -0.6457
  384MOL0     C50616   3.060   6.359   1.755  0.2687  0.1749  1.0724
  384MOL0     C50617   2.905   6.361   1.752  0.0553  0.1625  0.2707
  384MOL0     C50618   2.835   6.495   1.770 -0.0211  0.1449  0.4522
  384MOL0     C50619   2.846   6.543   1.901 -0.8553  0.0173  0.7115
  384MOL0     C50620   2.852   6.580   2.014 -0.0767 -0.7179 -0.3382
  384MOL0     C50621   3.455   6.500   1.548  1.0792  0.3336 -0.6311
  384MOL0     C50622   3.542   6.538   1.446  0.6710 -0.8043  0.3992
  384MOL0     H50623   3.764   6.733   1.021 -0.2873  1.3898  1.8272
  384MOL0     H50624   3.953   6.711   0.852 -0.2308  2.4501  1.7497
  384MOL0     H50625   4.332   6.511   1.005 -1.9782  0.2616  1.3300
  384MOL0     H50626   4.282   6.667   1.067  3.1052 -0.1824  1.3158
  384MOL0     H50627   4.425   6.587   0.798  1.7596  0.3825 -0.8206
  384MOL0     H50628   4.493   6.672   0.935 -2.1108  0.6563  3.3955
  384MOL0     H50629   4.353   6.866   0.903 -1.3084 -1.0168 -0.0373
  384MOL0     H50630   4.279   6.795   0.755 -0.7410 -2.2482  0.0825
  384MOL0     H50631   4.576   6.846   0.789 -0.1358  2.2387 -0.6911
  384MOL0     H50632   4.506   6.758   0.664 -1.4288 -0.3466  0.7500
  384MOL0     H50633   4.431   7.056   0.720 -0.8397  0.0134 -1.9185
  384MOL0     H50634   4.371   6.965   0.590  0.8959 -0.2153 -3.4277
  384MOL0     H50635   4.541   7.100   0.487 -0.8906  2.0666  1.4202
  384MOL0     H50636   4.621   6.942   0.516  0.0863 -1.6557  2.2943
  384MOL0     H50637   4.652   7.195   0.700  2.0509  1.8775 -1.7909
  384MOL0     H50638   4.720   7.031   0.725  0.8108  1.0375  0.6026
  384MOL0     H50639   4.852   7.041   0.523  1.5110 -1.4298  5.1977
  384MOL0     H50640   4.896   7.172   0.626 -0.0427 -2.2161  0.8131
  384MOL0     H50641   4.741   7.105   0.290  1.2653  0.5734 -2.9682
  384MOL0     H50642   4.800   7.292   0.054 -1.1778 -2.2805  0.4762
  384MOL0     H50643   4.728   7.449   0.083 -0.1596  0.3833  1.7288
  384MOL0     H50644   4.510   7.340   0.128 -0.3116  1.5382 -0.3068
  384MOL0     H50645   4.594   7.184   0.089  0.7146  1.0388 -0.3786
  384MOL0     H50646   4.649   7.229  -0.141  0.9998  1.0631 -0.5708
  384MOL0     H50647   4.476   7.234  -0.113  0.5114  0.6501 -3.8937
  384MOL0     H50648   4.656   7.474  -0.162 -0.5574  0.4003  1.9423
  384MOL0     H50649   4.486   7.478  -0.118 -1.0103 -1.7067  0.7788
  384MOL0     H50650   4.332   7.531  -0.250  1.1612  2.6999 -3.0336
  384MOL0     H50651   4.105   7.499  -0.343  0.1345  0.0240 -0.3990
  384MOL0     H50652   3.727   7.333  -0.325  1.4399 -1.1913 -0.5402
  384MOL0     H50653   3.507   7.296  -0.377  0.9538 -0.3025  0.8595
  384MOL0     H50654   3.397   7.249  -0.803 -1.8385 -1.1007 -0.9074
  384MOL0     H50655   3.331   7.403  -0.765 -0.2236  0.4856  2.0859
  384MOL0     H50656   3.193   7.143  -0.730  0.2324 -0.3437  1.3349
  384MOL0     H50657   3.150   7.292  -0.832 -0.5524 -1.5726  0.1771
  384MOL0     H50658   3.090   7.396  -0.610 -2.0318 -1.0451 -0.1364
  384MOL0     H50659   3.149   7.249  -0.533 -0.8749  1.4146  1.2582
  384MOL0     H50660   2.922   7.302  -0.717  0.1277 -0.0801  0.7082
  384MOL0     H50661   2.955   7.133  -0.701  1.4416  0.4000 -0.4431
  384MOL0     H50662   2.907   7.310  -0.456  0.7056  2.4496 -2.4795
  384MOL0     H50663   2.918   7.134  -0.463  2.6645  1.3822 -1.5642
  384MOL0     H50664   2.676   7.213  -0.441 -0.6277  0.5612 -0.1898
  384MOL0     H50665   2.702   7.128  -0.588 -2.3625 -0.4597  0.9408
  384MOL0     H50666   2.715   7.427  -0.524 -3.0960  2.6181 -2.4927
  384MOL0     H50667   2.729   7.371  -0.696  0.3278 -1.8386 -0.9972
  384MOL0     H50668   2.511   7.451  -0.652  1.3495  0.4871 -0.8396
  384MOL0     H50669   2.489   7.322  -0.531  1.0638  1.2016  0.1047
  384MOL0     H50670   3.577   7.394  -0.794  1.6237  4.0588  1.1108
  384MOL0     H50671   3.801   7.429  -0.736  0.2275 -1.7036 -0.5511
  384MOL0     H50672   4.242   7.209  -0.615 -3.3928  0.9062 -0.7664
  384MOL0     H50673   4.478   7.229  -0.518 -1.1893 -0.8989 -0.5341
  384MOL0     H50674   4.140   6.450   1.141  1.6360  3.4357  0.9311
  384MOL0     H50675   3.942   6.486   1.290  1.1101  0.7335  0.8821
  384MOL0     H50676   3.356   6.466   1.176  1.7449  0.1179 -0.2788
  384MOL0     H50677   3.203   6.368   1.365 -1.3110  3.3538 -2.3859
  384MOL0     H50678   3.067   6.351   1.550 -0.6034 -2.6644  1.4241
  384MOL0     H50679   3.089   6.520   1.619 -0.2546 -0.0501  0.9597
  384MOL0     H50680   3.096   6.259   1.778  0.4675  0.1837  0.8019
  384MOL0     H50681   3.101   6.423   1.834  1.4024 -2.5942  2.8832
  384MOL0     H50682   2.882   6.283   1.826 -0.0204 -0.7829 -0.7181
  384MOL0     H50683   2.870   6.333   1.652  1.5623  0.2930 -0.3184
  384MOL0     H50684   2.866   6.572   1.699 -0.9865  0.4902  0.3869
  384MOL0     H50685   2.729   6.471   1.757 -0.0635  1.4377 -2.0551
  384MOL0     H50686   2.871   6.619   2.112  1.6645 -2.9349  0.2827
  384MOL0     H50687   3.484   6.514   1.652 -1.2357  2.4335 -0.1854
  384MOL0     H50688   3.636   6.580   1.480 -0.8374  3.6369 -0.3675
  385MOL0     O50689   8.514   8.234   9.943 -0.0182  0.4999  0.1297
  385MOL0     C50690   8.433   8.149   9.887  0.0225  0.3640 -0.5993
  385MOL0     O50691   8.466   8.047   9.805 -0.1261 -0.4392 -0.6487
  385MOL0     C50692   8.595   8.014   9.801 -0.4653 -0.3929  0.2647
  385MOL0     C50693   8.664   8.013   9.677 -0.0547 -0.2513  0.0530
  385MOL0     C50694   8.788   7.946   9.669  0.2045  0.3829  0.5001
  385MOL0     C50695   8.856   7.915   9.784 -0.8492  0.7689 -0.9557
  385MOL0     O50696   8.979   7.849   9.780 -0.5066 -0.2962 -1.4768
  385MOL0     C50697   9.093   7.941   9.795  0.5803 -0.4721  0.0594
  385MOL0     C50698   9.227   7.873   9.819 -0.6403 -0.3164  0.5140
  385MOL0     C50699   9.343   7.965   9.783  0.0186 -0.2886  0.3648
  385MOL0     C50700   9.348   8.013   9.637  0.1977 -0.0583  1.2693
  385MOL0     C50701   9.369   7.905   9.534  0.9615  0.0196  0.0525
  385MOL0     C50702   9.331   7.943   9.388  0.3065  0.3385 -0.0055
  385MOL0     C50703   9.185   7.970   9.369  0.0674 -0.3653 -1.5798
  385MOL0     C50704   9.151   7.993   9.224  0.1345  0.0830  0.7608
  385MOL0     N50705   9.011   8.025   9.207 -0.2502  0.3291 -0.4386
  385MOL0     C50706   8.954   8.116   9.117  0.1349 -0.5029  0.1599
  385MOL0     C50707   8.834   8.128   9.160  0.2437 -0.4650  0.7391
  385MOL0     C50708   8.737   8.230   9.100  0.1414  0.0394 -0.1290
  385MOL0     C50709   8.612   8.172   9.039  0.7624  0.1615 -0.2374
  385MOL0     C50710   8.512   8.288   9.009 -0.2245  0.7371 -0.0829
  385MOL0     C50711   8.382   8.224   8.951  0.5935  0.6346 -0.1567
  385MOL0     O50712   8.296   8.326   8.908  0.4395 -0.3888  0.3090
  385MOL0     C50713   8.162   8.318   8.911 -0.9791  0.8103 -0.0962
  385MOL0     C50714   8.085   8.406   8.824 -0.9955 -0.1743 -0.4386
  385MOL0     C50715   7.951   8.396   8.824  0.6953 -0.4952 -0.8306
  385MOL0     C50716   7.881   8.310   8.913  0.5003 -0.2224  0.0749
  385MOL0     C50717   7.731   8.299   8.901 -0.1281  1.2357 -0.5133
  385MOL0     O50718   7.677   8.181   8.959  0.1131 -0.1623 -0.4227
  385MOL0     C50719   7.548   8.143   8.958  0.7491 -0.2424  0.0649
  385MOL0     C50720   7.441   8.229   8.970 -0.2155 -0.0925 -0.5346
  385MOL0     C50721   7.314   8.182   8.965 -0.0642 -0.2948 -0.2826
  385MOL0     C50722   7.281   8.052   8.931  0.4151 -0.1284  0.1697
  385MOL0     O50723   7.156   7.999   8.907 -0.1465  0.7035 -0.4884
  385MOL0     C50724   7.059   8.105   8.865  0.5493  0.3425  0.1884
  385MOL0     C50725   6.923   8.046   8.830  0.3398 -0.2739 -0.3311
  385MOL0     C50726   6.859   7.955   8.936 -0.8882  0.0876  0.4892
  385MOL0     C50727   6.709   7.951   8.918  1.0494  0.3174 -1.2876
  385MOL0     C50728   6.657   7.849   9.015  0.6452 -0.1651 -0.7999
  385MOL0     C50729   6.504   7.823   9.005 -0.3390 -0.3173 -0.7670
  385MOL0     C50730   6.474   7.695   9.079  0.4596 -0.2218 -0.0000
  385MOL0     C50731   6.486   7.722   9.230  0.3270  0.0568  0.3647
  385MOL0    Cl50732   6.537   7.577   9.333  0.1281 -0.0350  0.2955
  385MOL0     C50733   7.386   7.973   8.913  0.3109  0.5220 -0.5333
  385MOL0     C50734   7.521   8.012   8.927 -0.6976 -0.5107 -0.1660
  385MOL0     O50735   7.666   8.387   8.848  0.2119  0.4597  0.6662
  385MOL0     C50736   7.950   8.221   8.993 -0.2441  0.3355 -0.7519
  385MOL0     C50737   8.086   8.243   9.007  0.0668 -0.5486 -1.0367
  385MOL0     N50738   8.805   8.049   9.265  0.1328 -0.8661 -0.0411
  385MOL0     N50739   8.915   7.993   9.297 -0.0412 -0.8423 -0.0886
  385MOL0     C50740   8.790   7.919   9.907  0.6119  0.0079  0.0705
  385MOL0     C50741   8.655   7.962   9.915  0.1799 -0.1538  0.6998
  385MOL0     C50742   8.299   8.142   9.927  0.1735  0.4923 -0.7728
  385MOL0     C50743   8.198   8.065   9.856 -0.7582 -0.1612  0.8499
  385MOL0     C50744   8.060   8.065   9.881 -0.7010  0.4003 -0.0202
  385MOL0     C50745   8.014   8.130   9.994  0.4131 -0.1053 -0.3386
  385MOL0     O50746   7.885   8.121  10.041  0.3384  0.1632 -0.2860
  385MOL0     C50747   7.785   8.179   9.955 -0.3945  0.1216 -0.8525
  385MOL0     C50748   7.652   8.110   9.968  0.5704 -0.5550  0.8351
  385MOL0     C50749   7.652   7.969   9.914 -0.9291  1.1805 -0.7865
  385MOL0     C50750   7.513   7.903   9.897  0.4736 -0.7126 -0.0563
  385MOL0     C50751   7.455   7.952   9.774 -0.7721 -0.3433 -0.5371
  385MOL0     C50752   7.419   8.011   9.672  0.2357  0.4548  0.3336
  385MOL0     C50753   8.110   8.206  10.073 -0.1458  0.6137  0.5738
  385MOL0     C50754   8.245   8.214  10.035 -0.2940 -0.8171 -0.6412
  385MOL0     H50755   8.616   8.042   9.584  0.1353  1.3183  0.4226
  385MOL0     H50756   8.829   7.926   9.570  0.4646 -2.1058  1.0372
  385MOL0     H50757   9.063   8.005   9.878  1.5209  1.6491 -1.1410
  385MOL0     H50758   9.101   8.016   9.715  2.6697  3.5618  3.6157
  385MOL0     H50759   9.221   7.775   9.772  1.0478 -1.9823  3.4646
  385MOL0     H50760   9.236   7.839   9.923 -1.3536  0.0788  0.7184
  385MOL0     H50761   9.422   7.891   9.800 -3.0300 -4.0848 -0.3022
  385MOL0     H50762   9.351   8.043   9.859  1.4688 -0.7069  0.6635
  385MOL0     H50763   9.266   8.075   9.598  2.1121 -0.4512 -4.3319
  385MOL0     H50764   9.432   8.083   9.626 -0.6291  0.6406 -1.1943
  385MOL0     H50765   9.314   7.813   9.555  2.2707 -1.5350 -2.7206
  385MOL0     H50766   9.476   7.878   9.533  1.3912  1.0746  3.6090
  385MOL0     H50767   9.360   7.857   9.327  0.3516 -1.8822  2.9093
  385MOL0     H50768   9.382   8.034   9.355 -2.2781  2.0076  0.3792
  385MOL0     H50769   9.129   7.882   9.404  0.4741  0.3340  1.0294
  385MOL0     H50770   9.153   8.063   9.416 -0.9044 -0.6587 -1.6475
  385MOL0     H50771   9.173   7.893   9.186  1.4430  0.1727  1.2261
  385MOL0     H50772   9.216   8.071   9.182 -0.0776  0.3384  0.9003
  385MOL0     H50773   8.987   8.172   9.031 -1.7269  1.7825  0.8191
  385MOL0     H50774   8.777   8.302   9.028 -1.5040  0.4538 -0.6626
  385MOL0     H50775   8.704   8.288   9.186 -1.6308 -1.4946  0.2968
  385MOL0     H50776   8.562   8.103   9.108 -0.2485  0.4231 -0.6900
  385MOL0     H50777   8.632   8.119   8.946 -1.1466  3.1468 -2.5069
  385MOL0     H50778   8.479   8.336   9.102 -0.9236  2.6001 -1.2369
  385MOL0     H50779   8.552   8.360   8.937  1.3526  0.6606  0.6661
  385MOL0     H50780   8.337   8.161   9.027  0.6950 -0.3447 -0.8918
  385MOL0     H50781   8.404   8.156   8.868 -2.5504 -0.3493 -0.3159
  385MOL0     H50782   8.133   8.480   8.760 -0.0053  3.1416  3.6597
  385MOL0     H50783   7.901   8.468   8.759  0.6875 -1.6534 -2.1608
  385MOL0     H50784   7.457   8.334   8.993 -0.5504 -0.6080  2.4918
  385MOL0     H50785   7.238   8.254   8.995 -0.3731 -1.3371  1.5306
  385MOL0     H50786   7.094   8.169   8.784  2.3665 -0.0334  0.6241
  385MOL0     H50787   7.044   8.166   8.955 -1.3180  0.1753  0.0309
  385MOL0     H50788   6.922   8.011   8.727 -0.9420 -0.1346 -0.3882
  385MOL0     H50789   6.853   8.131   8.832 -1.2531 -1.5400  0.4632
  385MOL0     H50790   6.869   8.002   9.035 -0.9231 -0.1338  0.5997
  385MOL0     H50791   6.901   7.854   8.930  1.3851  1.0670 -2.5850
  385MOL0     H50792   6.650   8.043   8.931 -2.1345 -1.7957  0.6269
  385MOL0     H50793   6.696   7.915   8.816  3.4383 -0.3401 -1.4188
  385MOL0     H50794   6.681   7.872   9.119 -0.9178  3.0035 -1.0428
  385MOL0     H50795   6.710   7.755   8.997 -0.0391 -0.8846  0.7481
  385MOL0     H50796   6.471   7.799   8.904 -1.5697 -2.2523  0.0329
  385MOL0     H50797   6.452   7.912   9.042  0.0274 -0.2779 -0.3341
  385MOL0     H50798   6.378   7.650   9.052  1.5064 -2.7689  0.3001
  385MOL0     H50799   6.553   7.625   9.052 -0.8701 -1.7753 -0.0614
  385MOL0     H50800   6.392   7.762   9.270  0.4331 -0.0143  0.6890
  385MOL0     H50801   6.572   7.783   9.260 -0.1195  0.3012  1.2172
  385MOL0     H50802   7.365   7.873   8.875  0.4660  0.7332 -1.1922
  385MOL0     H50803   7.608   7.947   8.919 -0.1048 -0.3327  3.4434
  385MOL0     H50804   7.899   8.141   9.046  3.0667  0.1099  2.5315
  385MOL0     H50805   8.147   8.205   9.088  0.3772  2.0821  0.0827
  385MOL0     H50806   8.851   7.877   9.987  0.8798  1.8111  0.8590
  385MOL0     H50807   8.595   7.958  10.005  1.7125  0.0879  1.7636
  385MOL0     H50808   8.223   8.011   9.765  3.9304 -0.6237  2.1515
  385MOL0     H50809   7.997   8.003   9.818  2.4344 -1.9535 -1.1451
  385MOL0     H50810   7.812   8.159   9.851 -0.9027 -0.1052 -0.9447
  385MOL0     H50811   7.780   8.285   9.981 -0.2492 -0.4442  1.6772
  385MOL0     H50812   7.610   8.114  10.069 -0.4338  0.1805  0.4080
  385MOL0     H50813   7.595   8.172   9.897  2.7110 -2.2561 -2.6098
  385MOL0     H50814   7.704   7.905   9.986 -1.3112  1.5521 -0.1686
  385MOL0     H50815   7.703   7.955   9.819 -1.0653  0.3152 -0.7457
  385MOL0     H50816   7.508   7.793   9.895 -0.0858 -0.6819 -0.6557
  385MOL0     H50817   7.442   7.926   9.977 -1.8075  0.4350 -2.2808
  385MOL0     H50818   7.389   8.052   9.578  2.4568 -1.6732 -1.4652
  385MOL0     H50819   8.077   8.252  10.166  0.8676 -0.6349  1.6008
  385MOL0     H50820   8.312   8.269  10.100  1.6108 -1.6983 -1.7846
  386MOL0     O50821   0.725   3.361   5.239  0.3084 -0.2165  1.2626
  386MOL0     C50822   0.698   3.360   5.119  0.4418  1.0164  0.2110
  386MOL0     O50823   0.610   3.432   5.058  0.2812 -0.0865 -0.0525
  386MOL0     C50824   0.505   3.491   5.127  0.1767 -0.0159  0.4513
  386MOL0     C50825   0.403   3.538   5.036 -0.1501 -0.6659 -0.1324
  386MOL0     C50826   0.287   3.591   5.084  0.6302 -0.8927  0.4174
  386MOL0     C50827   0.269   3.617   5.219  1.2745 -0.5144  0.5242
  386MOL0     O50828   0.139   3.656   5.257  0.0208  0.3005  0.0958
  386MOL0     C50829   0.067   3.549   5.310  0.1980  0.0882 -0.1597
  386MOL0     C50830  -0.081   3.553   5.269  0.1950 -1.1213 -0.4620
  386MOL0     C50831  -0.163   3.665   5.342  0.6129  0.6097  1.1507
  386MOL0     C50832  -0.313   3.623   5.304 -0.0534 -0.1517 -0.2183
  386MOL0     C50833  -0.435   3.707   5.363 -0.4013 -0.4664 -0.3355
  386MOL0     C50834  -0.562   3.674   5.285 -0.8285  0.5288 -0.4149
  386MOL0     C50835  -0.681   3.745   5.328  0.7444  0.7097 -0.9978
  386MOL0     C50836  -0.737   3.682   5.454 -0.3354  0.0866 -0.3764
  386MOL0     N50837  -0.864   3.736   5.525  0.0833 -0.1719  0.3789
  386MOL0     C50838  -0.957   3.826   5.465 -0.1219  0.3650  0.5936
  386MOL0     C50839  -1.063   3.825   5.552  0.1732  0.0714  0.0681
  386MOL0     C50840  -1.198   3.902   5.530 -0.4932 -0.0094 -0.2155
  386MOL0     C50841  -1.211   3.991   5.649  0.6342 -0.2923 -0.4601
  386MOL0     C50842  -1.333   4.084   5.666  0.6694 -0.1501 -0.3567
  386MOL0     C50843  -1.372   4.141   5.530  0.8591  0.8043 -0.7031
  386MOL0     O50844  -1.452   4.045   5.452  0.2070  0.0048 -0.0787
  386MOL0     C50845  -1.593   4.064   5.444 -0.6099 -0.4260 -1.0502
  386MOL0     C50846  -1.641   3.970   5.349 -0.4895 -0.6782 -0.6273
  386MOL0     C50847  -1.784   3.971   5.330  0.1669  0.5072  0.1788
  386MOL0     C50848  -1.861   4.074   5.377  0.8654  0.6326 -0.3359
  386MOL0     C50849  -2.005   4.074   5.337  0.0326 -0.2452  0.1171
  386MOL0     O50850  -2.046   3.995   5.236  0.0710  0.5204  0.4802
  386MOL0     C50851  -2.180   3.989   5.191 -0.4637  0.6059 -0.3300
  386MOL0     C50852  -2.288   3.945   5.276 -0.4641  0.2513 -0.7038
  386MOL0     C50853  -2.421   3.954   5.233  0.4165  0.4534  0.0933
  386MOL0     C50854  -2.447   3.993   5.102 -0.4600  0.6488 -0.5129
  386MOL0     O50855  -2.581   3.980   5.070  0.2477  0.6963  0.2423
  386MOL0     C50856  -2.621   4.037   4.938 -0.1065  0.5809  0.8957
  386MOL0     C50857  -2.759   3.979   4.917 -0.9730 -0.7390  0.0561
  386MOL0     C50858  -2.836   4.064   4.817 -0.7334  0.3053  0.2772
  386MOL0     C50859  -2.977   3.997   4.785 -0.4760 -0.1713  0.7663
  386MOL0     C50860  -3.062   3.946   4.906 -0.8508  0.9396  0.4661
  386MOL0     C50861  -3.204   3.905   4.850  0.0940  0.0272 -0.0670
  386MOL0     C50862  -3.284   3.823   4.955  0.5304 -0.4861 -0.2979
  386MOL0     C50863  -3.423   3.788   4.904  0.2380 -0.1905 -0.0502
  386MOL0    Cl50864  -3.420   3.693   4.756  0.0630  0.4920  0.0384
  386MOL0     C50865  -2.341   4.031   5.017  0.1644  0.0748  1.0610
  386MOL0     C50866  -2.206   4.025   5.056  0.3151 -0.1887 -0.8337
  386MOL0     O50867  -2.076   4.153   5.395  0.0986  0.3145 -0.9636
  386MOL0     C50868  -1.806   4.168   5.471 -0.3975 -0.3279  0.7315
  386MOL0     C50869  -1.671   4.159   5.509 -0.6771 -0.7903 -0.4934
  386MOL0     N50870  -1.026   3.753   5.664  0.1385  0.1028  1.2538
  386MOL0     N50871  -0.911   3.699   5.650 -0.1911 -0.8343  0.1798
  386MOL0     C50872   0.356   3.555   5.312  0.2128 -0.3130 -0.1516
  386MOL0     C50873   0.475   3.490   5.266  0.3532 -0.0410 -0.3192
  386MOL0     C50874   0.775   3.267   5.030 -0.9810  0.2556 -0.2580
  386MOL0     C50875   0.894   3.213   5.087 -0.8435  0.4083  0.5780
  386MOL0     C50876   0.969   3.109   5.027  0.3077 -0.1617 -0.2896
  386MOL0     C50877   0.928   3.059   4.901 -0.4236 -0.5935  0.1633
  386MOL0     O50878   0.987   2.952   4.842  0.0590  0.1215 -0.1046
  386MOL0     C50879   1.062   2.984   4.726 -0.1057  0.1685  0.3245
  386MOL0     C50880   1.155   2.868   4.680 -0.3134 -0.2626  0.3221
  386MOL0     C50881   1.204   2.892   4.533  0.3617  0.4484 -1.4362
  386MOL0     C50882   1.280   2.769   4.474 -0.1367  0.3245  0.3525
  386MOL0     C50883   1.419   2.759   4.523 -0.1568 -0.6937  0.2224
  386MOL0     C50884   1.525   2.741   4.573 -0.3987  0.6828  0.7959
  386MOL0     C50885   0.813   3.118   4.845  0.1695  0.3283 -0.5932
  386MOL0     C50886   0.735   3.217   4.904  0.5889 -0.5104 -0.6497
  386MOL0     H50887   0.412   3.498   4.935 -2.9884 -0.2006 -0.6449
  386MOL0     H50888   0.204   3.604   5.016  0.4309  0.9945  0.9872
  386MOL0     H50889   0.088   3.556   5.417 -1.0545 -0.2867  0.1382
  386MOL0     H50890   0.102   3.459   5.258 -0.6645 -0.7943  0.7353
  386MOL0     H50891  -0.126   3.457   5.297  1.0477 -1.2896  0.3663
  386MOL0     H50892  -0.096   3.577   5.163 -0.5209  2.7612  0.3531
  386MOL0     H50893  -0.146   3.762   5.295  0.1987  1.3748  2.5478
  386MOL0     H50894  -0.156   3.667   5.451  1.5542  2.2772  1.0854
  386MOL0     H50895  -0.317   3.624   5.194  0.0191 -2.5539 -0.3142
  386MOL0     H50896  -0.327   3.517   5.329 -2.9780 -0.6772 -3.3367
  386MOL0     H50897  -0.428   3.816   5.357 -1.1832 -0.4765 -4.8200
  386MOL0     H50898  -0.442   3.681   5.469  0.6502  0.3936 -0.0344
  386MOL0     H50899  -0.590   3.569   5.287 -2.4412  0.9249  1.5000
  386MOL0     H50900  -0.537   3.712   5.185  1.7640  1.6035  0.5407
  386MOL0     H50901  -0.659   3.851   5.343 -1.5764  0.9986  0.9807
  386MOL0     H50902  -0.756   3.749   5.248 -1.5149  1.1115  1.0108
  386MOL0     H50903  -0.661   3.691   5.532  0.4905 -0.6161 -1.0748
  386MOL0     H50904  -0.739   3.573   5.444  1.8657  0.0905 -1.5083
  386MOL0     H50905  -0.967   3.871   5.367 -0.2745  0.5236  0.6829
  386MOL0     H50906  -1.284   3.835   5.518 -2.3346  2.0478  0.8542
  386MOL0     H50907  -1.191   3.968   5.443 -0.2136  0.6905  0.3321
  386MOL0     H50908  -1.124   4.056   5.663 -0.8383  1.6088  0.2600
  386MOL0     H50909  -1.222   3.918   5.730 -2.0901  2.9261  2.3802
  386MOL0     H50910  -1.425   4.027   5.678  1.4091 -1.6911 -1.5946
  386MOL0     H50911  -1.323   4.159   5.744 -0.8971  0.5279 -0.7571
  386MOL0     H50912  -1.283   4.169   5.472  1.8389 -0.0067  0.3694
  386MOL0     H50913  -1.434   4.230   5.543 -2.9237 -0.7652 -5.0424
  386MOL0     H50914  -1.583   3.887   5.310  1.1772 -0.2704  0.8621
  386MOL0     H50915  -1.826   3.902   5.257  1.8292  2.5031 -2.8447
  386MOL0     H50916  -2.264   3.942   5.381 -3.2862 -3.3295  0.0220
  386MOL0     H50917  -2.503   3.920   5.297  2.2860 -3.1550  0.8717
  386MOL0     H50918  -2.552   4.014   4.856 -1.2424  1.2324 -0.2764
  386MOL0     H50919  -2.633   4.145   4.945  3.2796  1.2675 -1.3778
  386MOL0     H50920  -2.820   3.969   5.007 -1.0157  0.6799  0.2101
  386MOL0     H50921  -2.748   3.880   4.873 -0.4734 -0.8226  0.3617
  386MOL0     H50922  -2.785   4.094   4.725 -0.5003 -0.9383 -0.0191
  386MOL0     H50923  -2.867   4.155   4.869  0.8280  0.9110  0.2079
  386MOL0     H50924  -3.049   4.064   4.737 -0.3198  0.8401  1.8923
  386MOL0     H50925  -2.950   3.916   4.716  2.2049  1.5623 -0.4322
  386MOL0     H50926  -3.066   4.009   4.996  1.6667 -0.0488  1.3372
  386MOL0     H50927  -3.019   3.853   4.942 -0.1603 -0.4612 -3.4850
  386MOL0     H50928  -3.189   3.840   4.762  0.9781  2.2247 -1.6264
  386MOL0     H50929  -3.265   3.981   4.800  2.0640  0.8290 -1.3675
  386MOL0     H50930  -3.230   3.731   4.980  2.1676  0.7257  0.8315
  386MOL0     H50931  -3.286   3.877   5.050  0.7567 -1.6726  0.4115
  386MOL0     H50932  -3.479   3.881   4.892 -1.2387 -0.2238  4.4475
  386MOL0     H50933  -3.465   3.722   4.980  0.9403 -0.0144  0.5065
  386MOL0     H50934  -2.351   4.058   4.912  0.9943  0.9978  1.1966
  386MOL0     H50935  -2.123   4.038   4.987  1.2981  0.7885  0.5018
  386MOL0     H50936  -1.870   4.247   5.508 -2.3316 -1.5334  0.0938
  386MOL0     H50937  -1.639   4.242   5.570  1.0069 -0.1609 -2.1435
  386MOL0     H50938   0.340   3.540   5.418  1.8616  0.3433  0.2230
  386MOL0     H50939   0.525   3.430   5.341 -0.2877 -2.6121 -1.7979
  386MOL0     H50940   0.925   3.257   5.181 -1.6047  1.1106  0.5082
  386MOL0     H50941   1.061   3.060   5.059  0.8632  0.8965 -0.2229
  386MOL0     H50942   1.124   3.072   4.742 -1.7155  1.7055 -1.4023
  386MOL0     H50943   0.999   3.010   4.640  2.8516  1.1975 -1.7001
  386MOL0     H50944   1.241   2.872   4.748 -0.7842 -1.1765  1.0047
  386MOL0     H50945   1.104   2.771   4.682  0.8530 -0.8944  0.5620
  386MOL0     H50946   1.264   2.983   4.519 -1.7944  1.9360 -1.3897
  386MOL0     H50947   1.110   2.912   4.482 -0.9425 -1.1706  0.2294
  386MOL0     H50948   1.230   2.674   4.496 -2.1322  1.4887  1.0611
  386MOL0     H50949   1.286   2.776   4.365  1.1025 -1.8102  0.2207
  386MOL0     H50950   1.620   2.728   4.622 -0.6537 -0.9081  0.9393
  386MOL0     H50951   0.786   3.080   4.747  0.8829  0.5637 -0.8888
  386MOL0     H50952   0.642   3.249   4.859  0.9018  2.4114  0.5224
  387MOL0     O50953   0.047   6.124   9.644 -0.0688 -0.4846 -0.6618
  387MOL0     C50954   0.063   6.153   9.758 -0.0750  0.6154 -0.6114
  387MOL0     O50955  -0.036   6.190   9.842 -0.0373  0.8268  0.2893
  387MOL0     C50956  -0.158   6.139   9.807 -0.3009 -0.0311 -0.2924
  387MOL0     C50957  -0.246   6.222   9.746 -0.5464 -0.8011 -0.4465
  387MOL0     C50958  -0.371   6.166   9.706 -0.3862  0.0817  0.4441
  387MOL0     C50959  -0.395   6.033   9.728  0.3869  0.8224  1.0288
  387MOL0     O50960  -0.516   5.969   9.700 -0.3059  0.4559  0.3900
  387MOL0     C50961  -0.562   5.952   9.561 -0.2571  0.0209 -0.3259
  387MOL0     C50962  -0.717   5.985   9.550 -1.0745 -0.4512 -0.7685
  387MOL0     C50963  -0.751   6.113   9.617 -0.3708 -0.2889 -0.1273
  387MOL0     C50964  -0.904   6.108   9.619  0.0450 -0.5996 -0.3136
  387MOL0     C50965  -0.964   6.226   9.695 -0.0971 -0.3220  0.7242
  387MOL0     C50966  -1.044   6.320   9.607  0.0322 -0.1738  0.1384
  387MOL0     C50967  -1.126   6.425   9.682 -0.1603 -0.7607 -0.4232
  387MOL0     C50968  -1.230   6.504   9.599 -1.0944  0.4207  0.1078
  387MOL0     N50969  -1.341   6.540   9.684 -0.0163  0.3101 -0.0298
  387MOL0     C50970  -1.472   6.490   9.666  0.0626 -0.4784  0.2572
  387MOL0     C50971  -1.552   6.585   9.726  0.1017 -0.5356 -0.4019
  387MOL0     C50972  -1.694   6.568   9.762 -0.6163 -0.5713  0.3536
  387MOL0     C50973  -1.774   6.533   9.635  0.2061  0.3336  0.3973
  387MOL0     C50974  -1.923   6.560   9.665 -0.6435  0.2503 -0.3080
  387MOL0     C50975  -2.008   6.496   9.558  0.4993 -0.2970  0.3503
  387MOL0     O50976  -2.144   6.511   9.582 -0.5285  0.2205  0.1550
  387MOL0     C50977  -2.234   6.431   9.515 -0.0841  0.3463  0.6139
  387MOL0     C50978  -2.215   6.304   9.454  0.8448 -1.4996  0.4119
  387MOL0     C50979  -2.321   6.233   9.397 -0.6643  0.1352 -0.9552
  387MOL0     C50980  -2.453   6.270   9.416 -0.6612 -1.0428 -0.7108
  387MOL0     C50981  -2.569   6.185   9.369 -0.6633 -0.4205  0.1035
  387MOL0     O50982  -2.679   6.169   9.429  0.2079 -0.4067 -0.4079
  387MOL0     C50983  -2.787   6.086   9.379  0.1608 -0.2946  0.3928
  387MOL0     C50984  -2.855   6.024   9.477 -1.4190  0.2403  0.4328
  387MOL0     C50985  -2.966   5.946   9.442 -0.0937 -0.3719 -1.4493
  387MOL0     C50986  -3.028   5.942   9.318 -0.1547 -0.0284 -0.1158
  387MOL0     O50987  -3.156   5.902   9.294 -0.3468 -0.3719 -0.2190
  387MOL0     C50988  -3.250   5.856   9.392  0.3230  0.6753 -0.1216
  387MOL0     C50989  -3.248   5.703   9.391  1.0691  0.6543  0.5656
  387MOL0     C50990  -3.277   5.653   9.254 -0.0585  0.2508 -0.6078
  387MOL0     C50991  -3.297   5.500   9.268 -0.7106  0.1297  0.1506
  387MOL0     C50992  -3.329   5.435   9.127 -0.6677  0.7790 -0.0798
  387MOL0     C50993  -3.414   5.303   9.132 -0.6665 -1.0735  0.4519
  387MOL0     C50994  -3.550   5.310   9.208 -0.4679  0.1692  0.4602
  387MOL0     C50995  -3.630   5.432   9.201  0.3212 -0.1429 -0.0449
  387MOL0    Cl50996  -3.673   5.441   9.032  0.4383  0.1023  0.3336
  387MOL0     C50997  -2.952   5.994   9.215 -1.2243  0.4515 -0.1161
  387MOL0     C50998  -2.827   6.060   9.242 -0.3286 -0.2385  0.1141
  387MOL0     O50999  -2.542   6.127   9.261 -0.2709  0.8065 -0.1257
  387MOL0     C51000  -2.467   6.396   9.481 -0.6361 -1.2463  0.2038
  387MOL0     C51001  -2.360   6.475   9.532  1.0450 -0.0375 -0.6593
  387MOL0     N51002  -1.466   6.674   9.786  0.5818 -0.6875  0.7392
  387MOL0     N51003  -1.337   6.654   9.760 -0.6441 -0.2011 -0.7672
  387MOL0     C51004  -0.293   5.957   9.789  0.9453 -0.6921 -0.5557
  387MOL0     C51005  -0.174   6.009   9.829  0.8949  0.1680 -0.6666
  387MOL0     C51006   0.203   6.157   9.808 -0.2999 -0.4588  0.3957
  387MOL0     C51007   0.303   6.103   9.731  0.0723  0.1138  0.8053
  387MOL0     C51008   0.442   6.117   9.758  0.5627  0.1947  0.2862
  387MOL0     C51009   0.474   6.190   9.882  0.8490  0.0629 -0.4303
  387MOL0     O51010   0.604   6.209   9.933 -0.3242  0.4957  0.2389
  387MOL0     C51011   0.706   6.148   9.860 -0.0105  0.3802 -0.3725
  387MOL0     C51012   0.849   6.163   9.936  0.5018  0.3598 -0.2295
  387MOL0     C51013   0.961   6.137   9.839  0.2548 -1.6298 -0.1181
  387MOL0     C51014   1.097   6.164   9.910  0.2961 -0.1954  0.3974
  387MOL0     C51015   1.130   6.045   9.987  0.4012 -0.0414  0.0905
  387MOL0     C51016   1.174   5.947  10.052  0.3446 -0.1122 -0.2172
  387MOL0     C51017   0.367   6.235   9.958  0.6015  0.0477 -0.4897
  387MOL0     C51018   0.236   6.219   9.924 -0.5950  0.5968 -0.1335
  387MOL0     H51019  -0.215   6.326   9.741 -2.1270 -0.2502  0.5023
  387MOL0     H51020  -0.447   6.224   9.655  1.1498  2.4541  0.7101
  387MOL0     H51021  -0.532   5.853   9.526  1.6688  1.4153 -2.9544
  387MOL0     H51022  -0.508   6.017   9.493 -1.7308  1.6694 -0.0101
  387MOL0     H51023  -0.773   5.904   9.598 -1.1395 -1.0706 -1.8608
  387MOL0     H51024  -0.746   5.997   9.445 -1.2013 -0.5130 -0.7418
  387MOL0     H51025  -0.704   6.194   9.560  0.9222 -0.6742  0.3567
  387MOL0     H51026  -0.711   6.121   9.719  0.0340  2.3845 -0.4314
  387MOL0     H51027  -0.926   6.111   9.511 -0.8289 -1.0111 -0.1510
  387MOL0     H51028  -0.939   6.009   9.649 -2.2104 -0.3686 -1.8817
  387MOL0     H51029  -0.880   6.281   9.740 -0.8665 -1.9065  4.5294
  387MOL0     H51030  -1.013   6.190   9.786 -2.8499  0.0309 -0.5246
  387MOL0     H51031  -1.104   6.249   9.550  1.1863 -3.6431  2.8836
  387MOL0     H51032  -0.971   6.366   9.539  0.0902  1.9219  1.5260
  387MOL0     H51033  -1.180   6.367   9.757 -2.7263  2.9377  0.8373
  387MOL0     H51034  -1.064   6.501   9.732 -2.1158  1.8291 -1.6946
  387MOL0     H51035  -1.262   6.443   9.515  2.0468 -2.2955  0.6850
  387MOL0     H51036  -1.189   6.592   9.548 -1.3557 -1.1923 -3.1315
  387MOL0     H51037  -1.493   6.399   9.610  3.3300 -0.6827 -0.8539
  387MOL0     H51038  -1.727   6.653   9.824  3.9452 -0.6132  3.2781
  387MOL0     H51039  -1.709   6.485   9.832 -2.4339 -1.6940 -1.2723
  387MOL0     H51040  -1.769   6.424   9.626  1.2311  0.5182 -1.6508
  387MOL0     H51041  -1.745   6.578   9.540 -1.0259 -0.9716 -0.6478
  387MOL0     H51042  -1.943   6.520   9.765  0.8386  1.6647  0.6228
  387MOL0     H51043  -1.940   6.668   9.665  4.0564  1.2391  0.0216
  387MOL0     H51044  -1.983   6.390   9.556  2.1614  0.0667 -1.2143
  387MOL0     H51045  -1.988   6.540   9.459 -0.1315 -2.9484 -1.0570
  387MOL0     H51046  -2.108   6.284   9.446  1.1100 -0.4138  0.9566
  387MOL0     H51047  -2.300   6.139   9.347  0.0455 -1.3204  1.8740
  387MOL0     H51048  -2.837   6.049   9.581  0.8087 -0.7934  0.3367
  387MOL0     H51049  -3.033   5.898   9.513 -0.5045  1.0752 -0.8068
  387MOL0     H51050  -3.347   5.895   9.357  0.0120  1.2660  1.3257
  387MOL0     H51051  -3.240   5.884   9.498  1.4321 -0.1041 -0.0150
  387MOL0     H51052  -3.321   5.661   9.462  1.8277 -0.9464  0.4417
  387MOL0     H51053  -3.151   5.668   9.428  0.1504 -2.0412  0.6347
  387MOL0     H51054  -3.191   5.682   9.193 -0.1941  2.2321  0.0934
  387MOL0     H51055  -3.372   5.696   9.221  0.0797  1.5661  0.6240
  387MOL0     H51056  -3.216   5.447   9.318 -0.5504 -0.6946 -0.9415
  387MOL0     H51057  -3.379   5.502   9.341 -0.5532  0.6137  0.3148
  387MOL0     H51058  -3.233   5.408   9.082 -1.5278 -0.8215 -1.0175
  387MOL0     H51059  -3.380   5.507   9.062 -2.5458  0.2552  0.7450
  387MOL0     H51060  -3.341   5.235   9.178  2.1440  1.5807  0.2636
  387MOL0     H51061  -3.424   5.265   9.030 -0.6071 -3.5169  1.2827
  387MOL0     H51062  -3.603   5.219   9.178  3.5671 -1.5993 -2.1707
  387MOL0     H51063  -3.515   5.299   9.311  3.2549  0.9458 -0.5664
  387MOL0     H51064  -3.578   5.521   9.236  1.8046 -0.4788 -1.3101
  387MOL0     H51065  -3.719   5.405   9.260 -1.8144  1.1421 -2.5041
  387MOL0     H51066  -2.992   6.006   9.115  1.3026 -1.4449 -1.4856
  387MOL0     H51067  -2.771   6.111   9.164  1.0868 -1.0999  0.5187
  387MOL0     H51068  -2.569   6.433   9.479 -0.4018 -0.5444  0.7551
  387MOL0     H51069  -2.374   6.566   9.589  1.1824 -0.7962  0.6151
  387MOL0     H51070  -0.319   5.853   9.806 -0.1230 -0.0212  2.4864
  387MOL0     H51071  -0.096   5.944   9.868 -1.5449 -3.2113 -0.9528
  387MOL0     H51072   0.277   6.037   9.649 -1.4172 -0.6810  1.8605
  387MOL0     H51073   0.518   6.075   9.693  2.1382 -0.7184  2.5773
  387MOL0     H51074   0.717   6.194   9.761 -1.2286 -0.7116 -1.0447
  387MOL0     H51075   0.682   6.044   9.836  2.9259 -0.7261  0.9825
  387MOL0     H51076   0.850   6.267   9.969 -2.0733  0.0459  1.0356
  387MOL0     H51077   0.842   6.094  10.020  0.5261 -0.3654 -0.8138
  387MOL0     H51078   0.943   6.197   9.750 -4.0889 -0.8673  1.0521
  387MOL0     H51079   0.953   6.036   9.798 -2.8799 -0.2525 -3.4289
  387MOL0     H51080   1.177   6.197   9.843  1.4284  2.6502  2.8907
  387MOL0     H51081   1.067   6.249   9.973 -0.7394  1.7218 -2.4656
  387MOL0     H51082   1.198   5.854  10.097 -4.0057 -0.2560  2.3994
  387MOL0     H51083   0.377   6.285  10.054  1.5379 -3.2985  1.3244
  387MOL0     H51084   0.149   6.254   9.979 -1.9201 -0.6235 -1.3553
  388MOL0     O51085   8.807   8.250   3.211 -0.0942 -0.1839 -0.0976
  388MOL0     C51086   8.808   8.284   3.090 -1.7940  0.7078 -1.0525
  388MOL0     O51087   8.701   8.297   3.015 -0.2170 -0.0020 -0.8246
  388MOL0     C51088   8.582   8.333   3.074  0.0427 -0.3549  0.0757
  388MOL0     C51089   8.480   8.249   3.099 -0.4207 -0.4735 -1.2890
  388MOL0     C51090   8.357   8.282   3.149  0.2835 -0.2170  0.1707
  388MOL0     C51091   8.341   8.419   3.189  0.1040 -1.2202  0.1303
  388MOL0     O51092   8.225   8.467   3.251 -0.4377  0.5966  0.1563
  388MOL0     C51093   8.169   8.380   3.358 -0.3969 -0.5840  0.0743
  388MOL0     C51094   8.045   8.458   3.409 -0.0415 -0.4017  0.7363
  388MOL0     C51095   7.949   8.512   3.296 -0.7591 -0.5333  0.7018
  388MOL0     C51096   7.813   8.561   3.356  0.1557  0.1901 -0.4368
  388MOL0     C51097   7.704   8.454   3.358 -0.4620  0.0993 -0.1079
  388MOL0     C51098   7.563   8.502   3.397  0.0028 -0.1476 -0.4118
  388MOL0     C51099   7.563   8.568   3.534 -0.0804  0.0857 -0.2964
  388MOL0     C51100   7.435   8.548   3.618 -0.0310 -0.2621  0.3841
  388MOL0     N51101   7.325   8.640   3.579 -0.3748 -0.0593  0.1797
  388MOL0     C51102   7.219   8.606   3.490 -0.5576 -0.0427 -0.4721
  388MOL0     C51103   7.114   8.688   3.529 -1.0377  0.3454 -0.0968
  388MOL0     C51104   6.972   8.693   3.471  0.8138  0.2284  0.5306
  388MOL0     C51105   6.890   8.825   3.510 -0.5262 -0.2828 -0.3205
  388MOL0     C51106   6.738   8.804   3.497 -0.5588  0.0048  0.4726
  388MOL0     C51107   6.659   8.927   3.498  0.0356 -0.5496 -0.1173
  388MOL0     O51108   6.521   8.909   3.542  1.2391  0.8493  0.3583
  388MOL0     C51109   6.433   9.007   3.504  0.3543 -0.1004 -0.3583
  388MOL0     C51110   6.311   9.004   3.571 -0.0831 -0.8480 -0.2246
  388MOL0     C51111   6.210   9.100   3.547  0.7076  0.4201 -0.6539
  388MOL0     C51112   6.218   9.193   3.450  0.4052  0.3685 -0.0487
  388MOL0     C51113   6.113   9.300   3.425 -0.3182  0.5904  0.1797
  388MOL0     O51114   6.099   9.331   3.295  0.2688  0.4955  0.0249
  388MOL0     C51115   5.990   9.402   3.256  0.2860  0.3042 -0.5482
  388MOL0     C51116   5.939   9.515   3.314 -0.0682  1.0942  0.1205
  388MOL0     C51117   5.829   9.574   3.261  0.0615  0.5129 -0.1218
  388MOL0     C51118   5.763   9.513   3.153 -0.4335  0.7298 -0.2453
  388MOL0     O51119   5.644   9.551   3.099 -0.1792  0.2393 -0.2317
  388MOL0     C51120   5.541   9.574   3.193 -0.5293  0.3034  0.0461
  388MOL0     C51121   5.410   9.569   3.116 -0.1830 -0.1990 -0.0869
  388MOL0     C51122   5.400   9.685   3.017  0.5913 -0.2576  0.9930
  388MOL0     C51123   5.272   9.679   2.933 -0.0212 -0.8166 -0.1901
  388MOL0     C51124   5.267   9.793   2.831  0.8985  0.6465 -0.0883
  388MOL0     C51125   5.143   9.777   2.756 -0.4282 -0.6640  0.4430
  388MOL0     C51126   5.156   9.854   2.619 -1.2202 -0.1224 -0.8659
  388MOL0     C51127   5.222   9.757   2.515  0.2995 -0.2864  0.2989
  388MOL0    Cl51128   5.206   9.811   2.355  0.7756 -0.9265  0.4472
  388MOL0     C51129   5.818   9.399   3.093 -0.5180  0.6231  0.0885
  388MOL0     C51130   5.928   9.346   3.145  0.2063 -0.1372  0.7405
  388MOL0     O51131   6.049   9.346   3.519  0.5569 -0.2108 -0.0366
  388MOL0     C51132   6.345   9.198   3.380 -0.4963 -0.0274  0.2373
  388MOL0     C51133   6.454   9.114   3.415 -1.2970  0.6362  0.0194
  388MOL0     N51134   7.167   8.779   3.618  0.3454 -0.4989 -0.1034
  388MOL0     N51135   7.288   8.752   3.651  0.0418 -0.0675 -0.0104
  388MOL0     C51136   8.444   8.512   3.159 -0.6706 -0.1978  0.6284
  388MOL0     C51137   8.566   8.466   3.112 -0.0345  0.1324  0.2833
  388MOL0     C51138   8.943   8.309   3.030 -0.5405 -0.2167 -0.4802
  388MOL0     C51139   8.944   8.374   2.903  0.2660  0.4250  0.0253
  388MOL0     C51140   9.067   8.388   2.837  0.0274  1.0035 -0.4062
  388MOL0     C51141   9.190   8.332   2.891  0.0329  0.3541  0.1457
  388MOL0     O51142   9.315   8.351   2.826  0.3971  0.4752 -0.7554
  388MOL0     C51143   9.321   8.303   2.692  0.9643  0.3319  0.1829
  388MOL0     C51144   9.405   8.403   2.608 -0.1142 -0.1237  0.7807
  388MOL0     C51145   9.556   8.397   2.660 -0.0960 -0.9092  0.8440
  388MOL0     C51146   9.633   8.273   2.629 -1.0244 -0.0930  0.1429
  388MOL0     C51147   9.774   8.301   2.677 -0.3686 -0.0741  0.0561
  388MOL0     C51148   9.888   8.331   2.709  0.6512  0.8165 -0.3048
  388MOL0     C51149   9.186   8.281   3.013 -0.0224 -0.4423  0.8385
  388MOL0     C51150   9.070   8.280   3.094  0.1640 -0.0380 -0.4535
  388MOL0     H51151   8.496   8.155   3.048  0.9946  1.0709 -3.9530
  388MOL0     H51152   8.285   8.204   3.168 -1.3475  1.2239  0.1951
  388MOL0     H51153   8.240   8.354   3.437 -2.5814  4.1168  4.1093
  388MOL0     H51154   8.125   8.294   3.305 -0.4287 -1.7312  1.8749
  388MOL0     H51155   8.081   8.554   3.449  0.8205  2.8741 -6.2541
  388MOL0     H51156   7.996   8.386   3.475  0.2211 -2.4948 -1.2348
  388MOL0     H51157   7.936   8.440   3.215  2.0939 -0.8329  0.3893
  388MOL0     H51158   8.006   8.596   3.256  0.6546 -0.8414  1.9409
  388MOL0     H51159   7.819   8.597   3.459 -0.1758 -0.4012 -0.2063
  388MOL0     H51160   7.774   8.646   3.299  1.7049  2.0713  1.1668
  388MOL0     H51161   7.728   8.373   3.427  0.9447  0.2459 -0.4042
  388MOL0     H51162   7.695   8.399   3.264  1.1190 -1.1169  0.3975
  388MOL0     H51163   7.493   8.418   3.402 -1.3216  0.7621 -2.4597
  388MOL0     H51164   7.522   8.570   3.322 -1.2201 -0.6134 -0.1835
  388MOL0     H51165   7.642   8.517   3.589 -0.5519 -0.6833 -0.3207
  388MOL0     H51166   7.603   8.670   3.525  4.0154 -1.5038 -2.3746
  388MOL0     H51167   7.456   8.569   3.723 -2.2096 -1.1598  1.0750
  388MOL0     H51168   7.395   8.446   3.611 -1.6523  0.4007 -0.6429
  388MOL0     H51169   7.213   8.523   3.420  1.4127 -2.0364  1.5846
  388MOL0     H51170   6.918   8.603   3.502  2.6543 -0.8734  0.6932
  388MOL0     H51171   6.974   8.697   3.362 -1.1607  2.8956  0.4909
  388MOL0     H51172   6.920   8.908   3.444 -4.1678  0.6902 -0.9693
  388MOL0     H51173   6.916   8.841   3.615  2.2037  0.6480 -1.0451
  388MOL0     H51174   6.708   8.744   3.410 -2.1744 -0.6361  1.4172
  388MOL0     H51175   6.704   8.741   3.580  2.1021 -1.7805  0.3023
  388MOL0     H51176   6.670   8.977   3.402 -0.5856 -0.6749 -0.2589
  388MOL0     H51177   6.706   8.986   3.577  1.0657 -0.7576 -0.5659
  388MOL0     H51178   6.298   8.938   3.656  1.7072 -1.6577 -0.5283
  388MOL0     H51179   6.122   9.105   3.610  1.0941  5.6104 -0.1325
  388MOL0     H51180   5.988   9.560   3.400  0.9885  1.1437 -0.4845
  388MOL0     H51181   5.785   9.666   3.299  1.5246  2.1263 -2.1304
  388MOL0     H51182   5.561   9.669   3.243  1.1633 -1.5659  3.2335
  388MOL0     H51183   5.546   9.495   3.269  0.6621 -0.6631 -0.9810
  388MOL0     H51184   5.329   9.578   3.189 -1.2295 -1.2243 -1.0800
  388MOL0     H51185   5.399   9.468   3.075  2.6011 -0.4576 -0.3971
  388MOL0     H51186   5.487   9.668   2.953  0.9945 -1.4651  1.8357
  388MOL0     H51187   5.412   9.786   3.058  0.4230 -0.1447  0.7690
  388MOL0     H51188   5.257   9.576   2.898  0.7355 -1.1509  0.4157
  388MOL0     H51189   5.188   9.693   3.002 -1.1231 -1.7010 -1.2994
  388MOL0     H51190   5.356   9.784   2.769  2.0737  2.7575  1.1929
  388MOL0     H51191   5.271   9.899   2.857 -0.2405  0.6493  0.1607
  388MOL0     H51192   5.060   9.825   2.810 -0.8554  1.4297 -1.8674
  388MOL0     H51193   5.118   9.671   2.745  0.4344 -1.0916  2.2129
  388MOL0     H51194   5.052   9.871   2.588 -0.4028 -0.3977 -4.0026
  388MOL0     H51195   5.214   9.947   2.622 -2.8526  1.0314 -2.6784
  388MOL0     H51196   5.156   9.672   2.530 -2.2764  1.8536  2.1910
  388MOL0     H51197   5.321   9.718   2.539  0.2099  0.2855  1.6914
  388MOL0     H51198   5.780   9.351   3.004  2.4420  0.2763 -1.1120
  388MOL0     H51199   5.970   9.257   3.101  4.5157  2.3166 -0.6830
  388MOL0     H51200   6.357   9.274   3.304 -0.7315  0.6202  0.8333
  388MOL0     H51201   6.540   9.130   3.351 -2.3649 -0.4063 -1.7775
  388MOL0     H51202   8.436   8.617   3.188  1.2140  0.7573 -1.8760
  388MOL0     H51203   8.646   8.538   3.095 -1.0949  0.9066 -1.8092
  388MOL0     H51204   8.853   8.402   2.851 -0.9567  0.5075  2.0782
  388MOL0     H51205   9.066   8.417   2.733  0.6529 -0.4587 -0.8515
  388MOL0     H51206   9.220   8.316   2.652  0.0760  2.7895  2.8536
  388MOL0     H51207   9.354   8.199   2.683  0.7466  0.4138 -2.3570
  388MOL0     H51208   9.404   8.363   2.506 -2.2394  1.9984 -0.1247
  388MOL0     H51209   9.366   8.504   2.617 -0.6713 -0.4485  2.3216
  388MOL0     H51210   9.539   8.406   2.767 -1.2901  1.6170  0.5340
  388MOL0     H51211   9.614   8.481   2.619  1.2653 -1.6319  1.2413
  388MOL0     H51212   9.599   8.188   2.689 -0.0682  0.7790  2.0092
  388MOL0     H51213   9.643   8.241   2.525  0.2158 -2.3285  0.8787
  388MOL0     H51214   9.989   8.359   2.730  1.1137  0.0276 -1.3794
  388MOL0     H51215   9.284   8.243   3.044  0.0498  0.9407  2.4468
  388MOL0     H51216   9.078   8.236   3.193 -1.8596 -3.8989 -1.7956
  389MOL0     O51217   3.946   7.568   5.486  0.2403 -0.0591 -0.7631
  389MOL0     C51218   3.826   7.574   5.517 -0.4911  0.2901  0.7432
  389MOL0     O51219   3.779   7.598   5.641  0.3661  0.6495  0.4175
  389MOL0     C51220   3.867   7.631   5.737  0.5009  0.6216  0.2500
  389MOL0     C51221   3.899   7.525   5.825  0.3663  0.3171  0.9375
  389MOL0     C51222   4.001   7.549   5.910 -0.1291  0.3380 -0.7843
  389MOL0     C51223   4.066   7.667   5.918  0.2334  0.0857 -0.1356
  389MOL0     O51224   4.181   7.673   5.993  0.5427 -0.0288  0.1797
  389MOL0     C51225   4.256   7.798   6.004 -0.0710  0.7004  0.5224
  389MOL0     C51226   4.368   7.769   6.096  0.2139  0.4097  1.0489
  389MOL0     C51227   4.446   7.893   6.131 -0.5794 -0.7868 -0.1480
  389MOL0     C51228   4.541   7.874   6.249 -0.3586  0.1893  0.5390
  389MOL0     C51229   4.609   8.005   6.279 -0.0288 -0.4625 -0.2841
  389MOL0     C51230   4.739   7.991   6.360 -0.2546 -0.4815  0.0284
  389MOL0     C51231   4.701   7.938   6.495  0.1356  0.1465 -0.1123
  389MOL0     C51232   4.808   7.953   6.598  0.1464 -0.3102  0.1209
  389MOL0     N51233   4.922   7.860   6.584  0.2197 -0.2630  0.0841
  389MOL0     C51234   5.040   7.896   6.525 -0.3140 -0.4844 -0.1706
  389MOL0     C51235   5.104   7.775   6.516 -0.9791 -0.0805 -0.4105
  389MOL0     C51236   5.206   7.733   6.407  0.0029  0.4082  0.2592
  389MOL0     C51237   5.198   7.812   6.277  0.0901 -0.7241  0.3726
  389MOL0     C51238   5.069   7.802   6.191  0.0999  0.4251  0.2405
  389MOL0     C51239   5.070   7.664   6.118  0.0734 -0.3743  0.1277
  389MOL0     O51240   5.077   7.673   5.982 -0.6282  0.0216  0.5275
  389MOL0     C51241   4.963   7.720   5.912  0.3159 -0.7476 -0.0181
  389MOL0     C51242   4.979   7.749   5.775  0.1784 -0.4826  0.5392
  389MOL0     C51243   4.868   7.802   5.702  0.2316 -0.0864  0.2939
  389MOL0     C51244   4.745   7.823   5.763 -0.3586 -0.2542 -0.3181
  389MOL0     C51245   4.624   7.866   5.694 -0.3177  0.6727  0.7226
  389MOL0     O51246   4.498   7.854   5.752  0.0802 -0.9928 -0.2833
  389MOL0     C51247   4.392   7.874   5.663 -0.6647  0.3965 -0.5286
  389MOL0     C51248   4.353   8.002   5.629 -0.6089 -0.1377 -0.8325
  389MOL0     C51249   4.256   8.033   5.537 -0.3888  0.9460 -0.8283
  389MOL0     C51250   4.174   7.931   5.484  0.2797 -0.0168  0.0600
  389MOL0     O51251   4.073   7.979   5.407 -0.6183 -0.3384 -0.5461
  389MOL0     C51252   3.974   7.890   5.370  0.0464 -0.3555 -0.2899
  389MOL0     C51253   3.843   7.971   5.336  0.3589  0.6083 -0.0144
  389MOL0     C51254   3.784   8.064   5.448 -0.1710 -1.3254  0.3045
  389MOL0     C51255   3.637   8.112   5.414 -1.1821  0.9299  0.5711
  389MOL0     C51256   3.571   8.209   5.510  0.9014 -0.5765 -0.4685
  389MOL0     C51257   3.435   8.238   5.455  0.5006 -0.1737  0.2100
  389MOL0     C51258   3.364   8.347   5.545  0.3768 -0.3830 -0.0388
  389MOL0     C51259   3.234   8.389   5.478 -0.5098  0.5910  0.2382
  389MOL0    Cl51260   3.152   8.516   5.570  0.0164 -0.3211  0.4917
  389MOL0     C51261   4.206   7.797   5.513 -0.6118  0.3935 -0.4776
  389MOL0     C51262   4.318   7.772   5.598 -0.6969  0.3577 -0.5813
  389MOL0     O51263   4.644   7.912   5.580  0.9926 -0.1576  0.3174
  389MOL0     C51264   4.737   7.787   5.897 -0.5622 -1.0428 -0.2396
  389MOL0     C51265   4.837   7.740   5.970  0.1958 -0.2149 -0.4166
  389MOL0     N51266   5.026   7.679   6.573  0.5873  0.7734  0.0678
  389MOL0     N51267   4.917   7.735   6.612 -0.7308 -0.0150  0.5506
  389MOL0     C51268   4.021   7.774   5.834  0.0289  0.2951 -0.9389
  389MOL0     C51269   3.932   7.756   5.739 -0.4185  0.3532  0.2622
  389MOL0     C51270   3.724   7.551   5.408 -0.0774  1.2420  0.2212
  389MOL0     C51271   3.754   7.520   5.273 -0.6225  0.9251 -0.1830
  389MOL0     C51272   3.658   7.498   5.177  1.1034 -0.9299  0.4040
  389MOL0     C51273   3.522   7.493   5.211 -0.2382 -0.1160 -0.3972
  389MOL0     O51274   3.430   7.478   5.108 -0.0921  0.2934  0.6396
  389MOL0     C51275   3.290   7.466   5.126  0.3178  0.4144 -0.0518
  389MOL0     C51276   3.240   7.343   5.217 -0.5157 -0.1000 -0.0131
  389MOL0     C51277   3.082   7.355   5.234 -0.1790  0.1564  0.6327
  389MOL0     C51278   3.008   7.267   5.342 -0.5885 -0.7787  0.1840
  389MOL0     C51279   3.062   7.130   5.343  0.4900  0.1844 -1.3103
  389MOL0     C51280   3.098   7.010   5.351  0.0118 -0.1295 -0.2849
  389MOL0     C51281   3.485   7.516   5.348 -0.2124  0.9396 -0.4269
  389MOL0     C51282   3.585   7.548   5.442 -0.4737  0.1720  0.3453
  389MOL0     H51283   3.843   7.433   5.816  1.8222 -0.4583 -0.8100
  389MOL0     H51284   4.026   7.468   5.978  0.4207  1.9147  0.9859
  389MOL0     H51285   4.177   7.853   6.056  0.7174  2.0148  0.3707
  389MOL0     H51286   4.289   7.836   5.907  1.2521  1.2921  1.1720
  389MOL0     H51287   4.437   7.699   6.047  1.2574  2.0498  0.1090
  389MOL0     H51288   4.332   7.722   6.189  1.8606 -0.4569  1.3024
  389MOL0     H51289   4.381   7.978   6.156  3.1940  1.8130  1.7324
  389MOL0     H51290   4.510   7.908   6.044  0.7711  0.3545  0.9895
  389MOL0     H51291   4.485   7.837   6.336 -1.3352 -0.2748 -0.2718
  389MOL0     H51292   4.619   7.799   6.235 -0.8450 -0.3662  0.7448
  389MOL0     H51293   4.536   8.062   6.338 -1.2156 -0.7586 -1.4265
  389MOL0     H51294   4.616   8.065   6.188 -7.2867  0.6557 -0.6987
  389MOL0     H51295   4.785   8.090   6.373  0.0125 -0.1856 -2.5596
  389MOL0     H51296   4.805   7.930   6.298 -0.8879  0.2972 -1.4867
  389MOL0     H51297   4.616   7.997   6.530 -1.2222 -1.2438 -0.9749
  389MOL0     H51298   4.681   7.831   6.489  1.7418 -0.3026  1.4230
  389MOL0     H51299   4.759   7.949   6.696 -1.5839  1.7634 -0.5821
  389MOL0     H51300   4.837   8.057   6.581  1.1110 -0.8519 -1.7871
  389MOL0     H51301   5.073   7.987   6.476 -0.9204  0.5028  1.1990
  389MOL0     H51302   5.202   7.627   6.381 -1.3078  0.2717  0.9114
  389MOL0     H51303   5.299   7.764   6.455 -1.1423  3.8970  0.5577
  389MOL0     H51304   5.290   7.805   6.218  1.4258  0.4213  2.2196
  389MOL0     H51305   5.201   7.920   6.297  3.9885 -0.8242  1.1355
  389MOL0     H51306   4.987   7.800   6.263  0.1873 -2.0429  0.3493
  389MOL0     H51307   5.051   7.887   6.125 -1.3550 -0.7963 -0.9909
  389MOL0     H51308   4.979   7.605   6.130 -2.1632  2.7042 -0.4180
  389MOL0     H51309   5.159   7.609   6.152  2.8012  3.2673 -0.4631
  389MOL0     H51310   5.070   7.725   5.721 -0.3794 -2.8006  0.5214
  389MOL0     H51311   4.874   7.816   5.594 -0.8969  2.5952  0.5137
  389MOL0     H51312   4.401   8.091   5.668  0.7333 -0.0292 -2.5700
  389MOL0     H51313   4.251   8.141   5.526  1.4309  0.8640 -3.2531
  389MOL0     H51314   3.949   7.813   5.443  2.3992 -0.5106  0.4347
  389MOL0     H51315   4.013   7.830   5.287  1.0369 -0.6609  0.3900
  389MOL0     H51316   3.775   7.888   5.314  0.5677  0.2179  0.7709
  389MOL0     H51317   3.861   8.025   5.243 -1.0980 -1.7145 -1.7590
  389MOL0     H51318   3.857   8.146   5.450 -2.6744  1.0554  1.6864
  389MOL0     H51319   3.784   8.005   5.540 -0.0848 -0.7475  0.6865
  389MOL0     H51320   3.633   8.140   5.309 -1.6970 -0.1152  0.3016
  389MOL0     H51321   3.581   8.018   5.423 -1.9994  1.4163  0.6498
  389MOL0     H51322   3.625   8.304   5.522 -1.9644  0.9213  1.6753
  389MOL0     H51323   3.566   8.163   5.609  2.2824  0.0077 -0.0960
  389MOL0     H51324   3.371   8.150   5.451  0.1889  0.0854 -0.8973
  389MOL0     H51325   3.440   8.273   5.352 -1.8458  1.9514  0.7166
  389MOL0     H51326   3.350   8.315   5.649 -1.0141  0.5988  0.1020
  389MOL0     H51327   3.428   8.435   5.547 -0.7071  0.4189  0.9266
  389MOL0     H51328   3.166   8.305   5.467  0.3209  0.2451 -3.4076
  389MOL0     H51329   3.261   8.447   5.389 -2.0247  0.8205 -0.0959
  389MOL0     H51330   4.152   7.710   5.476 -0.3500  0.9709 -2.3315
  389MOL0     H51331   4.351   7.670   5.618  2.3492  1.0567 -1.5443
  389MOL0     H51332   4.643   7.792   5.951 -0.6539  2.9143 -0.4771
  389MOL0     H51333   4.819   7.721   6.075  1.1193 -1.0264 -0.3829
  389MOL0     H51334   4.064   7.873   5.847 -0.0727  0.1720  0.4938
  389MOL0     H51335   3.900   7.826   5.663  0.2230  0.3344 -0.0263
  389MOL0     H51336   3.858   7.508   5.243 -0.4372 -1.5383  1.1608
  389MOL0     H51337   3.696   7.477   5.077  3.4614 -1.9926  1.4667
  389MOL0     H51338   3.240   7.462   5.028  2.8333 -0.1827 -1.3982
  389MOL0     H51339   3.253   7.556   5.176  3.3172  0.0807  3.1718
  389MOL0     H51340   3.275   7.247   5.179 -0.2476 -0.8863  2.0766
  389MOL0     H51341   3.269   7.345   5.323 -3.2007 -0.4907  0.8178
  389MOL0     H51342   3.055   7.324   5.133  0.3422  2.4732 -0.2863
  389MOL0     H51343   3.053   7.460   5.244 -1.8344 -0.3065  0.8624
  389MOL0     H51344   3.016   7.305   5.444 -0.1721 -3.5303  1.2831
  389MOL0     H51345   2.904   7.254   5.310 -1.0644  0.7593  1.0361
  389MOL0     H51346   3.131   6.909   5.362 -1.2732 -0.7925 -2.0725
  389MOL0     H51347   3.385   7.519   5.388  0.7418  0.5662  2.2111
  389MOL0     H51348   3.560   7.578   5.544 -0.8238 -0.6154  0.4976
  390MOL0     O51349   9.716   8.607   5.961 -0.2125 -1.0287 -0.1746
  390MOL0     C51350   9.808   8.529   5.984  1.0409 -0.5612 -0.4841
  390MOL0     O51351   9.800   8.392   5.987 -0.4084 -0.2864  0.6522
  390MOL0     C51352   9.678   8.336   5.989 -0.1032  0.6263  0.9865
  390MOL0     C51353   9.591   8.341   5.874  0.1564 -0.7794 -0.2496
  390MOL0     C51354   9.463   8.297   5.886  0.3844 -1.0054 -0.6806
  390MOL0     C51355   9.407   8.245   6.003  0.6183  0.1636 -0.1045
  390MOL0     O51356   9.275   8.203   5.987  0.1888 -0.1058  0.2863
  390MOL0     C51357   9.191   8.158   6.098  0.8510  0.3435 -0.6564
  390MOL0     C51358   9.240   8.028   6.155  0.5896  0.8811  0.2531
  390MOL0     C51359   9.212   7.904   6.071 -0.2968 -0.3524 -0.7159
  390MOL0     C51360   9.342   7.835   6.042 -0.1061  1.4663 -0.0223
  390MOL0     C51361   9.325   7.714   5.938  0.2790  0.7894  0.7634
  390MOL0     C51362   9.460   7.650   5.896  0.5093 -0.4201  0.1543
  390MOL0     C51363   9.581   7.740   5.880 -0.4441  0.0997  0.2111
  390MOL0     C51364   9.553   7.838   5.761 -0.4079 -0.4700 -0.5911
  390MOL0     N51365   9.680   7.914   5.746 -0.0906 -0.6536  0.6695
  390MOL0     C51366   9.727   8.027   5.805  0.5390 -0.4479  0.4705
  390MOL0     C51367   9.845   8.045   5.738  0.5465  0.0723  0.2277
  390MOL0     C51368   9.939   8.169   5.758  1.0988 -0.2357 -0.5361
  390MOL0     C51369   9.985   8.224   5.626 -0.0334 -0.1802  0.3631
  390MOL0     C51370   9.891   8.330   5.561 -0.0185  1.2657  0.3191
  390MOL0     C51371   9.877   8.452   5.644  0.3641  0.5754  1.4659
  390MOL0     O51372   9.813   8.573   5.589  0.1670  0.4188  0.3567
  390MOL0     C51373   9.688   8.542   5.541  0.5462  0.0939  0.1126
  390MOL0     C51374   9.670   8.500   5.413  0.1805 -0.6593  0.0271
  390MOL0     C51375   9.542   8.481   5.359 -0.7317  0.5211 -0.1324
  390MOL0     C51376   9.433   8.496   5.446  0.0766  0.0549 -0.5664
  390MOL0     C51377   9.292   8.483   5.393 -0.5090  0.6871 -0.4552
  390MOL0     O51378   9.275   8.464   5.260 -0.0733  0.1911 -0.1682
  390MOL0     C51379   9.144   8.430   5.233 -0.3793  0.5599  0.8226
  390MOL0     C51380   9.062   8.534   5.184 -0.6214 -0.6273 -0.3362
  390MOL0     C51381   8.928   8.514   5.159 -0.3906  0.4540  0.3281
  390MOL0     C51382   8.876   8.381   5.166  1.4697 -0.6817 -0.1013
  390MOL0     O51383   8.740   8.357   5.148  0.1142 -0.2058  0.4762
  390MOL0     C51384   8.696   8.222   5.121 -0.2958  0.7271 -0.8978
  390MOL0     C51385   8.552   8.209   5.068 -0.3525 -0.8151 -0.3622
  390MOL0     C51386   8.517   8.065   5.026  0.5314  0.6673  0.2697
  390MOL0     C51387   8.426   7.988   5.136 -0.8341  1.1746  0.0352
  390MOL0     C51388   8.411   7.840   5.096 -0.1839 -1.2033 -0.1825
  390MOL0     C51389   8.334   7.752   5.194  0.0789  0.9893 -0.1069
  390MOL0     C51390   8.404   7.748   5.330 -0.0447  0.3661 -0.8963
  390MOL0     C51391   8.315   7.726   5.448  0.0364 -0.9779 -0.2721
  390MOL0    Cl51392   8.419   7.729   5.596 -0.1619  0.0214  0.0766
  390MOL0     C51393   8.961   8.275   5.188 -1.2795 -0.0593 -0.6467
  390MOL0     C51394   9.091   8.300   5.238  0.1871 -0.1110 -0.0878
  390MOL0     O51395   9.202   8.478   5.478  0.1493  1.5138 -0.6396
  390MOL0     C51396   9.456   8.544   5.576  0.4127  0.0986 -1.0086
  390MOL0     C51397   9.584   8.568   5.625 -0.3685 -0.7107 -0.5740
  390MOL0     N51398   9.865   7.944   5.647  0.5159  0.3803  0.1347
  390MOL0     N51399   9.766   7.868   5.655  0.3530 -0.6694 -0.7026
  390MOL0     C51400   9.486   8.243   6.116 -0.1252 -0.1988  0.2150
  390MOL0     C51401   9.617   8.282   6.103  0.0345 -0.2217 -0.9291
  390MOL0     C51402   9.942   8.582   5.968  0.3274 -0.1011 -0.4388
  390MOL0     C51403  10.057   8.515   6.008  0.9300 -0.5718 -0.1486
  390MOL0     C51404  10.178   8.574   5.986 -0.1003 -0.3163 -0.1681
  390MOL0     C51405  10.197   8.699   5.924  0.0162  0.2469  0.4787
  390MOL0     O51406  10.320   8.750   5.873  1.3752  0.1211 -0.1479
  390MOL0     C51407  10.443   8.687   5.913 -0.7574  0.8495 -0.2437
  390MOL0     C51408  10.548   8.721   5.816  0.3174 -0.7334 -0.0431
  390MOL0     C51409  10.509   8.712   5.673  0.0524 -0.3439  0.7520
  390MOL0     C51410  10.435   8.589   5.636  1.3145  1.1382 -0.8596
  390MOL0     C51411  10.436   8.547   5.494 -0.0127 -0.0691 -0.1914
  390MOL0     C51412  10.443   8.526   5.376 -0.0116 -0.0257  0.2956
  390MOL0     C51413  10.080   8.768   5.890 -0.4296 -0.5911  0.4436
  390MOL0     C51414   9.961   8.707   5.901  0.2521 -0.4139  0.3919
  390MOL0     H51415   9.628   8.379   5.779 -1.0498  0.2455 -0.3322
  390MOL0     H51416   9.399   8.299   5.798  0.9155  1.7848 -1.0991
  390MOL0     H51417   9.092   8.136   6.057  1.5237 -3.7032 -0.5267
  390MOL0     H51418   9.183   8.230   6.181 -0.3282 -2.4146  1.8146
  390MOL0     H51419   9.183   8.024   6.249 -2.6601 -0.9554 -1.6317
  390MOL0     H51420   9.347   8.043   6.176 -0.0769  3.0153  2.6367
  390MOL0     H51421   9.184   7.933   5.969  4.0923  1.5094 -1.6152
  390MOL0     H51422   9.134   7.841   6.115  0.1772 -1.1122 -0.9636
  390MOL0     H51423   9.408   7.914   6.004  2.2028  1.3388  3.3763
  390MOL0     H51424   9.395   7.806   6.133 -1.7616  0.3519  0.6380
  390MOL0     H51425   9.287   7.762   5.847  3.2840  0.1700 -0.9671
  390MOL0     H51426   9.259   7.635   5.973  0.2091 -0.6075 -2.2017
  390MOL0     H51427   9.445   7.585   5.808 -2.3161  0.2163  0.0771
  390MOL0     H51428   9.490   7.581   5.976 -2.2197 -1.1264  0.6574
  390MOL0     H51429   9.593   7.792   5.975 -0.3157 -0.5066  0.5332
  390MOL0     H51430   9.669   7.677   5.863 -0.2800  0.5397 -0.6454
  390MOL0     H51431   9.471   7.902   5.793 -1.2090 -1.7975  0.1153
  390MOL0     H51432   9.523   7.797   5.664 -1.9398  2.0203 -1.2514
  390MOL0     H51433   9.670   8.090   5.873 -2.4078 -0.8304 -1.4293
  390MOL0     H51434  10.029   8.136   5.810  0.0592 -1.5192  0.5263
  390MOL0     H51435   9.891   8.244   5.822 -3.1811 -2.5899 -0.5651
  390MOL0     H51436   9.979   8.138   5.559  3.4553 -1.4930  1.4890
  390MOL0     H51437  10.085   8.266   5.640 -0.3214  1.3162 -1.6200
  390MOL0     H51438   9.925   8.362   5.462 -1.2773 -0.9386 -0.9134
  390MOL0     H51439   9.797   8.279   5.537 -0.3803  1.3144  1.5698
  390MOL0     H51440   9.978   8.482   5.672  0.7370 -1.0901  1.9651
  390MOL0     H51441   9.814   8.433   5.731 -0.1640  2.4534  1.5368
  390MOL0     H51442   9.756   8.479   5.351  0.8659 -0.0925  0.7656
  390MOL0     H51443   9.526   8.444   5.258  0.7165  3.0863 -1.4167
  390MOL0     H51444   9.089   8.639   5.178  1.6835 -1.0551  1.0587
  390MOL0     H51445   8.860   8.591   5.125  0.7492  1.4177  0.2038
  390MOL0     H51446   8.702   8.153   5.206 -0.8964  2.8288  0.9280
  390MOL0     H51447   8.769   8.182   5.049  3.5168  2.5048  1.6859
  390MOL0     H51448   8.556   8.265   4.974 -1.1002  1.6940  0.9937
  390MOL0     H51449   8.478   8.257   5.133  0.8783  1.3438 -0.4553
  390MOL0     H51450   8.610   8.009   5.015  0.8608  0.7929  2.1099
  390MOL0     H51451   8.462   8.072   4.932  0.2155  1.9753  0.5396
  390MOL0     H51452   8.491   8.007   5.222 -0.5854 -0.5789  0.2749
  390MOL0     H51453   8.323   8.017   5.159 -1.9510 -1.7308 -0.8810
  390MOL0     H51454   8.511   7.806   5.069  0.8364  1.7036 -0.4429
  390MOL0     H51455   8.356   7.840   5.002  0.9265 -0.5094 -0.8628
  390MOL0     H51456   8.329   7.646   5.169 -1.1465 -0.1507  4.1539
  390MOL0     H51457   8.235   7.787   5.225  0.9594 -0.8167  5.9733
  390MOL0     H51458   8.484   7.674   5.319 -1.0292 -0.6483 -1.3906
  390MOL0     H51459   8.452   7.840   5.365 -0.3852  0.5050 -0.7928
  390MOL0     H51460   8.262   7.630   5.440 -0.7077 -0.7835  1.6952
  390MOL0     H51461   8.236   7.801   5.459 -1.1016 -1.9119 -1.6251
  390MOL0     H51462   8.926   8.172   5.182  1.1335 -0.8558 -3.4165
  390MOL0     H51463   9.151   8.216   5.274  1.4931 -0.0618 -2.0048
  390MOL0     H51464   9.367   8.575   5.629  1.0905  0.9378 -0.3465
  390MOL0     H51465   9.597   8.596   5.729  2.3485  0.3550 -1.1135
  390MOL0     H51466   9.442   8.217   6.212 -1.5672 -1.4407 -0.7440
  390MOL0     H51467   9.673   8.286   6.196 -0.5681  4.4507 -0.5203
  390MOL0     H51468  10.040   8.418   6.055 -0.8273 -1.5886 -2.5859
  390MOL0     H51469  10.255   8.499   6.004 -2.9900 -3.4836  0.0545
  390MOL0     H51470  10.435   8.578   5.912 -0.6459  0.6898  3.1449
  390MOL0     H51471  10.469   8.703   6.018  1.0294  1.6816 -0.7731
  390MOL0     H51472  10.585   8.819   5.850  1.3284 -1.5084  1.2053
  390MOL0     H51473  10.629   8.649   5.831 -1.3787 -2.2947  2.4312
  390MOL0     H51474  10.592   8.713   5.602  0.2898 -3.7102  0.8292
  390MOL0     H51475  10.451   8.799   5.639  1.5282  0.4565  0.2193
  390MOL0     H51476  10.472   8.501   5.690  1.6434  0.5975 -1.9494
  390MOL0     H51477  10.326   8.595   5.642  0.9078 -3.2864 -0.4910
  390MOL0     H51478  10.449   8.508   5.271  1.6614 -1.1413  0.5270
  390MOL0     H51479  10.088   8.865   5.842  0.2105 -0.1772  1.3648
  390MOL0     H51480   9.873   8.762   5.869 -0.1358  0.2470  2.4794
  391MOL0     O51481   3.177   4.676   1.362 -0.5647  0.6975 -0.1262
  391MOL0     C51482   3.233   4.724   1.267  0.1014  0.0261 -0.0547
  391MOL0     O51483   3.219   4.852   1.226 -0.1891 -0.0041  0.0211
  391MOL0     C51484   3.144   4.929   1.311  1.2988  0.1032 -0.7017
  391MOL0     C51485   3.184   4.977   1.433 -0.4969 -0.2376 -0.0543
  391MOL0     C51486   3.091   5.044   1.516 -0.4475 -0.2684  0.0548
  391MOL0     C51487   2.957   5.048   1.490  0.3043 -0.8530  0.0514
  391MOL0     O51488   2.871   5.120   1.574 -0.6738  0.3284 -0.9309
  391MOL0     C51489   2.748   5.048   1.599 -0.5202 -0.5646  0.1797
  391MOL0     C51490   2.663   5.116   1.703 -0.5491  0.1215 -0.3496
  391MOL0     C51491   2.513   5.080   1.686  0.1923 -0.6721  0.2032
  391MOL0     C51492   2.436   5.090   1.816  0.0365 -0.1144  0.3378
  391MOL0     C51493   2.287   5.102   1.790  0.5562  0.5749 -0.6320
  391MOL0     C51494   2.215   5.036   1.912  0.2278  0.2145  0.1778
  391MOL0     C51495   2.063   5.041   1.875  0.5984 -0.1147  0.1049
  391MOL0     C51496   1.983   5.000   1.998  0.3398  0.1626 -0.4363
  391MOL0     N51497   1.848   4.946   1.966 -0.1568  0.1980 -0.5963
  391MOL0     C51498   1.740   5.011   1.911 -0.2433 -0.4938 -0.4978
  391MOL0     C51499   1.648   4.912   1.909 -0.5989  0.2552 -0.0725
  391MOL0     C51500   1.499   4.952   1.901 -0.3574 -0.4496 -0.7992
  391MOL0     C51501   1.461   4.985   1.756 -0.2052  0.1694  1.2156
  391MOL0     C51502   1.482   4.851   1.673  0.4348  0.3160  0.3945
  391MOL0     C51503   1.404   4.861   1.540  0.0526 -0.0465 -0.8257
  391MOL0     O51504   1.268   4.839   1.587  0.1328  0.0768  0.8907
  391MOL0     C51505   1.174   4.820   1.494 -1.0373 -0.3202  0.6816
  391MOL0     C51506   1.205   4.804   1.356  0.5219 -1.2452  0.3271
  391MOL0     C51507   1.095   4.784   1.265  0.2948 -0.1734 -0.1462
  391MOL0     C51508   0.965   4.770   1.315 -0.0586  0.0551 -1.2786
  391MOL0     C51509   0.856   4.734   1.224  0.6432  0.0541  0.1664
  391MOL0     O51510   0.740   4.764   1.273  0.2660 -0.3697  0.8756
  391MOL0     C51511   0.618   4.753   1.209  0.3982  0.5102  0.2852
  391MOL0     C51512   0.596   4.640   1.126  0.6435  0.2455  0.0158
  391MOL0     C51513   0.461   4.621   1.076 -0.3590 -0.1541  0.6778
  391MOL0     C51514   0.357   4.709   1.118  0.3722  0.3168  0.3801
  391MOL0     O51515   0.230   4.680   1.069 -0.2025 -0.1737 -0.8456
  391MOL0     C51516   0.140   4.799   1.059  0.4055  0.2519  0.3053
  391MOL0     C51517  -0.001   4.756   0.995 -0.8978 -0.1847  0.4896
  391MOL0     C51518  -0.112   4.852   1.050  0.5371  0.3268  0.3452
  391MOL0     C51519  -0.246   4.797   0.995 -0.7373  0.0253  0.6074
  391MOL0     C51520  -0.354   4.896   1.015 -0.3134 -0.9823 -0.4386
  391MOL0     C51521  -0.484   4.820   1.017 -0.2104 -0.5544 -0.1339
  391MOL0     C51522  -0.603   4.922   1.017 -1.2103  0.2427 -0.1374
  391MOL0     C51523  -0.728   4.848   1.060  0.0551 -0.7830  0.1906
  391MOL0    Cl51524  -0.749   4.832   1.243  0.6631  0.0099 -0.3144
  391MOL0     C51525   0.386   4.826   1.201 -0.4182 -0.3013  0.6334
  391MOL0     C51526   0.517   4.847   1.239  0.2608 -0.2345 -0.3077
  391MOL0     O51527   0.878   4.687   1.114  0.3763 -0.4246  0.3320
  391MOL0     C51528   0.939   4.781   1.450  0.3510 -0.1923 -0.4476
  391MOL0     C51529   1.046   4.822   1.531  0.8997  0.3056 -0.2467
  391MOL0     N51530   1.708   4.788   1.948  1.0769 -1.0606  0.4322
  391MOL0     N51531   1.826   4.812   1.984 -0.4448 -0.3164 -0.5632
  391MOL0     C51532   2.914   4.999   1.359 -0.7505 -0.6923 -0.6974
  391MOL0     C51533   3.010   4.949   1.270 -0.5900  0.4787 -0.5396
  391MOL0     C51534   3.332   4.645   1.198 -0.2285  0.5282  0.2175
  391MOL0     C51535   3.390   4.698   1.083 -0.4351 -0.0901  0.8030
  391MOL0     C51536   3.521   4.640   1.034 -0.1261  0.3953  0.1811
  391MOL0     C51537   3.574   4.532   1.105  0.4997  0.0102 -0.7644
  391MOL0     O51538   3.687   4.456   1.067 -0.2408  0.2438  0.1712
  391MOL0     C51539   3.732   4.464   0.925  0.2724  0.2730 -0.3456
  391MOL0     C51540   3.625   4.381   0.840  0.5517  0.0507 -0.2318
  391MOL0     C51541   3.642   4.395   0.692  0.3275  0.5760 -0.2481
  391MOL0     C51542   3.604   4.534   0.638  0.3133 -0.1319  0.1072
  391MOL0     C51543   3.461   4.568   0.663 -0.4475  0.2604  0.2175
  391MOL0     C51544   3.343   4.585   0.672  1.1695 -0.9516  0.1955
  391MOL0     C51545   3.508   4.482   1.218  0.3188  0.3706 -0.2044
  391MOL0     C51546   3.392   4.533   1.259  0.4061  0.6910 -0.6351
  391MOL0     H51547   3.285   4.969   1.471 -1.7691  0.0030  3.8748
  391MOL0     H51548   3.117   5.085   1.614 -1.5906  0.2460  0.1562
  391MOL0     H51549   2.763   4.947   1.639 -0.8171  0.4491  2.9976
  391MOL0     H51550   2.687   5.051   1.508  0.4034  0.2058 -0.4259
  391MOL0     H51551   2.673   5.225   1.708  1.1949 -0.0535  2.6227
  391MOL0     H51552   2.698   5.090   1.803 -3.0751  2.9195  1.4225
  391MOL0     H51553   2.517   4.980   1.643  2.7941 -0.3437 -0.5263
  391MOL0     H51554   2.466   5.147   1.613 -0.8454 -1.2137  0.3677
  391MOL0     H51555   2.470   5.013   1.886  3.6746  0.8500 -0.1965
  391MOL0     H51556   2.473   5.174   1.874  0.5509  0.2474 -0.5012
  391MOL0     H51557   2.264   5.044   1.700 -0.2030 -1.4432  0.7942
  391MOL0     H51558   2.257   5.207   1.793 -0.3328  0.3151  0.5618
  391MOL0     H51559   2.227   5.093   2.004 -2.3783  2.1449 -0.5673
  391MOL0     H51560   2.246   4.931   1.911 -3.4537 -1.0322 -1.2179
  391MOL0     H51561   2.028   5.139   1.843 -0.6430 -0.9469 -1.2771
  391MOL0     H51562   2.041   4.975   1.790 -1.8044  0.0440  0.5154
  391MOL0     H51563   1.966   5.083   2.067  0.9081  3.0720 -3.5135
  391MOL0     H51564   2.050   4.924   2.039  0.7875 -0.2399 -1.8509
  391MOL0     H51565   1.730   5.119   1.917  2.3124 -0.2810  2.5068
  391MOL0     H51566   1.484   5.037   1.967  0.8948 -0.1861 -0.8131
  391MOL0     H51567   1.432   4.872   1.934 -0.0414 -0.1336  0.6642
  391MOL0     H51568   1.533   5.055   1.714 -0.4841  0.4254  1.1600
  391MOL0     H51569   1.357   5.019   1.748  0.7801  2.9564 -1.5349
  391MOL0     H51570   1.590   4.842   1.658  0.3193  1.4419 -1.4345
  391MOL0     H51571   1.460   4.759   1.729  0.7384  0.1772  0.2867
  391MOL0     H51572   1.441   4.779   1.478  0.5795 -0.0103 -0.5634
  391MOL0     H51573   1.423   4.956   1.489  0.8736 -0.4850 -1.3704
  391MOL0     H51574   1.303   4.806   1.309  0.8954  1.2369  1.0206
  391MOL0     H51575   1.116   4.763   1.161  1.2949  0.7911 -0.1597
  391MOL0     H51576   0.671   4.567   1.099 -1.5002 -1.5764 -1.2860
  391MOL0     H51577   0.437   4.540   1.007  0.2865  0.6464 -0.5371
  391MOL0     H51578   0.189   4.884   1.011  0.3226 -1.1903 -2.5966
  391MOL0     H51579   0.111   4.820   1.162 -1.7536 -0.6323 -0.0511
  391MOL0     H51580  -0.030   4.656   1.028 -3.0415 -0.1706 -1.1542
  391MOL0     H51581   0.014   4.753   0.887  0.6081  0.7264  0.6525
  391MOL0     H51582  -0.096   4.957   1.022  0.8696  0.3880  0.7665
  391MOL0     H51583  -0.130   4.841   1.157  2.0389 -0.9403  0.4997
  391MOL0     H51584  -0.249   4.775   0.887 -1.5362  1.0528  0.4078
  391MOL0     H51585  -0.261   4.699   1.041  3.2795 -1.8528 -1.5438
  391MOL0     H51586  -0.361   4.958   0.926 -2.8769  0.1529  0.4658
  391MOL0     H51587  -0.346   4.953   1.108  0.3774  0.0173 -1.0918
  391MOL0     H51588  -0.484   4.747   1.099  0.9307 -1.8447 -1.2450
  391MOL0     H51589  -0.491   4.749   0.934 -2.2257  0.6637 -1.0804
  391MOL0     H51590  -0.578   5.009   1.078  0.5915  0.4344 -1.0607
  391MOL0     H51591  -0.612   4.975   0.921 -0.9351  3.3516  1.4062
  391MOL0     H51592  -0.722   4.747   1.018  0.1912  0.1814 -2.2682
  391MOL0     H51593  -0.818   4.895   1.017  0.9113 -0.6116 -1.5132
  391MOL0     H51594   0.298   4.882   1.231 -0.4817 -0.9783  1.7617
  391MOL0     H51595   0.557   4.934   1.291  4.2503 -1.9349 -0.1966
  391MOL0     H51596   0.836   4.781   1.484 -0.1310  1.0389 -1.7942
  391MOL0     H51597   1.034   4.840   1.638 -1.9442 -0.9265 -0.2912
  391MOL0     H51598   2.808   5.003   1.335 -0.9477 -1.1728  0.0772
  391MOL0     H51599   2.970   4.911   1.177 -1.4018 -0.2788  0.1061
  391MOL0     H51600   3.351   4.782   1.027 -2.8686 -1.4746  0.2500
  391MOL0     H51601   3.570   4.669   0.942  1.9133  0.8530  1.3673
  391MOL0     H51602   3.836   4.428   0.918  0.8058  1.9585 -2.0945
  391MOL0     H51603   3.742   4.565   0.883 -2.1422 -0.5866 -3.4083
  391MOL0     H51604   3.623   4.280   0.882  0.5999  0.5614  1.0296
  391MOL0     H51605   3.530   4.427   0.867  1.1534  0.5397  1.1421
  391MOL0     H51606   3.585   4.312   0.648  1.8549 -0.8419  0.3206
  391MOL0     H51607   3.746   4.374   0.664  0.4928 -0.4784  1.0664
  391MOL0     H51608   3.665   4.619   0.673 -0.9684  0.6476  0.5062
  391MOL0     H51609   3.614   4.536   0.529 -0.8822 -0.0013 -0.0086
  391MOL0     H51610   3.237   4.589   0.687  1.1757 -1.6445  0.4850
  391MOL0     H51611   3.542   4.392   1.268 -0.3225  0.2057 -0.0557
  391MOL0     H51612   3.350   4.483   1.346 -0.5356  1.1731 -0.8010
  392MOL0     O51613   5.285   5.580   2.055 -0.2065  0.2057  0.1017
  392MOL0     C51614   5.342   5.466   2.058  0.5304 -1.6950 -0.0340
  392MOL0     O51615   5.286   5.342   2.032 -0.8174  0.5355  0.2102
  392MOL0     C51616   5.149   5.344   1.998  0.4447  1.4984  0.1710
  392MOL0     C51617   5.059   5.267   2.073 -1.1591  0.0993  0.6697
  392MOL0     C51618   4.920   5.268   2.052  0.3960  0.1367 -0.4677
  392MOL0     C51619   4.875   5.329   1.936  0.2318  0.1602 -0.5967
  392MOL0     O51620   4.736   5.342   1.933  1.1256 -0.3242  0.2387
  392MOL0     C51621   4.673   5.441   1.857  1.0194 -0.0435 -0.0097
  392MOL0     C51622   4.520   5.426   1.856 -0.9995 -0.2327  0.6236
  392MOL0     C51623   4.448   5.334   1.947  0.2240 -0.1363  0.1552
  392MOL0     C51624   4.300   5.375   1.947  0.1768 -0.2578  0.2980
  392MOL0     C51625   4.200   5.260   1.984  0.0105  0.6468 -0.6777
  392MOL0     C51626   4.059   5.282   1.915 -0.2200  0.3907  0.4441
  392MOL0     C51627   3.950   5.191   1.946  0.2323  0.0325  0.0394
  392MOL0     C51628   3.831   5.207   1.854 -0.4315  1.1482 -0.5524
  392MOL0     N51629   3.731   5.103   1.881 -0.2832 -0.7614  0.5713
  392MOL0     C51630   3.702   5.000   1.794 -0.3954  0.5185  0.0811
  392MOL0     C51631   3.579   4.970   1.818  0.8774 -0.4920 -0.6343
  392MOL0     C51632   3.487   4.868   1.756  0.3235 -0.2748  0.1699
  392MOL0     C51633   3.327   4.893   1.784 -0.5443  0.1109 -1.0520
  392MOL0     C51634   3.246   4.768   1.739 -0.5719 -0.1855  0.1617
  392MOL0     C51635   3.112   4.778   1.793 -0.3623  0.5561 -0.2787
  392MOL0     O51636   3.042   4.666   1.730 -0.4299 -0.8354 -0.2498
  392MOL0     C51637   2.907   4.663   1.753 -0.0551 -0.3448 -0.1987
  392MOL0     C51638   2.832   4.763   1.813  1.1101  0.6888 -0.3173
  392MOL0     C51639   2.705   4.752   1.848  0.9428  1.1366 -0.3486
  392MOL0     C51640   2.638   4.628   1.823 -1.0491  1.4882  0.2491
  392MOL0     C51641   2.494   4.605   1.855 -0.6616  0.5663  0.0558
  392MOL0     O51642   2.443   4.472   1.839 -0.5122 -0.6275  0.0743
  392MOL0     C51643   2.316   4.432   1.833  0.2778 -0.7762 -0.2907
  392MOL0     C51644   2.203   4.513   1.808  0.0578 -0.3615  0.8212
  392MOL0     C51645   2.075   4.459   1.825 -0.3212 -0.0403  0.9086
  392MOL0     C51646   2.056   4.330   1.883 -0.0132 -0.1493 -0.7547
  392MOL0     O51647   1.930   4.285   1.919  0.0604 -0.1695  0.4161
  392MOL0     C51648   1.826   4.389   1.939 -0.6421 -0.2966  0.0459
  392MOL0     C51649   1.708   4.353   2.021  0.0502  0.7954 -0.8422
  392MOL0     C51650   1.611   4.262   1.947  0.2610  0.3165  0.6202
  392MOL0     C51651   1.530   4.317   1.822 -0.5955 -0.3940 -0.2642
  392MOL0     C51652   1.465   4.455   1.843  0.4171  0.3245 -0.5773
  392MOL0     C51653   1.355   4.435   1.945 -0.2447 -0.7862 -0.3953
  392MOL0     C51654   1.293   4.566   1.998  0.5157 -0.1048  0.4959
  392MOL0     C51655   1.198   4.622   1.895  0.2546  0.4843 -0.3818
  392MOL0    Cl51656   1.118   4.780   1.960 -0.2236 -0.2590 -0.3233
  392MOL0     C51657   2.168   4.252   1.911  0.1251  0.3279  0.7902
  392MOL0     C51658   2.290   4.310   1.897 -0.4403  0.7085 -0.1228
  392MOL0     O51659   2.432   4.699   1.890 -0.0264  0.2802 -0.8391
  392MOL0     C51660   2.713   4.529   1.757  0.4167 -0.2133  0.5284
  392MOL0     C51661   2.837   4.552   1.720  1.1076 -0.5644  0.1581
  392MOL0     N51662   3.533   5.054   1.922 -0.3223 -0.0376 -0.4669
  392MOL0     N51663   3.625   5.130   1.959 -0.8418 -0.0241 -0.1685
  392MOL0     C51664   4.962   5.394   1.852 -0.5343  0.7120 -0.6574
  392MOL0     C51665   5.100   5.402   1.878  0.4517 -0.3822  0.1870
  392MOL0     C51666   5.489   5.469   2.093 -0.1372  0.5136 -0.7386
  392MOL0     C51667   5.564   5.350   2.083 -0.7557  0.1582  0.3147
  392MOL0     C51668   5.691   5.342   2.137  0.8959  0.9562 -0.9555
  392MOL0     C51669   5.750   5.469   2.194 -0.2176  0.2341 -0.3612
  392MOL0     O51670   5.865   5.478   2.259 -0.5611  0.0069  0.3825
  392MOL0     C51671   5.935   5.353   2.257 -0.1578 -0.0868  0.4157
  392MOL0     C51672   6.062   5.374   2.333 -0.1970 -0.0197  0.3527
  392MOL0     C51673   6.143   5.502   2.284 -0.0038  0.3895  0.0717
  392MOL0     C51674   6.263   5.529   2.373 -0.3954  0.5705 -0.4751
  392MOL0     C51675   6.392   5.510   2.301  0.5249 -0.2148  0.1624
  392MOL0     C51676   6.489   5.496   2.236  0.2650  0.3636  0.5992
  392MOL0     C51677   5.670   5.585   2.189  0.3837  0.1655 -0.3219
  392MOL0     C51678   5.541   5.587   2.138 -0.7770 -0.2057  0.0065
  392MOL0     H51679   5.099   5.198   2.147  0.9743  0.2639 -0.2671
  392MOL0     H51680   4.848   5.227   2.122  1.6400 -1.7221 -0.2269
  392MOL0     H51681   4.705   5.435   1.753 -1.4212 -2.2593 -0.7428
  392MOL0     H51682   4.696   5.540   1.897  2.4187 -0.2948 -0.1558
  392MOL0     H51683   4.488   5.392   1.757 -0.6229 -1.8422  1.0311
  392MOL0     H51684   4.489   5.531   1.866 -0.7899 -0.2106  1.0507
  392MOL0     H51685   4.477   5.354   2.051 -1.6422  1.8577  0.3665
  392MOL0     H51686   4.468   5.229   1.922  1.2509  0.3063 -0.9717
  392MOL0     H51687   4.284   5.465   2.008 -1.0265  0.9336 -1.6471
  392MOL0     H51688   4.273   5.408   1.846 -1.6918 -3.7609 -0.5250
  392MOL0     H51689   4.186   5.229   2.088  2.2289  2.3394  0.1860
  392MOL0     H51690   4.232   5.168   1.934 -1.4302 -0.1260 -0.2537
  392MOL0     H51691   4.071   5.270   1.807 -2.7024  0.2796  0.1236
  392MOL0     H51692   4.026   5.385   1.931  0.3764  0.2065  3.3462
  392MOL0     H51693   3.982   5.087   1.933 -0.4628  0.0994 -2.8562
  392MOL0     H51694   3.913   5.206   2.048  2.8382 -1.3031  1.2726
  392MOL0     H51695   3.861   5.205   1.749  0.4380 -3.2842 -0.4342
  392MOL0     H51696   3.793   5.306   1.880 -1.3016  0.8088 -0.5112
  392MOL0     H51697   3.756   4.957   1.710 -2.9916 -0.3424 -1.2710
  392MOL0     H51698   3.522   4.776   1.803  1.3792 -0.9470 -1.8143
  392MOL0     H51699   3.499   4.864   1.647  0.6784  3.5405 -0.0624
  392MOL0     H51700   3.289   4.986   1.740 -2.6836 -0.1802  0.0740
  392MOL0     H51701   3.322   4.898   1.893  1.3791  1.0384 -0.9732
  392MOL0     H51702   3.237   4.762   1.630  2.1558  0.5451 -0.1664
  392MOL0     H51703   3.301   4.681   1.775 -0.4815  0.0315  0.5569
  392MOL0     H51704   3.072   4.874   1.756 -0.2070  0.6779 -0.1323
  392MOL0     H51705   3.121   4.774   1.902 -1.7775  4.7864  0.1862
  392MOL0     H51706   2.869   4.858   1.849 -0.6264  0.9043  1.0170
  392MOL0     H51707   2.666   4.839   1.900 -0.5509 -0.5445  1.5053
  392MOL0     H51708   2.228   4.611   1.769 -2.2267 -0.4523 -1.1323
  392MOL0     H51709   1.990   4.525   1.809  0.4082  0.6379 -0.3732
  392MOL0     H51710   1.788   4.426   1.844  0.3191 -2.4634 -1.2529
  392MOL0     H51711   1.875   4.471   1.992  0.5893 -1.6476  1.1004
  392MOL0     H51712   1.650   4.441   2.052 -2.4794 -0.8357 -0.6157
  392MOL0     H51713   1.743   4.304   2.112  2.2777  2.2916 -0.8166
  392MOL0     H51714   1.545   4.217   2.021  0.2143  2.4120  1.9148
  392MOL0     H51715   1.657   4.172   1.903 -0.6558  0.0404  0.2105
  392MOL0     H51716   1.591   4.348   1.737 -0.5256  0.2811  0.0292
  392MOL0     H51717   1.459   4.243   1.783 -1.6939  0.5192 -0.0482
  392MOL0     H51718   1.426   4.489   1.747 -1.0783  0.5761  0.0999
  392MOL0     H51719   1.534   4.531   1.880 -0.5057  1.9327 -2.0177
  392MOL0     H51720   1.394   4.388   2.036 -1.5087 -3.1348 -0.9707
  392MOL0     H51721   1.275   4.374   1.901 -0.5494  0.0475 -1.0295
  392MOL0     H51722   1.235   4.551   2.090  1.0320 -0.9446  0.6966
  392MOL0     H51723   1.362   4.641   2.040 -0.3204  0.2492  1.2617
  392MOL0     H51724   1.112   4.561   1.864 -1.1048  3.0697 -2.0406
  392MOL0     H51725   1.253   4.637   1.802  1.2925  0.0734  0.1392
  392MOL0     H51726   2.151   4.153   1.952  1.3689 -1.2379 -2.1802
  392MOL0     H51727   2.379   4.258   1.930 -0.2315  2.9038  3.3540
  392MOL0     H51728   2.672   4.431   1.737  1.0171 -0.2902 -0.4127
  392MOL0     H51729   2.881   4.470   1.664 -1.5565 -2.2377  0.3908
  392MOL0     H51730   4.936   5.429   1.752  1.8383  1.5899 -1.0341
  392MOL0     H51731   5.176   5.459   1.824 -0.9600  2.3056  0.8420
  392MOL0     H51732   5.534   5.255   2.040  0.9705  0.0917 -0.8606
  392MOL0     H51733   5.738   5.246   2.120 -2.9245 -1.2287 -0.3752
  392MOL0     H51734   5.970   5.328   2.156  1.2000 -1.4079  1.1677
  392MOL0     H51735   5.875   5.266   2.285 -1.5962  0.9021  0.4474
  392MOL0     H51736   6.050   5.396   2.440 -2.0495  1.2869 -0.0876
  392MOL0     H51737   6.126   5.285   2.329 -1.5376 -1.1031  1.8700
  392MOL0     H51738   6.082   5.594   2.283  2.2325  2.0016 -2.4116
  392MOL0     H51739   6.168   5.487   2.178 -2.2085 -2.0072 -0.2159
  392MOL0     H51740   6.262   5.634   2.406  2.3315  0.4522  0.2507
  392MOL0     H51741   6.259   5.476   2.469 -1.5670 -1.7108 -1.7124
  392MOL0     H51742   6.579   5.476   2.181 -1.0830  1.2292 -2.1036
  392MOL0     H51743   5.704   5.672   2.245  0.8233  0.3923 -0.9251
  392MOL0     H51744   5.494   5.685   2.130 -2.4366 -0.8174  1.6427
  393MOL0     O51745   6.395  10.108   4.827  0.2695 -0.1860 -0.1269
  393MOL0     C51746   6.403  10.197   4.917 -0.0331  0.1932 -0.6027
  393MOL0     O51747   6.326  10.215   5.031 -0.0294  0.2187  0.5180
  393MOL0     C51748   6.251  10.111   5.077 -0.4370  0.3865  0.0923
  393MOL0     C51749   6.221  10.127   5.210 -0.6071 -0.6681 -1.0212
  393MOL0     C51750   6.150  10.037   5.289  0.1296 -1.2120  0.4264
  393MOL0     C51751   6.096   9.921   5.224 -0.0000  0.1548  0.6230
  393MOL0     O51752   5.998   9.836   5.278  0.2765 -1.1322  0.3707
  393MOL0     C51753   6.028   9.811   5.412  0.2152  0.1601 -0.2153
  393MOL0     C51754   5.952   9.683   5.456  0.2001 -0.2260  0.7863
  393MOL0     C51755   5.809   9.721   5.483  0.0682 -0.7735  0.5589
  393MOL0     C51756   5.726   9.593   5.509  0.0369 -0.1467  0.2200
  393MOL0     C51757   5.578   9.620   5.493 -0.4423  0.6159 -0.0831
  393MOL0     C51758   5.510   9.483   5.531 -0.3372 -0.1808  0.7743
  393MOL0     C51759   5.373   9.488   5.480 -0.1725 -0.5949 -0.1109
  393MOL0     C51760   5.295   9.352   5.473 -0.0757 -0.1918 -0.1121
  393MOL0     N51761   5.292   9.280   5.605 -0.1005  0.0659  0.3241
  393MOL0     C51762   5.395   9.189   5.636 -0.6759 -0.1837 -0.6259
  393MOL0     C51763   5.366   9.155   5.764 -0.1267 -0.0071 -0.7987
  393MOL0     C51764   5.441   9.059   5.846 -0.3639 -0.6504 -0.2359
  393MOL0     C51765   5.397   8.912   5.811  0.5350 -0.3401  0.0351
  393MOL0     C51766   5.318   8.848   5.921 -0.5419  0.1564 -0.9846
  393MOL0     C51767   5.179   8.909   5.959  0.8052 -0.1280  0.6934
  393MOL0     O51768   5.116   8.824   6.058  0.0584  0.5768 -0.3077
  393MOL0     C51769   4.980   8.836   6.097 -0.2239  0.0421  0.0035
  393MOL0     C51770   4.933   8.757   6.203  0.6556 -0.6979 -0.2834
  393MOL0     C51771   4.796   8.763   6.243  0.7081 -0.4643  0.0366
  393MOL0     C51772   4.704   8.855   6.182 -0.4992 -0.2930  0.4532
  393MOL0     C51773   4.569   8.849   6.222 -0.5751 -0.1269  0.1079
  393MOL0     O51774   4.475   8.890   6.129  0.9154 -0.2163  0.0976
  393MOL0     C51775   4.340   8.881   6.171 -0.5602  0.4378 -0.0588
  393MOL0     C51776   4.266   8.764   6.180  0.0169  0.8725 -0.2343
  393MOL0     C51777   4.133   8.767   6.223 -1.2141 -0.4469 -0.1510
  393MOL0     C51778   4.070   8.892   6.245 -1.1538  0.4975 -0.0900
  393MOL0     O51779   3.934   8.913   6.251  0.0054  0.4988  0.5771
  393MOL0     C51780   3.839   8.807   6.294 -1.1752  0.7388  0.1358
  393MOL0     C51781   3.708   8.871   6.333  0.4243  0.1882 -0.0514
  393MOL0     C51782   3.608   8.751   6.334 -0.3264 -0.1484 -0.3135
  393MOL0     C51783   3.459   8.791   6.366 -0.3666  0.1001  0.9727
  393MOL0     C51784   3.449   8.830   6.508  0.0350  0.4192  0.2166
  393MOL0     C51785   3.305   8.861   6.535 -0.9415 -0.0632  0.5102
  393MOL0     C51786   3.237   8.980   6.466  0.4350  0.7911 -0.3509
  393MOL0     C51787   3.114   9.027   6.550 -0.2663 -0.5356 -0.4122
  393MOL0    Cl51788   2.992   8.905   6.542 -0.0105  0.1710 -0.2827
  393MOL0     C51789   4.139   9.005   6.228 -1.1886  0.0611 -0.9001
  393MOL0     C51790   4.268   9.001   6.182 -0.0728  1.0805 -0.8550
  393MOL0     O51791   4.539   8.808   6.331 -0.9191 -0.1710 -0.5190
  393MOL0     C51792   4.755   8.942   6.081 -0.1277  0.1228  0.8370
  393MOL0     C51793   4.885   8.929   6.035 -1.1852  1.1306  0.3880
  393MOL0     N51794   5.245   9.208   5.791 -0.4049  0.6839 -0.4640
  393MOL0     N51795   5.202   9.292   5.703  0.1421 -0.3704  0.2743
  393MOL0     C51796   6.119   9.907   5.084  0.1010  0.1620  0.0510
  393MOL0     C51797   6.199   9.993   5.011  0.1264 -0.3719 -1.1004
  393MOL0     C51798   6.523  10.283   4.901  0.6352 -0.1793 -0.0851
  393MOL0     C51799   6.585  10.356   5.006 -0.4554 -0.2498  0.4039
  393MOL0     C51800   6.695  10.431   4.977 -0.5616 -0.9931 -0.0008
  393MOL0     C51801   6.740  10.457   4.853 -1.1221 -0.5611 -0.3102
  393MOL0     O51802   6.853  10.532   4.843 -0.0643 -0.9731  0.4145
  393MOL0     C51803   6.891  10.597   4.722  0.5382  0.2199 -0.8192
  393MOL0     C51804   6.782  10.703   4.704 -0.0229  0.1598 -0.6622
  393MOL0     C51805   6.822  10.793   4.587 -0.3938  0.5982  0.1783
  393MOL0     C51806   6.742  10.920   4.600  0.9330 -0.1466  0.0225
  393MOL0     C51807   6.791  11.018   4.501  1.6347 -0.0681 -0.6181
  393MOL0     C51808   6.826  11.099   4.418  0.7406  0.0297 -0.9448
  393MOL0     C51809   6.675  10.389   4.741  0.1450  0.2078  0.3230
  393MOL0     C51810   6.573  10.303   4.768  0.6615  0.3257 -0.1986
  393MOL0     H51811   6.257  10.220   5.253  1.5741 -0.5960 -2.7740
  393MOL0     H51812   6.127  10.062   5.392 -1.4436  2.9252 -0.7283
  393MOL0     H51813   5.993   9.894   5.474 -4.4246 -2.2485  0.7835
  393MOL0     H51814   6.138   9.805   5.414  0.4231  2.5303 -0.8326
  393MOL0     H51815   6.001   9.636   5.541  3.1120  0.9918 -0.0895
  393MOL0     H51816   5.952   9.607   5.378 -1.5938 -0.5949  1.1015
  393MOL0     H51817   5.759   9.774   5.401 -1.5708 -0.1154  1.9378
  393MOL0     H51818   5.799   9.793   5.564  3.6837 -0.1305  0.6241
  393MOL0     H51819   5.766   9.524   5.434  1.4658  1.9368 -1.0248
  393MOL0     H51820   5.751   9.563   5.611 -0.6474  0.1018  0.4674
  393MOL0     H51821   5.561   9.657   5.392  1.8770 -0.1593 -0.8347
  393MOL0     H51822   5.543   9.691   5.568 -0.4931  0.1194  0.3697
  393MOL0     H51823   5.512   9.477   5.640  2.1547 -2.2342  0.7071
  393MOL0     H51824   5.565   9.401   5.483  2.5174  2.3715 -0.7059
  393MOL0     H51825   5.309   9.555   5.537 -0.4656 -2.4941  1.9131
  393MOL0     H51826   5.381   9.524   5.377 -1.0434  1.2288  0.4234
  393MOL0     H51827   5.350   9.284   5.408 -0.6878 -1.5725  0.7770
  393MOL0     H51828   5.192   9.365   5.439  0.1273 -1.1181 -1.1140
  393MOL0     H51829   5.484   9.164   5.580 -0.5485  0.0832 -0.5431
  393MOL0     H51830   5.417   9.077   5.951  1.5545  1.0852 -0.0194
  393MOL0     H51831   5.550   9.070   5.845 -0.1966 -1.8985 -2.6099
  393MOL0     H51832   5.490   8.862   5.782  0.6419  1.4033 -2.9953
  393MOL0     H51833   5.327   8.918   5.728 -0.0754  1.2599  0.6266
  393MOL0     H51834   5.293   8.742   5.908 -2.9499  0.3704  1.1274
  393MOL0     H51835   5.386   8.838   6.005 -0.5772 -0.6218 -1.0360
  393MOL0     H51836   5.119   8.901   5.868  1.2169  0.3634  0.3706
  393MOL0     H51837   5.188   9.013   5.993  1.1738 -0.2139  0.8638
  393MOL0     H51838   4.993   8.681   6.251 -2.5074 -2.2020  1.6309
  393MOL0     H51839   4.756   8.700   6.322  0.7630  0.2034  0.6062
  393MOL0     H51840   4.311   8.670   6.148 -0.3464  0.9122 -0.8683
  393MOL0     H51841   4.067   8.681   6.219  1.4176 -2.5528 -1.1608
  393MOL0     H51842   3.886   8.751   6.376  0.2872  0.0702 -1.0920
  393MOL0     H51843   3.831   8.737   6.210  1.8253  2.4637 -1.8073
  393MOL0     H51844   3.676   8.949   6.263  1.5747  0.6451 -0.0916
  393MOL0     H51845   3.709   8.911   6.435  0.6416 -0.2908  0.1349
  393MOL0     H51846   3.642   8.669   6.398  2.1114 -1.4564 -3.0695
  393MOL0     H51847   3.624   8.710   6.234  4.6399  1.9064 -0.6423
  393MOL0     H51848   3.440   8.872   6.295  1.3436 -0.7072 -0.5069
  393MOL0     H51849   3.398   8.705   6.338 -0.3577  0.1308  0.8625
  393MOL0     H51850   3.506   8.921   6.530  1.4056 -0.1499 -0.8947
  393MOL0     H51851   3.485   8.757   6.581  1.6126 -0.3002 -1.2335
  393MOL0     H51852   3.299   8.885   6.642 -2.7348 -1.5437  0.8036
  393MOL0     H51853   3.255   8.766   6.510  0.0573 -0.4898  0.0974
  393MOL0     H51854   3.308   9.064   6.466  1.1917  0.2303 -2.5207
  393MOL0     H51855   3.212   8.944   6.366  0.4193 -2.2522  0.6572
  393MOL0     H51856   3.075   9.119   6.505  0.8412  0.5489  0.7757
  393MOL0     H51857   3.144   9.046   6.653  2.6003  0.7810 -1.3879
  393MOL0     H51858   4.105   9.106   6.249  0.3359  0.6086 -0.9416
  393MOL0     H51859   4.311   9.101   6.183 -2.2497  2.1076 -1.8419
  393MOL0     H51860   4.690   9.021   6.043 -1.6595 -1.1215  0.7455
  393MOL0     H51861   4.930   8.985   5.953  0.0945 -0.3418  0.0283
  393MOL0     H51862   6.064   9.829   5.033 -0.5079  2.2080 -2.6608
  393MOL0     H51863   6.206   9.986   4.903 -0.0882  1.6303 -1.2796
  393MOL0     H51864   6.560  10.348   5.111  2.3459 -1.6014  1.0559
  393MOL0     H51865   6.741  10.491   5.055 -0.6282  0.1105 -0.7882
  393MOL0     H51866   6.891  10.536   4.631 -0.1728 -0.3633 -0.4389
  393MOL0     H51867   6.988  10.642   4.746  0.0024  2.1315 -1.9399
  393MOL0     H51868   6.685  10.660   4.678  0.1852 -1.0611  0.4606
  393MOL0     H51869   6.774  10.762   4.795 -1.3389  1.8061 -1.7819
  393MOL0     H51870   6.808  10.739   4.493 -1.9622  3.2192 -1.2117
  393MOL0     H51871   6.929  10.813   4.589 -0.8838  3.9075 -0.9214
  393MOL0     H51872   6.634  10.902   4.587  0.9108  0.4771 -0.7367
  393MOL0     H51873   6.748  10.955   4.703 -1.9994 -1.2378  0.6644
  393MOL0     H51874   6.870  11.177   4.359  1.5068  0.7712  0.5701
  393MOL0     H51875   6.719  10.389   4.642  0.4955 -4.8813  0.1945
  393MOL0     H51876   6.529  10.244   4.688 -0.0677  1.8990 -0.9966
  394MOL0     O51877  10.344   0.101   1.917 -0.2928  0.3035  0.1238
  394MOL0     C51878  10.350   0.000   1.986 -0.0523  0.2027 -0.3382
  394MOL0     O51879  10.457  -0.059   2.035  0.6067 -0.1584  0.6265
  394MOL0     C51880  10.579  -0.022   1.974 -0.6167  0.0622  0.0060
  394MOL0     C51881  10.637  -0.105   1.883  0.1301  0.4536 -0.4418
  394MOL0     C51882  10.766  -0.065   1.832  0.6580  0.0875  0.7717
  394MOL0     C51883  10.826   0.062   1.863  0.7406  0.0947  0.1910
  394MOL0     O51884  10.937   0.095   1.794 -0.6793  0.2243 -0.8394
  394MOL0     C51885  10.924   0.208   1.707 -0.4992  0.4997  0.3809
  394MOL0     C51886  11.016   0.171   1.582  0.3184 -0.1159  0.7693
  394MOL0     C51887  10.994   0.032   1.523 -0.0503  0.2245  0.0050
  394MOL0     C51888  10.863   0.015   1.434  0.6809 -0.0891  0.1245
  394MOL0     C51889  10.855  -0.122   1.367 -0.2823  0.4405 -0.0992
  394MOL0     C51890  10.746  -0.118   1.268 -0.2236 -0.8314  0.2726
  394MOL0     C51891  10.602  -0.102   1.314  0.2105  1.1004 -0.5550
  394MOL0     C51892  10.558  -0.220   1.402 -0.4270  0.2444  0.7904
  394MOL0     N51893  10.416  -0.219   1.413  0.8148 -0.5904 -0.4919
  394MOL0     C51894  10.346  -0.154   1.508 -0.0689 -0.0628 -0.8524
  394MOL0     C51895  10.222  -0.165   1.462 -0.5769 -0.3420 -0.1180
  394MOL0     C51896  10.094  -0.115   1.522  0.6512  0.2706 -0.6811
  394MOL0     C51897  10.085   0.042   1.519 -0.2931 -0.2026 -0.7354
  394MOL0     C51898   9.945   0.088   1.586 -1.3463  0.5080  0.4232
  394MOL0     C51899   9.837   0.056   1.489  0.6422  0.1270 -1.2023
  394MOL0     O51900   9.857   0.146   1.377  0.1757  0.5727  0.1029
  394MOL0     C51901   9.802   0.117   1.256 -0.1162  0.4308  0.3733
  394MOL0     C51902   9.709   0.018   1.237  1.0534  0.1850  0.4053
  394MOL0     C51903   9.664   0.009   1.111  1.0418  0.0901 -0.0450
  394MOL0     C51904   9.709   0.084   0.999 -0.7738  0.7813 -0.2007
  394MOL0     C51905   9.691   0.049   0.857  0.4009  0.1386 -0.4945
  394MOL0     O51906   9.743   0.129   0.755  0.7102  0.5122 -0.2905
  394MOL0     C51907   9.669   0.130   0.638  0.0533 -0.8100 -0.2364
  394MOL0     C51908   9.616   0.255   0.594 -0.0632  0.0137  0.3674
  394MOL0     C51909   9.538   0.265   0.478  0.4627 -0.1433 -0.4024
  394MOL0     C51910   9.523   0.146   0.395  0.7811 -0.5670 -0.1888
  394MOL0     O51911   9.435   0.159   0.288  0.3286  0.4753  0.2294
  394MOL0     C51912   9.350   0.047   0.251  0.5124  0.5650  0.5951
  394MOL0     C51913   9.250   0.073   0.139 -0.9298  0.0051 -0.1892
  394MOL0     C51914   9.175  -0.062   0.128  0.3997  0.2584 -0.1869
  394MOL0     C51915   9.096  -0.083  -0.010 -0.0979  0.2903  1.2389
  394MOL0     C51916   8.965   0.010  -0.016 -0.0913  0.2122 -0.5787
  394MOL0     C51917   8.883   0.004  -0.150 -0.0504  0.3787 -0.4098
  394MOL0     C51918   8.775   0.106  -0.192 -0.9226  0.2589  0.2546
  394MOL0     C51919   8.692   0.155  -0.076  0.1530  0.2571 -0.6102
  394MOL0    Cl51920   8.630   0.005   0.015 -0.3303 -0.5992 -0.0892
  394MOL0     C51921   9.589   0.031   0.429  0.3207  0.7625  0.1704
  394MOL0     C51922   9.658   0.021   0.553  0.1014  0.4894 -0.5725
  394MOL0     O51923   9.606  -0.038   0.843  0.1281  0.2931 -0.3347
  394MOL0     C51924   9.802   0.183   1.023  0.1476  0.1340 -0.1024
  394MOL0     C51925   9.848   0.208   1.152  0.1755 -0.1158  0.4546
  394MOL0     N51926  10.218  -0.240   1.346  0.3418  0.5974 -0.3101
  394MOL0     N51927  10.341  -0.280   1.320  0.5241  0.6427 -0.3359
  394MOL0     C51928  10.760   0.151   1.952 -0.2229  0.5101  0.1253
  394MOL0     C51929  10.643   0.107   2.015  0.3018 -0.3009  1.2132
  394MOL0     C51930  10.219  -0.055   2.016  0.4891 -0.5456  0.4424
  394MOL0     C51931  10.195  -0.121   2.145  0.5606 -0.2004 -0.5198
  394MOL0     C51932  10.077  -0.188   2.173  0.2570 -0.5889 -0.6915
  394MOL0     C51933   9.972  -0.195   2.077 -0.4389  0.1637 -0.4493
  394MOL0     O51934   9.857  -0.256   2.122  0.3586 -0.0186  0.3286
  394MOL0     C51935   9.729  -0.226   2.066  0.2596 -0.0549 -0.7610
  394MOL0     C51936   9.691  -0.086   2.118  0.5505 -0.4114 -0.3742
  394MOL0     C51937   9.568  -0.019   2.052  0.9185 -0.0633  0.4150
  394MOL0     C51938   9.432  -0.097   2.068  0.1787  0.8281 -0.4067
  394MOL0     C51939   9.392  -0.082   2.204  1.0697  0.6747 -0.8584
  394MOL0     C51940   9.350  -0.064   2.316 -0.5018 -0.3725  0.4321
  394MOL0     C51941   9.996  -0.137   1.954 -0.3879  0.5911  0.1667
  394MOL0     C51942  10.120  -0.071   1.925 -0.2449  0.3800 -0.5895
  394MOL0     H51943  10.590  -0.198   1.852  1.0592  0.4358 -1.8846
  394MOL0     H51944  10.806  -0.138   1.762 -2.0134 -3.1285  2.3330
  394MOL0     H51945  10.965   0.291   1.764  2.3058 -0.5916  0.1175
  394MOL0     H51946  10.819   0.223   1.681 -0.8354  0.8571  1.8438
  394MOL0     H51947  11.120   0.185   1.609  0.0632  0.9771  1.2186
  394MOL0     H51948  10.993   0.241   1.501 -0.0757 -3.1637 -1.9834
  394MOL0     H51949  11.006  -0.042   1.603  0.8499  0.6989  0.3250
  394MOL0     H51950  11.083   0.017   1.461  0.5892  2.0724  0.4228
  394MOL0     H51951  10.772   0.020   1.495  0.4688  0.1025 -0.2050
  394MOL0     H51952  10.859   0.100   1.365  1.6483  0.8898  1.2187
  394MOL0     H51953  10.825  -0.187   1.450 -1.8141  0.8772 -0.2773
  394MOL0     H51954  10.954  -0.149   1.331 -0.3098 -1.9442  1.3967
  394MOL0     H51955  10.745  -0.210   1.209  2.5411 -0.4042 -0.5825
  394MOL0     H51956  10.771  -0.035   1.200 -0.9553 -1.3485 -0.6487
  394MOL0     H51957  10.579  -0.012   1.372  0.5717  0.8564 -0.0278
  394MOL0     H51958  10.549  -0.097   1.218  0.6133 -1.3010 -0.9748
  394MOL0     H51959  10.602  -0.216   1.502 -0.3089 -0.4096  0.7693
  394MOL0     H51960  10.585  -0.311   1.347  2.3424  1.7589 -0.5841
  394MOL0     H51961  10.379  -0.124   1.607 -1.4621 -2.7529  0.5622
  394MOL0     H51962  10.082  -0.159   1.621  2.5565  2.5309  0.6383
  394MOL0     H51963  10.020  -0.165   1.459  1.3581  0.2876 -1.5303
  394MOL0     H51964  10.102   0.090   1.423  1.0313 -1.3762 -1.1223
  394MOL0     H51965  10.162   0.084   1.584 -2.3037  0.6608  1.2231
  394MOL0     H51966   9.917   0.042   1.681  0.5551 -3.6160 -0.7691
  394MOL0     H51967   9.953   0.196   1.598  0.7751  0.6582 -1.4999
  394MOL0     H51968   9.736   0.056   1.530  1.3324 -0.2376  0.5508
  394MOL0     H51969   9.841  -0.051   1.464  0.7557 -0.6837  1.8608
  394MOL0     H51970   9.675  -0.048   1.316 -0.6754 -2.0714 -2.0520
  394MOL0     H51971   9.589  -0.067   1.092  2.6061 -0.9836 -2.4928
  394MOL0     H51972   9.626   0.344   0.655  1.6165 -0.0029  0.1594
  394MOL0     H51973   9.487   0.358   0.457  0.1529 -0.4183 -0.8885
  394MOL0     H51974   9.287   0.027   0.338  0.1112 -0.3277  0.1157
  394MOL0     H51975   9.414  -0.035   0.218  0.6579  1.5268 -1.7213
  394MOL0     H51976   9.294   0.111   0.047  0.1642 -1.7181 -0.4251
  394MOL0     H51977   9.185   0.154   0.174 -1.5636 -0.4315 -0.3256
  394MOL0     H51978   9.110  -0.061   0.216 -1.7813  0.6878 -1.7200
  394MOL0     H51979   9.246  -0.144   0.140  0.6028  0.4111 -0.3310
  394MOL0     H51980   9.158  -0.066  -0.099 -1.5078  1.1294  0.3739
  394MOL0     H51981   9.077  -0.190  -0.004  2.1931 -0.2391  0.1987
  394MOL0     H51982   9.002   0.111   0.002 -2.3699  0.7887  1.4412
  394MOL0     H51983   8.907  -0.021   0.071  1.7053  1.3504  1.1032
  394MOL0     H51984   8.840  -0.097  -0.141 -0.0727  0.5669  2.9010
  394MOL0     H51985   8.953  -0.005  -0.233  0.8716  0.8681  0.3014
  394MOL0     H51986   8.824   0.198  -0.224 -1.3038 -0.2152 -1.8612
  394MOL0     H51987   8.716   0.071  -0.277 -2.0066 -1.1540  1.5231
  394MOL0     H51988   8.611   0.215  -0.118 -0.2164 -1.4141 -2.4585
  394MOL0     H51989   8.747   0.218  -0.005 -2.4666  3.4833 -1.1909
  394MOL0     H51990   9.563  -0.053   0.365 -3.5393  1.0301  1.1008
  394MOL0     H51991   9.709  -0.071   0.580 -0.2021  0.7696  1.0704
  394MOL0     H51992   9.841   0.253   0.950 -1.1482  2.5448  1.3455
  394MOL0     H51993   9.916   0.290   1.170 -1.7055  1.3939  1.0051
  394MOL0     H51994  10.813   0.242   1.978 -1.7709  0.7031  3.0365
  394MOL0     H51995  10.598   0.166   2.094 -0.3827  0.6883  0.1192
  394MOL0     H51996  10.280  -0.119   2.212  0.1902  0.6286 -0.0646
  394MOL0     H51997  10.060  -0.230   2.271 -2.9144 -1.6065 -1.5599
  394MOL0     H51998   9.661  -0.307   2.094  2.0196 -0.7908  1.7329
  394MOL0     H51999   9.732  -0.225   1.956 -1.1078 -0.6579 -0.8150
  394MOL0     H52000   9.673  -0.089   2.226  0.8628 -0.6829 -0.3301
  394MOL0     H52001   9.770  -0.011   2.116  0.0655  0.1673  0.9308
  394MOL0     H52002   9.584  -0.017   1.944 -2.9333 -2.4667 -0.4013
  394MOL0     H52003   9.565   0.080   2.097  0.1657 -0.3509  1.0252
  394MOL0     H52004   9.356  -0.047   2.008 -0.4319 -1.3174 -1.5453
  394MOL0     H52005   9.453  -0.203   2.051  0.3396  0.4858  1.7500
  394MOL0     H52006   9.319  -0.062   2.419  2.1838 -0.7151  1.3475
  394MOL0     H52007   9.919  -0.132   1.877  1.0979  2.6851 -1.2979
  394MOL0     H52008  10.140  -0.017   1.833 -0.0518  1.7825  0.2535
  395MOL0     O52009   7.675   6.421   3.049  0.0448  0.0923  0.7216
  395MOL0     C52010   7.764   6.339   3.020 -0.0124 -0.1451  0.7867
  395MOL0     O52011   7.747   6.204   2.972  0.5696  0.2719  0.8911
  395MOL0     C52012   7.619   6.157   2.936 -0.3577  0.3175  0.9207
  395MOL0     C52013   7.568   6.041   3.002  0.8615 -0.8421  0.1286
  395MOL0     C52014   7.452   5.981   2.940 -0.0599  0.0485 -0.0019
  395MOL0     C52015   7.382   6.052   2.834  0.8721 -0.3496 -1.2521
  395MOL0     O52016   7.264   6.003   2.770 -0.7120 -0.1235 -0.0898
  395MOL0     C52017   7.136   6.008   2.838  0.0889  0.1305  0.2506
  395MOL0     C52018   7.023   5.995   2.737 -0.0550 -0.3935  0.6143
  395MOL0     C52019   7.043   5.889   2.627  0.3204 -0.1228  0.1896
  395MOL0     C52020   6.914   5.875   2.547  0.3113 -0.9172 -0.4622
  395MOL0     C52021   6.921   5.763   2.439  0.2604  0.2030 -0.3120
  395MOL0     C52022   6.937   5.617   2.504 -0.0245  0.1962  1.1310
  395MOL0     C52023   6.921   5.511   2.393  0.2430  0.0931  0.3260
  395MOL0     C52024   6.929   5.369   2.454  0.1510 -0.6426  0.1305
  395MOL0     N52025   6.821   5.352   2.546 -0.3280 -0.0556 -0.1531
  395MOL0     C52026   6.690   5.339   2.492 -0.0908 -0.5352 -0.2460
  395MOL0     C52027   6.610   5.357   2.601  0.5962  0.0853 -0.6741
  395MOL0     C52028   6.458   5.355   2.611 -0.0110 -0.2136  0.5895
  395MOL0     C52029   6.401   5.267   2.730 -0.7977  0.1151  0.2319
  395MOL0     C52030   6.345   5.351   2.850  0.8356  0.3349 -0.0934
  395MOL0     C52031   6.208   5.415   2.816  0.6062  0.6527 -0.1402
  395MOL0     O52032   6.122   5.296   2.804 -0.1861 -1.3407 -0.1415
  395MOL0     C52033   6.008   5.319   2.730  0.1454 -0.5465  0.3923
  395MOL0     C52034   5.953   5.436   2.681  0.8756  0.0593 -0.3194
  395MOL0     C52035   5.831   5.439   2.615 -0.5238 -0.4943  0.0262
  395MOL0     C52036   5.756   5.324   2.603 -0.2422 -0.1590  0.5625
  395MOL0     C52037   5.609   5.332   2.565 -0.2375  0.3788  0.2274
  395MOL0     O52038   5.542   5.218   2.536 -0.1147  0.0380  0.6680
  395MOL0     C52039   5.404   5.216   2.522 -0.2909 -0.7427  0.3195
  395MOL0     C52040   5.343   5.320   2.450  0.0862  0.7022  0.0490
  395MOL0     C52041   5.203   5.325   2.452  0.2252  0.5959 -0.3903
  395MOL0     C52042   5.128   5.233   2.526  0.4567 -0.6693  0.0983
  395MOL0     O52043   4.997   5.242   2.508  0.0948  0.1841  0.0718
  395MOL0     C52044   4.919   5.125   2.515  0.8066  0.2225  0.2420
  395MOL0     C52045   4.791   5.151   2.432  0.2954 -0.5552  0.2090
  395MOL0     C52046   4.685   5.050   2.462  0.5635 -0.0128 -0.8375
  395MOL0     C52047   4.561   5.068   2.368 -0.1964 -0.4615 -1.1089
  395MOL0     C52048   4.593   5.049   2.213 -0.1609  0.1652 -1.1237
  395MOL0     C52049   4.467   4.988   2.144  0.7677 -0.1673 -0.3122
  395MOL0     C52050   4.422   4.859   2.189  0.4253  1.2216 -0.3763
  395MOL0     C52051   4.531   4.759   2.215 -0.3532  0.4927  0.1118
  395MOL0    Cl52052   4.599   4.696   2.070  0.4881 -0.0124 -0.0013
  395MOL0     C52053   5.191   5.130   2.596  0.2779  0.5747  0.8472
  395MOL0     C52054   5.330   5.118   2.592 -0.3345  0.7173 -0.2840
  395MOL0     O52055   5.560   5.442   2.576 -0.1315 -0.0445  0.1592
  395MOL0     C52056   5.809   5.203   2.642 -0.3599  0.4050 -1.8124
  395MOL0     C52057   5.934   5.204   2.706  0.0434 -0.8305 -0.2722
  395MOL0     N52058   6.683   5.387   2.713  0.4066 -1.0269 -0.1177
  395MOL0     N52059   6.808   5.380   2.679 -0.2622 -0.3979  0.9980
  395MOL0     C52060   7.433   6.176   2.786  0.2258 -0.5301 -1.0490
  395MOL0     C52061   7.559   6.222   2.832  0.4269 -0.0474 -0.0299
  395MOL0     C52062   7.899   6.377   3.030 -0.2838 -0.3198  0.6944
  395MOL0     C52063   7.990   6.346   2.926  0.5227  0.4068  0.0563
  395MOL0     C52064   8.117   6.398   2.942 -1.2140  0.1802  0.1776
  395MOL0     C52065   8.161   6.477   3.041 -0.0890 -0.7010  0.0837
  395MOL0     O52066   8.301   6.492   3.045  0.0037 -0.5715 -0.1242
  395MOL0     C52067   8.360   6.551   3.165 -0.2181 -0.4266  0.2359
  395MOL0     C52068   8.507   6.577   3.145  1.0257  0.5767  0.2551
  395MOL0     C52069   8.532   6.690   3.047 -0.1778 -0.4592  0.2499
  395MOL0     C52070   8.674   6.670   2.987  0.0200  0.1351 -0.1591
  395MOL0     C52071   8.782   6.677   3.085 -0.1667 -0.2779 -0.5184
  395MOL0     C52072   8.893   6.688   3.137  0.3324 -0.2485 -0.0370
  395MOL0     C52073   8.072   6.507   3.137  0.0366 -0.0575  0.1995
  395MOL0     C52074   7.937   6.468   3.130  0.5523  0.4178  0.8795
  395MOL0     H52075   7.622   5.992   3.083  0.9510 -0.7085  0.1495
  395MOL0     H52076   7.416   5.885   2.976 -3.4891  1.0560 -0.4246
  395MOL0     H52077   7.131   6.104   2.890  2.2068  0.3369  0.1890
  395MOL0     H52078   7.125   5.920   2.903  0.9908 -1.0980 -1.1996
  395MOL0     H52079   7.018   6.087   2.678 -1.3053 -1.2067 -0.6177
  395MOL0     H52080   6.924   5.980   2.780  1.1202 -3.4532  2.5430
  395MOL0     H52081   7.074   5.792   2.666  0.6241 -0.0227  0.1987
  395MOL0     H52082   7.118   5.922   2.555  0.9463  0.8528  1.2701
  395MOL0     H52083   6.834   5.850   2.618  1.5502 -1.0123  0.9538
  395MOL0     H52084   6.891   5.970   2.498 -2.0098 -0.8280  0.6351
  395MOL0     H52085   7.003   5.790   2.372  1.3536  0.1610  0.9500
  395MOL0     H52086   6.837   5.765   2.369 -0.4707  0.0708  0.5424
  395MOL0     H52087   6.854   5.605   2.574  0.5153 -0.8392  1.6135
  395MOL0     H52088   7.034   5.590   2.546  0.3156 -2.1486 -0.9544
  395MOL0     H52089   6.831   5.526   2.332  1.6057  0.3960 -1.7057
  395MOL0     H52090   7.009   5.529   2.330  0.1919  2.1983  0.7836
  395MOL0     H52091   7.019   5.344   2.511 -1.9490 -1.5544  3.3407
  395MOL0     H52092   6.917   5.300   2.370 -0.5444 -1.2901  0.7484
  395MOL0     H52093   6.661   5.303   2.394 -0.1204  0.6024 -0.6674
  395MOL0     H52094   6.417   5.329   2.513  0.9861 -0.5640  0.2457
  395MOL0     H52095   6.424   5.456   2.635  1.2800  0.3828 -0.0020
  395MOL0     H52096   6.480   5.205   2.774  1.3566  1.8015 -1.0631
  395MOL0     H52097   6.322   5.203   2.691 -0.9252  0.6578 -0.3952
  395MOL0     H52098   6.337   5.279   2.932 -0.3799 -0.7110 -1.0918
  395MOL0     H52099   6.404   5.441   2.868 -0.7614  1.4861 -0.3905
  395MOL0     H52100   6.223   5.472   2.723  1.4595 -0.2674 -0.5846
  395MOL0     H52101   6.166   5.481   2.892  2.5677  1.5581  0.2105
  395MOL0     H52102   6.012   5.527   2.675  0.9191 -0.0654 -2.3757
  395MOL0     H52103   5.785   5.534   2.590  0.3120 -0.2821 -0.7052
  395MOL0     H52104   5.402   5.391   2.393  3.0646 -0.3863  1.6028
  395MOL0     H52105   5.143   5.382   2.382  0.7504 -0.8497 -2.1092
  395MOL0     H52106   4.893   5.119   2.621 -1.1769  1.0935 -0.1580
  395MOL0     H52107   4.972   5.037   2.479  1.3398  0.8884 -0.6660
  395MOL0     H52108   4.827   5.139   2.330  4.5854  1.1035  1.2787
  395MOL0     H52109   4.749   5.252   2.443  1.4320 -0.1481  1.0887
  395MOL0     H52110   4.666   5.052   2.569  1.8640 -0.6325 -0.5720
  395MOL0     H52111   4.733   4.952   2.454 -0.0984 -0.5773  1.3667
  395MOL0     H52112   4.484   5.001   2.407 -2.7296  0.7937 -3.6171
  395MOL0     H52113   4.504   5.158   2.395  1.1697 -0.1710  1.1130
  395MOL0     H52114   4.676   4.978   2.203 -1.9093 -2.5695  1.7975
  395MOL0     H52115   4.620   5.145   2.169  1.9446  0.4972  0.7407
  395MOL0     H52116   4.494   4.981   2.038  3.1224 -0.0579  0.2257
  395MOL0     H52117   4.381   5.054   2.155  1.0719 -0.0253  1.6533
  395MOL0     H52118   4.362   4.879   2.278  5.7033  3.3471  3.1798
  395MOL0     H52119   4.359   4.815   2.110  0.9984 -2.3354  0.9649
  395MOL0     H52120   4.491   4.676   2.274 -0.8685  1.0464  0.5491
  395MOL0     H52121   4.612   4.791   2.281  0.0052  0.2537 -0.2026
  395MOL0     H52122   5.124   5.052   2.629 -2.6953  1.5835 -2.2574
  395MOL0     H52123   5.383   5.038   2.642 -3.5146 -1.4960 -0.1578
  395MOL0     H52124   5.765   5.104   2.643  0.5532 -0.0499  0.6775
  395MOL0     H52125   5.975   5.107   2.735 -1.2275 -1.7018 -1.2957
  395MOL0     H52126   7.364   6.243   2.735 -2.4098  2.4702  5.3149
  395MOL0     H52127   7.603   6.313   2.793  0.7672  0.3596  1.2718
  395MOL0     H52128   7.969   6.275   2.847 -1.6273 -2.6557  3.1152
  395MOL0     H52129   8.191   6.373   2.866  1.5821  4.4631  1.1914
  395MOL0     H52130   8.361   6.477   3.246  1.0747 -1.5994 -0.8000
  395MOL0     H52131   8.309   6.641   3.201  0.3122  0.3958 -0.9921
  395MOL0     H52132   8.565   6.592   3.237  0.7768  0.0304  0.5077
  395MOL0     H52133   8.541   6.482   3.105  1.2102  1.6922 -2.4325
  395MOL0     H52134   8.521   6.786   3.098 -0.1752  0.3813 -1.2779
  395MOL0     H52135   8.457   6.690   2.968  1.3616 -1.5893 -1.2811
  395MOL0     H52136   8.678   6.578   2.928 -0.0709  0.9329 -1.4501
  395MOL0     H52137   8.694   6.751   2.915 -1.5763  2.0958  1.4766
  395MOL0     H52138   8.981   6.700   3.197 -0.1641  2.1297  0.2829
  395MOL0     H52139   8.097   6.576   3.217  0.9051 -0.2888  0.1431
  395MOL0     H52140   7.861   6.515   3.191  0.2532  4.4299 -2.2093
  396MOL0     O52141   1.500   3.619  10.132  0.0036 -0.2115  0.2905
  396MOL0     C52142   1.585   3.698  10.174 -0.1086  0.6557  0.3682
  396MOL0     O52143   1.563   3.798  10.267  0.1866 -0.1132  1.0265
  396MOL0     C52144   1.436   3.826  10.318 -0.4876  0.7550  0.1864
  396MOL0     C52145   1.426   3.946  10.368  0.6349 -0.1155  0.4533
  396MOL0     C52146   1.299   3.989  10.409 -0.9398 -0.6424 -0.2682
  396MOL0     C52147   1.190   3.905  10.423  0.5684  0.5036 -0.1460
  396MOL0     O52148   1.075   3.955  10.473  0.3846  0.1405  0.3991
  396MOL0     C52149   0.958   3.874  10.463  0.1297  0.5011 -0.3796
  396MOL0     C52150   0.832   3.956  10.516  0.2318  1.5965  0.3477
  396MOL0     C52151   0.790   4.086  10.430 -1.1316  1.2075  0.3885
  396MOL0     C52152   0.636   4.105  10.423  0.5415 -0.4917 -0.2328
  396MOL0     C52153   0.612   4.243  10.361  0.5272 -0.3828 -0.0599
  396MOL0     C52154   0.461   4.258  10.348 -0.0275  0.4822  0.7179
  396MOL0     C52155   0.437   4.397  10.293  0.8135  0.0337 -0.0979
  396MOL0     C52156   0.291   4.429  10.250 -0.0671 -0.3387 -0.3529
  396MOL0     N52157   0.187   4.445  10.350  0.5583 -0.0920 -0.1794
  396MOL0     C52158   0.059   4.466  10.333 -0.8097  0.0507  0.4124
  396MOL0     C52159   0.015   4.493  10.460  0.2277  0.7423 -0.2146
  396MOL0     C52160  -0.129   4.504  10.495 -0.7582  0.4140  0.0129
  396MOL0     C52161  -0.207   4.390  10.436  0.4408 -0.0082 -0.1782
  396MOL0     C52162  -0.187   4.256  10.509 -0.3143 -0.7718 -1.1857
  396MOL0     C52163  -0.297   4.146  10.512  0.7641 -0.0140  0.0491
  396MOL0     O52164  -0.422   4.182  10.575 -0.0727  0.1028  0.2277
  396MOL0     C52165  -0.534   4.108  10.535 -0.1937  0.4356 -1.2479
  396MOL0     C52166  -0.652   4.140  10.610 -0.0182 -0.0448 -0.5947
  396MOL0     C52167  -0.776   4.095  10.567 -0.8893 -0.2222 -0.0355
  396MOL0     C52168  -0.787   3.991  10.470 -1.2609  0.4078 -0.2441
  396MOL0     C52169  -0.914   3.934  10.444  0.4080  0.0414  0.4437
  396MOL0     O52170  -1.025   3.989  10.499  0.0958  0.8896  0.6682
  396MOL0     C52171  -1.145   3.936  10.489  0.9313 -1.0294  0.0003
  396MOL0     C52172  -1.257   4.020  10.517 -0.3391 -0.5046  0.4228
  396MOL0     C52173  -1.380   3.966  10.540  0.7621  0.3503  0.5475
  396MOL0     C52174  -1.397   3.824  10.540 -0.1433  0.4489 -0.8676
  396MOL0     O52175  -1.516   3.774  10.584 -0.3305  0.4477 -0.2016
  396MOL0     C52176  -1.569   3.650  10.521 -1.0618 -0.0981 -0.0634
  396MOL0     C52177  -1.714   3.671  10.491 -0.2960 -0.1348  0.5247
  396MOL0     C52178  -1.744   3.778  10.387 -0.4507 -0.5416 -0.0775
  396MOL0     C52179  -1.896   3.773  10.368 -0.0861 -0.1960 -0.1369
  396MOL0     C52180  -1.939   3.890  10.284  0.4422  0.3914  1.2342
  396MOL0     C52181  -2.090   3.909  10.264 -0.3439 -0.7357  0.7777
  396MOL0     C52182  -2.179   3.848  10.368 -0.2559 -0.9389 -0.9104
  396MOL0     C52183  -2.324   3.855  10.335  0.4455 -0.3612 -0.0915
  396MOL0    Cl52184  -2.422   3.788  10.458 -0.0348 -0.5728 -0.4106
  396MOL0     C52185  -1.293   3.740  10.505  0.2901 -0.2405  0.3288
  396MOL0     C52186  -1.166   3.791  10.477 -0.6906 -0.4831  0.7334
  396MOL0     O52187  -0.917   3.849  10.355  0.4926  0.2784 -0.0600
  396MOL0     C52188  -0.666   3.953  10.404  0.1252  0.3369 -0.8357
  396MOL0     C52189  -0.541   4.002  10.439 -0.2645  0.3337 -0.0027
  396MOL0     N52190   0.112   4.473  10.552 -0.2723 -0.0205  0.4382
  396MOL0     N52191   0.217   4.457  10.481  0.3205 -0.2036  0.0075
  396MOL0     C52192   1.200   3.770  10.376  0.0534  0.3201 -0.7972
  396MOL0     C52193   1.322   3.733  10.325  0.0361  1.0408  0.9229
  396MOL0     C52194   1.725   3.685  10.117  0.7700  0.4342 -0.6469
  396MOL0     C52195   1.761   3.581  10.024  0.2766  0.1802 -0.2653
  396MOL0     C52196   1.890   3.556   9.975 -0.1520 -0.8285 -0.2295
  396MOL0     C52197   1.988   3.643  10.018 -0.2876  0.1293  0.1439
  396MOL0     O52198   2.123   3.641   9.978 -0.0720  0.5629 -0.5268
  396MOL0     C52199   2.157   3.516   9.910 -0.8193  0.6269 -0.5355
  396MOL0     C52200   2.303   3.486   9.921  0.0947  0.1885  0.1184
  396MOL0     C52201   2.370   3.501   9.786  0.0003  0.8136 -0.0053
  396MOL0     C52202   2.520   3.537   9.807  0.4812  0.5666 -0.6820
  396MOL0     C52203   2.596   3.427   9.874 -1.2361 -0.3911  0.6955
  396MOL0     C52204   2.644   3.334   9.933 -0.4511  0.2678  0.7998
  396MOL0     C52205   1.960   3.748  10.105 -0.3018 -0.0338  0.6013
  396MOL0     C52206   1.828   3.775  10.154 -0.4370  0.5575 -0.0012
  396MOL0     H52207   1.509   4.014  10.384  0.7386 -0.2164  0.3468
  396MOL0     H52208   1.300   4.092  10.441  0.6917 -0.6651 -0.1441
  396MOL0     H52209   0.953   3.789  10.532  1.1279 -0.1588 -1.0810
  396MOL0     H52210   0.949   3.828  10.364 -1.0290 -0.9002  0.3397
  396MOL0     H52211   0.855   3.981  10.620 -0.1671 -0.5132  0.9910
  396MOL0     H52212   0.739   3.899  10.507  1.5063 -0.4763 -0.2355
  396MOL0     H52213   0.836   4.081  10.331 -1.9508  0.5003  0.0337
  396MOL0     H52214   0.836   4.172  10.479 -1.8029  1.6630  0.2350
  396MOL0     H52215   0.591   4.021  10.369 -0.8265 -0.8824  1.4324
  396MOL0     H52216   0.598   4.111  10.525  1.3010 -0.8965  0.0727
  396MOL0     H52217   0.663   4.246  10.264 -0.1277 -1.4219 -0.4580
  396MOL0     H52218   0.647   4.332  10.415 -1.8441  0.1720  0.7169
  396MOL0     H52219   0.412   4.245  10.445 -0.0443 -0.5831  0.5725
  396MOL0     H52220   0.415   4.181  10.286  2.6213 -1.9271  1.5588
  396MOL0     H52221   0.459   4.477  10.364  1.9782  0.1779 -0.5992
  396MOL0     H52222   0.495   4.407  10.201  0.8722  2.0840  0.1159
  396MOL0     H52223   0.256   4.345  10.190  1.0457 -0.8681 -0.2909
  396MOL0     H52224   0.277   4.520  10.190 -0.3521 -2.5030 -3.8220
  396MOL0     H52225   0.006   4.483  10.240  0.1863 -2.2778 -0.6753
  396MOL0     H52226  -0.163   4.604  10.469  1.8269  1.3344 -0.0944
  396MOL0     H52227  -0.143   4.500  10.604 -3.8223  3.1670 -0.1351
  396MOL0     H52228  -0.175   4.373  10.333  0.2054 -1.3450 -0.0406
  396MOL0     H52229  -0.314   4.412  10.436  0.5258  0.8336 -3.1142
  396MOL0     H52230  -0.104   4.201  10.464  1.7699  0.2358  1.1934
  396MOL0     H52231  -0.155   4.269  10.613 -0.5437 -2.1867 -0.9101
  396MOL0     H52232  -0.255   4.055  10.554  3.1594  1.3007  0.6958
  396MOL0     H52233  -0.325   4.129  10.407  0.2805 -0.9148  0.3215
  396MOL0     H52234  -0.642   4.215  10.688 -0.3029 -2.9896  2.5011
  396MOL0     H52235  -0.866   4.129  10.617 -1.8134 -0.2570 -1.6127
  396MOL0     H52236  -1.248   4.128  10.512 -0.2262 -0.5057  0.6059
  396MOL0     H52237  -1.467   4.029  10.555 -0.0506 -1.1902  2.8175
  396MOL0     H52238  -1.544   3.568  10.588  1.7813  0.4575 -0.2787
  396MOL0     H52239  -1.514   3.631  10.428  1.5793 -0.5262  1.4772
  396MOL0     H52240  -1.762   3.694  10.586 -0.6144  1.9304 -0.0935
  396MOL0     H52241  -1.754   3.576  10.454 -0.7846  1.6028 -4.1975
  396MOL0     H52242  -1.683   3.752  10.300  1.0681 -4.1495  1.8281
  396MOL0     H52243  -1.712   3.879  10.412 -1.8228  0.2696 -1.4654
  396MOL0     H52244  -1.929   3.679  10.323  3.2829 -1.8876  0.5844
  396MOL0     H52245  -1.945   3.784  10.465  0.4556  0.3010  0.0850
  396MOL0     H52246  -1.884   3.889  10.190 -0.3865  2.9002  0.6449
  396MOL0     H52247  -1.887   3.974  10.330  1.5129  1.3394 -1.5176
  396MOL0     H52248  -2.129   3.860  10.175 -2.8935  2.0316  0.2355
  396MOL0     H52249  -2.096   4.018  10.271  4.2796 -0.3824  2.9873
  396MOL0     H52250  -2.159   3.740  10.373  0.4097 -0.7440  1.5613
  396MOL0     H52251  -2.146   3.890  10.462 -2.2525 -0.9011 -0.1707
  396MOL0     H52252  -2.351   3.825  10.234  2.1421  1.1041 -1.0323
  396MOL0     H52253  -2.349   3.961  10.349 -2.3100 -1.1077  1.4921
  396MOL0     H52254  -1.303   3.632  10.499  0.3531 -0.3555  1.8645
  396MOL0     H52255  -1.088   3.718  10.455 -1.6678 -2.0944  2.3320
  396MOL0     H52256  -0.658   3.875  10.329  0.1261  0.9696 -1.5076
  396MOL0     H52257  -0.455   3.955  10.393 -0.1693 -1.6953  2.0531
  396MOL0     H52258   1.121   3.696  10.385  0.5946 -0.2163 -0.3489
  396MOL0     H52259   1.324   3.627  10.305  1.4004  0.4406  3.6549
  396MOL0     H52260   1.685   3.506  10.003  1.0795 -2.1586  3.9626
  396MOL0     H52261   1.916   3.476   9.906 -0.5433 -2.6004  1.5749
  396MOL0     H52262   2.115   3.518   9.809 -0.3273 -0.8817 -0.7970
  396MOL0     H52263   2.104   3.437   9.963  0.4208 -0.7148 -1.2300
  396MOL0     H52264   2.352   3.538  10.004  0.2338 -2.9843  2.2240
  396MOL0     H52265   2.306   3.381   9.952 -0.8733  0.6502  1.9078
  396MOL0     H52266   2.322   3.575   9.721 -0.8550 -1.0754 -1.6257
  396MOL0     H52267   2.367   3.404   9.736 -1.1640  1.4137 -1.1511
  396MOL0     H52268   2.557   3.551   9.705  1.3419 -0.6055 -0.5484
  396MOL0     H52269   2.537   3.630   9.863 -3.1073  1.2646 -0.4914
  396MOL0     H52270   2.707   3.257   9.973  0.2523  1.1689  1.4660
  396MOL0     H52271   2.036   3.811  10.150  0.2354 -2.6109  3.6095
  396MOL0     H52272   1.816   3.851  10.231 -1.6208  1.3445 -0.9350
  397MOL0     O52273  10.276   7.385   1.775 -0.0902 -0.7108 -0.0388
  397MOL0     C52274  10.297   7.433   1.884  0.4760 -0.2518  0.2307
  397MOL0     O52275  10.197   7.474   1.964 -0.3479 -0.9599 -0.0978
  397MOL0     C52276  10.064   7.462   1.922 -0.7540  0.4718  0.0405
  397MOL0     C52277  10.003   7.337   1.928 -0.6243 -0.2506 -0.1435
  397MOL0     C52278   9.865   7.326   1.911 -0.0754  1.0090 -0.6037
  397MOL0     C52279   9.790   7.445   1.886 -0.2156 -0.2376 -0.1728
  397MOL0     O52280   9.658   7.435   1.851 -0.3282 -0.1198 -0.2005
  397MOL0     C52281   9.564   7.421   1.960  0.3387  0.6597 -0.6329
  397MOL0     C52282   9.441   7.336   1.915  0.2452 -0.1947 -0.2691
  397MOL0     C52283   9.348   7.296   2.029  0.0976  0.6302 -0.1058
  397MOL0     C52284   9.252   7.416   2.066 -0.4049  0.9146 -0.0535
  397MOL0     C52285   9.149   7.384   2.171  0.9909 -0.6258 -0.5260
  397MOL0     C52286   9.047   7.493   2.186  0.9334 -0.3382 -0.8790
  397MOL0     C52287   8.963   7.461   2.311 -0.5960 -0.2513 -0.4078
  397MOL0     C52288   8.869   7.576   2.352 -0.2116  0.3039 -0.2532
  397MOL0     N52289   8.744   7.556   2.280 -0.4231 -0.1100  0.1268
  397MOL0     C52290   8.627   7.497   2.319  0.6345  0.4675  0.5269
  397MOL0     C52291   8.537   7.542   2.217 -0.2099 -0.2549 -0.0076
  397MOL0     C52292   8.391   7.509   2.221 -0.6011 -0.5235 -0.1965
  397MOL0     C52293   8.345   7.458   2.086 -0.8314 -1.1401 -0.0702
  397MOL0     C52294   8.199   7.435   2.068 -0.2717 -0.1975 -1.1848
  397MOL0     C52295   8.152   7.429   1.922  0.5366  0.0021 -0.6213
  397MOL0     O52296   8.101   7.556   1.875 -1.0311  0.1430 -1.0644
  397MOL0     C52297   8.036   7.555   1.752  0.0126 -0.0963 -0.3674
  397MOL0     C52298   7.972   7.671   1.722 -0.6695 -0.1991 -0.2964
  397MOL0     C52299   7.882   7.684   1.620 -0.4879  0.1451 -0.1951
  397MOL0     C52300   7.864   7.565   1.527 -0.2838  0.3280  0.3540
  397MOL0     C52301   7.768   7.568   1.420  0.7172 -0.8695  0.2691
  397MOL0     O52302   7.755   7.691   1.363 -0.7270  0.4666  0.0462
  397MOL0     C52303   7.652   7.705   1.271 -0.0470  0.9946  0.6451
  397MOL0     C52304   7.519   7.665   1.296  0.3823 -0.6781  0.6144
  397MOL0     C52305   7.412   7.704   1.212 -0.1074 -0.0703  1.1690
  397MOL0     C52306   7.435   7.801   1.107  0.2458  0.0739 -1.1016
  397MOL0     O52307   7.340   7.867   1.032  0.0443  0.5894 -0.0831
  397MOL0     C52308   7.200   7.856   1.054 -0.1920  0.8251  0.3698
  397MOL0     C52309   7.140   7.971   0.980 -0.6666 -0.0896  0.2368
  397MOL0     C52310   7.002   7.980   1.003 -0.0484  0.5759  0.5474
  397MOL0     C52311   6.928   8.067   0.897 -0.2799 -0.3550  0.1600
  397MOL0     C52312   6.791   8.103   0.938  0.3160 -0.4127  0.6064
  397MOL0     C52313   6.697   7.988   0.996  0.2537  0.1493 -0.7742
  397MOL0     C52314   6.558   8.059   1.017 -0.4026  0.6103  0.5528
  397MOL0     C52315   6.452   7.971   1.077  0.1097  0.0190  0.2231
  397MOL0    Cl52316   6.292   8.051   1.071 -0.7169 -0.2646  0.1818
  397MOL0     C52317   7.570   7.836   1.077 -0.0595  0.6949  0.0403
  397MOL0     C52318   7.674   7.788   1.159 -0.2958  0.8052  0.1043
  397MOL0     O52319   7.730   7.457   1.377 -0.0947 -0.6866 -0.4514
  397MOL0     C52320   7.942   7.459   1.550 -0.4666  0.7423 -0.6639
  397MOL0     C52321   8.021   7.446   1.667 -0.4179  0.0638  0.1623
  397MOL0     N52322   8.604   7.618   2.122  0.6412  1.2362 -0.2361
  397MOL0     N52323   8.729   7.607   2.154  0.3507  0.2846 -0.0676
  397MOL0     C52324   9.859   7.570   1.870 -0.0690  0.1717 -0.7250
  397MOL0     C52325   9.995   7.581   1.906  0.0841 -0.0906  0.6835
  397MOL0     C52326  10.433   7.453   1.941  0.1611  0.5427  0.0928
  397MOL0     C52327  10.546   7.432   1.861 -0.7740  0.4223  0.2723
  397MOL0     C52328  10.678   7.437   1.910  0.7125 -0.4207 -0.5343
  397MOL0     C52329  10.692   7.469   2.044  0.5551 -0.4787 -0.2664
  397MOL0     O52330  10.807   7.475   2.110 -0.5745 -0.3044 -0.1832
  397MOL0     C52331  10.920   7.424   2.043 -0.5488 -0.9736 -0.5312
  397MOL0     C52332  11.040   7.416   2.131  0.3209  0.3584 -0.3538
  397MOL0     C52333  11.016   7.318   2.246 -0.0595  0.2520  0.9551
  397MOL0     C52334  10.974   7.386   2.380 -0.7325 -0.2337  0.0469
  397MOL0     C52335  11.086   7.464   2.447  0.3871 -0.0230  0.1470
  397MOL0     C52336  11.193   7.523   2.462  0.4606 -0.2213 -0.0672
  397MOL0     C52337  10.578   7.491   2.124 -0.6307  0.4899 -0.0223
  397MOL0     C52338  10.449   7.470   2.081 -0.7479 -1.0231  0.0181
  397MOL0     H52339  10.068   7.256   1.959  0.8822 -0.7083 -3.9401
  397MOL0     H52340   9.814   7.231   1.921  0.1990  0.9893  0.9493
  397MOL0     H52341   9.518   7.517   1.988 -1.4026  0.1267 -1.5824
  397MOL0     H52342   9.609   7.381   2.052 -0.3491  2.3129  0.4851
  397MOL0     H52343   9.487   7.246   1.873 -1.0821 -0.6766 -0.7212
  397MOL0     H52344   9.385   7.380   1.832 -1.1764 -1.5881 -0.0688
  397MOL0     H52345   9.404   7.258   2.115  0.1061  0.0400 -0.3735
  397MOL0     H52346   9.294   7.209   1.993  1.2279 -0.0207 -0.2596
  397MOL0     H52347   9.307   7.502   2.106 -2.6101  2.0010  0.8006
  397MOL0     H52348   9.204   7.464   1.980 -0.3062  1.7418  0.3431
  397MOL0     H52349   9.193   7.365   2.269 -2.1835  2.3101  1.7242
  397MOL0     H52350   9.093   7.291   2.157  0.2352 -0.4207  0.9720
  397MOL0     H52351   8.990   7.493   2.093 -1.0709  1.9355  0.2283
  397MOL0     H52352   9.099   7.587   2.207 -0.6608  0.2534  0.7472
  397MOL0     H52353   8.905   7.370   2.292 -1.6930  0.1585  0.9144
  397MOL0     H52354   9.023   7.427   2.396 -1.4963 -0.6443  0.0740
  397MOL0     H52355   8.918   7.671   2.327  1.6171  0.3853  3.0668
  397MOL0     H52356   8.863   7.571   2.461  1.5570 -1.6544 -0.1793
  397MOL0     H52357   8.602   7.442   2.409  1.0709 -0.0348  0.3507
  397MOL0     H52358   8.336   7.601   2.243 -0.9614 -1.2597  2.3822
  397MOL0     H52359   8.372   7.438   2.303 -0.1889 -0.3700  0.0359
  397MOL0     H52360   8.402   7.366   2.070  2.2421  0.3644  1.3084
  397MOL0     H52361   8.385   7.530   2.014  3.3288 -2.8191  0.2550
  397MOL0     H52362   8.176   7.339   2.115 -0.7905  0.1268 -0.7489
  397MOL0     H52363   8.136   7.508   2.120  0.3536 -0.8027  0.4812
  397MOL0     H52364   8.072   7.354   1.921 -0.7769  1.3399  0.0054
  397MOL0     H52365   8.212   7.377   1.847 -2.1961  2.2938 -4.7690
  397MOL0     H52366   7.998   7.761   1.777  0.8712  0.9922 -2.8200
  397MOL0     H52367   7.824   7.775   1.613  0.4718  0.7947  0.1437
  397MOL0     H52368   7.492   7.589   1.369 -0.8321 -0.4604  0.4201
  397MOL0     H52369   7.308   7.677   1.229 -0.4874 -1.0044 -2.0523
  397MOL0     H52370   7.184   7.883   1.158  0.7996 -2.3218  1.4369
  397MOL0     H52371   7.152   7.761   1.029  0.8486  0.5925 -0.8269
  397MOL0     H52372   7.164   7.953   0.875 -0.0104  0.2002  0.3311
  397MOL0     H52373   7.187   8.067   1.004  1.5502 -1.3758  1.3196
  397MOL0     H52374   6.971   8.020   1.100  0.8909  3.8014 -0.3474
  397MOL0     H52375   6.962   7.880   0.985 -0.2118  0.2451  2.5264
  397MOL0     H52376   6.981   8.162   0.885  0.4357 -1.0035 -2.6793
  397MOL0     H52377   6.930   8.015   0.801  2.9765 -0.2362  0.0303
  397MOL0     H52378   6.746   8.135   0.843  0.7065  0.7844  0.8035
  397MOL0     H52379   6.789   8.192   1.003 -3.1582 -1.5359  2.2960
  397MOL0     H52380   6.733   7.951   1.092  1.6719  2.5072 -0.3357
  397MOL0     H52381   6.691   7.915   0.914  0.2257  0.9231 -1.4836
  397MOL0     H52382   6.582   8.145   1.081 -1.1705 -0.2119  2.0009
  397MOL0     H52383   6.526   8.099   0.921  1.6909 -0.3743 -0.6091
  397MOL0     H52384   6.476   7.943   1.180 -0.2667 -1.5451 -0.0919
  397MOL0     H52385   6.438   7.881   1.017 -1.0359  0.5525 -0.3562
  397MOL0     H52386   7.588   7.907   0.997  0.8307 -0.5793 -0.9354
  397MOL0     H52387   7.779   7.814   1.165  0.5837 -2.2368 -0.5047
  397MOL0     H52388   7.925   7.376   1.482 -0.9466  0.6210 -0.4028
  397MOL0     H52389   8.064   7.347   1.675 -1.0382 -0.5488 -2.9689
  397MOL0     H52390   9.814   7.664   1.842 -0.7732  0.2962  0.7134
  397MOL0     H52391  10.039   7.680   1.897  1.0413 -0.5097  0.6293
  397MOL0     H52392  10.525   7.402   1.759  0.2709 -1.7265  0.6443
  397MOL0     H52393  10.763   7.419   1.844  1.1888  0.7925 -0.2820
  397MOL0     H52394  10.961   7.497   1.972  3.7616 -1.7881  0.7753
  397MOL0     H52395  10.898   7.327   1.998 -1.6738 -0.2907 -1.4966
  397MOL0     H52396  11.125   7.382   2.071  1.1401 -0.2528  1.0909
  397MOL0     H52397  11.075   7.511   2.173  1.0481 -0.1093  0.1398
  397MOL0     H52398  11.094   7.243   2.257 -0.3349  0.0896  1.9613
  397MOL0     H52399  10.934   7.252   2.216 -1.0898  2.5730 -1.7746
  397MOL0     H52400  10.884   7.447   2.370 -1.6262 -1.4661  0.4322
  397MOL0     H52401  10.949   7.307   2.450  0.5375  0.7571  1.6896
  397MOL0     H52402  11.280   7.582   2.480  1.4148 -1.4729 -0.4347
  397MOL0     H52403  10.593   7.512   2.230 -0.3353 -2.6776  0.6746
  397MOL0     H52404  10.365   7.474   2.149  0.6859  0.5469  1.8033
  398MOL0     O52405   6.030   1.573   5.583  0.0675  0.5156  0.1256
  398MOL0     C52406   6.055   1.600   5.698 -0.2259  0.6479  0.1689
  398MOL0     O52407   5.960   1.625   5.794  0.0499 -0.1489 -0.7128
  398MOL0     C52408   5.829   1.632   5.765  0.2878  0.5994 -0.0593
  398MOL0     C52409   5.763   1.506   5.776 -0.7367 -0.3048  1.6179
  398MOL0     C52410   5.622   1.493   5.764  0.3335 -0.0588  0.1828
  398MOL0     C52411   5.550   1.604   5.723  0.4676  0.4568 -0.3544
  398MOL0     O52412   5.419   1.594   5.697 -0.2954  0.2238  0.1031
  398MOL0     C52413   5.380   1.508   5.585 -0.3932  0.9393  0.9236
  398MOL0     C52414   5.225   1.509   5.567  0.1539 -0.3468  0.4679
  398MOL0     C52415   5.188   1.655   5.532 -0.7342  1.3566 -0.4481
  398MOL0     C52416   5.040   1.676   5.501 -0.1385  1.0502  0.2774
  398MOL0     C52417   5.014   1.674   5.352 -0.3220  0.1353 -0.7455
  398MOL0     C52418   4.869   1.726   5.322 -0.2093 -0.0533  0.0986
  398MOL0     C52419   4.866   1.777   5.172  0.1809 -0.8712 -0.2326
  398MOL0     C52420   4.747   1.875   5.146 -0.9496 -0.0353  0.2814
  398MOL0     N52421   4.627   1.839   5.220 -0.6300  0.5338 -0.1562
  398MOL0     C52422   4.563   1.913   5.318 -1.2760  0.3318 -0.1655
  398MOL0     C52423   4.457   1.841   5.361  0.1577  0.4290 -0.2850
  398MOL0     C52424   4.359   1.886   5.469 -0.4202 -0.3344  0.3326
  398MOL0     C52425   4.256   1.966   5.393 -0.5511  0.0722  0.7755
  398MOL0     C52426   4.184   2.065   5.483 -0.5044  0.3481  0.0145
  398MOL0     C52427   4.045   2.104   5.445 -0.1574 -0.3547 -0.4734
  398MOL0     O52428   4.039   2.163   5.310 -0.3076 -0.4065  0.2940
  398MOL0     C52429   3.918   2.162   5.247 -0.1372 -0.0372  0.1511
  398MOL0     C52430   3.794   2.107   5.290  0.5824 -0.3578  0.5615
  398MOL0     C52431   3.683   2.104   5.203 -0.4464 -0.4929 -0.2019
  398MOL0     C52432   3.685   2.170   5.075 -0.3837  0.9673  0.5022
  398MOL0     C52433   3.569   2.180   4.996  0.1119  0.4120 -0.1196
  398MOL0     O52434   3.448   2.156   5.057  0.2575  0.0490  0.0126
  398MOL0     C52435   3.326   2.163   4.985  0.0760 -0.3511  0.4188
  398MOL0     C52436   3.211   2.155   5.070 -0.5065  0.4425 -0.4338
  398MOL0     C52437   3.078   2.145   5.017 -0.5690 -1.2375  0.6149
  398MOL0     C52438   3.063   2.151   4.882  0.5501 -0.5915  0.7800
  398MOL0     O52439   2.925   2.144   4.856  0.7919  0.6253  0.4714
  398MOL0     C52440   2.890   2.095   4.723  1.0459  0.3606 -1.0808
  398MOL0     C52441   2.739   2.090   4.703  0.4553 -0.0616  0.0959
  398MOL0     C52442   2.674   1.993   4.800 -0.2940 -0.6067 -0.8623
  398MOL0     C52443   2.525   1.960   4.775  0.1795 -0.0555  0.4464
  398MOL0     C52444   2.498   1.861   4.654 -0.5626  0.2171 -0.0262
  398MOL0     C52445   2.351   1.843   4.629  0.6431  0.7391  0.2424
  398MOL0     C52446   2.329   1.724   4.546  0.2525  0.0922  0.0578
  398MOL0     C52447   2.183   1.673   4.546 -0.2260  0.7437  0.2332
  398MOL0    Cl52448   2.120   1.629   4.382  0.1548 -0.3347 -0.0342
  398MOL0     C52449   3.171   2.174   4.794 -0.0978  0.4172 -0.1862
  398MOL0     C52450   3.296   2.185   4.845 -1.4907  0.2874  0.1008
  398MOL0     O52451   3.590   2.219   4.879  0.3461  0.3303 -0.3917
  398MOL0     C52452   3.812   2.225   5.041  0.0678 -0.1689  0.4669
  398MOL0     C52453   3.927   2.218   5.120 -0.9314  0.3531 -0.0053
  398MOL0     N52454   4.451   1.732   5.289  0.2344 -0.1657 -0.1890
  398MOL0     N52455   4.552   1.723   5.204  0.2434  0.3619 -1.0635
  398MOL0     C52456   5.620   1.719   5.692 -0.1322 -0.1956  0.0690
  398MOL0     C52457   5.755   1.738   5.714  0.5150  0.1139 -1.3799
  398MOL0     C52458   6.201   1.620   5.737 -0.0948 -0.1874  0.1340
  398MOL0     C52459   6.312   1.587   5.652 -0.2192  0.5349  0.3742
  398MOL0     C52460   6.443   1.624   5.692 -0.5130 -0.8144 -0.6459
  398MOL0     C52461   6.461   1.712   5.811 -0.8209  0.1404  0.3827
  398MOL0     O52462   6.583   1.769   5.851  0.1245 -0.5028  0.1568
  398MOL0     C52463   6.696   1.782   5.762  0.8383 -0.6274  0.5668
  398MOL0     C52464   6.668   1.904   5.669 -0.0768 -0.0874  0.2066
  398MOL0     C52465   6.781   1.987   5.611  0.1451  0.5965 -0.1637
  398MOL0     C52466   6.917   1.913   5.591  0.1039  0.3318  0.6422
  398MOL0     C52467   6.904   1.819   5.471 -0.4833  0.4049 -1.1660
  398MOL0     C52468   6.898   1.718   5.397  0.2950  0.1391  0.0632
  398MOL0     C52469   6.348   1.736   5.895 -0.0529 -0.2505  0.4964
  398MOL0     C52470   6.217   1.677   5.866 -0.4406  0.2649  0.8465
  398MOL0     H52471   5.839   1.430   5.796  0.6702  0.6495  0.1505
  398MOL0     H52472   5.573   1.397   5.775 -0.9023  0.2361 -2.1348
  398MOL0     H52473   5.415   1.405   5.597 -1.8822  0.2714 -0.1819
  398MOL0     H52474   5.427   1.546   5.494 -0.5115  0.2601  0.5721
  398MOL0     H52475   5.178   1.487   5.663  0.5848 -0.2441  0.7059
  398MOL0     H52476   5.197   1.434   5.493  2.8782 -0.8976 -0.0942
  398MOL0     H52477   5.246   1.679   5.443  1.9810 -0.5373  0.6773
  398MOL0     H52478   5.207   1.713   5.623 -4.2102  2.0583 -0.0159
  398MOL0     H52479   4.970   1.618   5.561  0.3595  1.5262  1.3522
  398MOL0     H52480   5.015   1.776   5.539  0.6948  1.1244  0.6619
  398MOL0     H52481   5.033   1.574   5.310 -1.8266 -1.3987  1.9218
  398MOL0     H52482   5.086   1.748   5.317  0.2204  1.9836  3.6309
  398MOL0     H52483   4.843   1.806   5.393  0.1189  1.5716 -1.5319
  398MOL0     H52484   4.798   1.646   5.347 -0.4989  0.6068  1.4974
  398MOL0     H52485   4.948   1.847   5.153 -0.5845 -0.6635 -3.3800
  398MOL0     H52486   4.882   1.700   5.096  0.2982 -0.1330 -0.9713
  398MOL0     H52487   4.723   1.879   5.040  0.8449  0.3336 -0.1429
  398MOL0     H52488   4.779   1.977   5.168 -3.8100  0.8643  0.6650
  398MOL0     H52489   4.604   2.010   5.343 -0.7759  0.1673 -0.3333
  398MOL0     H52490   4.409   1.943   5.548  0.4921  0.1369 -0.5530
  398MOL0     H52491   4.314   1.799   5.517  0.1761  0.5921  2.7233
  398MOL0     H52492   4.195   1.894   5.338 -0.3128  0.2124  0.3240
  398MOL0     H52493   4.294   2.027   5.311 -4.5174 -0.1462 -1.4960
  398MOL0     H52494   4.168   2.023   5.583 -3.8233  1.4044  0.0370
  398MOL0     H52495   4.251   2.151   5.498  2.4763 -2.1953  2.6414
  398MOL0     H52496   3.998   2.183   5.504 -1.8076 -1.8581  0.3152
  398MOL0     H52497   3.986   2.012   5.455 -0.1849 -0.5725 -2.2855
  398MOL0     H52498   3.788   2.073   5.393 -0.2028  2.1991  1.4238
  398MOL0     H52499   3.591   2.057   5.233  0.4237 -0.8288  2.1393
  398MOL0     H52500   3.229   2.140   5.176  4.0281  0.8835 -0.9517
  398MOL0     H52501   2.994   2.135   5.085 -1.1107 -0.3618  0.0891
  398MOL0     H52502   2.918   1.990   4.712 -2.0141 -1.0372  2.3557
  398MOL0     H52503   2.942   2.159   4.652  3.9750  0.3566  0.9027
  398MOL0     H52504   2.702   2.062   4.604 -0.1985 -1.7887  0.8042
  398MOL0     H52505   2.706   2.192   4.725 -0.6509 -0.9250  2.7705
  398MOL0     H52506   2.686   2.041   4.898  0.1954 -3.3365  0.5129
  398MOL0     H52507   2.725   1.897   4.803  0.2929 -0.2739  1.3129
  398MOL0     H52508   2.483   1.918   4.867  1.4177 -1.1807  0.5353
  398MOL0     H52509   2.470   2.052   4.754  1.3515  0.3092 -1.2640
  398MOL0     H52510   2.542   1.762   4.660 -0.8095  0.1406  0.6175
  398MOL0     H52511   2.549   1.908   4.569 -0.4967  0.2049  0.0066
  398MOL0     H52512   2.315   1.935   4.581 -0.4922  0.2852  0.1937
  398MOL0     H52513   2.298   1.828   4.723 -1.0049 -4.2166 -1.1377
  398MOL0     H52514   2.364   1.750   4.445  0.1109  1.0617  0.2538
  398MOL0     H52515   2.390   1.637   4.572  1.4847  0.5231 -1.2458
  398MOL0     H52516   2.112   1.743   4.591  0.8613  1.2492  1.2327
  398MOL0     H52517   2.191   1.594   4.621  1.6045  0.4662 -0.1990
  398MOL0     H52518   3.162   2.205   4.691 -1.2094 -1.0043 -0.5474
  398MOL0     H52519   3.371   2.227   4.779  0.0079  2.6459  3.0465
  398MOL0     H52520   3.820   2.283   4.949 -1.3318 -4.1696 -2.4963
  398MOL0     H52521   4.024   2.250   5.083 -0.7608 -0.1335  0.0044
  398MOL0     H52522   5.555   1.802   5.665  1.3959  1.4546  1.2072
  398MOL0     H52523   5.802   1.835   5.708  1.6483  0.4999  5.6534
  398MOL0     H52524   6.284   1.531   5.563  0.3292 -0.2608  0.6845
  398MOL0     H52525   6.528   1.581   5.640  1.0847  0.4787  0.7903
  398MOL0     H52526   6.721   1.692   5.705 -0.8538 -2.6687  2.8250
  398MOL0     H52527   6.770   1.800   5.841  0.1584 -2.5109  1.6983
  398MOL0     H52528   6.626   1.855   5.581  0.3500 -1.5227  0.7702
  398MOL0     H52529   6.601   1.972   5.720 -0.9141  0.1445 -1.1640
  398MOL0     H52530   6.804   2.060   5.689  1.5540 -1.3024  1.2804
  398MOL0     H52531   6.749   2.040   5.520  1.1411 -0.6228 -1.2598
  398MOL0     H52532   6.992   1.993   5.588 -0.0277  0.4666  0.8884
  398MOL0     H52533   6.931   1.852   5.681 -4.8457 -3.3354 -0.7079
  398MOL0     H52534   6.892   1.630   5.336 -0.8016 -0.9353  1.6384
  398MOL0     H52535   6.350   1.802   5.982  0.6990  1.3756 -0.7008
  398MOL0     H52536   6.143   1.681   5.945  0.5772  1.7478  1.7843
  399MOL0     O52537   1.585   3.569   8.657  0.1694  0.7435 -0.2625
  399MOL0     C52538   1.655   3.669   8.657  0.6803  0.6043  0.6296
  399MOL0     O52539   1.616   3.793   8.681 -0.6655 -0.1926 -0.6913
  399MOL0     C52540   1.483   3.809   8.678 -0.6113  0.9249  0.4121
  399MOL0     C52541   1.416   3.803   8.558 -0.1008  0.8204  0.2644
  399MOL0     C52542   1.279   3.813   8.543  0.4161 -0.4951  1.0823
  399MOL0     C52543   1.202   3.859   8.656 -0.5518  0.2809 -0.2973
  399MOL0     O52544   1.072   3.901   8.645  0.1371  0.1493 -0.5188
  399MOL0     C52545   1.024   3.937   8.512  0.2703  0.3230 -0.4658
  399MOL0     C52546   0.887   4.015   8.531  1.2435  0.0446 -0.5842
  399MOL0     C52547   0.766   3.932   8.564 -0.0925 -0.2190  0.2443
  399MOL0     C52548   0.634   3.994   8.572 -0.2757 -0.0811  0.3690
  399MOL0     C52549   0.527   3.888   8.574 -0.0325  0.1292  0.4262
  399MOL0     C52550   0.536   3.790   8.700 -0.5164 -0.2046 -0.1529
  399MOL0     C52551   0.418   3.693   8.723  0.2426 -0.8200 -0.5117
  399MOL0     C52552   0.290   3.757   8.772 -0.5558  0.0284  0.1384
  399MOL0     N52553   0.291   3.823   8.905 -0.0655 -0.0046 -0.7516
  399MOL0     C52554   0.367   3.800   9.016 -0.8692 -0.0073 -0.5175
  399MOL0     C52555   0.309   3.851   9.128  0.8530 -0.1920  0.2691
  399MOL0     C52556   0.358   3.867   9.271 -0.1376 -0.2913  0.3891
  399MOL0     C52557   0.256   3.858   9.383  0.4363 -0.6284 -0.1850
  399MOL0     C52558   0.297   3.948   9.501  0.4446 -0.1801 -0.1222
  399MOL0     C52559   0.196   3.954   9.613  0.3381  0.2275 -0.5519
  399MOL0     O52560   0.071   4.004   9.571 -0.0517 -0.1558  0.2927
  399MOL0     C52561  -0.043   3.982   9.647  0.2651  0.1837 -0.6770
  399MOL0     C52562  -0.045   3.955   9.788 -0.1721 -1.0048 -0.3532
  399MOL0     C52563  -0.173   3.947   9.854 -0.3914  1.0825  0.3120
  399MOL0     C52564  -0.287   3.947   9.783  0.1469  0.7517 -0.5181
  399MOL0     C52565  -0.415   3.915   9.851  0.1196 -0.4431 -0.4168
  399MOL0     O52566  -0.524   3.899   9.761  0.0200 -0.1837  0.5788
  399MOL0     C52567  -0.646   3.845   9.806  0.4993 -0.0952  0.5972
  399MOL0     C52568  -0.671   3.744   9.901 -0.1207 -0.7967 -0.0428
  399MOL0     C52569  -0.798   3.706   9.931 -0.7498  0.4182 -0.2531
  399MOL0     C52570  -0.904   3.780   9.879  0.0243  0.1038  0.8397
  399MOL0     O52571  -1.033   3.748   9.904 -0.2379 -0.4889 -0.7490
  399MOL0     C52572  -1.063   3.653  10.013  0.1465 -0.3634  0.3358
  399MOL0     C52573  -1.219   3.627  10.033 -0.4510  0.0787 -0.0516
  399MOL0     C52574  -1.303   3.758  10.027 -0.3882 -0.0692 -0.3834
  399MOL0     C52575  -1.246   3.852  10.132  1.0817 -0.2674 -0.2250
  399MOL0     C52576  -1.285   3.989  10.082 -0.7587  0.4404  0.3122
  399MOL0     C52577  -1.235   4.107  10.154  0.9037 -0.0441  0.7496
  399MOL0     C52578  -1.081   4.125  10.180 -0.2633 -0.0025  0.6258
  399MOL0     C52579  -0.989   4.107  10.058 -0.4405 -0.2729 -0.1800
  399MOL0    Cl52580  -1.030   4.231   9.938 -0.2277 -0.3951  0.2235
  399MOL0     C52581  -0.889   3.878   9.784 -0.6515 -0.4696  0.2835
  399MOL0     C52582  -0.756   3.914   9.750  0.0598  0.9279  0.2455
  399MOL0     O52583  -0.424   3.916   9.978 -0.2622  0.0282 -0.5108
  399MOL0     C52584  -0.286   3.988   9.653 -0.0648  0.5135  0.5907
  399MOL0     C52585  -0.167   4.008   9.590 -0.1106  0.7285  0.9078
  399MOL0     N52586   0.197   3.908   9.082  0.0400  0.0340 -0.5038
  399MOL0     N52587   0.186   3.892   8.958  0.0137 -0.5707  0.1666
  399MOL0     C52588   1.265   3.864   8.782  0.2624 -0.1166 -0.4566
  399MOL0     C52589   1.398   3.824   8.798 -0.6619  0.1535 -0.1427
  399MOL0     C52590   1.798   3.632   8.636  0.3019  0.4400 -0.3065
  399MOL0     C52591   1.856   3.501   8.649  0.2927  0.2496 -0.1178
  399MOL0     C52592   1.995   3.502   8.637 -0.3684  0.3885  0.0475
  399MOL0     C52593   2.078   3.609   8.608 -0.5821 -0.4316 -0.2770
  399MOL0     O52594   2.215   3.596   8.614  0.0716  0.2158 -0.8996
  399MOL0     C52595   2.303   3.711   8.580 -0.8010 -0.2087 -0.6887
  399MOL0     C52596   2.452   3.678   8.567  0.0061 -0.7665 -0.0625
  399MOL0     C52597   2.535   3.809   8.558  0.0007  0.6556 -0.5558
  399MOL0     C52598   2.689   3.791   8.548 -0.0664 -0.6711  0.5242
  399MOL0     C52599   2.720   3.733   8.418 -0.4068  0.1168 -0.3550
  399MOL0     C52600   2.756   3.697   8.309 -0.3132 -0.5470  0.7311
  399MOL0     C52601   2.018   3.735   8.604 -0.1258  0.5535 -0.0484
  399MOL0     C52602   1.885   3.744   8.626  0.7452 -0.2796  0.8118
  399MOL0     H52603   1.483   3.792   8.473  2.1888  0.1298  2.0834
  399MOL0     H52604   1.222   3.804   8.451 -2.4451 -2.4160  2.8876
  399MOL0     H52605   1.001   3.852   8.448  2.5681 -0.7710  0.0467
  399MOL0     H52606   1.100   3.992   8.456  2.1490 -0.2732  1.3795
  399MOL0     H52607   0.867   4.067   8.436 -0.0814  1.2015  0.2838
  399MOL0     H52608   0.891   4.083   8.617  1.8985 -0.6388 -0.0675
  399MOL0     H52609   0.788   3.886   8.661 -0.4044 -1.7219 -0.3563
  399MOL0     H52610   0.749   3.842   8.503  0.9658 -2.7476  3.4280
  399MOL0     H52611   0.630   4.051   8.665 -2.0161 -1.1456  0.9824
  399MOL0     H52612   0.618   4.059   8.485 -2.9467 -0.6516  0.3541
  399MOL0     H52613   0.523   3.831   8.481 -1.8754 -0.5600  0.8734
  399MOL0     H52614   0.429   3.937   8.577 -1.4319 -2.5571  0.7975
  399MOL0     H52615   0.547   3.855   8.787  1.3983 -0.5240 -0.1208
  399MOL0     H52616   0.624   3.726   8.697 -1.0205 -0.9481  0.6417
  399MOL0     H52617   0.389   3.650   8.627  0.3340  0.9865 -1.3872
  399MOL0     H52618   0.452   3.610   8.786 -2.0315 -1.8043 -0.5139
  399MOL0     H52619   0.223   3.672   8.782 -0.0394 -0.2942  0.9231
  399MOL0     H52620   0.263   3.832   8.696 -0.4100 -0.5423 -0.4796
  399MOL0     H52621   0.463   3.750   9.021 -1.5149 -1.1763  0.4762
  399MOL0     H52622   0.405   3.966   9.268 -0.2497 -0.2547 -0.8983
  399MOL0     H52623   0.434   3.790   9.289 -0.6161 -0.4000  2.0447
  399MOL0     H52624   0.262   3.756   9.421  0.2204 -0.1987  1.0721
  399MOL0     H52625   0.161   3.885   9.336  0.4614 -0.0377  0.0897
  399MOL0     H52626   0.394   3.916   9.540 -0.3226 -3.1007 -0.3416
  399MOL0     H52627   0.309   4.048   9.458  1.3356 -1.2686 -2.6814
  399MOL0     H52628   0.233   4.014   9.697 -2.7022  2.2493 -0.5273
  399MOL0     H52629   0.185   3.851   9.649  2.1727  0.2667  0.2604
  399MOL0     H52630   0.048   3.961   9.843 -0.8851  0.6045  0.7764
  399MOL0     H52631  -0.184   3.930   9.961  2.0784 -1.1677  0.3200
  399MOL0     H52632  -0.589   3.687   9.942  1.5284  0.6523 -1.1908
  399MOL0     H52633  -0.809   3.621   9.998  1.3521  0.8587  0.7231
  399MOL0     H52634  -1.019   3.687  10.108 -0.6405  1.1679  0.1879
  399MOL0     H52635  -1.024   3.553   9.992 -0.2056 -1.1410  2.9992
  399MOL0     H52636  -1.222   3.573  10.128  2.9949 -1.3830 -0.6404
  399MOL0     H52637  -1.252   3.558   9.955  0.3854 -1.5371  0.9689
  399MOL0     H52638  -1.409   3.744  10.048 -0.8645  2.8035 -0.5389
  399MOL0     H52639  -1.293   3.799   9.926 -1.7070  1.4707  0.0794
  399MOL0     H52640  -1.295   3.837  10.228  0.1872 -0.4760 -0.7006
  399MOL0     H52641  -1.137   3.856  10.147  0.7743  1.0524  2.0974
  399MOL0     H52642  -1.395   3.988  10.082 -0.7890 -0.0552 -1.8287
  399MOL0     H52643  -1.248   4.001   9.980 -1.2187  0.0539  0.0991
  399MOL0     H52644  -1.271   4.100  10.257  0.2862  1.3219  0.6532
  399MOL0     H52645  -1.275   4.200  10.112 -3.5178 -0.9780  2.4249
  399MOL0     H52646  -1.065   4.228  10.213 -2.5032  0.3627  0.7239
  399MOL0     H52647  -1.049   4.060  10.262  1.7516  0.7738  0.5153
  399MOL0     H52648  -1.002   4.005  10.022  0.6741  0.0709 -1.6984
  399MOL0     H52649  -0.885   4.126  10.086  0.2589  0.6734 -3.0884
  399MOL0     H52650  -0.971   3.927   9.733  0.2107  2.7029  1.7255
  399MOL0     H52651  -0.731   3.975   9.664  1.5950  1.2112  0.8459
  399MOL0     H52652  -0.371   4.010   9.590  1.8630  3.5105 -1.2479
  399MOL0     H52653  -0.165   4.043   9.487 -0.5331  2.9899  1.6110
  399MOL0     H52654   1.211   3.883   8.875  0.3092  3.2030 -1.0162
  399MOL0     H52655   1.443   3.840   8.895  2.2167 -1.9439 -0.9897
  399MOL0     H52656   1.797   3.414   8.676 -3.9451  2.4527 -1.3881
  399MOL0     H52657   2.029   3.400   8.649 -0.4350  0.5869  2.6504
  399MOL0     H52658   2.289   3.785   8.659 -0.1864  0.0893 -0.8554
  399MOL0     H52659   2.277   3.754   8.483  1.5494 -2.2102 -2.3224
  399MOL0     H52660   2.485   3.626   8.658 -3.3821 -0.5389  1.4352
  399MOL0     H52661   2.466   3.624   8.472  1.6651  1.8303 -1.3953
  399MOL0     H52662   2.524   3.862   8.654  0.9176  0.0586 -0.1104
  399MOL0     H52663   2.488   3.876   8.485  0.7959 -0.0708 -1.7472
  399MOL0     H52664   2.744   3.884   8.564 -1.7769  0.6929 -1.1801
  399MOL0     H52665   2.729   3.718   8.619  2.4726  0.2897  0.1909
  399MOL0     H52666   2.790   3.667   8.212 -2.8694  2.9475 -1.4812
  399MOL0     H52667   2.080   3.824   8.607 -2.3297  2.4702 -3.4696
  399MOL0     H52668   1.857   3.849   8.621  1.8448 -0.0192 -2.9140
  400MOL0     O52669   7.379   9.725   4.966  0.4113  0.0070 -0.0564
  400MOL0     C52670   7.379   9.843   4.957  0.3077 -0.0655 -0.1168
  400MOL0     O52671   7.348   9.913   4.843 -0.3611 -0.3166  0.6046
  400MOL0     C52672   7.315   9.841   4.730 -0.7105 -0.0580 -0.0084
  400MOL0     C52673   7.402   9.749   4.667  0.9082  0.6676  0.2140
  400MOL0     C52674   7.386   9.696   4.535  0.3220 -0.1616 -0.1998
  400MOL0     C52675   7.264   9.738   4.467 -0.6888 -0.1200 -0.7338
  400MOL0     O52676   7.236   9.703   4.344  0.4997 -0.7631 -0.2304
  400MOL0     C52677   7.299   9.590   4.275  0.2274 -0.1777  0.1921
  400MOL0     C52678   7.246   9.459   4.331 -0.0133  0.3707 -0.1904
  400MOL0     C52679   7.097   9.449   4.321  0.2692 -0.2649 -0.3869
  400MOL0     C52680   7.047   9.421   4.181  0.7254  0.2450  0.3007
  400MOL0     C52681   6.919   9.335   4.200 -0.0528 -0.5243  0.8618
  400MOL0     C52682   6.814   9.409   4.279 -0.0910 -0.0545  1.2087
  400MOL0     C52683   6.668   9.349   4.277  0.1599  0.2314 -0.6394
  400MOL0     C52684   6.577   9.433   4.365 -0.2587  0.3486  0.3107
  400MOL0     N52685   6.450   9.375   4.375  0.9406  0.0636 -0.7958
  400MOL0     C52686   6.336   9.454   4.385 -0.1750 -0.7138  0.0468
  400MOL0     C52687   6.231   9.375   4.416 -0.8237 -0.6852 -1.1389
  400MOL0     C52688   6.092   9.428   4.408  0.4658  0.2423 -1.4689
  400MOL0     C52689   5.990   9.332   4.487  0.4831 -0.3989 -0.0132
  400MOL0     C52690   5.866   9.407   4.537 -0.2762  0.4488  0.6161
  400MOL0     C52691   5.747   9.426   4.441 -0.7740  0.8683  1.0918
  400MOL0     O52692   5.657   9.502   4.520  0.9302  0.4261  0.0976
  400MOL0     C52693   5.524   9.491   4.493  0.1942 -0.0738 -0.4489
  400MOL0     C52694   5.462   9.421   4.389 -0.1910 -0.3903 -0.1178
  400MOL0     C52695   5.324   9.399   4.391  0.2344  0.3290 -1.3353
  400MOL0     C52696   5.249   9.472   4.490 -0.1237  0.5178  0.7077
  400MOL0     C52697   5.107   9.446   4.488  0.1665  0.0903 -0.0119
  400MOL0     O52698   5.053   9.348   4.408 -0.1457 -0.1813  0.7467
  400MOL0     C52699   4.926   9.316   4.440  0.3480  0.8516  0.0893
  400MOL0     C52700   4.909   9.179   4.476  0.8984 -0.4700 -0.6383
  400MOL0     C52701   4.783   9.129   4.508  0.0943  0.7099  0.1071
  400MOL0     C52702   4.668   9.203   4.505  0.2071 -0.5776 -0.0753
  400MOL0     O52703   4.543   9.158   4.540 -0.1745  0.7568 -0.0967
  400MOL0     C52704   4.516   9.018   4.495 -0.2919 -0.3926  0.2339
  400MOL0     C52705   4.375   8.994   4.451  0.3493  0.4200  0.5896
  400MOL0     C52706   4.269   9.050   4.551  0.9813  0.2773 -0.5621
  400MOL0     C52707   4.124   8.999   4.515  0.0247  0.1285 -1.0098
  400MOL0     C52708   4.031   9.051   4.635 -0.1201  0.1549  0.8316
  400MOL0     C52709   4.042   8.976   4.774  0.1255 -0.1140  0.0807
  400MOL0     C52710   3.925   9.010   4.866 -0.6686 -0.3303 -0.3011
  400MOL0     C52711   3.977   9.096   4.986 -0.1261 -0.1219 -0.8118
  400MOL0    Cl52712   4.098   9.023   5.086 -0.1019  0.0809 -0.0724
  400MOL0     C52713   4.689   9.339   4.475  0.5259  0.0895  0.1819
  400MOL0     C52714   4.817   9.400   4.442  0.8838 -0.1852  0.8565
  400MOL0     O52715   5.052   9.507   4.578 -0.1489 -0.3055 -0.3032
  400MOL0     C52716   5.315   9.540   4.598 -0.0179  0.8370 -0.7233
  400MOL0     C52717   5.453   9.531   4.608 -0.1880 -0.6424 -0.8741
  400MOL0     N52718   6.284   9.247   4.427  0.6889 -0.0567 -0.3402
  400MOL0     N52719   6.416   9.253   4.418 -0.2288  0.8756  0.5548
  400MOL0     C52720   7.177   9.820   4.535  1.4186 -0.1282 -0.1670
  400MOL0     C52721   7.199   9.872   4.659  0.0968 -0.2863 -0.0717
  400MOL0     C52722   7.406   9.917   5.083 -0.1740 -0.2829 -0.5201
  400MOL0     C52723   7.384   9.861   5.210  0.4132 -0.1802 -0.6035
  400MOL0     C52724   7.423   9.925   5.329 -0.5648  0.3106  0.6243
  400MOL0     C52725   7.479  10.055   5.325  0.5279  0.2263  0.2241
  400MOL0     O52726   7.494  10.120   5.449 -0.1060  0.3804 -0.0932
  400MOL0     C52727   7.547  10.257   5.448 -0.0381  0.2860 -0.8304
  400MOL0     C52728   7.691  10.266   5.437 -0.2293  0.2249 -0.8059
  400MOL0     C52729   7.746  10.403   5.447  0.3702 -0.7577  0.1779
  400MOL0     C52730   7.877  10.416   5.362  0.4359 -0.5233  0.1881
  400MOL0     C52731   7.854  10.442   5.219 -0.0097 -0.1559 -0.2602
  400MOL0     C52732   7.833  10.483   5.105  0.1240 -0.0491 -0.3071
  400MOL0     C52733   7.499  10.116   5.200 -0.0527  0.2115  0.0487
  400MOL0     C52734   7.469  10.047   5.083  0.2569 -0.1168  0.2836
  400MOL0     H52735   7.498   9.720   4.710  0.9672 -0.4676 -0.6274
  400MOL0     H52736   7.460   9.628   4.493 -0.5000 -1.8515  1.0043
  400MOL0     H52737   7.407   9.592   4.289  0.2484 -0.8313  0.1525
  400MOL0     H52738   7.276   9.596   4.169 -1.3451 -0.9490  0.4501
  400MOL0     H52739   7.273   9.451   4.437  3.6714 -1.3250 -1.1002
  400MOL0     H52740   7.286   9.374   4.276 -2.9694 -2.4920  1.7136
  400MOL0     H52741   7.050   9.536   4.368  3.5717  0.1032  2.6563
  400MOL0     H52742   7.073   9.360   4.379  0.3594  1.3565  2.3099
  400MOL0     H52743   7.033   9.520   4.137  0.6081  0.0254 -0.1600
  400MOL0     H52744   7.134   9.382   4.127  0.1194  1.4348 -1.6602
  400MOL0     H52745   6.941   9.238   4.246 -0.1826 -1.0115 -0.0779
  400MOL0     H52746   6.873   9.325   4.101  1.3849 -0.6167  0.1642
  400MOL0     H52747   6.808   9.503   4.224  1.2917 -0.8949 -0.4859
  400MOL0     H52748   6.851   9.429   4.380 -0.6282  1.6670  1.0908
  400MOL0     H52749   6.627   9.355   4.175 -0.0665 -0.1338 -0.5722
  400MOL0     H52750   6.674   9.245   4.310  2.6289  0.7922  0.9322
  400MOL0     H52751   6.582   9.535   4.324 -0.8192 -0.3619 -1.6161
  400MOL0     H52752   6.622   9.429   4.465 -0.7225  2.0087  0.6257
  400MOL0     H52753   6.332   9.559   4.357 -0.6753 -1.5611 -3.4713
  400MOL0     H52754   6.068   9.443   4.302  2.0922 -2.4743 -2.3053
  400MOL0     H52755   6.089   9.531   4.445 -2.1209 -0.7442  1.4574
  400MOL0     H52756   6.055   9.305   4.571 -0.3898  0.7028  1.0637
  400MOL0     H52757   5.956   9.256   4.416 -0.9992 -1.5439  1.8282
  400MOL0     H52758   5.823   9.357   4.624  0.8825  0.1839  1.0550
  400MOL0     H52759   5.910   9.501   4.572  1.5989 -0.3969  0.6450
  400MOL0     H52760   5.708   9.331   4.404 -0.6008  2.0560 -2.5732
  400MOL0     H52761   5.772   9.476   4.347  0.4211 -2.1623 -0.3508
  400MOL0     H52762   5.520   9.404   4.300  0.6637 -1.6768  0.6532
  400MOL0     H52763   5.281   9.357   4.301  0.8966  0.0434 -1.5246
  400MOL0     H52764   5.001   9.121   4.480  1.5230  0.4688 -0.9473
  400MOL0     H52765   4.771   9.026   4.540  0.5939  1.1752  1.9330
  400MOL0     H52766   4.531   8.954   4.582 -0.7686 -0.6863  0.1070
  400MOL0     H52767   4.579   8.982   4.413  2.4524  0.8218  1.6740
  400MOL0     H52768   4.364   8.885   4.449  2.3111  0.2087 -0.2929
  400MOL0     H52769   4.363   9.034   4.350 -0.4394  1.1898  0.9739
  400MOL0     H52770   4.275   9.159   4.550 -0.1660  0.3617  0.5812
  400MOL0     H52771   4.301   9.013   4.649  5.0458  0.5261 -1.6001
  400MOL0     H52772   4.091   9.044   4.421 -0.1732  0.2676 -0.8761
  400MOL0     H52773   4.120   8.891   4.500 -3.4040 -0.1928  1.0667
  400MOL0     H52774   3.925   9.036   4.611 -1.3141  0.1474  5.3512
  400MOL0     H52775   4.036   9.160   4.640  1.8818  0.6069 -4.3769
  400MOL0     H52776   4.140   8.997   4.817  0.0346  1.4969 -0.4149
  400MOL0     H52777   4.040   8.872   4.740  0.4924  0.7610 -2.9206
  400MOL0     H52778   3.845   9.065   4.815  1.1179  0.9716 -1.8485
  400MOL0     H52779   3.891   8.915   4.908  2.8198 -1.6430 -0.1935
  400MOL0     H52780   3.890   9.117   5.050 -2.1312 -0.5796 -3.2201
  400MOL0     H52781   4.015   9.190   4.945  1.2000  1.0225  2.6401
  400MOL0     H52782   4.592   9.388   4.476 -1.1361 -2.8964  2.1979
  400MOL0     H52783   4.840   9.502   4.414  1.0463  0.6703  3.7700
  400MOL0     H52784   5.252   9.572   4.681 -0.7479 -0.7573 -0.6179
  400MOL0     H52785   5.516   9.574   4.685  1.9221 -2.0713 -1.7231
  400MOL0     H52786   7.085   9.862   4.497  1.4783  0.8794  0.7625
  400MOL0     H52787   7.139   9.948   4.708  0.2760 -0.1568 -0.0528
  400MOL0     H52788   7.341   9.764   5.235  1.7534 -0.5155  0.4873
  400MOL0     H52789   7.414   9.889   5.431  1.3801 -1.0822  0.3635
  400MOL0     H52790   7.523  10.305   5.544  0.9474  0.0790 -0.4719
  400MOL0     H52791   7.494  10.321   5.378 -0.2722  3.3232  1.9013
  400MOL0     H52792   7.737  10.202   5.513  2.6882  1.7379 -1.1507
  400MOL0     H52793   7.711  10.223   5.338 -2.5015 -3.3225  0.1008
  400MOL0     H52794   7.764  10.420   5.553  0.6147  1.7915 -0.2174
  400MOL0     H52795   7.674  10.481   5.419 -0.7372 -0.7571  2.7074
  400MOL0     H52796   7.938  10.492   5.411 -0.4713 -0.3039  1.0008
  400MOL0     H52797   7.950  10.336   5.378 -0.6464 -1.5135  0.3751
  400MOL0     H52798   7.814  10.531   5.011  0.3532 -0.2206 -0.4426
  400MOL0     H52799   7.550  10.210   5.187  0.3839 -0.2165 -1.5257
  400MOL0     H52800   7.501  10.093   4.990  0.7301 -1.2761 -0.1440
  401MOL0     O52801   8.998   1.465   8.415  0.2697  0.1205  0.0637
  401MOL0     C52802   9.094   1.398   8.382 -0.2400 -0.2002  0.2045
  401MOL0     O52803   9.087   1.283   8.298 -0.1995 -0.7748 -0.2079
  401MOL0     C52804   8.972   1.245   8.241  0.1646 -0.0868  0.3630
  401MOL0     C52805   8.980   1.210   8.104  0.2311  0.4678  0.2128
  401MOL0     C52806   8.863   1.169   8.026 -0.6494 -0.0258  0.7968
  401MOL0     C52807   8.744   1.170   8.081  0.3219  0.2659 -0.9411
  401MOL0     O52808   8.623   1.141   8.018 -0.4136 -0.4159 -0.7230
  401MOL0     C52809   8.634   1.087   7.897  0.5161 -0.0257  0.1095
  401MOL0     C52810   8.494   1.041   7.869 -0.0115 -0.1394 -0.5059
  401MOL0     C52811   8.483   0.994   7.734  1.2590  0.3107  0.2740
  401MOL0     C52812   8.345   0.953   7.698  0.8074  0.3151  0.0721
  401MOL0     C52813   8.324   0.927   7.547  0.0287  0.2010 -0.3257
  401MOL0     C52814   8.181   0.886   7.517  0.1017  0.0461  0.1531
  401MOL0     C52815   8.125   0.936   7.382  0.2873  0.1086 -0.7181
  401MOL0     C52816   7.985   0.893   7.372 -0.2197 -0.8643  0.7828
  401MOL0     N52817   7.955   0.757   7.345  0.5557  0.0740 -0.3026
  401MOL0     C52818   7.934   0.709   7.219  0.0348  0.2189  0.1219
  401MOL0     C52819   7.915   0.576   7.231 -0.0788 -0.0890 -0.1463
  401MOL0     C52820   7.896   0.486   7.115  0.0653 -0.1833 -0.2871
  401MOL0     C52821   7.753   0.437   7.115  0.6564  0.4445 -0.0274
  401MOL0     C52822   7.646   0.542   7.092  0.8056 -0.0514 -0.2827
  401MOL0     C52823   7.661   0.613   6.964 -0.2985 -0.3726  0.2423
  401MOL0     O52824   7.537   0.687   6.967 -0.0591  0.3324  0.2786
  401MOL0     C52825   7.441   0.658   6.877 -0.3400  0.0932  0.1147
  401MOL0     C52826   7.329   0.576   6.925 -0.0172 -0.0580 -0.0816
  401MOL0     C52827   7.229   0.553   6.833 -0.2857  1.1604  0.4103
  401MOL0     C52828   7.240   0.580   6.695 -0.1534 -0.8112 -0.0508
  401MOL0     C52829   7.133   0.533   6.600 -0.1260 -0.0568 -0.0507
  401MOL0     O52830   7.011   0.502   6.652  0.6051 -0.3875  0.3857
  401MOL0     C52831   6.920   0.449   6.570 -0.0583  0.1486 -0.0208
  401MOL0     C52832   6.794   0.518   6.529  0.2305  1.2721  0.2488
  401MOL0     C52833   6.689   0.457   6.467 -0.1549 -0.2335 -0.6030
  401MOL0     C52834   6.704   0.326   6.437 -0.1504  0.3095 -0.4080
  401MOL0     O52835   6.597   0.269   6.379  0.3609 -0.3068 -0.1457
  401MOL0     C52836   6.520   0.188   6.466 -0.3698 -0.1780  0.2302
  401MOL0     C52837   6.412   0.101   6.387 -0.4838 -0.3729 -0.6652
  401MOL0     C52838   6.327   0.181   6.283  0.3480 -0.4051 -0.4145
  401MOL0     C52839   6.187   0.120   6.269 -0.3930  0.6919 -0.5222
  401MOL0     C52840   6.118   0.179   6.156 -0.0301  0.6072  0.3556
  401MOL0     C52841   5.970   0.149   6.178 -0.1500  0.6032 -0.1177
  401MOL0     C52842   5.865   0.216   6.083 -1.0614  0.2107  0.3386
  401MOL0     C52843   5.850   0.368   6.090  0.3415  0.2061  0.3353
  401MOL0    Cl52844   5.798   0.409   6.267  0.0475  0.2743 -0.0386
  401MOL0     C52845   6.819   0.253   6.465  0.5297 -0.0135  0.7527
  401MOL0     C52846   6.919   0.306   6.549  0.6879  0.2608 -0.2747
  401MOL0     O52847   7.161   0.523   6.480  0.2273  0.2037 -0.3423
  401MOL0     C52848   7.361   0.627   6.651 -0.2305  0.2720 -0.2102
  401MOL0     C52849   7.459   0.673   6.741  0.0936 -1.1969 -1.1341
  401MOL0     N52850   7.908   0.552   7.366 -0.2538 -0.2390 -0.1813
  401MOL0     N52851   7.927   0.660   7.432 -0.1908  0.8809 -1.1008
  401MOL0     C52852   8.737   1.215   8.219  0.3702  0.0639 -0.4310
  401MOL0     C52853   8.853   1.246   8.305 -1.2295 -0.3908  0.2206
  401MOL0     C52854   9.232   1.434   8.421  0.6967 -0.1435 -0.7776
  401MOL0     C52855   9.342   1.381   8.353 -0.2538  0.0359  0.5967
  401MOL0     C52856   9.468   1.441   8.375 -0.0274  0.2697 -0.5569
  401MOL0     C52857   9.489   1.547   8.458 -0.1904  0.1588  1.2911
  401MOL0     O52858   9.619   1.601   8.456 -0.4513 -0.0817  0.1610
  401MOL0     C52859   9.655   1.691   8.563 -0.6836 -1.9916  0.1361
  401MOL0     C52860   9.794   1.747   8.530  0.0486  0.7289  0.1251
  401MOL0     C52861   9.908   1.648   8.567  0.6175 -0.2926 -0.4490
  401MOL0     C52862  10.029   1.728   8.607 -0.2786 -0.3034 -0.6162
  401MOL0     C52863  10.143   1.630   8.634  0.1584 -0.6795  0.1647
  401MOL0     C52864  10.226   1.542   8.635  0.6042  0.7585  0.1541
  401MOL0     C52865   9.377   1.594   8.527  0.0844 -0.3420  0.4442
  401MOL0     C52866   9.248   1.537   8.513  0.3573  0.0760  0.4963
  401MOL0     H52867   9.079   1.216   8.062  0.0377  0.8891 -0.1843
  401MOL0     H52868   8.884   1.139   7.924  0.0438  1.3892  0.5119
  401MOL0     H52869   8.696   0.997   7.905  1.4707  0.4723 -1.2565
  401MOL0     H52870   8.670   1.163   7.827 -0.6151 -0.5779 -1.1162
  401MOL0     H52871   8.410   1.109   7.887 -0.6392 -0.5598 -1.7261
  401MOL0     H52872   8.476   0.960   7.941 -1.1390  1.7705  1.4911
  401MOL0     H52873   8.546   0.906   7.719 -0.6527 -1.4812  2.1180
  401MOL0     H52874   8.505   1.082   7.671  2.5168  0.3758  0.7652
  401MOL0     H52875   8.323   0.861   7.753  1.4420 -0.5383 -1.0503
  401MOL0     H52876   8.279   1.031   7.737  0.8225 -0.7432  2.4322
  401MOL0     H52877   8.389   0.847   7.509  1.4636  0.9533  0.4458
  401MOL0     H52878   8.349   1.020   7.496 -0.7503  0.1423 -0.8171
  401MOL0     H52879   8.120   0.926   7.599 -0.7862  2.3624 -1.5456
  401MOL0     H52880   8.182   0.776   7.516  0.9266 -0.0030 -2.9811
  401MOL0     H52881   8.138   1.044   7.371  2.3936 -0.3006 -3.1223
  401MOL0     H52882   8.189   0.890   7.307  3.1634  1.5286  0.6868
  401MOL0     H52883   7.957   0.953   7.285  0.3932 -0.4513  0.8584
  401MOL0     H52884   7.941   0.928   7.466  2.8805  0.6640  1.8283
  401MOL0     H52885   7.936   0.766   7.126 -0.6586  2.4860  1.4250
  401MOL0     H52886   7.966   0.407   7.140 -1.2718 -1.1477  0.5247
  401MOL0     H52887   7.931   0.542   7.028  1.4621 -0.2900  0.1889
  401MOL0     H52888   7.721   0.388   7.207 -0.6153  0.2254 -0.5601
  401MOL0     H52889   7.744   0.360   7.038  0.1937 -0.8977  1.3157
  401MOL0     H52890   7.547   0.496   7.102 -0.2005  2.2082  0.8785
  401MOL0     H52891   7.647   0.605   7.181  0.3151 -0.5627  0.0945
  401MOL0     H52892   7.662   0.536   6.886 -0.4055 -1.3115  1.1467
  401MOL0     H52893   7.740   0.687   6.948  0.6488 -1.1998  0.9158
  401MOL0     H52894   7.313   0.532   7.023 -1.2732 -0.2168 -0.3519
  401MOL0     H52895   7.138   0.501   6.863  0.0642  1.0709  1.3429
  401MOL0     H52896   6.794   0.622   6.560  1.2433  0.9672  1.3716
  401MOL0     H52897   6.593   0.503   6.446 -1.1522 -1.7061  0.5321
  401MOL0     H52898   6.472   0.257   6.536  0.4947  0.5686  0.1056
  401MOL0     H52899   6.581   0.109   6.510 -0.7364 -1.2586 -1.1523
  401MOL0     H52900   6.339   0.063   6.459  0.2609 -1.0989 -0.2706
  401MOL0     H52901   6.469   0.017   6.346  0.4800 -0.1900  0.2746
  401MOL0     H52902   6.376   0.180   6.185 -2.1017 -2.3815 -1.7635
  401MOL0     H52903   6.329   0.288   6.306 -2.1144 -0.3036 -0.4096
  401MOL0     H52904   6.187   0.011   6.257  0.6635  0.7883 -1.6153
  401MOL0     H52905   6.140   0.152   6.362  2.2273  0.8874  0.8416
  401MOL0     H52906   6.147   0.139   6.059  1.5299  0.9409  0.6483
  401MOL0     H52907   6.137   0.287   6.160  0.6409  0.5039  0.2111
  401MOL0     H52908   5.949   0.183   6.280 -1.1160  2.8390 -0.9990
  401MOL0     H52909   5.952   0.041   6.172 -0.1180  0.6199 -0.5953
  401MOL0     H52910   5.879   0.184   5.980  0.3204  0.1142  0.5314
  401MOL0     H52911   5.764   0.184   6.110 -2.2658  2.7756 -0.7468
  401MOL0     H52912   5.785   0.408   6.012 -0.3222 -0.1685  0.6942
  401MOL0     H52913   5.949   0.412   6.077  0.4135 -0.0463  0.0094
  401MOL0     H52914   6.828   0.149   6.436  1.4015  0.1987  0.2162
  401MOL0     H52915   6.991   0.237   6.590 -2.1660 -2.5748  0.4028
  401MOL0     H52916   7.382   0.636   6.545  1.5894  1.6916  0.2139
  401MOL0     H52917   7.546   0.725   6.701  0.6238 -0.8638  0.4139
  401MOL0     H52918   8.635   1.233   8.252  0.3820  1.6215 -1.1599
  401MOL0     H52919   8.824   1.289   8.401  0.7883  3.4488 -0.6514
  401MOL0     H52920   9.322   1.302   8.282 -2.4935  0.8292  0.2659
  401MOL0     H52921   9.557   1.404   8.324  1.7105  0.3848  2.2188
  401MOL0     H52922   9.660   1.641   8.660 -1.4955 -1.1146  0.6454
  401MOL0     H52923   9.586   1.775   8.559 -0.9187 -2.2311 -1.6239
  401MOL0     H52924   9.801   1.773   8.424  1.9145 -0.8731 -0.2080
  401MOL0     H52925   9.803   1.835   8.594 -2.8323 -1.1749  3.5169
  401MOL0     H52926   9.924   1.575   8.487  0.1283 -0.1247 -0.7030
  401MOL0     H52927   9.890   1.580   8.651 -0.2386 -1.3593 -1.4644
  401MOL0     H52928  10.043   1.801   8.527 -2.8343  2.3392  1.1402
  401MOL0     H52929  10.004   1.770   8.704  2.7369 -0.8076  0.4743
  401MOL0     H52930  10.304   1.469   8.647  0.1966 -0.7501 -4.3868
  401MOL0     H52931   9.386   1.677   8.596  2.5232 -0.6371  0.5656
  401MOL0     H52932   9.158   1.573   8.563  2.4486  1.2293  3.7186
  402MOL0     O52933   2.084   9.475   3.341 -0.3371  0.5161 -0.4350
  402MOL0     C52934   2.110   9.359   3.383 -0.5980 -0.5537 -0.1867
  402MOL0     O52935   2.037   9.284   3.467  0.1187  0.2149 -0.5945
  402MOL0     C52936   1.914   9.324   3.513 -0.2401  0.9600  0.1845
  402MOL0     C52937   1.886   9.276   3.643 -0.8281  0.0832  0.7165
  402MOL0     C52938   1.764   9.299   3.711 -0.7050  0.0405  0.5299
  402MOL0     C52939   1.662   9.368   3.643 -0.5242  0.1142 -0.1099
  402MOL0     O52940   1.544   9.392   3.712  0.1811 -0.5339  0.4779
  402MOL0     C52941   1.473   9.518   3.692  0.1494  0.3030 -0.3093
  402MOL0     C52942   1.556   9.645   3.706 -0.5462  0.1286  0.6536
  402MOL0     C52943   1.598   9.668   3.853 -0.4541  0.7689 -0.6714
  402MOL0     C52944   1.717   9.761   3.868  1.2270 -0.3224 -0.0733
  402MOL0     C52945   1.845   9.694   3.810 -0.0413  0.3485 -0.0154
  402MOL0     C52946   1.953   9.797   3.761  0.0218 -0.8371  0.0310
  402MOL0     C52947   2.075   9.720   3.720 -0.3564  0.3573 -0.5993
  402MOL0     C52948   2.176   9.802   3.630 -0.5810  0.2993 -0.5436
  402MOL0     N52949   2.300   9.733   3.604  0.2134  0.1715  0.2821
  402MOL0     C52950   2.418   9.729   3.682 -0.8903 -0.0931 -0.7430
  402MOL0     C52951   2.512   9.675   3.606  0.3825  0.1706 -0.2064
  402MOL0     C52952   2.645   9.642   3.665  0.5292  0.6032  0.8874
  402MOL0     C52953   2.754   9.719   3.608 -0.3826  0.0316  0.5677
  402MOL0     C52954   2.887   9.667   3.659 -0.1976 -0.2565  0.6276
  402MOL0     C52955   2.996   9.780   3.643  0.7415  0.2198 -0.1384
  402MOL0     O52956   3.019   9.835   3.509  0.5673  0.0839  0.3078
  402MOL0     C52957   3.128   9.778   3.443  0.8446  0.6265 -0.3030
  402MOL0     C52958   3.210   9.665   3.482  0.0985 -0.0656 -0.2854
  402MOL0     C52959   3.301   9.619   3.391  0.2185  0.0467 -0.3295
  402MOL0     C52960   3.310   9.674   3.256  0.3465  0.1618 -0.0600
  402MOL0     C52961   3.406   9.618   3.166  0.0279 -0.5709  0.1538
  402MOL0     O52962   3.456   9.700   3.060 -0.6856 -0.4289 -0.2351
  402MOL0     C52963   3.544   9.633   2.980  0.5943 -0.6717  1.0937
  402MOL0     C52964   3.679   9.634   3.014 -0.9611  1.0162  0.1648
  402MOL0     C52965   3.774   9.574   2.931  0.3689  0.6905  0.0001
  402MOL0     C52966   3.718   9.519   2.815 -0.3683  0.3306 -0.9222
  402MOL0     O52967   3.796   9.460   2.718  0.3215 -0.3515 -0.2510
  402MOL0     C52968   3.910   9.391   2.767 -1.0407  0.2912  0.4959
  402MOL0     C52969   3.989   9.322   2.653  0.0465 -0.0385  0.0971
  402MOL0     C52970   4.030   9.414   2.533 -0.0223 -0.2914  0.4716
  402MOL0     C52971   4.134   9.338   2.457  0.4535  0.6803 -0.0913
  402MOL0     C52972   4.160   9.411   2.317  0.6767  0.4353  0.0066
  402MOL0     C52973   4.227   9.547   2.330 -0.1472  0.5539 -0.1342
  402MOL0     C52974   4.357   9.539   2.413 -0.1143 -0.3009  0.0770
  402MOL0     C52975   4.430   9.677   2.415  0.0019  0.0158  0.0327
  402MOL0    Cl52976   4.355   9.793   2.517  0.0788 -0.2152 -0.0462
  402MOL0     C52977   3.585   9.523   2.777  0.0977  0.2273  1.0848
  402MOL0     C52978   3.499   9.578   2.860 -0.2050  0.6529 -1.5093
  402MOL0     O52979   3.460   9.518   3.207 -0.3650 -0.0617 -0.2310
  402MOL0     C52980   3.235   9.783   3.224  0.3953 -0.4667 -0.3808
  402MOL0     C52981   3.145   9.837   3.319 -0.5099  0.2778  0.5881
  402MOL0     N52982   2.452   9.630   3.492 -0.9676 -0.2103  0.5572
  402MOL0     N52983   2.326   9.667   3.481 -0.4020 -0.3867 -0.3739
  402MOL0     C52984   1.694   9.413   3.513 -0.5403  0.3565  0.2624
  402MOL0     C52985   1.815   9.392   3.444  0.4576 -0.4773 -0.8392
  402MOL0     C52986   2.240   9.285   3.346  1.2015 -0.4725  0.1232
  402MOL0     C52987   2.258   9.154   3.387 -0.5282  0.7158  0.2884
  402MOL0     C52988   2.370   9.077   3.340 -0.4425 -0.0587  0.4198
  402MOL0     C52989   2.473   9.141   3.266 -0.1537  0.1768 -0.4082
  402MOL0     O52990   2.587   9.070   3.220  0.5070 -0.0270  0.2899
  402MOL0     C52991   2.701   9.128   3.148  0.0161 -0.4209  0.3050
  402MOL0     C52992   2.813   9.034   3.129 -0.3519  0.1495 -0.2779
  402MOL0     C52993   2.875   8.978   3.260  0.1610  0.3243 -0.5623
  402MOL0     C52994   3.006   9.051   3.296  0.2119 -0.5738  0.7421
  402MOL0     C52995   3.109   9.034   3.189 -0.0691 -0.4010  0.3973
  402MOL0     C52996   3.191   9.038   3.097 -0.1326 -0.5902  0.2732
  402MOL0     C52997   2.455   9.272   3.228  0.9333  0.5850  0.2501
  402MOL0     C52998   2.343   9.344   3.265  0.5517 -0.4498  0.7770
  402MOL0     H52999   1.967   9.219   3.689 -0.1274 -0.7288 -1.4042
  402MOL0     H53000   1.763   9.284   3.819  1.0723  4.8881  1.5264
  402MOL0     H53001   1.393   9.527   3.767 -0.4620 -0.0438 -0.9060
  402MOL0     H53002   1.425   9.508   3.595  3.5465 -1.0932 -2.0012
  402MOL0     H53003   1.496   9.725   3.662 -0.2722 -2.0737 -4.4195
  402MOL0     H53004   1.643   9.641   3.640 -0.8056  0.2345  0.3009
  402MOL0     H53005   1.614   9.571   3.902  0.0966  0.9425 -0.4989
  402MOL0     H53006   1.520   9.728   3.899 -1.5685 -1.4091  0.4578
  402MOL0     H53007   1.699   9.856   3.818  0.5508  0.2040  1.1282
  402MOL0     H53008   1.740   9.775   3.974  0.5751 -0.7198  0.1261
  402MOL0     H53009   1.827   9.618   3.733  0.8689  1.8850 -1.8574
  402MOL0     H53010   1.883   9.638   3.895 -2.1519  0.3295  0.9521
  402MOL0     H53011   1.985   9.860   3.844  1.6338 -0.8267 -0.5595
  402MOL0     H53012   1.909   9.858   3.681 -0.7144  2.3717  2.6438
  402MOL0     H53013   2.118   9.692   3.817  1.2599  2.4761 -0.6338
  402MOL0     H53014   2.046   9.628   3.668  2.3567 -0.1348 -1.3721
  402MOL0     H53015   2.181   9.903   3.672 -1.9359 -0.0758  0.5826
  402MOL0     H53016   2.127   9.803   3.532 -0.0222 -0.5154 -0.8474
  402MOL0     H53017   2.431   9.767   3.783  0.6693  3.4422 -2.0827
  402MOL0     H53018   2.647   9.536   3.638 -2.0659  0.5058  0.8660
  402MOL0     H53019   2.649   9.652   3.774 -1.8311 -0.6250  1.1433
  402MOL0     H53020   2.746   9.824   3.637  1.7633 -0.1659  2.1226
  402MOL0     H53021   2.758   9.714   3.498  0.5640  1.3548  0.5137
  402MOL0     H53022   2.876   9.628   3.761  0.6166  2.1148  1.7040
  402MOL0     H53023   2.934   9.599   3.587  0.4753  3.2449 -2.5755
  402MOL0     H53024   3.077   9.733   3.700 -0.0189  0.0903  0.8495
  402MOL0     H53025   2.959   9.860   3.707  0.9771 -0.1724  0.5015
  402MOL0     H53026   3.202   9.611   3.575  1.8945 -2.2861 -1.3187
  402MOL0     H53027   3.348   9.527   3.422 -1.6437 -0.8368  0.0525
  402MOL0     H53028   3.710   9.682   3.107 -4.1029  0.1934  1.7992
  402MOL0     H53029   3.879   9.576   2.956  0.6821  0.3491 -1.1991
  402MOL0     H53030   3.882   9.311   2.836  0.1968 -2.3159 -1.8127
  402MOL0     H53031   3.971   9.473   2.807 -2.0640 -0.3161  3.5208
  402MOL0     H53032   3.914   9.254   2.612 -0.9893  1.8841 -1.3590
  402MOL0     H53033   4.074   9.261   2.685 -0.1957 -0.7433 -0.5617
  402MOL0     H53034   4.058   9.517   2.557  0.7837 -0.2992 -0.3651
  402MOL0     H53035   3.950   9.431   2.460  0.9591  1.9939 -0.1403
  402MOL0     H53036   4.220   9.318   2.522  0.0672  1.6083  0.7316
  402MOL0     H53037   4.091   9.240   2.435  2.5424 -0.3301  0.0271
  402MOL0     H53038   4.066   9.426   2.263  0.2056 -1.7039  0.1699
  402MOL0     H53039   4.227   9.340   2.269 -0.1578  0.8062 -1.8092
  402MOL0     H53040   4.158   9.616   2.379  0.3810  0.9909  0.0013
  402MOL0     H53041   4.262   9.588   2.235 -5.2465  2.7064 -1.4180
  402MOL0     H53042   4.345   9.510   2.518  1.4250 -1.4803 -0.0420
  402MOL0     H53043   4.413   9.461   2.361 -1.1576 -0.3434 -1.0120
  402MOL0     H53044   4.436   9.708   2.310  0.0150  0.0558  0.0454
  402MOL0     H53045   4.529   9.661   2.460  0.2689 -1.3165 -0.9796
  402MOL0     H53046   3.558   9.497   2.675  0.8416  0.8980  0.7058
  402MOL0     H53047   3.394   9.586   2.837 -0.1676  1.4211 -1.4276
  402MOL0     H53048   3.268   9.818   3.126  3.6079 -1.2667  0.3097
  402MOL0     H53049   3.091   9.922   3.280  0.6325  1.0483  0.6547
  402MOL0     H53050   1.610   9.465   3.469  0.1387  3.8079  2.6497
  402MOL0     H53051   1.835   9.432   3.344  0.7067 -4.1303 -2.3925
  402MOL0     H53052   2.188   9.106   3.455 -0.7837  1.1745  0.3569
  402MOL0     H53053   2.384   8.970   3.355  1.7852 -0.0979 -1.4931
  402MOL0     H53054   2.727   9.216   3.208 -3.0981  1.1981 -0.4966
  402MOL0     H53055   2.668   9.152   3.047  0.2878 -1.8392 -0.1481
  402MOL0     H53056   2.776   8.944   3.080 -0.5136  1.6613 -3.1410
  402MOL0     H53057   2.882   9.088   3.064 -1.7760  2.0401 -0.2898
  402MOL0     H53058   2.904   8.875   3.238 -0.7355  0.4730 -2.6020
  402MOL0     H53059   2.801   8.984   3.340 -1.8193  0.9629 -2.3683
  402MOL0     H53060   2.982   9.157   3.308 -1.9941 -0.8909 -0.4144
  402MOL0     H53061   3.047   9.009   3.389 -1.0244 -1.6123  0.8399
  402MOL0     H53062   3.249   9.020   3.008  0.0485  3.0181 -0.4948
  402MOL0     H53063   2.529   9.315   3.161 -1.1938  3.4097 -0.4680
  402MOL0     H53064   2.324   9.436   3.211  0.7751 -0.2686  1.0043
  403MOL0     O53065   2.041   1.873  10.200  0.0596  0.0002 -0.5870
  403MOL0     C53066   2.091   1.971  10.262 -0.7444  0.3833 -0.9898
  403MOL0     O53067   2.021   2.072  10.315  0.0613 -0.3632 -0.7194
  403MOL0     C53068   1.893   2.089  10.268 -0.9851  0.5281 -0.1014
  403MOL0     C53069   1.875   2.138  10.135 -0.3956 -0.4863 -0.1897
  403MOL0     C53070   1.745   2.181  10.084  0.7762  0.1385  0.2927
  403MOL0     C53071   1.626   2.154  10.166 -0.5645 -0.1263  0.3477
  403MOL0     O53072   1.501   2.191  10.112 -0.1663  0.4096 -0.2727
  403MOL0     C53073   1.407   2.222  10.218 -0.1840  0.0754 -0.4107
  403MOL0     C53074   1.295   2.292  10.140 -1.0998 -0.1740  0.2632
  403MOL0     C53075   1.164   2.284  10.213  0.0988  0.6317  0.3051
  403MOL0     C53076   1.037   2.301  10.129 -0.5505  0.3283  0.1334
  403MOL0     C53077   0.920   2.251  10.215  0.3037 -0.6613 -0.3971
  403MOL0     C53078   0.781   2.277  10.155  0.1257 -0.6129  0.8452
  403MOL0     C53079   0.657   2.224  10.242 -0.2175 -0.2523 -0.3695
  403MOL0     C53080   0.602   2.329  10.334 -0.0514  0.0307 -0.9229
  403MOL0     N53081   0.493   2.270  10.419  0.5048 -0.3684 -0.0184
  403MOL0     C53082   0.360   2.245  10.378 -0.0826 -0.0210  0.5346
  403MOL0     C53083   0.304   2.175  10.482  0.5305 -0.5846  0.2355
  403MOL0     C53084   0.169   2.113  10.482 -0.6221  0.2110 -0.6420
  403MOL0     C53085   0.053   2.214  10.518 -0.8841 -0.4997 -0.5126
  403MOL0     C53086  -0.058   2.125  10.568 -0.0403 -0.3787 -0.5748
  403MOL0     C53087  -0.191   2.205  10.582  0.2673 -1.2176  0.8108
  403MOL0     O53088  -0.235   2.270  10.459  0.3708  0.4822  0.6832
  403MOL0     C53089  -0.371   2.282  10.456 -0.7174 -0.3033  0.4950
  403MOL0     C53090  -0.428   2.301  10.329 -0.4804 -0.2719  0.5136
  403MOL0     C53091  -0.562   2.312  10.311 -1.2182 -0.3216  0.3956
  403MOL0     C53092  -0.650   2.289  10.422  0.6006  0.0118 -0.4005
  403MOL0     C53093  -0.802   2.299  10.399 -0.4799  0.7972  0.5016
  403MOL0     O53094  -0.880   2.294  10.510  0.4219  0.0035 -0.1924
  403MOL0     C53095  -1.018   2.300  10.479  0.0202 -0.0994 -0.7524
  403MOL0     C53096  -1.078   2.395  10.406 -0.2387  0.2010 -0.6994
  403MOL0     C53097  -1.217   2.399  10.400 -0.3975 -0.2128  0.7468
  403MOL0     C53098  -1.297   2.309  10.467  0.3489 -0.6557  0.1194
  403MOL0     O53099  -1.434   2.318  10.449  0.5387  0.3312  0.6101
  403MOL0     C53100  -1.510   2.245  10.544  0.9025 -0.6870  0.2156
  403MOL0     C53101  -1.651   2.311  10.541  0.0847  0.3864 -0.2784
  403MOL0     C53102  -1.665   2.448  10.609  0.2523  0.1826 -0.3424
  403MOL0     C53103  -1.790   2.543  10.567  0.5785 -0.0791 -0.7414
  403MOL0     C53104  -1.819   2.557  10.416 -0.1991  0.5872 -0.5122
  403MOL0     C53105  -1.946   2.652  10.419 -0.0875 -0.0664 -0.6094
  403MOL0     C53106  -1.962   2.702  10.278  0.2009 -0.8898 -0.6045
  403MOL0     C53107  -2.079   2.802  10.259 -0.8512  0.4957  0.7063
  403MOL0    Cl53108  -2.198   2.817  10.397 -0.0054 -0.0006 -0.8493
  403MOL0     C53109  -1.238   2.213  10.547  0.7342  0.7677  0.3734
  403MOL0     C53110  -1.100   2.220  10.559 -0.3940  0.5762 -0.7873
  403MOL0     O53111  -0.839   2.288  10.281  0.1920 -1.1459 -0.3340
  403MOL0     C53112  -0.595   2.268  10.552  0.8188 -0.0804 -0.6169
  403MOL0     C53113  -0.456   2.271  10.567 -0.0097 -0.0200 -0.0037
  403MOL0     N53114   0.388   2.168  10.593  0.5700  0.4965 -0.3974
  403MOL0     N53115   0.503   2.226  10.546  0.2590  0.4962 -0.7336
  403MOL0     C53116   1.656   2.088  10.294 -0.6362  0.9030 -0.1842
  403MOL0     C53117   1.782   2.049  10.337  0.3333 -0.7018 -0.2060
  403MOL0     C53118   2.233   1.969  10.311 -0.8142 -0.0350 -0.7891
  403MOL0     C53119   2.298   2.080  10.390  0.9257  1.1955 -0.3471
  403MOL0     C53120   2.428   2.052  10.439 -0.1336  0.2617 -0.6153
  403MOL0     C53121   2.500   1.933  10.425  0.0554  0.1948 -0.4186
  403MOL0     O53122   2.626   1.924  10.475 -0.2075  0.4212 -0.4221
  403MOL0     C53123   2.704   1.803  10.474  0.7834  0.4471  0.2308
  403MOL0     C53124   2.842   1.828  10.537  0.6163  0.4254 -0.7728
  403MOL0     C53125   2.912   1.946  10.476 -1.3066 -0.2638 -0.6493
  403MOL0     C53126   3.067   1.942  10.498  0.2860 -0.3475  0.2267
  403MOL0     C53127   3.102   1.990  10.628 -0.4573  0.1202 -0.5633
  403MOL0     C53128   3.123   2.022  10.745  0.5725 -0.4118 -0.3265
  403MOL0     C53129   2.439   1.838  10.350 -0.5515 -0.3847 -0.3782
  403MOL0     C53130   2.304   1.845  10.298 -0.9899  0.6005  0.5143
  403MOL0     H53131   1.967   2.148  10.080  0.2293  2.9750  1.1907
  403MOL0     H53132   1.718   2.228   9.990  2.1423  1.1078  0.3666
  403MOL0     H53133   1.468   2.281  10.288  1.6066 -1.6525 -0.4074
  403MOL0     H53134   1.375   2.131  10.268  2.6701 -1.6718 -1.4999
  403MOL0     H53135   1.293   2.251  10.039  1.1399  0.1858  0.0272
  403MOL0     H53136   1.322   2.394  10.114  1.4479 -1.2261 -1.6720
  403MOL0     H53137   1.165   2.351  10.300 -0.5013 -0.5289  1.2350
  403MOL0     H53138   1.163   2.186  10.260  1.9647  0.3958 -0.0695
  403MOL0     H53139   1.029   2.410  10.122  0.2454  0.3735 -0.1397
  403MOL0     H53140   1.047   2.251  10.033  2.2503 -4.4844  2.5451
  403MOL0     H53141   0.934   2.291  10.316 -0.9277 -0.3305 -0.3406
  403MOL0     H53142   0.920   2.143  10.227 -0.1313 -0.6525 -0.2832
  403MOL0     H53143   0.780   2.218  10.063 -1.0705 -1.9507  1.6751
  403MOL0     H53144   0.768   2.382  10.127 -0.6774 -1.2678 -1.4569
  403MOL0     H53145   0.583   2.185  10.172  0.4121  3.8839 -3.7717
  403MOL0     H53146   0.707   2.147  10.302  3.1730  2.6492  0.8934
  403MOL0     H53147   0.563   2.409  10.271 -0.4103 -0.2199 -1.0183
  403MOL0     H53148   0.688   2.374  10.385  2.1890 -2.0479 -2.6255
  403MOL0     H53149   0.317   2.266  10.280  1.0628 -2.4840 -0.5829
  403MOL0     H53150   0.155   2.029  10.551 -2.6857  0.3868 -0.7733
  403MOL0     H53151   0.137   2.079  10.383 -1.5649  1.6201 -0.8490
  403MOL0     H53152   0.027   2.271  10.428 -3.2908  1.1150  1.0751
  403MOL0     H53153   0.092   2.282  10.594 -2.4376  0.5459 -0.5835
  403MOL0     H53154  -0.077   2.037  10.505 -1.1902  1.2358 -2.5914
  403MOL0     H53155  -0.036   2.093  10.671  0.1407  1.9040  0.1472
  403MOL0     H53156  -0.180   2.289  10.650 -1.9948  1.0238 -1.3850
  403MOL0     H53157  -0.269   2.136  10.616 -0.7131 -2.7732 -3.8022
  403MOL0     H53158  -0.366   2.310  10.241 -2.6457  0.9025 -0.9830
  403MOL0     H53159  -0.593   2.356  10.216  0.5059 -0.8250 -0.4537
  403MOL0     H53160  -1.019   2.464  10.345  2.1186  1.3769  2.6120
  403MOL0     H53161  -1.253   2.482  10.339  0.3765 -1.2689 -1.2312
  403MOL0     H53162  -1.473   2.257  10.646 -1.6234 -2.5377  1.4615
  403MOL0     H53163  -1.520   2.138  10.521 -0.7228 -1.2963  3.1524
  403MOL0     H53164  -1.728   2.237  10.567  0.5170  0.9535  2.9590
  403MOL0     H53165  -1.659   2.321  10.432 -1.9269 -1.8494 -0.4212
  403MOL0     H53166  -1.580   2.506  10.570  0.4566  1.6408  2.0614
  403MOL0     H53167  -1.650   2.444  10.717 -1.6696 -0.8915 -0.0821
  403MOL0     H53168  -1.888   2.519  10.609  0.1278  1.4920 -0.8613
  403MOL0     H53169  -1.764   2.645  10.597  1.1056 -0.5757  0.5785
  403MOL0     H53170  -1.837   2.459  10.371 -1.4181  0.6218 -0.1457
  403MOL0     H53171  -1.728   2.596  10.370 -1.1024  2.5814 -0.7214
  403MOL0     H53172  -1.932   2.743  10.478  0.7314 -0.5428 -0.0313
  403MOL0     H53173  -2.035   2.606  10.464 -0.9602  2.5192  0.5319
  403MOL0     H53174  -1.871   2.761  10.261  1.1286 -2.1624 -0.1480
  403MOL0     H53175  -1.964   2.627  10.199 -1.0433  0.8501 -2.3345
  403MOL0     H53176  -2.117   2.772  10.161  1.0364 -3.3313  0.9520
  403MOL0     H53177  -2.034   2.901  10.245  2.0491 -0.8697 -0.3579
  403MOL0     H53178  -1.288   2.132  10.598  1.9477  0.2744  0.8221
  403MOL0     H53179  -1.045   2.167  10.637 -2.8501  0.8441  1.2344
  403MOL0     H53180  -0.652   2.258  10.644  0.3477  1.3859 -0.7266
  403MOL0     H53181  -0.433   2.253  10.671  1.8497  3.1606  0.2250
  403MOL0     H53182   1.572   2.066  10.360  0.7741 -0.1254  1.3375
  403MOL0     H53183   1.794   2.001  10.434 -0.0100  3.1878  1.9553
  403MOL0     H53184   2.251   2.176  10.406  1.8501  1.7818 -1.0840
  403MOL0     H53185   2.474   2.128  10.501 -2.7854 -0.2245  2.2067
  403MOL0     H53186   2.718   1.781  10.367 -0.3788  1.9580 -0.2680
  403MOL0     H53187   2.649   1.720  10.519  0.2766 -0.9017 -2.6045
  403MOL0     H53188   2.831   1.851  10.643  2.2558  0.9313 -0.6750
  403MOL0     H53189   2.906   1.740  10.532 -1.1750 -0.9607 -0.0037
  403MOL0     H53190   2.872   2.035  10.526  0.3769 -0.3813  1.0399
  403MOL0     H53191   2.893   1.957  10.369  2.9737  3.3798 -1.3596
  403MOL0     H53192   3.103   1.839  10.493  3.7955  0.7883 -0.7434
  403MOL0     H53193   3.111   2.004  10.419  0.2734  0.3031  0.7185
  403MOL0     H53194   3.155   2.041  10.845 -1.1556  1.3854 -0.0563
  403MOL0     H53195   2.504   1.758  10.315 -1.0397 -1.5137  1.1707
  403MOL0     H53196   2.261   1.758  10.249  2.6991  0.4451 -2.9617
  404MOL0     O53197   7.571  10.107   4.369 -0.1454 -0.5166 -0.8229
  404MOL0     C53198   7.605  10.013   4.433 -0.2817 -0.0114  0.2495
  404MOL0     O53199   7.620   9.891   4.385 -0.2387 -0.0698 -0.2846
  404MOL0     C53200   7.598   9.857   4.251 -0.2760  0.7292 -0.0823
  404MOL0     C53201   7.475   9.894   4.198  0.2889  0.9072 -0.7302
  404MOL0     C53202   7.442   9.858   4.066 -0.1167 -0.1787 -0.3809
  404MOL0     C53203   7.533   9.805   3.977 -0.5655  0.3199 -0.1687
  404MOL0     O53204   7.488   9.759   3.856 -0.0718  0.4538  0.0983
  404MOL0     C53205   7.586   9.783   3.754 -0.6054  0.1770  0.4537
  404MOL0     C53206   7.519   9.734   3.615 -0.2238  0.3214  0.5631
  404MOL0     C53207   7.615   9.655   3.526  0.1747  0.3547 -0.3896
  404MOL0     C53208   7.538   9.582   3.421  0.1515  0.7081 -0.0749
  404MOL0     C53209   7.493   9.668   3.308  0.1189 -0.3252 -0.7537
  404MOL0     C53210   7.578   9.789   3.276 -0.5493 -0.1456  0.0860
  404MOL0     C53211   7.492   9.872   3.173 -0.3119  0.2453  0.0785
  404MOL0     C53212   7.484   9.825   3.028 -0.1931  0.2725 -0.4370
  404MOL0     N53213   7.376   9.727   3.013  0.1825 -0.0339 -0.2637
  404MOL0     C53214   7.253   9.755   2.971 -0.1958 -1.0450 -0.2058
  404MOL0     C53215   7.185   9.645   2.944 -0.3791 -0.0798  0.2237
  404MOL0     C53216   7.046   9.633   2.878 -0.4425 -0.0437 -0.6029
  404MOL0     C53217   7.064   9.595   2.730  0.4965 -0.6918  0.3149
  404MOL0     C53218   6.936   9.590   2.645  0.2321 -0.3473 -0.5196
  404MOL0     C53219   6.829   9.506   2.708 -0.2628 -0.0364  0.6913
  404MOL0     O53220   6.716   9.487   2.618 -0.0470 -0.3510  0.2879
  404MOL0     C53221   6.637   9.382   2.624 -0.4680  0.2366  0.4558
  404MOL0     C53222   6.554   9.366   2.514  0.1846 -0.1180  0.1346
  404MOL0     C53223   6.469   9.249   2.504 -0.0081  0.2416  0.4521
  404MOL0     C53224   6.469   9.155   2.605  1.0899  0.6254 -0.4810
  404MOL0     C53225   6.383   9.040   2.601 -0.4159 -0.9180  0.2350
  404MOL0     O53226   6.297   9.038   2.493  0.0974 -0.0231 -0.1387
  404MOL0     C53227   6.224   8.928   2.458 -0.3185  0.0831  1.1479
  404MOL0     C53228   6.162   8.840   2.550 -0.2884 -0.5108 -0.0365
  404MOL0     C53229   6.085   8.728   2.517 -0.1153 -0.6592 -0.4042
  404MOL0     C53230   6.076   8.700   2.379  0.5439  0.1984 -0.4396
  404MOL0     O53231   6.020   8.583   2.333  0.4159 -0.2445  0.5390
  404MOL0     C53232   6.058   8.461   2.399  1.2106  0.4759  1.1365
  404MOL0     C53233   6.110   8.367   2.284  0.8991 -0.0357  0.1199
  404MOL0     C53234   6.002   8.349   2.176  0.3999 -0.3296 -0.3385
  404MOL0     C53235   6.038   8.224   2.082  0.6577  0.0965  0.0312
  404MOL0     C53236   5.963   8.223   1.952  1.0527 -0.4164 -0.2301
  404MOL0     C53237   5.825   8.164   1.964 -0.2611  0.0194  0.0975
  404MOL0     C53238   5.763   8.189   1.828 -0.4295 -0.0870 -0.3308
  404MOL0     C53239   5.646   8.100   1.819  0.7822 -0.1277 -0.2973
  404MOL0    Cl53240   5.576   8.126   1.660 -0.3483 -0.1261  0.3055
  404MOL0     C53241   6.129   8.787   2.279 -0.2049 -0.6043  0.2212
  404MOL0     C53242   6.200   8.904   2.320  0.5559  0.4339  0.3713
  404MOL0     O53243   6.414   8.949   2.679 -0.5556 -0.1765 -0.3683
  404MOL0     C53244   6.553   9.175   2.717  0.1914  0.0810  0.0370
  404MOL0     C53245   6.641   9.286   2.725 -0.3543 -0.4526  0.1043
  404MOL0     N53246   7.279   9.539   2.965 -0.4426 -0.8645 -0.6295
  404MOL0     N53247   7.393   9.594   3.009  0.6971  0.3830  0.1645
  404MOL0     C53248   7.663   9.768   4.031  0.1728  0.1184 -0.4830
  404MOL0     C53249   7.692   9.797   4.167  0.2033 -0.2804 -0.3280
  404MOL0     C53250   7.660  10.035   4.568  0.3468  0.7296 -0.3670
  404MOL0     C53251   7.655  10.154   4.636  0.3285 -0.3834 -0.4736
  404MOL0     C53252   7.705  10.169   4.762  0.2410 -0.3108  0.5102
  404MOL0     C53253   7.756  10.060   4.828 -0.5712  0.6376 -0.5967
  404MOL0     O53254   7.777  10.072   4.968  0.4531  0.4389  1.0833
  404MOL0     C53255   7.837   9.956   5.043  0.1917 -0.4553  0.2658
  404MOL0     C53256   7.907  10.021   5.176 -0.2170  0.5750 -0.6302
  404MOL0     C53257   7.977   9.903   5.250 -0.7459  0.0687 -0.9518
  404MOL0     C53258   8.006   9.924   5.398  0.0847  0.8101  0.0828
  404MOL0     C53259   7.883   9.885   5.478 -0.0029 -0.0477  0.5102
  404MOL0     C53260   7.788   9.863   5.553 -0.4225 -0.1647  0.3113
  404MOL0     C53261   7.761   9.934   4.763 -0.1757 -0.4567  0.1649
  404MOL0     C53262   7.720   9.927   4.637  0.5592 -0.4923 -0.7953
  404MOL0     H53263   7.398   9.939   4.259  0.6768 -1.1529  1.4443
  404MOL0     H53264   7.337   9.869   4.043 -0.5483 -0.2072  1.4362
  404MOL0     H53265   7.683   9.733   3.762 -0.2328  0.9582  0.9083
  404MOL0     H53266   7.610   9.889   3.750 -2.3989  0.6302  0.8918
  404MOL0     H53267   7.496   9.830   3.569  0.8461 -0.2008 -1.1611
  404MOL0     H53268   7.425   9.679   3.629  0.3388 -0.9543 -0.4941
  404MOL0     H53269   7.665   9.585   3.594  1.7159  1.5264 -0.2695
  404MOL0     H53270   7.690   9.719   3.478  0.8893 -0.9297 -1.0855
  404MOL0     H53271   7.614   9.516   3.379 -0.7893  0.7850 -2.0152
  404MOL0     H53272   7.456   9.524   3.465 -0.4178  2.2726  0.9954
  404MOL0     H53273   7.398   9.709   3.343  0.7023  1.8050 -1.5615
  404MOL0     H53274   7.477   9.600   3.224 -0.7356 -0.4412 -0.5093
  404MOL0     H53275   7.677   9.753   3.246  0.5407 -1.2270  4.2957
  404MOL0     H53276   7.591   9.858   3.360  0.0574  0.5902 -0.5990
  404MOL0     H53277   7.388   9.880   3.205 -1.1884 -2.7679 -1.6532
  404MOL0     H53278   7.523   9.977   3.174  0.2182  0.1436 -1.5361
  404MOL0     H53279   7.578   9.777   2.998 -1.7049 -3.3511  0.0664
  404MOL0     H53280   7.465   9.911   2.963  0.6101 -1.6965 -3.4769
  404MOL0     H53281   7.224   9.857   2.949  2.8398 -0.1551 -0.4657
  404MOL0     H53282   6.986   9.723   2.893 -0.8752 -0.5463  0.8252
  404MOL0     H53283   6.994   9.548   2.925  1.9476  0.1415  2.7596
  404MOL0     H53284   7.114   9.499   2.715 -0.7197 -1.6888  2.2241
  404MOL0     H53285   7.130   9.664   2.676 -2.6426  1.4259 -1.0469
  404MOL0     H53286   6.910   9.694   2.623  0.0697 -0.5246 -1.2014
  404MOL0     H53287   6.974   9.559   2.547 -0.3351 -0.5632 -0.6774
  404MOL0     H53288   6.800   9.562   2.797 -0.6142 -1.2282  1.3579
  404MOL0     H53289   6.866   9.409   2.742 -1.2294 -0.8134 -0.3645
  404MOL0     H53290   6.556   9.427   2.424  3.0511  0.4642  0.4889
  404MOL0     H53291   6.415   9.252   2.410 -1.3328  2.9095  1.1795
  404MOL0     H53292   6.170   8.866   2.655  0.6804 -4.0603  0.8947
  404MOL0     H53293   6.054   8.664   2.599  0.6158 -1.3118 -0.6221
  404MOL0     H53294   5.975   8.426   2.461  0.5399  0.8310  0.4572
  404MOL0     H53295   6.143   8.486   2.464  0.5697  0.7526  1.8853
  404MOL0     H53296   6.140   8.281   2.344  3.5026  1.0121  0.4755
  404MOL0     H53297   6.198   8.410   2.235 -0.7527  1.3935 -1.7795
  404MOL0     H53298   5.975   8.438   2.118 -4.9990  1.7768  4.4229
  404MOL0     H53299   5.904   8.324   2.216  0.0562 -1.2160 -1.6636
  404MOL0     H53300   6.137   8.221   2.035 -0.4722 -0.3843 -2.4765
  404MOL0     H53301   6.018   8.132   2.137 -1.6094  1.1339  1.0790
  404MOL0     H53302   6.013   8.158   1.879  1.4679  0.4286 -0.7070
  404MOL0     H53303   5.958   8.326   1.916 -2.3318  0.0789  1.3714
  404MOL0     H53304   5.762   8.223   2.031 -2.1307 -0.2655 -1.3373
  404MOL0     H53305   5.821   8.059   1.994 -1.8169 -0.4827 -1.7244
  404MOL0     H53306   5.736   8.293   1.811 -0.3742  0.0319  0.3162
  404MOL0     H53307   5.839   8.170   1.750 -0.2485  1.9082 -0.6919
  404MOL0     H53308   5.568   8.123   1.893 -0.0183 -0.8993 -0.8731
  404MOL0     H53309   5.684   7.998   1.825  2.6709  0.4757 -1.1468
  404MOL0     H53310   6.114   8.765   2.174 -1.3499 -2.3988  0.7204
  404MOL0     H53311   6.240   8.972   2.244 -2.4551  1.1892 -0.6713
  404MOL0     H53312   6.540   9.111   2.804 -0.8554  0.6968  0.3437
  404MOL0     H53313   6.680   9.306   2.825 -0.7042  0.6609  0.0288
  404MOL0     H53314   7.725   9.704   3.968 -0.2980 -1.5799  0.6927
  404MOL0     H53315   7.790   9.768   4.203 -0.0787 -0.3937  0.3761
  404MOL0     H53316   7.633  10.245   4.580  1.0468  0.9068  1.2204
  404MOL0     H53317   7.688  10.260   4.818  0.0031  1.3854 -2.1306
  404MOL0     H53318   7.912   9.909   4.978 -1.6105 -1.0997 -1.4219
  404MOL0     H53319   7.754   9.890   5.067  0.4320 -1.4224 -1.4303
  404MOL0     H53320   7.979  10.100   5.150 -0.9202  0.6499 -2.4806
  404MOL0     H53321   7.826  10.060   5.238 -0.2996 -2.9903  1.7893
  404MOL0     H53322   8.069   9.886   5.192 -0.2447  0.4238 -0.2765
  404MOL0     H53323   7.917   9.813   5.235 -1.5256  0.4582 -0.2341
  404MOL0     H53324   8.097   9.867   5.419  0.2657  0.8532 -0.5395
  404MOL0     H53325   8.036  10.029   5.406 -1.7220  1.4193 -0.5436
  404MOL0     H53326   7.698   9.843   5.607 -2.6052  1.0261 -2.6173
  404MOL0     H53327   7.787   9.841   4.813 -1.3482  0.5504  2.8734
  404MOL0     H53328   7.722   9.831   4.585  0.4972 -0.9058 -0.0382
  405MOL0     O53329   7.361   1.226   9.174  0.0042 -0.7667  0.4769
  405MOL0     C53330   7.400   1.114   9.145 -0.5997  0.1471  0.3072
  405MOL0     O53331   7.318   1.012   9.103 -0.1711 -0.5060 -0.0253
  405MOL0     C53332   7.186   1.038   9.107 -0.2032 -0.2715 -0.6096
  405MOL0     C53333   7.111   1.104   9.005  1.3396  0.0022  0.1489
  405MOL0     C53334   6.973   1.116   9.023  0.2255  0.0457  0.0882
  405MOL0     C53335   6.913   1.086   9.137  0.1917  1.1071 -0.8415
  405MOL0     O53336   6.787   1.124   9.162  0.1322  0.6231 -0.9069
  405MOL0     C53337   6.703   1.010   9.148  0.3714 -0.7214  0.0783
  405MOL0     C53338   6.565   1.049   9.192  0.3840 -0.4966 -0.1936
  405MOL0     C53339   6.512   1.168   9.114  1.0692 -0.8997 -0.2600
  405MOL0     C53340   6.375   1.218   9.167 -0.4089 -0.3676  0.7524
  405MOL0     C53341   6.326   1.345   9.090 -0.1458  0.1045 -0.5010
  405MOL0     C53342   6.202   1.402   9.157 -0.5582  0.4143 -0.3605
  405MOL0     C53343   6.143   1.512   9.074 -0.0392  0.1454 -1.0812
  405MOL0     C53344   6.083   1.623   9.152  1.1619 -0.3997 -0.0591
  405MOL0     N53345   5.956   1.586   9.211  0.6731 -0.4145 -0.0347
  405MOL0     C53346   5.836   1.566   9.144 -0.0086 -0.9686 -0.9550
  405MOL0     C53347   5.755   1.507   9.232  0.0689  0.0149 -0.1127
  405MOL0     C53348   5.622   1.439   9.206 -0.9485 -0.8280  0.6628
  405MOL0     C53349   5.568   1.387   9.333  0.8852  0.5027  0.6444
  405MOL0     C53350   5.417   1.338   9.307 -0.0109  0.1304 -0.5616
  405MOL0     C53351   5.353   1.282   9.436  0.1115  0.4110  0.1281
  405MOL0     O53352   5.210   1.279   9.411 -0.6101  0.8184 -0.4696
  405MOL0     C53353   5.123   1.283   9.511  0.5500 -0.3127  1.0739
  405MOL0     C53354   4.990   1.317   9.480 -0.1753  0.0081 -1.1398
  405MOL0     C53355   4.904   1.319   9.588  1.0584  0.1194 -0.5344
  405MOL0     C53356   4.938   1.269   9.713 -0.3002  0.2675 -0.7003
  405MOL0     C53357   4.843   1.237   9.818  0.3247 -0.2536 -0.1250
  405MOL0     O53358   4.715   1.232   9.777 -0.1396  0.5242 -0.3059
  405MOL0     C53359   4.611   1.248   9.865 -0.0072 -0.6130 -0.5035
  405MOL0     C53360   4.506   1.161   9.865 -0.4710  0.5311  0.1400
  405MOL0     C53361   4.399   1.184   9.953 -0.3398 -0.3350  0.3763
  405MOL0     C53362   4.389   1.298  10.034 -0.5260  0.1783 -0.3444
  405MOL0     O53363   4.280   1.334  10.110  0.7769  0.2085  0.1197
  405MOL0     C53364   4.152   1.303  10.070  0.3793 -0.4641  0.0415
  405MOL0     C53365   4.050   1.369  10.165  0.5822 -0.8740  0.0432
  405MOL0     C53366   3.906   1.299  10.136 -0.2472  0.4204 -0.2460
  405MOL0     C53367   3.802   1.376  10.228 -0.8152 -0.5026  0.8263
  405MOL0     C53368   3.663   1.314  10.234 -0.9140 -0.0020 -1.0545
  405MOL0     C53369   3.614   1.292  10.098 -0.3649  0.0200  0.7718
  405MOL0     C53370   3.459   1.294  10.085  0.1054 -0.0803  0.1337
  405MOL0     C53371   3.408   1.265   9.940 -0.9152  0.6868 -0.1924
  405MOL0    Cl53372   3.463   1.103   9.879  0.2056  0.6442 -0.3541
  405MOL0     C53373   4.496   1.388  10.028 -1.0201  0.2802 -0.3047
  405MOL0     C53374   4.615   1.359   9.953 -0.4011 -0.2738 -0.1979
  405MOL0     O53375   4.882   1.223   9.929 -0.5046  0.3391 -0.6490
  405MOL0     C53376   5.071   1.229   9.732  0.0034  0.0891  0.1217
  405MOL0     C53377   5.164   1.245   9.639  1.0114 -0.0559 -0.0974
  405MOL0     N53378   5.826   1.483   9.347 -1.0500 -0.7286 -0.7306
  405MOL0     N53379   5.943   1.540   9.338 -0.5336  0.1037 -0.7072
  405MOL0     C53380   6.991   1.038   9.241 -0.9911  0.1677 -0.2357
  405MOL0     C53381   7.124   1.003   9.233 -0.4961 -0.7188  0.7926
  405MOL0     C53382   7.551   1.080   9.169  0.9022  0.6100 -0.6086
  405MOL0     C53383   7.596   0.947   9.166  0.3313 -0.2581 -0.2843
  405MOL0     C53384   7.720   0.917   9.145 -1.0665 -0.1332  1.0287
  405MOL0     C53385   7.822   1.015   9.141  0.5311 -0.2493  0.2439
  405MOL0     O53386   7.944   0.980   9.100 -1.3521 -0.4235 -0.1103
  405MOL0     C53387   8.063   1.038   9.155  0.6149 -0.0166 -0.1690
  405MOL0     C53388   8.177   1.069   9.053  0.5821  0.5673 -0.5585
  405MOL0     C53389   8.117   1.167   8.947 -0.3252  0.4179  0.8002
  405MOL0     C53390   8.225   1.173   8.836 -0.1662  0.2993  0.3015
  405MOL0     C53391   8.179   1.274   8.737 -0.3372  0.4360 -0.3230
  405MOL0     C53392   8.149   1.359   8.652 -0.0291  0.3901 -0.0485
  405MOL0     C53393   7.786   1.155   9.144 -0.0710  0.0155 -0.6928
  405MOL0     C53394   7.649   1.186   9.159  0.4119  0.5111 -0.6250
  405MOL0     H53395   7.156   1.133   8.911  0.9805  1.6322  0.4497
  405MOL0     H53396   6.907   1.163   8.951 -2.2368 -2.4308  0.5751
  405MOL0     H53397   6.730   0.915   9.195 -1.1929 -1.0747  0.3127
  405MOL0     H53398   6.695   0.993   9.040  1.1049 -0.3081 -0.0529
  405MOL0     H53399   6.554   1.079   9.296  0.9565  0.7405 -0.4756
  405MOL0     H53400   6.502   0.962   9.173 -1.1014  0.2483  1.0885
  405MOL0     H53401   6.501   1.134   9.011 -0.2699 -2.6874  0.4218
  405MOL0     H53402   6.586   1.248   9.102  0.6596 -0.7262 -1.8887
  405MOL0     H53403   6.297   1.141   9.163 -0.6042 -0.1269 -0.6161
  405MOL0     H53404   6.404   1.243   9.270  3.6898  1.4579 -0.6223
  405MOL0     H53405   6.286   1.300   9.000 -0.0650  0.3681 -0.6689
  405MOL0     H53406   6.404   1.422   9.092 -2.8139  3.2169  3.6834
  405MOL0     H53407   6.222   1.430   9.261 -0.9336 -0.6840  0.0231
  405MOL0     H53408   6.126   1.324   9.169  0.5329 -0.3278  2.7177
  405MOL0     H53409   6.230   1.555   9.024  0.4099 -0.3724 -0.7523
  405MOL0     H53410   6.071   1.482   8.997 -1.0582 -0.4617  0.0631
  405MOL0     H53411   6.070   1.702   9.077  0.5437 -0.3731  0.0681
  405MOL0     H53412   6.150   1.652   9.233 -0.2600 -2.0636  1.8245
  405MOL0     H53413   5.817   1.592   9.040 -1.4094 -2.7890 -1.2050
  405MOL0     H53414   5.640   1.370   9.123  1.5236  0.9568 -0.4156
  405MOL0     H53415   5.549   1.504   9.156  0.2577 -1.6934 -2.4842
  405MOL0     H53416   5.566   1.472   9.402 -1.1277  2.9471 -2.1545
  405MOL0     H53417   5.630   1.306   9.371 -2.0111 -1.7695  0.8291
  405MOL0     H53418   5.368   1.431   9.277 -1.0642 -0.6356 -1.2641
  405MOL0     H53419   5.419   1.263   9.228 -0.0041 -1.8306  1.2153
  405MOL0     H53420   5.378   1.353   9.516  1.1333  0.5197 -0.2721
  405MOL0     H53421   5.397   1.187   9.466 -2.0441 -0.8028 -0.3418
  405MOL0     H53422   4.952   1.333   9.380 -2.2371  0.2499 -0.3621
  405MOL0     H53423   4.801   1.352   9.570  0.4030 -0.7839  1.3485
  405MOL0     H53424   4.508   1.077   9.796  1.0534  0.0381  0.7445
  405MOL0     H53425   4.309   1.123   9.950  0.2821 -1.4056 -4.7554
  405MOL0     H53426   4.126   1.196  10.070 -0.7501 -0.2039  0.3804
  405MOL0     H53427   4.134   1.342   9.970  2.4934 -1.7019 -0.8802
  405MOL0     H53428   4.053   1.478  10.154  1.5885 -0.6423  2.1291
  405MOL0     H53429   4.083   1.361  10.269  0.1339  0.0591  0.2723
  405MOL0     H53430   3.901   1.193  10.160 -0.5538  0.8530  1.7280
  405MOL0     H53431   3.887   1.319  10.030 -1.7383  1.0364  0.1072
  405MOL0     H53432   3.834   1.374  10.333  1.0182 -1.2729  0.2951
  405MOL0     H53433   3.791   1.482  10.202  0.7530 -0.3423  0.7475
  405MOL0     H53434   3.610   1.390  10.292 -0.9214 -1.8315  1.5439
  405MOL0     H53435   3.654   1.228  10.301  2.1065  1.4337  1.4283
  405MOL0     H53436   3.655   1.195  10.068  1.6375  0.3848  2.1810
  405MOL0     H53437   3.658   1.370  10.035  0.8776 -0.4950  0.9788
  405MOL0     H53438   3.404   1.224  10.148  1.2947 -1.5854 -0.4505
  405MOL0     H53439   3.429   1.398  10.103 -1.1606  0.3831 -3.6492
  405MOL0     H53440   3.446   1.351   9.885 -0.7267  1.3614  0.9734
  405MOL0     H53441   3.298   1.262   9.939 -0.9109 -2.2315 -1.4060
  405MOL0     H53442   4.476   1.480  10.081  1.2816 -0.4511  2.0520
  405MOL0     H53443   4.685   1.440   9.934 -3.2708  2.9286  1.5823
  405MOL0     H53444   5.109   1.186   9.825 -1.9572  1.3276  1.5862
  405MOL0     H53445   5.267   1.222   9.666  0.0490 -1.9540  2.3457
  405MOL0     H53446   6.940   1.039   9.337 -1.1735  0.2193 -0.3333
  405MOL0     H53447   7.188   0.976   9.317  1.0314  4.1106  1.5302
  405MOL0     H53448   7.524   0.866   9.175  0.1105 -0.2888 -1.9498
  405MOL0     H53449   7.738   0.811   9.138 -1.5118 -0.1238 -0.6393
  405MOL0     H53450   8.098   0.987   9.246  1.3818  2.1628  0.8321
  405MOL0     H53451   8.034   1.135   9.197 -0.6051  0.6950 -2.5271
  405MOL0     H53452   8.258   1.112   9.112 -0.8344  2.6044  0.0048
  405MOL0     H53453   8.207   0.976   9.003 -3.2741 -1.2055  0.0281
  405MOL0     H53454   8.095   1.264   8.992 -0.8335 -0.9334  3.7050
  405MOL0     H53455   8.029   1.120   8.903 -0.0908 -1.0407  1.8104
  405MOL0     H53456   8.322   1.200   8.879  0.7317  2.7646 -2.9134
  405MOL0     H53457   8.234   1.077   8.784 -0.6412  0.1677  0.4499
  405MOL0     H53458   8.111   1.432   8.583 -0.8599  0.9500  0.9581
  405MOL0     H53459   7.856   1.236   9.128  1.0953 -0.5458  1.3056
  405MOL0     H53460   7.620   1.290   9.171 -1.4583 -0.1780  1.6715
  406MOL0     O53461   5.210   8.732   4.645  0.0342  0.2291  0.0373
  406MOL0     C53462   5.236   8.726   4.762 -0.5037 -0.3174 -0.0686
  406MOL0     O53463   5.153   8.691   4.861  0.3340  0.6004  0.8211
  406MOL0     C53464   5.018   8.700   4.854  0.1022  0.0977  0.9101
  406MOL0     C53465   4.932   8.784   4.772 -0.8525 -0.9683 -0.6953
  406MOL0     C53466   4.790   8.787   4.784 -0.4605  0.9116 -0.4060
  406MOL0     C53467   4.732   8.707   4.875 -0.0166  1.0868 -0.9868
  406MOL0     O53468   4.589   8.700   4.895 -0.4141  0.3022  0.4063
  406MOL0     C53469   4.528   8.627   4.788  0.0949 -0.3168  0.0043
  406MOL0     C53470   4.380   8.678   4.789  0.0538 -0.3459 -0.0303
  406MOL0     C53471   4.309   8.623   4.665  0.2212  0.0165  0.3573
  406MOL0     C53472   4.286   8.479   4.664 -0.0806  0.2142  0.3589
  406MOL0     C53473   4.165   8.450   4.753 -0.1323  0.9306 -0.8005
  406MOL0     C53474   4.127   8.301   4.749  0.5879  0.0355 -0.0470
  406MOL0     C53475   4.019   8.254   4.848 -0.5038  0.0119 -1.0493
  406MOL0     C53476   3.890   8.325   4.844 -0.9538  0.0618 -0.0208
  406MOL0     N53477   3.814   8.305   4.726 -0.7124 -0.1889  0.1082
  406MOL0     C53478   3.771   8.182   4.684  0.7435  0.6620  1.0959
  406MOL0     C53479   3.672   8.203   4.599 -0.0775 -1.1457  0.3489
  406MOL0     C53480   3.581   8.102   4.539 -0.0953  0.0595 -0.0895
  406MOL0     C53481   3.443   8.125   4.605 -0.0480 -0.4998 -0.2649
  406MOL0     C53482   3.354   8.013   4.566  0.8304 -0.7972 -0.4811
  406MOL0     C53483   3.245   7.997   4.669 -0.1292 -0.4691  0.3080
  406MOL0     O53484   3.156   8.104   4.651 -0.2447  0.5982 -0.0345
  406MOL0     C53485   3.031   8.095   4.697  0.2495 -0.3065 -1.0837
  406MOL0     C53486   2.976   7.983   4.750  0.2959 -0.0100  0.5190
  406MOL0     C53487   2.843   7.992   4.802  0.2080 -0.4773 -0.8335
  406MOL0     C53488   2.771   8.110   4.818 -0.3658  0.0808  0.3090
  406MOL0     C53489   2.636   8.109   4.885 -0.2154  0.9964  0.6736
  406MOL0     O53490   2.563   8.208   4.850 -0.2698  0.0943 -0.6352
  406MOL0     C53491   2.427   8.215   4.867 -0.3365  1.5837 -0.7569
  406MOL0     C53492   2.373   8.342   4.872  0.0684 -0.2037 -0.6501
  406MOL0     C53493   2.232   8.359   4.890  0.2740 -0.2510  0.5396
  406MOL0     C53494   2.150   8.245   4.888 -0.0293  0.8807  0.1398
  406MOL0     O53495   2.017   8.274   4.885  0.0026 -0.2064 -0.0978
  406MOL0     C53496   1.943   8.216   4.983  0.4500 -1.0010 -1.0185
  406MOL0     C53497   1.806   8.187   4.919  0.9021 -0.3449  0.0656
  406MOL0     C53498   1.816   8.066   4.819  0.6660 -0.3193 -0.5786
  406MOL0     C53499   1.813   7.918   4.887  0.2780 -0.3922 -0.1436
  406MOL0     C53500   1.713   7.881   4.993  0.7582 -0.0974  0.0267
  406MOL0     C53501   1.564   7.911   4.950 -0.3643 -1.2839 -0.1617
  406MOL0     C53502   1.452   7.824   5.015  0.8686 -1.0218 -0.0677
  406MOL0     C53503   1.313   7.867   4.967  0.5819 -0.0132 -0.0865
  406MOL0    Cl53504   1.290   7.829   4.795  0.0488  0.0862 -0.2992
  406MOL0     C53505   2.202   8.123   4.857  0.7375  0.4403 -0.7047
  406MOL0     C53506   2.339   8.105   4.860  0.4802  0.2254  0.1203
  406MOL0     O53507   2.601   8.011   4.957 -0.0416 -0.5550 -0.4627
  406MOL0     C53508   2.827   8.226   4.767 -0.3011  0.0836  0.7792
  406MOL0     C53509   2.956   8.216   4.702 -0.4660  0.4343 -0.3385
  406MOL0     N53510   3.655   8.344   4.585 -0.4622 -0.4733  0.9688
  406MOL0     N53511   3.740   8.400   4.674 -0.1775  0.2977 -0.3396
  406MOL0     C53512   4.806   8.625   4.961 -0.3413  0.3313 -0.5451
  406MOL0     C53513   4.948   8.625   4.956  0.7136  0.1834 -0.2243
  406MOL0     C53514   5.375   8.759   4.813  0.1899  1.1953 -0.3777
  406MOL0     C53515   5.479   8.768   4.714 -0.4297 -0.7539 -0.5582
  406MOL0     C53516   5.601   8.796   4.762 -0.5494 -0.2463  0.8115
  406MOL0     C53517   5.640   8.816   4.887  0.6724  0.1687  0.0779
  406MOL0     O53518   5.779   8.836   4.906 -0.5004 -1.5706 -0.1987
  406MOL0     C53519   5.833   8.899   5.025  0.0208  0.5380  0.3108
  406MOL0     C53520   5.965   8.820   5.050  0.2805  0.7991 -0.0077
  406MOL0     C53521   6.063   8.836   4.935 -0.1137  0.1906  0.3991
  406MOL0     C53522   6.104   8.981   4.908  0.7567 -0.0142  0.2279
  406MOL0     C53523   6.209   8.992   4.805 -0.5805  0.0596 -0.2240
  406MOL0     C53524   6.285   9.003   4.713  0.0489  0.0747  0.3006
  406MOL0     C53525   5.542   8.808   4.985  0.3382  0.0694 -0.1655
  406MOL0     C53526   5.411   8.785   4.947  0.1357  0.7754 -0.0839
  406MOL0     H53527   4.973   8.853   4.699 -0.7098  1.1219  1.2640
  406MOL0     H53528   4.726   8.854   4.727 -0.2756  2.6001  1.2706
  406MOL0     H53529   4.525   8.521   4.813 -2.7617 -0.1409  0.7653
  406MOL0     H53530   4.577   8.645   4.692 -0.2611  2.2311  0.2104
  406MOL0     H53531   4.381   8.787   4.787  4.8204 -0.0099  2.9662
  406MOL0     H53532   4.335   8.645   4.884 -0.9816  0.0836 -0.3685
  406MOL0     H53533   4.371   8.656   4.581  0.2547  2.5916  1.2991
  406MOL0     H53534   4.220   8.685   4.651  0.2964 -0.2313 -1.5478
  406MOL0     H53535   4.270   8.443   4.562 -1.5326  2.3095 -0.2236
  406MOL0     H53536   4.369   8.416   4.695 -0.0712  0.0755  0.0462
  406MOL0     H53537   4.080   8.512   4.724 -0.5022  1.2067  0.8226
  406MOL0     H53538   4.183   8.482   4.856  0.9312  4.8339 -2.0448
  406MOL0     H53539   4.223   8.254   4.769  1.1947  1.6163  0.9896
  406MOL0     H53540   4.090   8.278   4.649 -1.0344 -0.3952  0.6267
  406MOL0     H53541   4.007   8.147   4.828 -0.6792  0.1147 -1.4987
  406MOL0     H53542   4.062   8.254   4.948  0.0083 -0.8243 -1.2591
  406MOL0     H53543   3.910   8.432   4.858 -1.9516  0.4005 -1.0151
  406MOL0     H53544   3.824   8.284   4.920 -0.7842 -1.6682 -0.7539
  406MOL0     H53545   3.780   8.080   4.720 -1.1093  0.9391  2.4364
  406MOL0     H53546   3.611   7.998   4.551 -0.8668  0.1463  4.7628
  406MOL0     H53547   3.563   8.121   4.433  2.3692 -2.8112 -1.1531
  406MOL0     H53548   3.415   8.228   4.582  4.7367  1.6532  2.0999
  406MOL0     H53549   3.459   8.134   4.713  3.5572 -1.2949 -0.5946
  406MOL0     H53550   3.313   8.023   4.466  0.7148  1.6288 -0.2389
  406MOL0     H53551   3.405   7.916   4.557 -2.0874 -2.5587  0.6393
  406MOL0     H53552   3.284   7.983   4.770  0.8825  1.9851  0.3303
  406MOL0     H53553   3.203   7.899   4.643 -0.6210  0.1870 -1.5641
  406MOL0     H53554   3.031   7.890   4.745  1.2173  0.4893  1.0453
  406MOL0     H53555   2.784   7.905   4.830  1.5054 -0.3958  2.7421
  406MOL0     H53556   2.431   8.434   4.873  2.0346 -1.3947 -0.7320
  406MOL0     H53557   2.188   8.457   4.908 -0.4593 -0.6759  1.1378
  406MOL0     H53558   1.931   8.278   5.072  1.1642 -1.4464 -0.6065
  406MOL0     H53559   1.985   8.120   5.013 -2.5807 -3.2397 -3.2485
  406MOL0     H53560   1.772   8.281   4.875  0.1767 -2.1722 -3.6346
  406MOL0     H53561   1.731   8.168   4.997 -2.6026  0.0684 -2.9537
  406MOL0     H53562   1.904   8.086   4.757  1.0250  1.3656  0.3810
  406MOL0     H53563   1.732   8.078   4.751  0.5309  1.3934 -0.1680
  406MOL0     H53564   1.802   7.844   4.807 -0.7927  0.8488 -1.1957
  406MOL0     H53565   1.912   7.905   4.931 -0.4652  2.8753  2.9621
  406MOL0     H53566   1.741   7.924   5.090  0.8080  1.0561 -0.4739
  406MOL0     H53567   1.714   7.773   5.007 -0.7882 -0.5408 -2.6071
  406MOL0     H53568   1.555   7.896   4.842  2.5468 -0.1227 -0.6729
  406MOL0     H53569   1.553   8.017   4.974  2.0038 -1.6035  3.0497
  406MOL0     H53570   1.454   7.719   4.988 -0.5281 -1.1155  0.1285
  406MOL0     H53571   1.471   7.826   5.123  0.5193  0.9627  0.0022
  406MOL0     H53572   1.303   7.975   4.978  3.1103  0.3999 -1.0844
  406MOL0     H53573   1.229   7.822   5.020 -0.1978  1.7577  0.2433
  406MOL0     H53574   2.126   8.045   4.853 -1.0595  2.1237 -0.4373
  406MOL0     H53575   2.379   8.008   4.833 -2.3559 -0.7255 -1.0248
  406MOL0     H53576   2.771   8.318   4.774  0.8174  0.7099  1.9550
  406MOL0     H53577   2.990   8.309   4.657  0.7954  0.0547 -0.2276
  406MOL0     H53578   4.757   8.552   5.026 -0.3230  0.7323 -0.0721
  406MOL0     H53579   5.015   8.557   5.007  0.4529 -0.8208 -1.2117
  406MOL0     H53580   5.460   8.744   4.610  1.4601 -0.8406 -0.9056
  406MOL0     H53581   5.684   8.800   4.691 -2.1408  2.4322 -1.1015
  406MOL0     H53582   5.765   8.889   5.110 -2.0712  3.1133 -0.9083
  406MOL0     H53583   5.850   9.006   5.007  1.6054  0.2533 -0.0630
  406MOL0     H53584   6.002   8.855   5.146 -4.6987  2.7878  1.5297
  406MOL0     H53585   5.943   8.712   5.052  0.5262  0.6333  4.7411
  406MOL0     H53586   6.031   8.780   4.847 -0.0917  0.2596  0.3468
  406MOL0     H53587   6.159   8.790   4.964  0.0717  0.8887  0.9331
  406MOL0     H53588   6.019   9.039   4.873  1.3649 -0.1834 -1.6667
  406MOL0     H53589   6.130   9.015   5.009 -2.4157  1.5463  0.6493
  406MOL0     H53590   6.337   9.014   4.619 -0.8208  1.6496 -0.0380
  406MOL0     H53591   5.573   8.817   5.088 -1.4159 -2.2478  0.6615
  406MOL0     H53592   5.332   8.777   5.022  0.2887 -1.7433 -0.1196
  407MOL0     O53593  11.183   7.763   0.861 -0.0347 -1.0067 -0.7960
  407MOL0     C53594  11.261   7.858   0.877  0.2591  0.4759  0.2958
  407MOL0     O53595  11.226   7.966   0.938 -0.0725 -0.2156  0.1745
  407MOL0     C53596  11.097   8.007   0.965  1.2469 -0.3718  0.8732
  407MOL0     C53597  11.075   8.080   1.079  0.7890  0.0335  1.2576
  407MOL0     C53598  10.951   8.136   1.110  0.5547  0.6899 -0.4693
  407MOL0     C53599  10.838   8.106   1.031 -0.4399 -0.0797  0.1757
  407MOL0     O53600  10.720   8.169   1.065  0.1073  0.3092 -0.1549
  407MOL0     C53601  10.595   8.105   1.025  0.0051  0.8231  0.4833
  407MOL0     C53602  10.479   8.127   1.116 -0.3391  0.5829  0.1155
  407MOL0     C53603  10.518   8.110   1.256  0.6334  0.3705  1.2171
  407MOL0     C53604  10.548   7.965   1.290  0.3366 -0.5240 -0.5477
  407MOL0     C53605  10.592   7.940   1.435  0.3316 -0.5558  0.4261
  407MOL0     C53606  10.721   8.020   1.488  0.5035 -0.0246 -0.4143
  407MOL0     C53607  10.852   7.981   1.419  0.1906  0.2708  0.8769
  407MOL0     C53608  10.928   7.875   1.495  0.1945 -0.4480 -0.4570
  407MOL0     N53609  11.071   7.896   1.477 -0.7582  0.2925 -0.8612
  407MOL0     C53610  11.147   7.808   1.396  0.3437  0.4841  0.2962
  407MOL0     C53611  11.271   7.836   1.416  0.2240  0.7784  0.0107
  407MOL0     C53612  11.387   7.773   1.334  0.0089  0.8959  0.3440
  407MOL0     C53613  11.452   7.896   1.264 -0.7546 -0.3005  0.3005
  407MOL0     C53614  11.564   7.863   1.157 -0.0828 -0.3808 -0.6934
  407MOL0     C53615  11.697   7.814   1.220  0.3591  0.3532 -0.1830
  407MOL0     O53616  11.800   7.775   1.127  0.0172  0.2179  0.0520
  407MOL0     C53617  11.929   7.764   1.172 -0.2141  0.0144  0.4658
  407MOL0     C53618  12.030   7.793   1.078 -0.1301  0.2350 -0.1812
  407MOL0     C53619  12.168   7.795   1.097 -0.2186 -0.3343  0.0903
  407MOL0     C53620  12.213   7.768   1.226  0.2490 -0.1068  0.8408
  407MOL0     C53621  12.360   7.782   1.263 -0.0132  0.1025  0.3216
  407MOL0     O53622  12.394   7.755   1.387 -0.9894  1.1316 -0.7709
  407MOL0     C53623  12.532   7.782   1.411  0.5395 -0.3154  0.1486
  407MOL0     C53624  12.643   7.703   1.370 -0.3439  0.1300  0.2747
  407MOL0     C53625  12.768   7.737   1.416 -0.9741  0.2766  0.1809
  407MOL0     C53626  12.782   7.833   1.518 -0.9070  0.3385 -0.8625
  407MOL0     O53627  12.908   7.845   1.577 -0.2120 -0.2042 -0.2066
  407MOL0     C53628  13.021   7.851   1.485 -0.3413  0.7795 -0.0331
  407MOL0     C53629  13.126   7.948   1.545 -0.2402  0.3018  0.2633
  407MOL0     C53630  13.254   7.944   1.454 -0.2764 -0.0036  0.3630
  407MOL0     C53631  13.360   8.046   1.499  0.2303  0.0111  0.0545
  407MOL0     C53632  13.447   8.094   1.383  0.2876 -0.0464  0.4102
  407MOL0     C53633  13.532   8.213   1.426  0.2424 -0.1190  0.7868
  407MOL0     C53634  13.632   8.262   1.331 -0.4166  0.5933 -0.0052
  407MOL0     C53635  13.770   8.199   1.323 -0.3185 -0.3798  0.2875
  407MOL0    Cl53636  13.872   8.269   1.460  0.0393  0.0965  0.0437
  407MOL0     C53637  12.672   7.894   1.569  0.0897 -0.7885  0.5320
  407MOL0     C53638  12.543   7.875   1.514 -0.8988 -0.3480  0.7069
  407MOL0     O53639  12.435   7.815   1.167 -0.5421 -0.5826 -0.0335
  407MOL0     C53640  12.122   7.738   1.325  0.3471  0.0838 -0.3935
  407MOL0     C53641  11.973   7.735   1.299 -0.2805 -0.4194  0.3774
  407MOL0     N53642  11.278   7.929   1.521 -0.6712 -0.6846  0.5481
  407MOL0     N53643  11.159   7.970   1.549 -0.4712  0.1134  0.5496
  407MOL0     C53644  10.860   8.037   0.903 -0.1009  0.2860 -0.8939
  407MOL0     C53645  10.986   7.992   0.875  0.1154  0.8699 -0.5574
  407MOL0     C53646  11.395   7.844   0.822  0.7560  0.2862 -0.3046
  407MOL0     C53647  11.453   7.720   0.796 -0.0166  0.4648 -0.2558
  407MOL0     C53648  11.585   7.707   0.763  1.0750  0.2859  0.8328
  407MOL0     C53649  11.670   7.819   0.755 -0.1527 -0.1430  0.0640
  407MOL0     O53650  11.794   7.807   0.716 -0.1637  0.3178  0.4645
  407MOL0     C53651  11.828   7.781   0.572  0.0340 -0.5324 -0.1324
  407MOL0     C53652  11.958   7.841   0.534 -0.9339 -0.2889 -0.4440
  407MOL0     C53653  12.089   7.790   0.590 -0.1705 -0.6831 -0.2730
  407MOL0     C53654  12.072   7.666   0.686  0.3303  0.2006 -0.5359
  407MOL0     C53655  12.203   7.611   0.732 -0.0978 -0.3652  0.5090
  407MOL0     C53656  12.314   7.574   0.755  0.0401  0.5243  0.9306
  407MOL0     C53657  11.614   7.942   0.784 -0.5004  0.1307  0.4627
  407MOL0     C53658  11.479   7.956   0.816  0.1385  0.5347 -0.1847
  407MOL0     H53659  11.154   8.079   1.154  0.8380  2.4009  1.3307
  407MOL0     H53660  10.945   8.200   1.198  1.0845  3.2348 -2.1543
  407MOL0     H53661  10.623   8.001   1.007  4.1695  1.3955  2.3551
  407MOL0     H53662  10.569   8.134   0.923 -1.8251 -2.5863 -0.1632
  407MOL0     H53663  10.392   8.068   1.088  0.5639 -0.1387 -1.2979
  407MOL0     H53664  10.435   8.226   1.100 -1.2157  0.3484  1.0091
  407MOL0     H53665  10.430   8.144   1.311 -1.5548 -1.9238 -0.5968
  407MOL0     H53666  10.602   8.178   1.271  0.1824  1.6239 -1.3991
  407MOL0     H53667  10.455   7.909   1.273  0.0261 -0.5226  1.0060
  407MOL0     H53668  10.626   7.925   1.225  2.2619 -0.7496  1.7961
  407MOL0     H53669  10.615   7.833   1.443  2.1272 -0.3195 -0.8802
  407MOL0     H53670  10.508   7.969   1.499 -0.2108 -1.1787  0.0097
  407MOL0     H53671  10.735   7.999   1.594  2.8255  2.2961 -0.1636
  407MOL0     H53672  10.697   8.126   1.481  0.1293 -0.0443  0.5012
  407MOL0     H53673  10.854   7.961   1.311  1.5463  2.5103  0.4315
  407MOL0     H53674  10.911   8.073   1.417  0.9020 -0.0503 -3.4285
  407MOL0     H53675  10.908   7.772   1.463 -0.0790 -0.5459  0.0342
  407MOL0     H53676  10.908   7.878   1.602  0.8124 -0.0980 -0.3469
  407MOL0     H53677  11.120   7.744   1.313  1.1872  0.9534 -0.3581
  407MOL0     H53678  11.347   7.699   1.263 -1.8310  0.6450  1.5770
  407MOL0     H53679  11.457   7.720   1.398 -1.2053 -0.1190  0.8910
  407MOL0     H53680  11.501   7.957   1.341  0.9282 -0.4141 -0.6364
  407MOL0     H53681  11.378   7.951   1.206 -1.1898 -1.7789 -0.5844
  407MOL0     H53682  11.544   7.785   1.083  1.5393 -2.2299  0.7161
  407MOL0     H53683  11.591   7.958   1.110 -0.2023  0.3846  0.7190
  407MOL0     H53684  11.664   7.726   1.276  0.1318  0.1427 -0.6375
  407MOL0     H53685  11.733   7.894   1.285 -1.0120  0.3294  0.6425
  407MOL0     H53686  11.995   7.821   0.979  0.6554  3.1249  0.2512
  407MOL0     H53687  12.230   7.831   1.015 -0.5776 -2.5691 -1.2478
  407MOL0     H53688  12.644   7.632   1.287  2.2472  0.5966 -0.1727
  407MOL0     H53689  12.852   7.680   1.377 -1.8231 -0.3252 -0.8391
  407MOL0     H53690  12.996   7.906   1.394  0.2774  2.4999  0.7753
  407MOL0     H53691  13.066   7.753   1.468 -2.1382 -0.2036  0.7043
  407MOL0     H53692  13.161   7.916   1.644  1.2201 -2.4658 -1.0231
  407MOL0     H53693  13.096   8.053   1.548  3.1318  1.4244 -0.8815
  407MOL0     H53694  13.225   7.985   1.357 -0.5884  1.0949  0.9090
  407MOL0     H53695  13.283   7.839   1.441 -2.4243 -0.5071 -0.9993
  407MOL0     H53696  13.310   8.138   1.530  3.2600  2.6934 -2.3195
  407MOL0     H53697  13.419   8.011   1.585 -1.1503 -0.0108  1.0335
  407MOL0     H53698  13.379   8.131   1.306 -1.2321 -2.3991  0.5183
  407MOL0     H53699  13.506   8.014   1.338 -0.9208  0.1469 -1.6419
  407MOL0     H53700  13.582   8.191   1.521  2.4955 -1.5638 -0.6322
  407MOL0     H53701  13.469   8.301   1.446  2.5865  2.0854 -0.8627
  407MOL0     H53702  13.587   8.269   1.232 -1.7664  0.6803  0.5955
  407MOL0     H53703  13.643   8.367   1.360  0.1713  0.2593  1.0462
  407MOL0     H53704  13.820   8.231   1.231 -1.6618  0.5421 -0.1563
  407MOL0     H53705  13.770   8.090   1.326  0.9208 -0.3778  1.4113
  407MOL0     H53706  12.679   7.971   1.646  0.3350 -0.9567  0.6777
  407MOL0     H53707  12.458   7.939   1.535  0.0014  1.9597 -2.1338
  407MOL0     H53708  12.159   7.707   1.422  0.9317 -1.5697 -1.1112
  407MOL0     H53709  11.900   7.711   1.375 -2.5761  0.0351 -1.5827
  407MOL0     H53710  10.778   8.033   0.833  1.4263  0.1764 -2.7487
  407MOL0     H53711  11.000   7.936   0.783 -0.1865  0.8436 -0.5880
  407MOL0     H53712  11.398   7.630   0.825 -0.3309  1.3549  2.1324
  407MOL0     H53713  11.620   7.604   0.754  0.5121  0.0861  0.9031
  407MOL0     H53714  11.749   7.831   0.516 -0.3671  0.9721  1.6944
  407MOL0     H53715  11.837   7.674   0.548 -0.6077 -0.2183 -1.9650
  407MOL0     H53716  11.970   7.845   0.426  0.5363 -1.2300 -0.3440
  407MOL0     H53717  11.955   7.946   0.564 -0.6220 -0.5275  0.4798
  407MOL0     H53718  12.130   7.870   0.652 -0.6678 -0.6743  0.0614
  407MOL0     H53719  12.160   7.779   0.509 -1.3803 -3.6280 -1.0663
  407MOL0     H53720  12.004   7.690   0.768  0.0619 -1.9180 -0.0766
  407MOL0     H53721  12.026   7.585   0.629  2.0388 -1.2001 -0.0203
  407MOL0     H53722  12.418   7.555   0.766 -0.1597 -3.2091 -1.6322
  407MOL0     H53723  11.677   8.030   0.768 -1.2533  0.6440  0.2352
  407MOL0     H53724  11.446   8.056   0.841  0.7665  1.0525 -1.3344
  408MOL0     O53725   5.928   0.041   9.574  0.1063 -0.1019  0.0722
  408MOL0     C53726   5.951  -0.032   9.668  0.6234 -0.1780 -0.1908
  408MOL0     O53727   5.858  -0.109   9.733  0.2295  0.0357 -1.1857
  408MOL0     C53728   5.724  -0.115   9.705 -0.1240  0.2325 -0.3473
  408MOL0     C53729   5.665  -0.091   9.586 -0.5202 -0.3291 -0.0336
  408MOL0     C53730   5.525  -0.097   9.567  0.8382 -0.5952 -0.5205
  408MOL0     C53731   5.441  -0.146   9.672  0.0960 -0.5153 -0.2783
  408MOL0     O53732   5.305  -0.174   9.670  0.2024  0.4045 -0.0997
  408MOL0     C53733   5.224  -0.149   9.559 -1.0537 -0.3076  0.2255
  408MOL0     C53734   5.076  -0.157   9.591 -0.0276 -0.0572  0.0275
  408MOL0     C53735   4.980  -0.201   9.480 -0.1558 -0.4805  0.4401
  408MOL0     C53736   4.834  -0.217   9.531 -0.3366 -1.0313  0.7401
  408MOL0     C53737   4.724  -0.218   9.422  0.2264  1.0303 -1.1809
  408MOL0     C53738   4.587  -0.273   9.492  0.6681  0.5116  0.5278
  408MOL0     C53739   4.470  -0.320   9.406 -0.6263  0.0154  0.8841
  408MOL0     C53740   4.396  -0.208   9.334 -0.3806 -1.3981 -0.6033
  408MOL0     N53741   4.259  -0.247   9.303 -0.3586  0.4612  0.1919
  408MOL0     C53742   4.150  -0.222   9.380 -0.2720 -0.1615  0.0179
  408MOL0     C53743   4.030  -0.251   9.312 -0.6844  0.1007  0.7932
  408MOL0     C53744   3.892  -0.239   9.365 -0.5088 -0.7575  0.8282
  408MOL0     C53745   3.786  -0.323   9.293 -0.4450  0.2920 -1.1393
  408MOL0     C53746   3.665  -0.348   9.375 -0.7415  0.5163  0.2341
  408MOL0     C53747   3.551  -0.430   9.299 -0.5485  0.8818 -0.3253
  408MOL0     O53748   3.537  -0.372   9.169  0.1066  0.5307  0.1335
  408MOL0     C53749   3.438  -0.279   9.146 -0.1699 -0.4335 -0.1855
  408MOL0     C53750   3.442  -0.214   9.021 -0.0817  0.0790 -0.3723
  408MOL0     C53751   3.349  -0.126   8.979 -0.4677 -0.5952  0.4994
  408MOL0     C53752   3.242  -0.089   9.066  0.2950 -0.0490 -0.2112
  408MOL0     C53753   3.137   0.001   9.018  0.0157  0.9365  0.2440
  408MOL0     O53754   3.048   0.038   9.109 -0.0430 -0.3172  0.1148
  408MOL0     C53755   2.917   0.071   9.079 -0.2582 -0.2863 -0.2349
  408MOL0     C53756   2.844   0.154   9.163 -0.2639 -0.0022 -0.0118
  408MOL0     C53757   2.716   0.209   9.136  0.1045 -0.2430 -0.0869
  408MOL0     C53758   2.641   0.154   9.031 -0.2032  0.1592  0.2215
  408MOL0     O53759   2.510   0.191   9.003 -0.0515 -0.0527 -0.5450
  408MOL0     C53760   2.460   0.193   8.867 -0.3999  0.2112  0.3123
  408MOL0     C53761   2.322   0.254   8.857  0.3754 -0.0253 -0.0586
  408MOL0     C53762   2.220   0.187   8.957  0.0454 -0.1625  0.1400
  408MOL0     C53763   2.079   0.238   8.926 -0.1069 -0.1455 -0.5824
  408MOL0     C53764   1.992   0.202   9.048 -0.2910  0.3064 -1.0180
  408MOL0     C53765   1.846   0.240   9.053 -0.2476 -0.6132 -0.7091
  408MOL0     C53766   1.816   0.381   9.010  0.7549 -0.2657 -0.3955
  408MOL0     C53767   1.666   0.423   9.017  0.4741 -0.1113 -0.4713
  408MOL0    Cl53768   1.596   0.399   9.182  0.2457 -0.0654 -0.8600
  408MOL0     C53769   2.711   0.063   8.950 -0.2260 -0.7920 -0.8218
  408MOL0     C53770   2.848   0.017   8.970  0.4905  0.5882 -1.2010
  408MOL0     O53771   3.131   0.025   8.896  0.8084 -0.7632 -0.5620
  408MOL0     C53772   3.238  -0.153   9.191 -0.3507  0.2711 -0.2570
  408MOL0     C53773   3.334  -0.248   9.231 -0.3587  0.5524 -0.7213
  408MOL0     N53774   4.079  -0.306   9.194  0.5453  0.1007  0.0705
  408MOL0     N53775   4.212  -0.303   9.183  0.1118  0.2086 -0.0996
  408MOL0     C53776   5.512  -0.182   9.790  0.0697  0.8663  0.3666
  408MOL0     C53777   5.647  -0.162   9.810  0.2531 -0.2294 -1.0843
  408MOL0     C53778   6.091  -0.063   9.702  0.4482 -0.2226 -0.2713
  408MOL0     C53779   6.199  -0.033   9.615  0.7763  0.0200 -0.6425
  408MOL0     C53780   6.335  -0.047   9.666  0.7454 -1.1290 -0.5912
  408MOL0     C53781   6.357  -0.085   9.798  0.9058  0.8186 -0.6531
  408MOL0     O53782   6.484  -0.109   9.850  0.2201  0.0626 -0.2604
  408MOL0     C53783   6.577  -0.011   9.812  0.1220  0.9682 -0.4563
  408MOL0     C53784   6.694  -0.049   9.900 -0.7876  0.0980 -0.2045
  408MOL0     C53785   6.820   0.030   9.881 -1.1251 -0.1477 -0.2039
  408MOL0     C53786   6.905   0.046  10.005  0.4977  0.4502 -0.1392
  408MOL0     C53787   7.052   0.075   9.984  0.1943 -0.3399 -0.1276
  408MOL0     C53788   7.166   0.095   9.954  1.2191 -0.0936 -0.1691
  408MOL0     C53789   6.250  -0.120   9.879  0.8947 -0.0600  0.1105
  408MOL0     C53790   6.114  -0.108   9.833  0.1490 -0.5825 -0.5252
  408MOL0     H53791   5.714  -0.059   9.494 -1.3772 -0.8710 -0.7002
  408MOL0     H53792   5.469  -0.078   9.476 -2.5802 -1.0296  1.3451
  408MOL0     H53793   5.255  -0.218   9.479  1.0881 -0.3131  0.9920
  408MOL0     H53794   5.246  -0.046   9.526 -2.6836  0.6498  1.9517
  408MOL0     H53795   5.046  -0.055   9.617 -0.7202 -0.4512  0.8349
  408MOL0     H53796   5.050  -0.225   9.673 -2.5196 -0.6106 -1.1048
  408MOL0     H53797   5.019  -0.297   9.448  3.5645  0.2282  2.2706
  408MOL0     H53798   4.971  -0.132   9.396 -1.7108 -1.3853 -0.1857
  408MOL0     H53799   4.823  -0.299   9.601  0.2667  0.0589  2.1633
  408MOL0     H53800   4.809  -0.136   9.600 -0.0027 -0.3050  0.0264
  408MOL0     H53801   4.757  -0.294   9.350  1.6124  0.0560  0.4080
  408MOL0     H53802   4.705  -0.129   9.362 -1.9298  1.1943 -0.3275
  408MOL0     H53803   4.552  -0.193   9.558 -0.8270 -0.1647  0.5913
  408MOL0     H53804   4.618  -0.353   9.559  0.4730  0.9903  1.2082
  408MOL0     H53805   4.511  -0.399   9.343 -0.3720  0.8900 -0.0872
  408MOL0     H53806   4.406  -0.376   9.474 -1.4011 -0.3142 -0.0850
  408MOL0     H53807   4.451  -0.186   9.241  0.7545 -1.4356  0.0379
  408MOL0     H53808   4.388  -0.114   9.389  1.1344 -1.4716 -0.2116
  408MOL0     H53809   4.162  -0.173   9.476  0.8153  1.3722 -0.8752
  408MOL0     H53810   3.884  -0.131   9.355  3.9740 -0.4654 -3.8078
  408MOL0     H53811   3.889  -0.254   9.473 -0.8174 -0.4961  0.8574
  408MOL0     H53812   3.826  -0.415   9.250  0.7116  0.3404 -0.2238
  408MOL0     H53813   3.749  -0.260   9.211  0.8864  3.2656  0.3723
  408MOL0     H53814   3.709  -0.380   9.470  2.6556  1.8278 -0.7395
  408MOL0     H53815   3.628  -0.247   9.395  1.3682  1.4877 -0.4639
  408MOL0     H53816   3.458  -0.439   9.354 -3.1294 -2.6114 -4.5215
  408MOL0     H53817   3.569  -0.538   9.296 -1.6779  0.6702  0.2488
  408MOL0     H53818   3.517  -0.251   8.952  2.0652  2.1925  0.6779
  408MOL0     H53819   3.356  -0.094   8.875 -0.2725  3.2955  1.5438
  408MOL0     H53820   2.892   0.182   9.256  0.1289 -0.6913 -0.0008
  408MOL0     H53821   2.668   0.274   9.208  0.6523 -0.0340  0.0932
  408MOL0     H53822   2.459   0.092   8.827 -0.4895 -0.3544  1.6845
  408MOL0     H53823   2.531   0.247   8.803 -2.2125 -0.3971 -2.3518
  408MOL0     H53824   2.273   0.247   8.759 -1.3851  2.6371  0.5159
  408MOL0     H53825   2.327   0.363   8.862 -1.5001  0.3985 -3.9009
  408MOL0     H53826   2.255   0.221   9.055 -2.0147  1.3706  0.4071
  408MOL0     H53827   2.216   0.078   8.946 -2.2266 -0.0308 -1.1338
  408MOL0     H53828   2.087   0.346   8.908  1.7287 -0.1879 -0.2047
  408MOL0     H53829   2.027   0.196   8.839 -3.9417  1.2917  0.8004
  408MOL0     H53830   2.035   0.263   9.129  1.5280  0.7530 -2.2554
  408MOL0     H53831   2.012   0.098   9.075  1.5381  0.9727  0.4681
  408MOL0     H53832   1.820   0.221   9.157  1.5419 -4.0912 -0.7262
  408MOL0     H53833   1.800   0.164   8.988 -0.9192 -0.5904 -0.2598
  408MOL0     H53834   1.869   0.437   9.088 -3.3411  1.2012  1.6139
  408MOL0     H53835   1.844   0.400   8.906 -0.7587 -2.6875 -1.3100
  408MOL0     H53836   1.603   0.358   8.955  0.9049 -0.7863 -0.2069
  408MOL0     H53837   1.662   0.530   8.995 -0.2980  0.2924  1.3935
  408MOL0     H53838   2.656   0.016   8.870  1.4297 -0.8747 -1.9747
  408MOL0     H53839   2.896  -0.051   8.902  1.6079 -1.4083  1.4160
  408MOL0     H53840   3.164  -0.134   9.268 -0.2721 -1.8539  0.4141
  408MOL0     H53841   3.331  -0.289   9.332  0.2464 -0.9640 -1.2837
  408MOL0     H53842   5.453  -0.229   9.868 -1.1264  0.3610 -0.8257
  408MOL0     H53843   5.703  -0.176   9.902 -0.0767 -0.4206 -0.9140
  408MOL0     H53844   6.171  -0.003   9.514  1.9601  2.7521 -0.2515
  408MOL0     H53845   6.419  -0.019   9.603 -0.3454  1.0585 -1.1802
  408MOL0     H53846   6.543   0.089   9.840  1.9319  0.7289  3.2416
  408MOL0     H53847   6.600  -0.010   9.705  1.2156 -0.8938 -0.2808
  408MOL0     H53848   6.661  -0.050  10.004 -0.0894 -0.8389  0.0207
  408MOL0     H53849   6.716  -0.154   9.879  2.0971  0.9914 -2.2522
  408MOL0     H53850   6.790   0.125   9.837 -1.8770 -1.1328 -1.9215
  408MOL0     H53851   6.869  -0.023   9.798  0.3688  0.3569  0.3171
  408MOL0     H53852   6.861   0.117  10.076  0.7364  0.9348 -0.4764
  408MOL0     H53853   6.893  -0.051  10.054 -2.3633  0.3772 -0.8201
  408MOL0     H53854   7.271   0.116   9.946  1.1022  0.0393 -1.6863
  408MOL0     H53855   6.273  -0.148   9.981 -0.9740  0.7952  0.8133
  408MOL0     H53856   6.033  -0.139   9.897  0.8719 -2.7726 -0.6117
  409MOL0     O53857   2.550   8.983   9.905  0.1102 -0.1642  0.3301
  409MOL0     C53858   2.613   9.073   9.966  0.6796  0.3156 -0.3973
  409MOL0     O53859   2.564   9.135  10.079  0.5766  0.0884  0.4748
  409MOL0     C53860   2.449   9.094  10.126  0.8289  0.4863 -0.3431
  409MOL0     C53861   2.427   8.959  10.160  1.3767  0.2703 -1.2166
  409MOL0     C53862   2.311   8.912  10.208  0.3693 -0.0722 -0.4178
  409MOL0     C53863   2.214   9.004  10.247 -0.3952 -0.2941 -0.0834
  409MOL0     O53864   2.098   8.977  10.306  0.3271 -0.7227  0.4523
  409MOL0     C53865   2.014   8.875  10.247  0.3087 -0.2817  1.5140
  409MOL0     C53866   1.934   8.806  10.359 -0.6602  0.2352 -0.1605
  409MOL0     C53867   2.010   8.698  10.431  0.2505  0.9571  0.6147
  409MOL0     C53868   1.925   8.618  10.522  0.0931  0.2632 -0.2310
  409MOL0     C53869   1.873   8.704  10.641  0.1086  0.3441  0.5227
  409MOL0     C53870   1.987   8.770  10.725  0.0012  0.3400 -0.5948
  409MOL0     C53871   1.951   8.791  10.871  0.1820 -0.6601  0.0732
  409MOL0     C53872   1.994   8.694  10.985 -0.0760  0.4033 -0.8028
  409MOL0     N53873   1.900   8.692  11.089  1.2806 -0.0447  0.5004
  409MOL0     C53874   1.784   8.619  11.084 -0.2636 -0.7082 -0.5536
  409MOL0     C53875   1.725   8.623  11.209 -0.3540  0.1478  0.4910
  409MOL0     C53876   1.610   8.544  11.250 -0.1642 -0.0277  0.1923
  409MOL0     C53877   1.486   8.627  11.282 -0.4169  0.2824  0.7729
  409MOL0     C53878   1.372   8.520  11.283 -0.1473  0.1559 -0.8306
  409MOL0     C53879   1.237   8.569  11.340  0.2977  0.6874  0.6807
  409MOL0     O53880   1.238   8.576  11.481 -0.3626 -0.7823  0.2025
  409MOL0     C53881   1.119   8.603  11.543  0.1449 -0.7452  0.1819
  409MOL0     C53882   1.009   8.676  11.488  0.5094 -0.4394  0.8154
  409MOL0     C53883   0.895   8.690  11.560  1.5247 -0.0369 -0.0615
  409MOL0     C53884   0.880   8.649  11.694  0.6166 -0.2274 -0.0334
  409MOL0     C53885   0.768   8.685  11.773  0.5049  0.7189 -0.4811
  409MOL0     O53886   0.678   8.764  11.712 -0.4613 -0.2299 -0.3915
  409MOL0     C53887   0.560   8.789  11.783 -0.2636 -0.1691  0.7405
  409MOL0     C53888   0.433   8.762  11.727 -0.7648  0.5318  0.8492
  409MOL0     C53889   0.316   8.803  11.783  0.5611 -0.3175  0.1663
  409MOL0     C53890   0.324   8.860  11.914  0.8251 -0.1515  1.0515
  409MOL0     O53891   0.207   8.898  11.978  0.4725  0.0913  0.3058
  409MOL0     C53892   0.081   8.846  11.943  0.0971 -0.0420 -0.2984
  409MOL0     C53893  -0.026   8.920  12.023  0.4706 -0.7101  0.1363
  409MOL0     C53894  -0.175   8.893  12.002  0.2921  0.6471  0.1962
  409MOL0     C53895  -0.267   8.981  12.088 -0.2569 -0.2626 -0.6632
  409MOL0     C53896  -0.407   8.935  12.064  0.3014 -0.9375 -0.1359
  409MOL0     C53897  -0.512   8.993  12.156 -0.6545  0.7319 -0.1714
  409MOL0     C53898  -0.654   8.930  12.118 -0.5946 -0.3139 -0.5840
  409MOL0     C53899  -0.760   8.951  12.231  0.4438 -0.4101  0.3376
  409MOL0    Cl53900  -0.725   8.886  12.391 -0.0561  0.1310  0.1410
  409MOL0     C53901   0.443   8.892  11.977  0.4229  0.5776 -0.6599
  409MOL0     C53902   0.557   8.869  11.911 -0.3165  0.6458  0.6084
  409MOL0     O53903   0.761   8.648  11.890 -0.2385 -0.4565  0.0029
  409MOL0     C53904   0.989   8.585  11.748 -1.2815 -0.0909 -0.4235
  409MOL0     C53905   1.102   8.557  11.669 -1.1097  0.1188  0.1069
  409MOL0     N53906   1.805   8.701  11.288 -0.5194 -0.0372  0.9263
  409MOL0     N53907   1.904   8.741  11.216 -0.3100 -0.0926  0.0042
  409MOL0     C53908   2.232   9.138  10.216  0.5166  0.6306  0.2382
  409MOL0     C53909   2.348   9.181  10.151  0.0799 -0.0678  0.0812
  409MOL0     C53910   2.753   9.099   9.923 -0.2874 -0.6558  0.7071
  409MOL0     C53911   2.810   9.027   9.826 -0.4633  0.1944  0.1396
  409MOL0     C53912   2.938   9.059   9.773  0.6009  0.1781 -0.6863
  409MOL0     C53913   3.019   9.152   9.836 -0.8299  0.2497 -0.4258
  409MOL0     O53914   3.154   9.168   9.794 -0.3606  0.2882  0.4658
  409MOL0     C53915   3.240   9.259   9.863 -0.4158  0.3067 -0.4551
  409MOL0     C53916   3.379   9.261   9.788  0.4984 -0.2635 -0.4435
  409MOL0     C53917   3.364   9.302   9.642  0.8951 -0.2920 -0.2361
  409MOL0     C53918   3.461   9.248   9.542 -0.0074  0.3533  0.3893
  409MOL0     C53919   3.606   9.268   9.582 -0.2086  0.0092 -1.0088
  409MOL0     C53920   3.723   9.286   9.613  0.2288  0.4551 -0.4329
  409MOL0     C53921   2.956   9.227   9.940 -0.5021 -0.4081  0.9520
  409MOL0     C53922   2.825   9.207   9.977  0.6232  1.0660 -0.3135
  409MOL0     H53923   2.509   8.887  10.157  0.3105 -1.0564  0.0432
  409MOL0     H53924   2.298   8.805  10.224  3.4424 -0.3799  0.5491
  409MOL0     H53925   2.073   8.791  10.209  1.6933  1.5161 -0.4766
  409MOL0     H53926   1.946   8.918  10.173 -0.9675 -0.5691  2.4856
  409MOL0     H53927   1.855   8.751  10.307  1.0656 -1.6903 -0.8529
  409MOL0     H53928   1.904   8.890  10.422  2.9541 -0.1822  2.4596
  409MOL0     H53929   2.094   8.743  10.485  1.5452  0.8533 -1.2103
  409MOL0     H53930   2.062   8.631  10.362  2.6806  0.4319  2.8155
  409MOL0     H53931   1.847   8.573  10.460 -0.7922  0.3209  0.8270
  409MOL0     H53932   1.977   8.535  10.570 -2.1456 -0.2909  1.3944
  409MOL0     H53933   1.810   8.645  10.707 -1.2078  1.9072  0.7161
  409MOL0     H53934   1.816   8.791  10.606  0.8368  0.3692 -0.6514
  409MOL0     H53935   2.023   8.860  10.677 -4.2774  1.0435 -3.0045
  409MOL0     H53936   2.076   8.707  10.734  0.5901  1.0131 -1.6019
  409MOL0     H53937   1.990   8.887  10.907 -3.1051 -0.9333  5.4339
  409MOL0     H53938   1.842   8.791  10.879  0.1144 -0.9414 -0.7664
  409MOL0     H53939   2.088   8.734  11.025  0.0617 -0.9667  0.2988
  409MOL0     H53940   2.016   8.595  10.944 -1.7556 -0.8507  1.1684
  409MOL0     H53941   1.747   8.570  10.994  0.7522  0.1439 -1.4557
  409MOL0     H53942   1.647   8.484  11.333  0.6171  1.3211  0.8638
  409MOL0     H53943   1.591   8.471  11.171  2.2601 -0.6262  0.0787
  409MOL0     H53944   1.468   8.711  11.214 -2.8936 -3.0583 -3.1931
  409MOL0     H53945   1.494   8.667  11.383  2.2359 -0.4578  0.9318
  409MOL0     H53946   1.366   8.490  11.178  4.4066 -1.3965 -0.8590
  409MOL0     H53947   1.400   8.432  11.342 -0.5483  0.5631 -0.0054
  409MOL0     H53948   1.171   8.493  11.299  0.6560  2.1377 -2.9303
  409MOL0     H53949   1.208   8.665  11.296  1.5697  0.6596 -0.2900
  409MOL0     H53950   1.004   8.729  11.393 -2.2155 -0.4197  0.8806
  409MOL0     H53951   0.808   8.742  11.519  1.5143  0.2913  0.3769
  409MOL0     H53952   0.418   8.717  11.629  0.3685 -0.7841  1.2508
  409MOL0     H53953   0.220   8.787  11.734  1.6640 -0.6046 -2.0055
  409MOL0     H53954   0.066   8.743  11.974 -2.5623  0.2217 -0.4275
  409MOL0     H53955   0.064   8.863  11.836 -0.3228  3.3541  0.1731
  409MOL0     H53956  -0.017   9.025  11.996 -1.0484 -0.8236 -0.9543
  409MOL0     H53957  -0.005   8.907  12.130 -1.4625 -2.1600  0.4098
  409MOL0     H53958  -0.204   8.789  12.020 -4.8543  2.2342  2.9627
  409MOL0     H53959  -0.201   8.908  11.897 -0.2997 -2.3693 -0.1894
  409MOL0     H53960  -0.224   8.972  12.188  1.9019 -1.7603 -1.6381
  409MOL0     H53961  -0.262   9.082  12.046 -0.7856 -0.8900 -2.3110
  409MOL0     H53962  -0.405   8.827  12.084  2.3207 -0.8257  0.4942
  409MOL0     H53963  -0.446   8.945  11.962 -1.0812  1.1504  0.5278
  409MOL0     H53964  -0.517   9.102  12.151 -2.8368  0.8752  2.7038
  409MOL0     H53965  -0.488   8.963  12.258 -2.0785 -0.0696 -0.0457
  409MOL0     H53966  -0.700   8.970  12.026  0.1406 -1.9444 -1.6993
  409MOL0     H53967  -0.639   8.822  12.113  1.3909 -0.1506  1.0317
  409MOL0     H53968  -0.854   8.905  12.199  1.4674 -0.2430 -3.4868
  409MOL0     H53969  -0.789   9.056  12.242  0.8968 -0.2516  0.0290
  409MOL0     H53970   0.447   8.936  12.076  0.0789 -3.5040  1.3643
  409MOL0     H53971   0.654   8.895  11.953 -1.7854  1.5319  3.7036
  409MOL0     H53972   0.992   8.565  11.855 -1.0457 -1.0760 -0.6005
  409MOL0     H53973   1.192   8.520  11.717 -0.9201  2.0893  1.4113
  409MOL0     H53974   2.159   9.218  10.224  0.1650  0.2512  0.9319
  409MOL0     H53975   2.351   9.284  10.117  0.9253  0.3433  1.3325
  409MOL0     H53976   2.772   8.934   9.785 -0.5132 -0.4086  1.5145
  409MOL0     H53977   2.978   8.993   9.697 -4.1775 -0.1455 -3.3234
  409MOL0     H53978   3.241   9.233   9.970 -0.0235 -1.3219 -0.8323
  409MOL0     H53979   3.208   9.363   9.870  4.4210  1.9163  2.1223
  409MOL0     H53980   3.437   9.337   9.841 -1.3497  0.9654 -0.0928
  409MOL0     H53981   3.411   9.157   9.796  1.1766 -0.3062 -2.9037
  409MOL0     H53982   3.367   9.411   9.640 -0.4506 -0.2256  0.6243
  409MOL0     H53983   3.269   9.271   9.600 -0.5224  2.4038  0.7315
  409MOL0     H53984   3.448   9.140   9.545 -0.7550  0.4452  0.8333
  409MOL0     H53985   3.430   9.295   9.449 -0.2110  0.4990  0.5280
  409MOL0     H53986   3.818   9.294   9.662  0.1118 -0.9577  0.0541
  409MOL0     H53987   3.006   9.304   9.998  2.5976 -2.4812  1.2734
  409MOL0     H53988   2.774   9.248  10.064 -0.3555  2.3629 -1.4504
  410MOL0     O53989   3.036   8.570   1.345  0.2323  0.5221  0.0486
  410MOL0     C53990   3.029   8.494   1.252  0.7449  0.2361 -0.3541
  410MOL0     O53991   3.127   8.418   1.206  0.1201  0.1705 -0.0345
  410MOL0     C53992   3.249   8.435   1.261 -0.6563  1.0503  0.2412
  410MOL0     C53993   3.272   8.416   1.401 -0.2194 -0.7945 -0.7970
  410MOL0     C53994   3.408   8.420   1.446  0.4205  0.5756  0.2346
  410MOL0     C53995   3.515   8.433   1.357 -0.2235 -0.2911 -1.0315
  410MOL0     O53996   3.638   8.429   1.416  0.0250 -0.4900  0.0669
  410MOL0     C53997   3.747   8.407   1.339 -0.3155 -0.5742 -0.6095
  410MOL0     C53998   3.876   8.401   1.426 -0.1249 -0.6833  0.1839
  410MOL0     C53999   3.915   8.532   1.498  0.0561 -1.0447 -0.9582
  410MOL0     C54000   4.057   8.532   1.557 -0.2467  1.4765 -0.4572
  410MOL0     C54001   4.080   8.644   1.654 -0.3543 -0.7449 -0.7524
  410MOL0     C54002   4.233   8.644   1.678 -0.0887  0.6063 -0.6162
  410MOL0     C54003   4.276   8.744   1.786 -0.4658  0.1313  0.1262
  410MOL0     C54004   4.240   8.894   1.765  0.3735  0.1171  0.3538
  410MOL0     N54005   4.270   8.986   1.874  1.0722  0.4425 -0.4192
  410MOL0     C54006   4.400   9.022   1.916  0.6491  0.8719  0.8595
  410MOL0     C54007   4.379   9.108   2.015 -0.1379 -0.1975  0.0101
  410MOL0     C54008   4.481   9.190   2.099  0.4083  0.1837  0.4553
  410MOL0     C54009   4.505   9.326   2.022 -0.2497 -0.6278 -0.4455
  410MOL0     C54010   4.621   9.405   2.099 -0.3370 -0.1980 -0.1087
  410MOL0     C54011   4.644   9.544   2.029  0.2197  0.0857 -0.0686
  410MOL0     O54012   4.702   9.516   1.902 -0.1895 -0.4493 -0.2810
  410MOL0     C54013   4.770   9.613   1.834 -0.3630 -0.1018  0.1017
  410MOL0     C54014   4.776   9.744   1.880 -0.8938  0.2353 -0.2693
  410MOL0     C54015   4.858   9.833   1.810 -0.2153  0.1343  1.3636
  410MOL0     C54016   4.914   9.801   1.683  0.9901 -0.4907  0.5277
  410MOL0     C54017   4.982   9.916   1.604  0.1676  0.4778 -0.6153
  410MOL0     O54018   5.081   9.873   1.531 -0.2585  0.1679  0.3901
  410MOL0     C54019   5.169   9.956   1.468 -0.7294  0.0869 -0.4695
  410MOL0     C54020   5.294   9.904   1.461 -0.3393 -0.3537  0.7388
  410MOL0     C54021   5.401   9.971   1.392 -0.3985  0.8835 -0.2651
  410MOL0     C54022   5.372  10.092   1.332 -0.0175 -0.0731  0.8814
  410MOL0     O54023   5.454  10.174   1.259  0.2556 -0.0249  0.3377
  410MOL0     C54024   5.591  10.150   1.244 -0.9691 -0.0405 -0.0437
  410MOL0     C54025   5.636  10.226   1.122 -0.5888 -0.2118  0.1263
  410MOL0     C54026   5.782  10.190   1.088  0.3700  0.2518  0.6385
  410MOL0     C54027   5.883  10.223   1.193 -0.1332  0.3844  0.4943
  410MOL0     C54028   6.024  10.190   1.135  1.3592  0.0410  0.3181
  410MOL0     C54029   6.066  10.278   1.010 -0.4297  0.2631 -0.5746
  410MOL0     C54030   6.211  10.261   0.967 -0.0108  0.6552 -0.5365
  410MOL0     C54031   6.242  10.290   0.813  0.0459 -0.5808 -0.4652
  410MOL0    Cl54032   6.212  10.147   0.714 -0.4990 -0.0738 -0.1391
  410MOL0     C54033   5.235  10.135   1.328 -0.3802  0.9978 -0.5984
  410MOL0     C54034   5.135  10.062   1.392  0.2824 -0.3493 -0.5598
  410MOL0     O54035   4.948  10.033   1.613  0.7838 -0.0982 -0.2751
  410MOL0     C54036   4.914   9.667   1.645 -1.0666 -0.5437 -0.7393
  410MOL0     C54037   4.841   9.572   1.714  0.3610  0.7561 -0.1143
  410MOL0     N54038   4.254   9.131   2.037  0.2594 -0.4616 -0.4949
  410MOL0     N54039   4.181   9.058   1.949  0.4233  0.1209 -0.6220
  410MOL0     C54040   3.487   8.449   1.225 -0.2528 -0.0176 -0.4621
  410MOL0     C54041   3.360   8.443   1.175  0.7071 -0.7487  0.0651
  410MOL0     C54042   2.901   8.471   1.175 -0.1908  0.3747  0.5209
  410MOL0     C54043   2.904   8.447   1.040 -0.4509  0.2348  0.9435
  410MOL0     C54044   2.779   8.421   0.972 -0.2090  1.0265  0.7856
  410MOL0     C54045   2.658   8.428   1.045  0.0133 -0.2369  0.8852
  410MOL0     O54046   2.539   8.395   0.977 -1.1795  0.4629 -0.4135
  410MOL0     C54047   2.486   8.502   0.904 -0.2500 -0.1326 -0.3841
  410MOL0     C54048   2.424   8.616   0.983 -0.5414  0.6756  0.1274
  410MOL0     C54049   2.306   8.588   1.078  0.0056 -0.2870 -0.0968
  410MOL0     C54050   2.239   8.720   1.127 -0.5846 -0.2361 -0.1019
  410MOL0     C54051   2.093   8.721   1.106 -0.3507  0.2748  0.0325
  410MOL0     C54052   1.978   8.734   1.074  0.8419  0.1239  0.6377
  410MOL0     C54053   2.660   8.450   1.183  0.4805  0.8120 -0.5345
  410MOL0     C54054   2.783   8.466   1.243  0.9699 -0.4510 -0.0425
  410MOL0     H54055   3.198   8.388   1.474  1.6313  1.2422  2.0944
  410MOL0     H54056   3.450   8.384   1.540 -0.2118  1.7266  0.9787
  410MOL0     H54057   3.768   8.485   1.265  2.9813 -1.6027 -0.9584
  410MOL0     H54058   3.736   8.315   1.281 -0.2450  0.0461 -1.6357
  410MOL0     H54059   3.959   8.373   1.361  0.8216  1.3281  0.4422
  410MOL0     H54060   3.863   8.329   1.507  0.4696 -0.5441  0.4056
  410MOL0     H54061   3.848   8.557   1.580  0.7241  0.3573 -0.8027
  410MOL0     H54062   3.906   8.620   1.433 -1.7301  0.2537  0.9064
  410MOL0     H54063   4.066   8.440   1.616  1.9327  0.8300 -1.7114
  410MOL0     H54064   4.134   8.531   1.480 -2.0187 -1.0239 -2.3758
  410MOL0     H54065   4.029   8.631   1.750 -1.1525  1.8239 -0.7453
  410MOL0     H54066   4.054   8.743   1.615  0.8097  0.6350  1.7308
  410MOL0     H54067   4.286   8.673   1.587 -1.0562 -0.0700 -1.4211
  410MOL0     H54068   4.260   8.542   1.706  1.5157  0.2452 -3.1737
  410MOL0     H54069   4.241   8.704   1.882  2.2312  0.8883  1.5354
  410MOL0     H54070   4.385   8.749   1.791 -0.2576  2.9710 -3.4044
  410MOL0     H54071   4.135   8.909   1.737  0.5177 -2.4813 -2.0194
  410MOL0     H54072   4.303   8.934   1.685 -2.2893  2.1545 -0.9052
  410MOL0     H54073   4.494   8.991   1.872  0.5240  0.2003  1.0638
  410MOL0     H54074   4.573   9.136   2.121  2.2862  2.8537 -0.3668
  410MOL0     H54075   4.438   9.219   2.195  0.0488  1.0279  0.0478
  410MOL0     H54076   4.423   9.398   2.033  0.3677 -0.1119  1.1377
  410MOL0     H54077   4.536   9.306   1.919  1.2603 -0.6336 -0.0161
  410MOL0     H54078   4.593   9.408   2.204 -0.1575 -0.8936 -0.0379
  410MOL0     H54079   4.708   9.343   2.075 -0.3067  0.5918 -2.2997
  410MOL0     H54080   4.712   9.607   2.086 -0.5030  2.5256 -1.7528
  410MOL0     H54081   4.554   9.607   2.024  0.2152  0.0267 -3.7086
  410MOL0     H54082   4.731   9.781   1.971 -1.1095 -0.2628 -0.1708
  410MOL0     H54083   4.873   9.934   1.845  1.1191  0.9906 -1.4401
  410MOL0     H54084   5.302   9.810   1.514  0.4431 -0.8683 -0.2504
  410MOL0     H54085   5.501   9.928   1.388 -0.0262  1.6529  0.6878
  410MOL0     H54086   5.602  10.043   1.225 -2.0878 -0.2709  0.4925
  410MOL0     H54087   5.643  10.189   1.332 -2.6781  1.7809  0.2489
  410MOL0     H54088   5.634  10.334   1.139 -0.1770 -0.0775 -0.6446
  410MOL0     H54089   5.562  10.208   1.044 -0.8314  2.1828 -0.2767
  410MOL0     H54090   5.810  10.235   0.993  3.1553 -1.0300  0.7485
  410MOL0     H54091   5.790  10.086   1.055  0.3761  0.8357 -1.3332
  410MOL0     H54092   5.868  10.324   1.232  0.8225  0.6632  0.1492
  410MOL0     H54093   5.870  10.155   1.278 -0.5423 -0.4056 -0.1850
  410MOL0     H54094   6.036  10.084   1.113  5.8135  0.0953  1.4505
  410MOL0     H54095   6.102  10.219   1.207 -0.4599  1.9736  1.6319
  410MOL0     H54096   6.064  10.382   1.042  2.2032  0.8979 -2.1009
  410MOL0     H54097   6.006  10.256   0.921 -1.8871 -3.2843  1.0692
  410MOL0     H54098   6.273  10.325   1.031  1.3847 -0.0931 -1.0964
  410MOL0     H54099   6.239  10.156   0.977 -0.8583  0.1750 -2.6679
  410MOL0     H54100   6.350  10.309   0.809 -0.3805  2.3724  0.0780
  410MOL0     H54101   6.193  10.375   0.765  2.0115 -1.6425 -4.9211
  410MOL0     H54102   5.202  10.214   1.262 -2.6262  0.6493  0.0009
  410MOL0     H54103   5.031  10.090   1.377 -0.7543 -2.9666  1.0964
  410MOL0     H54104   4.959   9.647   1.548  0.6469  1.6930 -0.4882
  410MOL0     H54105   4.829   9.472   1.673  0.7158  1.2268 -1.4347
  410MOL0     H54106   3.565   8.464   1.151  0.5420  0.0207  0.3775
  410MOL0     H54107   3.339   8.463   1.070  0.4509  1.2498  0.4501
  410MOL0     H54108   3.005   8.435   1.001 -0.0524 -1.1029  2.2822
  410MOL0     H54109   2.779   8.402   0.866  1.3946  1.3562  0.6965
  410MOL0     H54110   2.402   8.452   0.855 -0.5678 -0.5324  0.5410
  410MOL0     H54111   2.551   8.538   0.824  1.4200 -0.7287  0.6362
  410MOL0     H54112   2.502   8.664   1.043  0.7736 -1.0160 -0.1383
  410MOL0     H54113   2.393   8.689   0.907  0.5943 -0.5696 -1.6059
  410MOL0     H54114   2.337   8.520   1.158 -2.9119 -1.4754  0.1609
  410MOL0     H54115   2.234   8.530   1.019 -1.0335  1.1735 -0.2946
  410MOL0     H54116   2.276   8.730   1.230  1.2342  1.3908 -0.8615
  410MOL0     H54117   2.283   8.805   1.076 -2.6797 -0.3090 -2.1755
  410MOL0     H54118   1.882   8.749   1.029  0.9999 -0.0515  0.2380
  410MOL0     H54119   2.571   8.448   1.244  3.0446 -2.5230  3.6870
  410MOL0     H54120   2.789   8.487   1.349 -1.9211  2.7341 -0.3672
  411MOL0     O54121   0.297   3.416   7.698  0.0793 -0.3834 -0.2586
  411MOL0     C54122   0.340   3.392   7.811  0.0473  0.0647  0.8306
  411MOL0     O54123   0.283   3.416   7.929  0.2868 -0.2170  0.3851
  411MOL0     C54124   0.153   3.450   7.921  0.2452  0.3972  0.2604
  411MOL0     C54125   0.113   3.582   7.955  0.6378  0.6162  0.0599
  411MOL0     C54126  -0.020   3.620   7.928  0.5896 -0.3437 -0.7947
  411MOL0     C54127  -0.125   3.522   7.914 -0.1817 -0.6146  0.0715
  411MOL0     O54128  -0.260   3.544   7.905 -0.1580  0.1714 -0.3996
  411MOL0     C54129  -0.301   3.680   7.911 -0.9340 -0.0712  0.3530
  411MOL0     C54130  -0.443   3.680   7.916  1.2887  0.0133  0.1579
  411MOL0     C54131  -0.507   3.822   7.878 -0.1070  0.3851 -0.1760
  411MOL0     C54132  -0.481   3.939   7.967 -0.5685 -0.9752  0.5456
  411MOL0     C54133  -0.607   4.020   7.985  1.4706 -0.2404  0.5114
  411MOL0     C54134  -0.668   4.098   7.868  0.2894 -0.1145  0.1713
  411MOL0     C54135  -0.563   4.188   7.805  1.1073  0.3061 -0.8536
  411MOL0     C54136  -0.624   4.262   7.686 -0.0998  0.1071  0.6618
  411MOL0     N54137  -0.664   4.185   7.564 -0.4701 -0.3888 -0.3875
  411MOL0     C54138  -0.583   4.148   7.463 -0.1733  0.1473  0.0461
  411MOL0     C54139  -0.656   4.102   7.366  0.0209  0.5157 -0.5276
  411MOL0     C54140  -0.612   4.038   7.233  0.5662 -0.2579  0.3273
  411MOL0     C54141  -0.580   3.890   7.227 -0.0457 -1.0086 -0.4724
  411MOL0     C54142  -0.519   3.832   7.104  0.1207 -0.6910  0.2410
  411MOL0     C54143  -0.617   3.819   6.986 -0.0398 -0.6055  1.1339
  411MOL0     O54144  -0.733   3.745   7.029 -0.1449  0.2521  0.2957
  411MOL0     C54145  -0.854   3.781   6.972 -0.2101 -0.0212 -0.5662
  411MOL0     C54146  -0.967   3.771   7.048 -0.2330  0.5118 -0.8884
  411MOL0     C54147  -1.095   3.788   6.993 -0.2131 -0.3683  0.1127
  411MOL0     C54148  -1.111   3.822   6.858 -0.9923 -0.4754  0.1544
  411MOL0     C54149  -1.234   3.850   6.791  0.1452  0.2798 -0.1312
  411MOL0     O54150  -1.248   3.837   6.659 -0.1293 -0.1035  0.4674
  411MOL0     C54151  -1.372   3.840   6.603 -0.4999  0.2936 -0.8435
  411MOL0     C54152  -1.464   3.744   6.638 -0.1336 -0.2931 -0.6373
  411MOL0     C54153  -1.589   3.745   6.591 -0.0523  0.4494 -0.3440
  411MOL0     C54154  -1.641   3.840   6.504 -0.0311  0.1312  0.7506
  411MOL0     O54155  -1.768   3.847   6.464 -0.5537 -0.3012 -0.3467
  411MOL0     C54156  -1.833   3.976   6.463  1.4625  0.2253  0.2868
  411MOL0     C54157  -1.983   3.967   6.432  1.0537  0.8049  0.1729
  411MOL0     C54158  -2.066   4.102   6.444  0.2729  0.6598  1.2008
  411MOL0     C54159  -2.208   4.072   6.408 -0.3883 -0.3311 -0.1518
  411MOL0     C54160  -2.308   4.183   6.453 -0.2256  0.0842  0.0060
  411MOL0     C54161  -2.455   4.151   6.455 -0.2784  1.1724  0.4990
  411MOL0     C54162  -2.538   4.273   6.487 -0.4459 -0.5995  0.5446
  411MOL0     C54163  -2.693   4.241   6.470 -0.3426 -0.6490  0.0123
  411MOL0    Cl54164  -2.786   4.395   6.480 -0.2933 -0.1663  0.3500
  411MOL0     C54165  -1.550   3.942   6.472 -0.7406 -0.4770 -0.1818
  411MOL0     C54166  -1.416   3.934   6.521 -0.1378  0.4288  0.5607
  411MOL0     O54167  -1.325   3.881   6.863 -1.0004 -0.2391  0.0183
  411MOL0     C54168  -0.993   3.838   6.785 -0.0629 -0.1934 -0.3008
  411MOL0     C54169  -0.868   3.812   6.834 -0.0054  0.0489 -0.4892
  411MOL0     N54170  -0.784   4.104   7.415 -0.5658  0.2388 -0.7558
  411MOL0     N54171  -0.792   4.155   7.537 -0.8109 -0.2640  0.2649
  411MOL0     C54172  -0.077   3.389   7.901  0.4089 -0.6008  0.3585
  411MOL0     C54173   0.056   3.352   7.904  0.6019 -0.8557  0.8105
  411MOL0     C54174   0.488   3.362   7.801 -0.4516 -0.0802 -0.2456
  411MOL0     C54175   0.560   3.359   7.685 -0.5936 -0.4178  0.1689
  411MOL0     C54176   0.693   3.321   7.697  0.2371  0.4703  0.6508
  411MOL0     C54177   0.750   3.278   7.817 -0.0795  0.1908 -0.3708
  411MOL0     O54178   0.872   3.221   7.811  0.9067 -0.2031  0.5136
  411MOL0     C54179   0.946   3.186   7.935 -0.0991  0.5300 -0.9316
  411MOL0     C54180   1.081   3.140   7.898 -0.0565 -0.1545 -0.2674
  411MOL0     C54181   1.072   3.021   7.809 -0.5928 -0.0632  0.2264
  411MOL0     C54182   1.025   2.886   7.864 -0.0530  0.9080  0.4593
  411MOL0     C54183   1.119   2.821   7.959 -0.4302  0.2247 -0.7906
  411MOL0     C54184   1.208   2.768   8.017 -0.5024 -0.9968 -0.8540
  411MOL0     C54185   0.679   3.278   7.938  0.5992  0.3003 -0.1417
  411MOL0     C54186   0.544   3.319   7.925 -0.6847 -0.2882  0.6875
  411MOL0     H54187   0.190   3.647   7.996  2.7878 -0.9618 -1.2668
  411MOL0     H54188  -0.040   3.726   7.938  0.2190 -0.3085 -1.7832
  411MOL0     H54189  -0.257   3.728   7.822 -1.2117  2.6621  1.5904
  411MOL0     H54190  -0.266   3.730   8.002 -2.9205  0.3207  0.9513
  411MOL0     H54191  -0.478   3.658   8.018 -1.4131 -2.9778 -1.2456
  411MOL0     H54192  -0.483   3.596   7.859 -0.2658 -1.2423  2.8596
  411MOL0     H54193  -0.616   3.809   7.879 -0.4510  2.3477  3.3475
  411MOL0     H54194  -0.480   3.839   7.773  1.3278 -2.7199 -0.4148
  411MOL0     H54195  -0.431   3.902   8.057 -1.4198 -0.4642  1.2461
  411MOL0     H54196  -0.407   4.001   7.916 -2.1963 -1.4548 -2.6695
  411MOL0     H54197  -0.596   4.103   8.055  1.1224  0.2559 -0.0199
  411MOL0     H54198  -0.684   3.954   8.028  1.8211 -1.5497 -0.7827
  411MOL0     H54199  -0.753   4.154   7.906  1.5770  2.4011 -0.4510
  411MOL0     H54200  -0.709   4.026   7.796  0.5151  2.5676 -2.8689
  411MOL0     H54201  -0.521   4.253   7.882 -1.3365  0.0233  0.8296
  411MOL0     H54202  -0.485   4.128   7.759  0.2187 -0.7537 -1.0200
  411MOL0     H54203  -0.549   4.334   7.653 -0.1707 -0.3617 -0.5616
  411MOL0     H54204  -0.702   4.325   7.729  2.9102  1.1692  5.2535
  411MOL0     H54205  -0.475   4.162   7.464  0.1257 -1.4892  3.1161
  411MOL0     H54206  -0.533   4.100   7.187  0.5213 -2.3383 -2.9167
  411MOL0     H54207  -0.694   4.052   7.162 -1.0423  3.1273  2.6072
  411MOL0     H54208  -0.664   3.826   7.258  0.9490 -2.5916 -0.9117
  411MOL0     H54209  -0.509   3.877   7.310  1.4520 -0.7865 -1.6908
  411MOL0     H54210  -0.437   3.897   7.071 -0.9442  0.1486 -0.8708
  411MOL0     H54211  -0.474   3.738   7.136 -0.2523 -1.2732 -0.8837
  411MOL0     H54212  -0.572   3.764   6.903  0.7110  2.1981 -0.4519
  411MOL0     H54213  -0.648   3.914   6.940  0.8792 -1.1869 -0.8137
  411MOL0     H54214  -0.954   3.746   7.153  2.9211  1.2795 -1.0120
  411MOL0     H54215  -1.181   3.759   7.053 -0.7923  1.7638  0.3964
  411MOL0     H54216  -1.430   3.658   6.694 -0.2566 -0.4571 -0.8150
  411MOL0     H54217  -1.658   3.666   6.616 -0.1648  0.6944  0.1384
  411MOL0     H54218  -1.796   4.040   6.382  0.7841  0.3267  0.0446
  411MOL0     H54219  -1.820   4.036   6.554  0.9110  1.2862 -0.3084
  411MOL0     H54220  -2.031   3.891   6.494 -0.8435  0.8689 -1.0967
  411MOL0     H54221  -1.987   3.927   6.330 -0.6816 -2.4576  1.3935
  411MOL0     H54222  -2.036   4.186   6.381 -5.5153 -0.1333 -3.5877
  411MOL0     H54223  -2.067   4.132   6.549  0.1252  0.8843  1.1376
  411MOL0     H54224  -2.221   4.041   6.304 -0.7767 -1.3287  0.1775
  411MOL0     H54225  -2.237   3.985   6.468  0.3835  1.3931  2.9361
  411MOL0     H54226  -2.276   4.274   6.402  0.3723  0.3702  0.8562
  411MOL0     H54227  -2.274   4.200   6.556  2.3533  3.2006 -1.1702
  411MOL0     H54228  -2.470   4.078   6.535  2.4519  0.8969  0.8780
  411MOL0     H54229  -2.476   4.104   6.358  1.2206 -0.6542  0.9796
  411MOL0     H54230  -2.510   4.318   6.582  3.6990  1.5880 -1.4301
  411MOL0     H54231  -2.515   4.348   6.411 -0.1704  0.6935  1.8690
  411MOL0     H54232  -2.737   4.179   6.550 -4.0505 -0.4622 -1.6973
  411MOL0     H54233  -2.705   4.195   6.372 -0.3906  1.5483 -1.0613
  411MOL0     H54234  -1.575   4.028   6.410 -1.2584 -0.1517  0.4527
  411MOL0     H54235  -1.349   4.017   6.497 -0.1057  0.0775 -0.6169
  411MOL0     H54236  -0.997   3.866   6.680  0.4815  1.3192  0.0577
  411MOL0     H54237  -0.783   3.811   6.766 -1.0909  1.7661 -1.9545
  411MOL0     H54238  -0.156   3.314   7.894  0.2166 -0.2543 -1.8025
  411MOL0     H54239   0.077   3.247   7.888 -1.1577 -1.0095 -0.9426
  411MOL0     H54240   0.506   3.373   7.593 -1.0866 -0.4879  0.4445
  411MOL0     H54241   0.747   3.305   7.604 -0.9286 -0.4552  0.1114
  411MOL0     H54242   0.891   3.103   7.979  0.7162 -1.5578 -3.5528
  411MOL0     H54243   0.935   3.265   8.009 -1.2243 -0.0768 -0.4216
  411MOL0     H54244   1.131   3.212   7.833 -0.3591 -0.5885 -0.9930
  411MOL0     H54245   1.148   3.133   7.984 -1.8312  2.9484  1.5740
  411MOL0     H54246   1.167   3.005   7.757 -0.0690 -1.3363  1.5302
  411MOL0     H54247   0.997   3.050   7.734 -0.4514  1.4082  0.6149
  411MOL0     H54248   0.925   2.905   7.906 -0.3644  2.8547 -1.0321
  411MOL0     H54249   0.997   2.819   7.782 -0.2316  1.1256  0.3381
  411MOL0     H54250   1.279   2.718   8.078 -1.6309 -1.9498 -0.2821
  411MOL0     H54251   0.717   3.247   8.035  2.8508  1.8646 -0.4586
  411MOL0     H54252   0.483   3.315   8.014 -1.1855 -1.2713  0.3182
  412MOL0     O54253   3.395  10.958   6.248 -0.5605 -0.1535 -0.4756
  412MOL0     C54254   3.345  11.064   6.229  0.2676 -0.3217 -0.4180
  412MOL0     O54255   3.406  11.183   6.194  0.4351 -0.1943  0.6289
  412MOL0     C54256   3.547  11.183   6.196 -0.2407  0.2125 -0.5221
  412MOL0     C54257   3.611  11.280   6.273 -0.7862 -0.4150  0.0140
  412MOL0     C54258   3.749  11.289   6.289 -0.9765  0.0837  0.7308
  412MOL0     C54259   3.831  11.200   6.218 -0.2589  0.2627  0.2382
  412MOL0     O54260   3.963  11.196   6.236  0.2679 -0.3769  0.2273
  412MOL0     C54261   4.033  11.261   6.125 -0.7815 -0.1594 -0.0483
  412MOL0     C54262   4.178  11.288   6.168 -0.4628  0.0871 -0.2633
  412MOL0     C54263   4.272  11.171   6.120  0.2036  0.1965 -0.2868
  412MOL0     C54264   4.252  11.045   6.196 -0.0580  0.9798  0.5057
  412MOL0     C54265   4.327  10.919   6.141 -0.2169 -0.4301 -0.3729
  412MOL0     C54266   4.473  10.931   6.130  0.6679  0.9895  0.2142
  412MOL0     C54267   4.533  10.961   6.271  0.3652  0.4726 -0.1840
  412MOL0     C54268   4.683  11.004   6.260  0.1684  0.6570 -0.6799
  412MOL0     N54269   4.707  11.115   6.170 -0.1467  0.1060  0.3658
  412MOL0     C54270   4.748  11.083   6.039  0.5850  0.0318 -0.2355
  412MOL0     C54271   4.781  11.201   5.988  0.1891 -1.1309 -0.1162
  412MOL0     C54272   4.826  11.233   5.850 -0.6723 -0.2742 -0.2353
  412MOL0     C54273   4.971  11.200   5.833 -0.4718  0.1217 -0.1271
  412MOL0     C54274   5.021  11.227   5.685 -0.1287 -0.1882  0.1173
  412MOL0     C54275   5.173  11.192   5.662 -0.4291  0.4243 -0.7315
  412MOL0     O54276   5.256  11.302   5.708  0.1810 -0.1992  0.3924
  412MOL0     C54277   5.387  11.312   5.672  0.5804  0.7321  0.1698
  412MOL0     C54278   5.463  11.202   5.633  1.3031  1.4703  0.0585
  412MOL0     C54279   5.603  11.209   5.632 -1.0775 -0.4914  0.5468
  412MOL0     C54280   5.683  11.326   5.656  0.0003 -0.4167  0.6684
  412MOL0     C54281   5.834  11.327   5.655  0.8651 -0.0633 -0.0481
  412MOL0     O54282   5.908  11.222   5.609  1.2376 -0.1694 -0.4754
  412MOL0     C54283   6.038  11.254   5.586  0.5394 -0.1260  1.0152
  412MOL0     C54284   6.078  11.290   5.457 -0.6679 -0.2227 -0.1895
  412MOL0     C54285   6.212  11.322   5.426 -0.4403  0.3532 -0.3224
  412MOL0     C54286   6.309  11.324   5.535 -0.9285  0.5274  1.2122
  412MOL0     O54287   6.435  11.351   5.513 -1.2471  0.5515 -0.0391
  412MOL0     C54288   6.475  11.474   5.443  0.1498  0.6197 -0.0829
  412MOL0     C54289   6.629  11.474   5.435 -0.1672  0.8315  0.3867
  412MOL0     C54290   6.683  11.570   5.332 -0.3005 -0.5872 -0.0423
  412MOL0     C54291   6.833  11.547   5.315 -0.5096 -0.2035 -0.7445
  412MOL0     C54292   6.906  11.666   5.235 -0.1250 -0.1436 -0.6612
  412MOL0     C54293   7.057  11.625   5.214 -1.0064  0.2855  0.4488
  412MOL0     C54294   7.144  11.725   5.123 -0.3316 -0.0708  0.4763
  412MOL0     C54295   7.178  11.854   5.205 -0.2383 -0.5818 -0.0658
  412MOL0    Cl54296   7.241  11.979   5.085 -0.0163 -0.2835 -0.2744
  412MOL0     C54297   6.265  11.302   5.660 -0.4990  0.0851  0.9497
  412MOL0     C54298   6.133  11.271   5.689 -0.4454  1.4258  0.0191
  412MOL0     O54299   5.872  11.434   5.690  0.5648  0.4160 -0.1858
  412MOL0     C54300   5.601  11.433   5.695 -0.0583 -0.3559 -0.2133
  412MOL0     C54301   5.460  11.425   5.700 -0.1842 -0.2723 -0.5745
  412MOL0     N54302   4.767  11.299   6.080  0.1122 -0.1822 -0.0933
  412MOL0     N54303   4.724  11.247   6.193  0.7808 -0.1786 -0.4490
  412MOL0     C54304   3.770  11.101   6.135 -0.5492  0.0539 -0.1150
  412MOL0     C54305   3.631  11.096   6.123 -0.3142  0.3682 -0.1732
  412MOL0     C54306   3.198  11.072   6.229  0.2970  0.8134 -0.2921
  412MOL0     C54307   3.126  10.986   6.321  1.2807  0.2442  0.2952
  412MOL0     C54308   2.979  11.003   6.332 -0.2266  0.9025 -0.2021
  412MOL0     C54309   2.913  11.096   6.255 -0.8423  0.8088  0.4624
  412MOL0     O54310   2.778  11.094   6.262 -0.4310 -0.5308 -0.3586
  412MOL0     C54311   2.699  11.207   6.230  0.7482  0.3004  0.3206
  412MOL0     C54312   2.726  11.329   6.330  0.2911  0.8155 -0.2990
  412MOL0     C54313   2.715  11.280   6.485  0.2310  0.4272 -0.0560
  412MOL0     C54314   2.577  11.218   6.518 -0.3787 -0.6960  0.5996
  412MOL0     C54315   2.474  11.323   6.527  0.5652 -0.3739  0.4649
  412MOL0     C54316   2.385  11.409   6.536 -0.4394  0.3730 -1.0233
  412MOL0     C54317   2.987  11.172   6.165  0.2204 -0.0617  0.1732
  412MOL0     C54318   3.128  11.161   6.150  0.6504 -0.3473 -0.5155
  412MOL0     H54319   3.547  11.344   6.333 -3.2587 -4.1502  1.7625
  412MOL0     H54320   3.784  11.364   6.359 -0.7862 -0.1338  0.8697
  412MOL0     H54321   3.984  11.351   6.087 -1.3089 -1.5799 -3.0875
  412MOL0     H54322   4.029  11.202   6.033  0.6933  0.3590 -0.4706
  412MOL0     H54323   4.185  11.297   6.277  0.4845  1.5494 -0.4185
  412MOL0     H54324   4.208  11.383   6.123  2.3599 -0.4827  0.1885
  412MOL0     H54325   4.376  11.197   6.145  0.8731 -1.9929 -0.4975
  412MOL0     H54326   4.269  11.158   6.012 -0.3241  0.7286 -0.3365
  412MOL0     H54327   4.284  11.062   6.299  0.3062  0.4320  0.4859
  412MOL0     H54328   4.145  11.026   6.185  0.4460 -1.0453 -1.6335
  412MOL0     H54329   4.295  10.898   6.038 -0.9221 -0.1944 -0.2103
  412MOL0     H54330   4.301  10.826   6.193 -2.1099 -0.0265 -0.5137
  412MOL0     H54331   4.480  11.017   6.062 -1.5251  1.3442  0.3708
  412MOL0     H54332   4.510  10.839   6.086 -1.3136 -0.9232  2.2808
  412MOL0     H54333   4.484  11.044   6.323 -1.7774 -1.4623  1.0359
  412MOL0     H54334   4.516  10.869   6.328  2.8500 -0.4928 -0.8595
  412MOL0     H54335   4.748  10.921   6.230  0.1092 -0.0621  1.0375
  412MOL0     H54336   4.729  11.028   6.356  5.6080  0.1426 -2.7889
  412MOL0     H54337   4.742  10.983   5.996 -0.0595 -1.4510  3.0215
  412MOL0     H54338   4.815  11.336   5.814  2.4498 -0.9152 -3.7075
  412MOL0     H54339   4.768  11.166   5.785 -0.8417  0.0164 -0.3850
  412MOL0     H54340   4.988  11.092   5.828 -3.1237 -0.3486 -0.8545
  412MOL0     H54341   5.029  11.257   5.906  0.3876 -1.7685  0.7104
  412MOL0     H54342   4.960  11.160   5.624  1.0417 -2.1049  0.9739
  412MOL0     H54343   4.997  11.331   5.659 -1.0690 -0.8782 -2.0133
  412MOL0     H54344   5.195  11.184   5.555 -1.5659  2.5524 -1.1656
  412MOL0     H54345   5.208  11.099   5.707 -0.9630  2.0102  3.3630
  412MOL0     H54346   5.425  11.102   5.618  1.0134  0.9172  3.7340
  412MOL0     H54347   5.658  11.119   5.607 -2.3241 -0.3631 -3.2814
  412MOL0     H54348   6.001  11.287   5.380  0.2116 -0.4945 -1.0714
  412MOL0     H54349   6.226  11.356   5.323 -0.4549 -0.6363 -0.6581
  412MOL0     H54350   6.433  11.560   5.497  0.2025 -0.3426  1.5459
  412MOL0     H54351   6.441  11.474   5.339  0.9805  2.4583 -0.4068
  412MOL0     H54352   6.659  11.373   5.406 -0.6202  1.0158 -0.7886
  412MOL0     H54353   6.672  11.496   5.533  0.5274 -0.9011  0.5064
  412MOL0     H54354   6.660  11.675   5.355  0.6643 -0.5460  0.8242
  412MOL0     H54355   6.628  11.552   5.239 -4.1683  0.9708  1.7162
  412MOL0     H54356   6.880  11.532   5.412  1.6100 -1.3052 -1.8810
  412MOL0     H54357   6.840  11.458   5.251 -0.0582  1.0583 -2.5116
  412MOL0     H54358   6.888  11.757   5.293  0.6156 -1.8038  2.4330
  412MOL0     H54359   6.857  11.677   5.138 -1.1418  1.3709 -0.0140
  412MOL0     H54360   7.070  11.525   5.172  1.4121 -0.2931  2.3554
  412MOL0     H54361   7.102  11.627   5.313 -0.0321  2.1121  0.0059
  412MOL0     H54362   7.237  11.683   5.085 -0.9638  1.2869 -2.9083
  412MOL0     H54363   7.088  11.769   5.040  0.6619 -0.9652 -0.6963
  412MOL0     H54364   7.261  11.841   5.276 -0.5854 -0.1183  0.4390
  412MOL0     H54365   7.094  11.898   5.260  0.9422 -1.1413  2.3269
  412MOL0     H54366   6.331  11.301   5.746 -1.0707 -2.1215  1.4236
  412MOL0     H54367   6.106  11.243   5.791 -1.6919 -3.0178 -1.3147
  412MOL0     H54368   5.646  11.530   5.717  2.6424 -2.0010  2.1698
  412MOL0     H54369   5.398  11.507   5.735  0.5727  0.1684 -0.2399
  412MOL0     H54370   3.832  11.038   6.073 -0.3611  2.4828 -2.6162
  412MOL0     H54371   3.597  11.017   6.057  2.0742  0.0069 -1.0896
  412MOL0     H54372   3.178  10.919   6.389  2.1244  1.1458  0.5825
  412MOL0     H54373   2.922  10.943   6.402 -0.7757 -0.2793 -1.6120
  412MOL0     H54374   2.593  11.182   6.233  0.7995  0.1821  1.5787
  412MOL0     H54375   2.710  11.238   6.125  1.1191 -3.1748 -0.7820
  412MOL0     H54376   2.829  11.360   6.313  0.5741  0.3141  0.4442
  412MOL0     H54377   2.652  11.408   6.314 -1.5671 -0.6791  0.5773
  412MOL0     H54378   2.726  11.372   6.544 -0.9224  0.4063  0.2186
  412MOL0     H54379   2.797  11.210   6.504  0.2839  0.7360  0.9360
  412MOL0     H54380   2.532  11.155   6.441  0.2418 -1.5388  0.9132
  412MOL0     H54381   2.588  11.155   6.607  1.8576  0.9013  1.5585
  412MOL0     H54382   2.301  11.475   6.549  1.4926  2.5568  1.2620
  412MOL0     H54383   2.930  11.237   6.099  1.0801 -1.4604 -2.0827
  412MOL0     H54384   3.184  11.217   6.076  0.0501  0.6760 -0.2203
  413MOL0     O54385   9.140   1.168   3.021 -0.4006  0.1908  0.4307
  413MOL0     C54386   9.194   1.088   3.087  0.3735  0.7342  0.3603
  413MOL0     O54387   9.149   1.051   3.209  0.3267 -0.6463  0.3096
  413MOL0     C54388   9.021   1.084   3.260 -0.3607 -0.0592 -0.5528
  413MOL0     C54389   9.002   1.047   3.394 -0.6315  1.1231 -1.3475
  413MOL0     C54390   8.874   1.064   3.456 -0.2546 -0.0640  0.5067
  413MOL0     C54391   8.768   1.115   3.388  0.4366  0.3206  0.4985
  413MOL0     O54392   8.646   1.133   3.445  0.9816 -0.0437 -0.4374
  413MOL0     C54393   8.652   1.179   3.581 -0.3853  0.1276 -0.2916
  413MOL0     C54394   8.518   1.270   3.601 -0.6048  0.2641 -0.4016
  413MOL0     C54395   8.512   1.390   3.512  0.3895 -0.2935 -0.8609
  413MOL0     C54396   8.496   1.364   3.363  0.6889  0.3161 -0.1682
  413MOL0     C54397   8.451   1.482   3.292 -0.0194 -0.2301 -0.0381
  413MOL0     C54398   8.537   1.608   3.322  0.3190 -0.2119  0.5914
  413MOL0     C54399   8.496   1.723   3.221  0.4680  0.7094  0.3316
  413MOL0     C54400   8.607   1.835   3.215 -0.2005 -0.4401  0.1979
  413MOL0     N54401   8.547   1.953   3.134  0.6178  0.0645 -0.3215
  413MOL0     C54402   8.440   1.954   3.040 -0.5894  0.8330  0.5359
  413MOL0     C54403   8.426   2.079   3.001 -0.2211 -0.8824  0.1477
  413MOL0     C54404   8.320   2.113   2.902  0.4467 -0.5287 -0.1760
  413MOL0     C54405   8.276   2.256   2.939  0.5228  0.2417 -0.7734
  413MOL0     C54406   8.152   2.290   2.848 -0.4601  0.2326  0.0941
  413MOL0     C54407   8.069   2.418   2.879 -0.1363  0.0875 -0.2457
  413MOL0     O54408   7.973   2.395   2.985  0.0165 -0.3456 -0.9638
  413MOL0     C54409   7.845   2.365   2.968  0.2399  0.4440  0.5280
  413MOL0     C54410   7.784   2.334   3.097 -0.2150 -0.2702  0.6130
  413MOL0     C54411   7.642   2.304   3.097  0.1911 -0.6613 -0.6593
  413MOL0     C54412   7.564   2.313   2.976  0.0521  0.0686 -0.1312
  413MOL0     C54413   7.415   2.281   2.981  0.0480  0.1834  0.1985
  413MOL0     O54414   7.342   2.324   2.876  0.0326 -0.0618  0.3076
  413MOL0     C54415   7.211   2.310   2.864  0.1477 -0.1139 -0.1147
  413MOL0     C54416   7.116   2.309   2.967 -0.5554 -1.1998  0.6402
  413MOL0     C54417   6.973   2.320   2.934  0.4624  0.0191 -0.2626
  413MOL0     C54418   6.934   2.317   2.806  0.0656  0.7504 -0.3928
  413MOL0     O54419   6.798   2.345   2.778 -0.4129  0.9499 -0.1857
  413MOL0     C54420   6.773   2.473   2.721 -0.1194 -0.1771 -0.6042
  413MOL0     C54421   6.615   2.480   2.692 -0.2849  0.2911 -0.2807
  413MOL0     C54422   6.536   2.492   2.829  0.8541  0.3595 -0.2775
  413MOL0     C54423   6.389   2.455   2.806 -0.1974  0.1310 -0.4245
  413MOL0     C54424   6.313   2.562   2.725 -0.3813  0.0330 -0.4523
  413MOL0     C54425   6.163   2.527   2.721 -0.2470  0.6774  0.1698
  413MOL0     C54426   6.148   2.393   2.640 -0.6931 -0.0094 -0.3793
  413MOL0     C54427   6.010   2.372   2.591  0.6309  0.1105 -0.2997
  413MOL0    Cl54428   5.959   2.501   2.481  0.0980  0.2142 -0.0705
  413MOL0     C54429   7.023   2.317   2.699  0.7517 -0.2903  0.3535
  413MOL0     C54430   7.156   2.304   2.731  0.1899  0.6469 -0.4281
  413MOL0     O54431   7.378   2.206   3.070 -0.1481  0.3672 -0.1152
  413MOL0     C54432   7.627   2.349   2.861  0.1876  0.4865 -0.1512
  413MOL0     C54433   7.768   2.371   2.856  0.4668 -0.5383  0.6355
  413MOL0     N54434   8.509   2.155   3.079  0.0812 -0.1877  0.9779
  413MOL0     N54435   8.579   2.081   3.162  0.0504 -0.6555  0.6807
  413MOL0     C54436   8.784   1.147   3.251  0.0440  0.4299 -0.4578
  413MOL0     C54437   8.908   1.131   3.192 -0.3450 -0.3259  0.9079
  413MOL0     C54438   9.328   1.027   3.051 -0.3256  0.0271  0.3721
  413MOL0     C54439   9.373   0.898   3.090  0.2756  0.9002 -0.3078
  413MOL0     C54440   9.501   0.857   3.070 -1.2459 -0.5086  0.4065
  413MOL0     C54441   9.581   0.925   2.980 -0.3655 -0.6513 -1.1449
  413MOL0     O54442   9.704   0.885   2.941 -0.1036  0.2384  0.5425
  413MOL0     C54443   9.774   0.776   2.999  0.1491 -0.4152  0.5811
  413MOL0     C54444   9.921   0.767   2.969  0.2894  0.1433  0.1118
  413MOL0     C54445   9.991   0.880   3.057 -0.3469 -0.5646  0.4143
  413MOL0     C54446  10.134   0.842   3.086  0.0025  0.3509  0.1045
  413MOL0     C54447  10.216   0.955   3.139  0.0155 -0.0025 -0.6149
  413MOL0     C54448  10.305   1.024   3.190  0.0976  0.1325  0.6309
  413MOL0     C54449   9.538   1.045   2.932 -0.4325  0.2826 -0.4119
  413MOL0     C54450   9.412   1.103   2.962 -0.5801  0.5412  0.5316
  413MOL0     H54451   9.090   1.005   3.441 -0.3696  1.7392 -1.2777
  413MOL0     H54452   8.860   1.044   3.562 -2.2913  1.7220  0.6419
  413MOL0     H54453   8.742   1.238   3.600  0.3136 -1.2191  0.7062
  413MOL0     H54454   8.642   1.090   3.644  3.5756  0.0597  0.4595
  413MOL0     H54455   8.502   1.301   3.705 -3.0595 -2.6095  0.2372
  413MOL0     H54456   8.431   1.204   3.590 -2.4438  2.4690  0.1702
  413MOL0     H54457   8.599   1.456   3.519  2.5505 -2.7094 -2.8641
  413MOL0     H54458   8.417   1.430   3.548 -0.9775 -2.7381 -1.5219
  413MOL0     H54459   8.595   1.329   3.334  0.2995 -1.9208  0.9899
  413MOL0     H54460   8.421   1.287   3.343 -0.5046  1.3027  0.3351
  413MOL0     H54461   8.349   1.513   3.318 -0.0916 -0.5868  0.1076
  413MOL0     H54462   8.476   1.470   3.186  0.2157  1.2351 -0.1741
  413MOL0     H54463   8.642   1.587   3.303  1.0763  3.6852 -0.5237
  413MOL0     H54464   8.522   1.646   3.424  1.4323  0.7834  0.4058
  413MOL0     H54465   8.466   1.683   3.123  3.4191  2.2056 -1.3168
  413MOL0     H54466   8.414   1.783   3.262  0.4048 -0.0306  1.3308
  413MOL0     H54467   8.686   1.800   3.148  2.1798  1.4273  1.8207
  413MOL0     H54468   8.640   1.870   3.314  2.8368  0.9027 -1.1418
  413MOL0     H54469   8.380   1.875   2.995  1.5145  0.1176 -1.1967
  413MOL0     H54470   8.240   2.042   2.925 -0.0543  0.9807  3.6199
  413MOL0     H54471   8.340   2.104   2.795  1.6565  1.2239 -0.1465
  413MOL0     H54472   8.353   2.328   2.910  0.6984 -0.2120 -1.4670
  413MOL0     H54473   8.244   2.278   3.041 -0.0551  1.3718 -1.1866
  413MOL0     H54474   8.185   2.297   2.744 -0.9619 -1.1439 -0.1697
  413MOL0     H54475   8.088   2.204   2.866  2.2884 -2.0090 -0.0215
  413MOL0     H54476   8.025   2.464   2.790  3.1951  1.0709 -1.5348
  413MOL0     H54477   8.150   2.484   2.911  1.3250 -2.3309  1.3473
  413MOL0     H54478   7.838   2.325   3.191 -1.2336 -1.1998  1.1350
  413MOL0     H54479   7.595   2.266   3.187  0.0348 -1.7176 -1.1644
  413MOL0     H54480   7.146   2.321   3.071 -0.4437  3.0727  0.2905
  413MOL0     H54481   6.892   2.340   3.004 -0.9425 -0.2900 -1.7355
  413MOL0     H54482   6.815   2.483   2.620  0.2465  0.2462 -0.4136
  413MOL0     H54483   6.808   2.549   2.792  1.9362 -1.1350 -0.5231
  413MOL0     H54484   6.589   2.385   2.644 -1.2982  2.1430 -3.7578
  413MOL0     H54485   6.580   2.556   2.621  0.4319  2.3698  1.4857
  413MOL0     H54486   6.560   2.592   2.866  1.9811 -0.6076  1.8246
  413MOL0     H54487   6.571   2.425   2.909 -1.9265  1.2827  1.8556
  413MOL0     H54488   6.379   2.355   2.762 -2.4750  0.7790 -1.5068
  413MOL0     H54489   6.340   2.445   2.903 -1.2765  1.8483 -0.7405
  413MOL0     H54490   6.360   2.566   2.626  2.0697 -0.7997  0.6087
  413MOL0     H54491   6.322   2.659   2.775  1.4408 -0.1635 -0.3140
  413MOL0     H54492   6.100   2.607   2.680 -0.2461  1.0003  0.7862
  413MOL0     H54493   6.128   2.512   2.823 -4.1581  1.8104 -0.8320
  413MOL0     H54494   6.226   2.391   2.563  1.3190 -1.7621  1.5839
  413MOL0     H54495   6.171   2.316   2.713 -0.1881  1.4482  1.0592
  413MOL0     H54496   5.949   2.379   2.682 -0.4223 -1.4275 -0.8462
  413MOL0     H54497   5.994   2.276   2.541  0.0096  0.5648 -1.0012
  413MOL0     H54498   6.993   2.328   2.595  0.9383  1.4751  0.4592
  413MOL0     H54499   7.236   2.300   2.657  0.2771  0.9475 -0.3526
  413MOL0     H54500   7.579   2.382   2.770  0.9526  1.4919 -0.1992
  413MOL0     H54501   7.824   2.401   2.767  0.4313  5.1004  2.1258
  413MOL0     H54502   8.703   1.183   3.188 -0.0969  3.1546  1.1449
  413MOL0     H54503   8.910   1.139   3.083 -3.8422  0.8507  0.7987
  413MOL0     H54504   9.299   0.833   3.137 -1.7193  0.8909 -3.1994
  413MOL0     H54505   9.538   0.761   3.103  0.4137 -0.1554 -0.3299
  413MOL0     H54506   9.736   0.680   2.961  4.3529 -1.4436 -1.6561
  413MOL0     H54507   9.772   0.778   3.108  0.0943 -0.9659  0.5953
  413MOL0     H54508   9.953   0.665   2.990  0.6065 -0.0434 -1.1868
  413MOL0     H54509   9.928   0.780   2.860 -3.4648 -1.6419 -0.5302
  413MOL0     H54510   9.936   0.905   3.148  0.3128  0.2669  0.6007
  413MOL0     H54511  10.001   0.970   2.995  3.4912 -0.7711  0.4806
  413MOL0     H54512  10.158   0.766   3.161  1.1932  1.4440  0.8593
  413MOL0     H54513  10.175   0.802   2.993  0.0246  0.9296 -0.1407
  413MOL0     H54514  10.379   1.090   3.231 -0.0748 -0.1632  1.4523
  413MOL0     H54515   9.610   1.091   2.865  0.1768 -0.5887 -0.3566
  413MOL0     H54516   9.373   1.197   2.925  2.1385  0.9797 -1.6276
  414MOL0     O54517   0.474  10.050   3.161  0.5285 -0.5300  0.8713
  414MOL0     C54518   0.558  10.002   3.247  0.4853 -0.7235  0.4384
  414MOL0     O54519   0.530   9.931   3.363 -0.1820 -0.0412 -0.0299
  414MOL0     C54520   0.402   9.893   3.393  0.1452 -0.6302  0.1660
  414MOL0     C54521   0.389   9.851   3.526 -0.8494 -0.6287 -0.3764
  414MOL0     C54522   0.266   9.806   3.582 -0.8107 -0.3534  0.1263
  414MOL0     C54523   0.162   9.808   3.494  0.8344  0.9221 -0.5190
  414MOL0     O54524   0.041   9.748   3.537  0.0363  0.6201 -0.4128
  414MOL0     C54525   0.035   9.682   3.664 -0.2596  0.3784 -0.8143
  414MOL0     C54526  -0.097   9.599   3.668 -0.6800  0.6448  0.2798
  414MOL0     C54527  -0.213   9.696   3.633  0.3754  0.0728 -0.4426
  414MOL0     C54528  -0.340   9.618   3.638  1.7600  0.0652  0.3099
  414MOL0     C54529  -0.475   9.698   3.624  0.4669  0.4907 -0.1247
  414MOL0     C54530  -0.585   9.618   3.687 -0.2481  0.2228 -0.3644
  414MOL0     C54531  -0.719   9.687   3.698 -0.4885  0.1851  0.2641
  414MOL0     C54532  -0.829   9.597   3.749 -0.6099  0.4893 -0.6651
  414MOL0     N54533  -0.963   9.639   3.719  0.1499  0.2961  0.0068
  414MOL0     C54534  -1.029   9.596   3.606  0.4870  0.4052  0.4796
  414MOL0     C54535  -1.151   9.655   3.614 -0.8724  0.0592  0.4011
  414MOL0     C54536  -1.250   9.665   3.500 -0.1179 -0.2244  1.3394
  414MOL0     C54537  -1.305   9.808   3.481 -0.1323  0.1000 -0.5594
  414MOL0     C54538  -1.192   9.911   3.427 -0.6855 -1.1206  0.1130
  414MOL0     C54539  -1.261  10.041   3.355  0.1600  0.3262 -0.1895
  414MOL0     O54540  -1.346  10.123   3.441  0.3559 -0.7023 -0.0758
  414MOL0     C54541  -1.480  10.096   3.460  0.7801 -0.4335 -0.4900
  414MOL0     C54542  -1.573  10.055   3.359 -0.5379  0.1798 -0.1461
  414MOL0     C54543  -1.703  10.026   3.387 -0.6367  0.2499  0.0554
  414MOL0     C54544  -1.758  10.075   3.508 -0.9117  0.5057  0.1549
  414MOL0     C54545  -1.904  10.051   3.540 -0.5131  0.6480  0.0917
  414MOL0     O54546  -1.972   9.980   3.445  0.0724 -0.0588 -0.4254
  414MOL0     C54547  -2.108   9.956   3.450 -0.8266 -0.1749  0.8096
  414MOL0     C54548  -2.181   9.952   3.569 -0.2343 -0.5986 -0.6391
  414MOL0     C54549  -2.316   9.948   3.563 -0.0426  0.7825  0.3295
  414MOL0     C54550  -2.387   9.948   3.442  0.2352  0.1113  0.2048
  414MOL0     O54551  -2.520   9.954   3.433 -0.3948  0.2352 -0.0016
  414MOL0     C54552  -2.607   9.917   3.546 -1.5414  0.0204  0.3045
  414MOL0     C54553  -2.596   9.770   3.583 -0.3378  0.0226  1.0995
  414MOL0     C54554  -2.678   9.737   3.716 -0.8335 -1.1521  0.1854
  414MOL0     C54555  -2.825   9.737   3.697 -0.1633 -0.6449 -0.4265
  414MOL0     C54556  -2.910   9.708   3.827  0.3227  0.0533  0.4146
  414MOL0     C54557  -3.059   9.745   3.799  0.5446 -0.1925  0.1547
  414MOL0     C54558  -3.153   9.711   3.914  0.5035 -0.2250  0.1991
  414MOL0     C54559  -3.285   9.790   3.910  0.7501 -0.6806  1.7558
  414MOL0    Cl54560  -3.376   9.744   3.766  0.0132 -0.2655  0.3311
  414MOL0     C54561  -2.317   9.947   3.322 -0.0579  0.8690 -0.3328
  414MOL0     C54562  -2.181   9.933   3.330 -0.1753 -0.2532 -0.1785
  414MOL0     O54563  -1.950  10.094   3.644  0.5319  0.3898 -0.0195
  414MOL0     C54564  -1.677  10.138   3.603 -0.3122 -0.3663 -0.1759
  414MOL0     C54565  -1.541  10.142   3.579  0.7038 -0.5027  0.2495
  414MOL0     N54566  -1.142   9.742   3.728 -0.2852  0.5026  0.4347
  414MOL0     N54567  -1.030   9.729   3.786  0.1865 -0.4643  0.6438
  414MOL0     C54568   0.166   9.849   3.363 -0.5088 -0.0184 -0.5511
  414MOL0     C54569   0.290   9.892   3.306 -0.2320  0.1819  0.3651
  414MOL0     C54570   0.701  10.016   3.208 -0.3410  0.0330  0.1465
  414MOL0     C54571   0.744  10.021   3.077 -0.6496 -0.6098 -0.3657
  414MOL0     C54572   0.880  10.057   3.044  0.5718 -0.1142 -0.2729
  414MOL0     C54573   0.960  10.114   3.149 -0.9739 -0.7720  1.0412
  414MOL0     O54574   1.074  10.184   3.143 -0.0658 -0.6995  0.2197
  414MOL0     C54575   1.127  10.213   3.017  0.0172 -0.6244 -0.1996
  414MOL0     C54576   1.268  10.263   3.038  0.7039 -0.1883  0.2606
  414MOL0     C54577   1.337  10.310   2.909  0.3944 -0.0057  0.7211
  414MOL0     C54578   1.485  10.344   2.936  0.3418 -0.2736  0.5668
  414MOL0     C54579   1.562  10.219   2.974 -0.7442  0.3495  0.2143
  414MOL0     C54580   1.635  10.130   3.006  0.1082 -0.2116  0.0831
  414MOL0     C54581   0.930  10.085   3.281  0.4116  0.5411 -0.3232
  414MOL0     C54582   0.797  10.047   3.310  0.1594  0.3065 -0.3638
  414MOL0     H54583   0.473   9.848   3.594 -1.1883  1.0864  0.1707
  414MOL0     H54584   0.245   9.773   3.683 -1.0729  1.4608  0.7109
  414MOL0     H54585   0.035   9.760   3.740  1.6215 -0.8632  0.5521
  414MOL0     H54586   0.115   9.615   3.698 -2.5461 -1.7634  0.7137
  414MOL0     H54587  -0.106   9.552   3.766  0.3046 -1.8989 -0.7655
  414MOL0     H54588  -0.096   9.515   3.598 -1.8075 -0.2004  1.2408
  414MOL0     H54589  -0.209   9.722   3.527 -1.5398 -2.0807 -1.1114
  414MOL0     H54590  -0.225   9.784   3.697  1.7638  1.4495 -1.9729
  414MOL0     H54591  -0.344   9.536   3.566  0.3010  0.6610 -0.3265
  414MOL0     H54592  -0.345   9.573   3.738  1.4091  0.9598  0.7078
  414MOL0     H54593  -0.506   9.729   3.524 -3.7157  2.4124  1.5348
  414MOL0     H54594  -0.461   9.794   3.675  0.5431  0.4186 -0.0084
  414MOL0     H54595  -0.554   9.580   3.785 -1.5467 -0.4363 -0.1901
  414MOL0     H54596  -0.592   9.524   3.632  0.0805 -1.7081  2.6822
  414MOL0     H54597  -0.716   9.770   3.769  2.4582 -1.4604  2.2975
  414MOL0     H54598  -0.739   9.722   3.596  0.0668 -0.6473 -0.1503
  414MOL0     H54599  -0.826   9.602   3.858 -0.0201  1.4958 -0.7102
  414MOL0     H54600  -0.819   9.494   3.714  2.5583 -0.1548  1.6193
  414MOL0     H54601  -0.991   9.532   3.528  0.3390 -0.2911  0.9630
  414MOL0     H54602  -1.331   9.597   3.529  0.3198 -2.5604 -2.2849
  414MOL0     H54603  -1.209   9.627   3.406 -1.7056  1.1823  0.0255
  414MOL0     H54604  -1.337   9.837   3.581 -2.8054  1.6972 -1.7719
  414MOL0     H54605  -1.403   9.799   3.433 -3.0673 -1.0898  4.8234
  414MOL0     H54606  -1.123   9.948   3.504  0.3877 -0.4037 -1.1539
  414MOL0     H54607  -1.138   9.846   3.357 -2.1911 -2.0328 -0.2359
  414MOL0     H54608  -1.325   9.998   3.277 -0.0272 -0.3435  0.3257
  414MOL0     H54609  -1.185  10.105   3.308  1.2002  0.2831  1.3787
  414MOL0     H54610  -1.543  10.035   3.257 -1.6684 -0.1382 -0.4304
  414MOL0     H54611  -1.765   9.972   3.317  3.3739 -3.2940 -1.1809
  414MOL0     H54612  -2.147   9.961   3.671 -0.2988 -1.6970 -0.5103
  414MOL0     H54613  -2.368   9.954   3.658  0.2373 -2.3215  0.7659
  414MOL0     H54614  -2.705   9.956   3.516 -0.3859  2.6162 -0.4448
  414MOL0     H54615  -2.572   9.982   3.628 -1.3672  1.3569 -0.7870
  414MOL0     H54616  -2.492   9.739   3.593 -1.2908 -3.5143  1.4395
  414MOL0     H54617  -2.637   9.713   3.499  0.1202 -1.0477  1.5906
  414MOL0     H54618  -2.654   9.807   3.796  1.2800 -0.3649 -1.0438
  414MOL0     H54619  -2.645   9.640   3.755  0.9449 -0.5042  0.3929
  414MOL0     H54620  -2.858   9.838   3.669  0.9628  0.1991  1.0946
  414MOL0     H54621  -2.846   9.663   3.619  0.0336 -0.3240 -0.7838
  414MOL0     H54622  -2.864   9.751   3.917 -1.9082  2.5466  0.4851
  414MOL0     H54623  -2.899   9.600   3.842  0.3728  0.1123  0.8118
  414MOL0     H54624  -3.106   9.692   3.716 -0.1224 -0.0891  0.4597
  414MOL0     H54625  -3.073   9.851   3.776 -0.4441 -0.6032 -1.2551
  414MOL0     H54626  -3.167   9.602   3.906  0.3625 -0.2903  1.1974
  414MOL0     H54627  -3.097   9.727   4.007 -2.2589  2.3587  1.5558
  414MOL0     H54628  -3.272   9.899   3.910 -0.8409 -0.4718  1.6491
  414MOL0     H54629  -3.356   9.767   3.990  0.0381 -5.1319  0.0989
  414MOL0     H54630  -2.369   9.929   3.228  0.6827  0.4892 -0.6837
  414MOL0     H54631  -2.124   9.928   3.239 -0.8554  2.7606 -0.8797
  414MOL0     H54632  -1.714  10.191   3.691 -0.8947 -3.2786  1.4499
  414MOL0     H54633  -1.490  10.182   3.666  2.8750 -2.1842 -0.1676
  414MOL0     H54634   0.074   9.834   3.308 -1.1414  2.3419 -0.2483
  414MOL0     H54635   0.292   9.934   3.206 -0.0407  2.1290  1.1573
  414MOL0     H54636   0.672  10.004   2.997 -1.1742  1.8506 -0.4765
  414MOL0     H54637   0.900  10.079   2.940 -1.0914 -0.4886 -0.6971
  414MOL0     H54638   1.065  10.285   2.964  1.8796  1.2540  0.0398
  414MOL0     H54639   1.130  10.121   2.959 -0.2880  0.9693 -2.8971
  414MOL0     H54640   1.262  10.346   3.108  0.9751 -0.3496  0.4764
  414MOL0     H54641   1.329  10.182   3.080  0.1838 -1.0326 -0.5470
  414MOL0     H54642   1.295  10.405   2.875  1.5916  0.8310  1.5098
  414MOL0     H54643   1.327  10.232   2.833 -0.1401  0.8020 -0.0579
  414MOL0     H54644   1.532  10.396   2.851 -0.0214 -0.5509  0.1939
  414MOL0     H54645   1.488  10.419   3.016 -2.1449 -3.6792  4.1823
  414MOL0     H54646   1.698  10.055   3.050  2.1965  1.0342 -0.6807
  414MOL0     H54647   1.000  10.113   3.358  0.4393  1.3037 -0.6121
  414MOL0     H54648   0.769  10.039   3.414  0.1433 -3.1458 -0.5062
  415MOL0     O54649   8.872   7.116   4.074 -0.0511  0.5371 -0.8437
  415MOL0     C54650   8.877   7.075   4.187 -0.0586  0.1760 -0.8301
  415MOL0     O54651   8.770   7.011   4.250 -0.0022  0.3274  0.3121
  415MOL0     C54652   8.654   6.980   4.181 -0.0179 -1.4276  0.4969
  415MOL0     C54653   8.538   7.025   4.247  0.0190  0.1863 -0.2164
  415MOL0     C54654   8.410   6.982   4.201 -0.1159 -0.5184  0.3408
  415MOL0     C54655   8.399   6.897   4.085 -0.1101  0.4641 -0.2107
  415MOL0     O54656   8.274   6.862   4.035 -0.1443  0.0239  0.2006
  415MOL0     C54657   8.262   6.823   3.903  0.2566  0.4064  0.5178
  415MOL0     C54658   8.133   6.892   3.846 -0.3640  0.2467 -0.4070
  415MOL0     C54659   7.996   6.828   3.868  0.2134 -0.8454 -0.2841
  415MOL0     C54660   7.959   6.701   3.785 -1.7599  0.5635 -0.8952
  415MOL0     C54661   7.808   6.671   3.796 -0.3323 -0.4764 -0.8493
  415MOL0     C54662   7.755   6.548   3.721  0.2030 -0.2370  0.3709
  415MOL0     C54663   7.761   6.570   3.567 -0.4797 -0.4674  0.1293
  415MOL0     C54664   7.749   6.439   3.488 -0.2023  0.5237 -0.3531
  415MOL0     N54665   7.619   6.393   3.453  0.8209 -1.0954  1.2587
  415MOL0     C54666   7.592   6.323   3.341  0.0402 -0.3811 -0.1088
  415MOL0     C54667   7.464   6.281   3.356 -0.8114  0.0221 -0.7354
  415MOL0     C54668   7.376   6.197   3.269  0.7494  0.7088  0.0969
  415MOL0     C54669   7.230   6.201   3.308 -1.0232 -0.0368  0.3722
  415MOL0     C54670   7.149   6.105   3.230 -0.8419  0.3338  0.8918
  415MOL0     C54671   7.004   6.161   3.216  0.3014  0.2816  0.3855
  415MOL0     O54672   6.930   6.084   3.122 -0.0532 -0.1087 -0.0621
  415MOL0     C54673   6.809   6.139   3.081  0.0764 -0.1487  0.5610
  415MOL0     C54674   6.727   6.047   3.013  0.7137 -0.1982  0.0609
  415MOL0     C54675   6.607   6.097   2.961  0.2403 -0.0455  0.6443
  415MOL0     C54676   6.561   6.229   2.992  0.9143  0.1014  0.4796
  415MOL0     C54677   6.440   6.288   2.926 -0.3783  1.3275  0.5236
  415MOL0     O54678   6.412   6.219   2.812  0.3551 -0.3012 -0.9433
  415MOL0     C54679   6.303   6.250   2.729  0.2327  0.3958 -0.3561
  415MOL0     C54680   6.348   6.259   2.593 -0.2201  0.4507 -0.0003
  415MOL0     C54681   6.263   6.295   2.489  0.1422  1.0475 -0.7048
  415MOL0     C54682   6.131   6.301   2.518  0.3756 -0.3914  0.1997
  415MOL0     O54683   6.017   6.307   2.425 -0.1718 -0.6076 -0.7518
  415MOL0     C54684   6.038   6.301   2.284  0.6661  0.3465  0.3071
  415MOL0     C54685   5.907   6.297   2.194 -0.7887 -0.7349 -0.0938
  415MOL0     C54686   5.834   6.435   2.199 -0.7040  0.1733 -0.8678
  415MOL0     C54687   5.698   6.441   2.126 -0.7177 -0.4340 -0.1576
  415MOL0     C54688   5.593   6.542   2.178 -0.4677  0.0618  0.3317
  415MOL0     C54689   5.498   6.593   2.073 -0.4922  0.0577 -0.6806
  415MOL0     C54690   5.409   6.708   2.122  0.1280 -0.7630 -0.2066
  415MOL0     C54691   5.277   6.712   2.041  0.4203 -0.2124  0.0221
  415MOL0    Cl54692   5.292   6.710   1.868 -0.2198 -0.2835  0.0463
  415MOL0     C54693   6.086   6.291   2.648  0.4707  0.6272 -0.8035
  415MOL0     C54694   6.169   6.274   2.760  0.2818 -0.6044 -0.3851
  415MOL0     O54695   6.377   6.377   2.984 -0.5199  0.2598  0.1284
  415MOL0     C54696   6.641   6.306   3.070 -0.2282 -0.4831 -0.0877
  415MOL0     C54697   6.772   6.269   3.109  1.0785  0.3528 -0.3646
  415MOL0     N54698   7.417   6.325   3.478 -0.6332  0.0443 -0.3625
  415MOL0     N54699   7.507   6.396   3.534 -0.3672 -0.1177  0.0578
  415MOL0     C54700   8.514   6.853   4.020  0.0912  1.2970  0.0848
  415MOL0     C54701   8.642   6.897   4.068 -1.3240 -1.1888 -1.0976
  415MOL0     C54702   8.999   7.113   4.267  0.7790 -0.6212 -0.4598
  415MOL0     C54703   9.109   7.186   4.223  0.7221  0.4649  0.2384
  415MOL0     C54704   9.216   7.214   4.307 -0.1895 -0.4929  0.6424
  415MOL0     C54705   9.213   7.193   4.442  0.7426  0.1048  0.5696
  415MOL0     O54706   9.310   7.235   4.517 -0.0594 -0.4067  0.3206
  415MOL0     C54707   9.346   7.155   4.631  0.2173 -0.6404  0.4544
  415MOL0     C54708   9.483   7.200   4.685  0.0597  0.5038 -0.4603
  415MOL0     C54709   9.502   7.351   4.717  0.0628 -0.5158 -0.1126
  415MOL0     C54710   9.597   7.376   4.829  0.1547  0.6158  0.5058
  415MOL0     C54711   9.734   7.321   4.800  0.4307  1.0983  0.2531
  415MOL0     C54712   9.845   7.270   4.771 -0.6453 -0.7740  0.0257
  415MOL0     C54713   9.103   7.119   4.491  0.1423  0.4807  0.1051
  415MOL0     C54714   8.994   7.086   4.404  0.0304  1.1629 -0.0794
  415MOL0     H54715   8.543   7.094   4.331 -2.6463 -1.0874  1.0880
  415MOL0     H54716   8.314   7.012   4.242 -0.3644  0.7720 -1.0889
  415MOL0     H54717   8.237   6.718   3.888 -0.8928  0.7111  0.2594
  415MOL0     H54718   8.346   6.860   3.844 -0.3601 -0.2225 -0.7838
  415MOL0     H54719   8.144   6.910   3.739 -0.3510  1.1385 -0.2708
  415MOL0     H54720   8.109   6.994   3.880 -2.1164 -0.3646  0.3188
  415MOL0     H54721   7.921   6.897   3.828 -0.9156 -1.5144  0.6052
  415MOL0     H54722   7.990   6.812   3.976 -3.1250  0.3200 -0.1558
  415MOL0     H54723   7.980   6.724   3.680 -0.2565  0.5481 -0.6246
  415MOL0     H54724   8.023   6.618   3.816 -0.7535  2.5409  2.8400
  415MOL0     H54725   7.758   6.763   3.764  1.5998  0.2651 -1.8615
  415MOL0     H54726   7.776   6.661   3.901 -2.4959  2.9177 -1.0316
  415MOL0     H54727   7.649   6.533   3.747  0.1207  0.1908  0.2891
  415MOL0     H54728   7.805   6.455   3.747  0.9826 -0.0070 -0.2564
  415MOL0     H54729   7.688   6.641   3.528  1.4569  1.0141 -0.9683
  415MOL0     H54730   7.862   6.611   3.552  0.1425 -1.9514 -0.0247
  415MOL0     H54731   7.788   6.354   3.544  0.0738  0.5501 -0.5016
  415MOL0     H54732   7.828   6.450   3.413  2.4046  3.0465  2.4599
  415MOL0     H54733   7.649   6.304   3.251 -2.6704  0.0306 -2.0632
  415MOL0     H54734   7.410   6.094   3.258 -0.0979  0.6595 -3.7213
  415MOL0     H54735   7.396   6.235   3.168  0.2822  0.7933  0.0340
  415MOL0     H54736   7.198   6.305   3.299  0.7783  0.6921  1.6872
  415MOL0     H54737   7.220   6.180   3.415  0.1185  2.5336  1.0796
  415MOL0     H54738   7.189   6.115   3.128 -1.5718 -3.7040  0.0579
  415MOL0     H54739   7.161   6.001   3.259  1.2910 -0.0126 -0.9177
  415MOL0     H54740   7.006   6.266   3.183  0.2402  0.0526 -0.3767
  415MOL0     H54741   6.951   6.153   3.311  1.5167  1.0883  1.1576
  415MOL0     H54742   6.761   5.947   2.988 -0.9255 -1.3233  1.9861
  415MOL0     H54743   6.546   6.033   2.899 -2.2347  1.1494  1.7207
  415MOL0     H54744   6.454   6.249   2.574 -0.1985 -0.7036  0.6442
  415MOL0     H54745   6.287   6.318   2.386 -0.9517  1.3632 -0.9035
  415MOL0     H54746   6.107   6.222   2.254  2.4855  2.0981 -0.3573
  415MOL0     H54747   6.095   6.393   2.266 -1.0829  1.3703 -0.2941
  415MOL0     H54748   5.840   6.214   2.219  0.8689 -1.0007  4.3365
  415MOL0     H54749   5.939   6.282   2.090  1.9056  2.8686  0.0143
  415MOL0     H54750   5.895   6.515   2.155 -3.5182  1.7984 -2.1236
  415MOL0     H54751   5.825   6.458   2.305  0.4158 -1.4895 -0.3771
  415MOL0     H54752   5.730   6.469   2.025 -1.4960  0.3250 -0.2008
  415MOL0     H54753   5.652   6.342   2.135  1.3049 -1.3704  0.6281
  415MOL0     H54754   5.637   6.626   2.232 -2.8150  1.6460 -0.0512
  415MOL0     H54755   5.538   6.497   2.262  0.3647  1.9636  1.9826
  415MOL0     H54756   5.439   6.512   2.028  1.9387 -2.4821  0.3697
  415MOL0     H54757   5.560   6.620   1.988 -0.4502 -3.0556 -1.7730
  415MOL0     H54758   5.392   6.690   2.228  2.0335 -2.5541 -0.1393
  415MOL0     H54759   5.475   6.795   2.108  2.8754 -2.5230  0.9209
  415MOL0     H54760   5.237   6.807   2.078 -0.4338 -1.0614  1.4050
  415MOL0     H54761   5.205   6.633   2.067  1.0785 -1.3309 -1.4493
  415MOL0     H54762   5.979   6.302   2.661  0.2782 -0.9921 -0.7393
  415MOL0     H54763   6.123   6.261   2.858  0.0977  0.2187 -0.3534
  415MOL0     H54764   6.610   6.405   3.103 -0.0837 -0.1800 -0.8621
  415MOL0     H54765   6.820   6.348   3.166 -2.3179  1.8416  0.7051
  415MOL0     H54766   8.518   6.781   3.939 -0.9494  1.6580 -0.2945
  415MOL0     H54767   8.737   6.859   4.033 -1.3439 -1.1626 -1.1818
  415MOL0     H54768   9.107   7.208   4.117 -0.4211  2.7587  0.6777
  415MOL0     H54769   9.307   7.267   4.282 -0.9344  1.4657  1.8673
  415MOL0     H54770   9.345   7.049   4.605 -2.1135 -0.5512 -0.0390
  415MOL0     H54771   9.276   7.163   4.714  1.1381  1.5963  1.1061
  415MOL0     H54772   9.503   7.153   4.782 -3.6067  1.7770  1.1177
  415MOL0     H54773   9.556   7.179   4.607 -0.5604  0.6908 -1.1045
  415MOL0     H54774   9.406   7.396   4.743  0.1423  0.4175 -1.3791
  415MOL0     H54775   9.530   7.402   4.625 -1.5829  2.2330  0.7874
  415MOL0     H54776   9.606   7.477   4.871  1.6473  2.4992 -3.7456
  415MOL0     H54777   9.569   7.315   4.915  1.4403 -0.2479  0.3370
  415MOL0     H54778   9.943   7.237   4.745  0.2461  1.1544  0.7124
  415MOL0     H54779   9.091   7.098   4.596  1.8122  1.8554  0.6259
  415MOL0     H54780   8.919   7.020   4.447  2.7202 -1.2936  1.2245
  416MOL0     O54781   7.364  10.401   4.662 -0.0079 -0.1895 -0.3748
  416MOL0     C54782   7.252  10.366   4.624  0.1154  0.5055 -0.0468
  416MOL0     O54783   7.189  10.412   4.510 -0.8561 -0.1180  0.1301
  416MOL0     C54784   7.277  10.449   4.401 -0.1784 -0.9473 -0.3902
  416MOL0     C54785   7.382  10.368   4.369 -0.7252  0.0758 -0.0834
  416MOL0     C54786   7.472  10.400   4.262 -0.4023 -0.2903 -0.3740
  416MOL0     C54787   7.457  10.518   4.185 -0.1640 -0.3800  0.2570
  416MOL0     O54788   7.526  10.531   4.071 -0.3255 -0.6862  0.0900
  416MOL0     C54789   7.494  10.634   3.972  0.3824 -0.6981 -0.0789
  416MOL0     C54790   7.590  10.633   3.848 -1.0035  0.4419 -0.0850
  416MOL0     C54791   7.503  10.710   3.745 -0.2282 -0.1626 -0.4054
  416MOL0     C54792   7.582  10.724   3.619  0.6755 -0.6840  1.1556
  416MOL0     C54793   7.506  10.823   3.525 -0.2783  0.4138 -0.0027
  416MOL0     C54794   7.576  10.841   3.387 -0.1359 -0.2887  0.6295
  416MOL0     C54795   7.529  10.951   3.295 -0.6097  0.6281 -0.5992
  416MOL0     C54796   7.393  10.927   3.233  0.1177 -0.0428  0.2026
  416MOL0     N54797   7.279  10.890   3.315 -0.5244  0.4357 -0.3524
  416MOL0     C54798   7.232  10.974   3.411  0.6105 -0.2687  0.0007
  416MOL0     C54799   7.113  10.913   3.442  0.4524  0.0374 -0.2475
  416MOL0     C54800   7.014  10.959   3.545  0.4829  0.2725 -1.9552
  416MOL0     C54801   6.870  10.928   3.508 -0.5564  0.1052 -0.3045
  416MOL0     C54802   6.771  10.975   3.614  0.3476  0.4831  1.3611
  416MOL0     C54803   6.648  10.892   3.603  0.2480  0.8673 -0.5379
  416MOL0     O54804   6.550  10.942   3.700 -0.2084  0.1287 -0.0528
  416MOL0     C54805   6.434  10.873   3.700 -0.2657  0.1986 -0.0650
  416MOL0     C54806   6.337  10.915   3.791  0.5680  0.6290  0.1142
  416MOL0     C54807   6.217  10.836   3.815  0.2793 -0.0371 -0.2361
  416MOL0     C54808   6.194  10.724   3.735 -0.0656  0.1951  0.0770
  416MOL0     C54809   6.076  10.647   3.754 -0.5127 -0.2824  0.6488
  416MOL0     O54810   6.028  10.644   3.882 -1.2437  0.0003  0.6734
  416MOL0     C54811   5.897  10.608   3.911 -1.1729  0.3103  0.2272
  416MOL0     C54812   5.832  10.675   4.009 -0.5519 -0.4248 -0.0809
  416MOL0     C54813   5.708  10.642   4.060 -0.2419  0.6204 -1.2034
  416MOL0     C54814   5.633  10.537   4.007  0.3338  0.1347  0.0230
  416MOL0     O54815   5.507  10.515   4.065 -0.7267 -0.0919  0.2673
  416MOL0     C54816   5.463  10.378   4.037  0.3672  1.1753  0.4447
  416MOL0     C54817   5.349  10.350   4.137 -0.4333 -0.6154 -0.6558
  416MOL0     C54818   5.233  10.454   4.114  0.0436  0.6164 -0.6561
  416MOL0     C54819   5.085  10.418   4.167 -0.2429 -0.7390  0.9204
  416MOL0     C54820   5.002  10.318   4.075 -0.3703  0.7626 -0.3975
  416MOL0     C54821   4.883  10.392   4.025  0.1853 -0.0057 -0.0789
  416MOL0     C54822   4.767  10.411   4.122  0.3290 -0.4430 -0.6933
  416MOL0     C54823   4.721  10.289   4.192 -0.0039  0.5038 -0.0471
  416MOL0    Cl54824   4.680  10.153   4.080 -0.2654 -0.2635  0.0268
  416MOL0     C54825   5.699  10.467   3.905  0.4927  0.0260 -0.4540
  416MOL0     C54826   5.821  10.503   3.861  0.7871 -0.6931  0.4529
  416MOL0     O54827   6.030  10.593   3.656 -0.3773  0.3879 -0.3689
  416MOL0     C54828   6.278  10.702   3.622  0.0291 -0.3926  0.5737
  416MOL0     C54829   6.397  10.770   3.611 -0.2470 -0.6752 -0.1623
  416MOL0     N54830   7.102  10.790   3.373  0.5150  0.0163  0.6966
  416MOL0     N54831   7.195  10.785   3.293  0.3021 -0.2360  0.8383
  416MOL0     C54832   7.352  10.609   4.231  0.4432  0.7817 -0.0708
  416MOL0     C54833   7.262  10.572   4.334 -0.2193  0.2232  0.3435
  416MOL0     C54834   7.179  10.282   4.717 -0.2500 -0.5609  0.1806
  416MOL0     C54835   7.049  10.243   4.687 -0.5201 -0.3705  0.0496
  416MOL0     C54836   6.971  10.164   4.778  0.4800  0.1310 -0.3113
  416MOL0     C54837   7.025  10.127   4.901  0.9163  0.0768  0.1138
  416MOL0     O54838   6.974  10.040   4.994  0.5900  0.2447  0.1571
  416MOL0     C54839   6.831  10.009   4.979 -0.8961 -0.0863  0.6974
  416MOL0     C54840   6.819   9.874   4.902  0.3681  0.6433 -0.4090
  416MOL0     C54841   6.847   9.755   4.999 -0.0568 -0.1328  0.4760
  416MOL0     C54842   6.812   9.627   4.925 -0.0650 -0.1160 -0.3040
  416MOL0     C54843   6.859   9.504   4.989 -0.3090 -0.1091  0.5568
  416MOL0     C54844   6.893   9.405   5.046  0.3466  0.0999 -0.3897
  416MOL0     C54845   7.157  10.172   4.929 -0.2276 -0.4290  0.2114
  416MOL0     C54846   7.233  10.244   4.839  0.4261  0.2895 -0.4481
  416MOL0     H54847   7.409  10.290   4.439 -0.0744 -1.1947 -1.6883
  416MOL0     H54848   7.541  10.322   4.229  0.3151  0.3338 -0.3824
  416MOL0     H54849   7.488  10.728   4.027  1.4705 -0.3049 -0.5842
  416MOL0     H54850   7.401  10.598   3.927  1.6746 -1.4125 -2.3441
  416MOL0     H54851   7.633  10.539   3.813 -0.1520  0.4843  0.8158
  416MOL0     H54852   7.681  10.690   3.870 -0.8791  0.4139 -0.5207
  416MOL0     H54853   7.484  10.813   3.777  3.6885  0.1558  1.5053
  416MOL0     H54854   7.405  10.667   3.721  0.3961 -1.0314 -1.4943
  416MOL0     H54855   7.690  10.737   3.631  0.8338 -1.3787  0.5620
  416MOL0     H54856   7.572  10.622   3.579 -0.1125 -1.0505  2.2372
  416MOL0     H54857   7.500  10.918   3.578  1.1362 -0.9085  2.7572
  416MOL0     H54858   7.407  10.781   3.504  0.2326 -2.3136  2.2890
  416MOL0     H54859   7.565  10.748   3.330 -1.1574 -1.7537  3.0391
  416MOL0     H54860   7.683  10.837   3.409 -0.1549  0.5815  0.9075
  416MOL0     H54861   7.523  11.036   3.363  1.8058 -1.5976  2.6949
  416MOL0     H54862   7.604  10.969   3.217 -0.6836  1.9869 -0.3814
  416MOL0     H54863   7.401  10.846   3.159 -0.6784  0.5377 -0.5249
  416MOL0     H54864   7.366  11.014   3.175 -3.1694 -0.2045  1.3068
  416MOL0     H54865   7.273  11.071   3.438  2.9203 -1.5560  1.4247
  416MOL0     H54866   7.018  11.068   3.562  1.1464  0.0377 -0.3884
  416MOL0     H54867   7.048  10.919   3.641  2.5119 -0.8666 -3.0671
  416MOL0     H54868   6.866  10.821   3.487  0.0121 -0.1983  1.0222
  416MOL0     H54869   6.844  10.979   3.415 -2.4279  0.6016  0.4537
  416MOL0     H54870   6.801  10.964   3.718  0.3234  2.9738  1.6981
  416MOL0     H54871   6.740  11.079   3.598 -0.2070 -0.1887 -3.3156
  416MOL0     H54872   6.670  10.790   3.636 -1.0905  0.5484 -0.6064
  416MOL0     H54873   6.607  10.884   3.502 -2.5701 -0.9799  0.6316
  416MOL0     H54874   6.353  10.993   3.864  5.2308  0.5207 -0.4982
  416MOL0     H54875   6.143  10.873   3.885 -2.3297  0.3093 -2.9761
  416MOL0     H54876   5.884  10.749   4.069  1.1689 -0.0928 -1.9052
  416MOL0     H54877   5.664  10.695   4.144  1.8358  1.9130 -0.8471
  416MOL0     H54878   5.543  10.306   4.058  1.1432  1.5133 -1.1434
  416MOL0     H54879   5.423  10.362   3.936 -2.7680 -2.1367  1.9929
  416MOL0     H54880   5.390  10.360   4.237  1.5724 -2.3211 -1.2488
  416MOL0     H54881   5.312  10.247   4.127  0.8763 -0.9002 -4.1484
  416MOL0     H54882   5.220  10.482   4.009  0.1057 -1.4765 -1.2614
  416MOL0     H54883   5.273  10.544   4.163  3.3460 -0.0262 -1.9205
  416MOL0     H54884   5.087  10.384   4.270  1.0265  0.7516  1.4277
  416MOL0     H54885   5.029  10.511   4.182 -0.6595 -0.7399 -0.4685
  416MOL0     H54886   4.974  10.232   4.137  0.8374 -0.7780 -1.8925
  416MOL0     H54887   5.062  10.281   3.991  2.5359 -2.2894  2.7131
  416MOL0     H54888   4.840  10.344   3.937 -0.8143 -2.1133  1.4682
  416MOL0     H54889   4.921  10.488   3.988  0.4637 -0.7019 -1.6924
  416MOL0     H54890   4.788  10.489   4.196 -0.8560 -0.9616  0.2351
  416MOL0     H54891   4.688  10.453   4.060 -0.2309  3.0999  2.0719
  416MOL0     H54892   4.625  10.302   4.243 -0.4250 -4.0126  0.7311
  416MOL0     H54893   4.800  10.261   4.262  0.5772 -0.0973 -0.9345
  416MOL0     H54894   5.644  10.385   3.860 -1.8226 -0.7308  3.3227
  416MOL0     H54895   5.862  10.432   3.790 -0.6008 -3.1722  1.9543
  416MOL0     H54896   6.272  10.628   3.542 -2.8806  0.0340  0.3226
  416MOL0     H54897   6.462  10.735   3.531 -0.1622 -2.9663  0.8137
  416MOL0     H54898   7.328  10.698   4.173 -2.3739 -0.1641 -0.4825
  416MOL0     H54899   7.176  10.634   4.357  2.0867  3.4571  0.9793
  416MOL0     H54900   6.995  10.282   4.601  0.5169  0.0104 -0.4397
  416MOL0     H54901   6.876  10.123   4.746  0.3629  1.4071 -1.7698
  416MOL0     H54902   6.772  10.084   4.926  0.6610  0.2561 -0.6123
  416MOL0     H54903   6.781  10.005   5.076 -1.3646  0.1556  0.4679
  416MOL0     H54904   6.715   9.876   4.869 -0.1810  1.6488  1.2434
  416MOL0     H54905   6.889   9.872   4.818  1.3363  1.2284  0.3690
  416MOL0     H54906   6.785   9.762   5.089 -2.7005 -4.2028 -0.7570
  416MOL0     H54907   6.952   9.745   5.029 -0.3840 -0.0716  1.7076
  416MOL0     H54908   6.707   9.626   4.892  0.3673  1.9815 -1.9648
  416MOL0     H54909   6.863   9.625   4.828 -0.0049 -2.6477 -0.2962
  416MOL0     H54910   6.922   9.320   5.105  1.3679  0.6611 -0.0477
  416MOL0     H54911   7.214  10.142   5.017 -0.0696 -2.2643 -0.4554
  416MOL0     H54912   7.337  10.261   4.862  0.1525  1.2798  0.1083
  417MOL0     O54913   1.285   1.918   5.051 -0.0719 -0.4180 -0.2086
  417MOL0     C54914   1.208   1.826   5.055  0.0262 -0.4852  0.3901
  417MOL0     O54915   1.080   1.827   5.003  0.1934  1.1164  0.1685
  417MOL0     C54916   1.026   1.942   4.958 -0.1920 -0.2209 -0.3137
  417MOL0     C54917   1.097   2.029   4.879 -0.7947  0.6270  0.4294
  417MOL0     C54918   1.043   2.149   4.833  0.4430  0.0967  0.6060
  417MOL0     C54919   0.920   2.184   4.879 -0.0779 -0.2554 -0.0711
  417MOL0     O54920   0.885   2.310   4.830 -0.1133 -0.8272  0.6834
  417MOL0     C54921   0.766   2.375   4.883 -0.1177  0.4050  0.4194
  417MOL0     C54922   0.728   2.496   4.793  0.3118  0.3859 -0.3075
  417MOL0     C54923   0.612   2.573   4.861  0.2700  0.1918 -0.6515
  417MOL0     C54924   0.582   2.707   4.794 -0.1069  0.7514 -0.3739
  417MOL0     C54925   0.463   2.764   4.862  0.1133 -0.2930  0.1924
  417MOL0     C54926   0.471   2.807   5.010 -0.9715 -0.3776  0.4206
  417MOL0     C54927   0.358   2.907   5.033  0.4622 -0.5412  0.8528
  417MOL0     C54928   0.358   2.967   5.173 -0.1136 -0.4616  0.1324
  417MOL0     N54929   0.227   3.043   5.191 -0.8922 -0.1462 -0.3060
  417MOL0     C54930   0.093   2.993   5.183  0.7290  0.4669 -0.3273
  417MOL0     C54931   0.019   3.108   5.186 -0.7626  0.5674 -0.5394
  417MOL0     C54932  -0.121   3.112   5.155  0.6215 -0.5413  0.0423
  417MOL0     C54933  -0.150   3.162   5.015 -0.1959  0.9915 -0.0823
  417MOL0     C54934  -0.110   3.306   4.986 -0.3383 -0.3417  0.6579
  417MOL0     C54935  -0.105   3.322   4.836  0.4756  0.6633 -0.5003
  417MOL0     O54936  -0.108   3.463   4.811 -0.2792 -0.8942 -0.1023
  417MOL0     C54937  -0.221   3.521   4.759 -0.6347  0.7073  0.4615
  417MOL0     C54938  -0.212   3.652   4.704 -0.8813 -0.0475  0.3248
  417MOL0     C54939  -0.319   3.725   4.649 -0.0591  0.8469  0.2636
  417MOL0     C54940  -0.448   3.674   4.652  0.2212 -0.0875  0.3256
  417MOL0     C54941  -0.561   3.750   4.597 -0.4800 -0.2875  0.7861
  417MOL0     O54942  -0.680   3.683   4.582  0.0663 -0.8712  0.2104
  417MOL0     C54943  -0.791   3.741   4.531  0.5409  0.9567 -0.3736
  417MOL0     C54944  -0.784   3.832   4.424 -0.1309  0.4366 -0.5682
  417MOL0     C54945  -0.893   3.880   4.354 -0.2739  0.0252  0.4793
  417MOL0     C54946  -1.022   3.837   4.394  0.5646  0.0509 -0.0420
  417MOL0     O54947  -1.132   3.899   4.339  0.3554 -0.1983  0.8911
  417MOL0     C54948  -1.157   3.851   4.197  0.5790  0.3720 -0.0093
  417MOL0     C54949  -1.216   3.707   4.206 -0.1196 -1.2678  0.3140
  417MOL0     C54950  -1.363   3.712   4.226  0.0233  0.6482  1.2632
  417MOL0     C54951  -1.414   3.563   4.234  0.8961 -0.0667 -0.6220
  417MOL0     C54952  -1.555   3.564   4.183  1.4193  0.4568  0.4125
  417MOL0     C54953  -1.620   3.422   4.171 -0.3560 -0.1264 -0.6287
  417MOL0     C54954  -1.772   3.432   4.147  0.4759  0.7932  0.8410
  417MOL0     C54955  -1.827   3.303   4.092  0.0223  0.9358  0.0629
  417MOL0    Cl54956  -1.788   3.304   3.920 -0.5665 -0.3748 -0.3539
  417MOL0     C54957  -1.035   3.746   4.503  0.0188 -0.2678 -0.7805
  417MOL0     C54958  -0.917   3.693   4.561  0.2658 -1.0068  0.0047
  417MOL0     O54959  -0.542   3.871   4.569  0.1953 -0.2708 -0.0461
  417MOL0     C54960  -0.466   3.535   4.701  0.1355 -1.0278  0.4397
  417MOL0     C54961  -0.351   3.458   4.745  0.8765 -0.4600  0.6642
  417MOL0     N54962   0.096   3.210   5.224 -0.1684 -0.4383  0.6954
  417MOL0     N54963   0.211   3.171   5.236 -0.4410  0.2042  0.3270
  417MOL0     C54964   0.840   2.092   4.954  0.0996 -0.1576  0.6311
  417MOL0     C54965   0.896   1.969   4.990  0.5093 -0.5238  0.6753
  417MOL0     C54966   1.251   1.717   5.136 -0.1887  0.4325 -1.0419
  417MOL0     C54967   1.366   1.711   5.218  0.1205 -0.5766  1.0425
  417MOL0     C54968   1.406   1.601   5.293  0.6283  0.7132 -0.2893
  417MOL0     C54969   1.323   1.489   5.294 -0.1694  0.0728 -0.5290
  417MOL0     O54970   1.372   1.377   5.367  0.1519 -0.6218  0.4455
  417MOL0     C54971   1.299   1.253   5.373  0.1517  0.2344  0.3562
  417MOL0     C54972   1.333   1.165   5.495 -0.5018  0.1316 -0.2585
  417MOL0     C54973   1.266   1.033   5.500 -0.6849 -0.3721  0.5009
  417MOL0     C54974   1.299   0.923   5.393  0.2780 -0.3143  0.4639
  417MOL0     C54975   1.243   0.791   5.427  0.4252 -0.4066  0.5683
  417MOL0     C54976   1.197   0.687   5.470  0.4662  0.6723 -0.2501
  417MOL0     C54977   1.208   1.489   5.219 -0.8951  0.3084 -0.2243
  417MOL0     C54978   1.171   1.603   5.149 -0.3404 -0.2643  0.8344
  417MOL0     H54979   1.193   2.003   4.837 -1.0656  0.1137  0.1119
  417MOL0     H54980   1.085   2.217   4.760  1.6816 -2.6523 -1.4423
  417MOL0     H54981   0.788   2.399   4.987  2.6156  1.1425 -0.2654
  417MOL0     H54982   0.685   2.302   4.882  0.0592  0.1662 -1.9214
  417MOL0     H54983   0.689   2.472   4.693  1.3520  3.0493 -1.4526
  417MOL0     H54984   0.818   2.552   4.765  2.1638 -1.8377  0.8070
  417MOL0     H54985   0.638   2.594   4.965 -2.7143  2.8173 -0.2967
  417MOL0     H54986   0.520   2.515   4.849  0.9642 -0.7684 -1.4609
  417MOL0     H54987   0.665   2.776   4.804  0.8209  0.0878 -2.8062
  417MOL0     H54988   0.557   2.690   4.688  2.8238  0.5400 -1.0961
  417MOL0     H54989   0.383   2.690   4.857 -1.0407  0.7999  1.6769
  417MOL0     H54990   0.442   2.852   4.800 -0.9692 -0.0409  0.8992
  417MOL0     H54991   0.569   2.855   5.013 -0.4999 -1.3039  0.1852
  417MOL0     H54992   0.451   2.733   5.087 -1.9747  1.7675  2.3499
  417MOL0     H54993   0.366   2.986   4.958 -0.4103 -1.5754 -0.3587
  417MOL0     H54994   0.264   2.855   5.015  0.0420 -0.1309  1.8088
  417MOL0     H54995   0.444   3.035   5.176  1.4817 -2.4158  0.9106
  417MOL0     H54996   0.365   2.891   5.252 -0.1535 -0.7916 -0.1800
  417MOL0     H54997   0.074   2.891   5.152  2.1947 -0.9673  2.9673
  417MOL0     H54998  -0.171   3.178   5.227  2.3021 -0.7935  1.5125
  417MOL0     H54999  -0.165   3.012   5.167 -2.2953  0.2256 -2.8470
  417MOL0     H55000  -0.257   3.150   4.997 -0.9597  1.3274  3.5850
  417MOL0     H55001  -0.092   3.099   4.947  0.4337  2.2871 -0.7931
  417MOL0     H55002  -0.193   3.364   5.027 -0.5145 -0.8361  1.0053
  417MOL0     H55003  -0.023   3.352   5.035 -2.6294  1.3645  3.4100
  417MOL0     H55004  -0.175   3.260   4.780 -2.6621  3.6370 -0.1742
  417MOL0     H55005  -0.005   3.281   4.814 -0.7390 -0.8536 -3.8383
  417MOL0     H55006  -0.115   3.697   4.686 -1.7919  1.1946 -1.9436
  417MOL0     H55007  -0.293   3.829   4.633  2.0621  0.1221 -1.3790
  417MOL0     H55008  -0.687   3.856   4.381  0.1621  0.0347 -0.1424
  417MOL0     H55009  -0.882   3.957   4.278  0.8469  1.8602  2.3886
  417MOL0     H55010  -1.066   3.844   4.137 -0.5211  1.7874 -1.9463
  417MOL0     H55011  -1.239   3.908   4.153 -1.7719 -0.1577  3.3017
  417MOL0     H55012  -1.172   3.651   4.289 -1.0705 -0.8559  1.1214
  417MOL0     H55013  -1.193   3.661   4.110 -2.1217  1.1601 -1.4436
  417MOL0     H55014  -1.412   3.755   4.138  0.5074 -4.8494 -2.1162
  417MOL0     H55015  -1.391   3.772   4.314  1.3341 -0.8079  2.7265
  417MOL0     H55016  -1.354   3.495   4.173 -0.7596 -1.5611 -0.6690
  417MOL0     H55017  -1.415   3.529   4.338  1.3586 -0.7599 -0.8407
  417MOL0     H55018  -1.557   3.599   4.079 -0.6829 -1.7027 -0.3867
  417MOL0     H55019  -1.627   3.627   4.237  1.4058 -0.0612  1.0141
  417MOL0     H55020  -1.604   3.367   4.264  1.0993  3.2445  1.3119
  417MOL0     H55021  -1.561   3.368   4.095  3.0961 -0.5640  2.1108
  417MOL0     H55022  -1.827   3.457   4.238 -3.3055 -1.7978 -0.4967
  417MOL0     H55023  -1.796   3.515   4.080  1.4358 -1.2580 -2.2888
  417MOL0     H55024  -1.936   3.299   4.090 -0.0044  1.6630 -0.8862
  417MOL0     H55025  -1.781   3.217   4.142  0.5746  0.7124 -0.8075
  417MOL0     H55026  -1.136   3.712   4.521  0.4173 -0.1446  2.1784
  417MOL0     H55027  -0.919   3.615   4.636 -1.2171 -0.7341  0.2940
  417MOL0     H55028  -0.557   3.477   4.691  0.1001 -1.3042  2.1574
  417MOL0     H55029  -0.377   3.359   4.783 -0.8059  0.3972  1.8679
  417MOL0     H55030   0.738   2.101   4.989 -0.0448  0.7626 -0.0267
  417MOL0     H55031   0.833   1.895   5.039 -0.8816  0.0860 -0.1362
  417MOL0     H55032   1.423   1.803   5.228 -3.0213  1.5443  0.9257
  417MOL0     H55033   1.496   1.615   5.354  0.1611 -0.3553  0.6756
  417MOL0     H55034   1.316   1.200   5.279  1.0752  1.5825 -0.2741
  417MOL0     H55035   1.192   1.269   5.388  0.3209  1.9796 -0.0590
  417MOL0     H55036   1.439   1.145   5.481  0.3184  2.7616  1.3147
  417MOL0     H55037   1.331   1.218   5.591 -0.1163 -2.0068  1.0024
  417MOL0     H55038   1.161   1.059   5.508 -0.4022  0.3224  2.2592
  417MOL0     H55039   1.301   0.997   5.597 -1.2232  1.6107  1.4768
  417MOL0     H55040   1.259   0.961   5.298 -0.8357 -1.1091  0.5917
  417MOL0     H55041   1.407   0.913   5.381  0.5558  1.8091  0.7103
  417MOL0     H55042   1.166   0.594   5.514  0.9860  1.3213  1.5830
  417MOL0     H55043   1.141   1.404   5.218 -0.8044  0.2245  0.2996
  417MOL0     H55044   1.072   1.595   5.106  0.5395  1.2505 -1.6869
  418MOL0     O55045   1.834   2.477   2.142  1.0172  0.1023 -0.2843
  418MOL0     C55046   1.871   2.542   2.243 -0.2060  0.6089 -0.0076
  418MOL0     O55047   1.794   2.576   2.343  0.6139  0.4580 -0.1096
  418MOL0     C55048   1.669   2.521   2.344  0.5445  0.3858  0.2230
  418MOL0     C55049   1.643   2.393   2.396 -1.7756 -0.1841  0.9281
  418MOL0     C55050   1.505   2.361   2.398 -0.8864  0.5178  0.2025
  418MOL0     C55051   1.398   2.442   2.348  0.9927 -0.7053 -1.2052
  418MOL0     O55052   1.274   2.388   2.333 -0.2651  0.5511  0.7057
  418MOL0     C55053   1.193   2.424   2.219 -0.2102 -0.6764 -0.9151
  418MOL0     C55054   1.105   2.548   2.235  0.2124 -0.0853  0.3684
  418MOL0     C55055   0.962   2.521   2.291 -0.0918  0.3834 -0.1810
  418MOL0     C55056   0.864   2.634   2.289  0.0441 -1.1362 -0.0586
  418MOL0     C55057   0.724   2.590   2.328  0.8111 -0.1606 -0.6244
  418MOL0     C55058   0.620   2.704   2.331 -0.1122  0.5160 -0.2658
  418MOL0     C55059   0.618   2.783   2.469 -0.0965 -0.2024  0.9433
  418MOL0     C55060   0.569   2.926   2.452  0.5716 -0.2785  1.4407
  418MOL0     N55061   0.427   2.921   2.443 -0.0460  0.4784 -0.0899
  418MOL0     C55062   0.335   2.908   2.538 -0.2009  1.2147  0.8530
  418MOL0     C55063   0.217   2.907   2.467 -0.3525 -0.6974 -1.1408
  418MOL0     C55064   0.087   2.854   2.531  0.0682  0.0830  0.3054
  418MOL0     C55065  -0.036   2.932   2.479  1.0732 -0.2711  0.1562
  418MOL0     C55066  -0.162   2.871   2.530 -0.1153 -0.3784 -0.4727
  418MOL0     C55067  -0.284   2.941   2.507  0.2839 -0.3760  0.7498
  418MOL0     O55068  -0.278   3.001   2.375  0.9343  0.5712 -0.2016
  418MOL0     C55069  -0.381   3.079   2.333  0.0953  0.2647  0.3612
  418MOL0     C55070  -0.478   3.128   2.404 -0.4905  0.2578  0.2240
  418MOL0     C55071  -0.590   3.196   2.357  0.2223 -0.7325 -0.2362
  418MOL0     C55072  -0.607   3.207   2.212  0.0720 -0.8810  0.3747
  418MOL0     C55073  -0.726   3.282   2.155  0.1863 -0.3696 -0.3532
  418MOL0     O55074  -0.744   3.262   2.015  0.4252 -0.1194 -0.3979
  418MOL0     C55075  -0.861   3.291   1.950 -0.9558  0.3358  0.2908
  418MOL0     C55076  -0.984   3.261   2.006  0.2183 -0.2817 -0.0921
  418MOL0     C55077  -1.103   3.287   1.934  0.5839  0.7255 -0.0040
  418MOL0     C55078  -1.095   3.350   1.803 -0.4779 -0.7202 -0.1223
  418MOL0     O55079  -1.205   3.379   1.723  0.0908  0.2412 -0.6175
  418MOL0     C55080  -1.338   3.383   1.774  0.0475  0.9604 -0.9697
  418MOL0     C55081  -1.434   3.388   1.671 -0.0708 -0.3802  0.8208
  418MOL0     C55082  -1.585   3.394   1.698 -0.7432  0.7648 -0.2930
  418MOL0     C55083  -1.662   3.368   1.571  0.2617 -0.9935  0.4163
  418MOL0     C55084  -1.814   3.347   1.619  0.2756 -0.6358  0.1243
  418MOL0     C55085  -1.914   3.336   1.504  0.1060  0.2378 -0.1908
  418MOL0     C55086  -2.050   3.355   1.566 -0.1459 -0.4321 -0.7359
  418MOL0     C55087  -2.147   3.267   1.508  0.3060  0.6018 -0.1431
  418MOL0    Cl55088  -2.149   3.295   1.330 -0.5409 -0.0492 -0.0122
  418MOL0     C55089  -0.962   3.375   1.748  0.1714  0.7493 -0.7120
  418MOL0     C55090  -0.847   3.343   1.825  0.7192  0.3065  0.3908
  418MOL0     O55091  -0.802   3.340   2.229 -0.1697  0.1984 -0.5071
  418MOL0     C55092  -0.505   3.152   2.136  0.1520  0.0209  0.6719
  418MOL0     C55093  -0.398   3.088   2.194  0.5218  0.2488  0.0546
  418MOL0     N55094   0.241   2.932   2.334 -0.2669 -0.2831  0.3245
  418MOL0     N55095   0.373   2.935   2.325 -0.3120  0.1746 -0.3214
  418MOL0     C55096   1.435   2.574   2.323  0.7749  0.6590  0.2749
  418MOL0     C55097   1.567   2.614   2.323  0.0714  0.1138  1.0838
  418MOL0     C55098   2.010   2.586   2.242 -0.4156 -0.0969  0.2716
  418MOL0     C55099   2.020   2.718   2.288 -0.4616  0.5411 -0.4398
  418MOL0     C55100   2.141   2.786   2.266  0.3496 -0.7137  0.3515
  418MOL0     C55101   2.249   2.737   2.204 -0.4738  0.5782  0.4952
  418MOL0     O55102   2.364   2.814   2.199 -0.0603 -0.1179  0.1087
  418MOL0     C55103   2.475   2.760   2.132  0.3008 -0.5465  0.0346
  418MOL0     C55104   2.591   2.865   2.134  0.2053 -0.6642 -0.6134
  418MOL0     C55105   2.554   2.996   2.068  0.6944 -0.2343  0.3719
  418MOL0     C55106   2.663   3.096   2.044 -0.4704  0.2212 -0.8669
  418MOL0     C55107   2.733   3.133   2.167 -0.4474 -0.3348 -0.3356
  418MOL0     C55108   2.794   3.166   2.267  0.1082  0.0605  0.1921
  418MOL0     C55109   2.230   2.616   2.141  0.3690  0.2741  0.8271
  418MOL0     C55110   2.113   2.538   2.159  0.0547 -0.6085 -0.6864
  418MOL0     H55111   1.730   2.336   2.427  0.2966  0.3445 -3.2182
  418MOL0     H55112   1.484   2.259   2.428  0.1151 -0.0624 -0.9534
  418MOL0     H55113   1.123   2.343   2.200 -2.7991  1.5568 -1.5738
  418MOL0     H55114   1.249   2.445   2.127 -2.7498  1.4519 -2.1166
  418MOL0     H55115   1.087   2.589   2.136 -0.7851 -0.8087  0.2381
  418MOL0     H55116   1.146   2.621   2.306 -0.9040  0.8094  0.1221
  418MOL0     H55117   0.958   2.477   2.392 -2.5353  0.8142 -0.0259
  418MOL0     H55118   0.921   2.438   2.233 -0.2578  0.7059 -0.5301
  418MOL0     H55119   0.889   2.713   2.361 -1.0373 -0.8309 -0.0019
  418MOL0     H55120   0.865   2.682   2.191  2.1158  1.9812  1.3075
  418MOL0     H55121   0.716   2.524   2.415  1.4282 -0.0128 -0.4552
  418MOL0     H55122   0.680   2.530   2.246  1.0170 -3.9214  1.7563
  418MOL0     H55123   0.525   2.653   2.312  0.9719 -1.1398 -1.6033
  418MOL0     H55124   0.653   2.766   2.247  0.7239  0.4570  0.0157
  418MOL0     H55125   0.559   2.730   2.544  1.4978 -1.4130  1.3922
  418MOL0     H55126   0.716   2.786   2.517 -1.1230 -1.3519  3.2619
  418MOL0     H55127   0.606   2.962   2.355 -2.6418 -1.2147 -0.2942
  418MOL0     H55128   0.599   2.990   2.535  2.0137  1.0104  0.0113
  418MOL0     H55129   0.355   2.887   2.643  0.5314  2.8307  1.0770
  418MOL0     H55130   0.083   2.868   2.640 -1.3805  0.3964  0.2397
  418MOL0     H55131   0.069   2.747   2.519  0.2436 -0.1840  2.1269
  418MOL0     H55132  -0.042   2.935   2.369  1.1742 -0.3042  0.1500
  418MOL0     H55133  -0.035   3.039   2.503 -1.9779  0.4997 -2.4019
  418MOL0     H55134  -0.170   2.772   2.483  0.4942 -0.9407  0.5671
  418MOL0     H55135  -0.163   2.858   2.638 -2.0807 -1.5590 -0.5824
  418MOL0     H55136  -0.295   3.019   2.583 -2.1184 -0.6191  0.7228
  418MOL0     H55137  -0.371   2.875   2.512 -0.8304  0.9140 -0.5158
  418MOL0     H55138  -0.473   3.115   2.511  1.4263  1.3941  0.3243
  418MOL0     H55139  -0.664   3.227   2.430  1.2828 -1.1422  1.0672
  418MOL0     H55140  -1.002   3.220   2.105 -0.7086  0.7440  0.1908
  418MOL0     H55141  -1.199   3.269   1.980 -2.1528 -0.0221 -5.2253
  418MOL0     H55142  -1.343   3.464   1.847 -2.0816 -0.2032  0.2499
  418MOL0     H55143  -1.346   3.287   1.826 -3.8704  2.1801  1.0956
  418MOL0     H55144  -1.412   3.305   1.602 -1.5601 -0.9418  0.9774
  418MOL0     H55145  -1.413   3.477   1.611 -1.0737 -0.3154  0.5463
  418MOL0     H55146  -1.608   3.492   1.740  0.0868 -0.3116  2.9582
  418MOL0     H55147  -1.609   3.316   1.772  0.6139  0.2984 -0.3103
  418MOL0     H55148  -1.645   3.451   1.502  3.6494 -0.3918  1.7943
  418MOL0     H55149  -1.630   3.272   1.530 -1.3071 -1.3179 -0.1423
  418MOL0     H55150  -1.836   3.439   1.675 -0.7947  0.0179 -1.2923
  418MOL0     H55151  -1.825   3.258   1.681 -0.1797 -1.2074 -0.7432
  418MOL0     H55152  -1.907   3.239   1.454 -1.5783  0.0215 -0.0531
  418MOL0     H55153  -1.897   3.418   1.433  1.1959 -0.7530 -1.1107
  418MOL0     H55154  -2.049   3.322   1.670  2.3737 -0.2886 -0.6610
  418MOL0     H55155  -2.085   3.458   1.565  1.3283  0.1124  0.2949
  418MOL0     H55156  -2.244   3.285   1.555 -0.1155 -0.2463 -0.6621
  418MOL0     H55157  -2.127   3.160   1.520 -0.5451 -0.0320 -3.4726
  418MOL0     H55158  -0.950   3.432   1.657 -1.6653  1.1625 -0.7352
  418MOL0     H55159  -0.749   3.346   1.779  1.0458 -0.3872  1.0350
  418MOL0     H55160  -0.510   3.181   2.032  0.1763  4.5684  1.7576
  418MOL0     H55161  -0.315   3.054   2.133  1.2831  0.7238  0.8069
  418MOL0     H55162   1.361   2.650   2.299  0.4880  0.8700  1.7469
  418MOL0     H55163   1.594   2.718   2.309  0.0607  0.1472  1.3072
  418MOL0     H55164   1.938   2.763   2.344 -0.3622  0.5265 -0.2814
  418MOL0     H55165   2.148   2.885   2.311 -0.6066 -1.0789  1.3239
  418MOL0     H55166   2.449   2.737   2.029  0.7040  1.1676 -0.4731
  418MOL0     H55167   2.515   2.667   2.174  1.4958  0.2334  0.6746
  418MOL0     H55168   2.618   2.889   2.238 -0.3367 -0.1295 -0.5900
  418MOL0     H55169   2.679   2.818   2.088  0.0711 -1.5472 -0.0018
  418MOL0     H55170   2.484   3.054   2.129  1.0222 -1.6492  2.1789
  418MOL0     H55171   2.503   2.976   1.973  0.6687  0.4856  0.2270
  418MOL0     H55172   2.734   3.048   1.976  1.0100 -0.2503  0.9355
  418MOL0     H55173   2.614   3.189   2.014  0.5057  1.2619  0.6490
  418MOL0     H55174   2.860   3.187   2.349  1.1176  1.6304 -0.9707
  418MOL0     H55175   2.305   2.567   2.080  0.5899 -0.9699  2.0380
  418MOL0     H55176   2.100   2.443   2.107 -1.2608 -2.1246  2.1647
  419MOL0     O55177   3.245   4.760   2.217 -0.5240 -0.5506  1.2853
  419MOL0     C55178   3.307   4.659   2.214 -0.7805 -0.0352 -0.2370
  419MOL0     O55179   3.256   4.533   2.222 -0.0631  0.1913  0.0468
  419MOL0     C55180   3.119   4.521   2.207 -0.0034  0.5037 -0.2631
  419MOL0     C55181   3.043   4.505   2.322  0.0846  0.4105 -0.3732
  419MOL0     C55182   2.902   4.468   2.329 -0.0118  0.3454  0.0316
  419MOL0     C55183   2.837   4.446   2.206  0.9277  0.2059  0.8385
  419MOL0     O55184   2.705   4.423   2.181  0.0683  0.5676  0.3278
  419MOL0     C55185   2.611   4.472   2.279 -1.2243 -0.1790 -0.1861
  419MOL0     C55186   2.472   4.425   2.249 -0.3959 -0.5609  0.7143
  419MOL0     C55187   2.361   4.526   2.276  0.0864 -0.1073  0.2524
  419MOL0     C55188   2.220   4.456   2.279  0.1774 -0.6987  0.3909
  419MOL0     C55189   2.107   4.555   2.303  0.2126  0.1809 -0.3066
  419MOL0     C55190   1.974   4.484   2.308 -0.5237  0.0130 -0.0842
  419MOL0     C55191   1.882   4.595   2.325  1.0922 -0.0419  0.2454
  419MOL0     C55192   1.743   4.537   2.354  0.3517  0.3474  0.6416
  419MOL0     N55193   1.631   4.628   2.354 -1.0071 -0.4043  0.2029
  419MOL0     C55194   1.613   4.731   2.272  0.2597 -0.3109  0.8085
  419MOL0     C55195   1.504   4.794   2.314  0.0963  0.3506  0.4980
  419MOL0     C55196   1.444   4.928   2.273 -0.5668  0.0790 -0.6094
  419MOL0     C55197   1.467   5.030   2.387  0.1606 -0.6925 -1.2644
  419MOL0     C55198   1.425   5.175   2.351 -0.2689 -0.6880 -0.2152
  419MOL0     C55199   1.280   5.213   2.380  0.7784  0.3195  0.7885
  419MOL0     O55200   1.192   5.158   2.283 -0.4585 -0.6111  0.1353
  419MOL0     C55201   1.060   5.202   2.284 -0.3956  0.0153  0.4090
  419MOL0     C55202   0.981   5.133   2.188 -0.6343 -0.9955 -0.4909
  419MOL0     C55203   0.844   5.163   2.170  0.6199  0.7143  0.4749
  419MOL0     C55204   0.779   5.253   2.260  0.6291  0.4016  0.0604
  419MOL0     C55205   0.636   5.292   2.234  0.2599 -0.3778 -0.5051
  419MOL0     O55206   0.559   5.213   2.155  0.3302  0.0766  0.0063
  419MOL0     C55207   0.433   5.244   2.119  0.0874  0.0070 -1.1834
  419MOL0     C55208   0.324   5.231   2.210 -0.2054  0.3370 -0.6942
  419MOL0     C55209   0.194   5.233   2.168  1.1095  0.5231 -0.0091
  419MOL0     C55210   0.166   5.280   2.036 -0.1598 -0.1604 -0.3348
  419MOL0     O55211   0.039   5.317   1.993 -0.0326 -0.3504 -0.0979
  419MOL0     C55212   0.006   5.454   2.021  0.0114  0.1515  0.3231
  419MOL0     C55213  -0.074   5.471   2.154  0.3138 -0.2011 -0.1811
  419MOL0     C55214  -0.185   5.363   2.158  0.3041  0.0080  0.1972
  419MOL0     C55215  -0.262   5.363   2.289 -0.7650 -0.4875 -0.1939
  419MOL0     C55216  -0.343   5.485   2.323  0.0415 -0.1501 -1.0090
  419MOL0     C55217  -0.440   5.456   2.446 -0.1072  0.0585 -0.3278
  419MOL0     C55218  -0.492   5.584   2.522 -0.1241 -0.1279  0.1593
  419MOL0     C55219  -0.594   5.658   2.431  0.3115  0.7407 -0.0937
  419MOL0    Cl55220  -0.551   5.730   2.273  0.1034 -0.1874  0.3570
  419MOL0     C55221   0.276   5.314   1.952 -0.3712  0.3263  1.1075
  419MOL0     C55222   0.405   5.283   1.994  0.9057  0.4676  0.1670
  419MOL0     O55223   0.590   5.383   2.306 -0.2365  0.6533 -0.9984
  419MOL0     C55224   0.856   5.323   2.356  0.0507  0.3244  0.2691
  419MOL0     C55225   0.996   5.293   2.366  0.1043  0.6135 -0.2631
  419MOL0     N55226   1.464   4.731   2.430 -0.1390 -0.0043 -0.7108
  419MOL0     N55227   1.542   4.635   2.457 -0.4202  0.0247 -0.0913
  419MOL0     C55228   2.918   4.460   2.091  0.2302  0.5435 -0.2560
  419MOL0     C55229   3.054   4.495   2.088 -0.1816 -0.2880 -0.5034
  419MOL0     C55230   3.452   4.667   2.192 -0.1959  0.0300 -0.4126
  419MOL0     C55231   3.517   4.786   2.146  0.5279 -0.4821  0.5175
  419MOL0     C55232   3.657   4.790   2.134  0.0628 -0.2432  0.0456
  419MOL0     C55233   3.733   4.679   2.173  0.1525  0.1264  0.8634
  419MOL0     O55234   3.872   4.687   2.156 -0.1621 -0.8466  0.6885
  419MOL0     C55235   3.953   4.582   2.208  0.8473  0.2886 -0.2788
  419MOL0     C55236   4.084   4.588   2.130  0.7163  0.4438  0.0721
  419MOL0     C55237   4.062   4.613   1.978 -0.3152 -0.2015 -0.4024
  419MOL0     C55238   3.953   4.519   1.915  0.6610  0.0521  0.1174
  419MOL0     C55239   3.965   4.375   1.946 -0.0109  0.4914 -0.0212
  419MOL0     C55240   3.984   4.268   1.994 -0.3754 -0.0153 -1.5139
  419MOL0     C55241   3.665   4.566   2.216  0.7014  0.2601  0.7346
  419MOL0     C55242   3.531   4.558   2.224  1.8399  0.4226  0.6456
  419MOL0     H55243   3.100   4.541   2.407  2.0205  1.6344 -2.0934
  419MOL0     H55244   2.859   4.459   2.428 -0.6068 -0.1818 -0.2711
  419MOL0     H55245   2.616   4.581   2.281 -2.1050 -0.1421  1.2477
  419MOL0     H55246   2.652   4.439   2.375 -3.3643  0.5189  1.0373
  419MOL0     H55247   2.471   4.339   2.317  2.5854  1.6680  3.8825
  419MOL0     H55248   2.463   4.395   2.144  3.6394  1.1639 -0.3092
  419MOL0     H55249   2.358   4.604   2.200  0.5753 -2.6159 -2.5344
  419MOL0     H55250   2.383   4.574   2.372 -3.2051  1.9070  0.1724
  419MOL0     H55251   2.202   4.402   2.185 -0.3914 -2.8512  1.6664
  419MOL0     H55252   2.207   4.382   2.359  0.5706 -2.1570 -0.8379
  419MOL0     H55253   2.114   4.627   2.220  0.6850 -2.2001 -2.4877
  419MOL0     H55254   2.133   4.594   2.401 -1.9015  0.9710 -0.0184
  419MOL0     H55255   1.968   4.417   2.395 -2.1153 -3.2819 -2.5120
  419MOL0     H55256   1.957   4.425   2.218  1.4952 -1.0029  0.1350
  419MOL0     H55257   1.911   4.664   2.404  1.3713  0.9462 -0.7020
  419MOL0     H55258   1.876   4.649   2.230 -1.5031 -0.7178 -0.0385
  419MOL0     H55259   1.734   4.487   2.451 -2.0320  0.3808  0.5030
  419MOL0     H55260   1.716   4.465   2.277 -0.7298  1.2097  0.1923
  419MOL0     H55261   1.674   4.758   2.186  0.1611 -3.4791 -0.3494
  419MOL0     H55262   1.338   4.915   2.253 -0.1633 -0.3892 -2.6528
  419MOL0     H55263   1.494   4.960   2.181 -2.6321  1.7688 -1.2155
  419MOL0     H55264   1.573   5.025   2.413 -0.2471 -1.5820  0.4027
  419MOL0     H55265   1.422   5.004   2.483  1.1956  2.0897  0.1000
  419MOL0     H55266   1.483   5.254   2.401 -0.9392 -0.2326 -0.1436
  419MOL0     H55267   1.434   5.184   2.243 -3.4635  0.1154 -0.5205
  419MOL0     H55268   1.284   5.322   2.374 -0.5870  0.4241  1.4201
  419MOL0     H55269   1.254   5.178   2.480  0.1823  1.0099  0.8831
  419MOL0     H55270   1.022   5.056   2.122  0.2194 -0.4699 -0.5861
  419MOL0     H55271   0.794   5.109   2.090 -0.4054  0.0332  1.5428
  419MOL0     H55272   0.338   5.206   2.314 -3.4392 -0.8568 -0.4436
  419MOL0     H55273   0.110   5.216   2.234  0.8720  2.2795  0.2066
  419MOL0     H55274  -0.057   5.492   1.940  2.5761  2.0328 -0.9484
  419MOL0     H55275   0.085   5.528   2.034 -1.9207  2.1098  1.7114
  419MOL0     H55276  -0.103   5.576   2.170 -0.5701 -0.5212  0.3860
  419MOL0     H55277  -0.005   5.450   2.236  1.8823  1.6895 -0.9368
  419MOL0     H55278  -0.140   5.265   2.145  0.3159  0.1666 -1.0044
  419MOL0     H55279  -0.263   5.375   2.082  0.0428  0.5016  0.5384
  419MOL0     H55280  -0.330   5.278   2.278  2.2541 -2.8859 -2.5882
  419MOL0     H55281  -0.183   5.349   2.363 -1.1067  1.0919  0.5024
  419MOL0     H55282  -0.406   5.522   2.241 -3.3653 -3.0932 -0.0095
  419MOL0     H55283  -0.280   5.563   2.366 -0.8381 -1.2744  2.7086
  419MOL0     H55284  -0.385   5.390   2.514  1.4729 -0.6871 -2.2118
  419MOL0     H55285  -0.525   5.407   2.398  0.4830  0.7947 -2.2246
  419MOL0     H55286  -0.525   5.569   2.625  0.8426 -0.1061  0.4865
  419MOL0     H55287  -0.412   5.658   2.535 -0.3038  0.0615  0.1971
  419MOL0     H55288  -0.655   5.725   2.494  1.2585  0.2968  1.3440
  419MOL0     H55289  -0.668   5.581   2.407  0.1678  0.7665  0.2626
  419MOL0     H55290   0.260   5.362   1.856  1.3502  2.3530  1.7630
  419MOL0     H55291   0.492   5.297   1.931  1.6204  0.7679  1.1931
  419MOL0     H55292   0.814   5.394   2.427  2.5879  0.8522  1.3332
  419MOL0     H55293   1.067   5.341   2.433 -0.6117  1.2714  0.0359
  419MOL0     H55294   2.871   4.464   1.994  0.6460 -0.4236 -0.5136
  419MOL0     H55295   3.118   4.502   2.001  1.0633  4.2317  0.4710
  419MOL0     H55296   3.447   4.861   2.110 -3.0572 -3.0941  1.4032
  419MOL0     H55297   3.679   4.877   2.072 -1.2587 -0.5904 -0.9604
  419MOL0     H55298   3.917   4.479   2.195  1.9164 -0.0647 -0.5776
  419MOL0     H55299   3.970   4.589   2.315  0.6839 -0.8034 -0.1721
  419MOL0     H55300   4.149   4.664   2.174  0.6192 -0.0179  1.0321
  419MOL0     H55301   4.138   4.494   2.143  0.3129  0.0839 -0.7544
  419MOL0     H55302   4.151   4.604   1.916 -0.5048  2.2032 -1.1144
  419MOL0     H55303   4.036   4.719   1.969  1.0998  0.0152 -2.3149
  419MOL0     H55304   3.853   4.554   1.940  0.1853  0.4622 -2.1464
  419MOL0     H55305   3.962   4.535   1.807  0.4742 -1.8092 -0.2088
  419MOL0     H55306   4.000   4.168   2.029  0.9998  0.9402  0.7985
  419MOL0     H55307   3.726   4.480   2.243  2.3953  1.3771  0.5642
  419MOL0     H55308   3.490   4.466   2.265  1.8267  0.1415  0.0164
  420MOL0     O55309  11.001   5.643   8.456 -0.3136  0.3671  0.1646
  420MOL0     C55310  11.069   5.629   8.556 -0.2138  1.0966 -0.2573
  420MOL0     O55311  11.037   5.558   8.665  0.2781 -0.2075  0.6081
  420MOL0     C55312  10.918   5.490   8.663  0.3478 -0.3165 -1.0024
  420MOL0     C55313  10.907   5.367   8.586 -0.6254  0.9071 -0.1692
  420MOL0     C55314  10.794   5.283   8.599 -0.2815 -0.1838 -0.0047
  420MOL0     C55315  10.681   5.333   8.667  0.2694  0.8802  0.4450
  420MOL0     O55316  10.564   5.257   8.668  0.4150 -1.0631  0.1359
  420MOL0     C55317  10.569   5.115   8.671 -0.1654  0.1868 -0.5424
  420MOL0     C55318  10.436   5.055   8.708 -1.4014 -1.1473  0.4214
  420MOL0     C55319  10.330   5.089   8.604 -0.1874 -0.6270  0.0366
  420MOL0     C55320  10.202   5.014   8.639  0.3336 -0.1790 -0.0812
  420MOL0     C55321  10.094   5.100   8.705 -0.0652 -0.4025 -0.3573
  420MOL0     C55322   9.989   5.140   8.606 -0.5896 -1.0678 -0.5665
  420MOL0     C55323   9.857   5.172   8.682  0.1005  0.3122  0.6110
  420MOL0     C55324   9.742   5.229   8.591  0.3367 -0.2293 -0.1330
  420MOL0     N55325   9.640   5.298   8.665  0.9024  0.1514 -0.4952
  420MOL0     C55326   9.508   5.301   8.621 -0.0995 -0.7502 -0.4341
  420MOL0     C55327   9.446   5.389   8.707 -1.1434  0.5006  1.3655
  420MOL0     C55328   9.300   5.433   8.701 -0.3772 -0.1436 -0.3127
  420MOL0     C55329   9.259   5.483   8.561 -0.1415  0.5128 -0.6593
  420MOL0     C55330   9.140   5.588   8.576 -0.4087  0.0812 -0.0486
  420MOL0     C55331   9.010   5.545   8.651  0.6715 -0.4630  0.0146
  420MOL0     O55332   8.964   5.435   8.572  0.9398  0.8212 -0.0394
  420MOL0     C55333   8.826   5.415   8.581  0.1581  0.4435 -0.5940
  420MOL0     C55334   8.777   5.287   8.634 -0.2414  0.2823  0.7593
  420MOL0     C55335   8.640   5.268   8.638 -0.0605 -0.1525 -0.1020
  420MOL0     C55336   8.550   5.365   8.608 -0.0639 -0.5336  0.3840
  420MOL0     C55337   8.406   5.348   8.614  0.0700 -0.5660  0.9956
  420MOL0     O55338   8.328   5.453   8.562 -0.6218  0.1362 -0.9045
  420MOL0     C55339   8.197   5.428   8.571 -0.7357 -0.3853  0.4174
  420MOL0     C55340   8.121   5.480   8.686 -0.8766 -0.1860 -0.2069
  420MOL0     C55341   7.982   5.461   8.687 -0.1709 -0.0111 -0.2672
  420MOL0     C55342   7.916   5.381   8.592 -0.0707  1.0936 -0.0749
  420MOL0     O55343   7.788   5.337   8.595 -0.7348  0.6304 -0.2683
  420MOL0     C55344   7.715   5.353   8.713  1.3836 -0.5522  0.1949
  420MOL0     C55345   7.561   5.334   8.683 -0.4165 -0.8780  0.4648
  420MOL0     C55346   7.510   5.227   8.586  0.3265 -0.1859 -0.3406
  420MOL0     C55347   7.364   5.209   8.611  0.0150  0.6571  0.1027
  420MOL0     C55348   7.313   5.085   8.543  0.5382  0.4553 -1.2708
  420MOL0     C55349   7.152   5.074   8.533  0.4407  0.0076 -0.8449
  420MOL0     C55350   7.091   5.114   8.398 -0.1428  0.3489 -0.3078
  420MOL0     C55351   6.936   5.148   8.403  0.2099  0.5642 -0.9470
  420MOL0    Cl55352   6.854   5.036   8.527 -0.3276 -0.7983 -0.1566
  420MOL0     C55353   7.990   5.339   8.481 -0.2512  0.0184 -0.1852
  420MOL0     C55354   8.128   5.358   8.471 -0.9334 -0.5979 -0.6667
  420MOL0     O55355   8.363   5.248   8.670 -0.0911  0.5174  0.1878
  420MOL0     C55356   8.595   5.494   8.573 -0.6673  0.1727  0.4756
  420MOL0     C55357   8.730   5.521   8.549  0.2484  0.0608 -0.0659
  420MOL0     N55358   9.538   5.416   8.807  0.1899  0.2279  0.1955
  420MOL0     N55359   9.653   5.375   8.770 -1.2916 -0.7529  0.5635
  420MOL0     C55360  10.688   5.459   8.725 -0.5243 -0.5190  0.9494
  420MOL0     C55361  10.805   5.545   8.725 -0.2434 -0.6680  0.5543
  420MOL0     C55362  11.193   5.703   8.562 -0.4417 -0.2413  0.0693
  420MOL0     C55363  11.216   5.825   8.491  0.5051  0.2827  0.9142
  420MOL0     C55364  11.335   5.886   8.497 -0.5851 -0.0798 -0.5789
  420MOL0     C55365  11.443   5.839   8.572  0.0758  0.5697  0.1542
  420MOL0     O55366  11.568   5.897   8.590  0.4541  0.4677 -0.0375
  420MOL0     C55367  11.583   6.030   8.532  1.0756 -0.2825  0.2911
  420MOL0     C55368  11.709   6.105   8.588  0.1375  0.2239  0.8827
  420MOL0     C55369  11.740   6.086   8.737 -0.5157 -0.3395 -1.0851
  420MOL0     C55370  11.868   6.167   8.764  0.1711 -0.4342 -0.7409
  420MOL0     C55371  11.982   6.105   8.699 -1.2063 -0.0958 -0.3062
  420MOL0     C55372  12.071   6.050   8.633 -0.0984 -0.3681  0.0422
  420MOL0     C55373  11.424   5.726   8.653 -0.5908  0.5179  0.0826
  420MOL0     C55374  11.301   5.659   8.648  0.5629 -0.8271  0.3971
  420MOL0     H55375  10.980   5.342   8.510  1.1318  0.6424  1.5405
  420MOL0     H55376  10.777   5.193   8.541 -2.6081  1.1422 -1.5104
  420MOL0     H55377  10.636   5.082   8.751 -0.6991  1.8487  0.6395
  420MOL0     H55378  10.604   5.078   8.574  0.7283  0.2742 -0.2657
  420MOL0     H55379  10.398   5.108   8.797 -0.1034  2.0569 -0.7704
  420MOL0     H55380  10.446   4.949   8.731 -1.3213 -1.2078  0.1013
  420MOL0     H55381  10.348   5.042   8.507 -0.6805  1.4189 -1.1077
  420MOL0     H55382  10.314   5.196   8.587 -1.2139 -0.7440  0.1834
  420MOL0     H55383  10.171   4.955   8.552  0.3891  1.3576 -1.1819
  420MOL0     H55384  10.227   4.946   8.721 -0.8832  0.9856  1.3278
  420MOL0     H55385  10.144   5.187   8.748 -1.4247  0.2827 -0.1227
  420MOL0     H55386  10.052   5.044   8.790  0.8159 -1.1283 -0.3897
  420MOL0     H55387   9.973   5.054   8.541 -0.8290 -1.5401  0.0991
  420MOL0     H55388  10.032   5.226   8.553  0.1599  0.5262  2.3736
  420MOL0     H55389   9.820   5.083   8.735  0.9962  0.4287  1.4468
  420MOL0     H55390   9.876   5.249   8.757 -1.1852  0.3906  0.8779
  420MOL0     H55391   9.687   5.152   8.535 -1.7876  0.9531  0.2225
  420MOL0     H55392   9.789   5.300   8.523 -1.4568 -0.0035 -1.2025
  420MOL0     H55393   9.458   5.254   8.537 -0.4200  1.5568 -1.6231
  420MOL0     H55394   9.296   5.514   8.774  0.8372 -0.4936  0.1734
  420MOL0     H55395   9.232   5.353   8.733 -3.6979  0.7813 -4.2426
  420MOL0     H55396   9.231   5.396   8.502 -0.2970 -2.1704  2.9772
  420MOL0     H55397   9.352   5.529   8.525  0.9326  2.7436  4.0804
  420MOL0     H55398   9.181   5.679   8.621  0.2575 -0.0682 -0.3476
  420MOL0     H55399   9.111   5.614   8.474  1.5055  0.0883 -0.6181
  420MOL0     H55400   8.937   5.626   8.647  0.0860 -0.7587  2.7272
  420MOL0     H55401   9.023   5.510   8.754 -1.0781  1.6812  1.0527
  420MOL0     H55402   8.839   5.197   8.638 -1.7780 -1.5186 -5.4079
  420MOL0     H55403   8.610   5.169   8.673  0.7494 -1.0793 -1.9078
  420MOL0     H55404   8.171   5.533   8.766 -1.2060 -2.5177  1.6900
  420MOL0     H55405   7.926   5.503   8.770 -2.5264 -0.6541 -1.4436
  420MOL0     H55406   7.729   5.450   8.760 -0.5202 -0.2358  0.2002
  420MOL0     H55407   7.748   5.276   8.784 -0.2686 -1.7413 -0.2340
  420MOL0     H55408   7.533   5.432   8.645  1.9764 -0.6924 -1.0770
  420MOL0     H55409   7.517   5.327   8.782 -2.1850 -1.8264 -0.3446
  420MOL0     H55410   7.553   5.130   8.612 -1.5226 -1.5472 -2.0422
  420MOL0     H55411   7.532   5.248   8.481 -1.4877 -0.5842 -0.8354
  420MOL0     H55412   7.341   5.198   8.717 -2.7810 -0.4748 -0.5129
  420MOL0     H55413   7.302   5.293   8.576  0.5989  0.3407 -1.8538
  420MOL0     H55414   7.341   4.991   8.593 -1.0309  1.7585  2.4336
  420MOL0     H55415   7.357   5.078   8.444  1.2169 -0.6067 -0.9204
  420MOL0     H55416   7.120   5.145   8.610 -2.4426 -0.3473 -1.5848
  420MOL0     H55417   7.114   4.976   8.563 -1.1568  0.5981 -0.8197
  420MOL0     H55418   7.144   5.200   8.356  2.4669 -0.7968  0.4620
  420MOL0     H55419   7.102   5.030   8.327  1.6535 -0.9441  1.3784
  420MOL0     H55420   6.895   5.125   8.305 -2.4108  1.1395 -0.0469
  420MOL0     H55421   6.922   5.255   8.417  0.6445  0.4706  0.3596
  420MOL0     H55422   7.941   5.283   8.403 -3.6357  1.3211  0.8458
  420MOL0     H55423   8.182   5.323   8.384  1.9434 -0.7167  1.0459
  420MOL0     H55424   8.525   5.575   8.552  0.3667  0.3718 -2.7980
  420MOL0     H55425   8.752   5.620   8.510  1.1865 -0.2324 -0.2945
  420MOL0     H55426  10.598   5.491   8.776  0.5528  1.7802  1.5354
  420MOL0     H55427  10.821   5.634   8.784  2.1354 -0.8786  0.3345
  420MOL0     H55428  11.135   5.861   8.429  0.1169 -1.2913  0.4489
  420MOL0     H55429  11.349   5.974   8.436  0.1432 -0.9414 -1.7155
  420MOL0     H55430  11.497   6.095   8.552 -0.3689 -1.4084 -1.8871
  420MOL0     H55431  11.582   6.022   8.423  1.3007  0.1113  0.2589
  420MOL0     H55432  11.790   6.074   8.523  0.9797  1.9981  1.0300
  420MOL0     H55433  11.703   6.211   8.563 -0.2312  0.2048  0.8708
  420MOL0     H55434  11.743   5.978   8.754 -1.5703 -0.6857 -2.8232
  420MOL0     H55435  11.658   6.123   8.799  2.0161  0.1434  2.2807
  420MOL0     H55436  11.858   6.274   8.743 -1.4616 -0.4499 -0.2153
  420MOL0     H55437  11.895   6.160   8.870  3.3034  0.1148 -1.4207
  420MOL0     H55438  12.151   5.995   8.588 -1.7264 -1.2347 -1.9395
  420MOL0     H55439  11.508   5.707   8.719 -0.0316  0.4043 -0.6535
  420MOL0     H55440  11.290   5.573   8.714 -1.2011 -1.6459 -0.8727
  421MOL0     O55441  10.514   9.522   8.348  0.2498 -0.1129  0.6438
  421MOL0     C55442  10.515   9.643   8.320 -0.8608  1.0853  0.0334
  421MOL0     O55443  10.404   9.723   8.290 -0.4512 -0.3077  0.1267
  421MOL0     C55444  10.282   9.670   8.267  0.1986  0.1086  0.0032
  421MOL0     C55445  10.180   9.723   8.340 -0.9087  0.8183 -0.8590
  421MOL0     C55446  10.055   9.683   8.303 -0.8664 -0.5381 -0.1666
  421MOL0     C55447  10.030   9.582   8.213 -0.0219 -0.4063  0.4075
  421MOL0     O55448   9.905   9.519   8.203  0.4486  0.5644  0.0401
  421MOL0     C55449   9.813   9.597   8.124 -0.1548 -0.1091  0.1835
  421MOL0     C55450   9.675   9.529   8.127 -0.3657  0.4628  0.2872
  421MOL0     C55451   9.551   9.594   8.054  0.0943 -0.7065  0.4334
  421MOL0     C55452   9.426   9.510   8.065  0.1577  0.0438  0.1802
  421MOL0     C55453   9.311   9.573   7.973 -0.4180  0.1117 -0.5595
  421MOL0     C55454   9.207   9.472   7.917 -0.9827  0.3478  0.0084
  421MOL0     C55455   9.087   9.554   7.868 -0.2916  0.0724 -0.2638
  421MOL0     C55456   9.093   9.557   7.713 -1.0487 -0.5737 -0.3365
  421MOL0     N55457   8.981   9.622   7.650  0.2618 -1.0135  0.3725
  421MOL0     C55458   8.865   9.675   7.709 -0.0532 -0.7509 -0.4239
  421MOL0     C55459   8.796   9.725   7.611  0.3627  0.0266 -0.1227
  421MOL0     C55460   8.674   9.809   7.623 -0.2436 -0.3456  0.1320
  421MOL0     C55461   8.547   9.746   7.569 -0.1479  0.0210 -0.6696
  421MOL0     C55462   8.414   9.809   7.618 -0.2769 -0.0827 -0.2049
  421MOL0     C55463   8.407   9.962   7.594  0.8886 -0.0953 -0.5211
  421MOL0     O55464   8.285  10.014   7.663 -0.0662  0.0347  0.5033
  421MOL0     C55465   8.166   9.999   7.605  0.0855 -0.2777  0.1691
  421MOL0     C55466   8.058  10.009   7.694  0.0194 -0.2469 -0.1335
  421MOL0     C55467   7.925   9.989   7.654 -0.0667  0.4827  0.2677
  421MOL0     C55468   7.900   9.951   7.520  1.2067  0.2304  0.0789
  421MOL0     C55469   7.766   9.920   7.471  0.4478  0.2388  0.4717
  421MOL0     O55470   7.665   9.900   7.557 -0.2745  0.3420 -0.3261
  421MOL0     C55471   7.550   9.836   7.520  0.6824 -0.2443 -0.0189
  421MOL0     C55472   7.429   9.882   7.586  0.0591 -0.5133  0.3693
  421MOL0     C55473   7.305   9.809   7.570 -0.4084  0.3682 -0.8277
  421MOL0     C55474   7.302   9.704   7.478  0.8695 -0.3328 -0.3879
  421MOL0     O55475   7.194   9.627   7.437  0.4065 -0.5038 -0.0341
  421MOL0     C55476   7.056   9.670   7.485  0.3880  0.5843 -1.2264
  421MOL0     C55477   6.949   9.567   7.435  0.5625 -0.7200 -0.2119
  421MOL0     C55478   6.808   9.591   7.487  0.7791  0.7725 -0.3489
  421MOL0     C55479   6.799   9.572   7.653  0.3922 -0.4021  0.9352
  421MOL0     C55480   6.673   9.642   7.708 -0.0288 -0.5777  0.6577
  421MOL0     C55481   6.558   9.541   7.708 -0.0851  0.3715 -0.2199
  421MOL0     C55482   6.435   9.591   7.779  0.3464  0.3162 -0.5573
  421MOL0     C55483   6.322   9.487   7.749 -0.2093 -1.1338  0.0475
  421MOL0    Cl55484   6.353   9.360   7.868 -0.0711  0.3517 -0.4477
  421MOL0     C55485   7.414   9.677   7.391 -0.5871 -0.7826 -0.3970
  421MOL0     C55486   7.537   9.747   7.411  0.0891  0.4941  0.1679
  421MOL0     O55487   7.744   9.940   7.353  0.5480  0.5544  0.3340
  421MOL0     C55488   8.003   9.937   7.431 -0.0231  0.0041 -0.8682
  421MOL0     C55489   8.139   9.961   7.470 -0.2124 -0.8412 -0.0062
  421MOL0     N55490   8.851   9.696   7.490 -0.7644  0.1482  0.4523
  421MOL0     N55491   8.967   9.640   7.514 -0.3033  0.4011 -1.3644
  421MOL0     C55492  10.138   9.530   8.139  1.0884 -1.2293 -0.3803
  421MOL0     C55493  10.271   9.580   8.158 -0.1122 -0.6023  0.2836
  421MOL0     C55494  10.651   9.690   8.295  0.4016  0.6559  0.5554
  421MOL0     C55495  10.674   9.804   8.217  0.4207  0.0826  1.0036
  421MOL0     C55496  10.803   9.851   8.179 -0.4299  0.6273 -0.4591
  421MOL0     C55497  10.924   9.793   8.232 -1.0557  0.2585 -0.7969
  421MOL0     O55498  11.048   9.828   8.193  0.4120  0.0034 -0.3151
  421MOL0     C55499  11.091   9.967   8.178 -0.1066  0.4043 -0.3198
  421MOL0     C55500  11.240   9.977   8.200 -0.2123  0.8654 -0.1622
  421MOL0     C55501  11.320   9.964   8.073 -0.7505  0.3813  0.4013
  421MOL0     C55502  11.264  10.053   7.958  0.0337 -0.5184  0.6293
  421MOL0     C55503  11.242  10.193   7.989  0.8039 -0.7779 -0.6990
  421MOL0     C55504  11.206  10.307   8.016  0.1048 -0.8479 -1.3417
  421MOL0     C55505  10.903   9.675   8.314  0.1643  0.3297  0.2862
  421MOL0     C55506  10.764   9.627   8.340  1.1505 -0.4837  0.1205
  421MOL0     H55507  10.190   9.803   8.412 -0.9399 -0.6650  0.8662
  421MOL0     H55508   9.967   9.719   8.356  0.7627 -0.7214  2.8683
  421MOL0     H55509   9.838   9.624   8.021 -3.2984 -1.3727 -1.0615
  421MOL0     H55510   9.794   9.688   8.181 -0.8727 -2.5522  4.3225
  421MOL0     H55511   9.657   9.508   8.233 -1.5774 -2.1073 -0.3395
  421MOL0     H55512   9.682   9.431   8.078 -0.7394  0.3942  0.3648
  421MOL0     H55513   9.575   9.615   7.949  1.4518  0.1228  0.8887
  421MOL0     H55514   9.530   9.688   8.104 -4.4480 -1.7401  0.8710
  421MOL0     H55515   9.450   9.406   8.042  1.5044 -0.2071  2.4518
  421MOL0     H55516   9.384   9.504   8.166 -0.4615  0.4374 -0.0470
  421MOL0     H55517   9.355   9.613   7.880 -1.1260  0.1149 -0.9013
  421MOL0     H55518   9.264   9.651   8.034  0.1397 -0.0047  0.0309
  421MOL0     H55519   9.174   9.421   8.008 -0.3662  0.1231  0.1163
  421MOL0     H55520   9.250   9.398   7.848  0.4183 -1.7385  2.8768
  421MOL0     H55521   8.999   9.494   7.892  0.3119  0.8222  4.7278
  421MOL0     H55522   9.069   9.652   7.912  0.6240 -1.0702  2.8819
  421MOL0     H55523   9.120   9.461   7.669  0.9380 -0.6831  1.0302
  421MOL0     H55524   9.184   9.615   7.695 -0.2930 -1.5634  0.1990
  421MOL0     H55525   8.853   9.690   7.816  1.1639  0.8445 -0.4713
  421MOL0     H55526   8.691   9.902   7.568 -0.6172 -1.7830 -2.6090
  421MOL0     H55527   8.677   9.844   7.727  1.4747  3.3298 -0.9901
  421MOL0     H55528   8.549   9.641   7.599  0.2784 -0.4577 -2.2818
  421MOL0     H55529   8.552   9.752   7.460 -2.8791  0.3598 -0.8625
  421MOL0     H55530   8.339   9.758   7.557 -0.3967 -0.0892 -0.0523
  421MOL0     H55531   8.412   9.774   7.722 -1.2143  2.1574  0.6156
  421MOL0     H55532   8.408   9.995   7.490 -2.1990 -0.6929 -0.8342
  421MOL0     H55533   8.488  10.011   7.650  0.1987 -1.4016  1.7685
  421MOL0     H55534   8.084  10.034   7.797  1.5402  0.6529 -0.7110
  421MOL0     H55535   7.851  10.006   7.731  0.3104 -1.1646  1.0295
  421MOL0     H55536   7.436   9.960   7.661  2.2701 -0.3373  0.0468
  421MOL0     H55537   7.230   9.843   7.640  0.4899  1.0272 -0.1591
  421MOL0     H55538   7.011   9.760   7.443 -3.8421 -0.9731 -0.5124
  421MOL0     H55539   7.058   9.663   7.594  0.2862  0.6748 -1.2206
  421MOL0     H55540   6.974   9.462   7.458  0.3337 -0.9612 -1.0366
  421MOL0     H55541   6.944   9.570   7.326  1.0891  0.2546 -0.2150
  421MOL0     H55542   6.745   9.521   7.432  0.8657  1.9041 -1.9578
  421MOL0     H55543   6.769   9.692   7.471 -2.1560 -0.1080  0.5012
  421MOL0     H55544   6.804   9.467   7.683  1.7475  0.1824  2.9369
  421MOL0     H55545   6.880   9.636   7.688 -1.9792  3.6235 -0.2340
  421MOL0     H55546   6.645   9.735   7.658  3.1323  0.4931  0.6794
  421MOL0     H55547   6.695   9.667   7.812  2.0076 -0.0151  0.1290
  421MOL0     H55548   6.611   9.454   7.748  1.4135 -0.4552 -3.6533
  421MOL0     H55549   6.527   9.531   7.603 -0.5780  0.5488 -0.0942
  421MOL0     H55550   6.441   9.599   7.888 -1.3706 -3.0731 -0.0604
  421MOL0     H55551   6.408   9.690   7.742 -0.0873 -1.3119 -5.2603
  421MOL0     H55552   6.341   9.439   7.652 -0.2805 -2.3116  0.6003
  421MOL0     H55553   6.222   9.530   7.755  0.5704  0.6033  1.1471
  421MOL0     H55554   7.399   9.603   7.313  0.0666 -2.0180  0.6126
  421MOL0     H55555   7.610   9.736   7.332 -2.2979  1.6886 -2.3550
  421MOL0     H55556   7.994   9.910   7.326  2.5949 -1.2676 -0.8457
  421MOL0     H55557   8.220   9.965   7.398 -2.4769  4.6795 -2.9618
  421MOL0     H55558  10.112   9.448   8.074  4.6050 -3.7340  1.0119
  421MOL0     H55559  10.358   9.541   8.105 -0.8568 -0.2035 -1.3049
  421MOL0     H55560  10.578   9.846   8.188 -0.0532 -1.7045 -0.2404
  421MOL0     H55561  10.821   9.928   8.104  1.6669  1.1983  0.5422
  421MOL0     H55562  11.049  10.023   8.262  0.3076 -1.6508  1.3241
  421MOL0     H55563  11.045  10.011   8.090 -0.7259 -1.9292 -1.2408
  421MOL0     H55564  11.270  10.074   8.240  1.2039  0.5679 -0.4492
  421MOL0     H55565  11.273   9.913   8.283 -3.8603  1.0463  1.6369
  421MOL0     H55566  11.319   9.862   8.032  2.4710 -0.1712  1.3790
  421MOL0     H55567  11.418  10.002   8.102 -0.3463  0.0620 -0.5071
  421MOL0     H55568  11.335  10.058   7.875 -1.7314  3.2380 -0.9181
  421MOL0     H55569  11.177  10.000   7.918 -0.0247 -0.8164  1.1437
  421MOL0     H55570  11.176  10.397   8.067 -0.8324 -2.1835  0.6146
  421MOL0     H55571  10.984   9.619   8.360  0.1040 -0.6553 -0.7503
  421MOL0     H55572  10.754   9.536   8.398 -2.1409 -0.9426 -0.9466
  422MOL0     O55573   8.733   2.874   8.682 -0.6585  0.2702 -1.4907
  422MOL0     C55574   8.771   2.760   8.690  0.0983 -0.2263 -0.3900
  422MOL0     O55575   8.694   2.653   8.692 -0.0527  0.2948 -0.5519
  422MOL0     C55576   8.556   2.639   8.711 -0.8720  0.0655 -0.2129
  422MOL0     C55577   8.512   2.503   8.730  0.4758 -0.2892 -0.9307
  422MOL0     C55578   8.370   2.482   8.742 -0.1421 -0.2446 -0.3328
  422MOL0     C55579   8.282   2.591   8.742 -0.3448  0.1099 -0.0208
  422MOL0     O55580   8.141   2.562   8.756 -0.0432  0.6582  0.6129
  422MOL0     C55581   8.066   2.578   8.630  0.0385 -0.0055  0.5441
  422MOL0     C55582   7.941   2.483   8.630  0.1623 -0.2533  0.4689
  422MOL0     C55583   7.960   2.343   8.677  0.2434  0.5307 -0.2194
  422MOL0     C55584   7.828   2.275   8.724  0.0946 -0.4177  0.0673
  422MOL0     C55585   7.843   2.142   8.777 -0.1306 -0.5224  0.4074
  422MOL0     C55586   7.721   2.087   8.849  0.6627 -0.5660 -0.2737
  422MOL0     C55587   7.737   1.940   8.881 -0.5728  0.0560  0.1334
  422MOL0     C55588   7.759   1.842   8.761 -0.0399  0.1002  0.4856
  422MOL0     N55589   7.825   1.727   8.786  0.3037  0.2011  0.1345
  422MOL0     C55590   7.768   1.611   8.831 -0.1798 -0.1770 -0.8102
  422MOL0     C55591   7.870   1.528   8.818  0.2809 -0.6998 -0.1934
  422MOL0     C55592   7.846   1.384   8.864  0.2957 -0.4603 -0.0896
  422MOL0     C55593   7.771   1.309   8.756  0.2645  0.9219 -0.5329
  422MOL0     C55594   7.796   1.152   8.742  0.6415 -0.6588 -0.3015
  422MOL0     C55595   7.689   1.074   8.662 -1.1115  0.5773  0.4115
  422MOL0     O55596   7.681   1.146   8.543 -0.1972  0.8198  0.3173
  422MOL0     C55597   7.601   1.067   8.453 -0.8364  0.7341 -0.2791
  422MOL0     C55598   7.465   1.069   8.477  0.0124 -0.2650  1.1517
  422MOL0     C55599   7.376   0.995   8.403 -0.4152  0.1426 -0.1344
  422MOL0     C55600   7.422   0.913   8.296  0.0512 -0.1505  0.3378
  422MOL0     C55601   7.320   0.840   8.222 -1.2097  1.1368 -0.1248
  422MOL0     O55602   7.357   0.803   8.091  0.1553 -0.4045  0.2853
  422MOL0     C55603   7.278   0.718   8.022 -0.5609  0.3356  0.2340
  422MOL0     C55604   7.175   0.770   7.938  0.2120 -0.1925  1.1654
  422MOL0     C55605   7.084   0.683   7.875  0.5436  0.7974  0.5395
  422MOL0     C55606   7.106   0.544   7.890 -0.3139 -0.1164 -0.9365
  422MOL0     O55607   7.024   0.447   7.844 -0.4087 -0.3860  0.3757
  422MOL0     C55608   6.879   0.477   7.844  1.0835 -0.7206  1.2232
  422MOL0     C55609   6.807   0.344   7.801  0.2134 -0.7660 -0.3373
  422MOL0     C55610   6.665   0.345   7.859 -0.1076  0.0207 -0.9647
  422MOL0     C55611   6.579   0.467   7.814 -0.3304  0.2044  0.0690
  422MOL0     C55612   6.429   0.460   7.843 -0.5035 -0.9475 -0.5318
  422MOL0     C55613   6.358   0.384   7.732  0.4453 -0.0167  0.0298
  422MOL0     C55614   6.225   0.310   7.788 -0.0661  0.3648  0.5580
  422MOL0     C55615   6.263   0.172   7.817 -0.0384 -1.0305  0.1400
  422MOL0    Cl55616   6.132   0.055   7.869  0.2258 -0.6891  0.0117
  422MOL0     C55617   7.215   0.494   7.960 -0.0106 -0.6453  0.4571
  422MOL0     C55618   7.305   0.580   8.015 -0.0583  0.4469 -0.5611
  422MOL0     O55619   7.208   0.818   8.265 -0.1809 -0.3142 -0.5633
  422MOL0     C55620   7.563   0.919   8.268  0.4109  0.0261 -0.0912
  422MOL0     C55621   7.652   0.991   8.345 -0.5962 -0.5650 -0.3891
  422MOL0     N55622   7.985   1.595   8.784 -1.3336  0.0619 -0.8582
  422MOL0     N55623   7.954   1.710   8.759  0.3251  0.3650 -0.8278
  422MOL0     C55624   8.333   2.716   8.733  0.8737 -0.9546 -1.0140
  422MOL0     C55625   8.466   2.746   8.718  0.2550  0.1429 -0.5165
  422MOL0     C55626   8.913   2.735   8.682 -0.5411 -0.3367  0.6399
  422MOL0     C55627   8.957   2.600   8.678  0.0332 -0.3445 -0.0917
  422MOL0     C55628   9.095   2.571   8.681 -1.0253 -1.1137 -0.0183
  422MOL0     C55629   9.195   2.675   8.675 -0.4656 -0.0151 -0.4086
  422MOL0     O55630   9.328   2.654   8.680 -0.1124  0.2711 -0.2607
  422MOL0     C55631   9.379   2.521   8.657 -0.2087  0.4749 -0.0567
  422MOL0     C55632   9.535   2.528   8.655 -1.0924 -0.5381 -0.5842
  422MOL0     C55633   9.599   2.597   8.778  0.5510 -0.2725  0.5894
  422MOL0     C55634   9.744   2.545   8.807 -0.0966 -0.0495 -0.1026
  422MOL0     C55635   9.748   2.404   8.848  0.1014  0.2861  0.6784
  422MOL0     C55636   9.762   2.292   8.903  0.0040  1.1362  0.2058
  422MOL0     C55637   9.147   2.809   8.689  0.4082 -0.2366  0.3453
  422MOL0     C55638   9.009   2.836   8.686 -0.0454 -0.3933  0.5287
  422MOL0     H55639   8.577   2.416   8.728  0.5973 -0.3004  1.3281
  422MOL0     H55640   8.327   2.383   8.747  1.9922 -1.5680 -4.1527
  422MOL0     H55641   8.136   2.548   8.552  0.2806  0.8061  0.4376
  422MOL0     H55642   8.037   2.680   8.606 -1.0676 -0.2659  0.7391
  422MOL0     H55643   7.901   2.482   8.528 -0.2322 -1.6839  0.6039
  422MOL0     H55644   7.855   2.529   8.680 -1.7405 -1.2267 -1.7277
  422MOL0     H55645   8.043   2.333   8.748 -0.1895 -3.2957 -0.0059
  422MOL0     H55646   7.986   2.280   8.591 -0.3923  0.0160 -0.0402
  422MOL0     H55647   7.779   2.328   8.807  1.6505  0.5320  0.4239
  422MOL0     H55648   7.748   2.284   8.650 -0.7729 -1.4351  0.8432
  422MOL0     H55649   7.932   2.130   8.841 -0.0138 -1.1122  0.1399
  422MOL0     H55650   7.851   2.098   8.678 -2.1531  3.8325 -1.9614
  422MOL0     H55651   7.627   2.092   8.794 -0.3681  1.0244  1.5190
  422MOL0     H55652   7.709   2.139   8.944  1.0025  0.5208 -0.8191
  422MOL0     H55653   7.828   1.921   8.938 -2.4142  0.4087  3.4105
  422MOL0     H55654   7.651   1.907   8.940 -1.6638  2.8212  0.2649
  422MOL0     H55655   7.823   1.888   8.685  1.5594  0.4137  1.9662
  422MOL0     H55656   7.665   1.820   8.710  0.0177 -0.0891  0.4590
  422MOL0     H55657   7.665   1.591   8.857 -0.4125 -1.2795 -2.4526
  422MOL0     H55658   7.789   1.379   8.957 -0.2462 -1.5607 -0.4643
  422MOL0     H55659   7.945   1.342   8.886  0.6450  0.9192  1.0895
  422MOL0     H55660   7.808   1.345   8.659  2.3624 -1.0840 -0.5892
  422MOL0     H55661   7.665   1.335   8.764  0.0948  0.2785 -0.6289
  422MOL0     H55662   7.884   1.154   8.677 -1.5584  3.7663 -3.7337
  422MOL0     H55663   7.796   1.095   8.835 -2.5057  0.2222  0.3539
  422MOL0     H55664   7.595   1.079   8.717 -0.7111 -1.9035  1.4649
  422MOL0     H55665   7.707   0.967   8.653  0.4574  0.4994  3.1377
  422MOL0     H55666   7.423   1.138   8.550  1.6652  1.5705  0.4508
  422MOL0     H55667   7.273   0.992   8.439 -0.7607 -1.4672 -1.1761
  422MOL0     H55668   7.164   0.878   7.929  2.1073 -0.1651 -2.6193
  422MOL0     H55669   6.997   0.724   7.827  0.7879 -0.5460 -1.1434
  422MOL0     H55670   6.864   0.558   7.773 -0.4972 -0.0051  2.3190
  422MOL0     H55671   6.852   0.516   7.943 -2.2211 -0.4865  0.3397
  422MOL0     H55672   6.856   0.257   7.845  1.3938  0.9295  1.8975
  422MOL0     H55673   6.809   0.330   7.692 -0.1093 -0.6224 -0.3640
  422MOL0     H55674   6.680   0.333   7.967 -1.2909  0.9679 -0.6742
  422MOL0     H55675   6.620   0.252   7.825  1.5030 -0.1474 -2.7964
  422MOL0     H55676   6.618   0.563   7.850  0.9693 -0.7512  1.3594
  422MOL0     H55677   6.599   0.469   7.707  1.1302  1.3010  0.3206
  422MOL0     H55678   6.381   0.558   7.846 -1.4149 -1.3813 -0.5406
  422MOL0     H55679   6.418   0.417   7.943  3.3573 -0.8793  0.0850
  422MOL0     H55680   6.422   0.314   7.677  0.8599 -0.3204  0.8785
  422MOL0     H55681   6.334   0.452   7.650 -2.1113 -1.5393 -0.6119
  422MOL0     H55682   6.174   0.360   7.871  1.4141  2.9359  0.0432
  422MOL0     H55683   6.151   0.299   7.708 -0.0349 -1.9725  0.7804
  422MOL0     H55684   6.348   0.149   7.883 -0.4880  0.0715  1.1243
  422MOL0     H55685   6.300   0.143   7.718  0.2899  1.1522 -0.4271
  422MOL0     H55686   7.233   0.388   7.967  2.9925 -0.1432  1.5531
  422MOL0     H55687   7.391   0.540   8.067 -0.5697  1.3155  0.9965
  422MOL0     H55688   7.614   0.864   8.189  1.2892 -0.1006  0.5470
  422MOL0     H55689   7.756   0.983   8.314 -0.2636 -0.1273  0.5658
  422MOL0     H55690   8.258   2.794   8.737  1.7775 -0.1236  1.6849
  422MOL0     H55691   8.511   2.844   8.730  0.7961 -0.1099 -0.4249
  422MOL0     H55692   8.879   2.525   8.678  0.4695 -0.8166  0.7961
  422MOL0     H55693   9.118   2.465   8.682 -0.5300 -1.0381 -1.3364
  422MOL0     H55694   9.343   2.490   8.558  0.0858 -0.7286  0.2005
  422MOL0     H55695   9.343   2.453   8.735 -0.4580  1.7802  0.9933
  422MOL0     H55696   9.579   2.433   8.625  2.2385  0.5495  0.4711
  422MOL0     H55697   9.548   2.605   8.579  1.5486  0.4620  0.7371
  422MOL0     H55698   9.529   2.596   8.862 -0.4091 -0.6123 -0.2009
  422MOL0     H55699   9.622   2.700   8.749  2.4944 -0.9993 -0.6397
  422MOL0     H55700   9.808   2.560   8.720  1.0931  0.8656  0.8905
  422MOL0     H55701   9.798   2.603   8.882  2.1299 -2.3818  0.2253
  422MOL0     H55702   9.762   2.204   8.963  1.0213  0.2668 -1.0015
  422MOL0     H55703   9.208   2.898   8.694 -2.3396  1.8869 -1.2847
  422MOL0     H55704   8.971   2.937   8.696 -1.5168 -0.0560 -5.0093
  423MOL0     O55705   6.318   1.790   8.962 -0.8421  0.3962  0.4073
  423MOL0     C55706   6.333   1.844   8.851 -0.6175  0.8213 -0.9489
  423MOL0     O55707   6.226   1.887   8.775  0.2293 -0.1838  0.3113
  423MOL0     C55708   6.097   1.878   8.822  0.9008  0.1953 -0.1671
  423MOL0     C55709   6.055   1.952   8.939 -0.1279 -0.0764  0.7993
  423MOL0     C55710   5.920   1.955   8.977 -0.9472  0.1348  0.3567
  423MOL0     C55711   5.830   1.877   8.905 -0.5514 -0.2300 -0.2436
  423MOL0     O55712   5.703   1.859   8.955 -0.4450 -0.3300 -0.5042
  423MOL0     C55713   5.598   1.780   8.889  0.4270  0.1399 -0.6065
  423MOL0     C55714   5.457   1.818   8.908  0.0996  0.3253  0.4265
  423MOL0     C55715   5.406   1.809   9.048 -0.0846 -0.5205  0.9681
  423MOL0     C55716   5.248   1.823   9.055 -0.1221  0.6704 -0.4504
  423MOL0     C55717   5.191   1.834   9.197  0.6269 -0.7666 -0.6150
  423MOL0     C55718   5.042   1.814   9.206 -0.6081 -0.8349  0.2199
  423MOL0     C55719   5.009   1.812   9.358  0.6459  0.3898 -0.0073
  423MOL0     C55720   4.894   1.707   9.390  1.0577  0.6233  0.3321
  423MOL0     N55721   4.758   1.771   9.367 -0.3166  0.1295 -0.0736
  423MOL0     C55722   4.694   1.879   9.427  0.5863  0.0265 -0.2363
  423MOL0     C55723   4.565   1.880   9.385 -0.1821 -0.1707 -0.0089
  423MOL0     C55724   4.481   2.000   9.417  0.5267  0.5008  0.7073
  423MOL0     C55725   4.336   1.954   9.435 -0.3504 -0.4809  0.9961
  423MOL0     C55726   4.247   2.083   9.449  0.1977  0.3197 -0.3753
  423MOL0     C55727   4.267   2.158   9.578 -0.1949  0.7749 -0.1836
  423MOL0     O55728   4.172   2.258   9.596 -0.8666 -0.5321 -0.1229
  423MOL0     C55729   4.041   2.232   9.597 -0.6087 -0.2693  0.0360
  423MOL0     C55730   3.947   2.318   9.537 -0.2581  0.5362 -0.0445
  423MOL0     C55731   3.809   2.296   9.548  0.4222 -0.4158  0.4096
  423MOL0     C55732   3.755   2.184   9.613 -0.7817  0.0876  0.1325
  423MOL0     C55733   3.614   2.153   9.622 -0.8922 -0.2746 -0.8110
  423MOL0     O55734   3.522   2.221   9.554 -0.2031 -0.3340  0.0202
  423MOL0     C55735   3.384   2.216   9.577 -0.3902 -0.5914  0.2294
  423MOL0     C55736   3.323   2.137   9.674 -0.1357  0.0913  0.0765
  423MOL0     C55737   3.189   2.145   9.696 -0.7774  0.9292  0.0089
  423MOL0     C55738   3.103   2.224   9.617 -0.0088  0.5612 -0.6584
  423MOL0     O55739   2.966   2.221   9.626 -0.2821  0.0306  0.0997
  423MOL0     C55740   2.925   2.227   9.763 -0.0534 -0.4344 -0.2660
  423MOL0     C55741   2.890   2.372   9.784  0.0710 -0.3044  0.3983
  423MOL0     C55742   2.758   2.422   9.715 -0.0115  0.0574  0.3437
  423MOL0     C55743   2.643   2.400   9.817  0.4348  0.4189  0.2450
  423MOL0     C55744   2.524   2.484   9.775 -0.6089 -1.0113 -1.1300
  423MOL0     C55745   2.487   2.451   9.634  1.0025 -0.4395  0.8432
  423MOL0     C55746   2.351   2.513   9.623  0.6236 -0.1973  0.7043
  423MOL0     C55747   2.351   2.667   9.630 -0.6243  0.3429 -0.4404
  423MOL0    Cl55748   2.202   2.752   9.580 -0.8156  0.1412 -0.2674
  423MOL0     C55749   3.158   2.302   9.523  0.8264 -0.3552  0.0283
  423MOL0     C55750   3.298   2.297   9.491  0.3698  0.3983  0.1498
  423MOL0     O55751   3.594   2.042   9.671 -0.1175  0.1299 -0.0225
  423MOL0     C55752   3.846   2.101   9.677  0.0872 -0.6925  0.2267
  423MOL0     C55753   3.983   2.119   9.656  0.0531  0.3865  0.3992
  423MOL0     N55754   4.548   1.775   9.294  0.7772  0.7010  0.5656
  423MOL0     N55755   4.663   1.713   9.290  0.5561 -0.1838  0.5188
  423MOL0     C55756   5.874   1.796   8.804  0.2000  0.2462  0.6113
  423MOL0     C55757   6.004   1.797   8.759 -0.0454 -0.4243  0.1573
  423MOL0     C55758   6.460   1.857   8.788 -0.3654 -0.5705 -0.3582
  423MOL0     C55759   6.570   1.842   8.874  0.0121  1.2194  0.4661
  423MOL0     C55760   6.699   1.819   8.821  0.7084  0.1808  0.1244
  423MOL0     C55761   6.722   1.799   8.689  0.7962  0.2567 -0.0730
  423MOL0     O55762   6.849   1.776   8.654 -0.2605 -0.0510 -0.0460
  423MOL0     C55763   6.895   1.757   8.516  0.8762  0.1471  0.5687
  423MOL0     C55764   6.898   1.898   8.449  0.0040 -0.1852  0.4223
  423MOL0     C55765   6.941   1.889   8.300  0.2868  1.4396  0.6555
  423MOL0     C55766   6.925   2.017   8.221  0.0963  0.1867 -0.0147
  423MOL0     C55767   7.006   2.122   8.277 -0.2734 -0.3532  0.0046
  423MOL0     C55768   7.085   2.214   8.302  0.2449 -0.2736  0.4097
  423MOL0     C55769   6.602   1.806   8.605 -0.4315 -0.2773  0.2979
  423MOL0     C55770   6.474   1.841   8.649 -0.1699  0.4866 -0.9497
  423MOL0     H55771   6.128   2.013   8.991  0.0528  0.3196  0.1008
  423MOL0     H55772   5.889   2.009   9.066 -1.9153 -0.9547  0.7142
  423MOL0     H55773   5.607   1.678   8.929 -0.1657  0.4446  0.3280
  423MOL0     H55774   5.611   1.765   8.781  0.3122 -5.8931 -0.1455
  423MOL0     H55775   5.393   1.763   8.838  1.4123  1.2464 -1.6009
  423MOL0     H55776   5.452   1.918   8.863 -3.3527  0.2190  0.3054
  423MOL0     H55777   5.453   1.889   9.105 -1.0359  0.8732 -0.1269
  423MOL0     H55778   5.430   1.714   9.096 -0.3825  1.1400  4.7415
  423MOL0     H55779   5.214   1.905   8.990 -2.9005 -1.0656 -1.3455
  423MOL0     H55780   5.211   1.728   9.016  0.0813 -0.0454  1.0427
  423MOL0     H55781   5.206   1.937   9.231  1.8409 -1.6804  1.8911
  423MOL0     H55782   5.242   1.773   9.272 -1.1280  0.0659  1.3725
  423MOL0     H55783   5.013   1.720   9.160 -1.8144 -0.6170  0.5078
  423MOL0     H55784   4.993   1.899   9.157  0.9188 -1.2609 -2.2165
  423MOL0     H55785   5.094   1.772   9.414 -0.5274 -1.3083  0.6618
  423MOL0     H55786   4.993   1.914   9.392 -1.7307  1.4366 -3.7077
  423MOL0     H55787   4.892   1.679   9.495 -1.7096  0.9034  0.4393
  423MOL0     H55788   4.904   1.621   9.323  2.4184  0.5643  0.5946
  423MOL0     H55789   4.739   1.956   9.489 -1.3583  2.2337 -1.3933
  423MOL0     H55790   4.494   2.063   9.328 -1.6541  1.6106  1.0953
  423MOL0     H55791   4.517   2.048   9.509  1.3322 -1.1383  1.2801
  423MOL0     H55792   4.316   1.884   9.516 -2.4263 -2.4589 -1.0622
  423MOL0     H55793   4.306   1.903   9.343  1.6424 -1.9831  1.1251
  423MOL0     H55794   4.253   2.162   9.373  2.3734  2.3846  1.7299
  423MOL0     H55795   4.148   2.038   9.449  0.9953 -1.5703 -1.8190
  423MOL0     H55796   4.371   2.191   9.582  0.1208 -0.0924 -0.9564
  423MOL0     H55797   4.265   2.086   9.660  1.6513  0.9638  0.0800
  423MOL0     H55798   3.987   2.399   9.477 -1.0440  0.6514 -0.4233
  423MOL0     H55799   3.740   2.363   9.498  0.0995  1.1559  2.8058
  423MOL0     H55800   3.380   2.067   9.735 -2.6445 -1.3547  0.9359
  423MOL0     H55801   3.152   2.078   9.772 -0.0212 -0.2659 -0.6622
  423MOL0     H55802   3.001   2.203   9.838  0.6079  2.1668 -0.0231
  423MOL0     H55803   2.833   2.172   9.783 -0.8573  0.7004 -0.7467
  423MOL0     H55804   2.971   2.432   9.741  0.9828 -0.6506  1.6008
  423MOL0     H55805   2.879   2.386   9.892 -1.2166 -0.2927  0.2854
  423MOL0     H55806   2.739   2.369   9.621 -0.2801  1.0168 -0.1576
  423MOL0     H55807   2.780   2.523   9.680  1.6339 -0.0810  0.8802
  423MOL0     H55808   2.627   2.292   9.804  0.0257  0.3292  1.3501
  423MOL0     H55809   2.673   2.418   9.920  0.0083 -0.2129  0.4897
  423MOL0     H55810   2.550   2.591   9.778 -0.3045 -1.0703 -1.5287
  423MOL0     H55811   2.442   2.465   9.845 -0.0696 -1.3469 -0.5791
  423MOL0     H55812   2.471   2.343   9.624 -0.1915 -0.7231  4.4086
  423MOL0     H55813   2.562   2.475   9.559  0.8419 -3.1125 -0.2947
  423MOL0     H55814   2.316   2.482   9.524  1.5347  0.8011  0.0496
  423MOL0     H55815   2.275   2.477   9.693  1.3350 -2.3206  0.4668
  423MOL0     H55816   2.432   2.701   9.564  1.7106 -1.7788  1.1699
  423MOL0     H55817   2.382   2.700   9.729  2.1991 -0.5692 -0.9328
  423MOL0     H55818   3.098   2.372   9.466  0.0215 -1.2541 -0.2483
  423MOL0     H55819   3.317   2.369   9.413 -4.8737  2.1904  0.1176
  423MOL0     H55820   3.814   2.010   9.726 -0.5090 -1.2767 -1.2023
  423MOL0     H55821   4.049   2.044   9.696 -0.5149  1.0225  2.6629
  423MOL0     H55822   5.812   1.717   8.763  0.5588  0.7704 -1.0078
  423MOL0     H55823   6.042   1.735   8.679  2.6214  1.3002 -0.0815
  423MOL0     H55824   6.562   1.856   8.981  2.6128  0.7490  0.8032
  423MOL0     H55825   6.785   1.808   8.887  1.7080 -2.7078 -1.4605
  423MOL0     H55826   6.825   1.682   8.478 -1.2018 -0.1417  4.4135
  423MOL0     H55827   6.997   1.719   8.510  1.0657  0.3630  2.0316
  423MOL0     H55828   6.802   1.950   8.466  0.6201  1.2239 -0.1825
  423MOL0     H55829   6.971   1.960   8.501  1.8994 -1.0725 -1.0513
  423MOL0     H55830   6.871   1.827   8.245  2.6826  0.4754 -1.4870
  423MOL0     H55831   7.034   1.836   8.278 -1.5537 -1.1779 -1.4471
  423MOL0     H55832   6.958   1.997   8.118  2.4473 -2.3572  1.1143
  423MOL0     H55833   6.819   2.045   8.224 -0.1388 -0.5831 -0.7779
  423MOL0     H55834   7.137   2.304   8.330  0.1142  0.2308 -0.8905
  423MOL0     H55835   6.626   1.799   8.500 -2.3737 -2.2804 -0.0965
  423MOL0     H55836   6.381   1.857   8.597 -0.4743 -0.3668 -0.6913
  424MOL0     O55837  11.025   8.480   8.765  0.2106 -0.7244  0.5139
  424MOL0     C55838  11.040   8.493   8.890  0.3865 -0.1152  0.3308
  424MOL0     O55839  10.945   8.537   8.978 -0.3297  0.4670  0.0148
  424MOL0     C55840  10.830   8.597   8.927  0.2704 -0.2808  0.3535
  424MOL0     C55841  10.706   8.562   8.981  0.0735 -0.6864  0.9538
  424MOL0     C55842  10.589   8.619   8.938  0.4925  1.4432 -0.2989
  424MOL0     C55843  10.584   8.719   8.849  0.2099  0.7396 -0.1109
  424MOL0     O55844  10.465   8.790   8.826  0.2657  0.4073  0.2519
  424MOL0     C55845  10.473   8.917   8.764  1.2925  1.2886  0.1573
  424MOL0     C55846  10.336   8.982   8.748  0.2309 -0.3446  0.0482
  424MOL0     C55847  10.230   8.905   8.668 -0.2367 -0.9284  0.1566
  424MOL0     C55848  10.100   8.967   8.678 -0.0851  0.0996  0.1941
  424MOL0     C55849   9.995   8.902   8.574  0.1318 -0.0460  0.0891
  424MOL0     C55850   9.974   8.755   8.611 -0.5707 -0.3210  0.9054
  424MOL0     C55851   9.847   8.714   8.548  0.1443 -0.3933 -0.4635
  424MOL0     C55852   9.824   8.577   8.615  0.8726 -0.4384  0.7033
  424MOL0     N55853   9.756   8.587   8.748  0.5154 -0.6596 -0.3116
  424MOL0     C55854   9.731   8.495   8.843 -0.8784 -0.4273  0.5990
  424MOL0     C55855   9.685   8.556   8.954  0.6665 -0.1148  0.1142
  424MOL0     C55856   9.632   8.490   9.077  0.0434  0.9241  0.7899
  424MOL0     C55857   9.515   8.398   9.043  0.3086  0.4504 -0.2011
  424MOL0     C55858   9.438   8.322   9.159  0.3568  0.2278 -1.0400
  424MOL0     C55859   9.368   8.417   9.244 -0.6433 -0.3696  0.0037
  424MOL0     O55860   9.282   8.334   9.332  0.5572 -0.4921 -0.1720
  424MOL0     C55861   9.152   8.373   9.353  0.0771 -0.6333 -0.0455
  424MOL0     C55862   9.073   8.439   9.257  0.1204 -0.4462 -0.6377
  424MOL0     C55863   8.942   8.481   9.287 -0.3083  0.8331 -0.2718
  424MOL0     C55864   8.884   8.430   9.413 -0.0433 -0.9146 -0.3002
  424MOL0     C55865   8.740   8.462   9.440 -0.5006  0.6969  0.1629
  424MOL0     O55866   8.662   8.381   9.532 -0.1323 -0.0935  0.0783
  424MOL0     C55867   8.526   8.397   9.517  0.0103  0.6867  0.5688
  424MOL0     C55868   8.467   8.377   9.393 -0.3092  0.1813 -0.0672
  424MOL0     C55869   8.328   8.400   9.371  0.6656 -0.4396 -0.4849
  424MOL0     C55870   8.240   8.418   9.483  0.1620  0.2364 -0.7086
  424MOL0     O55871   8.107   8.406   9.475 -0.7022 -0.1827  0.4574
  424MOL0     C55872   8.062   8.280   9.427  0.1954  0.8179 -0.1608
  424MOL0     C55873   7.948   8.239   9.515  0.5786 -0.0873 -0.9172
  424MOL0     C55874   7.891   8.097   9.483 -0.1735  0.6498  0.5805
  424MOL0     C55875   7.882   8.052   9.334  0.2594  0.3212  0.7012
  424MOL0     C55876   7.833   7.906   9.331  0.1692 -0.6727 -0.4961
  424MOL0     C55877   7.816   7.872   9.181 -0.2470 -0.3307  1.3677
  424MOL0     C55878   7.783   7.727   9.155  0.4275  0.4438  0.5462
  424MOL0     C55879   7.672   7.691   9.249  0.2556  0.7925  0.7306
  424MOL0    Cl55880   7.525   7.796   9.250 -0.2819  0.0044  0.4160
  424MOL0     C55881   8.303   8.429   9.615 -0.4349  0.9906 -0.4559
  424MOL0     C55882   8.443   8.420   9.631  0.1303  0.9787  0.3094
  424MOL0     O55883   8.691   8.553   9.377 -0.6314  0.3599  0.5108
  424MOL0     C55884   8.958   8.362   9.509 -0.2545 -0.0901  0.0513
  424MOL0     C55885   9.094   8.348   9.480  0.1715 -0.4438  0.4196
  424MOL0     N55886   9.679   8.693   8.934  0.6591  0.8477 -0.4140
  424MOL0     N55887   9.706   8.709   8.808 -0.3681  0.2559 -0.2032
  424MOL0     C55888  10.710   8.776   8.810 -0.8276  0.1404  1.1164
  424MOL0     C55889  10.837   8.711   8.844  0.2250 -0.0507  1.0196
  424MOL0     C55890  11.171   8.449   8.939 -0.0890  0.0898  1.1864
  424MOL0     C55891  11.270   8.397   8.853  0.4055  0.3002 -0.8292
  424MOL0     C55892  11.389   8.352   8.901  0.3719  0.5984  0.4232
  424MOL0     C55893  11.425   8.368   9.037  0.1057 -0.4639 -0.0334
  424MOL0     O55894  11.552   8.323   9.073  0.2627  0.2355 -0.7876
  424MOL0     C55895  11.626   8.397   9.179  0.0607 -0.8430 -0.0288
  424MOL0     C55896  11.774   8.409   9.129 -0.0754 -0.2332 -1.2540
  424MOL0     C55897  11.847   8.277   9.119  0.0622 -0.3304 -0.2303
  424MOL0     C55898  11.986   8.315   9.085  0.6016 -0.3231  0.2181
  424MOL0     C55899  12.065   8.193   9.081 -0.0423 -0.7169 -0.7205
  424MOL0     C55900  12.137   8.089   9.074  0.2149 -0.4798  0.0209
  424MOL0     C55901  11.338   8.428   9.127 -0.1181 -0.6789  0.4261
  424MOL0     C55902  11.204   8.463   9.076  0.0986 -0.6098  0.1690
  424MOL0     H55903  10.689   8.479   9.048 -0.5750 -0.4699  1.0664
  424MOL0     H55904  10.496   8.578   8.977  2.0530 -1.7342  0.4103
  424MOL0     H55905  10.505   8.913   8.660  3.6018 -3.2062  0.8149
  424MOL0     H55906  10.541   8.980   8.823  2.7799 -0.5809  0.5435
  424MOL0     H55907  10.336   9.078   8.694 -3.0028 -0.8491 -1.0923
  424MOL0     H55908  10.303   8.992   8.852 -1.2812 -0.8582 -0.3571
  424MOL0     H55909  10.222   8.801   8.699 -1.1617 -0.9963 -0.2712
  424MOL0     H55910  10.261   8.920   8.564 -0.4235  1.1414  0.3552
  424MOL0     H55911  10.063   8.953   8.780 -1.5004 -1.5859 -0.4981
  424MOL0     H55912  10.111   9.074   8.656 -0.9639 -0.0657 -1.1341
  424MOL0     H55913  10.028   8.907   8.470 -2.0163 -1.3391 -0.7055
  424MOL0     H55914   9.900   8.955   8.573  0.2450  0.2298 -2.4281
  424MOL0     H55915   9.965   8.750   8.720 -2.5709  0.8607  0.8420
  424MOL0     H55916  10.060   8.695   8.579 -1.5301 -0.5454 -1.4390
  424MOL0     H55917   9.756   8.769   8.573 -1.2501 -3.1552  1.0850
  424MOL0     H55918   9.862   8.714   8.440  0.0335  0.5866 -0.4880
  424MOL0     H55919   9.912   8.511   8.611  2.9855  2.2213 -3.4124
  424MOL0     H55920   9.745   8.538   8.551  1.4365  0.7300 -0.7841
  424MOL0     H55921   9.742   8.389   8.823 -0.7445 -0.1257 -1.0423
  424MOL0     H55922   9.594   8.564   9.148 -1.3738  0.3454  0.6727
  424MOL0     H55923   9.715   8.441   9.128 -0.7279 -0.3329  0.8654
  424MOL0     H55924   9.560   8.315   8.987 -2.0289 -0.5968 -0.6689
  424MOL0     H55925   9.450   8.457   8.978  0.8490  0.9225 -0.3173
  424MOL0     H55926   9.370   8.243   9.126 -0.0004  0.1727 -0.1956
  424MOL0     H55927   9.510   8.267   9.220 -1.3165 -0.3003  0.5438
  424MOL0     H55928   9.313   8.492   9.185 -0.3473  0.7729  1.1266
  424MOL0     H55929   9.444   8.479   9.292 -1.9892  1.5692 -0.2375
  424MOL0     H55930   9.104   8.461   9.155 -0.5725  2.0660 -0.3770
  424MOL0     H55931   8.889   8.535   9.209 -2.4538 -1.6865 -0.6572
  424MOL0     H55932   8.535   8.348   9.314 -1.6881  0.9471 -1.6033
  424MOL0     H55933   8.293   8.394   9.268 -0.2802  1.3629 -0.3007
  424MOL0     H55934   8.135   8.199   9.442 -1.1937 -0.8101 -1.7775
  424MOL0     H55935   8.034   8.290   9.322  0.5077 -0.0120 -0.3361
  424MOL0     H55936   7.872   8.317   9.506 -0.3102 -0.5668  1.6881
  424MOL0     H55937   7.983   8.239   9.618 -0.8424 -0.6822 -0.4127
  424MOL0     H55938   7.794   8.095   9.535 -1.1372  2.5175 -0.9830
  424MOL0     H55939   7.942   8.015   9.533 -2.7247 -1.4106  0.0027
  424MOL0     H55940   7.813   8.121   9.283 -3.2924 -1.4431  2.6997
  424MOL0     H55941   7.972   8.051   9.273  0.6661 -0.4067  1.3013
  424MOL0     H55942   7.734   7.906   9.379  1.7700  1.0856  3.1570
  424MOL0     H55943   7.893   7.833   9.386 -1.3918 -0.9665  0.9049
  424MOL0     H55944   7.895   7.900   9.111 -0.8406  1.0606  1.2286
  424MOL0     H55945   7.723   7.925   9.156 -0.4765 -1.3668 -0.1240
  424MOL0     H55946   7.771   7.704   9.049  0.9153 -1.2720  0.8423
  424MOL0     H55947   7.876   7.671   9.167  1.0837  0.7904 -2.2097
  424MOL0     H55948   7.714   7.688   9.350  2.1407  0.0726 -0.0238
  424MOL0     H55949   7.634   7.591   9.225 -1.6966  0.2592  5.2118
  424MOL0     H55950   8.236   8.462   9.694 -0.7349  0.4620 -0.4801
  424MOL0     H55951   8.487   8.429   9.729 -1.1576 -0.8349  1.1123
  424MOL0     H55952   8.919   8.319   9.600  0.7257  0.0243  0.5414
  424MOL0     H55953   9.151   8.304   9.561  0.1531  2.8700  2.4042
  424MOL0     H55954  10.713   8.862   8.743 -0.5424  0.0893  1.0640
  424MOL0     H55955  10.931   8.759   8.820 -0.2196  0.1912 -0.3101
  424MOL0     H55956  11.239   8.399   8.749 -1.7105  1.3599 -0.2526
  424MOL0     H55957  11.463   8.308   8.836  0.3661  0.5505  0.4492
  424MOL0     H55958  11.614   8.357   9.280 -0.4284  0.9129  0.6412
  424MOL0     H55959  11.589   8.500   9.181 -1.9758 -1.4570 -2.1962
  424MOL0     H55960  11.770   8.450   9.028  0.6629 -2.4900 -2.2693
  424MOL0     H55961  11.834   8.472   9.195  0.3644 -1.2069 -0.7036
  424MOL0     H55962  11.804   8.206   9.048  0.1656 -1.6076  0.9319
  424MOL0     H55963  11.837   8.225   9.215 -1.4725  1.1815  0.4751
  424MOL0     H55964  11.992   8.364   8.987 -3.4707  0.0421  0.0154
  424MOL0     H55965  12.023   8.385   9.160  1.4939  1.0338 -1.4186
  424MOL0     H55966  12.220   8.021   9.068 -0.3041 -1.1266  0.0946
  424MOL0     H55967  11.365   8.434   9.231  4.3030 -0.7979 -0.5279
  424MOL0     H55968  11.137   8.514   9.145  1.6816  0.3454  1.0474
  425MOL0     O55969   4.696   1.675  10.086  0.2196  0.4010 -0.3969
  425MOL0     C55970   4.753   1.669  10.189 -0.1414 -0.5474  0.0515
  425MOL0     O55971   4.698   1.694  10.312  0.8474 -0.2908 -0.6916
  425MOL0     C55972   4.565   1.716  10.322  0.6786 -0.1703 -0.2047
  425MOL0     C55973   4.481   1.604  10.309  0.4223  0.5092 -0.0166
  425MOL0     C55974   4.345   1.617  10.308  0.5019  0.4326  1.4352
  425MOL0     C55975   4.280   1.739  10.313 -0.4244 -0.1504  0.4581
  425MOL0     O55976   4.143   1.734  10.276 -0.4804 -0.0519  0.5521
  425MOL0     C55977   4.085   1.843  10.199 -0.4957 -0.6119  0.0901
  425MOL0     C55978   3.951   1.892  10.265 -0.3804  0.0393 -0.3904
  425MOL0     C55979   3.843   1.781  10.246 -1.3928 -0.2137  0.3952
  425MOL0     C55980   3.712   1.822  10.309  0.4309 -0.0454  0.1510
  425MOL0     C55981   3.600   1.732  10.259  1.3148 -0.2164  0.1492
  425MOL0     C55982   3.473   1.778  10.340 -0.0433 -0.6062 -0.6957
  425MOL0     C55983   3.351   1.682  10.334  0.9982 -0.6164 -0.0751
  425MOL0     C55984   3.265   1.689  10.205 -0.6350 -0.1828 -0.4056
  425MOL0     N55985   3.175   1.577  10.206 -0.0964  0.8987  0.3683
  425MOL0     C55986   3.041   1.575  10.259  0.0573  0.4277 -0.0622
  425MOL0     C55987   2.989   1.458  10.221 -0.0455  0.2767  0.2942
  425MOL0     C55988   2.841   1.413  10.254  0.8474  0.0246  0.3538
  425MOL0     C55989   2.730   1.500  10.183 -0.5532 -0.5090  0.0732
  425MOL0     C55990   2.704   1.444  10.046 -0.4675  0.1285 -0.9230
  425MOL0     C55991   2.615   1.536   9.960  0.0452  0.2103 -0.0537
  425MOL0     O55992   2.489   1.548  10.026  0.3577  0.1620 -0.0013
  425MOL0     C55993   2.391   1.607   9.950  0.1763 -0.2904  0.6580
  425MOL0     C55994   2.265   1.607  10.017  0.1975 -1.0887  0.4116
  425MOL0     C55995   2.158   1.679   9.963  0.5617  0.9822 -0.0730
  425MOL0     C55996   2.162   1.728   9.830  0.4590 -0.1446 -0.2499
  425MOL0     C55997   2.028   1.791   9.767  0.4925  0.4917 -0.7019
  425MOL0     O55998   1.921   1.828   9.847 -0.4099  0.2394  0.5203
  425MOL0     C55999   1.814   1.898   9.804  0.6024 -1.3647 -0.9815
  425MOL0     C56000   1.709   1.894   9.891  0.5658 -0.9053 -0.4192
  425MOL0     C56001   1.591   1.966   9.867 -1.0608 -0.4576 -0.8678
  425MOL0     C56002   1.578   2.043   9.754 -0.7987 -0.4311 -0.1164
  425MOL0     O56003   1.478   2.123   9.711  0.6325 -0.4168 -0.4972
  425MOL0     C56004   1.351   2.049   9.701 -0.6108 -0.0766 -0.3542
  425MOL0     C56005   1.232   2.115   9.622 -0.3669  0.0128 -0.0618
  425MOL0     C56006   1.152   2.225   9.698  0.0930  0.4527  0.2141
  425MOL0     C56007   1.238   2.344   9.755 -1.1052 -0.0889  0.4970
  425MOL0     C56008   1.159   2.458   9.809 -0.8588 -0.4909  0.3328
  425MOL0     C56009   1.039   2.516   9.722 -0.2984  0.2039 -0.4956
  425MOL0     C56010   0.972   2.642   9.777 -0.4123 -0.4695 -0.1866
  425MOL0     C56011   0.902   2.711   9.666 -0.6965 -0.5919  0.6262
  425MOL0    Cl56012   1.018   2.812   9.553 -0.0907  0.6506 -0.2730
  425MOL0     C56013   1.680   2.031   9.655  0.7445  0.3691  0.3719
  425MOL0     C56014   1.792   1.965   9.679 -0.3599  0.5098  0.5129
  425MOL0     O56015   2.039   1.808   9.653 -0.0291  0.1646  0.9002
  425MOL0     C56016   2.285   1.719   9.768  0.5701 -0.0796  0.5033
  425MOL0     C56017   2.405   1.678   9.831  0.4177 -0.5673  0.4789
  425MOL0     N56018   3.091   1.393  10.152  0.1627  0.6774 -0.1776
  425MOL0     N56019   3.192   1.467  10.142  0.4857  0.3461 -0.4322
  425MOL0     C56020   4.372   1.849  10.338 -0.1363 -0.5527 -0.1883
  425MOL0     C56021   4.512   1.831  10.349  0.3201  0.0918 -0.7295
  425MOL0     C56022   4.902   1.629  10.183 -0.1569  0.2447 -0.8845
  425MOL0     C56023   4.983   1.677  10.292 -0.5082  0.3076  0.3078
  425MOL0     C56024   5.117   1.634  10.311 -0.9185 -0.1320 -0.0252
  425MOL0     C56025   5.174   1.541  10.233  0.1845 -0.9083  0.1102
  425MOL0     O56026   5.303   1.491  10.252 -0.2052 -0.1526  0.0230
  425MOL0     C56027   5.381   1.527  10.363 -0.1484  0.0730 -0.2960
  425MOL0     C56028   5.513   1.449  10.366  0.4074 -0.0445 -0.8602
  425MOL0     C56029   5.494   1.310  10.408 -0.8560 -0.0308 -0.4381
  425MOL0     C56030   5.623   1.239  10.421  0.1617  0.4664 -0.7346
  425MOL0     C56031   5.606   1.095  10.412 -0.0667 -0.0855  0.2089
  425MOL0     C56032   5.575   0.978  10.391  0.0438 -0.9637 -0.0501
  425MOL0     C56033   5.092   1.482  10.129 -0.1932  0.4206 -0.1876
  425MOL0     C56034   4.962   1.532  10.108  0.4270  0.1863 -0.8088
  425MOL0     H56035   4.518   1.502  10.309  1.3429  0.7881  2.0906
  425MOL0     H56036   4.273   1.536  10.295 -0.0880  1.3405 -1.6474
  425MOL0     H56037   4.063   1.801  10.101 -1.3134 -0.1473  0.0652
  425MOL0     H56038   4.151   1.929  10.181 -1.8232  0.0297 -1.9681
  425MOL0     H56039   3.911   1.984  10.221  1.0004  0.3128 -1.1040
  425MOL0     H56040   3.964   1.902  10.373  2.3209 -3.7583 -0.1638
  425MOL0     H56041   3.874   1.687  10.293  0.4791  0.5326  0.7043
  425MOL0     H56042   3.822   1.782  10.138 -0.3758 -0.5060  0.1885
  425MOL0     H56043   3.712   1.823  10.419  0.4200  0.0956  0.1515
  425MOL0     H56044   3.684   1.924  10.280  2.5420 -0.2318 -2.9241
  425MOL0     H56045   3.622   1.627  10.282  1.7946  0.1641  1.5080
  425MOL0     H56046   3.581   1.745  10.152 -3.7853 -3.2534  0.3116
  425MOL0     H56047   3.448   1.882  10.319 -0.5566 -0.0410  2.2835
  425MOL0     H56048   3.504   1.786  10.444  3.6154 -1.8481 -1.5173
  425MOL0     H56049   3.387   1.583  10.362 -0.3824 -1.0465  0.2629
  425MOL0     H56050   3.288   1.719  10.416  3.1199  1.8419  0.5751
  425MOL0     H56051   3.331   1.681  10.118  0.9475 -0.4868  0.7703
  425MOL0     H56052   3.218   1.787  10.195  0.2895  0.1273 -2.0160
  425MOL0     H56053   2.982   1.649  10.312  0.6175  0.1477  0.9959
  425MOL0     H56054   2.836   1.416  10.363  2.7280  0.3276  0.4639
  425MOL0     H56055   2.829   1.311  10.215 -1.0293  0.6721 -0.8958
  425MOL0     H56056   2.762   1.604  10.191  1.2527 -1.0316  0.2867
  425MOL0     H56057   2.638   1.488  10.241 -0.2064 -1.9923  0.3559
  425MOL0     H56058   2.796   1.430   9.987  0.3588  1.6995 -0.0688
  425MOL0     H56059   2.647   1.351  10.053 -1.9862  1.1441  1.5314
  425MOL0     H56060   2.612   1.492   9.860 -1.0079  1.1619 -0.4666
  425MOL0     H56061   2.657   1.634   9.936  0.0049  0.4689  0.8819
  425MOL0     H56062   2.250   1.573  10.119 -2.7308 -2.5977 -0.4100
  425MOL0     H56063   2.074   1.691  10.030 -0.5421 -2.8135 -0.5511
  425MOL0     H56064   1.708   1.830   9.979  0.1585 -0.2326  0.0765
  425MOL0     H56065   1.506   1.957   9.933 -1.3595 -1.0973 -1.3291
  425MOL0     H56066   1.309   2.020   9.798  1.0117 -2.4957 -0.2845
  425MOL0     H56067   1.389   1.965   9.643  2.0363 -1.2605  2.7717
  425MOL0     H56068   1.173   2.034   9.578 -0.2468 -0.5204  0.7416
  425MOL0     H56069   1.276   2.162   9.534  0.5825  1.0184  0.9145
  425MOL0     H56070   1.107   2.168   9.780 -0.9334 -1.5978 -1.6870
  425MOL0     H56071   1.068   2.254   9.635 -3.3642 -2.8855  2.8260
  425MOL0     H56072   1.313   2.302   9.824 -0.1256  0.4919 -0.1937
  425MOL0     H56073   1.300   2.394   9.680 -0.5965 -0.6808  0.5138
  425MOL0     H56074   1.230   2.539   9.828 -0.6405 -0.4342 -0.6978
  425MOL0     H56075   1.134   2.431   9.912  0.7232  0.7160  1.0688
  425MOL0     H56076   0.963   2.441   9.698  0.5439 -1.0081  0.4740
  425MOL0     H56077   1.084   2.536   9.625 -0.9356 -4.0886 -1.9004
  425MOL0     H56078   0.902   2.602   9.851 -1.4420 -0.5191 -1.1646
  425MOL0     H56079   1.050   2.704   9.824  0.0345 -0.5429 -0.8124
  425MOL0     H56080   0.829   2.781   9.707 -0.6457 -1.7746  2.9127
  425MOL0     H56081   0.848   2.630   9.616  0.9338 -2.1670  1.2951
  425MOL0     H56082   1.677   2.071   9.554  0.3184 -1.7684 -0.5095
  425MOL0     H56083   1.877   1.953   9.613 -0.7120  2.7020 -0.4180
  425MOL0     H56084   2.284   1.761   9.667 -2.5361  1.7430  1.1227
  425MOL0     H56085   2.498   1.703   9.781  0.0087  1.5052  0.7009
  425MOL0     H56086   4.342   1.953  10.326  0.9017 -0.0560  1.3202
  425MOL0     H56087   4.580   1.913  10.368  0.8077 -0.7060  1.2912
  425MOL0     H56088   4.941   1.753  10.357  4.0825  0.6510  3.3255
  425MOL0     H56089   5.172   1.672  10.397  0.6081  4.3223 -2.6580
  425MOL0     H56090   5.334   1.502  10.458  1.4015  0.7509  0.6861
  425MOL0     H56091   5.415   1.630  10.348  0.7829 -0.4273 -1.9106
  425MOL0     H56092   5.563   1.444  10.269  1.3729 -1.2142 -0.3318
  425MOL0     H56093   5.576   1.501  10.438  0.5508 -0.7125 -0.4935
  425MOL0     H56094   5.428   1.271  10.330  0.7417 -0.9965 -1.3677
  425MOL0     H56095   5.446   1.316  10.506  1.4327  0.3785  0.7214
  425MOL0     H56096   5.684   1.276  10.338  0.3133 -1.6241 -1.6011
  425MOL0     H56097   5.674   1.271  10.513  0.0715  0.2295 -0.6018
  425MOL0     H56098   5.569   0.875  10.362  0.6358 -1.4168  1.3447
  425MOL0     H56099   5.138   1.408  10.064 -1.5096  0.2663 -0.9902
  425MOL0     H56100   4.905   1.482  10.030  1.1140  0.1516 -1.2972
  426MOL0     O56101   6.305   4.552   7.735 -0.4132  0.9511  0.3016
  426MOL0     C56102   6.386   4.589   7.821  0.7510 -0.0318  0.0714
  426MOL0     O56103   6.358   4.644   7.942  0.3418 -0.6975  0.5997
  426MOL0     C56104   6.223   4.670   7.974 -0.3708 -0.7672  0.8292
  426MOL0     C56105   6.142   4.756   7.890  0.5678  0.9501 -0.1940
  426MOL0     C56106   6.016   4.786   7.943 -0.3232 -0.4032 -0.6082
  426MOL0     C56107   5.971   4.745   8.069  0.2988  0.6560 -0.1826
  426MOL0     O56108   5.851   4.787   8.123  0.4400 -0.4380 -0.2754
  426MOL0     C56109   5.759   4.861   8.044  0.0460  0.4094 -0.4903
  426MOL0     C56110   5.623   4.860   8.112 -1.1512 -0.3913 -0.0189
  426MOL0     C56111   5.517   4.923   8.022  0.2155  0.1407 -1.0905
  426MOL0     C56112   5.374   4.932   8.092 -0.9923  0.3124 -0.4135
  426MOL0     C56113   5.270   4.988   8.003 -0.1678 -0.1831 -0.1332
  426MOL0     C56114   5.287   5.135   7.965 -0.2728  0.3128 -0.3097
  426MOL0     C56115   5.171   5.177   7.874  0.0268  0.1556  0.1862
  426MOL0     C56116   5.198   5.162   7.719  0.1568  0.3194  0.2580
  426MOL0     N56117   5.308   5.252   7.677  0.2799  0.0229  0.1347
  426MOL0     C56118   5.293   5.388   7.656 -0.3269  0.1835  0.8047
  426MOL0     C56119   5.421   5.432   7.634 -0.2535  0.5618 -0.5027
  426MOL0     C56120   5.467   5.568   7.593 -0.5233 -0.4185 -0.2364
  426MOL0     C56121   5.533   5.633   7.714 -0.1683  0.5625  0.2844
  426MOL0     C56122   5.426   5.703   7.800 -0.2591 -0.6818 -0.7760
  426MOL0     C56123   5.484   5.800   7.897  0.2707  0.3027  1.1343
  426MOL0     O56124   5.380   5.883   7.956 -0.1920 -0.0853  0.1294
  426MOL0     C56125   5.425   5.995   8.020  0.0952 -0.4402  0.4676
  426MOL0     C56126   5.350   6.112   8.003  0.2203 -0.9939 -0.2591
  426MOL0     C56127   5.391   6.228   8.071 -0.0266  0.5697  0.3400
  426MOL0     C56128   5.488   6.227   8.165 -0.8414  0.0886 -0.1553
  426MOL0     C56129   5.510   6.350   8.251 -0.6480 -0.5292 -0.1656
  426MOL0     O56130   5.602   6.345   8.349 -0.3583 -0.3120 -0.2903
  426MOL0     C56131   5.628   6.453   8.431 -0.1647  0.6066  0.8243
  426MOL0     C56132   5.537   6.546   8.490 -0.3397 -0.1141  0.7595
  426MOL0     C56133   5.583   6.638   8.581 -0.0999  0.5053 -0.2860
  426MOL0     C56134   5.713   6.633   8.635 -0.8859  1.0787  0.3962
  426MOL0     O56135   5.733   6.709   8.744  0.2187 -0.5231  0.4667
  426MOL0     C56136   5.856   6.693   8.825 -0.1920  0.0843 -0.9206
  426MOL0     C56137   5.868   6.821   8.907  0.1994 -0.0683  0.8181
  426MOL0     C56138   5.917   6.934   8.810  1.0017  0.6594  0.9401
  426MOL0     C56139   5.942   7.061   8.887  0.6162  0.3808 -0.0916
  426MOL0     C56140   5.959   7.180   8.775 -0.6901 -0.1424  0.0120
  426MOL0     C56141   5.960   7.313   8.857 -0.5296  0.4232 -0.0408
  426MOL0     C56142   5.956   7.437   8.774  0.2908  0.2668  0.0326
  426MOL0     C56143   6.092   7.457   8.713  0.2813 -0.4779  0.4386
  426MOL0    Cl56144   6.232   7.472   8.836  0.3275  0.4218  0.2558
  426MOL0     C56145   5.798   6.538   8.583  0.2130  0.3676 -0.1218
  426MOL0     C56146   5.756   6.447   8.487 -0.4000 -0.6754  0.2140
  426MOL0     O56147   5.454   6.454   8.208  0.1096 -0.3416 -0.7638
  426MOL0     C56148   5.571   6.117   8.176 -0.2491  0.4444  0.5918
  426MOL0     C56149   5.539   6.007   8.090 -0.7764 -0.2325 -1.3054
  426MOL0     N56150   5.510   5.323   7.659  0.0210 -0.8683  0.0447
  426MOL0     N56151   5.443   5.217   7.678  0.4806 -0.3932  0.8030
  426MOL0     C56152   6.045   4.656   8.138  0.3670 -0.1522 -0.0360
  426MOL0     C56153   6.170   4.618   8.091  0.8644 -0.4970 -0.7734
  426MOL0     C56154   6.526   4.561   7.796  0.1378 -0.0514  0.8323
  426MOL0     C56155   6.628   4.555   7.892 -0.4048 -0.2319 -0.2091
  426MOL0     C56156   6.753   4.508   7.852 -0.8637  1.1935  0.7730
  426MOL0     C56157   6.783   4.470   7.725  0.3500  0.3063  1.2242
  426MOL0     O56158   6.910   4.426   7.710  0.1265  0.6142 -0.1276
  426MOL0     C56159   6.945   4.391   7.580  0.6230 -0.0768  0.2342
  426MOL0     C56160   7.089   4.325   7.578  0.4923 -0.2129 -0.7358
  426MOL0     C56161   7.198   4.431   7.626  0.9985  0.2693 -0.3794
  426MOL0     C56162   7.326   4.358   7.611  0.6610  0.1210 -0.3311
  426MOL0     C56163   7.444   4.434   7.666  0.5526  0.7271  0.2967
  426MOL0     C56164   7.539   4.503   7.700  0.2416 -0.8117  0.1327
  426MOL0     C56165   6.683   4.479   7.628  0.0069 -1.0978  0.4496
  426MOL0     C56166   6.560   4.534   7.661  0.3355 -0.3757 -0.2515
  426MOL0     H56167   6.190   4.781   7.796  1.1243 -1.9798 -0.7775
  426MOL0     H56168   5.958   4.854   7.882 -0.3843  0.2259  0.1357
  426MOL0     H56169   5.744   4.816   7.946  0.0230  1.2664 -0.8859
  426MOL0     H56170   5.790   4.966   8.036 -2.5215  1.4826  1.9153
  426MOL0     H56171   5.632   4.924   8.200 -2.0843  0.4694 -0.5208
  426MOL0     H56172   5.593   4.761   8.149  1.7504 -0.6024  2.0992
  426MOL0     H56173   5.502   4.857   7.935 -0.4834 -1.3295  0.0988
  426MOL0     H56174   5.560   5.021   7.998 -1.4581  1.0657 -0.4274
  426MOL0     H56175   5.352   4.831   8.128  3.5824 -1.4199 -1.6861
  426MOL0     H56176   5.374   4.989   8.185 -0.5360 -1.7339  0.9062
  426MOL0     H56177   5.185   4.979   8.072  0.6699  2.4976  1.4194
  426MOL0     H56178   5.264   4.932   7.910 -1.0585  1.3516 -1.0467
  426MOL0     H56179   5.384   5.147   7.915 -0.9791  1.4101 -1.4483
  426MOL0     H56180   5.289   5.186   8.062  3.9001 -3.2991  1.8871
  426MOL0     H56181   5.083   5.124   7.910  0.7047  1.5370  4.3616
  426MOL0     H56182   5.149   5.284   7.887 -2.0923 -0.1853 -0.1876
  426MOL0     H56183   5.105   5.179   7.663  1.6558 -0.0494 -2.5230
  426MOL0     H56184   5.230   5.060   7.696  0.3263  0.6350 -0.9822
  426MOL0     H56185   5.203   5.448   7.663  0.4835  1.6576 -0.7150
  426MOL0     H56186   5.387   5.630   7.552  0.6246 -0.2998 -2.4306
  426MOL0     H56187   5.536   5.565   7.509  0.4090  0.3085  0.4746
  426MOL0     H56188   5.609   5.707   7.686  0.4878 -0.5506 -0.9781
  426MOL0     H56189   5.584   5.559   7.777  2.3638  3.0074  1.3730
  426MOL0     H56190   5.354   5.760   7.740  0.5454  1.7115  0.3787
  426MOL0     H56191   5.371   5.629   7.859 -0.0026  1.1758  2.0005
  426MOL0     H56192   5.561   5.858   7.844 -0.2678 -0.3885 -0.4850
  426MOL0     H56193   5.531   5.729   7.966 -1.1937 -1.7006  0.1625
  426MOL0     H56194   5.264   6.117   7.938  0.4875  2.7970 -0.5295
  426MOL0     H56195   5.329   6.314   8.048 -1.3155 -0.7104 -1.2286
  426MOL0     H56196   5.433   6.549   8.461 -0.2445 -1.6474  0.1212
  426MOL0     H56197   5.515   6.714   8.617 -1.2594 -0.9808  0.7595
  426MOL0     H56198   5.945   6.702   8.763 -0.7885  0.8066 -1.6924
  426MOL0     H56199   5.860   6.605   8.890  2.8745  1.2486  0.6823
  426MOL0     H56200   5.928   6.813   8.999  2.0030 -1.1618 -0.3969
  426MOL0     H56201   5.765   6.850   8.933  0.2791 -0.1250  1.2000
  426MOL0     H56202   5.842   6.949   8.732  1.5638  0.0079  0.2514
  426MOL0     H56203   6.008   6.900   8.758  1.6757 -1.7683  3.4822
  426MOL0     H56204   5.855   7.082   8.949 -1.9756  0.9713 -3.6111
  426MOL0     H56205   6.029   7.049   8.952  0.5234  1.3765  0.2279
  426MOL0     H56206   5.870   7.164   8.713  0.6691  0.1801 -2.0878
  426MOL0     H56207   6.050   7.184   8.716 -0.6098  3.7096  0.1658
  426MOL0     H56208   6.045   7.326   8.926 -2.5081  1.0054  2.4187
  426MOL0     H56209   5.874   7.318   8.924 -1.6937  0.4825 -1.5055
  426MOL0     H56210   5.878   7.427   8.699  0.1096  2.6470 -0.1745
  426MOL0     H56211   5.926   7.525   8.832 -1.1987  0.5886 -1.1913
  426MOL0     H56212   6.090   7.552   8.659 -0.6853 -1.4937 -1.4141
  426MOL0     H56213   6.116   7.381   8.639  0.0204  0.5390 -0.7196
  426MOL0     H56214   5.898   6.532   8.626 -0.8915 -0.2529  2.5530
  426MOL0     H56215   5.813   6.357   8.468  0.0692 -0.4121  0.3524
  426MOL0     H56216   5.647   6.130   8.252 -0.2308  1.4835  0.4128
  426MOL0     H56217   5.594   5.917   8.112 -0.9757  0.0856  0.6594
  426MOL0     H56218   5.994   4.621   8.227  2.0062 -0.1528  0.9464
  426MOL0     H56219   6.238   4.562   8.154  1.1380 -1.6403 -2.0331
  426MOL0     H56220   6.610   4.580   7.996 -3.8239 -0.4176 -0.6252
  426MOL0     H56221   6.835   4.516   7.923  0.7295 -1.9728 -0.5365
  426MOL0     H56222   6.943   4.479   7.515 -0.9422 -2.4312 -3.1771
  426MOL0     H56223   6.875   4.310   7.559 -1.9982  1.8065  1.2597
  426MOL0     H56224   7.085   4.241   7.649  2.4231  0.8729  0.7439
  426MOL0     H56225   7.117   4.281   7.481  2.2944 -2.8811  0.8341
  426MOL0     H56226   7.182   4.459   7.731 -1.9489  0.8038 -0.8951
  426MOL0     H56227   7.202   4.520   7.562  4.2708  1.1433  0.8556
  426MOL0     H56228   7.316   4.259   7.658  0.3157  0.3797  0.1467
  426MOL0     H56229   7.342   4.349   7.503  1.7578 -0.8065 -0.1165
  426MOL0     H56230   7.625   4.558   7.731  0.0238 -0.1432 -0.4100
  426MOL0     H56231   6.697   4.448   7.525  2.2268  0.6409  0.1649
  426MOL0     H56232   6.486   4.551   7.584 -2.0474  2.1287  2.3683
  427MOL0     O56233   7.357   3.356   3.999  0.5790  0.4999  0.2140
  427MOL0     C56234   7.321   3.263   4.071  0.3938 -0.3217 -0.0628
  427MOL0     O56235   7.193   3.221   4.096 -0.6288  0.1807 -0.0856
  427MOL0     C56236   7.077   3.286   4.044  0.2858  0.5459  0.1411
  427MOL0     C56237   7.065   3.380   3.933 -0.2915 -0.2052 -0.8941
  427MOL0     C56238   6.944   3.435   3.893  0.4628 -0.4311 -0.0620
  427MOL0     C56239   6.829   3.405   3.953 -0.1727 -0.2122  0.3397
  427MOL0     O56240   6.712   3.453   3.912 -0.2485  0.0664  0.5367
  427MOL0     C56241   6.625   3.346   3.883  0.1878 -0.1479  0.1114
  427MOL0     C56242   6.482   3.398   3.857 -0.1730  0.1381  1.0355
  427MOL0     C56243   6.376   3.285   3.855  0.4986  0.7107 -0.6532
  427MOL0     C56244   6.254   3.375   3.870 -0.2987 -0.0769  0.2117
  427MOL0     C56245   6.126   3.298   3.883  1.5387  0.2247 -0.1920
  427MOL0     C56246   6.074   3.227   3.758 -0.7085  0.0617 -0.1721
  427MOL0     C56247   5.923   3.200   3.758 -0.1122 -0.1543 -0.0183
  427MOL0     C56248   5.886   3.080   3.843  0.2104 -0.2602 -0.1009
  427MOL0     N56249   5.739   3.069   3.842  0.2051  0.6770  0.8665
  427MOL0     C56250   5.644   3.147   3.770  0.6278 -0.4886 -0.5600
  427MOL0     C56251   5.524   3.112   3.824  0.1776 -0.0699 -0.5250
  427MOL0     C56252   5.379   3.152   3.791 -0.9737  0.4088 -0.0075
  427MOL0     C56253   5.297   3.221   3.909  0.0450  0.4225  0.6184
  427MOL0     C56254   5.154   3.168   3.925 -0.9628  0.6923 -0.1820
  427MOL0     C56255   5.074   3.214   3.800  0.4569  0.5186 -0.6292
  427MOL0     O56256   4.972   3.301   3.841  0.3770 -0.1459  0.5020
  427MOL0     C56257   4.843   3.250   3.848  0.2561 -0.7050 -0.6382
  427MOL0     C56258   4.756   3.319   3.771 -0.2404  0.4288  0.4525
  427MOL0     C56259   4.622   3.274   3.782 -0.5926  0.2409  0.0851
  427MOL0     C56260   4.574   3.180   3.872  0.4679  0.7187 -0.3765
  427MOL0     C56261   4.427   3.155   3.901  0.0688 -0.6240 -0.1003
  427MOL0     O56262   4.338   3.241   3.841  0.4728  0.5451  0.5392
  427MOL0     C56263   4.202   3.232   3.867 -0.2073 -0.2871  0.1643
  427MOL0     C56264   4.143   3.201   3.996 -0.3311  0.1292  0.8007
  427MOL0     C56265   4.009   3.173   4.001  0.6613 -0.1163  0.2061
  427MOL0     C56266   3.927   3.185   3.896  0.8063 -0.1020 -0.0069
  427MOL0     O56267   3.795   3.156   3.904 -0.7570 -0.0712  0.6483
  427MOL0     C56268   3.697   3.191   3.811  0.1605  0.4343  0.2728
  427MOL0     C56269   3.564   3.157   3.871 -0.9446 -0.1505 -0.5125
  427MOL0     C56270   3.449   3.154   3.774 -0.2393  0.2677 -0.0696
  427MOL0     C56271   3.319   3.099   3.842 -0.5589  0.0458 -0.3629
  427MOL0     C56272   3.209   3.106   3.737  0.0606  0.4021 -0.2351
  427MOL0     C56273   3.126   2.975   3.753 -0.1228  0.0895  0.0717
  427MOL0     C56274   3.014   2.953   3.675 -0.0736  0.2406  0.6809
  427MOL0     C56275   2.924   3.067   3.642  0.3869  0.3578 -0.4553
  427MOL0    Cl56276   2.777   2.986   3.567  0.2462 -0.6158 -0.3149
  427MOL0     C56277   3.976   3.231   3.770 -0.8533 -0.0718  0.1180
  427MOL0     C56278   4.120   3.251   3.756  0.0504  0.3024  0.5869
  427MOL0     O56279   4.400   3.066   3.973  0.1035 -0.5502 -0.2866
  427MOL0     C56280   4.673   3.108   3.943  0.1132 -0.2396  1.2052
  427MOL0     C56281   4.803   3.136   3.926 -0.2365 -0.3179  0.2943
  427MOL0     N56282   5.552   3.013   3.914  0.3455 -0.3773 -0.4141
  427MOL0     N56283   5.677   2.977   3.914 -0.0720 -0.6251 -0.1721
  427MOL0     C56284   6.835   3.320   4.066 -0.3378  0.1089  1.0754
  427MOL0     C56285   6.950   3.262   4.098  0.1881  0.0020 -0.0851
  427MOL0     C56286   7.426   3.189   4.140  0.9686 -0.0635 -0.4430
  427MOL0     C56287   7.397   3.105   4.245 -0.1692  0.4842 -0.4093
  427MOL0     C56288   7.515   3.034   4.295  0.9501  0.0315  0.2325
  427MOL0     C56289   7.646   3.058   4.250  0.3541  0.8857  0.6897
  427MOL0     O56290   7.740   2.987   4.321 -0.6127 -0.3208  0.2907
  427MOL0     C56291   7.881   3.017   4.291  0.1876  0.0345 -0.5999
  427MOL0     C56292   7.963   2.977   4.412  0.4265  0.5615  0.1041
  427MOL0     C56293   8.109   3.019   4.398  0.3323  0.4724 -0.0638
  427MOL0     C56294   8.181   2.940   4.284 -0.1355 -0.3212 -0.4972
  427MOL0     C56295   8.326   2.957   4.282 -0.0534 -0.6554  0.1086
  427MOL0     C56296   8.450   2.947   4.278  0.1844  0.2172  0.4323
  427MOL0     C56297   7.661   3.143   4.140 -0.0195  0.2361  0.1572
  427MOL0     C56298   7.552   3.206   4.086  0.4563  0.6490  0.6831
  427MOL0     H56299   7.153   3.412   3.879  0.2612 -0.1785  0.0072
  427MOL0     H56300   6.942   3.497   3.804  0.1063  1.6635  1.3246
  427MOL0     H56301   6.620   3.264   3.955  1.0257 -2.0426 -1.8791
  427MOL0     H56302   6.653   3.301   3.787 -3.1099 -0.5470 -0.7957
  427MOL0     H56303   6.485   3.446   3.759  1.5139 -1.9562 -0.0377
  427MOL0     H56304   6.461   3.483   3.922  1.6948  1.9490 -0.5795
  427MOL0     H56305   6.386   3.226   3.946 -1.3321  1.6752  0.2410
  427MOL0     H56306   6.370   3.209   3.777 -0.6633 -0.4495  0.5222
  427MOL0     H56307   6.264   3.430   3.964 -4.6287  0.6580  0.4737
  427MOL0     H56308   6.250   3.452   3.792  1.6181  0.9810  1.0944
  427MOL0     H56309   6.052   3.377   3.902 -1.1044 -2.4997  1.8822
  427MOL0     H56310   6.128   3.237   3.974  1.2568 -1.2840 -1.1792
  427MOL0     H56311   6.126   3.133   3.734 -2.2716 -1.6042  2.4526
  427MOL0     H56312   6.095   3.281   3.665 -0.7014  1.6393  0.7115
  427MOL0     H56313   5.870   3.287   3.796  0.8840  0.8385 -0.8469
  427MOL0     H56314   5.909   3.181   3.651  0.1731 -2.0085  0.2364
  427MOL0     H56315   5.911   3.087   3.949 -2.8805 -0.1921  0.7231
  427MOL0     H56316   5.927   2.987   3.802  2.8293  0.1981  1.2505
  427MOL0     H56317   5.665   3.220   3.693  2.3202 -0.7948 -0.4310
  427MOL0     H56318   5.332   3.054   3.776 -0.1334 -0.3273  1.8057
  427MOL0     H56319   5.384   3.210   3.699  4.7029  0.0070 -0.3074
  427MOL0     H56320   5.299   3.330   3.897 -1.0606  0.2372 -1.9914
  427MOL0     H56321   5.346   3.202   4.005  0.9295  1.4202  0.3927
  427MOL0     H56322   5.147   3.060   3.936 -2.8036  0.9521  2.1293
  427MOL0     H56323   5.104   3.208   4.014  0.0933 -1.7750  1.6103
  427MOL0     H56324   5.036   3.115   3.773  0.2874  0.0671  1.1063
  427MOL0     H56325   5.136   3.251   3.719  0.7396  1.2413 -0.0984
  427MOL0     H56326   4.793   3.405   3.715 -0.4453  1.5154  1.9273
  427MOL0     H56327   4.547   3.331   3.728  0.1929 -0.3290 -1.6774
  427MOL0     H56328   4.214   3.184   4.076 -0.3872  1.3497  1.1271
  427MOL0     H56329   3.963   3.138   4.093  1.0635 -0.5789  0.2358
  427MOL0     H56330   3.712   3.129   3.722 -0.0962 -0.7697  1.0484
  427MOL0     H56331   3.697   3.297   3.785  0.5001  0.8580  1.9080
  427MOL0     H56332   3.534   3.229   3.949  0.9240  0.7097 -0.5297
  427MOL0     H56333   3.572   3.059   3.918  0.3311 -0.0977 -0.5918
  427MOL0     H56334   3.477   3.097   3.685  1.2740 -0.6563  0.9707
  427MOL0     H56335   3.422   3.258   3.749 -2.6301 -0.4674 -0.8647
  427MOL0     H56336   3.344   2.998   3.874  0.0876  0.9097  2.1063
  427MOL0     H56337   3.285   3.149   3.933 -2.6726  1.0275 -1.6069
  427MOL0     H56338   3.251   3.094   3.637 -2.3451  0.9120 -1.3619
  427MOL0     H56339   3.166   3.204   3.716  0.2296  0.3428 -0.8820
  427MOL0     H56340   3.101   2.951   3.857  0.4546 -1.4075 -0.1104
  427MOL0     H56341   3.190   2.890   3.730  1.1875  1.1816 -0.4588
  427MOL0     H56342   3.043   2.913   3.577  0.9261  1.8792  0.2732
  427MOL0     H56343   2.960   2.876   3.729  2.9444  0.1616  3.9580
  427MOL0     H56344   2.961   3.144   3.574  1.2116 -1.1910 -1.8233
  427MOL0     H56345   2.878   3.107   3.733  0.7428  0.8030 -0.4662
  427MOL0     H56346   3.915   3.243   3.681 -1.1780  1.5922  0.5337
  427MOL0     H56347   4.169   3.282   3.665  2.9292 -1.1327  1.5062
  427MOL0     H56348   4.658   3.036   4.023 -1.5685  0.9635  2.0325
  427MOL0     H56349   4.877   3.079   3.982  0.2148  1.6582  1.8478
  427MOL0     H56350   6.747   3.283   4.119  1.0503 -0.6291  3.0016
  427MOL0     H56351   6.948   3.191   4.181  2.8536 -0.0532 -0.0062
  427MOL0     H56352   7.302   3.094   4.295  0.8815 -0.9921  1.3472
  427MOL0     H56353   7.515   2.975   4.386  1.4587  2.5157  1.9407
  427MOL0     H56354   7.895   3.124   4.275  0.3412  0.4415  1.9437
  427MOL0     H56355   7.906   2.964   4.198  0.8931 -0.8174  0.0538
  427MOL0     H56356   7.935   3.020   4.508 -2.0153 -2.3418  0.8816
  427MOL0     H56357   7.954   2.870   4.434 -1.9198  0.2687 -1.7415
  427MOL0     H56358   8.152   2.985   4.492  2.4314 -1.2952 -1.5738
  427MOL0     H56359   8.109   3.128   4.386 -0.7726  0.2366 -3.4226
  427MOL0     H56360   8.165   2.835   4.311  2.3420 -0.1478  2.2557
  427MOL0     H56361   8.140   2.969   4.187 -2.0745  1.4609  0.7674
  427MOL0     H56362   8.555   2.927   4.269  0.3475  1.1207  0.1328
  427MOL0     H56363   7.760   3.141   4.096  1.5622 -2.5830  3.3583
  427MOL0     H56364   7.577   3.270   4.002  0.4168  0.4848  0.5426
  428MOL0     O56365   8.082   6.656   3.465 -1.0468  0.1878  0.2210
  428MOL0     C56366   8.152   6.755   3.434  0.0706 -0.0039  0.2106
  428MOL0     O56367   8.117   6.856   3.341 -0.4769  0.3681 -0.3815
  428MOL0     C56368   7.993   6.847   3.284  0.0527  0.3816  0.6882
  428MOL0     C56369   7.983   6.848   3.142  0.4685  0.3465 -0.2280
  428MOL0     C56370   7.852   6.847   3.082 -0.0992 -0.0765 -0.3163
  428MOL0     C56371   7.732   6.852   3.159 -0.6222 -0.3403 -0.0501
  428MOL0     O56372   7.607   6.863   3.101  0.8613 -0.2506  0.8885
  428MOL0     C56373   7.599   6.786   2.978  0.5394  1.2109  0.0335
  428MOL0     C56374   7.453   6.745   2.945 -0.2188  0.2314 -0.1684
  428MOL0     C56375   7.402   6.798   2.811 -0.0412 -0.6814 -0.6127
  428MOL0     C56376   7.265   6.729   2.776 -0.1522 -0.8285  0.9597
  428MOL0     C56377   7.205   6.786   2.642 -0.5429 -0.6814 -0.4600
  428MOL0     C56378   7.254   6.710   2.515  0.0607  0.5681 -0.0579
  428MOL0     C56379   7.177   6.744   2.389 -0.0141  0.0503 -0.1563
  428MOL0     C56380   7.207   6.658   2.256  0.2644  0.0821 -0.0291
  428MOL0     N56381   7.104   6.689   2.167 -0.2672  0.1938 -0.0347
  428MOL0     C56382   7.084   6.811   2.101  0.2331  0.3441 -1.1287
  428MOL0     C56383   6.976   6.794   2.029 -0.1886  0.1108  0.6193
  428MOL0     C56384   6.907   6.898   1.959  0.0048 -1.0760  0.4318
  428MOL0     C56385   6.845   6.832   1.830  0.1848 -0.4910 -1.4585
  428MOL0     C56386   6.786   6.951   1.750  0.5971 -0.3855  0.7899
  428MOL0     C56387   6.701   6.894   1.625 -0.0940  0.1906  0.2658
  428MOL0     O56388   6.608   6.994   1.590  0.1594  0.2699 -0.0646
  428MOL0     C56389   6.540   7.013   1.474  0.0009  0.2077 -0.9854
  428MOL0     C56390   6.435   7.099   1.492  0.3055 -0.8658  0.4786
  428MOL0     C56391   6.355   7.129   1.389  0.2512  0.1788  0.6395
  428MOL0     C56392   6.361   7.068   1.264 -0.6657 -0.3273 -0.0249
  428MOL0     C56393   6.264   7.079   1.158  0.3806 -0.8143 -0.6883
  428MOL0     O56394   6.292   6.996   1.048  0.5878  0.6496 -0.5229
  428MOL0     C56395   6.202   6.962   0.952  0.5841  0.4557 -0.9572
  428MOL0     C56396   6.065   6.969   0.968  1.0027  0.4350  0.6469
  428MOL0     C56397   5.964   6.949   0.871  0.2386 -0.1883  0.5626
  428MOL0     C56398   6.008   6.910   0.749 -0.0521 -1.0765  0.1134
  428MOL0     O56399   5.927   6.892   0.646  0.3190  0.2280  0.0232
  428MOL0     C56400   5.851   6.775   0.639  0.8466  0.8481  0.7285
  428MOL0     C56401   5.713   6.778   0.719  0.0366 -0.3030  0.6530
  428MOL0     C56402   5.637   6.907   0.675 -0.1490  0.0337 -0.4992
  428MOL0     C56403   5.492   6.886   0.712 -0.3507  0.0153  0.9159
  428MOL0     C56404   5.414   7.017   0.692 -1.4570 -0.7424  0.4230
  428MOL0     C56405   5.265   6.985   0.709 -0.2943 -0.6411 -0.7666
  428MOL0     C56406   5.189   7.104   0.636  0.4042  0.7020 -0.9108
  428MOL0     C56407   5.180   7.227   0.725 -0.5157  0.0961  0.3841
  428MOL0    Cl56408   5.078   7.189   0.863 -0.0218 -0.0427 -0.5303
  428MOL0     C56409   6.140   6.892   0.724  0.7067 -0.5246 -0.2759
  428MOL0     C56410   6.241   6.913   0.825  1.1621 -0.1007  0.0380
  428MOL0     O56411   6.174   7.164   1.165 -0.4113  0.1415  0.7201
  428MOL0     C56412   6.476   6.976   1.246  0.2410 -0.6756  0.2394
  428MOL0     C56413   6.562   6.950   1.353 -0.4319 -0.3560 -0.0759
  428MOL0     N56414   6.929   6.669   2.044  0.2741  0.6733 -0.0575
  428MOL0     N56415   7.006   6.608   2.129 -0.4261  0.7273  0.5738
  428MOL0     C56416   7.744   6.851   3.299 -0.5418 -0.4948  0.3351
  428MOL0     C56417   7.879   6.842   3.361 -0.0331 -0.1465 -0.0617
  428MOL0     C56418   8.284   6.753   3.477 -0.4330  0.3912  0.0368
  428MOL0     C56419   8.333   6.635   3.536 -0.0226  0.2831  0.8848
  428MOL0     C56420   8.461   6.642   3.584 -0.3876  0.4037 -0.4709
  428MOL0     C56421   8.548   6.748   3.568  1.3051  0.6082  0.2133
  428MOL0     O56422   8.672   6.722   3.608 -0.7041 -0.3961 -0.2526
  428MOL0     C56423   8.768   6.833   3.609  0.0561  0.2813 -0.1362
  428MOL0     C56424   8.880   6.817   3.712 -0.0552  0.8081 -0.2526
  428MOL0     C56425   8.995   6.918   3.694  0.2519 -0.2289  0.0105
  428MOL0     C56426   9.110   6.893   3.792 -0.1869 -0.0850  0.0477
  428MOL0     C56427   9.192   7.013   3.811  1.0995 -1.0383  0.0171
  428MOL0     C56428   9.227   7.126   3.810  0.0230  0.6824  0.9653
  428MOL0     C56429   8.496   6.864   3.510  0.5976  1.0853 -0.8171
  428MOL0     C56430   8.363   6.867   3.472  0.1262  0.7377  0.4128
  428MOL0     H56431   8.078   6.871   3.097  0.9101  2.2279  1.5035
  428MOL0     H56432   7.852   6.863   2.974 -1.1998  0.4223 -0.2606
  428MOL0     H56433   7.663   6.697   2.977  2.2561  2.3738 -2.6201
  428MOL0     H56434   7.642   6.846   2.897  0.8565  0.6153 -0.2454
  428MOL0     H56435   7.390   6.784   3.026 -0.4311 -1.9155  0.7805
  428MOL0     H56436   7.440   6.637   2.941 -2.2658  0.4364 -0.1788
  428MOL0     H56437   7.469   6.783   2.725  1.1887  0.7560  0.0589
  428MOL0     H56438   7.401   6.907   2.819 -0.6756 -0.7394  0.1951
  428MOL0     H56439   7.270   6.620   2.766 -1.0134 -1.0123  2.3290
  428MOL0     H56440   7.196   6.752   2.857  0.1494 -0.9585  1.2571
  428MOL0     H56441   7.215   6.894   2.636 -4.5788 -0.1563 -1.1506
  428MOL0     H56442   7.096   6.778   2.631 -0.2653 -2.7639 -2.5581
  428MOL0     H56443   7.239   6.605   2.543 -0.5644  0.9431  1.0814
  428MOL0     H56444   7.359   6.733   2.495  0.6110 -1.3013  0.4251
  428MOL0     H56445   7.069   6.741   2.403 -0.1710  1.7385 -0.8149
  428MOL0     H56446   7.195   6.851   2.377 -1.3783  0.4478  1.0798
  428MOL0     H56447   7.211   6.552   2.283  3.3970  0.4124  1.2303
  428MOL0     H56448   7.308   6.686   2.224 -0.5696  0.8346 -2.1794
  428MOL0     H56449   7.137   6.904   2.121 -2.1447  1.8301 -1.4189
  428MOL0     H56450   6.977   6.979   1.934 -3.5002  1.7583 -1.0087
  428MOL0     H56451   6.835   6.948   2.023  3.1995  2.6785  1.4848
  428MOL0     H56452   6.765   6.763   1.859 -1.4062  0.0524 -4.2450
  428MOL0     H56453   6.921   6.779   1.773 -0.2408  0.0100 -2.5060
  428MOL0     H56454   6.722   7.008   1.818 -1.7576 -2.2195  0.2563
  428MOL0     H56455   6.858   7.021   1.706 -1.3746  3.1647  2.6902
  428MOL0     H56456   6.646   6.803   1.650  0.8083 -0.3861  0.1903
  428MOL0     H56457   6.758   6.859   1.538 -0.3430  0.3050  0.0574
  428MOL0     H56458   6.419   7.138   1.592  0.4211  1.4979 -0.3751
  428MOL0     H56459   6.267   7.191   1.400 -0.7624 -1.4357  2.0272
  428MOL0     H56460   6.028   7.007   1.063  0.7499 -0.5210  0.9374
  428MOL0     H56461   5.858   6.969   0.885 -0.5358 -3.1110 -0.3892
  428MOL0     H56462   5.923   6.696   0.663 -1.3845 -1.8838 -0.9751
  428MOL0     H56463   5.815   6.766   0.536 -3.8840 -0.3700  2.2211
  428MOL0     H56464   5.735   6.781   0.826 -0.8492  0.7849  0.8280
  428MOL0     H56465   5.653   6.689   0.698  1.2856 -1.6186  2.4307
  428MOL0     H56466   5.647   6.923   0.568  1.5633  4.5591  0.1170
  428MOL0     H56467   5.679   6.996   0.722 -0.1979 -0.4028  0.4031
  428MOL0     H56468   5.454   6.818   0.635  1.7720 -1.2842  0.9414
  428MOL0     H56469   5.477   6.840   0.810 -0.0131  0.4616  1.1836
  428MOL0     H56470   5.437   7.069   0.599 -1.6782  2.5817  2.0740
  428MOL0     H56471   5.451   7.096   0.759  0.9237 -0.3423 -1.2345
  428MOL0     H56472   5.245   6.961   0.814 -1.0107  1.0448 -0.4827
  428MOL0     H56473   5.256   6.901   0.640  1.6591 -0.5720 -1.1631
  428MOL0     H56474   5.237   7.132   0.541  5.0857  0.6958  1.1898
  428MOL0     H56475   5.089   7.067   0.612  0.1803 -0.6730  1.8266
  428MOL0     H56476   5.131   7.312   0.677 -1.1651  0.2229  1.2565
  428MOL0     H56477   5.280   7.255   0.761  0.3208  0.2586 -1.9139
  428MOL0     H56478   6.160   6.866   0.621  0.5477 -0.2673 -0.3736
  428MOL0     H56479   6.346   6.893   0.809  1.9576  2.4056  1.5361
  428MOL0     H56480   6.490   6.918   1.156 -2.3057  0.1430 -0.7714
  428MOL0     H56481   6.650   6.887   1.338 -0.0333  0.2894 -0.4890
  428MOL0     H56482   7.651   6.856   3.355 -1.3649 -3.5320 -0.5867
  428MOL0     H56483   7.885   6.846   3.469 -1.1717  3.1581  0.0175
  428MOL0     H56484   8.275   6.546   3.558  0.5485  0.0430  1.4479
  428MOL0     H56485   8.505   6.554   3.631  0.5977  3.1362  4.3975
  428MOL0     H56486   8.723   6.931   3.626  0.6889  0.2859  1.7352
  428MOL0     H56487   8.819   6.825   3.513 -0.4264 -3.2385 -0.2158
  428MOL0     H56488   8.839   6.834   3.813 -0.3070  0.3605 -0.2798
  428MOL0     H56489   8.929   6.719   3.705 -0.3110  0.4938  1.6427
  428MOL0     H56490   8.965   7.023   3.688  1.5770  0.0673 -2.6660
  428MOL0     H56491   9.031   6.909   3.592 -0.4654  0.0150 -0.2738
  428MOL0     H56492   9.068   6.858   3.887  3.2046 -2.8915  0.7534
  428MOL0     H56493   9.176   6.813   3.757 -1.2691 -0.7677 -0.4689
  428MOL0     H56494   9.261   7.227   3.823  1.9527 -0.1304  2.8843
  428MOL0     H56495   8.549   6.959   3.500  0.4934  1.3255  0.7369
  428MOL0     H56496   8.332   6.964   3.435  2.5041  1.9622  1.4185
  429MOL0     O56497  10.887   1.332   2.553 -0.1313  0.9936 -0.7822
  429MOL0     C56498  10.994   1.398   2.542 -0.3834 -0.3525 -0.0060
  429MOL0     O56499  11.031   1.506   2.616 -0.4700  0.0848  0.2684
  429MOL0     C56500  10.944   1.549   2.715 -0.8099  0.4408 -0.5184
  429MOL0     C56501  10.837   1.635   2.690  0.4371  0.7282 -0.8393
  429MOL0     C56502  10.753   1.675   2.791  0.4352  0.2164 -0.3477
  429MOL0     C56503  10.775   1.647   2.928 -0.9972 -1.1435 -0.5405
  429MOL0     O56504  10.701   1.684   3.034 -0.1894 -0.2190 -0.7070
  429MOL0     C56505  10.575   1.741   3.010  0.4370  0.5853  1.3846
  429MOL0     C56506  10.495   1.720   3.133 -0.2349  0.2152 -0.5291
  429MOL0     C56507  10.400   1.825   3.154  0.4925  0.2749 -0.9052
  429MOL0     C56508  10.326   1.819   3.293  0.3476 -0.6179 -0.5427
  429MOL0     C56509  10.200   1.907   3.295  1.2130  0.0461 -0.1091
  429MOL0     C56510  10.104   1.914   3.426  0.0030 -0.6042 -0.5897
  429MOL0     C56511  10.129   2.032   3.514  0.2769 -0.4298  0.0364
  429MOL0     C56512  10.013   2.126   3.531  0.2922  0.4341  0.6642
  429MOL0     N56513   9.886   2.060   3.561 -0.3598  0.3750  0.1536
  429MOL0     C56514   9.770   2.054   3.488  0.0582 -0.9895 -0.2769
  429MOL0     C56515   9.677   1.986   3.562 -0.5902  0.7257  0.0246
  429MOL0     C56516   9.530   1.962   3.536 -0.0110  0.0168  0.7604
  429MOL0     C56517   9.458   1.888   3.652  0.1995  0.5976  0.3070
  429MOL0     C56518   9.324   1.838   3.605  0.3125  0.6127 -0.6637
  429MOL0     C56519   9.236   1.793   3.720  0.8226  0.7078  0.6358
  429MOL0     O56520   9.167   1.895   3.795  0.2573  0.2254  0.0109
  429MOL0     C56521   9.076   1.852   3.890 -0.1420  0.5211 -0.0423
  429MOL0     C56522   9.056   1.714   3.926 -0.2871  0.6691  0.4874
  429MOL0     C56523   8.975   1.685   4.027  0.3653 -0.3823 -0.4026
  429MOL0     C56524   8.901   1.785   4.100 -0.1636 -0.2889 -1.0105
  429MOL0     C56525   8.787   1.749   4.182 -0.0538  0.2210 -0.2843
  429MOL0     O56526   8.707   1.843   4.233  0.2977  0.2588  0.4726
  429MOL0     C56527   8.588   1.810   4.295  0.7954 -0.5635 -1.3170
  429MOL0     C56528   8.568   1.761   4.425  0.1880  0.7193 -0.1146
  429MOL0     C56529   8.438   1.721   4.470 -0.0370 -0.5987 -0.0543
  429MOL0     C56530   8.317   1.752   4.390 -0.9127  0.2690  0.0685
  429MOL0     O56531   8.195   1.714   4.423  0.0288  0.0323 -0.2895
  429MOL0     C56532   8.148   1.738   4.554 -0.2229 -0.9436  0.8064
  429MOL0     C56533   8.013   1.809   4.562  0.8401  0.3446 -0.9922
  429MOL0     C56534   7.914   1.794   4.448  0.6705  0.4043 -0.5173
  429MOL0     C56535   7.802   1.900   4.469  0.8380  0.4708 -1.3312
  429MOL0     C56536   7.702   1.912   4.356  0.1610  0.0345 -0.5971
  429MOL0     C56537   7.595   2.008   4.398  0.1531  0.1672 -0.1853
  429MOL0     C56538   7.495   2.059   4.288  0.3556  0.3470 -0.3601
  429MOL0     C56539   7.395   2.145   4.347 -0.0418  0.6323 -0.4164
  429MOL0    Cl56540   7.261   2.168   4.231  0.3717 -0.0984 -0.5035
  429MOL0     C56541   8.341   1.788   4.256 -0.1330  0.4840 -0.2263
  429MOL0     C56542   8.470   1.834   4.220  0.1323 -0.1727 -0.4416
  429MOL0     O56543   8.773   1.634   4.209 -0.3600 -0.3472 -0.1715
  429MOL0     C56544   8.921   1.919   4.066 -0.2361  0.2376  0.4190
  429MOL0     C56545   9.002   1.948   3.958  0.2968 -0.0347 -0.1793
  429MOL0     N56546   9.752   1.938   3.671 -0.2305 -0.5427  0.7190
  429MOL0     N56547   9.869   1.982   3.674 -0.5350  0.1413  0.1470
  429MOL0     C56548  10.892   1.580   2.955 -0.1756  0.5857 -0.3748
  429MOL0     C56549  10.977   1.526   2.852  0.7118 -0.6231  0.1144
  429MOL0     C56550  11.100   1.354   2.454  0.3285 -0.1532 -0.9995
  429MOL0     C56551  11.228   1.392   2.472 -0.1599  0.8140 -0.1676
  429MOL0     C56552  11.329   1.331   2.393 -0.0280 -1.3721 -0.1473
  429MOL0     C56553  11.294   1.229   2.303 -0.8339  0.0855 -0.7715
  429MOL0     O56554  11.381   1.167   2.214  0.1721 -0.2686  0.6834
  429MOL0     C56555  11.490   1.249   2.173  0.2847  0.2080  0.0686
  429MOL0     C56556  11.550   1.211   2.032 -0.4192 -1.3393  0.1580
  429MOL0     C56557  11.564   1.054   2.019  0.3469 -0.1770  0.5899
  429MOL0     C56558  11.642   0.975   2.122 -0.6096  0.0434 -0.1627
  429MOL0     C56559  11.631   0.837   2.070  0.0214  0.9857 -0.6074
  429MOL0     C56560  11.624   0.714   2.058  0.8664 -0.2767 -1.2591
  429MOL0     C56561  11.167   1.196   2.290 -0.5120 -0.9773  0.2704
  429MOL0     C56562  11.069   1.260   2.361 -0.5237 -0.3194  0.0704
  429MOL0     H56563  10.808   1.664   2.589  1.3536 -0.2789 -1.4160
  429MOL0     H56564  10.671   1.739   2.761 -0.6483 -0.0987  1.7998
  429MOL0     H56565  10.521   1.690   2.930  1.4029  0.7399  0.6185
  429MOL0     H56566  10.578   1.850   3.000 -3.2668  0.8337  1.6455
  429MOL0     H56567  10.559   1.721   3.222 -0.8560  1.1183 -0.0841
  429MOL0     H56568  10.447   1.622   3.129 -1.3844  0.7845 -1.2119
  429MOL0     H56569  10.327   1.827   3.072 -2.7141 -3.1650  1.5379
  429MOL0     H56570  10.466   1.913   3.155  1.8422 -0.6873 -1.4569
  429MOL0     H56571  10.297   1.720   3.331 -1.8053  0.0103 -0.4229
  429MOL0     H56572  10.408   1.853   3.356  0.6216 -2.4291  0.1535
  429MOL0     H56573  10.138   1.859   3.219  1.7231 -0.6915 -0.0719
  429MOL0     H56574  10.235   2.007   3.267  3.5459  0.0107  2.3152
  429MOL0     H56575  10.132   1.823   3.480 -0.5343 -0.0353  0.6875
  429MOL0     H56576   9.999   1.894   3.403 -0.3500 -2.9820  2.4112
  429MOL0     H56577  10.147   2.002   3.618  0.3122 -1.1782 -0.1829
  429MOL0     H56578  10.219   2.081   3.477  0.2577 -0.8628 -0.5881
  429MOL0     H56579  10.015   2.183   3.437  3.8477 -1.0472 -0.3232
  429MOL0     H56580  10.043   2.191   3.614  0.8384  1.2104 -0.1212
  429MOL0     H56581   9.755   2.100   3.390  2.7021 -1.2209 -0.8774
  429MOL0     H56582   9.517   1.904   3.444  0.0796 -1.0033  1.3682
  429MOL0     H56583   9.483   2.058   3.516  0.7863  0.2983  0.2015
  429MOL0     H56584   9.446   1.952   3.740 -2.6491 -0.1884  0.6050
  429MOL0     H56585   9.525   1.811   3.691  1.6402  2.5456  1.8908
  429MOL0     H56586   9.279   1.916   3.543 -2.0390 -0.6392 -0.6670
  429MOL0     H56587   9.343   1.749   3.545  0.5321  0.7291 -0.7640
  429MOL0     H56588   9.296   1.739   3.793 -0.2251  0.6502  1.4784
  429MOL0     H56589   9.166   1.725   3.671 -0.4839  1.6821  1.1048
  429MOL0     H56590   9.116   1.635   3.881  2.3339  1.4982  2.2768
  429MOL0     H56591   8.964   1.579   4.048 -2.0202 -0.0754  0.2241
  429MOL0     H56592   8.643   1.750   4.502 -1.8627  2.7143  2.3369
  429MOL0     H56593   8.423   1.685   4.571  0.3399  0.3176  0.3402
  429MOL0     H56594   8.220   1.803   4.605 -0.2048 -0.5011  0.2290
  429MOL0     H56595   8.148   1.643   4.608 -0.7214 -1.0948  0.5366
  429MOL0     H56596   8.038   1.914   4.579  1.9308 -0.1840  0.8821
  429MOL0     H56597   7.965   1.788   4.658 -0.2028  1.0952 -1.3241
  429MOL0     H56598   7.877   1.691   4.454  2.7226 -0.3220  0.3386
  429MOL0     H56599   7.962   1.809   4.351 -1.9006 -0.1213 -1.9703
  429MOL0     H56600   7.742   1.878   4.558 -0.6108 -0.3352 -2.4533
  429MOL0     H56601   7.845   2.000   4.485  0.7179  0.6132 -1.8827
  429MOL0     H56602   7.666   1.814   4.322  0.5123 -0.0539 -0.7177
  429MOL0     H56603   7.754   1.949   4.268  0.1852  1.3865 -0.0299
  429MOL0     H56604   7.642   2.093   4.449  0.4272 -1.3958  2.3372
  429MOL0     H56605   7.541   1.961   4.480 -2.4974 -2.3508 -3.1150
  429MOL0     H56606   7.549   2.114   4.211 -1.0949 -0.6310 -2.1614
  429MOL0     H56607   7.439   1.984   4.231 -1.1417  0.5616  0.7535
  429MOL0     H56608   7.437   2.240   4.381  1.6780 -0.3634  0.3798
  429MOL0     H56609   7.352   2.104   4.438  1.3066  1.9157  0.8507
  429MOL0     H56610   8.253   1.787   4.192 -1.0737 -0.6872  1.0136
  429MOL0     H56611   8.480   1.873   4.119 -0.4161  0.9943 -0.0593
  429MOL0     H56612   8.858   1.999   4.105  0.3376  0.1797  1.4992
  429MOL0     H56613   9.007   2.040   3.901  2.6815 -0.0248 -0.0630
  429MOL0     H56614  10.927   1.568   3.057 -1.4652  5.6719  0.9318
  429MOL0     H56615  11.060   1.462   2.876  0.5800 -1.9291 -2.6253
  429MOL0     H56616  11.257   1.461   2.551 -1.1261 -0.2046  1.1190
  429MOL0     H56617  11.432   1.364   2.398  0.3800 -2.1377 -2.5568
  429MOL0     H56618  11.574   1.233   2.241 -0.1133 -0.9848  0.3022
  429MOL0     H56619  11.456   1.353   2.171  2.0057  0.8272  1.4235
  429MOL0     H56620  11.473   1.249   1.965  1.5191  3.8122  0.4118
  429MOL0     H56621  11.643   1.263   2.011 -0.6906 -0.0924  1.8388
  429MOL0     H56622  11.604   1.037   1.919  3.3561 -1.9675  1.9530
  429MOL0     H56623  11.463   1.012   2.022  1.5796 -3.8197 -2.0875
  429MOL0     H56624  11.747   1.000   2.134 -0.8192  1.9023 -1.6983
  429MOL0     H56625  11.593   0.978   2.219 -0.5621 -2.4208  0.0195
  429MOL0     H56626  11.621   0.607   2.048 -2.6263 -0.4298 -0.1450
  429MOL0     H56627  11.151   1.122   2.213  2.7760 -0.6232 -0.9410
  429MOL0     H56628  10.969   1.230   2.333 -0.4288  0.5912 -1.3056
  430MOL0     O56629   0.134   1.476   6.631  0.3051 -0.2318  0.3424
  430MOL0     C56630   0.114   1.450   6.748  0.1851  0.6331 -0.5070
  430MOL0     O56631  -0.000   1.416   6.801 -0.0394 -0.8027 -0.4459
  430MOL0     C56632  -0.121   1.431   6.730 -0.5602 -0.4882  0.2380
  430MOL0     C56633  -0.146   1.367   6.609  0.7023  0.9756  0.1907
  430MOL0     C56634  -0.264   1.385   6.551  0.6104  0.2456 -0.6480
  430MOL0     C56635  -0.358   1.476   6.599 -1.2804  0.1901 -0.3747
  430MOL0     O56636  -0.478   1.506   6.547  0.1530 -0.4255  0.1550
  430MOL0     C56637  -0.498   1.491   6.413  0.1689  0.4691  1.7895
  430MOL0     C56638  -0.631   1.553   6.372 -0.2479 -0.4246 -0.3164
  430MOL0     C56639  -0.612   1.706   6.387  0.7771 -0.4965  0.4171
  430MOL0     C56640  -0.727   1.804   6.365 -0.5238 -1.1908  1.2851
  430MOL0     C56641  -0.837   1.783   6.463  0.6129 -0.3134  0.2596
  430MOL0     C56642  -0.946   1.869   6.409  0.0228 -0.4263  0.2041
  430MOL0     C56643  -1.089   1.835   6.466  0.0352 -0.5155  0.0076
  430MOL0     C56644  -1.177   1.956   6.467  0.4701  0.8226 -0.6857
  430MOL0     N56645  -1.305   1.910   6.416  0.0727 -0.5541  1.0385
  430MOL0     C56646  -1.377   1.803   6.460  0.8328  0.1797 -0.3186
  430MOL0     C56647  -1.486   1.795   6.380  0.5574  0.2187 -0.4702
  430MOL0     C56648  -1.607   1.706   6.379  0.1886 -0.3823  0.2769
  430MOL0     C56649  -1.569   1.571   6.313  0.4835  0.1441  0.2625
  430MOL0     C56650  -1.451   1.494   6.366 -0.8642 -0.2570 -0.1231
  430MOL0     C56651  -1.356   1.450   6.254 -0.3868  0.3314 -0.1954
  430MOL0     O56652  -1.300   1.576   6.205 -0.5984  0.1040 -0.1220
  430MOL0     C56653  -1.173   1.575   6.143 -0.4388  0.2810  0.2481
  430MOL0     C56654  -1.097   1.468   6.119 -0.3955  0.4938 -0.2654
  430MOL0     C56655  -0.969   1.484   6.064  0.7375 -0.0029  0.6368
  430MOL0     C56656  -0.912   1.609   6.035 -0.6334  0.0700 -0.4650
  430MOL0     C56657  -0.775   1.627   5.977 -0.5980  0.8168 -0.0975
  430MOL0     O56658  -0.698   1.508   5.968  0.1789 -0.0922  0.1567
  430MOL0     C56659  -0.610   1.507   5.865 -0.8388  0.4725 -0.2297
  430MOL0     C56660  -0.617   1.408   5.764  0.5051  0.5777  0.2855
  430MOL0     C56661  -0.511   1.383   5.679  0.0481  0.4327 -0.7166
  430MOL0     C56662  -0.393   1.454   5.692  0.3598  0.7395  0.1409
  430MOL0     O56663  -0.292   1.444   5.602  0.4386  0.6601 -0.2418
  430MOL0     C56664  -0.256   1.311   5.568  0.3186  0.0991 -0.6004
  430MOL0     C56665  -0.104   1.316   5.532  0.7348  0.5338 -0.5518
  430MOL0     C56666  -0.060   1.186   5.465  1.3546 -1.0167  0.1775
  430MOL0     C56667  -0.091   1.067   5.554 -0.6391 -0.0798  0.1569
  430MOL0     C56668  -0.018   0.947   5.517  0.1011 -0.4208 -0.7198
  430MOL0     C56669  -0.081   0.869   5.403  0.6114  0.5170 -0.8975
  430MOL0     C56670   0.017   0.781   5.320  0.0124 -0.1593 -0.0950
  430MOL0     C56671   0.091   0.664   5.398  1.0511 -0.7203 -0.1723
  430MOL0    Cl56672  -0.031   0.539   5.448  0.1741  0.2560 -0.7350
  430MOL0     C56673  -0.378   1.540   5.797  0.3838 -0.8594 -0.1613
  430MOL0     C56674  -0.484   1.569   5.877  0.4671  0.1848  0.0468
  430MOL0     O56675  -0.741   1.730   5.926  0.2867  0.1745  0.1713
  430MOL0     C56676  -0.993   1.727   6.057 -0.0651 -0.4592  0.0220
  430MOL0     C56677  -1.121   1.703   6.108  0.9590  1.1968 -1.0169
  430MOL0     N56678  -1.488   1.914   6.303 -0.0700  0.3073  1.0207
  430MOL0     N56679  -1.379   1.978   6.321 -1.2259  0.4018 -0.7588
  430MOL0     C56680  -0.331   1.531   6.729 -0.3810 -0.6447  0.4063
  430MOL0     C56681  -0.211   1.511   6.789 -0.2720 -0.2717 -0.4486
  430MOL0     C56682   0.232   1.416   6.832  0.8493 -1.0709 -0.2071
  430MOL0     C56683   0.356   1.383   6.772 -0.2099  0.0161 -0.3293
  430MOL0     C56684   0.469   1.354   6.848 -0.1071 -0.7026  0.1531
  430MOL0     C56685   0.453   1.356   6.988 -0.3632  0.5780 -0.5344
  430MOL0     O56686   0.554   1.307   7.066 -0.5608 -0.3237  0.7156
  430MOL0     C56687   0.522   1.171   7.112 -0.4837 -0.9181 -0.1207
  430MOL0     C56688   0.650   1.102   7.170  0.0899  0.3086 -0.5185
  430MOL0     C56689   0.749   1.033   7.066  0.1858  0.3154 -0.2647
  430MOL0     C56690   0.888   1.003   7.131 -0.1485 -0.3987 -0.6035
  430MOL0     C56691   0.976   0.981   7.020 -0.0287 -1.2774  0.3424
  430MOL0     C56692   1.041   0.961   6.919 -0.5471 -0.2930  1.2802
  430MOL0     C56693   0.331   1.393   7.049  0.9764  0.6061  0.0082
  430MOL0     C56694   0.211   1.421   6.969  0.3120  0.4263 -0.0853
  430MOL0     H56695  -0.076   1.291   6.578 -0.1536 -2.4367  5.3103
  430MOL0     H56696  -0.293   1.346   6.454  1.2045 -1.5702 -0.1409
  430MOL0     H56697  -0.504   1.386   6.383 -0.9982  1.6227 -2.7397
  430MOL0     H56698  -0.419   1.538   6.355 -1.4771  0.6666 -0.4176
  430MOL0     H56699  -0.722   1.516   6.420 -3.1765  2.4272 -3.1281
  430MOL0     H56700  -0.656   1.543   6.266 -0.5690  0.3574 -0.3270
  430MOL0     H56701  -0.538   1.741   6.314 -1.6416  2.2279 -0.9681
  430MOL0     H56702  -0.569   1.735   6.483  3.2744 -2.6356  0.0648
  430MOL0     H56703  -0.695   1.909   6.367 -2.7139 -0.4661  0.8373
  430MOL0     H56704  -0.758   1.779   6.264  1.1875 -2.4969  1.0253
  430MOL0     H56705  -0.796   1.814   6.559  0.6711  2.8639 -0.6949
  430MOL0     H56706  -0.873   1.680   6.460 -1.0253  0.2479 -0.2228
  430MOL0     H56707  -0.955   1.851   6.302  1.6903  2.8610 -0.6240
  430MOL0     H56708  -0.923   1.974   6.434 -3.4201  0.8748 -1.4781
  430MOL0     H56709  -1.137   1.761   6.401 -1.8448  0.0780  0.6541
  430MOL0     H56710  -1.083   1.792   6.566 -0.2368  0.2895  0.3726
  430MOL0     H56711  -1.148   2.050   6.420 -1.2189  0.1167 -3.4301
  430MOL0     H56712  -1.184   1.975   6.574  1.4376  1.8191 -0.7845
  430MOL0     H56713  -1.348   1.736   6.540  0.9697 -0.5636 -0.9723
  430MOL0     H56714  -1.677   1.752   6.308 -0.0199 -0.4082  0.4657
  430MOL0     H56715  -1.644   1.699   6.481  1.9946  0.9383  1.0741
  430MOL0     H56716  -1.568   1.570   6.204  1.9746  0.3260  0.2573
  430MOL0     H56717  -1.652   1.509   6.348 -0.2738  0.5311 -0.8242
  430MOL0     H56718  -1.385   1.558   6.427 -1.1315  1.2640 -1.3552
  430MOL0     H56719  -1.482   1.405   6.421  1.0499 -2.1775 -1.9608
  430MOL0     H56720  -1.418   1.411   6.173  1.1950 -2.9810  0.0323
  430MOL0     H56721  -1.285   1.374   6.288  0.3428  1.0169 -0.1717
  430MOL0     H56722  -1.124   1.367   6.148  3.3754 -0.3220  1.0756
  430MOL0     H56723  -0.909   1.403   6.024  1.8028  0.1056  1.9575
  430MOL0     H56724  -0.707   1.351   5.745 -0.0664  1.6139 -0.1931
  430MOL0     H56725  -0.524   1.312   5.597 -0.8969 -1.2820  0.8243
  430MOL0     H56726  -0.313   1.282   5.480  2.3503  1.1679 -2.3696
  430MOL0     H56727  -0.262   1.244   5.654  0.5955  1.7801  0.7819
  430MOL0     H56728  -0.046   1.317   5.625  0.8192  1.1905 -0.6133
  430MOL0     H56729  -0.079   1.406   5.476 -1.1790  2.2562  1.1839
  430MOL0     H56730   0.040   1.201   5.424  1.3985  0.9707  0.9072
  430MOL0     H56731  -0.127   1.176   5.379 -0.5062  0.5288  1.3788
  430MOL0     H56732  -0.047   1.091   5.652  1.0386 -2.1290 -0.0065
  430MOL0     H56733  -0.192   1.031   5.572 -0.3344 -0.0095  2.2852
  430MOL0     H56734  -0.002   0.888   5.608  0.0112 -0.3582 -0.6626
  430MOL0     H56735   0.079   0.984   5.483 -0.2854  1.5381  0.1390
  430MOL0     H56736  -0.142   0.937   5.343 -0.3946 -0.3262 -0.8596
  430MOL0     H56737  -0.149   0.792   5.441  0.5063  0.4877 -1.1396
  430MOL0     H56738  -0.045   0.746   5.237 -2.6356  0.5359  1.4714
  430MOL0     H56739   0.098   0.841   5.277  0.1247 -1.1797 -1.3688
  430MOL0     H56740   0.129   0.713   5.488 -0.2640 -0.8660  0.4847
  430MOL0     H56741   0.162   0.613   5.331 -0.2787  3.1218 -5.1577
  430MOL0     H56742  -0.284   1.593   5.809 -0.2598  0.3818 -0.4076
  430MOL0     H56743  -0.489   1.644   5.956 -1.1275  2.5062 -2.1050
  430MOL0     H56744  -0.964   1.830   6.041 -0.5908  0.1313  2.4712
  430MOL0     H56745  -1.185   1.786   6.137  0.5761  0.9878 -1.2563
  430MOL0     H56746  -0.408   1.587   6.781  1.0324 -1.4830  3.7144
  430MOL0     H56747  -0.197   1.562   6.884  0.9570  1.2975 -1.4195
  430MOL0     H56748   0.370   1.387   6.664 -1.1375  0.6444 -0.4295
  430MOL0     H56749   0.568   1.351   6.804 -0.8064  0.0160 -1.5564
  430MOL0     H56750   0.476   1.106   7.036  0.3170 -1.7957  0.1259
  430MOL0     H56751   0.450   1.172   7.194  0.3299  0.9245  0.6206
  430MOL0     H56752   0.698   1.186   7.222  1.1061 -1.0381  0.7892
  430MOL0     H56753   0.608   1.026   7.236 -1.7596 -0.1954 -2.1892
  430MOL0     H56754   0.760   1.099   6.979  1.5998  0.3237 -0.0914
  430MOL0     H56755   0.713   0.933   7.038 -4.7991  1.7953 -0.2123
  430MOL0     H56756   0.905   1.098   7.183 -2.7434  0.6110 -1.3960
  430MOL0     H56757   0.894   0.923   7.205  2.1068 -0.7200 -1.0725
  430MOL0     H56758   1.081   0.940   6.822  0.7823  4.1983  0.6290
  430MOL0     H56759   0.323   1.394   7.157  0.3020  1.3514 -0.0425
  430MOL0     H56760   0.112   1.449   7.005  0.3267  0.9337 -0.4226
  431MOL0     O56761   3.766   7.307   7.323 -0.9543 -1.1010  0.2854
  431MOL0     C56762   3.813   7.392   7.251  0.0197 -0.2666 -0.8152
  431MOL0     O56763   3.746   7.458   7.155 -0.0208 -0.3395  0.0407
  431MOL0     C56764   3.619   7.416   7.121  0.0970 -0.2772 -0.0214
  431MOL0     C56765   3.513   7.421   7.223  0.5533  0.4095 -0.3463
  431MOL0     C56766   3.386   7.369   7.193 -0.0896 -0.0848  0.0894
  431MOL0     C56767   3.351   7.340   7.064 -0.6722  0.2269 -0.2095
  431MOL0     O56768   3.223   7.297   7.047 -0.3399  0.8331  0.6662
  431MOL0     C56769   3.180   7.261   6.912 -0.7927 -0.4965 -0.3069
  431MOL0     C56770   3.028   7.254   6.894 -0.4900  0.6107 -0.0354
  431MOL0     C56771   2.964   7.125   6.962  0.1865  0.4808 -0.2656
  431MOL0     C56772   2.822   7.147   7.011  0.3852 -0.5405  0.5321
  431MOL0     C56773   2.747   7.022   7.052 -0.8990  0.7140 -0.6337
  431MOL0     C56774   2.737   6.914   6.940 -0.0815 -0.6046  0.1285
  431MOL0     C56775   2.634   6.811   6.967 -0.0821 -0.3536  0.2451
  431MOL0     C56776   2.499   6.839   6.898  0.5437  0.7586 -0.4650
  431MOL0     N56777   2.411   6.913   6.975 -1.1255 -1.0922 -0.5295
  431MOL0     C56778   2.307   6.878   7.057  0.0249 -0.6123  0.0392
  431MOL0     C56779   2.267   6.996   7.112 -0.3086 -0.8999 -0.1286
  431MOL0     C56780   2.148   7.017   7.198 -0.1142 -0.2536  0.0927
  431MOL0     C56781   2.161   6.930   7.327 -0.0214  0.1223  0.8428
  431MOL0     C56782   2.255   6.986   7.432  0.1479 -0.4723 -0.5144
  431MOL0     C56783   2.248   6.913   7.570  1.0298  0.1207  0.2066
  431MOL0     O56784   2.121   6.953   7.611 -0.9280  0.4048  0.1610
  431MOL0     C56785   2.073   6.888   7.728  0.7086  0.0041 -0.6576
  431MOL0     C56786   2.146   6.791   7.803 -0.3242  0.2878 -0.0539
  431MOL0     C56787   2.086   6.710   7.894 -0.0537  0.0959  0.3638
  431MOL0     C56788   1.958   6.740   7.943 -0.4096  0.0888 -0.2360
  431MOL0     C56789   1.879   6.641   8.023  0.6507 -0.6834 -0.7855
  431MOL0     O56790   1.742   6.641   8.011 -0.2552 -0.5468 -0.0001
  431MOL0     C56791   1.671   6.552   8.085 -0.0188  0.2909  0.5395
  431MOL0     C56792   1.540   6.590   8.108  0.5129  0.7611  0.0290
  431MOL0     C56793   1.450   6.505   8.174  0.0944 -0.7390 -0.1051
  431MOL0     C56794   1.488   6.379   8.230 -0.1241 -0.7271  1.8035
  431MOL0     O56795   1.409   6.292   8.302 -0.5362  0.1113  0.6596
  431MOL0     C56796   1.277   6.336   8.338 -0.7265 -1.2920  0.7911
  431MOL0     C56797   1.191   6.213   8.307 -0.0611 -0.6013  0.0504
  431MOL0     C56798   1.171   6.192   8.155  0.4016  0.0542 -0.3766
  431MOL0     C56799   1.074   6.289   8.084 -0.7200  0.9453 -0.8173
  431MOL0     C56800   0.929   6.261   8.127 -0.1565  0.5378 -0.3323
  431MOL0     C56801   0.837   6.372   8.073 -0.1562  0.4468  0.2637
  431MOL0     C56802   0.692   6.314   8.093 -0.1853  0.6397 -0.7300
  431MOL0     C56803   0.576   6.411   8.068 -0.3445 -0.1431  1.3869
  431MOL0    Cl56804   0.430   6.304   8.082  0.0924 -0.1889 -0.1620
  431MOL0     C56805   1.621   6.344   8.203 -0.4712  0.1921 -0.1552
  431MOL0     C56806   1.706   6.421   8.127  0.1182 -0.0975  0.9163
  431MOL0     O56807   1.946   6.581   8.104  0.0812 -0.4279  0.2562
  431MOL0     C56808   1.890   6.846   7.882 -0.5907 -0.2242  0.1937
  431MOL0     C56809   1.946   6.918   7.773  0.6938 -0.4733 -0.0985
  431MOL0     N56810   2.347   7.097   7.074 -0.2367 -0.2743  1.0239
  431MOL0     N56811   2.419   7.051   6.982 -0.5528 -0.1040  0.1409
  431MOL0     C56812   3.446   7.339   6.962  0.3949 -0.6591 -0.3513
  431MOL0     C56813   3.576   7.382   6.990 -0.3580  0.1371 -0.1616
  431MOL0     C56814   3.953   7.434   7.263 -0.4268 -0.2486  1.0569
  431MOL0     C56815   4.035   7.410   7.376  0.2566 -0.2240  0.4386
  431MOL0     C56816   4.161   7.477   7.390  0.0766  0.1540  0.8034
  431MOL0     C56817   4.212   7.553   7.287  0.4355 -0.9479  0.2007
  431MOL0     O56818   4.328   7.629   7.294 -0.0316 -0.6413  0.2540
  431MOL0     C56819   4.378   7.665   7.419  0.0374 -0.4465 -0.1475
  431MOL0     C56820   4.493   7.769   7.413 -0.3072  0.5423 -0.5768
  431MOL0     C56821   4.620   7.710   7.352 -0.9033  0.4351  0.3826
  431MOL0     C56822   4.720   7.818   7.310 -0.1135  0.4249 -0.4605
  431MOL0     C56823   4.851   7.771   7.271  0.6260  0.3967 -0.2009
  431MOL0     C56824   4.964   7.744   7.242 -0.7378 -0.9390  0.3145
  431MOL0     C56825   4.147   7.545   7.159 -0.2955 -1.5140  0.0187
  431MOL0     C56826   4.018   7.490   7.146 -0.1491 -0.6179  0.4006
  431MOL0     H56827   3.541   7.439   7.326  1.6334  1.7125 -0.8230
  431MOL0     H56828   3.313   7.350   7.271  0.5003 -0.0270  0.6691
  431MOL0     H56829   3.215   7.160   6.888 -1.5166 -0.9988  0.6950
  431MOL0     H56830   3.224   7.334   6.844  1.0166 -0.3910  0.8951
  431MOL0     H56831   3.008   7.240   6.787  0.2839 -2.2326  0.0920
  431MOL0     H56832   2.977   7.340   6.939  1.6083  0.1838  3.5567
  431MOL0     H56833   3.020   7.097   7.052  0.5341 -0.5074 -0.7613
  431MOL0     H56834   2.970   7.036   6.897  1.1004  0.3978 -0.0863
  431MOL0     H56835   2.833   7.206   7.102 -1.4114 -1.7370  1.6011
  431MOL0     H56836   2.753   7.199   6.944 -0.6436 -1.1547  1.0855
  431MOL0     H56837   2.647   7.046   7.090 -0.4543  1.9912 -0.2190
  431MOL0     H56838   2.800   6.975   7.135 -1.6577 -0.7024 -0.9264
  431MOL0     H56839   2.834   6.865   6.934  0.2002 -0.1185  0.6379
  431MOL0     H56840   2.731   6.967   6.845  1.7658  0.1455  0.3841
  431MOL0     H56841   2.676   6.714   6.938  0.6103  0.3415 -1.2118
  431MOL0     H56842   2.619   6.826   7.074  2.0920  0.4640  0.5012
  431MOL0     H56843   2.443   6.750   6.867  2.4362 -0.0769 -1.7250
  431MOL0     H56844   2.515   6.882   6.799 -3.1873  0.0671 -1.5324
  431MOL0     H56845   2.268   6.778   7.067  1.4154 -1.1098  0.8831
  431MOL0     H56846   2.065   6.985   7.135  2.0216  1.6361 -4.0504
  431MOL0     H56847   2.124   7.123   7.214 -3.6891 -0.8814 -0.1961
  431MOL0     H56848   2.189   6.827   7.301 -0.9362  0.6419 -2.7501
  431MOL0     H56849   2.058   6.926   7.365 -1.0482  2.5923 -1.3812
  431MOL0     H56850   2.357   6.965   7.399  0.4856  1.4159 -0.7598
  431MOL0     H56851   2.223   7.089   7.451 -0.3932  0.1691 -4.1331
  431MOL0     H56852   2.326   6.948   7.639  1.2151  2.6172 -1.1546
  431MOL0     H56853   2.274   6.807   7.562 -0.1266 -0.0860 -1.4149
  431MOL0     H56854   2.246   6.762   7.771 -1.3756 -1.4255 -2.0237
  431MOL0     H56855   2.136   6.622   7.933 -2.5216 -2.0957 -1.0889
  431MOL0     H56856   1.495   6.684   8.076  1.4692  1.2267  0.0079
  431MOL0     H56857   1.354   6.554   8.176  2.0218  3.4920  0.0726
  431MOL0     H56858   1.239   6.420   8.279  1.9093 -1.3825 -1.2055
  431MOL0     H56859   1.279   6.353   8.446  1.1563 -1.7245  0.8562
  431MOL0     H56860   1.090   6.227   8.346  0.7769  0.8597  1.8828
  431MOL0     H56861   1.235   6.133   8.367  1.1790  0.3729  0.4987
  431MOL0     H56862   1.122   6.094   8.144 -1.3957  1.0051 -1.2084
  431MOL0     H56863   1.266   6.194   8.102 -1.0605  1.1536 -3.1313
  431MOL0     H56864   1.103   6.394   8.091 -0.0010  0.6437  2.1364
  431MOL0     H56865   1.079   6.278   7.975  2.1594  3.1135 -1.0239
  431MOL0     H56866   0.921   6.265   8.236 -0.6403  0.4694 -0.3641
  431MOL0     H56867   0.904   6.159   8.096 -0.2796  0.8881 -1.4342
  431MOL0     H56868   0.854   6.388   7.966 -1.3867 -0.5808 -0.1058
  431MOL0     H56869   0.842   6.459   8.139 -1.2626 -0.1550  1.1837
  431MOL0     H56870   0.678   6.229   8.025 -1.6177 -0.8243  1.2634
  431MOL0     H56871   0.679   6.275   8.194  0.4405 -1.9283 -1.5605
  431MOL0     H56872   0.582   6.447   7.965 -0.6018  2.3194  2.1754
  431MOL0     H56873   0.556   6.497   8.133  0.2027  2.1978 -1.3276
  431MOL0     H56874   1.656   6.250   8.246 -0.9212  0.5154  0.9470
  431MOL0     H56875   1.796   6.384   8.079 -0.4346  1.0464 -1.1380
  431MOL0     H56876   1.796   6.885   7.920 -0.5426 -0.5013  0.6061
  431MOL0     H56877   1.895   7.000   7.724 -1.1589 -1.5433 -0.0283
  431MOL0     H56878   3.428   7.316   6.858 -1.4867 -0.8350 -0.0243
  431MOL0     H56879   3.646   7.383   6.907  1.4554 -0.0671  1.2788
  431MOL0     H56880   4.000   7.356   7.464  0.4541  1.0131  1.3152
  431MOL0     H56881   4.202   7.482   7.491 -0.5976  2.2085  1.0339
  431MOL0     H56882   4.400   7.575   7.477  2.1709 -0.1982 -0.4992
  431MOL0     H56883   4.305   7.727   7.472  0.0045 -0.6335  0.0295
  431MOL0     H56884   4.452   7.852   7.355  0.8635 -1.1309 -4.0384
  431MOL0     H56885   4.515   7.795   7.517  1.1952  1.7431 -1.1589
  431MOL0     H56886   4.595   7.645   7.268  0.1348  2.0121 -1.2191
  431MOL0     H56887   4.669   7.651   7.430  0.1852  2.1758  1.0799
  431MOL0     H56888   4.691   7.879   7.223  0.2321 -0.1019 -0.9531
  431MOL0     H56889   4.730   7.892   7.390 -5.5571  2.1091 -0.8986
  431MOL0     H56890   5.067   7.732   7.213 -0.2727 -2.9688  2.5082
  431MOL0     H56891   4.207   7.596   7.084  2.2282 -2.2447  1.4056
  431MOL0     H56892   3.959   7.497   7.056 -0.8647 -2.1911  0.7220
  432MOL0     O56893   1.102   7.004   9.383 -0.1310  0.1904  1.2637
  432MOL0     C56894   1.106   7.007   9.262  1.2413  0.9166 -0.1743
  432MOL0     O56895   1.178   7.088   9.180 -0.5711 -0.6852 -0.2633
  432MOL0     C56896   1.253   7.189   9.245 -0.3687  0.2339 -0.5716
  432MOL0     C56897   1.370   7.155   9.309 -0.4723  0.2708 -0.2585
  432MOL0     C56898   1.433   7.252   9.388 -0.0581  1.4866  0.6377
  432MOL0     C56899   1.397   7.384   9.388 -0.2932 -0.2471 -0.2373
  432MOL0     O56900   1.456   7.491   9.451 -0.3281  0.7274  0.4256
  432MOL0     C56901   1.570   7.474   9.529 -0.1253  0.4402 -0.1179
  432MOL0     C56902   1.656   7.606   9.523  1.4115 -0.1711 -0.2971
  432MOL0     C56903   1.663   7.655   9.376 -0.6439 -0.8300  0.1143
  432MOL0     C56904   1.784   7.748   9.366  0.1513 -0.6359  0.0519
  432MOL0     C56905   1.823   7.786   9.224  1.0420 -0.8048 -0.4535
  432MOL0     C56906   1.707   7.826   9.119  0.0709 -0.0684  0.7689
  432MOL0     C56907   1.756   7.900   8.988  0.3870 -0.4290 -0.2890
  432MOL0     C56908   1.638   7.899   8.885  0.3800 -1.2413 -0.7582
  432MOL0     N56909   1.545   8.006   8.918 -0.0918  0.3070  0.2894
  432MOL0     C56910   1.415   7.985   8.934 -0.4358  0.7222 -0.2665
  432MOL0     C56911   1.355   8.107   8.912  0.8329 -0.3111  0.3137
  432MOL0     C56912   1.205   8.140   8.891 -0.0422  0.4205 -1.1184
  432MOL0     C56913   1.183   8.293   8.897  0.6769 -0.0274 -0.4602
  432MOL0     C56914   1.050   8.334   8.836 -0.0118  0.0531  0.6957
  432MOL0     C56915   1.018   8.471   8.869  0.3021  0.1087  0.5313
  432MOL0     O56916   0.899   8.493   8.789 -0.8794  0.0159 -0.8105
  432MOL0     C56917   0.797   8.569   8.840 -0.3385  1.1939  1.2886
  432MOL0     C56918   0.668   8.545   8.781  0.4167  0.0763 -0.5280
  432MOL0     C56919   0.553   8.614   8.831 -0.3101 -0.1202 -0.4033
  432MOL0     C56920   0.573   8.711   8.935  0.1500  0.2284 -0.3995
  432MOL0     C56921   0.459   8.795   8.973 -0.7863 -0.7561  0.2998
  432MOL0     O56922   0.336   8.744   8.962  0.1529  0.2836 -0.7213
  432MOL0     C56923   0.231   8.832   8.965 -0.1521 -0.1310  0.1113
  432MOL0     C56924   0.198   8.899   8.849  1.0310 -0.0858  0.3568
  432MOL0     C56925   0.085   8.982   8.841  0.0163  0.7649 -0.3405
  432MOL0     C56926   0.008   8.998   8.946 -1.0323 -0.2141 -0.4150
  432MOL0     O56927  -0.098   9.077   8.932 -0.1268 -0.0529 -0.0717
  432MOL0     C56928  -0.221   9.008   8.930  0.3967 -0.1897 -0.3184
  432MOL0     C56929  -0.344   9.099   8.897 -0.4393  0.5507  0.3813
  432MOL0     C56930  -0.306   9.173   8.758  0.3526  0.7894 -0.3537
  432MOL0     C56931  -0.437   9.230   8.695 -0.1656  0.1567 -0.3533
  432MOL0     C56932  -0.470   9.357   8.751  0.6471 -0.4703  0.1543
  432MOL0     C56933  -0.594   9.416   8.683  0.4160  1.1662 -1.0790
  432MOL0     C56934  -0.717   9.362   8.758 -0.5983  1.0244 -0.4510
  432MOL0     C56935  -0.845   9.402   8.693  0.3584 -0.2340 -0.7747
  432MOL0    Cl56936  -0.989   9.368   8.794  0.1951 -0.4211 -0.3577
  432MOL0     C56937   0.037   8.934   9.066 -0.1445  0.0166  0.3169
  432MOL0     C56938   0.147   8.848   9.078  0.1689 -0.3025  0.0755
  432MOL0     O56939   0.490   8.914   8.986 -0.0656  0.2134  0.9220
  432MOL0     C56940   0.704   8.741   8.978 -0.1644 -0.0921 -0.7732
  432MOL0     C56941   0.816   8.671   8.929 -0.1766 -0.3585  0.6464
  432MOL0     N56942   1.455   8.196   8.879  0.0432 -0.0321  0.4409
  432MOL0     N56943   1.562   8.134   8.886 -0.0220 -0.0812 -0.0716
  432MOL0     C56944   1.289   7.417   9.310 -0.3860 -0.7159 -0.1044
  432MOL0     C56945   1.212   7.327   9.242  0.1273 -0.2049 -0.2043
  432MOL0     C56946   1.031   6.908   9.194  0.1188  0.5870  0.0678
  432MOL0     C56947   1.024   6.774   9.235 -0.9818 -0.0336 -0.0291
  432MOL0     C56948   0.928   6.686   9.177  0.6514  0.0499  0.3758
  432MOL0     C56949   0.852   6.718   9.069  0.0734 -0.4910  0.6392
  432MOL0     O56950   0.763   6.632   9.022 -1.1484  0.2378  0.1994
  432MOL0     C56951   0.665   6.680   8.928 -0.0026 -0.3819  0.8582
  432MOL0     C56952   0.560   6.567   8.895 -0.3969  0.2826 -0.1265
  432MOL0     C56953   0.502   6.510   9.028  0.0828  0.0959 -0.2856
  432MOL0     C56954   0.395   6.407   9.016 -0.2052 -0.3436  0.6718
  432MOL0     C56955   0.270   6.476   8.995  0.5685  0.0992 -0.8540
  432MOL0     C56956   0.168   6.528   8.946  0.2727  0.1924 -0.2284
  432MOL0     C56957   0.868   6.850   9.015  0.2079 -0.9542  0.8328
  432MOL0     C56958   0.955   6.940   9.080 -0.5848 -0.1124  0.8745
  432MOL0     H56959   1.404   7.054   9.286  0.8528 -0.0619  2.6825
  432MOL0     H56960   1.518   7.207   9.439 -2.4649 -1.0999  2.6906
  432MOL0     H56961   1.635   7.395   9.491 -0.7838  0.0836 -0.5156
  432MOL0     H56962   1.537   7.445   9.629  3.9595 -2.0676  0.7569
  432MOL0     H56963   1.753   7.604   9.572  1.1243  2.8820  0.6148
  432MOL0     H56964   1.596   7.681   9.574  1.0824  0.5422 -1.6797
  432MOL0     H56965   1.574   7.710   9.345 -0.2063  0.7923  1.5377
  432MOL0     H56966   1.675   7.563   9.318  1.3108  0.8869 -2.4004
  432MOL0     H56967   1.743   7.841   9.407 -2.6623 -1.8739  0.2708
  432MOL0     H56968   1.869   7.706   9.421  0.4767 -1.1796 -0.8426
  432MOL0     H56969   1.893   7.707   9.195  0.5602 -2.3808  2.2277
  432MOL0     H56970   1.889   7.873   9.232  0.9366 -0.9010  2.6362
  432MOL0     H56971   1.639   7.896   9.168  0.5774  0.3414  0.8879
  432MOL0     H56972   1.656   7.732   9.092  2.1903 -0.6945 -1.5466
  432MOL0     H56973   1.779   8.000   9.024  0.8567 -0.6509  0.0284
  432MOL0     H56974   1.846   7.854   8.945  1.3619  0.3153  0.9113
  432MOL0     H56975   1.577   7.811   8.862 -5.9466  2.5196 -0.7080
  432MOL0     H56976   1.688   7.933   8.794  1.3682  1.3075  0.6469
  432MOL0     H56977   1.369   7.888   8.952 -0.3494  1.0209  1.8637
  432MOL0     H56978   1.160   8.098   8.981  2.4693  0.1166  0.0788
  432MOL0     H56979   1.164   8.094   8.800 -0.1059  0.6232 -1.1915
  432MOL0     H56980   1.264   8.344   8.844 -0.1827 -0.8922 -2.7462
  432MOL0     H56981   1.194   8.326   9.000 -0.5027  1.8847 -0.8949
  432MOL0     H56982   1.052   8.322   8.727 -0.9738  0.1481  0.6622
  432MOL0     H56983   0.972   8.270   8.877 -0.0434  1.2083  2.5592
  432MOL0     H56984   1.107   8.530   8.844  1.2124 -2.7258 -4.3402
  432MOL0     H56985   1.000   8.474   8.977  0.3143  0.4186  0.5248
  432MOL0     H56986   0.649   8.471   8.704  1.9590 -0.9176 -0.0163
  432MOL0     H56987   0.455   8.584   8.795 -1.3668 -0.8548  2.7062
  432MOL0     H56988   0.265   8.891   8.763  1.4757 -0.2679  0.7171
  432MOL0     H56989   0.075   9.045   8.753 -1.0548 -0.9238 -1.4741
  432MOL0     H56990  -0.244   8.972   9.031 -0.7903 -1.6407 -1.0651
  432MOL0     H56991  -0.227   8.932   8.852 -0.4598 -2.6786  2.0058
  432MOL0     H56992  -0.365   9.169   8.979  0.9482  0.1018  1.1509
  432MOL0     H56993  -0.434   9.039   8.888 -2.1641  3.0521 -0.0909
  432MOL0     H56994  -0.262   9.101   8.688 -1.0018  0.9035 -1.3884
  432MOL0     H56995  -0.227   9.246   8.772  0.7957  0.0740  1.1093
  432MOL0     H56996  -0.413   9.236   8.588 -0.6492 -2.7802 -0.7128
  432MOL0     H56997  -0.520   9.160   8.709  0.1810  0.0854  1.6006
  432MOL0     H56998  -0.383   9.419   8.729 -0.0058  0.2845 -0.3787
  432MOL0     H56999  -0.479   9.357   8.860  1.9502  1.7343  0.3352
  432MOL0     H57000  -0.595   9.382   8.579 -0.6774 -1.8474 -0.2068
  432MOL0     H57001  -0.595   9.525   8.690 -0.3860  1.0808  4.2126
  432MOL0     H57002  -0.709   9.253   8.756 -0.9158  0.8889  2.0603
  432MOL0     H57003  -0.718   9.391   8.863 -2.4574 -0.5831  0.0435
  432MOL0     H57004  -0.849   9.338   8.605 -2.0120 -1.5784  0.2245
  432MOL0     H57005  -0.839   9.508   8.668 -4.8196  0.5992  0.4277
  432MOL0     H57006  -0.023   8.951   9.155 -1.7006 -2.6678 -0.1005
  432MOL0     H57007   0.173   8.804   9.173  2.5386  0.0216 -0.3537
  432MOL0     H57008   0.713   8.809   9.062 -2.8513  0.3318 -0.7380
  432MOL0     H57009   0.913   8.705   8.965  0.3969  0.7017 -1.6604
  432MOL0     H57010   1.276   7.525   9.318  1.1684 -0.5692  0.7119
  432MOL0     H57011   1.133   7.349   9.171 -0.1388 -0.7818 -0.0965
  432MOL0     H57012   1.088   6.749   9.319  0.0858 -0.5613 -0.9557
  432MOL0     H57013   0.912   6.588   9.220 -1.2912  0.9275  1.7785
  432MOL0     H57014   0.709   6.706   8.831 -0.1928 -1.2206  0.5360
  432MOL0     H57015   0.614   6.766   8.973  0.4842  0.0109  0.6619
  432MOL0     H57016   0.483   6.621   8.839 -0.1343  2.6726  1.6602
  432MOL0     H57017   0.602   6.490   8.830 -0.2212 -1.5857  2.0671
  432MOL0     H57018   0.467   6.593   9.090 -1.3292 -2.4111  2.5378
  432MOL0     H57019   0.583   6.466   9.088 -1.3524  1.3584  2.8121
  432MOL0     H57020   0.421   6.329   8.944 -0.8298 -1.7193  1.8737
  432MOL0     H57021   0.375   6.356   9.111 -2.0193 -0.4587  0.2515
  432MOL0     H57022   0.077   6.563   8.903 -0.7131 -1.5246  0.3474
  432MOL0     H57023   0.813   6.886   8.929  2.2295 -1.0578 -0.5948
  432MOL0     H57024   0.967   7.041   9.040  1.7863 -1.3401 -1.8678
  433MOL0     O57025   7.471   4.779   3.790 -0.3238 -0.2175 -0.1176
  433MOL0     C57026   7.456   4.835   3.676 -0.5995 -0.3369 -0.5695
  433MOL0     O57027   7.535   4.938   3.631  0.4291 -0.6434  0.1230
  433MOL0     C57028   7.664   4.963   3.680  0.1638 -1.4742  0.1560
  433MOL0     C57029   7.773   4.934   3.607 -0.4966  0.3743 -0.4865
  433MOL0     C57030   7.908   4.967   3.645 -0.3991  0.0273 -0.1828
  433MOL0     C57031   7.930   5.031   3.769 -0.2396 -0.7468  0.0999
  433MOL0     O57032   8.063   5.057   3.803  0.0703 -0.1971 -0.1332
  433MOL0     C57033   8.087   5.166   3.889 -0.6622 -0.3733 -0.5938
  433MOL0     C57034   8.236   5.209   3.884  0.2912  0.2728  0.6679
  433MOL0     C57035   8.264   5.347   3.943  0.2167 -0.2097  0.0225
  433MOL0     C57036   8.418   5.385   3.940  0.4934 -0.4971  0.5972
  433MOL0     C57037   8.439   5.506   4.031  0.1793 -0.6095  0.0097
  433MOL0     C57038   8.399   5.650   3.980 -0.7071  0.1713 -0.3159
  433MOL0     C57039   8.458   5.770   4.057 -0.3143 -0.2098 -0.2532
  433MOL0     C57040   8.457   5.892   3.975  0.3688  0.1079  0.4330
  433MOL0     N57041   8.543   5.888   3.859  0.3974  0.1900  0.3840
  433MOL0     C57042   8.668   5.839   3.845 -0.1752  0.1540  0.6732
  433MOL0     C57043   8.689   5.846   3.712  1.1041  0.2685 -0.0511
  433MOL0     C57044   8.814   5.788   3.646 -0.1247 -1.2572  0.4042
  433MOL0     C57045   8.820   5.637   3.668  0.6342  0.2864 -0.7477
  433MOL0     C57046   8.692   5.560   3.644 -0.4002 -0.1187 -0.7052
  433MOL0     C57047   8.633   5.556   3.503  0.2015 -0.0961  0.0551
  433MOL0     O57048   8.523   5.464   3.505  1.0402 -0.5296  0.4066
  433MOL0     C57049   8.395   5.501   3.542  0.4600 -0.0616 -0.6809
  433MOL0     C57050   8.301   5.399   3.536 -0.0306 -0.1909 -0.4988
  433MOL0     C57051   8.171   5.431   3.580  0.4143  0.1260 -0.6825
  433MOL0     C57052   8.140   5.554   3.641  0.2516 -0.4706 -0.0966
  433MOL0     C57053   8.000   5.579   3.676 -0.1897 -0.0481  0.4705
  433MOL0     O57054   7.956   5.698   3.679 -0.1833 -0.3535 -0.3961
  433MOL0     C57055   7.833   5.729   3.733  1.3061  0.6091  0.1289
  433MOL0     C57056   7.703   5.702   3.670 -0.6245  0.1948  0.5290
  433MOL0     C57057   7.585   5.734   3.733 -0.0659 -0.7458 -0.1280
  433MOL0     C57058   7.582   5.796   3.866  0.0681  0.4151  0.4315
  433MOL0     O57059   7.468   5.820   3.928 -0.4668  0.2042  0.6652
  433MOL0     C57060   7.463   5.765   4.061 -0.8188  0.2578 -0.5048
  433MOL0     C57061   7.340   5.680   4.070 -0.4630 -0.5388  0.0635
  433MOL0     C57062   7.216   5.757   4.054  0.0975 -0.4460 -0.1913
  433MOL0     C57063   7.090   5.674   4.068 -0.3480  0.2150 -0.3961
  433MOL0     C57064   6.971   5.748   4.004 -0.5172  0.8886  0.3862
  433MOL0     C57065   6.836   5.677   3.988 -0.2268  0.4018 -0.1750
  433MOL0     C57066   6.756   5.754   3.882 -0.4948 -0.1066 -0.0903
  433MOL0     C57067   6.616   5.709   3.851 -0.6177 -0.3424  0.3058
  433MOL0    Cl57068   6.613   5.545   3.775 -0.1806 -0.0755  0.2035
  433MOL0     C57069   7.702   5.828   3.926 -0.8299  0.8202  0.2784
  433MOL0     C57070   7.833   5.788   3.859  0.1319  0.2610 -1.5671
  433MOL0     O57071   7.942   5.484   3.733 -0.6833 -0.3093  0.0571
  433MOL0     C57072   8.230   5.655   3.629  0.5229  0.5264  0.7893
  433MOL0     C57073   8.357   5.632   3.567  0.2551 -0.1166 -0.5245
  433MOL0     N57074   8.572   5.886   3.647  0.6661 -0.3969 -0.3091
  433MOL0     N57075   8.489   5.917   3.740 -0.0260 -0.6206 -0.8454
  433MOL0     C57076   7.821   5.068   3.845 -0.2228  0.3616 -0.9076
  433MOL0     C57077   7.692   5.031   3.800  0.0922 -0.5369  0.0519
  433MOL0     C57078   7.347   4.797   3.585 -0.6372  0.7720 -0.8141
  433MOL0     C57079   7.254   4.698   3.625  0.5224 -0.5526 -0.5647
  433MOL0     C57080   7.164   4.648   3.528  0.1189 -0.1603  0.1185
  433MOL0     C57081   7.142   4.716   3.407 -0.9697  0.4836 -0.6340
  433MOL0     O57082   7.060   4.685   3.301 -0.0451  0.0462 -0.1077
  433MOL0     C57083   6.977   4.565   3.311  0.4180  0.0180  0.0169
  433MOL0     C57084   6.904   4.537   3.182  0.8021  0.3940 -0.6529
  433MOL0     C57085   6.995   4.554   3.059 -0.2121 -0.6897 -0.4795
  433MOL0     C57086   6.920   4.515   2.932  0.4344  0.6365  0.9493
  433MOL0     C57087   6.800   4.605   2.918 -0.3501  0.6139  0.6108
  433MOL0     C57088   6.708   4.683   2.902 -0.0160  0.2271  0.3047
  433MOL0     C57089   7.223   4.829   3.378  0.9531  0.4794 -0.8080
  433MOL0     C57090   7.329   4.863   3.470 -0.3641 -0.2012 -0.0251
  433MOL0     H57091   7.756   4.862   3.528  0.2741 -0.6971  0.2905
  433MOL0     H57092   7.997   4.939   3.591 -2.6153 -0.2614 -4.0224
  433MOL0     H57093   8.063   5.143   3.993  2.3211 -1.0522  0.0459
  433MOL0     H57094   8.026   5.252   3.859 -0.5455  1.2292  3.2046
  433MOL0     H57095   8.268   5.203   3.780  1.0520 -2.3443  0.9856
  433MOL0     H57096   8.291   5.135   3.943 -1.2111  1.4412  3.7257
  433MOL0     H57097   8.227   5.350   4.046  0.9765 -0.0580  0.3026
  433MOL0     H57098   8.213   5.426   3.888  2.0931  0.4122 -0.9091
  433MOL0     H57099   8.475   5.302   3.982  0.3724  0.4376  2.7649
  433MOL0     H57100   8.458   5.403   3.840 -0.2757 -0.1903  0.3311
  433MOL0     H57101   8.547   5.521   4.035 -0.1988  2.8346  0.7447
  433MOL0     H57102   8.411   5.489   4.135  1.5004 -0.7173  0.3605
  433MOL0     H57103   8.290   5.655   3.986 -0.7235 -0.2041 -0.3252
  433MOL0     H57104   8.425   5.654   3.874 -1.4530  0.3229 -0.5008
  433MOL0     H57105   8.403   5.790   4.150  1.3877 -0.6368  0.8981
  433MOL0     H57106   8.564   5.750   4.077 -0.4190 -0.4251  0.0973
  433MOL0     H57107   8.503   5.968   4.039  2.7165 -0.4285 -0.5022
  433MOL0     H57108   8.357   5.931   3.957  0.6050  1.8096  2.3657
  433MOL0     H57109   8.737   5.794   3.916  0.3865 -0.5002 -0.2543
  433MOL0     H57110   8.908   5.831   3.682  1.2171 -3.0110 -0.8204
  433MOL0     H57111   8.821   5.812   3.540 -2.3515  0.2964  0.5485
  433MOL0     H57112   8.844   5.621   3.773  0.5707  3.2289 -0.1910
  433MOL0     H57113   8.902   5.599   3.607 -0.5053 -0.0253 -2.1514
  433MOL0     H57114   8.710   5.453   3.661 -0.5573 -0.1911 -0.9843
  433MOL0     H57115   8.611   5.582   3.714 -0.2492  2.6496 -1.3155
  433MOL0     H57116   8.711   5.527   3.433  0.1238 -2.6865  0.9560
  433MOL0     H57117   8.609   5.657   3.470  1.9583  0.7735  1.2424
  433MOL0     H57118   8.318   5.298   3.500 -0.6860 -1.3659  2.1980
  433MOL0     H57119   8.091   5.357   3.582 -0.0993  0.6688  1.6022
  433MOL0     H57120   7.698   5.638   3.582  2.3071 -2.1583  1.8870
  433MOL0     H57121   7.490   5.710   3.686  0.0075  1.4424 -1.5411
  433MOL0     H57122   7.452   5.848   4.132  2.2601  0.7641 -0.4630
  433MOL0     H57123   7.555   5.719   4.100  0.4248  1.9011 -1.3647
  433MOL0     H57124   7.332   5.633   4.169 -0.3813  1.3244  1.0077
  433MOL0     H57125   7.347   5.603   3.993  0.7642 -0.3705 -0.0136
  433MOL0     H57126   7.223   5.802   3.955 -4.5039  1.0480 -0.0394
  433MOL0     H57127   7.219   5.831   4.134  1.5060  1.4723 -1.9160
  433MOL0     H57128   7.115   5.589   4.003 -0.2252  1.8313 -2.5906
  433MOL0     H57129   7.070   5.652   4.173 -0.2638  3.5544  0.4448
  433MOL0     H57130   7.000   5.771   3.901 -3.0059  1.7130 -0.2109
  433MOL0     H57131   6.945   5.841   4.056 -2.3028 -0.1991  1.5629
  433MOL0     H57132   6.781   5.674   4.083  1.6148  1.1289  0.9538
  433MOL0     H57133   6.858   5.574   3.960  1.1435 -0.4766  3.4609
  433MOL0     H57134   6.753   5.861   3.904 -0.0772  0.0276 -0.6535
  433MOL0     H57135   6.791   5.737   3.780 -5.5878 -2.5339 -1.8097
  433MOL0     H57136   6.581   5.778   3.774  3.1056  0.3908 -0.9272
  433MOL0     H57137   6.557   5.735   3.940  0.1253  3.9687 -0.2698
  433MOL0     H57138   7.711   5.867   4.026  0.7845  1.2143  0.0088
  433MOL0     H57139   7.928   5.814   3.903  0.3924 -3.1602  0.1851
  433MOL0     H57140   8.202   5.754   3.664 -0.3671  1.5724 -2.5607
  433MOL0     H57141   8.417   5.718   3.542 -0.7920  0.4645 -1.0965
  433MOL0     H57142   7.844   5.109   3.943 -2.3784  0.4651 -0.3968
  433MOL0     H57143   7.602   5.061   3.852  0.4472 -0.1833  0.4697
  433MOL0     H57144   7.271   4.643   3.717 -0.4044 -1.2108 -0.7788
  433MOL0     H57145   7.115   4.551   3.537 -1.7688  0.9104  2.3413
  433MOL0     H57146   6.906   4.582   3.393  2.3664  1.7769  1.4476
  433MOL0     H57147   7.043   4.479   3.327 -1.2260 -1.4043 -0.4519
  433MOL0     H57148   6.868   4.433   3.184 -1.3318  1.0714 -1.5495
  433MOL0     H57149   6.818   4.603   3.172  0.1267 -0.3208  0.1794
  433MOL0     H57150   7.085   4.497   3.081  0.0046  0.3265  1.6296
  433MOL0     H57151   7.032   4.657   3.059 -3.3939  0.6308  1.7546
  433MOL0     H57152   6.982   4.520   2.841 -2.4416  0.1287 -1.1831
  433MOL0     H57153   6.887   4.411   2.933  1.6431  0.1723 -1.0362
  433MOL0     H57154   6.638   4.764   2.894 -0.6948 -0.1775  1.7325
  433MOL0     H57155   7.212   4.895   3.293 -1.2348  0.7831 -0.3432
  433MOL0     H57156   7.384   4.949   3.432  0.1158 -2.0671 -4.0683
  434MOL0     O57157   0.176   8.329   4.569  0.0586 -0.3204 -0.0545
  434MOL0     C57158   0.121   8.263   4.487  0.0043  0.7966 -1.4920
  434MOL0     O57159   0.180   8.155   4.426 -0.6103 -0.3179 -0.2228
  434MOL0     C57160   0.293   8.110   4.486 -0.2042  0.6549 -0.2237
  434MOL0     C57161   0.281   8.011   4.585  0.4523  1.1517  0.6060
  434MOL0     C57162   0.388   7.968   4.660 -0.0166  0.3859 -0.2329
  434MOL0     C57163   0.515   8.015   4.629 -0.8755  0.1774 -0.5968
  434MOL0     O57164   0.628   7.965   4.697  0.3953 -0.4915 -0.0900
  434MOL0     C57165   0.620   7.885   4.810 -0.4366 -0.3739  0.3416
  434MOL0     C57166   0.759   7.832   4.846 -0.1490 -0.2470 -0.3936
  434MOL0     C57167   0.865   7.941   4.882  0.5667  0.5788 -0.1601
  434MOL0     C57168   0.824   8.049   4.979 -0.0606  0.0467  0.3650
  434MOL0     C57169   0.943   8.136   5.038 -0.5519 -0.7232  0.3490
  434MOL0     C57170   0.891   8.192   5.173 -0.0250 -0.5980  1.0492
  434MOL0     C57171   0.766   8.275   5.148 -1.0288  0.6886 -0.4817
  434MOL0     C57172   0.706   8.314   5.285 -0.3012  0.3047  0.4225
  434MOL0     N57173   0.577   8.381   5.260 -0.2467 -0.1774  0.6869
  434MOL0     C57174   0.456   8.323   5.264  0.1000  0.5746  0.2860
  434MOL0     C57175   0.366   8.423   5.232  1.2074  0.3434  0.1257
  434MOL0     C57176   0.217   8.402   5.216  0.3364 -0.4973  0.4341
  434MOL0     C57177   0.172   8.252   5.224  0.1127 -0.6951  0.5664
  434MOL0     C57178   0.022   8.272   5.217  0.0891 -0.2264  0.1298
  434MOL0     C57179  -0.048   8.141   5.227  0.7634  0.3009 -0.0763
  434MOL0     O57180  -0.016   8.056   5.341  0.7355 -0.3825 -0.2997
  434MOL0     C57181  -0.107   7.987   5.419 -0.2738  0.4417 -0.4193
  434MOL0     C57182  -0.249   8.000   5.412 -1.1536  0.2701  1.0186
  434MOL0     C57183  -0.329   7.925   5.502  0.9820 -1.0303  0.0024
  434MOL0     C57184  -0.281   7.837   5.591  0.1783  0.8514 -0.3777
  434MOL0     C57185  -0.378   7.747   5.663 -0.4114 -0.4491 -0.2912
  434MOL0     O57186  -0.505   7.801   5.689 -0.3029  0.2864 -0.4104
  434MOL0     C57187  -0.594   7.709   5.749  1.0510  0.1624 -0.4706
  434MOL0     C57188  -0.644   7.742   5.872 -0.2842 -0.3215 -0.0662
  434MOL0     C57189  -0.726   7.658   5.941  0.0210  0.1145 -0.4688
  434MOL0     C57190  -0.782   7.544   5.883  0.2429  0.6907  1.1296
  434MOL0     O57191  -0.868   7.457   5.937  0.1295  0.4537  0.0545
  434MOL0     C57192  -0.850   7.395   6.073 -0.1009  0.3609  0.6194
  434MOL0     C57193  -0.960   7.292   6.084 -0.2185  0.5841 -0.9551
  434MOL0     C57194  -1.102   7.347   6.094  0.2680 -0.5069 -0.1644
  434MOL0     C57195  -1.167   7.366   5.954  0.2426  0.0645  0.0795
  434MOL0     C57196  -1.322   7.415   5.971  1.4237 -0.2122  0.0051
  434MOL0     C57197  -1.381   7.423   5.826 -0.5071  0.1139  0.0365
  434MOL0     C57198  -1.388   7.285   5.756  0.5183 -0.6830 -0.7626
  434MOL0     C57199  -1.471   7.302   5.625  0.4971  0.0455  0.2998
  434MOL0    Cl57200  -1.406   7.431   5.526 -0.0757 -0.0472 -0.0143
  434MOL0     C57201  -0.755   7.525   5.744 -0.6292  0.8159  0.6589
  434MOL0     C57202  -0.658   7.599   5.686  0.0524  0.9317  0.5219
  434MOL0     O57203  -0.340   7.639   5.700  0.4336 -0.3422  0.3984
  434MOL0     C57204  -0.137   7.815   5.595 -0.8127 -0.5031 -0.2453
  434MOL0     C57205  -0.051   7.890   5.507  0.2345  0.1020  0.0560
  434MOL0     N57206   0.431   8.538   5.216  0.2552  0.2303 -0.1149
  434MOL0     N57207   0.561   8.513   5.228  0.0846  0.3403 -0.4376
  434MOL0     C57208   0.537   8.104   4.521 -0.4437 -0.4640 -0.0738
  434MOL0     C57209   0.419   8.149   4.461  0.3032  0.5354 -0.8231
  434MOL0     C57210  -0.010   8.305   4.444  0.1820  0.2593  0.0526
  434MOL0     C57211  -0.067   8.403   4.520  0.5455 -0.2769  0.4332
  434MOL0     C57212  -0.197   8.449   4.490  0.5145  0.6646 -0.6915
  434MOL0     C57213  -0.270   8.384   4.396 -0.5067 -0.4627 -0.7868
  434MOL0     O57214  -0.401   8.433   4.392 -0.6460 -0.2488  0.6563
  434MOL0     C57215  -0.501   8.365   4.318  0.1201 -0.2432  0.9653
  434MOL0     C57216  -0.644   8.391   4.365 -0.0311 -0.9637  0.2491
  434MOL0     C57217  -0.670   8.386   4.516  0.5484  0.2151 -0.0436
  434MOL0     C57218  -0.819   8.341   4.538 -0.0553  1.0634  0.1547
  434MOL0     C57219  -0.914   8.444   4.490 -0.8350  0.1562 -0.4460
  434MOL0     C57220  -1.009   8.511   4.458 -0.0725  0.7456 -0.1054
  434MOL0     C57221  -0.210   8.296   4.314 -0.3075  0.5915 -0.0654
  434MOL0     C57222  -0.072   8.252   4.333  0.7121 -1.1851  0.1391
  434MOL0     H57223   0.183   7.966   4.595  0.8556 -0.9975 -3.1903
  434MOL0     H57224   0.373   7.886   4.729  0.1489 -0.1097 -0.7830
  434MOL0     H57225   0.557   7.796   4.797  0.2636 -0.5237 -2.8537
  434MOL0     H57226   0.571   7.947   4.885 -1.1604  1.6202 -1.6820
  434MOL0     H57227   0.795   7.775   4.760  1.1896 -0.5530  0.3412
  434MOL0     H57228   0.768   7.766   4.933 -0.7748  1.0041  0.6443
  434MOL0     H57229   0.901   7.997   4.795 -1.3698  2.8710  0.4054
  434MOL0     H57230   0.958   7.895   4.917  0.8279  1.2480  0.0499
  434MOL0     H57231   0.766   8.121   4.921  0.2398  0.6128  0.7634
  434MOL0     H57232   0.762   7.999   5.054  1.2609 -1.1696  0.7059
  434MOL0     H57233   0.967   8.222   4.974 -1.3597 -0.5320  0.2959
  434MOL0     H57234   1.040   8.090   5.059  0.3923  1.7329  1.7667
  434MOL0     H57235   0.974   8.259   5.200 -1.0257  2.3342 -2.3441
  434MOL0     H57236   0.874   8.115   5.249  1.7351 -1.6312  0.4563
  434MOL0     H57237   0.787   8.365   5.090 -0.8796 -0.2365 -1.8905
  434MOL0     H57238   0.692   8.220   5.090 -0.8743 -1.0472  0.8862
  434MOL0     H57239   0.769   8.386   5.337 -1.4233  1.3612  0.3516
  434MOL0     H57240   0.687   8.226   5.348  1.0183 -2.2338 -2.4841
  434MOL0     H57241   0.431   8.218   5.281  0.0096  0.7661  1.3942
  434MOL0     H57242   0.181   8.437   5.119 -1.0925 -0.6484  0.8851
  434MOL0     H57243   0.186   8.463   5.301  1.1279 -1.5900  1.5570
  434MOL0     H57244   0.197   8.207   5.321  0.1434  1.5482  1.6602
  434MOL0     H57245   0.204   8.194   5.137 -0.7438 -3.0753  1.7322
  434MOL0     H57246  -0.010   8.339   5.297 -2.1476 -3.4332  2.1678
  434MOL0     H57247  -0.003   8.316   5.120  0.6800 -0.4474 -0.1307
  434MOL0     H57248  -0.016   8.084   5.139  1.1029  1.2693 -0.6037
  434MOL0     H57249  -0.154   8.168   5.227  0.5662 -0.3697  1.8781
  434MOL0     H57250  -0.295   8.074   5.347  0.3757 -1.3684 -2.1587
  434MOL0     H57251  -0.435   7.942   5.491  1.0291 -1.2182 -0.7439
  434MOL0     H57252  -0.609   7.833   5.919  1.3057 -1.1473  0.3978
  434MOL0     H57253  -0.760   7.686   6.040 -0.8567  1.7756 -1.1925
  434MOL0     H57254  -0.854   7.476   6.147 -2.1003  0.6778  0.2398
  434MOL0     H57255  -0.758   7.338   6.086  0.9536  2.4037  2.7850
  434MOL0     H57256  -0.931   7.244   6.177 -1.4446  2.3674  0.4212
  434MOL0     H57257  -0.944   7.225   5.998  1.7608  1.6429 -1.4758
  434MOL0     H57258  -1.110   7.441   6.150  1.9500 -1.4708  1.8373
  434MOL0     H57259  -1.158   7.273   6.153  2.0198 -0.1227  2.1168
  434MOL0     H57260  -1.124   7.439   5.885 -1.6693 -0.5511 -1.8702
  434MOL0     H57261  -1.168   7.267   5.909 -0.1064 -0.6175  1.5252
  434MOL0     H57262  -1.323   7.513   6.020 -2.3771 -0.9349  1.7136
  434MOL0     H57263  -1.380   7.343   6.031  2.9925 -0.4206  1.3452
  434MOL0     H57264  -1.322   7.489   5.761  1.1405 -2.1203 -0.8417
  434MOL0     H57265  -1.484   7.459   5.832 -0.7998 -0.3558 -1.6413
  434MOL0     H57266  -1.288   7.245   5.738  0.3746 -0.6396 -1.6591
  434MOL0     H57267  -1.439   7.210   5.817 -1.0204 -0.7886 -2.1166
  434MOL0     H57268  -1.575   7.317   5.654  0.3786  0.8807 -0.5086
  434MOL0     H57269  -1.479   7.207   5.571 -2.7157  0.0343  0.6250
  434MOL0     H57270  -0.800   7.440   5.692  0.2396  1.9274 -2.1144
  434MOL0     H57271  -0.624   7.557   5.592 -3.2659 -1.0191  0.0375
  434MOL0     H57272  -0.083   7.739   5.650  1.1837  0.3798 -0.8866
  434MOL0     H57273   0.057   7.883   5.502  0.3052  1.0027  0.2620
  434MOL0     H57274   0.637   8.140   4.500 -0.2639 -0.6069  0.5317
  434MOL0     H57275   0.428   8.223   4.383  1.1397  0.3068 -0.9567
  434MOL0     H57276  -0.012   8.465   4.590  2.2704  0.2712 -1.3064
  434MOL0     H57277  -0.251   8.518   4.554 -0.7023  0.9695 -2.0092
  434MOL0     H57278  -0.472   8.260   4.310 -0.3757 -0.2982 -0.3147
  434MOL0     H57279  -0.498   8.396   4.213 -0.3154  1.3864  1.4165
  434MOL0     H57280  -0.660   8.493   4.328  5.2084  1.1563  2.7416
  434MOL0     H57281  -0.707   8.327   4.304  0.4221 -0.4005 -0.8367
  434MOL0     H57282  -0.650   8.486   4.556  1.8302  0.8239 -2.1009
  434MOL0     H57283  -0.598   8.323   4.569  0.7227  0.6828  0.2807
  434MOL0     H57284  -0.826   8.250   4.479 -0.2758  1.5081 -0.5237
  434MOL0     H57285  -0.827   8.326   4.646 -0.8550 -0.6211 -0.1065
  434MOL0     H57286  -1.079   8.592   4.453 -1.1165  0.1854  3.0700
  434MOL0     H57287  -0.275   8.247   4.242 -1.3469 -0.5067  1.5244
  434MOL0     H57288  -0.017   8.173   4.281  0.0769 -1.6353  0.1369
  435MOL0     O57289  10.373   7.657   8.592 -0.0119 -0.2764  0.0662
  435MOL0     C57290  10.385   7.545   8.630  0.1285  0.7278 -0.6195
  435MOL0     O57291  10.288   7.452   8.674 -0.0722  0.3175 -0.4886
  435MOL0     C57292  10.151   7.495   8.688 -0.1077  0.3173 -1.4657
  435MOL0     C57293  10.109   7.613   8.760 -0.6476  0.4186  0.3656
  435MOL0     C57294   9.972   7.629   8.777 -0.0695  0.0596  0.1070
  435MOL0     C57295   9.885   7.522   8.756  0.4362  0.3961 -0.0510
  435MOL0     O57296   9.755   7.529   8.786  0.0989 -0.6533 -0.6899
  435MOL0     C57297   9.703   7.614   8.886 -0.0260  0.3679 -0.1920
  435MOL0     C57298   9.583   7.543   8.959  0.5678  0.1919  0.6132
  435MOL0     C57299   9.474   7.523   8.850 -0.8835  0.4164  0.6605
  435MOL0     C57300   9.347   7.462   8.916  0.0016  0.1067 -0.5474
  435MOL0     C57301   9.244   7.421   8.806  0.0975 -0.1127 -0.7820
  435MOL0     C57302   9.105   7.387   8.848 -0.0039 -0.0256  0.9863
  435MOL0     C57303   9.023   7.351   8.727  0.2197 -0.2698  0.1969
  435MOL0     C57304   8.872   7.368   8.762 -0.3592 -0.4377  0.3577
  435MOL0     N57305   8.785   7.322   8.654  1.5842 -0.2252 -0.2662
  435MOL0     C57306   8.719   7.194   8.637  0.0910  0.4987  0.7111
  435MOL0     C57307   8.651   7.210   8.526  1.2584 -0.6335  0.1854
  435MOL0     C57308   8.578   7.096   8.447 -0.2154  0.7644  0.1291
  435MOL0     C57309   8.474   7.144   8.348  0.6191  0.1279  0.2441
  435MOL0     C57310   8.423   7.028   8.256 -0.0558 -0.7555 -0.8475
  435MOL0     C57311   8.391   6.900   8.331 -0.9369  0.4891  0.1201
  435MOL0     O57312   8.304   6.913   8.433  0.7654  0.1031 -0.1769
  435MOL0     C57313   8.171   6.884   8.407  0.4258  0.0165 -0.6529
  435MOL0     C57314   8.082   6.885   8.520 -0.2766  0.0606 -0.3412
  435MOL0     C57315   7.946   6.840   8.503  0.7748  0.2236  0.4425
  435MOL0     C57316   7.889   6.815   8.371 -0.4748  0.5838  0.1592
  435MOL0     C57317   7.742   6.780   8.353 -1.0563  1.1475 -0.0396
  435MOL0     O57318   7.686   6.801   8.225 -0.1175 -0.9678 -0.6371
  435MOL0     C57319   7.553   6.806   8.212  0.7454  0.3019 -1.2405
  435MOL0     C57320   7.484   6.914   8.158 -0.2378  0.3913 -0.6953
  435MOL0     C57321   7.350   6.907   8.130 -0.2743  0.1726 -0.1256
  435MOL0     C57322   7.277   6.781   8.140  0.2339 -0.5115  0.2594
  435MOL0     O57323   7.146   6.786   8.102  0.3733 -0.0192  0.4053
  435MOL0     C57324   7.044   6.689   8.140  0.2963 -0.3877  0.4149
  435MOL0     C57325   6.923   6.783   8.113  0.4919  0.7971 -0.5681
  435MOL0     C57326   6.804   6.686   8.132 -1.0204  0.3569 -0.0349
  435MOL0     C57327   6.683   6.774   8.155 -0.5835  0.4281  0.1239
  435MOL0     C57328   6.553   6.694   8.146  0.6772 -0.1798 -0.3855
  435MOL0     C57329   6.537   6.570   8.237 -0.3129 -0.2630 -0.4139
  435MOL0     C57330   6.542   6.595   8.392  0.2268 -0.4147 -0.6910
  435MOL0     C57331   6.600   6.474   8.470 -0.3607  0.5392  0.2563
  435MOL0    Cl57332   6.557   6.482   8.647  0.2486  0.2786  0.1328
  435MOL0     C57333   7.349   6.679   8.198  0.6995 -0.9191  0.3725
  435MOL0     C57334   7.482   6.687   8.232  0.2981  0.4602  0.4620
  435MOL0     O57335   7.685   6.748   8.458  0.7315 -0.1280 -0.3483
  435MOL0     C57336   7.975   6.827   8.262  0.1853  0.0293 -0.5423
  435MOL0     C57337   8.112   6.851   8.282 -0.3136 -0.7653 -0.5298
  435MOL0     N57338   8.655   7.346   8.484 -0.7019 -0.2304  0.0110
  435MOL0     N57339   8.731   7.419   8.568  0.4680  0.2922 -1.1325
  435MOL0     C57340   9.937   7.399   8.711 -0.3542 -0.4912  0.9909
  435MOL0     C57341  10.069   7.388   8.671  0.8554 -0.2612 -0.1828
  435MOL0     C57342  10.524   7.496   8.620  0.5947  0.0974 -0.6531
  435MOL0     C57343  10.622   7.562   8.536 -0.6974  0.6632  0.2079
  435MOL0     C57344  10.742   7.492   8.507 -0.5270 -0.1938 -0.1665
  435MOL0     C57345  10.780   7.383   8.580 -0.3823  0.8728  0.1266
  435MOL0     O57346  10.903   7.325   8.552  0.1870 -0.9452  0.1702
  435MOL0     C57347  10.948   7.215   8.630 -0.4169  0.1464  0.4009
  435MOL0     C57348  11.090   7.193   8.582 -1.3122  0.3971 -0.2371
  435MOL0     C57349  11.188   7.302   8.599  0.7448 -0.0333  0.0215
  435MOL0     C57350  11.325   7.261   8.541  0.1957  0.0602 -0.0623
  435MOL0     C57351  11.421   7.372   8.556 -1.2442  0.3025 -0.4976
  435MOL0     C57352  11.508   7.459   8.556  0.2302  0.3075 -0.1923
  435MOL0     C57353  10.700   7.331   8.676  0.5816 -0.3927 -1.4887
  435MOL0     C57354  10.569   7.389   8.694 -0.7037  0.0957  0.1719
  435MOL0     H57355  10.173   7.697   8.787  3.3316 -2.1892 -0.1534
  435MOL0     H57356   9.931   7.717   8.825  1.0816  0.3221  0.6492
  435MOL0     H57357   9.683   7.709   8.835 -1.7725 -0.2130 -0.6552
  435MOL0     H57358   9.774   7.643   8.965 -0.4043  1.4903 -0.2382
  435MOL0     H57359   9.549   7.600   9.046 -2.6646 -0.3934 -0.1668
  435MOL0     H57360   9.615   7.445   8.996  0.9322 -0.5459 -1.5327
  435MOL0     H57361   9.507   7.464   8.764 -2.1116  0.5890  0.0516
  435MOL0     H57362   9.441   7.620   8.812 -1.3327  0.4494  1.1217
  435MOL0     H57363   9.361   7.363   8.960 -3.9812 -0.5957 -0.4915
  435MOL0     H57364   9.305   7.527   8.993 -0.1272 -2.4137  1.6522
  435MOL0     H57365   9.301   7.344   8.754  2.3010 -0.3387  1.7491
  435MOL0     H57366   9.228   7.501   8.732 -0.0237  0.1542 -0.4713
  435MOL0     H57367   9.073   7.475   8.905  0.7982  0.4227  0.7614
  435MOL0     H57368   9.111   7.295   8.907  4.5388 -2.5321 -2.6657
  435MOL0     H57369   9.048   7.409   8.638  1.1115 -0.1752  0.4934
  435MOL0     H57370   9.030   7.245   8.702 -2.0703 -0.0884 -1.5115
  435MOL0     H57371   8.855   7.475   8.774 -0.7562 -0.4593  0.0086
  435MOL0     H57372   8.849   7.308   8.851 -0.2886 -1.4975 -0.3215
  435MOL0     H57373   8.747   7.105   8.692 -3.2447 -2.5628 -2.0378
  435MOL0     H57374   8.535   7.014   8.505 -0.8728 -0.7787 -2.3969
  435MOL0     H57375   8.648   7.047   8.379 -0.7350  0.5468 -0.2531
  435MOL0     H57376   8.505   7.225   8.281 -2.7699  3.3393  2.2215
  435MOL0     H57377   8.386   7.176   8.404 -1.5850  0.8960 -3.4122
  435MOL0     H57378   8.332   7.054   8.200 -0.2509 -1.3426 -0.8165
  435MOL0     H57379   8.498   7.007   8.178 -0.6392  0.8389 -1.8883
  435MOL0     H57380   8.486   6.864   8.372 -1.3594  0.1093  0.7635
  435MOL0     H57381   8.369   6.826   8.253  3.9583  0.2520 -1.3925
  435MOL0     H57382   8.131   6.915   8.613 -0.1317  0.1607 -0.4484
  435MOL0     H57383   7.888   6.831   8.594  0.9074  0.4514  0.5526
  435MOL0     H57384   7.538   7.006   8.137 -0.2257  0.7497  0.8178
  435MOL0     H57385   7.288   6.989   8.093 -0.0050  0.3215 -0.2515
  435MOL0     H57386   7.052   6.650   8.241  0.3658 -0.4008  0.4041
  435MOL0     H57387   7.038   6.609   8.065  0.6603 -0.8299  0.8478
  435MOL0     H57388   6.939   6.821   8.012  0.2145  0.6120 -0.6828
  435MOL0     H57389   6.923   6.871   8.178  2.8514  1.5592 -1.4822
  435MOL0     H57390   6.819   6.618   8.216  0.8324  1.1216  0.3054
  435MOL0     H57391   6.814   6.624   8.042  0.5838 -0.4619  0.6510
  435MOL0     H57392   6.701   6.802   8.259  1.5211 -1.8086  0.4457
  435MOL0     H57393   6.680   6.866   8.096  0.9385  1.5766  1.7486
  435MOL0     H57394   6.545   6.670   8.040  4.6051  1.8346 -1.3397
  435MOL0     H57395   6.479   6.766   8.182 -0.0963 -0.4724 -1.3423
  435MOL0     H57396   6.619   6.500   8.218 -1.4685 -1.6432 -0.5274
  435MOL0     H57397   6.438   6.533   8.207 -0.8794 -0.6899  1.8091
  435MOL0     H57398   6.611   6.679   8.408 -0.5962  0.0992  0.2050
  435MOL0     H57399   6.442   6.621   8.427  0.1026  2.4608 -2.8027
  435MOL0     H57400   6.708   6.482   8.461 -0.2656 -0.5155  0.2988
  435MOL0     H57401   6.563   6.382   8.423  1.8455 -0.8962  1.1749
  435MOL0     H57402   7.295   6.588   8.223 -1.5488 -0.0175 -0.8828
  435MOL0     H57403   7.524   6.605   8.288 -0.5632  0.0272  0.4856
  435MOL0     H57404   7.930   6.807   8.165  1.8915  0.8707 -1.5698
  435MOL0     H57405   8.168   6.832   8.191  0.0054 -2.6394 -0.0027
  435MOL0     H57406   9.867   7.321   8.687  1.6128 -1.6356 -1.4392
  435MOL0     H57407  10.105   7.293   8.633  0.0525 -0.8809  0.5569
  435MOL0     H57408  10.594   7.651   8.480  0.1737  0.7229 -0.1458
  435MOL0     H57409  10.809   7.536   8.434 -0.1687 -1.4768 -0.6367
  435MOL0     H57410  10.891   7.122   8.621  0.9081 -0.6887  0.2982
  435MOL0     H57411  10.950   7.225   8.739  0.1149  0.8136  0.3349
  435MOL0     H57412  11.139   7.108   8.632  0.7223  1.2064 -0.7345
  435MOL0     H57413  11.090   7.172   8.475  0.0071  0.7847 -0.3308
  435MOL0     H57414  11.177   7.340   8.701 -1.5465  0.8343 -0.4876
  435MOL0     H57415  11.152   7.388   8.542  2.0683  0.8985  0.5421
  435MOL0     H57416  11.363   7.179   8.603  2.2674  2.0688  1.4876
  435MOL0     H57417  11.307   7.230   8.438  0.6918 -0.8433  0.1020
  435MOL0     H57418  11.594   7.521   8.573  1.4231 -1.2253 -0.3829
  435MOL0     H57419  10.713   7.240   8.733  0.4409 -1.0032 -2.4091
  435MOL0     H57420  10.494   7.336   8.751 -2.4680  0.4945 -1.6631
  436MOL0     O57421  11.212   1.350   0.038 -0.1502  0.5859  0.5801
  436MOL0     C57422  11.259   1.461   0.019 -0.4019 -0.6996  0.8232
  436MOL0     O57423  11.187   1.578  -0.004  0.3964 -0.2715  0.6352
  436MOL0     C57424  11.046   1.574  -0.013  0.1851  0.5543 -0.1885
  436MOL0     C57425  10.970   1.630   0.086  0.3135 -0.5688  0.6864
  436MOL0     C57426  10.827   1.622   0.082 -0.3543  1.8191  0.2560
  436MOL0     C57427  10.758   1.558  -0.020  0.0099  0.8391  0.1331
  436MOL0     O57428  10.626   1.534  -0.000  0.1402 -0.2233  0.3476
  436MOL0     C57429  10.555   1.438  -0.083 -0.2411  0.5818  0.0444
  436MOL0     C57430  10.403   1.427  -0.066  0.3376 -0.2723  0.0675
  436MOL0     C57431  10.343   1.343  -0.179  0.3074  0.6248 -0.4662
  436MOL0     C57432  10.206   1.388  -0.224 -0.2682 -0.5005 -0.5115
  436MOL0     C57433  10.106   1.381  -0.118  0.3630 -0.3788 -0.2077
  436MOL0     C57434   9.962   1.371  -0.173  0.6322 -0.1277  0.4686
  436MOL0     C57435   9.932   1.488  -0.275  0.9981 -0.0500 -0.1794
  436MOL0     C57436   9.787   1.467  -0.319  0.3896 -0.4267  0.1094
  436MOL0     N57437   9.691   1.534  -0.237  0.4846 -0.0472 -0.7105
  436MOL0     C57438   9.579   1.595  -0.283  0.5583 -0.1777  0.2647
  436MOL0     C57439   9.509   1.626  -0.169  1.0035  0.6261 -0.1503
  436MOL0     C57440   9.375   1.688  -0.138  0.0652 -0.2830 -0.2148
  436MOL0     C57441   9.360   1.840  -0.179 -0.0874 -0.3720 -0.5111
  436MOL0     C57442   9.214   1.895  -0.158  0.2976 -0.3988  0.2128
  436MOL0     C57443   9.176   1.979  -0.037 -0.3385 -0.3166  0.2962
  436MOL0     O57444   9.176   1.916   0.094 -1.1558  0.6376  0.6573
  436MOL0     C57445   9.071   1.840   0.139 -1.0242 -0.2172 -0.9244
  436MOL0     C57446   8.949   1.874   0.098  0.1546  0.6282  0.5745
  436MOL0     C57447   8.837   1.804   0.148 -0.5591  0.0258  0.4990
  436MOL0     C57448   8.844   1.715   0.255 -0.5776 -0.9860  0.4199
  436MOL0     C57449   8.733   1.629   0.309  1.0114  0.4170 -0.1896
  436MOL0     O57450   8.605   1.655   0.258  0.2037 -0.9065  0.0406
  436MOL0     C57451   8.508   1.588   0.322 -0.7846  0.3744 -0.7664
  436MOL0     C57452   8.514   1.563   0.461 -0.7583  0.1325 -0.2340
  436MOL0     C57453   8.413   1.501   0.524  0.2152  0.5234 -0.2494
  436MOL0     C57454   8.297   1.456   0.457 -0.1109 -1.0986  0.8902
  436MOL0     O57455   8.201   1.394   0.524 -0.0958 -0.3963  0.1925
  436MOL0     C57456   8.073   1.388   0.471 -0.5190  0.5203  0.0907
  436MOL0     C57457   7.956   1.378   0.572 -0.1337 -0.8555  0.4755
  436MOL0     C57458   7.825   1.363   0.500  0.0172  0.4188  1.0786
  436MOL0     C57459   7.699   1.376   0.587  0.2509  0.1797  0.3311
  436MOL0     C57460   7.567   1.335   0.527  0.8747  0.0839  0.1925
  436MOL0     C57461   7.534   1.411   0.388  0.3108  0.9080 -0.3670
  436MOL0     C57462   7.411   1.368   0.309  0.3599  0.5228  0.1810
  436MOL0     C57463   7.396   1.437   0.181  0.6083 -0.6743 -0.1105
  436MOL0    Cl57464   7.361   1.611   0.199 -0.1335  0.4121 -0.0947
  436MOL0     C57465   8.284   1.489   0.325  0.1441  0.4099  0.3471
  436MOL0     C57466   8.387   1.555   0.256  0.8149 -0.1242 -0.8214
  436MOL0     O57467   8.762   1.522   0.370  0.6956 -0.0883 -0.6925
  436MOL0     C57468   8.966   1.696   0.308 -0.1567  0.4881  0.7462
  436MOL0     C57469   9.081   1.746   0.245 -0.3679 -0.1880  0.3886
  436MOL0     N57470   9.579   1.567  -0.061 -0.9010 -0.3314 -0.6292
  436MOL0     N57471   9.686   1.519  -0.106 -0.2246 -0.2384 -0.1673
  436MOL0     C57472  10.836   1.486  -0.107  0.5381  0.2490 -0.4140
  436MOL0     C57473  10.977   1.501  -0.113  0.8434  0.4472 -0.4875
  436MOL0     C57474  11.402   1.480   0.019  0.9379 -1.0730  0.6986
  436MOL0     C57475  11.481   1.367   0.040 -0.3815  0.8685 -0.1692
  436MOL0     C57476  11.623   1.380   0.054 -0.2437  0.3433  1.0854
  436MOL0     C57477  11.692   1.501   0.050  0.1920 -0.3876 -0.9361
  436MOL0     O57478  11.827   1.494   0.061  0.1437  0.3771  1.1828
  436MOL0     C57479  11.886   1.618   0.059 -0.2011  0.4795 -0.1156
  436MOL0     C57480  12.016   1.590   0.132 -0.3431 -0.5046  0.3010
  436MOL0     C57481  12.127   1.542   0.045 -0.1087 -0.1076  0.7963
  436MOL0     C57482  12.257   1.490   0.118 -0.2210  0.5140  0.4224
  436MOL0     C57483  12.312   1.594   0.213 -0.3404  0.5397  0.1081
  436MOL0     C57484  12.369   1.682   0.274  0.4700  0.7569  0.6401
  436MOL0     C57485  11.614   1.619   0.024 -0.1521 -0.6254  0.8266
  436MOL0     C57486  11.473   1.605  -0.002  0.7302  0.3589  0.9430
  436MOL0     H57487  11.022   1.682   0.166  0.9159 -0.6700  0.3647
  436MOL0     H57488  10.755   1.658   0.156 -1.8355  0.5451 -0.5035
  436MOL0     H57489  10.596   1.338  -0.069 -0.9162  0.2453 -0.3603
  436MOL0     H57490  10.573   1.477  -0.183 -1.1076  3.6438  0.9596
  436MOL0     H57491  10.358   1.526  -0.066 -2.2931 -1.3939 -0.6066
  436MOL0     H57492  10.391   1.391   0.036 -0.9897  0.3470  0.1381
  436MOL0     H57493  10.338   1.240  -0.143  2.1757 -0.5362 -3.1966
  436MOL0     H57494  10.399   1.350  -0.273  0.5542  0.3081 -0.3467
  436MOL0     H57495  10.211   1.494  -0.248  1.9343 -1.1737 -3.5157
  436MOL0     H57496  10.176   1.329  -0.311  0.5510 -0.1060 -1.0656
  436MOL0     H57497  10.114   1.465  -0.049  0.8128  1.5006 -2.4171
  436MOL0     H57498  10.135   1.297  -0.055 -0.3752  0.3812  1.1781
  436MOL0     H57499   9.887   1.370  -0.093  1.9836  0.2572  1.7811
  436MOL0     H57500   9.953   1.279  -0.232 -2.6391  1.1810 -1.3730
  436MOL0     H57501   9.941   1.589  -0.234  0.1114  0.8314 -2.0097
  436MOL0     H57502   9.994   1.491  -0.366 -2.4622  1.1971 -2.7338
  436MOL0     H57503   9.760   1.361  -0.328  1.3070 -0.7511  1.0948
  436MOL0     H57504   9.793   1.512  -0.419  0.2288  1.9215  1.0755
  436MOL0     H57505   9.539   1.594  -0.384  1.9543  1.6662 -0.3584
  436MOL0     H57506   9.364   1.696  -0.029 -0.4049  1.7624 -0.3741
  436MOL0     H57507   9.296   1.633  -0.189 -0.6026 -0.0246  0.5163
  436MOL0     H57508   9.392   1.852  -0.283  2.0439  0.5469  0.1812
  436MOL0     H57509   9.424   1.896  -0.109  0.5626 -2.6914  0.8450
  436MOL0     H57510   9.179   1.947  -0.248  2.2931  1.1991  0.2848
  436MOL0     H57511   9.147   1.809  -0.151  1.2502 -1.4181 -2.2092
  436MOL0     H57512   9.081   2.025  -0.065  0.0567 -0.5049 -1.4921
  436MOL0     H57513   9.253   2.056  -0.036 -0.0980 -0.5504  1.3586
  436MOL0     H57514   8.922   1.948   0.023  1.7970 -0.4468 -1.1881
  436MOL0     H57515   8.747   1.826   0.092 -0.0512  1.0238  0.0430
  436MOL0     H57516   8.597   1.582   0.528  1.3414 -2.7836 -1.7532
  436MOL0     H57517   8.412   1.476   0.629  3.6962 -0.4137 -0.3087
  436MOL0     H57518   8.074   1.303   0.401  3.8808 -0.8313  1.4734
  436MOL0     H57519   8.045   1.477   0.415 -1.1158  0.5581  0.4325
  436MOL0     H57520   7.966   1.469   0.631  4.0522 -3.5938  4.6920
  436MOL0     H57521   7.961   1.292   0.639 -0.0378 -0.5340  0.8797
  436MOL0     H57522   7.815   1.260   0.463 -3.0942  0.4978  1.4320
  436MOL0     H57523   7.820   1.443   0.425  0.1345  0.1214  0.7512
  436MOL0     H57524   7.720   1.312   0.673  0.4194 -0.7800 -0.3983
  436MOL0     H57525   7.685   1.478   0.622 -2.0524  0.4190 -1.1035
  436MOL0     H57526   7.494   1.351   0.607 -0.5013 -0.0846 -0.9726
  436MOL0     H57527   7.569   1.227   0.508  2.1316  0.3556 -1.4812
  436MOL0     H57528   7.622   1.408   0.323  0.5785  1.8647 -0.0639
  436MOL0     H57529   7.520   1.513   0.425  1.0101  1.0117 -0.3772
  436MOL0     H57530   7.420   1.266   0.270 -0.5787  0.7891 -0.7777
  436MOL0     H57531   7.323   1.379   0.373 -0.4031 -1.1572 -0.5067
  436MOL0     H57532   7.320   1.407   0.109 -1.8984  0.0183  2.1002
  436MOL0     H57533   7.488   1.418   0.125  0.4331  0.8924 -0.9978
  436MOL0     H57534   8.200   1.453   0.268  0.2818 -0.1335  0.4763
  436MOL0     H57535   8.366   1.581   0.152 -2.5533 -0.4325 -0.3234
  436MOL0     H57536   8.989   1.631   0.391  1.6205  0.3637  0.1922
  436MOL0     H57537   9.174   1.731   0.297 -0.2471 -0.9668 -0.0445
  436MOL0     H57538  10.789   1.414  -0.173  2.3064 -2.5281  1.1652
  436MOL0     H57539  11.033   1.451  -0.192 -0.1718 -0.6507 -0.5389
  436MOL0     H57540  11.446   1.265   0.047  2.7397 -0.2104  1.5579
  436MOL0     H57541  11.670   1.283   0.063  1.9949  0.6762 -3.6962
  436MOL0     H57542  11.836   1.698   0.115  2.3014  1.4003  0.9839
  436MOL0     H57543  11.892   1.656  -0.044 -2.2655  2.7058  0.4775
  436MOL0     H57544  12.045   1.684   0.178  2.4607 -0.9713 -0.3577
  436MOL0     H57545  11.991   1.534   0.222  0.5190  0.6604  1.2938
  436MOL0     H57546  12.162   1.614  -0.030  0.8426  0.1463  1.4553
  436MOL0     H57547  12.081   1.460  -0.010 -2.0603  1.6086 -0.2834
  436MOL0     H57548  12.240   1.391   0.162 -0.2504 -0.9431 -2.5941
  436MOL0     H57549  12.329   1.461   0.041 -1.2707 -0.0411 -0.3660
  436MOL0     H57550  12.404   1.753   0.347  1.2960 -1.0968  2.1349
  436MOL0     H57551  11.652   1.719   0.005 -3.4266  0.1498 -2.9462
  436MOL0     H57552  11.415   1.690  -0.035 -1.0979 -0.2473  2.4011
  437MOL0     O57553   5.645  11.032   8.600 -0.1766 -0.3996 -0.1074
  437MOL0     C57554   5.678  11.150   8.632 -0.4570  0.3961  0.0232
  437MOL0     O57555   5.593  11.254   8.663 -0.3892 -0.3854 -0.2020
  437MOL0     C57556   5.458  11.246   8.656  0.3282 -0.0389 -0.9634
  437MOL0     C57557   5.391  11.300   8.768  0.5843  0.6499  0.4471
  437MOL0     C57558   5.254  11.301   8.764  0.0608  0.6673 -0.0146
  437MOL0     C57559   5.172  11.241   8.661  0.2053 -0.7048 -0.4507
  437MOL0     O57560   5.038  11.234   8.663  0.1041 -0.5259 -0.2135
  437MOL0     C57561   4.977  11.364   8.684  0.6855  0.5698 -0.2084
  437MOL0     C57562   4.825  11.368   8.638  0.3817  0.1554 -0.0233
  437MOL0     C57563   4.747  11.260   8.719 -0.1332  0.8620  0.6522
  437MOL0     C57564   4.598  11.253   8.687  0.7031  0.5563 -0.3020
  437MOL0     C57565   4.527  11.129   8.751 -0.3327 -0.2168  0.8823
  437MOL0     C57566   4.381  11.138   8.706  0.7029  0.1854  1.0548
  437MOL0     C57567   4.305  11.028   8.770 -0.4269 -0.0468  0.4916
  437MOL0     C57568   4.174  10.992   8.704 -0.1151  0.5601 -0.5090
  437MOL0     N57569   4.076  11.093   8.714 -0.4173 -0.4735 -0.8478
  437MOL0     C57570   4.017  11.149   8.830  0.1658 -0.2648 -0.3196
  437MOL0     C57571   3.955  11.264   8.785  1.1550 -0.3694  0.2002
  437MOL0     C57572   3.857  11.353   8.865 -0.6002  0.3363 -0.2297
  437MOL0     C57573   3.714  11.301   8.848  0.8740  0.2445 -0.4609
  437MOL0     C57574   3.605  11.413   8.845  0.1619  0.9479  0.4792
  437MOL0     C57575   3.555  11.474   8.978  0.4111  1.2526  0.8673
  437MOL0     O57576   3.447  11.562   8.951  0.0373  0.9243 -0.2447
  437MOL0     C57577   3.378  11.608   9.062 -0.1742  0.0092  0.3739
  437MOL0     C57578   3.442  11.643   9.183 -0.0251  0.6342  0.9016
  437MOL0     C57579   3.365  11.682   9.292  0.5089  0.7002  0.0962
  437MOL0     C57580   3.218  11.708   9.282 -1.4591 -0.2599 -0.0356
  437MOL0     C57581   3.132  11.756   9.396  0.3664  0.0402  1.0156
  437MOL0     O57582   2.993  11.744   9.378  0.8698  0.9306 -0.1949
  437MOL0     C57583   2.912  11.795   9.474  0.2853 -0.9097 -0.6908
  437MOL0     C57584   2.784  11.742   9.497  0.4753 -0.3058 -0.3719
  437MOL0     C57585   2.695  11.798   9.590  0.1105  0.2800 -0.4241
  437MOL0     C57586   2.725  11.917   9.659 -0.0461  0.6893 -0.5206
  437MOL0     O57587   2.628  11.969   9.743 -0.0407 -0.8452 -0.5503
  437MOL0     C57588   2.660  12.099   9.810 -0.2292  0.0001 -0.3759
  437MOL0     C57589   2.539  12.171   9.856  0.9342  0.0767  1.0114
  437MOL0     C57590   2.429  12.086   9.908  0.3615  0.6480 -0.1648
  437MOL0     C57591   2.308  12.174   9.949  0.5561  0.1354  0.0631
  437MOL0     C57592   2.218  12.085  10.035 -0.2744  0.0140 -0.2298
  437MOL0     C57593   2.093  12.161  10.089  0.2052  0.0827 -0.0727
  437MOL0     C57594   2.008  12.049  10.166  0.0096 -0.4252 -0.0574
  437MOL0     C57595   1.871  12.097  10.210 -0.0393  0.2321  0.6131
  437MOL0    Cl57596   1.883  12.221  10.345  0.4373 -0.0018 -0.0098
  437MOL0     C57597   2.860  11.976   9.641  1.1219 -0.3583  0.2607
  437MOL0     C57598   2.943  11.913   9.548  0.4358  0.5933  0.3279
  437MOL0     O57599   3.190  11.785   9.498  0.6043  0.0110 -0.0393
  437MOL0     C57600   3.164  11.679   9.152 -0.3272  0.0963 -0.6806
  437MOL0     C57601   3.241  11.630   9.046  0.2675 -0.0886 -0.6628
  437MOL0     N57602   3.991  11.283   8.647  0.3237 -0.1680  0.2907
  437MOL0     N57603   4.052  11.178   8.609 -0.1237  0.3968  0.3616
  437MOL0     C57604   5.239  11.187   8.557  0.6292 -0.9675  0.2677
  437MOL0     C57605   5.381  11.185   8.559 -1.0457  1.1560  0.2610
  437MOL0     C57606   5.823  11.163   8.650 -0.2727  0.3872  0.4442
  437MOL0     C57607   5.879  11.276   8.705 -0.6152 -0.3958  0.3075
  437MOL0     C57608   6.018  11.291   8.715 -0.8869  0.4005 -0.4267
  437MOL0     C57609   6.111  11.190   8.663 -0.2292 -0.3027  0.7550
  437MOL0     O57610   6.240  11.223   8.648  0.7305  0.5496 -0.1052
  437MOL0     C57611   6.332  11.116   8.638  0.2264 -0.3093 -0.0178
  437MOL0     C57612   6.467  11.161   8.657 -0.4445  0.1484  0.1395
  437MOL0     C57613   6.486  11.227   8.805  0.1068  0.3518  0.3281
  437MOL0     C57614   6.632  11.263   8.834 -0.5662  0.0827 -0.3078
  437MOL0     C57615   6.726  11.150   8.844  0.0985  0.0672 -0.1518
  437MOL0     C57616   6.803  11.054   8.853  0.7738  0.6827 -0.8677
  437MOL0     C57617   6.046  11.079   8.595 -0.1685 -0.3885 -0.1349
  437MOL0     C57618   5.905  11.061   8.598 -0.7603 -0.3018  0.8474
  437MOL0     H57619   5.453  11.350   8.843  3.7758 -1.0308 -0.8760
  437MOL0     H57620   5.201  11.350   8.846  0.1844  2.7609 -1.1088
  437MOL0     H57621   5.031  11.443   8.631  2.9291 -1.4759 -1.1653
  437MOL0     H57622   4.982  11.386   8.791  0.3416 -2.7393  0.5814
  437MOL0     H57623   4.820  11.350   8.531 -1.9543 -0.1409  0.0752
  437MOL0     H57624   4.781  11.466   8.661 -1.4842 -0.6431 -0.0127
  437MOL0     H57625   4.761  11.286   8.824  1.6651 -0.5956  0.8121
  437MOL0     H57626   4.798  11.165   8.698 -0.1231  0.2738  3.0220
  437MOL0     H57627   4.554  11.345   8.726  1.7217  1.5156 -1.3224
  437MOL0     H57628   4.582  11.255   8.578 -4.4389 -0.2736  0.2057
  437MOL0     H57629   4.545  11.130   8.859  1.2392 -1.1988  0.6595
  437MOL0     H57630   4.578  11.044   8.705 -1.6739 -0.7411  0.3242
  437MOL0     H57631   4.367  11.122   8.598 -0.9013 -2.5006  1.5955
  437MOL0     H57632   4.335  11.232   8.739  0.4901 -0.0644  1.4602
  437MOL0     H57633   4.366  10.939   8.784 -3.3260 -2.4748 -1.0756
  437MOL0     H57634   4.283  11.070   8.869  1.4218  1.0833  0.4631
  437MOL0     H57635   4.132  10.909   8.762 -0.8907 -0.6128 -2.6550
  437MOL0     H57636   4.194  10.955   8.603  1.7449 -4.6375  1.3932
  437MOL0     H57637   4.014  11.110   8.931  3.0911 -0.7063 -0.3225
  437MOL0     H57638   3.862  11.452   8.817  1.0687 -0.4714 -1.8388
  437MOL0     H57639   3.882  11.359   8.971 -0.4751 -2.6919 -0.0097
  437MOL0     H57640   3.697  11.243   8.940  0.1984  1.7332  0.3901
  437MOL0     H57641   3.699  11.245   8.755  2.1428 -1.2309  0.1778
  437MOL0     H57642   3.636  11.491   8.775  1.0343  2.3043  2.2894
  437MOL0     H57643   3.515  11.372   8.797  0.5633  0.2876  0.2677
  437MOL0     H57644   3.629  11.524   9.043 -0.8626  0.8080  2.7513
  437MOL0     H57645   3.520  11.400   9.051  2.2504  0.8415  1.4031
  437MOL0     H57646   3.546  11.624   9.204  0.0534 -0.6743 -0.5151
  437MOL0     H57647   3.409  11.707   9.388 -2.0319  1.0652  1.2489
  437MOL0     H57648   2.767  11.649   9.444  1.1664 -0.5921 -0.1055
  437MOL0     H57649   2.596  11.762   9.616 -0.6396 -0.4132 -3.8577
  437MOL0     H57650   2.711  12.154   9.731  0.4452 -0.9628 -0.6318
  437MOL0     H57651   2.731  12.085   9.892 -0.4824  1.3754  0.1128
  437MOL0     H57652   2.495  12.223   9.771 -0.4175 -0.9578  1.0494
  437MOL0     H57653   2.560  12.248   9.932  0.8231  0.8631  0.2625
  437MOL0     H57654   2.467  12.037   9.997 -2.6173  1.5751  1.7667
  437MOL0     H57655   2.383  12.013   9.841  1.1572  0.6583 -0.7452
  437MOL0     H57656   2.338  12.269   9.994 -0.0984  1.8235 -2.8233
  437MOL0     H57657   2.257  12.201   9.857 -0.2162  0.2506  0.5165
  437MOL0     H57658   2.271  12.050  10.124  0.4527  0.1049 -0.6210
  437MOL0     H57659   2.186  11.996   9.981  2.9398 -0.5426 -1.4153
  437MOL0     H57660   2.035  12.207  10.008  3.4192  1.8634 -1.5546
  437MOL0     H57661   2.116  12.230  10.171  2.7812 -2.9718  2.0443
  437MOL0     H57662   2.008  11.960  10.103  2.3525 -0.5106 -0.0517
  437MOL0     H57663   2.068  12.021  10.253  1.7076 -2.9911 -1.9014
  437MOL0     H57664   1.812  12.016  10.253  0.1898 -0.1068  0.2957
  437MOL0     H57665   1.820  12.151  10.130 -0.4854 -0.4981  0.3991
  437MOL0     H57666   2.882  12.071   9.688 -1.2866  0.2326  0.3509
  437MOL0     H57667   3.034  11.968   9.528  1.1817 -0.1499  1.6267
  437MOL0     H57668   3.056  11.678   9.145 -0.3915 -1.2298  0.0327
  437MOL0     H57669   3.201  11.615   8.946  0.7416 -0.3673 -0.8104
  437MOL0     H57670   5.189  11.144   8.471  1.9394  0.8088 -1.4507
  437MOL0     H57671   5.432  11.143   8.472 -1.3093 -0.8661  1.0353
  437MOL0     H57672   5.816  11.349   8.754 -0.6011 -1.3463  1.8011
  437MOL0     H57673   6.061  11.382   8.753  1.0166  0.3000 -2.1834
  437MOL0     H57674   6.324  11.062   8.544  0.6476  0.3013 -0.4105
  437MOL0     H57675   6.311  11.034   8.708  3.2343 -0.6870  0.5780
  437MOL0     H57676   6.522  11.069   8.636 -0.9163  0.2890 -1.8771
  437MOL0     H57677   6.507  11.229   8.581 -2.4996 -0.2916 -1.4114
  437MOL0     H57678   6.438  11.160   8.876 -3.2977  2.7261  0.5559
  437MOL0     H57679   6.426  11.319   8.814 -1.1862 -0.5335  1.1038
  437MOL0     H57680   6.650  11.309   8.736 -3.4299  0.7642 -0.5980
  437MOL0     H57681   6.640  11.343   8.908 -2.0667  1.2023 -1.2931
  437MOL0     H57682   6.881  10.981   8.866  1.4402  1.7354  1.5231
  437MOL0     H57683   6.105  10.999   8.551 -1.9036 -2.7369  1.5517
  437MOL0     H57684   5.866  10.972   8.548 -0.5235 -0.1480  0.3865
  438MOL0     O57685   8.096  10.167   3.764 -0.6617 -0.7829 -0.7843
  438MOL0     C57686   7.995  10.142   3.701 -0.3199  0.2812 -0.9309
  438MOL0     O57687   7.867  10.179   3.741 -0.4813  0.0835 -0.6840
  438MOL0     C57688   7.854  10.226   3.867 -0.1536 -0.0247  0.0179
  438MOL0     C57689   7.810  10.154   3.975 -0.3511 -0.5719  0.0555
  438MOL0     C57690   7.792  10.218   4.100  0.2078  0.4179  0.6595
  438MOL0     C57691   7.823  10.354   4.122  0.8028  0.1941  0.0644
  438MOL0     O57692   7.815  10.420   4.228 -0.5580  0.0928 -0.3288
  438MOL0     C57693   7.857  10.363   4.346  0.6174  0.6190  0.0247
  438MOL0     C57694   7.901  10.466   4.455 -0.4435  0.8494  0.5344
  438MOL0     C57695   7.974  10.401   4.569  0.1784 -0.1954 -0.6593
  438MOL0     C57696   8.026  10.506   4.670  0.9314  0.0924 -0.5503
  438MOL0     C57697   8.131  10.458   4.769  0.8095  0.2503 -0.0674
  438MOL0     C57698   8.072  10.341   4.849 -0.4037  0.1973 -0.1554
  438MOL0     C57699   8.148  10.307   4.966 -0.1428 -0.6018  0.0416
  438MOL0     C57700   8.293  10.274   4.956 -0.4912  0.2242 -0.4377
  438MOL0     N57701   8.312  10.150   4.873 -0.3487 -0.7701 -0.7613
  438MOL0     C57702   8.275  10.026   4.918 -0.1002 -0.4137  0.6186
  438MOL0     C57703   8.292   9.944   4.816 -0.3684 -0.3057 -0.1890
  438MOL0     C57704   8.273   9.797   4.826 -0.2711  0.3492 -0.7767
  438MOL0     C57705   8.129   9.760   4.806  0.1840 -0.4539 -0.1169
  438MOL0     C57706   8.120   9.626   4.738 -0.4727 -0.2210 -0.6614
  438MOL0     C57707   7.983   9.560   4.715  0.2332  0.2600 -0.1862
  438MOL0     O57708   7.889   9.584   4.823  0.1526 -0.3378  0.4408
  438MOL0     C57709   7.767   9.523   4.799  0.3318 -0.6342 -1.1121
  438MOL0     C57710   7.678   9.555   4.895 -0.4507  0.3060 -0.4766
  438MOL0     C57711   7.568   9.481   4.921  0.6546  0.2180 -0.2580
  438MOL0     C57712   7.519   9.396   4.827  0.9544 -0.9197  0.4635
  438MOL0     C57713   7.384   9.336   4.841 -0.6801 -0.6517  0.0720
  438MOL0     O57714   7.346   9.272   4.735  0.6264  0.4974 -0.0961
  438MOL0     C57715   7.210   9.249   4.716 -0.2364  0.9070  0.5258
  438MOL0     C57716   7.123   9.360   4.693  0.3919  0.4978 -0.1514
  438MOL0     C57717   6.988   9.335   4.670 -1.1670  0.3462  0.0461
  438MOL0     C57718   6.950   9.205   4.652 -0.1864 -0.5224 -0.9054
  438MOL0     O57719   6.823   9.179   4.613 -0.0118 -0.3854 -0.2119
  438MOL0     C57720   6.743   9.109   4.710  0.3126 -0.0612  0.4295
  438MOL0     C57721   6.717   9.203   4.833 -0.2525  0.5733  1.1426
  438MOL0     C57722   6.621   9.124   4.929 -0.1491 -0.1972 -0.3075
  438MOL0     C57723   6.620   9.175   5.080 -1.3366  0.4700  0.5672
  438MOL0     C57724   6.516   9.111   5.175 -1.1608  0.8759 -0.1846
  438MOL0     C57725   6.544   8.963   5.201 -0.7386  0.1364 -0.3646
  438MOL0     C57726   6.442   8.905   5.302  0.1367 -0.6152  1.1026
  438MOL0     C57727   6.303   8.887   5.239  0.2877  1.0628  0.2086
  438MOL0    Cl57728   6.197   8.800   5.359  0.2116 -0.0797 -0.2940
  438MOL0     C57729   7.041   9.091   4.664  0.2074  0.9419  0.6614
  438MOL0     C57730   7.172   9.118   4.713 -0.3645 -0.3461  0.8072
  438MOL0     O57731   7.320   9.353   4.939 -0.1403 -0.1398  0.1315
  438MOL0     C57732   7.598   9.363   4.717  0.2390 -0.5059 -0.6537
  438MOL0     C57733   7.731   9.421   4.707  0.7666 -0.3151 -0.2438
  438MOL0     N57734   8.340  10.013   4.709 -0.9677  0.1405  0.0499
  438MOL0     N57735   8.356  10.141   4.744  0.5376 -0.8325  0.1815
  438MOL0     C57736   7.863  10.427   4.013  0.3306  0.1753  0.3415
  438MOL0     C57737   7.880  10.363   3.886 -0.0656 -0.5567  0.4995
  438MOL0     C57738   8.011  10.069   3.567 -0.1987 -0.1773 -0.8723
  438MOL0     C57739   7.904  10.029   3.488 -0.4578 -0.1994 -0.0565
  438MOL0     C57740   7.933   9.966   3.370 -0.3886 -0.4450 -0.0048
  438MOL0     C57741   8.067   9.946   3.324  0.2342 -0.0660  0.3149
  438MOL0     O57742   8.086   9.898   3.202 -0.1993  0.4604  0.0964
  438MOL0     C57743   8.041   9.977   3.086 -0.1377  0.1943 -0.9262
  438MOL0     C57744   8.137  10.097   3.077  0.7054 -0.1633  0.0670
  438MOL0     C57745   8.094  10.189   2.959  0.1429  0.1843 -0.3188
  438MOL0     C57746   8.192  10.190   2.847  0.3379  0.2383 -0.2152
  438MOL0     C57747   8.252  10.058   2.813  0.7834 -0.0228  0.0148
  438MOL0     C57748   8.330   9.969   2.783  0.0964 -0.9767 -0.7322
  438MOL0     C57749   8.177   9.977   3.403  0.4592 -0.2853  0.0636
  438MOL0     C57750   8.146  10.038   3.530 -0.5937 -0.6161 -0.7732
  438MOL0     H57751   7.781  10.051   3.958 -0.8347 -0.5759  0.8251
  438MOL0     H57752   7.749  10.166   4.186  2.5449  2.4280  3.2374
  438MOL0     H57753   7.940  10.295   4.327 -0.5511 -1.0507  0.6821
  438MOL0     H57754   7.781  10.309   4.404  0.7711 -0.3132 -0.6272
  438MOL0     H57755   7.816  10.524   4.491 -2.1296 -1.7836  1.0352
  438MOL0     H57756   7.961  10.542   4.404  0.1543 -0.8338 -1.4066
  438MOL0     H57757   8.060  10.354   4.520 -0.0513 -0.5596 -0.7175
  438MOL0     H57758   7.914  10.325   4.619 -0.3675  1.1606  0.8460
  438MOL0     H57759   8.059  10.594   4.615 -1.4685  1.4083  0.0060
  438MOL0     H57760   7.942  10.555   4.720 -0.3428 -3.4699  1.1174
  438MOL0     H57761   8.146  10.537   4.844  2.7993  1.1141 -1.3056
  438MOL0     H57762   8.224  10.434   4.717 -0.2100 -0.6554 -1.5639
  438MOL0     H57763   8.072  10.251   4.786  1.1741  1.8796 -2.7356
  438MOL0     H57764   7.972  10.362   4.886  1.2225  0.8489  4.4552
  438MOL0     H57765   8.128  10.384   5.040  0.8993  2.7309 -2.8630
  438MOL0     H57766   8.094  10.223   5.011 -3.8266  1.5075  0.0118
  438MOL0     H57767   8.335  10.256   5.055  0.6428  1.7938 -0.5980
  438MOL0     H57768   8.331  10.358   4.897 -1.9297  0.0119 -1.7350
  438MOL0     H57769   8.232   9.998   5.014  1.0556  1.3011  1.6796
  438MOL0     H57770   8.310   9.755   4.920  2.1015  1.1690 -1.2686
  438MOL0     H57771   8.334   9.743   4.754 -2.0221 -1.3409 -1.0649
  438MOL0     H57772   8.085   9.832   4.736 -0.0898  1.4898  1.9251
  438MOL0     H57773   8.066   9.769   4.895 -3.7170  2.4992 -2.7913
  438MOL0     H57774   8.173   9.634   4.642  0.3706  1.6751 -0.0800
  438MOL0     H57775   8.171   9.554   4.803  0.0738 -1.1821 -2.0935
  438MOL0     H57776   8.001   9.452   4.715 -1.3529 -0.0372  0.5875
  438MOL0     H57777   7.941   9.598   4.622  0.8128  2.5630  0.4134
  438MOL0     H57778   7.712   9.626   4.970  1.0108  0.0516 -0.8548
  438MOL0     H57779   7.499   9.511   4.999 -0.0073  0.6028 -0.9685
  438MOL0     H57780   7.156   9.463   4.689 -1.7456  1.2093 -0.9431
  438MOL0     H57781   6.930   9.423   4.645 -3.0337 -1.3816 -2.0646
  438MOL0     H57782   6.794   9.015   4.737  1.6835 -0.0321 -1.8282
  438MOL0     H57783   6.648   9.077   4.666  0.4413 -1.0086  0.7957
  438MOL0     H57784   6.663   9.293   4.801 -0.0558 -0.3169 -2.0654
  438MOL0     H57785   6.812   9.222   4.885  2.3975 -3.8248 -1.4371
  438MOL0     H57786   6.661   9.022   4.928 -3.2403 -1.5183 -0.3091
  438MOL0     H57787   6.519   9.124   4.889  0.0620  2.1733 -0.9848
  438MOL0     H57788   6.716   9.145   5.124 -1.3699 -0.9248 -0.2680
  438MOL0     H57789   6.604   9.283   5.067  0.6297  0.8257  0.6760
  438MOL0     H57790   6.418   9.119   5.127 -1.8875 -3.6159  0.1435
  438MOL0     H57791   6.525   9.163   5.271 -0.1839 -2.5488  1.7377
  438MOL0     H57792   6.649   8.951   5.230 -1.0384 -0.1814  0.6205
  438MOL0     H57793   6.526   8.908   5.108 -2.3001  1.3501 -0.8131
  438MOL0     H57794   6.478   8.805   5.329 -0.2374 -1.3833 -1.0104
  438MOL0     H57795   6.441   8.964   5.394 -0.0320  1.6362 -0.2838
  438MOL0     H57796   6.295   8.834   5.143 -2.1348  1.4126  0.1487
  438MOL0     H57797   6.254   8.980   5.209 -1.6045 -0.2410 -0.9754
  438MOL0     H57798   7.019   8.987   4.644 -3.7240  1.8909 -0.9181
  438MOL0     H57799   7.241   9.039   4.741  0.8171 -0.5971 -2.3486
  438MOL0     H57800   7.570   9.286   4.646 -0.9501 -1.2322  0.5462
  438MOL0     H57801   7.806   9.381   4.640 -0.7255 -0.9838 -1.5674
  438MOL0     H57802   7.881  10.533   4.027 -1.5486  0.5751 -0.0094
  438MOL0     H57803   7.906  10.419   3.797  2.5033 -1.0020  0.8997
  438MOL0     H57804   7.799  10.035   3.514 -0.2974  1.6413  0.3084
  438MOL0     H57805   7.854   9.922   3.310  0.0184 -4.0127  1.8104
  438MOL0     H57806   7.942  10.021   3.103  0.1104  1.1350 -1.7623
  438MOL0     H57807   8.037   9.909   3.000 -6.2055 -1.0918 -0.0767
  438MOL0     H57808   8.138  10.161   3.166  0.6739  2.3981 -1.6731
  438MOL0     H57809   8.241  10.061   3.076  0.8305 -0.2265  3.3769
  438MOL0     H57810   8.079  10.288   3.003  0.3412 -1.2932  3.4357
  438MOL0     H57811   7.998  10.156   2.920  0.8267 -0.7639 -1.2450
  438MOL0     H57812   8.139  10.226   2.759  2.0741 -0.4108 -1.5769
  438MOL0     H57813   8.274  10.261   2.856  0.7248 -0.1589 -0.5636
  438MOL0     H57814   8.399   9.890   2.762  0.3673 -0.8567 -0.3157
  438MOL0     H57815   8.273   9.968   3.355  0.0804  0.5016 -0.8808
  438MOL0     H57816   8.235  10.067   3.586 -1.1740 -0.6080  0.1596
  439MOL0     O57817   3.453   6.709   2.886  1.0188 -0.8623 -0.4269
  439MOL0     C57818   3.445   6.586   2.887 -0.3636  0.2906  0.1497
  439MOL0     O57819   3.547   6.500   2.919 -1.0169  0.8005  0.2470
  439MOL0     C57820   3.679   6.528   2.942  0.0632  0.1826 -0.5874
  439MOL0     C57821   3.745   6.638   2.895 -0.4373 -0.3388  0.6814
  439MOL0     C57822   3.878   6.664   2.921 -0.1825 -0.3614  0.8289
  439MOL0     C57823   3.956   6.589   3.003  0.6985  1.2066  0.1485
  439MOL0     O57824   4.078   6.631   3.041  0.0122 -0.1236 -0.0252
  439MOL0     C57825   4.149   6.549   3.141 -0.1167  0.0040  0.3048
  439MOL0     C57826   4.251   6.646   3.211 -2.0143  0.2782 -0.1413
  439MOL0     C57827   4.352   6.543   3.274 -0.8032 -0.2246 -0.3041
  439MOL0     C57828   4.442   6.626   3.377  0.5078 -0.5048 -0.0120
  439MOL0     C57829   4.542   6.549   3.457 -0.3252  1.1746  0.8986
  439MOL0     C57830   4.628   6.634   3.550 -0.4090 -0.4674 -0.0673
  439MOL0     C57831   4.716   6.550   3.631  1.0753  0.6579  0.5380
  439MOL0     C57832   4.845   6.483   3.567  0.5817  0.4917  0.4413
  439MOL0     N57833   4.915   6.389   3.652  0.1376 -0.0091  0.1211
  439MOL0     C57834   5.018   6.399   3.748  0.4137  0.3429 -0.6643
  439MOL0     C57835   5.048   6.280   3.784 -0.1954 -0.0236 -0.4317
  439MOL0     C57836   5.126   6.242   3.903 -0.4816 -0.1439  0.3173
  439MOL0     C57837   5.037   6.192   4.013 -1.1457 -0.1221 -0.4432
  439MOL0     C57838   4.950   6.300   4.064 -0.1141  0.4046 -0.7848
  439MOL0     C57839   4.876   6.247   4.190  0.2309 -0.6075  0.6962
  439MOL0     O57840   4.826   6.366   4.240 -0.1747  0.0398 -0.6189
  439MOL0     C57841   4.700   6.406   4.201  0.1810  0.0890 -0.1526
  439MOL0     C57842   4.680   6.489   4.090  0.6595 -0.6168 -0.5073
  439MOL0     C57843   4.559   6.545   4.061 -0.1998 -0.3751 -0.5947
  439MOL0     C57844   4.448   6.517   4.141  1.1434 -0.6230  0.0535
  439MOL0     C57845   4.307   6.567   4.115  0.4547  0.0763 -0.8471
  439MOL0     O57846   4.211   6.491   4.165 -0.1523 -0.0242 -0.2521
  439MOL0     C57847   4.090   6.495   4.103 -0.3965 -0.1840 -0.0083
  439MOL0     C57848   4.078   6.450   3.966  0.1251  0.5488 -0.1861
  439MOL0     C57849   3.951   6.457   3.906  0.1624  0.2266 -0.8357
  439MOL0     C57850   3.839   6.510   3.971  0.2587  0.0320  1.0305
  439MOL0     O57851   3.716   6.525   3.918 -0.2648  0.3999  0.4310
  439MOL0     C57852   3.689   6.480   3.777  0.7130  0.4719 -0.5901
  439MOL0     C57853   3.533   6.487   3.760 -0.9701  0.1681 -0.1151
  439MOL0     C57854   3.466   6.617   3.782  0.2482  0.3575 -0.2927
  439MOL0     C57855   3.314   6.594   3.755 -0.3363  0.1148  0.3242
  439MOL0     C57856   3.239   6.727   3.734 -0.2732 -0.1113 -0.8761
  439MOL0     C57857   3.092   6.706   3.751  0.6760 -0.7269  0.0768
  439MOL0     C57858   3.024   6.830   3.699 -0.2825 -0.2964  0.2291
  439MOL0     C57859   3.024   6.842   3.547 -0.5740 -0.7216 -0.2190
  439MOL0    Cl57860   2.886   6.752   3.476  0.1091  0.3185 -0.1187
  439MOL0     C57861   3.857   6.554   4.106 -0.2315 -0.4341  0.5072
  439MOL0     C57862   3.983   6.538   4.174  0.3432 -0.7451 -0.3251
  439MOL0     O57863   4.285   6.658   4.035  0.2399  0.3845  0.1583
  439MOL0     C57864   4.468   6.426   4.247 -0.4750 -0.7986  0.1585
  439MOL0     C57865   4.587   6.368   4.274 -0.1727  0.4466  0.2659
  439MOL0     N57866   4.969   6.190   3.724 -0.1252 -0.0864 -0.9706
  439MOL0     N57867   4.886   6.259   3.651  0.3933 -0.6282 -0.8529
  439MOL0     C57868   3.888   6.473   3.056 -0.5402  0.0201 -0.1442
  439MOL0     C57869   3.749   6.453   3.032 -1.1511 -1.2730 -0.0491
  439MOL0     C57870   3.321   6.518   2.837  0.0442 -0.0507  0.1553
  439MOL0     C57871   3.317   6.376   2.826  0.4245 -0.0318 -0.2912
  439MOL0     C57872   3.200   6.316   2.770 -1.5141  0.0192  0.2469
  439MOL0     C57873   3.087   6.387   2.727 -0.0210 -0.4393 -0.4335
  439MOL0     O57874   2.965   6.336   2.691  0.3024  0.1376 -0.0742
  439MOL0     C57875   2.946   6.195   2.679 -0.1427 -0.5425  0.1343
  439MOL0     C57876   2.845   6.153   2.571 -0.6987 -0.1756  0.0007
  439MOL0     C57877   2.906   6.162   2.429  0.4818  0.3735  1.1067
  439MOL0     C57878   2.930   6.297   2.368 -0.0619 -0.6122 -0.0983
  439MOL0     C57879   2.949   6.281   2.228 -0.1355  0.2277  0.9593
  439MOL0     C57880   2.962   6.248   2.107  0.5257  0.8014 -1.0733
  439MOL0     C57881   3.100   6.522   2.740  0.4896 -0.1948  1.0497
  439MOL0     C57882   3.210   6.586   2.787  0.2411 -0.3389 -0.4768
  439MOL0     H57883   3.681   6.709   2.845 -1.0052 -2.9184 -2.6287
  439MOL0     H57884   3.906   6.760   2.880 -2.4959 -0.0184 -0.0777
  439MOL0     H57885   4.211   6.470   3.096  0.2543  0.7076 -0.4470
  439MOL0     H57886   4.089   6.520   3.228 -0.4352  1.0133  0.4288
  439MOL0     H57887   4.217   6.691   3.305  1.2625  1.2724  0.6874
  439MOL0     H57888   4.305   6.711   3.142  0.8280 -4.7309 -3.2342
  439MOL0     H57889   4.414   6.496   3.197 -0.9961 -0.5739 -0.2450
  439MOL0     H57890   4.292   6.476   3.336 -0.8325  2.1104  2.3878
  439MOL0     H57891   4.498   6.693   3.311 -0.8246 -0.9647 -1.6964
  439MOL0     H57892   4.385   6.690   3.446  0.1878 -1.8648  1.0365
  439MOL0     H57893   4.602   6.511   3.373 -2.4857 -2.3583  0.7423
  439MOL0     H57894   4.497   6.466   3.512  0.4674 -1.3516 -1.9530
  439MOL0     H57895   4.555   6.687   3.612 -0.4820 -1.1433  0.4416
  439MOL0     H57896   4.683   6.714   3.500 -1.9577  2.0588  1.9764
  439MOL0     H57897   4.760   6.616   3.707  0.8534  2.2652 -0.6774
  439MOL0     H57898   4.659   6.477   3.689  1.6930  0.1421  0.5162
  439MOL0     H57899   4.918   6.558   3.537  0.3399  0.4345 -0.3131
  439MOL0     H57900   4.826   6.418   3.481  3.2153  0.3428 -0.1198
  439MOL0     H57901   5.045   6.489   3.803  1.7467  0.0342 -0.7748
  439MOL0     H57902   5.193   6.319   3.943  0.0878  0.0971 -1.0559
  439MOL0     H57903   5.194   6.162   3.872  0.3026  1.5507 -2.7722
  439MOL0     H57904   5.107   6.160   4.090 -2.5380 -0.1300  0.8586
  439MOL0     H57905   4.982   6.107   3.970 -1.8212  0.2519 -0.3300
  439MOL0     H57906   5.007   6.386   4.099 -0.5681 -0.5089  2.5242
  439MOL0     H57907   4.877   6.333   3.990 -1.2652 -1.8431 -0.7455
  439MOL0     H57908   4.952   6.208   4.258  2.2056  3.2283  0.9623
  439MOL0     H57909   4.800   6.170   4.174 -1.7620  1.6137 -1.0932
  439MOL0     H57910   4.762   6.521   4.027 -0.1630  3.1162  0.0902
  439MOL0     H57911   4.546   6.605   3.972 -1.3349 -1.0094 -0.8825
  439MOL0     H57912   4.161   6.408   3.910  1.8321  0.0251  2.5738
  439MOL0     H57913   3.950   6.409   3.808  0.5075  0.5340 -0.9901
  439MOL0     H57914   3.740   6.385   3.759  0.7896  0.2030  0.8980
  439MOL0     H57915   3.733   6.555   3.711 -0.4392  0.1879 -1.7097
  439MOL0     H57916   3.488   6.408   3.821 -0.6448  0.1049  0.0489
  439MOL0     H57917   3.523   6.462   3.654  2.5784  1.2099 -0.8474
  439MOL0     H57918   3.516   6.695   3.724  0.8727 -0.7132 -1.2323
  439MOL0     H57919   3.477   6.653   3.884  2.6301  1.2764 -0.8251
  439MOL0     H57920   3.293   6.533   3.666 -0.4552  1.7619 -0.8318
  439MOL0     H57921   3.266   6.538   3.835  1.2657 -1.4473  0.2500
  439MOL0     H57922   3.268   6.768   3.637 -2.5489  0.3495 -1.4011
  439MOL0     H57923   3.265   6.808   3.803  0.1452  0.0644 -1.2282
  439MOL0     H57924   3.065   6.684   3.854 -1.2636 -0.0433 -0.2475
  439MOL0     H57925   3.071   6.628   3.677 -0.0109  0.1674 -0.7007
  439MOL0     H57926   2.922   6.838   3.738  0.2930  0.4400  1.6751
  439MOL0     H57927   3.068   6.919   3.744  0.3590 -0.1354 -0.6705
  439MOL0     H57928   3.121   6.798   3.521  0.5812  1.4141  0.2392
  439MOL0     H57929   3.015   6.945   3.512 -1.9651 -0.4489  0.8524
  439MOL0     H57930   3.767   6.597   4.148 -1.0271 -1.7372  0.1929
  439MOL0     H57931   3.994   6.564   4.278  3.1715 -1.9662 -0.2408
  439MOL0     H57932   4.385   6.400   4.313 -0.6830  0.4796  0.4148
  439MOL0     H57933   4.610   6.294   4.350  1.0953 -2.9261 -3.1002
  439MOL0     H57934   3.926   6.402   3.129 -0.8297  2.3251  2.4271
  439MOL0     H57935   3.685   6.374   3.069 -0.4621 -0.9782  1.8642
  439MOL0     H57936   3.404   6.324   2.865  0.9521  2.5939  2.3602
  439MOL0     H57937   3.206   6.207   2.763 -0.3329 -0.1376  2.6813
  439MOL0     H57938   2.921   6.156   2.778 -1.2963 -1.6711 -0.5786
  439MOL0     H57939   3.040   6.151   2.646  0.2637  1.6838 -2.0214
  439MOL0     H57940   2.820   6.049   2.596  0.9283  0.0639  3.2192
  439MOL0     H57941   2.754   6.214   2.575 -0.3458  0.4760 -1.4107
  439MOL0     H57942   2.837   6.113   2.360  0.6966  1.1394  0.3323
  439MOL0     H57943   2.995   6.099   2.422 -0.8591 -1.4198 -1.1375
  439MOL0     H57944   2.845   6.364   2.385 -1.2977 -2.1194 -0.1202
  439MOL0     H57945   3.023   6.335   2.411  0.0728  0.5877 -1.4123
  439MOL0     H57946   2.966   6.221   2.003 -1.4450 -1.4306 -0.6400
  439MOL0     H57947   3.012   6.581   2.718  1.4714  1.0832  0.3939
  439MOL0     H57948   3.211   6.695   2.783 -0.8092 -0.3206 -4.2620
  440MOL0     O57949  10.973   6.941   6.896 -0.4047  0.2906 -0.0575
  440MOL0     C57950  11.042   6.851   6.951  0.2574 -0.6505 -0.0141
  440MOL0     O57951  11.003   6.772   7.060 -0.4377  0.0303 -0.0377
  440MOL0     C57952  10.874   6.761   7.105 -0.8993 -0.7626 -0.2192
  440MOL0     C57953  10.860   6.721   7.239 -0.0605 -0.9332 -0.3293
  440MOL0     C57954  10.734   6.700   7.302 -0.3135 -0.4979 -0.5190
  440MOL0     C57955  10.618   6.715   7.231 -0.6095  0.2978  0.3278
  440MOL0     O57956  10.505   6.684   7.301  0.7421 -0.0490  0.3731
  440MOL0     C57957  10.387   6.684   7.219 -0.5395  0.1060 -0.7112
  440MOL0     C57958  10.279   6.649   7.324  0.5803 -0.4515 -0.2006
  440MOL0     C57959  10.132   6.653   7.251 -0.7232  0.3976 -0.5713
  440MOL0     C57960  10.018   6.625   7.351  0.6497 -0.1600 -0.6529
  440MOL0     C57961   9.873   6.638   7.297 -0.2305 -1.0370 -0.0527
  440MOL0     C57962   9.770   6.624   7.418 -0.1295 -0.0437 -0.3302
  440MOL0     C57963   9.636   6.622   7.351  0.1333 -0.6642  0.3059
  440MOL0     C57964   9.524   6.597   7.447 -0.4268 -0.0955 -0.6451
  440MOL0     N57965   9.397   6.635   7.384 -0.3756  0.3918  0.2521
  440MOL0     C57966   9.335   6.554   7.287  0.4199  0.1978  0.3769
  440MOL0     C57967   9.225   6.624   7.252 -0.7126 -0.3456 -0.0155
  440MOL0     C57968   9.129   6.589   7.143 -0.2960  0.3872 -0.6558
  440MOL0     C57969   8.995   6.669   7.150  0.7793  0.1415  0.2914
  440MOL0     C57970   8.895   6.619   7.040  0.2460  0.3214 -0.5852
  440MOL0     C57971   8.780   6.725   7.043 -0.0262  0.5703  0.1543
  440MOL0     O57972   8.669   6.680   6.964  0.4807 -0.3579 -0.7208
  440MOL0     C57973   8.552   6.752   6.963 -0.3775 -0.3182  0.8856
  440MOL0     C57974   8.446   6.686   6.903 -0.0846  0.1027 -0.1982
  440MOL0     C57975   8.321   6.742   6.900  0.3276 -0.7190  1.0706
  440MOL0     C57976   8.301   6.875   6.939  0.0370  0.4810  0.4637
  440MOL0     C57977   8.169   6.939   6.920 -1.0109  0.9889 -0.1687
  440MOL0     O57978   8.161   7.073   6.932 -1.1346 -0.0567 -0.0213
  440MOL0     C57979   8.067   7.146   6.869  0.1555 -0.5849  0.3235
  440MOL0     C57980   8.118   7.249   6.781 -0.2250  0.5493 -0.0869
  440MOL0     C57981   8.025   7.330   6.713  0.1581 -0.2408  0.4118
  440MOL0     C57982   7.887   7.315   6.731  0.1569 -0.1545 -0.0618
  440MOL0     O57983   7.807   7.412   6.677  0.8739  0.2100 -1.0750
  440MOL0     C57984   7.691   7.377   6.611 -0.6785  0.6351  0.2944
  440MOL0     C57985   7.685   7.450   6.479  0.4285 -0.2206 -0.6746
  440MOL0     C57986   7.562   7.390   6.403 -0.2424 -1.0745 -0.1792
  440MOL0     C57987   7.545   7.470   6.274 -0.0516 -0.0246 -0.3048
  440MOL0     C57988   7.431   7.428   6.179 -0.5597  0.8327 -0.5188
  440MOL0     C57989   7.300   7.421   6.251 -0.3715 -0.0185  0.5155
  440MOL0     C57990   7.196   7.372   6.156 -0.8034 -0.1451  0.6486
  440MOL0     C57991   7.055   7.394   6.200  0.1539  1.0045  0.1153
  440MOL0    Cl57992   6.944   7.366   6.071  0.1518 -0.5229  0.0096
  440MOL0     C57993   7.838   7.207   6.812 -0.9835 -0.4972  0.7480
  440MOL0     C57994   7.926   7.114   6.880  0.2386 -0.2937 -0.0819
  440MOL0     O57995   8.074   6.864   6.882 -0.3199 -0.7795  0.6066
  440MOL0     C57996   8.415   6.944   6.977 -0.7159 -1.0318 -0.5508
  440MOL0     C57997   8.541   6.885   6.996 -0.2163 -0.5003  1.1338
  440MOL0     N57998   9.210   6.733   7.346 -0.2975  0.8044  0.5448
  440MOL0     N57999   9.316   6.743   7.414 -0.3236  0.5145 -0.7487
  440MOL0     C58000  10.622   6.761   7.099  0.3202 -0.2170  0.7801
  440MOL0     C58001  10.750   6.781   7.032 -0.1092  0.0048 -0.3262
  440MOL0     C58002  11.178   6.813   6.894 -0.9924 -0.8201 -0.3815
  440MOL0     C58003  11.247   6.893   6.808 -0.3983  0.6617  0.5104
  440MOL0     C58004  11.381   6.871   6.769 -0.4587  0.0387 -0.4194
  440MOL0     C58005  11.448   6.767   6.826  0.0504  0.3159  1.0494
  440MOL0     O58006  11.579   6.750   6.782  0.4731 -0.3171  0.1959
  440MOL0     C58007  11.664   6.648   6.842  0.0871 -0.0370 -0.1333
  440MOL0     C58008  11.811   6.642   6.782 -0.5505  0.2783  0.3438
  440MOL0     C58009  11.865   6.784   6.756 -1.1062 -0.0028 -0.2055
  440MOL0     C58010  12.014   6.775   6.718  0.2885 -0.0614  0.5265
  440MOL0     C58011  12.041   6.731   6.583  0.5214  1.0354  0.5787
  440MOL0     C58012  12.087   6.695   6.477 -0.7208  0.0552  0.2721
  440MOL0     C58013  11.383   6.679   6.914 -0.5854 -0.1614 -0.4717
  440MOL0     C58014  11.250   6.697   6.945  0.1712 -1.1015 -0.8131
  440MOL0     H58015  10.950   6.693   7.293  1.6465 -0.1855 -2.6490
  440MOL0     H58016  10.730   6.665   7.404 -2.4803 -0.4979 -0.5463
  440MOL0     H58017  10.399   6.617   7.134  1.8529  1.2480 -1.3423
  440MOL0     H58018  10.360   6.782   7.179  0.7364  0.2431 -1.2605
  440MOL0     H58019  10.284   6.727   7.400 -0.4410 -0.0777 -0.5077
  440MOL0     H58020  10.288   6.558   7.384  5.5088  1.0739  1.9318
  440MOL0     H58021  10.130   6.577   7.172 -1.8903  1.3761 -1.5238
  440MOL0     H58022  10.106   6.746   7.200 -0.8532 -0.6766 -2.5780
  440MOL0     H58023  10.022   6.522   7.388  0.5020  0.7770  2.1798
  440MOL0     H58024  10.033   6.687   7.440  2.5541 -0.4519 -0.7267
  440MOL0     H58025   9.864   6.559   7.222 -3.0249 -0.0714 -0.8919
  440MOL0     H58026   9.856   6.732   7.243  2.2238 -0.3180  0.3046
  440MOL0     H58027   9.773   6.715   7.479  0.7143 -0.2083 -0.1077
  440MOL0     H58028   9.799   6.538   7.479  1.6915  0.8471  0.1463
  440MOL0     H58029   9.627   6.724   7.313  0.6424 -1.1218 -1.0979
  440MOL0     H58030   9.645   6.540   7.279 -0.9985 -1.4134  0.9837
  440MOL0     H58031   9.533   6.651   7.541 -1.2217  0.5668 -0.9345
  440MOL0     H58032   9.512   6.493   7.478  0.6060  0.6483  2.6783
  440MOL0     H58033   9.373   6.466   7.236 -2.5476 -0.1852 -1.4250
  440MOL0     H58034   9.102   6.485   7.162  0.1190  0.7623  2.6331
  440MOL0     H58035   9.187   6.594   7.051  1.8661  1.8389  0.6771
  440MOL0     H58036   9.007   6.776   7.133 -0.8807  0.2516 -0.3781
  440MOL0     H58037   8.961   6.649   7.252  0.8159  0.6498  0.4041
  440MOL0     H58038   8.939   6.604   6.941  2.6422 -0.4174  0.5131
  440MOL0     H58039   8.853   6.525   7.076 -0.8215  1.1618  0.4340
  440MOL0     H58040   8.825   6.813   6.997  0.6234 -0.2020 -0.7269
  440MOL0     H58041   8.744   6.752   7.143 -0.0574 -0.1372  0.3427
  440MOL0     H58042   8.467   6.587   6.865 -0.7119  0.2922 -1.0633
  440MOL0     H58043   8.235   6.690   6.857 -1.0106  0.5652  2.1037
  440MOL0     H58044   8.225   7.261   6.783 -0.1785  1.1638  4.6486
  440MOL0     H58045   8.066   7.405   6.646 -0.2668 -1.0216 -0.7372
  440MOL0     H58046   7.606   7.391   6.678 -1.5549 -0.5775 -0.5357
  440MOL0     H58047   7.690   7.270   6.591 -2.1697 -0.2384  4.1962
  440MOL0     H58048   7.779   7.430   6.427  0.9365  1.0826 -0.2992
  440MOL0     H58049   7.694   7.559   6.486 -0.5546 -0.2110  1.0815
  440MOL0     H58050   7.475   7.405   6.468 -1.0047 -2.5290 -0.8197
  440MOL0     H58051   7.565   7.281   6.388  1.5538 -1.0531 -0.2124
  440MOL0     H58052   7.535   7.575   6.303  0.4763 -0.6785  2.5641
  440MOL0     H58053   7.637   7.459   6.216  0.3945 -1.1277  0.5639
  440MOL0     H58054   7.452   7.331   6.132  2.3778  2.4098 -2.7771
  440MOL0     H58055   7.427   7.505   6.102 -0.2713 -0.5059 -1.9271
  440MOL0     H58056   7.287   7.525   6.281  2.2377  0.6503 -0.3574
  440MOL0     H58057   7.302   7.353   6.336  0.7876 -1.7764 -0.8366
  440MOL0     H58058   7.200   7.422   6.059 -1.9123 -3.7476 -1.4642
  440MOL0     H58059   7.223   7.269   6.132  0.2696  0.2691  0.0277
  440MOL0     H58060   7.046   7.498   6.235 -0.2107  1.1788 -0.4926
  440MOL0     H58061   7.037   7.326   6.284  3.2128  1.9674  1.7246
  440MOL0     H58062   7.730   7.195   6.814 -0.9137 -2.5823 -1.9714
  440MOL0     H58063   7.893   7.024   6.931  0.2110 -0.2214  0.0288
  440MOL0     H58064   8.402   7.051   6.979 -4.0881 -1.3351  0.7189
  440MOL0     H58065   8.636   6.933   7.021  1.1044 -0.9281 -2.5291
  440MOL0     H58066  10.536   6.761   7.033 -0.7657 -2.7833  2.0278
  440MOL0     H58067  10.763   6.824   6.933  2.2145  1.3839  0.4935
  440MOL0     H58068  11.196   6.985   6.781  1.6731  1.7006 -0.1148
  440MOL0     H58069  11.430   6.939   6.699 -0.4815 -0.2046 -0.6716
  440MOL0     H58070  11.620   6.550   6.819 -1.0352  0.2429  0.7436
  440MOL0     H58071  11.668   6.667   6.949  2.5815 -1.1964  0.0301
  440MOL0     H58072  11.871   6.594   6.860  1.9444 -0.3367 -1.8086
  440MOL0     H58073  11.807   6.578   6.693 -0.4306  2.0373 -0.9880
  440MOL0     H58074  11.872   6.839   6.850 -0.0183  0.4450 -0.5320
  440MOL0     H58075  11.800   6.841   6.689 -2.6467  0.0824  1.2937
  440MOL0     H58076  12.050   6.878   6.730 -1.7639  0.4326  3.8124
  440MOL0     H58077  12.058   6.712   6.796  1.7147  0.1565 -0.0770
  440MOL0     H58078  12.126   6.663   6.382 -0.0445 -0.5794  0.7507
  440MOL0     H58079  11.431   6.599   6.970 -4.1650 -2.5885 -0.5479
  440MOL0     H58080  11.199   6.644   7.025 -0.8914 -0.6212 -1.1560
  441MOL0     O58081   3.156   3.554   3.473  0.2833 -0.2540 -0.4926
  441MOL0     C58082   3.119   3.489   3.568  0.3133  0.3169  0.0103
  441MOL0     O58083   3.181   3.469   3.684  0.6367  0.1090 -0.1272
  441MOL0     C58084   3.311   3.511   3.705  0.8829  0.3764 -0.3614
  441MOL0     C58085   3.409   3.540   3.608 -0.2077  1.1661 -0.4106
  441MOL0     C58086   3.535   3.557   3.665 -0.1504 -0.2803  1.0285
  441MOL0     C58087   3.563   3.562   3.798  0.0466  0.2144 -0.0362
  441MOL0     O58088   3.685   3.575   3.851  0.6196 -0.0040 -0.4643
  441MOL0     C58089   3.778   3.654   3.772 -0.3183  0.9991  0.2283
  441MOL0     C58090   3.869   3.732   3.873  0.2432  0.3500  0.3179
  441MOL0     C58091   3.955   3.831   3.798 -1.3714 -0.0857 -0.5196
  441MOL0     C58092   4.008   3.943   3.890 -0.1276  0.1593 -0.2107
  441MOL0     C58093   4.119   4.019   3.825  0.1190 -0.0935  0.1707
  441MOL0     C58094   4.222   4.073   3.922  0.8749  0.6819 -0.3230
  441MOL0     C58095   4.356   4.117   3.861  1.0805 -0.1483  0.1827
  441MOL0     C58096   4.458   4.159   3.966  0.3214 -0.3101 -0.3252
  441MOL0     N58097   4.584   4.202   3.901 -0.6954  0.2610 -0.2207
  441MOL0     C58098   4.705   4.161   3.949  0.2454  0.0974 -0.3285
  441MOL0     C58099   4.785   4.260   3.911 -0.4294  0.2693 -0.5061
  441MOL0     C58100   4.922   4.270   3.922  0.4714  0.3525 -0.4113
  441MOL0     C58101   4.993   4.194   3.798  0.6524 -0.0634  0.0129
  441MOL0     C58102   4.958   4.279   3.669 -0.2182  0.1314 -0.2027
  441MOL0     C58103   5.038   4.240   3.538 -0.0677 -0.1059  0.8325
  441MOL0     O58104   5.183   4.228   3.541 -0.5914 -0.2151 -0.7483
  441MOL0     C58105   5.253   4.334   3.590 -0.9375  0.6391  0.3641
  441MOL0     C58106   5.231   4.465   3.546  0.5048 -0.6321 -0.3148
  441MOL0     C58107   5.311   4.566   3.590  0.0723 -0.1717 -0.2719
  441MOL0     C58108   5.423   4.550   3.681  0.8554 -0.3521  1.0725
  441MOL0     C58109   5.501   4.665   3.746 -0.0200 -0.6268  0.9758
  441MOL0     O58110   5.475   4.784   3.693  0.5881 -0.0801  0.3853
  441MOL0     C58111   5.498   4.903   3.764  0.0130 -0.3410 -0.1850
  441MOL0     C58112   5.589   4.991   3.706 -0.3495 -0.8649 -0.0349
  441MOL0     C58113   5.630   5.103   3.776  0.2340 -0.7405  0.4229
  441MOL0     C58114   5.562   5.139   3.901 -0.0858  0.0163  0.6260
  441MOL0     O58115   5.610   5.240   3.984  0.3484  0.3284 -0.4204
  441MOL0     C58116   5.668   5.357   3.912  0.7449  0.8358 -0.6308
  441MOL0     C58117   5.690   5.479   4.007  0.3314  0.3818  0.6572
  441MOL0     C58118   5.784   5.450   4.114 -0.2266 -0.2238 -0.6237
  441MOL0     C58119   5.929   5.449   4.067  0.0829 -0.0021  0.1611
  441MOL0     C58120   6.014   5.418   4.183  0.1295 -1.0983 -0.4004
  441MOL0     C58121   6.015   5.274   4.217  0.5702 -0.0393 -0.6474
  441MOL0     C58122   6.126   5.249   4.331 -0.1952  0.5319  0.6529
  441MOL0     C58123   6.131   5.101   4.377 -0.6164 -0.4305 -0.5379
  441MOL0    Cl58124   5.972   5.043   4.442  0.3303 -0.2630 -0.5402
  441MOL0     C58125   5.458   5.060   3.946  0.6848 -0.1359 -0.2894
  441MOL0     C58126   5.438   4.930   3.892 -0.3923 -0.8201 -0.3024
  441MOL0     O58127   5.576   4.643   3.843  0.3325 -1.0691  0.6979
  441MOL0     C58128   5.440   4.422   3.734  0.0624 -0.1857  0.2314
  441MOL0     C58129   5.357   4.320   3.688  0.2262  0.2742  0.2870
  441MOL0     N58130   4.718   4.359   3.836  0.5983  0.8090 -0.3153
  441MOL0     N58131   4.597   4.324   3.836  0.9500 -0.3607  0.2049
  441MOL0     C58132   3.463   3.536   3.889 -0.0481 -0.0592  0.2656
  441MOL0     C58133   3.335   3.512   3.846  0.0834 -0.3327  0.0601
  441MOL0     C58134   2.975   3.442   3.558  0.4519 -0.1325 -0.8974
  441MOL0     C58135   2.910   3.452   3.436 -0.6880  0.7289  0.7291
  441MOL0     C58136   2.777   3.412   3.426  0.2112 -0.6642  0.6639
  441MOL0     C58137   2.706   3.363   3.529 -0.7594 -0.5808 -0.6305
  441MOL0     O58138   2.571   3.345   3.525 -0.2983 -0.1701 -0.1619
  441MOL0     C58139   2.517   3.281   3.408  0.4206  0.6058 -0.5825
  441MOL0     C58140   2.555   3.132   3.401 -0.3986  0.2675  0.0794
  441MOL0     C58141   2.490   3.058   3.279  0.1380  1.0337  0.4186
  441MOL0     C58142   2.485   2.909   3.308 -0.1196 -0.5065 -1.0971
  441MOL0     C58143   2.404   2.852   3.202  0.7897  0.4061  0.6336
  441MOL0     C58144   2.337   2.809   3.105 -0.4486  0.9128 -1.7876
  441MOL0     C58145   2.764   3.370   3.656 -0.0265 -0.1942 -0.3814
  441MOL0     C58146   2.898   3.401   3.671 -0.1773  0.1855  0.0288
  441MOL0     H58147   3.400   3.538   3.500  2.3536  1.9124 -0.7041
  441MOL0     H58148   3.616   3.566   3.594 -1.1830  2.9688  0.0888
  441MOL0     H58149   3.728   3.728   3.710 -1.1319  0.3718  0.1228
  441MOL0     H58150   3.834   3.578   3.717 -0.9001  1.7875 -1.5376
  441MOL0     H58151   3.934   3.664   3.930  1.6385 -0.4471 -2.1038
  441MOL0     H58152   3.808   3.782   3.950  1.4261  0.7923  0.9852
  441MOL0     H58153   3.907   3.873   3.709 -0.7835 -1.6428 -1.6090
  441MOL0     H58154   4.037   3.776   3.751 -1.8508  1.2486 -3.0889
  441MOL0     H58155   3.933   4.015   3.925  0.5158 -0.5617  2.9956
  441MOL0     H58156   4.051   3.891   3.976  1.4835  0.3179 -0.8773
  441MOL0     H58157   4.087   4.106   3.767  1.5047  0.3087 -0.0181
  441MOL0     H58158   4.175   3.950   3.761  0.5273  1.2054 -0.9041
  441MOL0     H58159   4.230   3.983   3.984 -4.3092  0.7523  0.8401
  441MOL0     H58160   4.186   4.153   3.987 -0.5766  0.0671 -0.3423
  441MOL0     H58161   4.400   4.051   3.786 -0.2868  2.2484 -2.9634
  441MOL0     H58162   4.340   4.205   3.798 -0.7843 -0.8445 -0.4116
  441MOL0     H58163   4.464   4.065   4.021  2.5304 -0.3711 -0.5873
  441MOL0     H58164   4.422   4.236   4.035 -3.4965 -0.7534 -1.6069
  441MOL0     H58165   4.731   4.074   4.010 -1.4782 -1.2495 -1.4162
  441MOL0     H58166   4.938   4.225   4.021 -2.7674 -0.6687 -0.2096
  441MOL0     H58167   4.943   4.377   3.918 -4.0166  1.4205 -0.5394
  441MOL0     H58168   4.973   4.086   3.793  1.8289 -0.2830 -0.3051
  441MOL0     H58169   5.102   4.197   3.810  0.7319 -0.9023 -0.4008
  441MOL0     H58170   4.853   4.257   3.647 -0.4994 -2.3016  2.8913
  441MOL0     H58171   4.981   4.382   3.696 -0.6018  0.9175 -2.6396
  441MOL0     H58172   5.018   4.307   3.453 -1.2050 -2.7940 -1.1508
  441MOL0     H58173   4.999   4.147   3.497 -0.6373  1.4126 -2.4401
  441MOL0     H58174   5.155   4.489   3.471 -0.7779  1.0129  1.4218
  441MOL0     H58175   5.287   4.667   3.559 -0.3707  0.2859  1.4384
  441MOL0     H58176   5.650   4.967   3.619  1.6228 -0.4662  1.2049
  441MOL0     H58177   5.715   5.168   3.760  1.1543 -1.5079  1.9511
  441MOL0     H58178   5.600   5.392   3.834  0.9271  0.7730 -0.8176
  441MOL0     H58179   5.766   5.323   3.879  0.3757 -1.1328  0.1417
  441MOL0     H58180   5.597   5.510   4.056  1.1279  2.0035  1.2102
  441MOL0     H58181   5.727   5.562   3.946  0.5273 -1.1531 -1.4456
  441MOL0     H58182   5.755   5.352   4.151  1.6142 -0.7550 -0.4720
  441MOL0     H58183   5.774   5.527   4.191 -3.2379  1.0873 -2.1803
  441MOL0     H58184   5.958   5.373   3.994 -1.4694  0.1686 -0.6710
  441MOL0     H58185   5.956   5.548   4.029  0.8962  0.5225  1.9993
  441MOL0     H58186   5.983   5.477   4.270  1.1505  1.2874 -1.5694
  441MOL0     H58187   6.114   5.453   4.158 -0.5635  0.2593 -1.3896
  441MOL0     H58188   6.034   5.212   4.129  1.4706 -2.6094  1.2586
  441MOL0     H58189   5.919   5.245   4.260  2.2736 -0.9581  2.8400
  441MOL0     H58190   6.222   5.275   4.287 -0.6546 -1.4813 -1.8135
  441MOL0     H58191   6.104   5.309   4.420 -0.0380  1.0479  0.3473
  441MOL0     H58192   6.216   5.100   4.447  0.9869  1.6887 -2.2826
  441MOL0     H58193   6.163   5.029   4.300  1.2828 -0.4677  0.2343
  441MOL0     H58194   5.420   5.076   4.047  3.5082 -0.5907  0.9615
  441MOL0     H58195   5.356   4.870   3.930 -2.7909  0.3852 -3.1864
  441MOL0     H58196   5.509   4.400   3.815 -0.7276  1.2069  1.3478
  441MOL0     H58197   5.366   4.220   3.729 -0.9285  0.9782  2.3682
  441MOL0     H58198   3.493   3.507   3.990  3.8272  0.0115 -0.7133
  441MOL0     H58199   3.262   3.497   3.924  0.2378  1.4967  0.5850
  441MOL0     H58200   2.953   3.501   3.349  1.1975  0.0885  1.2567
  441MOL0     H58201   2.735   3.425   3.326  2.0797  2.6641  0.1782
  441MOL0     H58202   2.544   3.330   3.313 -2.3433  0.4685 -1.5276
  441MOL0     H58203   2.408   3.288   3.410  0.5183  4.0469  2.6791
  441MOL0     H58204   2.663   3.127   3.384 -0.2971  0.1354  0.7342
  441MOL0     H58205   2.535   3.087   3.498 -0.6981  1.5303  0.6234
  441MOL0     H58206   2.540   3.078   3.183  2.8711  1.7058  1.8711
  441MOL0     H58207   2.393   3.104   3.258  0.0045  1.0300  1.0123
  441MOL0     H58208   2.589   2.875   3.314  0.2288  0.6323 -0.3519
  441MOL0     H58209   2.444   2.892   3.407  1.9140  1.4425  0.1839
  441MOL0     H58210   2.272   2.778   3.026 -2.2355 -0.1185 -0.0252
  441MOL0     H58211   2.702   3.346   3.741 -1.1313  1.1667 -0.7622
  441MOL0     H58212   2.951   3.399   3.766  1.6748  0.9204 -0.9341
  442MOL0     O58213   0.515   1.149   9.630  0.4412  0.9973  0.3557
  442MOL0     C58214   0.525   1.154   9.750  0.1019 -0.3463  0.0883
  442MOL0     O58215   0.419   1.172   9.827 -0.0847  0.6593  0.1365
  442MOL0     C58216   0.291   1.173   9.771 -0.2551  0.1789 -0.6436
  442MOL0     C58217   0.218   1.294   9.750  0.4684  0.2831  0.1817
  442MOL0     C58218   0.079   1.298   9.720 -0.4560 -0.0751  0.1554
  442MOL0     C58219   0.007   1.175   9.719 -0.3150 -0.0634 -0.3921
  442MOL0     O58220  -0.129   1.155   9.705 -0.6961  0.5148  0.0901
  442MOL0     C58221  -0.197   1.249   9.627  0.0868 -0.5682 -0.2167
  442MOL0     C58222  -0.321   1.180   9.578 -0.0605 -0.6416 -0.2522
  442MOL0     C58223  -0.402   1.268   9.491  0.1957  0.7197  0.0103
  442MOL0     C58224  -0.514   1.195   9.418  0.0321  0.1561  0.2177
  442MOL0     C58225  -0.595   1.290   9.325  0.3407  0.1074  0.6334
  442MOL0     C58226  -0.715   1.199   9.280  0.2373  0.3952  0.1904
  442MOL0     C58227  -0.828   1.285   9.222  0.2114  0.2790 -0.2421
  442MOL0     C58228  -0.917   1.185   9.150  0.6178 -0.6082  0.6962
  442MOL0     N58229  -1.019   1.241   9.058 -0.1492 -0.1325  0.7438
  442MOL0     C58230  -1.114   1.341   9.089  0.0970 -0.0933  0.2855
  442MOL0     C58231  -1.162   1.382   8.966  0.5586 -0.3245  1.1240
  442MOL0     C58232  -1.273   1.481   8.944  0.0667 -0.5362  0.0345
  442MOL0     C58233  -1.242   1.615   9.017  0.2880 -0.4445 -0.0697
  442MOL0     C58234  -1.373   1.701   9.004 -0.8552  0.4575 -0.2184
  442MOL0     C58235  -1.341   1.847   8.992 -0.7710  0.2309 -0.0782
  442MOL0     O58236  -1.443   1.921   8.932 -0.0955  0.7358 -0.0135
  442MOL0     C58237  -1.558   1.949   8.998  0.3141  0.6590 -0.0668
  442MOL0     C58238  -1.676   1.974   8.919 -0.3707  0.5669 -0.0431
  442MOL0     C58239  -1.799   2.004   8.984  0.5728 -0.7736 -1.3219
  442MOL0     C58240  -1.807   2.009   9.124 -0.8232  0.8318  0.4749
  442MOL0     C58241  -1.938   2.026   9.199 -0.0398  0.3406  0.2635
  442MOL0     O58242  -2.044   2.052   9.132 -0.3200  0.1999  0.2398
  442MOL0     C58243  -2.169   2.079   9.191 -0.0797 -1.2881 -0.1744
  442MOL0     C58244  -2.178   2.163   9.308  0.1331 -0.4317  0.8397
  442MOL0     C58245  -2.303   2.208   9.352 -0.0981 -0.7938  0.2088
  442MOL0     C58246  -2.422   2.153   9.294 -0.8474  0.0201 -0.4495
  442MOL0     O58247  -2.535   2.190   9.365  0.0001 -0.5283 -0.8348
  442MOL0     C58248  -2.654   2.175   9.296  0.0564 -0.1326 -1.3473
  442MOL0     C58249  -2.747   2.272   9.366  0.1371  0.3698 -0.4826
  442MOL0     C58250  -2.891   2.262   9.319 -0.4268  0.0904 -0.0394
  442MOL0     C58251  -2.983   2.295   9.435  0.3136  0.2937 -0.1239
  442MOL0     C58252  -3.128   2.260   9.411  0.2333  0.0015 -0.3868
  442MOL0     C58253  -3.216   2.313   9.522  0.2399  0.0950  0.4715
  442MOL0     C58254  -3.367   2.280   9.483 -0.3487  0.0064  0.1423
  442MOL0     C58255  -3.445   2.275   9.615 -0.5286  0.0126 -0.0487
  442MOL0    Cl58256  -3.612   2.240   9.573 -0.1382  0.3203 -0.0692
  442MOL0     C58257  -2.412   2.087   9.176  0.6735 -0.2686 -0.2550
  442MOL0     C58258  -2.289   2.054   9.127 -1.4290  0.6888  0.6981
  442MOL0     O58259  -1.930   2.003   9.320 -0.1616 -0.4037  0.8272
  442MOL0     C58260  -1.694   1.974   9.195 -0.9915 -0.1537  0.6621
  442MOL0     C58261  -1.573   1.946   9.135 -0.1916  0.2566 -0.9152
  442MOL0     N58262  -1.098   1.311   8.866 -0.8775  0.0818  0.3896
  442MOL0     N58263  -1.009   1.232   8.923  0.2335 -0.1701  0.3785
  442MOL0     C58264   0.082   1.059   9.723  0.0834  1.1159 -0.7727
  442MOL0     C58265   0.223   1.058   9.743  0.5919 -0.7641  1.0510
  442MOL0     C58266   0.661   1.129   9.811  0.9039  0.0947 -0.8243
  442MOL0     C58267   0.674   1.109   9.950 -0.2879  0.4568 -0.5018
  442MOL0     C58268   0.799   1.077  10.007  0.4034 -0.1021 -0.1125
  442MOL0     C58269   0.918   1.082   9.927  0.9178  0.8235 -0.3252
  442MOL0     O58270   1.034   1.048   9.990  0.3585 -0.6430 -0.1820
  442MOL0     C58271   1.155   1.053   9.904 -0.2215  0.8098  0.3149
  442MOL0     C58272   1.272   1.067   9.994 -0.7735 -0.1475 -1.0051
  442MOL0     C58273   1.307   0.940  10.083  0.7107  0.2663  0.3461
  442MOL0     C58274   1.436   0.967  10.168 -0.3785 -1.1361 -0.8345
  442MOL0     C58275   1.559   0.970  10.087  0.3666  1.2047 -0.4801
  442MOL0     C58276   1.652   0.975  10.007  0.8350 -0.0164  0.6890
  442MOL0     C58277   0.894   1.094   9.790  0.1420 -0.3968 -0.2293
  442MOL0     C58278   0.772   1.113   9.727  0.1496 -0.2270 -0.2377
  442MOL0     H58279   0.284   1.380   9.759  1.4555 -0.4974  0.5359
  442MOL0     H58280   0.030   1.395   9.712  0.4259  0.7313  3.3990
  442MOL0     H58281  -0.140   1.295   9.546 -1.3284  2.3978  0.3328
  442MOL0     H58282  -0.239   1.338   9.675  1.1441 -0.7904  1.1958
  442MOL0     H58283  -0.389   1.153   9.659 -2.7454  0.8447 -1.8520
  442MOL0     H58284  -0.305   1.090   9.517  0.0063 -0.9152  0.1621
  442MOL0     H58285  -0.339   1.305   9.410 -1.4949  4.4613  0.1703
  442MOL0     H58286  -0.454   1.349   9.544 -4.3300 -0.1122 -2.5779
  442MOL0     H58287  -0.475   1.113   9.357 -3.5761 -1.9998  0.5218
  442MOL0     H58288  -0.582   1.151   9.492 -3.5143  1.1809 -2.1581
  442MOL0     H58289  -0.536   1.312   9.236  1.5863 -3.8865  0.2434
  442MOL0     H58290  -0.642   1.372   9.380 -0.4462 -0.4801  0.8543
  442MOL0     H58291  -0.744   1.143   9.369  0.0976  2.5360  1.5780
  442MOL0     H58292  -0.684   1.125   9.205 -1.9533 -0.5634  0.1516
  442MOL0     H58293  -0.882   1.339   9.300  0.4019  2.5327 -1.5658
  442MOL0     H58294  -0.781   1.356   9.153  1.9605 -0.9827 -0.4058
  442MOL0     H58295  -0.977   1.139   9.230  0.2608  2.6089  2.4230
  442MOL0     H58296  -0.860   1.108   9.098  2.0454 -0.4576  1.9869
  442MOL0     H58297  -1.161   1.376   9.180 -2.7155  0.1275 -1.1606
  442MOL0     H58298  -1.352   1.423   8.993  0.1079  0.7938  1.7903
  442MOL0     H58299  -1.294   1.504   8.839  0.6154  2.8450  0.5559
  442MOL0     H58300  -1.159   1.676   8.980 -3.3938  4.4454 -1.2047
  442MOL0     H58301  -1.223   1.604   9.124 -0.7236 -2.2389 -0.0253
  442MOL0     H58302  -1.426   1.672   8.913  1.9340 -0.8963 -1.5299
  442MOL0     H58303  -1.428   1.687   9.097  0.1047 -0.3022  0.2557
  442MOL0     H58304  -1.260   1.860   8.919  0.0879  2.2702  1.1584
  442MOL0     H58305  -1.296   1.889   9.082  2.4484 -0.6155 -1.1481
  442MOL0     H58306  -1.664   1.975   8.811 -0.5965 -0.0665 -0.0782
  442MOL0     H58307  -1.882   2.026   8.917  1.0766  0.7777 -1.4792
  442MOL0     H58308  -2.089   2.194   9.361  1.7280 -2.6861 -0.3713
  442MOL0     H58309  -2.309   2.272   9.439 -2.1830 -0.0969 -0.3734
  442MOL0     H58310  -2.693   2.074   9.313  0.8093 -0.3192 -0.6722
  442MOL0     H58311  -2.661   2.205   9.191 -1.0705  0.8802 -0.9974
  442MOL0     H58312  -2.716   2.374   9.339 -0.9595  0.6625 -0.6904
  442MOL0     H58313  -2.747   2.251   9.474  1.2266 -0.6534 -0.6632
  442MOL0     H58314  -2.908   2.159   9.288 -0.2312  0.3139 -0.9049
  442MOL0     H58315  -2.908   2.319   9.228 -1.0677 -2.5334 -1.6727
  442MOL0     H58316  -2.952   2.239   9.524 -1.5738  0.6271  0.7764
  442MOL0     H58317  -2.983   2.402   9.457 -1.7298  0.0762  1.1318
  442MOL0     H58318  -3.145   2.152   9.414  0.8779 -0.1116  3.3032
  442MOL0     H58319  -3.182   2.295   9.322 -0.9638 -0.2021  0.2407
  442MOL0     H58320  -3.196   2.420   9.529 -0.2935  0.3877 -1.7480
  442MOL0     H58321  -3.188   2.264   9.616 -3.1519 -0.2565  1.4384
  442MOL0     H58322  -3.409   2.351   9.411  0.4547  0.4644  0.1175
  442MOL0     H58323  -3.379   2.179   9.442  0.6033  0.2266 -0.7136
  442MOL0     H58324  -3.427   2.370   9.665  1.7256  0.0546 -0.8440
  442MOL0     H58325  -3.403   2.199   9.681  0.2992  2.0979  1.9329
  442MOL0     H58326  -2.494   2.042   9.122  1.8203 -1.1693 -1.2936
  442MOL0     H58327  -2.278   1.997   9.035 -3.8258  2.8847 -1.0623
  442MOL0     H58328  -1.681   1.964   9.302 -0.9209  0.5597  0.7256
  442MOL0     H58329  -1.482   1.935   9.194  0.3883 -2.4954 -2.1644
  442MOL0     H58330   0.032   0.962   9.718  2.6565 -0.2853 -1.0148
  442MOL0     H58331   0.269   0.960   9.752  2.6862  0.2778  2.5653
  442MOL0     H58332   0.589   1.120  10.017 -0.3633  0.1233 -0.5409
  442MOL0     H58333   0.794   1.078  10.116 -2.2609  3.5084 -0.1003
  442MOL0     H58334   1.167   1.139   9.837 -2.1791  1.5029  0.8054
  442MOL0     H58335   1.157   0.966   9.838 -0.1659  2.1434 -1.5437
  442MOL0     H58336   1.359   1.085   9.931  0.5822 -0.8875  0.5633
  442MOL0     H58337   1.264   1.147  10.067  2.0679 -2.0097  1.6295
  442MOL0     H58338   1.318   0.856  10.014 -1.0481  0.4679 -0.2233
  442MOL0     H58339   1.230   0.924  10.158 -0.5152  1.8180 -0.5200
  442MOL0     H58340   1.431   1.059  10.227  3.4068 -1.5389  0.4391
  442MOL0     H58341   1.438   0.888  10.244  1.4056  0.4777  0.8907
  442MOL0     H58342   1.736   0.997   9.946  1.7610 -0.0011  1.9270
  442MOL0     H58343   0.982   1.086   9.726  0.4840 -0.5972  0.2606
  442MOL0     H58344   0.763   1.124   9.620 -1.8083 -0.2059 -0.1163
  443MOL0     O58345   6.260   6.696   5.997 -0.0924  0.8818 -0.8816
  443MOL0     C58346   6.227   6.581   6.009 -0.0361  0.1622 -0.1424
  443MOL0     O58347   6.112   6.530   5.958 -0.0499  0.7437 -0.2232
  443MOL0     C58348   6.040   6.603   5.871  0.0964  0.1215  0.5815
  443MOL0     C58349   6.095   6.668   5.764  0.2866  0.1906 -0.3292
  443MOL0     C58350   6.012   6.730   5.672 -0.6476 -0.2159  0.0225
  443MOL0     C58351   5.875   6.757   5.699  0.4347 -0.6140  0.2183
  443MOL0     O58352   5.798   6.834   5.621  0.2491  0.4493  0.0630
  443MOL0     C58353   5.810   6.982   5.650 -0.3415  0.1195 -0.5697
  443MOL0     C58354   5.697   7.047   5.724  0.2020  0.6563 -0.2164
  443MOL0     C58355   5.559   7.015   5.666  0.0602  0.7241  0.9046
  443MOL0     C58356   5.460   7.134   5.697  0.8443 -0.3932  0.3474
  443MOL0     C58357   5.327   7.137   5.601 -0.8645 -0.4589  0.1615
  443MOL0     C58358   5.241   7.021   5.650  0.5500  0.1561  1.2135
  443MOL0     C58359   5.099   7.021   5.581  0.2465 -0.5674  0.0514
  443MOL0     C58360   5.018   6.896   5.619 -0.7635  0.9481 -0.1226
  443MOL0     N58361   5.011   6.881   5.764  0.3808 -0.9431 -0.0990
  443MOL0     C58362   5.065   6.771   5.823  0.0142  0.5404 -0.2361
  443MOL0     C58363   5.060   6.798   5.952  0.2238 -0.4863  0.3804
  443MOL0     C58364   5.108   6.707   6.073  0.3268 -0.7198  1.0714
  443MOL0     C58365   5.258   6.714   6.103 -0.1324  1.3660 -0.6571
  443MOL0     C58366   5.312   6.849   6.152 -0.0616 -0.3585 -0.2551
  443MOL0     C58367   5.431   6.828   6.248  0.0539 -0.2389  0.7769
  443MOL0     O58368   5.556   6.818   6.171  1.3194  0.7343 -0.0090
  443MOL0     C58369   5.674   6.814   6.240 -0.9086 -0.0339  0.0947
  443MOL0     C58370   5.698   6.796   6.380  1.3728  0.0007  0.2002
  443MOL0     C58371   5.831   6.773   6.421  0.3805  0.0214 -0.0741
  443MOL0     C58372   5.939   6.785   6.335 -0.0784 -0.6750 -0.4453
  443MOL0     C58373   6.076   6.770   6.388  0.3895  0.6913  0.0917
  443MOL0     O58374   6.092   6.746   6.516  0.4306  0.1048  0.1948
  443MOL0     C58375   6.223   6.759   6.560  0.5033  0.2722  0.2923
  443MOL0     C58376   6.318   6.659   6.546  0.2259 -0.0331 -0.1827
  443MOL0     C58377   6.451   6.672   6.593  0.7474 -0.5192 -0.2508
  443MOL0     C58378   6.491   6.794   6.651 -0.4472  0.0536  0.4103
  443MOL0     O58379   6.614   6.801   6.709  0.4736  1.5533 -0.7422
  443MOL0     C58380   6.665   6.932   6.736 -0.1696 -0.0202  1.4132
  443MOL0     C58381   6.811   6.928   6.765  0.5762  0.2501 -0.3783
  443MOL0     C58382   6.844   6.827   6.872  0.8025  0.1226  0.1292
  443MOL0     C58383   6.997   6.815   6.873  0.7704 -0.4703 -0.4046
  443MOL0     C58384   7.036   6.744   7.003 -0.8905 -0.2747  0.0715
  443MOL0     C58385   7.023   6.819   7.145 -0.1602  0.2569  0.6661
  443MOL0     C58386   6.976   6.724   7.258  1.5277 -0.1363  0.1031
  443MOL0     C58387   6.922   6.808   7.375 -0.5771  0.3325 -0.0117
  443MOL0    Cl58388   6.787   6.919   7.323 -0.1171  0.0662  0.0275
  443MOL0     C58389   6.393   6.892   6.683  0.8479 -0.4315 -0.2585
  443MOL0     C58390   6.256   6.872   6.635 -0.3638  0.1584  0.3103
  443MOL0     O58391   6.157   6.796   6.304 -0.2958 -0.2455 -0.2587
  443MOL0     C58392   5.919   6.793   6.196 -0.3375  0.3602 -0.2705
  443MOL0     C58393   5.786   6.822   6.155  0.3009  0.3110  0.3093
  443MOL0     N58394   5.009   6.931   5.971 -0.1996 -0.1462 -0.3448
  443MOL0     N58395   4.984   6.983   5.854 -0.0625 -0.1980 -0.2694
  443MOL0     C58396   5.821   6.709   5.819 -0.2603  0.3805 -0.0569
  443MOL0     C58397   5.902   6.623   5.896 -0.5548 -1.0002 -0.5512
  443MOL0     C58398   6.314   6.496   6.102 -0.4995 -1.3053  0.1898
  443MOL0     C58399   6.443   6.540   6.129 -0.4936 -0.1412 -1.0493
  443MOL0     C58400   6.523   6.452   6.214  0.3676 -0.1788 -0.3369
  443MOL0     C58401   6.465   6.340   6.272  0.2831 -0.5711  0.7278
  443MOL0     O58402   6.543   6.277   6.375  0.3647  0.0443  0.0852
  443MOL0     C58403   6.504   6.145   6.416  0.0358  0.6328 -0.3497
  443MOL0     C58404   6.617   6.098   6.500  0.2550 -0.5841  0.4741
  443MOL0     C58405   6.597   5.961   6.567 -0.4798 -0.1617 -0.7568
  443MOL0     C58406   6.502   5.975   6.690  0.2419 -0.5115  0.9106
  443MOL0     C58407   6.571   5.993   6.815  0.2502  0.5630  0.5991
  443MOL0     C58408   6.602   6.022   6.930 -0.4334 -0.6006 -0.3068
  443MOL0     C58409   6.334   6.306   6.238 -0.4288  1.0821  0.1913
  443MOL0     C58410   6.258   6.386   6.165 -0.4588  0.4303  0.0580
  443MOL0     H58411   6.201   6.648   5.751  0.5050  0.0104  1.4320
  443MOL0     H58412   6.050   6.759   5.575  0.4647 -1.7842 -0.0483
  443MOL0     H58413   5.812   7.031   5.552 -2.0615  2.8591  0.6432
  443MOL0     H58414   5.910   6.998   5.692 -0.0841 -2.7070  0.0455
  443MOL0     H58415   5.719   7.154   5.731  2.9237  0.3111 -2.0058
  443MOL0     H58416   5.689   7.013   5.828 -0.7251 -3.4433 -1.4741
  443MOL0     H58417   5.514   6.923   5.704 -2.5321  0.4524 -2.3885
  443MOL0     H58418   5.564   6.992   5.559 -2.7311  0.4486  0.7444
  443MOL0     H58419   5.435   7.138   5.803  0.6370 -0.5399  0.3032
  443MOL0     H58420   5.509   7.231   5.682  0.8080 -0.4030  0.1606
  443MOL0     H58421   5.346   7.130   5.493 -0.3257  1.1075  0.1308
  443MOL0     H58422   5.274   7.233   5.605  0.4917  0.2763  2.1746
  443MOL0     H58423   5.232   7.036   5.758 -0.9455  0.0204  1.1218
  443MOL0     H58424   5.296   6.932   5.619 -0.7531 -0.2305 -0.0754
  443MOL0     H58425   5.044   7.115   5.598  1.3459  0.3908 -1.4548
  443MOL0     H58426   5.114   7.013   5.473 -0.0928  1.5804 -0.2041
  443MOL0     H58427   5.075   6.809   5.584 -0.7165  1.2191 -0.7446
  443MOL0     H58428   4.918   6.883   5.575 -1.1341 -1.4745  1.2629
  443MOL0     H58429   5.106   6.680   5.780  0.3287  1.1650 -1.3082
  443MOL0     H58430   5.057   6.614   6.044 -2.4177  1.8755 -3.7222
  443MOL0     H58431   5.055   6.750   6.158 -1.7700 -1.3346  0.1571
  443MOL0     H58432   5.321   6.674   6.023  2.6882  1.1562  1.5048
  443MOL0     H58433   5.268   6.637   6.180 -1.4538 -1.3105 -2.9616
  443MOL0     H58434   5.350   6.905   6.066 -2.4217 -0.1085 -1.2069
  443MOL0     H58435   5.231   6.914   6.185 -0.4768 -0.5653 -0.8472
  443MOL0     H58436   5.419   6.735   6.303  2.3230 -1.7661 -1.0963
  443MOL0     H58437   5.444   6.920   6.305 -1.4226  1.9061 -2.0665
  443MOL0     H58438   5.613   6.794   6.448 -1.4606 -1.7081 -3.0372
  443MOL0     H58439   5.837   6.769   6.529 -0.0860 -1.4928 -0.0932
  443MOL0     H58440   6.281   6.567   6.502  0.6932 -0.6115  0.5954
  443MOL0     H58441   6.510   6.582   6.578  1.0277 -0.3216 -0.3477
  443MOL0     H58442   6.614   6.986   6.815 -2.1228 -2.2402  1.7605
  443MOL0     H58443   6.652   6.995   6.647 -3.9313  0.2577  2.0206
  443MOL0     H58444   6.847   7.022   6.808  1.2371  0.3330 -1.0897
  443MOL0     H58445   6.878   6.911   6.681 -0.3102  0.0905 -1.0693
  443MOL0     H58446   6.814   6.726   6.842 -2.4482  0.5562  1.5863
  443MOL0     H58447   6.806   6.861   6.968 -0.9052  2.8446 -1.3798
  443MOL0     H58448   7.021   6.749   6.789  0.1525  0.6257 -1.4851
  443MOL0     H58449   7.045   6.913   6.862 -1.9907  1.0017 -0.2966
  443MOL0     H58450   7.134   6.700   6.983 -0.7527  0.7016 -1.5784
  443MOL0     H58451   6.971   6.657   7.008  0.6269 -1.3786  1.4513
  443MOL0     H58452   6.958   6.901   7.112 -2.9309 -2.7588 -2.1758
  443MOL0     H58453   7.121   6.851   7.182 -0.0661  0.1504  0.5092
  443MOL0     H58454   6.894   6.661   7.220 -1.4730  2.4327  1.8058
  443MOL0     H58455   7.060   6.661   7.289  2.0322 -0.8433 -2.5181
  443MOL0     H58456   7.005   6.869   7.412  1.6825 -2.3037 -0.3535
  443MOL0     H58457   6.886   6.746   7.457 -1.7982  0.9381 -0.0724
  443MOL0     H58458   6.411   6.966   6.760  0.0772 -0.7015  0.2027
  443MOL0     H58459   6.174   6.938   6.662 -1.4073 -1.2934  0.8020
  443MOL0     H58460   6.005   6.796   6.131  0.4262  0.9682  0.7323
  443MOL0     H58461   5.771   6.831   6.047 -0.4746  0.7045  0.4419
  443MOL0     H58462   5.718   6.730   5.847 -0.0930  0.9211  0.1693
  443MOL0     H58463   5.860   6.579   5.986 -0.4238  0.9429  0.5209
  443MOL0     H58464   6.497   6.616   6.074  2.2850  0.1800  1.8352
  443MOL0     H58465   6.627   6.466   6.240  0.2284 -0.6476  0.5085
  443MOL0     H58466   6.498   6.069   6.337  2.5415 -0.3914  0.3580
  443MOL0     H58467   6.416   6.160   6.480 -0.2936  0.4712 -0.7591
  443MOL0     H58468   6.705   6.083   6.438 -0.8928  0.8705 -1.6463
  443MOL0     H58469   6.653   6.175   6.569  0.6575 -0.1427 -0.2217
  443MOL0     H58470   6.685   5.906   6.601 -1.5037 -2.1599 -1.1386
  443MOL0     H58471   6.548   5.900   6.490 -2.3225 -1.6950  1.4854
  443MOL0     H58472   6.433   6.055   6.663 -0.4399 -1.2157  0.5565
  443MOL0     H58473   6.442   5.885   6.704  0.4507 -0.5120  1.8621
  443MOL0     H58474   6.643   6.055   7.023 -1.8296  0.7777 -0.1443
  443MOL0     H58475   6.286   6.219   6.281  0.6507 -0.1262 -0.9732
  443MOL0     H58476   6.158   6.348   6.144 -0.4611  0.4543  0.0271
  444MOL0     O58477   3.774   9.703   4.749  0.1088 -0.0286  0.2445
  444MOL0     C58478   3.853   9.642   4.675 -0.2898 -0.4678 -0.0649
  444MOL0     O58479   3.905   9.522   4.701 -0.7020  0.7069 -1.1820
  444MOL0     C58480   3.823   9.445   4.792 -1.0003  0.6201  1.0055
  444MOL0     C58481   3.736   9.350   4.729 -0.4029  0.1639 -0.4147
  444MOL0     C58482   3.656   9.270   4.812 -0.5632  0.5406  0.7116
  444MOL0     C58483   3.666   9.272   4.954  0.4890  0.2871  0.4728
  444MOL0     O58484   3.585   9.202   5.036  0.7404  0.2727 -0.3314
  444MOL0     C58485   3.496   9.111   4.988  0.5367  0.0740  0.9404
  444MOL0     C58486   3.406   9.074   5.104 -0.2309 -0.2781 -0.9550
  444MOL0     C58487   3.281   8.990   5.055 -0.1217  0.6371 -0.5329
  444MOL0     C58488   3.240   8.892   5.159  0.7380 -0.7098 -0.1146
  444MOL0     C58489   3.105   8.826   5.136  0.0362  0.0494  0.3734
  444MOL0     C58490   3.056   8.743   5.255 -0.1865 -0.4528  1.2773
  444MOL0     C58491   2.971   8.829   5.342 -0.0402  0.5563 -0.0564
  444MOL0     C58492   2.903   8.757   5.461 -0.3506  0.5844  0.5993
  444MOL0     N58493   2.771   8.814   5.492 -1.1311 -0.7340  0.3032
  444MOL0     C58494   2.709   8.809   5.618 -0.2456  0.1134 -0.5700
  444MOL0     C58495   2.583   8.838   5.598  0.2105  1.1318  0.2183
  444MOL0     C58496   2.480   8.810   5.701 -0.4411 -0.2845  0.4108
  444MOL0     C58497   2.399   8.936   5.722  0.4617 -0.0680 -0.5770
  444MOL0     C58498   2.291   8.965   5.612  0.2217  0.5006 -0.4489
  444MOL0     C58499   2.190   9.076   5.643  0.0187  0.5267  0.1782
  444MOL0     O58500   2.094   9.039   5.743 -0.2779 -0.5622 -0.2843
  444MOL0     C58501   1.964   9.072   5.720 -0.5893 -0.9922 -0.0390
  444MOL0     C58502   1.893   9.137   5.815  0.6614 -0.5538 -0.4373
  444MOL0     C58503   1.751   9.158   5.804 -0.6401 -0.0469 -0.0995
  444MOL0     C58504   1.687   9.130   5.690  0.2230 -0.1863  0.2062
  444MOL0     C58505   1.543   9.167   5.662 -0.8748  1.4911 -0.5850
  444MOL0     O58506   1.490   9.110   5.552 -0.6639 -0.7456 -0.0056
  444MOL0     C58507   1.353   9.109   5.525 -0.0574 -0.1013 -0.7306
  444MOL0     C58508   1.286   9.229   5.504  0.4814 -0.2833  1.1846
  444MOL0     C58509   1.147   9.226   5.461 -0.0066  0.0474 -0.1377
  444MOL0     C58510   1.080   9.105   5.466  0.1982 -0.1318  1.2587
  444MOL0     O58511   0.945   9.089   5.431  0.1144 -0.0007 -0.1953
  444MOL0     C58512   0.880   9.181   5.339 -0.5078  0.0905 -0.1984
  444MOL0     C58513   0.751   9.117   5.301  0.2323 -0.0306  0.6769
  444MOL0     C58514   0.658   9.067   5.408 -1.0859 -0.6027  0.5873
  444MOL0     C58515   0.536   8.999   5.346 -0.4989  0.1510  0.0794
  444MOL0     C58516   0.445   8.976   5.465 -0.6917  0.6877  0.0106
  444MOL0     C58517   0.329   8.882   5.434 -0.3960 -0.1984 -0.7172
  444MOL0     C58518   0.275   8.799   5.553 -0.1196 -0.1803  0.2744
  444MOL0     C58519   0.160   8.702   5.521  0.0617 -0.3687 -0.0386
  444MOL0    Cl58520   0.129   8.629   5.677  0.1650  0.3420 -0.9734
  444MOL0     C58521   1.147   8.989   5.491 -0.3780  0.3289 -0.1589
  444MOL0     C58522   1.284   8.990   5.515 -0.3542 -0.2907  0.5412
  444MOL0     O58523   1.485   9.229   5.749 -0.7781 -0.2250  0.3547
  444MOL0     C58524   1.764   9.064   5.587  0.1499  0.6519 -0.5813
  444MOL0     C58525   1.898   9.028   5.604  0.2475  0.3818  0.7020
  444MOL0     N58526   2.570   8.861   5.463 -0.1732  0.3286 -0.6634
  444MOL0     N58527   2.677   8.838   5.395  0.3961 -0.2511  0.0473
  444MOL0     C58528   3.758   9.363   5.011 -0.1090 -1.2330  1.1311
  444MOL0     C58529   3.839   9.446   4.935  0.3172  0.1371 -0.7735
  444MOL0     C58530   3.909   9.717   4.567  0.2860  0.4602  0.2984
  444MOL0     C58531   3.854   9.835   4.514 -0.0606 -0.3297  0.1524
  444MOL0     C58532   3.912   9.904   4.407 -0.0143  0.8584  0.5390
  444MOL0     C58533   4.038   9.881   4.351  0.4930  0.6110 -0.6215
  444MOL0     O58534   4.091   9.949   4.245  0.1082 -0.5915 -0.2176
  444MOL0     C58535   4.219   9.917   4.182  0.6388  0.5433 -0.0016
  444MOL0     C58536   4.251  10.017   4.063 -0.4173  0.1895 -0.4178
  444MOL0     C58537   4.326  10.138   4.114  0.1089  0.0061  0.5569
  444MOL0     C58538   4.230  10.251   4.157 -0.0739 -0.4583  0.4303
  444MOL0     C58539   4.309  10.376   4.158 -0.5627 -0.7586 -0.0160
  444MOL0     C58540   4.365  10.489   4.171 -0.1325  0.2540  0.9722
  444MOL0     C58541   4.089   9.751   4.393 -0.4680  0.2978  0.0350
  444MOL0     C58542   4.034   9.682   4.505  0.3807  0.0581 -0.5099
  444MOL0     H58543   3.741   9.328   4.623 -0.4138 -0.7952 -0.2332
  444MOL0     H58544   3.589   9.204   4.758 -1.0841  0.3670  1.5493
  444MOL0     H58545   3.547   9.019   4.958  0.1523  1.1201 -3.5935
  444MOL0     H58546   3.442   9.155   4.904  0.8986  0.4025  0.8782
  444MOL0     H58547   3.371   9.164   5.154 -0.6494  1.6688 -4.4400
  444MOL0     H58548   3.466   9.016   5.175  1.7078 -0.0980 -2.3817
  444MOL0     H58549   3.304   8.940   4.961 -1.4862 -0.4789 -0.3033
  444MOL0     H58550   3.201   9.057   5.023 -1.7120 -0.4106  1.0606
  444MOL0     H58551   3.323   8.822   5.174  0.7287 -0.7608 -0.3060
  444MOL0     H58552   3.231   8.943   5.256  0.4442  0.1886 -0.6060
  444MOL0     H58553   3.120   8.762   5.048  1.5065 -0.3906  0.9141
  444MOL0     H58554   3.030   8.898   5.102 -1.5944 -2.3762 -1.6010
  444MOL0     H58555   3.142   8.696   5.303  0.2379 -0.3602  0.6288
  444MOL0     H58556   2.994   8.663   5.212 -0.0895 -0.3579  0.9575
  444MOL0     H58557   3.024   8.913   5.388 -0.9888  1.9385 -1.3684
  444MOL0     H58558   2.886   8.855   5.278  1.0385  3.2254 -0.5579
  444MOL0     H58559   2.961   8.768   5.553 -2.8330 -0.2503  2.3799
  444MOL0     H58560   2.898   8.651   5.434 -0.5777  1.5672 -3.9229
  444MOL0     H58561   2.742   8.786   5.718 -3.2641  0.5575  0.6579
  444MOL0     H58562   2.533   8.786   5.793  2.3701 -0.2182 -1.0827
  444MOL0     H58563   2.426   8.718   5.680  0.6855 -0.6072 -1.2710
  444MOL0     H58564   2.471   9.018   5.728  0.9957 -0.5962  0.5229
  444MOL0     H58565   2.355   8.940   5.822  2.8823  0.1829  0.5427
  444MOL0     H58566   2.345   8.978   5.518  1.2683 -2.3765 -0.3475
  444MOL0     H58567   2.232   8.873   5.608  0.5403  0.2884 -0.3247
  444MOL0     H58568   2.144   9.124   5.556  0.2584  2.2554  0.9454
  444MOL0     H58569   2.246   9.157   5.691  1.5582  0.0359 -0.7259
  444MOL0     H58570   1.953   9.151   5.904  0.3183 -0.6596 -0.1901
  444MOL0     H58571   1.698   9.207   5.885 -0.9173  0.3151 -0.4961
  444MOL0     H58572   1.345   9.319   5.517  0.1948 -0.0193  0.7391
  444MOL0     H58573   1.112   9.325   5.434  3.1595  1.4934  0.5712
  444MOL0     H58574   0.943   9.175   5.250  0.0437 -2.5816  0.2697
  444MOL0     H58575   0.858   9.282   5.374 -2.8610 -0.7315  0.9416
  444MOL0     H58576   0.785   9.029   5.247  0.6408  0.7755 -0.4251
  444MOL0     H58577   0.701   9.185   5.231  2.8071  1.3827  0.0853
  444MOL0     H58578   0.631   9.154   5.467 -2.7240  0.6782 -1.8903
  444MOL0     H58579   0.717   9.001   5.473  0.7932  0.9248  0.5329
  444MOL0     H58580   0.484   9.059   5.271  0.2089  0.2363 -0.3555
  444MOL0     H58581   0.572   8.910   5.294  0.8342  0.0798  1.0753
  444MOL0     H58582   0.412   9.076   5.494 -1.8226 -0.0820  1.5244
  444MOL0     H58583   0.508   8.920   5.535  0.5944  0.0735 -1.5535
  444MOL0     H58584   0.361   8.806   5.362 -2.6970 -1.4908 -0.4770
  444MOL0     H58585   0.248   8.937   5.386  1.6449  2.9434 -0.8772
  444MOL0     H58586   0.367   8.748   5.583  1.3697  3.3521  2.2293
  444MOL0     H58587   0.241   8.863   5.634  1.2666 -1.0429  1.5964
  444MOL0     H58588   0.200   8.634   5.445  2.9846  0.2396  0.8372
  444MOL0     H58589   0.067   8.751   5.490 -0.2591 -2.2383 -2.3371
  444MOL0     H58590   1.097   8.893   5.481 -0.7991 -0.2222  4.9394
  444MOL0     H58591   1.339   8.898   5.535 -3.2253 -1.7792  2.1084
  444MOL0     H58592   1.722   9.020   5.497  2.3338  0.1817 -1.4445
  444MOL0     H58593   1.931   8.966   5.522 -0.4716  1.1139 -0.1693
  444MOL0     H58594   3.777   9.383   5.116  1.4925  1.6099  0.4014
  444MOL0     H58595   3.908   9.519   4.977 -2.5052  1.9351  1.0793
  444MOL0     H58596   3.759   9.875   4.549  0.2050  1.6566 -1.2262
  444MOL0     H58597   3.876   9.999   4.370  0.3935  1.2562  1.1333
  444MOL0     H58598   4.214   9.817   4.138 -0.7201  1.0104 -1.0083
  444MOL0     H58599   4.300   9.930   4.254 -0.3239  1.4077  0.9565
  444MOL0     H58600   4.310   9.961   3.989  1.2362  1.3454 -0.0444
  444MOL0     H58601   4.154  10.048   4.025 -1.9093  2.1111  4.3102
  444MOL0     H58602   4.409  10.149   4.044  0.7997 -5.1442  0.1739
  444MOL0     H58603   4.385  10.121   4.204  1.6389  0.6073 -0.2954
  444MOL0     H58604   4.142  10.267   4.094  0.1694  3.6400  0.8235
  444MOL0     H58605   4.193  10.245   4.260 -0.1732 -1.1633  0.3532
  444MOL0     H58606   4.409  10.585   4.193 -1.9999  1.2226  0.6616
  444MOL0     H58607   4.181   9.713   4.349 -0.8116 -2.5906  1.5661
  444MOL0     H58608   4.089   9.592   4.529 -0.5071 -0.2264  0.5456
  445MOL0     O58609   7.847  10.906   7.944  0.0810 -0.3874 -1.3873
  445MOL0     C58610   7.843  10.839   8.045  0.2871 -0.2330 -0.3435
  445MOL0     O58611   7.740  10.756   8.072  0.4271 -0.2900 -0.3370
  445MOL0     C58612   7.614  10.792   8.048  0.5706 -0.2888  0.0009
  445MOL0     C58613   7.519  10.685   8.033 -0.3572  0.3875 -0.6357
  445MOL0     C58614   7.383  10.714   8.008 -0.3693 -0.4275 -0.6296
  445MOL0     C58615   7.347  10.848   7.990 -0.3867  0.8038 -1.7342
  445MOL0     O58616   7.221  10.872   7.941 -0.1831  0.3931 -0.7534
  445MOL0     C58617   7.114  10.826   8.034  0.1813 -0.4639 -0.0027
  445MOL0     C58618   6.998  10.932   8.029  0.6056  0.0313 -0.4751
  445MOL0     C58619   6.882  10.853   8.094 -0.3332  0.1115  0.5003
  445MOL0     C58620   6.758  10.929   8.074 -0.1756  0.1865 -0.4690
  445MOL0     C58621   6.644  10.857   8.156  0.2271 -0.2275  0.0500
  445MOL0     C58622   6.628  10.908   8.301  0.3921  0.6430  0.3023
  445MOL0     C58623   6.504  10.854   8.387 -0.3007  0.2660 -0.1770
  445MOL0     C58624   6.512  10.709   8.431  0.8728 -0.1745  0.3074
  445MOL0     N58625   6.402  10.681   8.520 -0.0253 -0.3549  0.2895
  445MOL0     C58626   6.274  10.718   8.492 -0.3674 -0.2767 -0.8179
  445MOL0     C58627   6.190  10.653   8.577  0.8572  0.2674 -0.4458
  445MOL0     C58628   6.042  10.653   8.596  0.6272 -0.0614 -0.0166
  445MOL0     C58629   5.978  10.535   8.516  0.0920 -0.4997 -1.1349
  445MOL0     C58630   5.971  10.400   8.602  0.1646  0.2887 -0.2019
  445MOL0     C58631   5.833  10.335   8.569 -0.1600 -0.7646 -0.6147
  445MOL0     O58632   5.723  10.412   8.633 -0.2759 -0.1251 -0.0185
  445MOL0     C58633   5.601  10.358   8.653  0.0220  0.1778  0.3497
  445MOL0     C58634   5.509  10.447   8.721 -0.0827 -0.3265 -0.7149
  445MOL0     C58635   5.377  10.403   8.745  0.6088  0.3743  0.1076
  445MOL0     C58636   5.334  10.274   8.705  0.6767 -0.2456  0.4173
  445MOL0     C58637   5.201  10.212   8.745  0.2496  0.2365 -0.2701
  445MOL0     O58638   5.202  10.072   8.734 -0.0293  0.2981  0.0273
  445MOL0     C58639   5.087   9.995   8.722 -0.1891 -0.1791  0.3059
  445MOL0     C58640   4.972  10.039   8.656  0.3003  0.3904  0.3151
  445MOL0     C58641   4.861   9.952   8.651 -1.3042  0.6451  0.7451
  445MOL0     C58642   4.867   9.820   8.701  0.0566  0.9107  0.0999
  445MOL0     O58643   4.767   9.723   8.694  0.3065  0.8737 -0.4841
  445MOL0     C58644   4.635   9.750   8.649  0.2360  1.0945  0.0171
  445MOL0     C58645   4.568   9.619   8.661 -0.7980  0.1953 -0.6728
  445MOL0     C58646   4.423   9.630   8.640  0.5337  0.1391  0.2293
  445MOL0     C58647   4.384   9.638   8.491 -0.3284  0.0033  0.2345
  445MOL0     C58648   4.240   9.623   8.447 -0.9553  0.3094  0.0573
  445MOL0     C58649   4.214   9.658   8.300 -0.1978 -0.4900 -0.1962
  445MOL0     C58650   4.063   9.688   8.266  0.1675  0.0606 -0.1139
  445MOL0     C58651   4.023   9.717   8.116 -0.7565  1.3626  0.1912
  445MOL0    Cl58652   3.856   9.772   8.123  0.2261 -0.6726 -0.1129
  445MOL0     C58653   4.989   9.783   8.756  0.1005 -0.3635 -0.9133
  445MOL0     C58654   5.098   9.864   8.766 -0.2685  0.1019  0.2859
  445MOL0     O58655   5.109  10.278   8.787  0.6250  0.5513  0.1574
  445MOL0     C58656   5.427  10.195   8.630 -0.3452 -0.0886 -0.3693
  445MOL0     C58657   5.551  10.234   8.609 -0.1024 -0.0218 -0.2090
  445MOL0     N58658   6.264  10.572   8.656 -0.7706  0.5152 -0.2243
  445MOL0     N58659   6.394  10.584   8.615  0.0049 -0.8800 -0.0550
  445MOL0     C58660   7.431  10.960   8.002 -0.4098 -0.7844  0.3267
  445MOL0     C58661   7.564  10.923   8.030 -0.0050 -0.2566  0.1004
  445MOL0     C58662   7.968  10.799   8.118  0.0470 -0.4209 -0.5212
  445MOL0     C58663   8.091  10.779   8.053  0.1590 -0.7985 -0.2658
  445MOL0     C58664   8.190  10.712   8.116 -0.9083  0.6945 -0.3875
  445MOL0     C58665   8.181  10.676   8.254 -0.1016  0.0004  0.5560
  445MOL0     O58666   8.290  10.608   8.314  0.0044 -0.0621 -0.1288
  445MOL0     C58667   8.407  10.689   8.306  0.5212 -0.1245 -0.4685
  445MOL0     C58668   8.496  10.642   8.432 -0.1553  0.5980 -0.1835
  445MOL0     C58669   8.489  10.489   8.452  0.2450 -0.1322  0.6961
  445MOL0     C58670   8.598  10.418   8.532  0.1721  0.6745  0.1418
  445MOL0     C58671   8.572  10.272   8.552  0.6417 -0.8122 -0.3129
  445MOL0     C58672   8.543  10.084   8.584 -0.4545 -0.0721  0.1786
  445MOL0     C58673   8.061  10.697   8.318 -0.7014 -0.4084  0.1099
  445MOL0     C58674   7.950  10.760   8.252  0.1763  0.3548 -0.1021
  445MOL0     H58675   7.550  10.581   8.036 -1.8742 -0.0885  1.3435
  445MOL0     H58676   7.311  10.643   7.970  1.6758 -3.7278  1.2416
  445MOL0     H58677   7.149  10.814   8.137 -2.0644  2.2557  1.1922
  445MOL0     H58678   7.081  10.730   7.992 -0.5313 -1.5270  2.7416
  445MOL0     H58679   6.979  10.964   7.926  1.9043  3.4072  0.2216
  445MOL0     H58680   7.020  11.019   8.090  1.3145 -1.3157  1.2648
  445MOL0     H58681   6.910  10.843   8.199  0.9797  2.7221  0.4978
  445MOL0     H58682   6.857  10.758   8.046 -3.6599 -0.5152  3.0363
  445MOL0     H58683   6.768  11.032   8.110 -0.8341  0.3876 -0.8343
  445MOL0     H58684   6.732  10.931   7.968 -1.2456  0.1177 -0.2176
  445MOL0     H58685   6.662  10.749   8.158 -1.3490 -0.5976 -2.1237
  445MOL0     H58686   6.549  10.885   8.110 -0.5291 -1.7551  0.5903
  445MOL0     H58687   6.606  11.013   8.281 -0.1136  0.5772  0.5005
  445MOL0     H58688   6.728  10.907   8.344  1.5785  2.2378 -2.2071
  445MOL0     H58689   6.493  10.923   8.471  3.0046  1.5277 -0.6157
  445MOL0     H58690   6.415  10.868   8.324  0.1713 -0.0517 -0.9297
  445MOL0     H58691   6.610  10.692   8.476  2.5818  2.5454 -2.0618
  445MOL0     H58692   6.504  10.648   8.341 -3.6988 -1.9129  1.5973
  445MOL0     H58693   6.246  10.780   8.408  0.6339 -2.3491 -2.7773
  445MOL0     H58694   6.001  10.742   8.546 -0.2585 -0.6948 -0.4423
  445MOL0     H58695   6.013  10.651   8.701  2.0049  0.5969  0.3969
  445MOL0     H58696   6.033  10.513   8.424  1.3520  0.5257 -0.6538
  445MOL0     H58697   5.879  10.572   8.488  0.3450 -0.3314 -1.8136
  445MOL0     H58698   6.047  10.329   8.566 -1.8720 -0.5663 -3.3043
  445MOL0     H58699   5.976  10.421   8.709 -0.9533 -3.5032  0.7576
  445MOL0     H58700   5.834  10.233   8.608  0.0947  0.3762  2.7084
  445MOL0     H58701   5.815  10.339   8.461  0.1812 -1.1935 -0.6920
  445MOL0     H58702   5.537  10.541   8.767  0.7012 -0.0303 -1.7592
  445MOL0     H58703   5.303  10.470   8.788 -2.5189 -0.7939 -2.9668
  445MOL0     H58704   4.963  10.139   8.616 -1.8488  0.3181  0.4955
  445MOL0     H58705   4.771   9.997   8.611 -0.6427  2.3497  1.0771
  445MOL0     H58706   4.639   9.777   8.543  0.2799  4.3953  0.7517
  445MOL0     H58707   4.595   9.840   8.696  0.9401  1.3918  0.0538
  445MOL0     H58708   4.598   9.597   8.764  1.1994 -0.4447 -1.3550
  445MOL0     H58709   4.615   9.542   8.599  1.2801  1.0160 -0.1830
  445MOL0     H58710   4.369   9.709   8.692 -2.1024 -1.4937  0.1289
  445MOL0     H58711   4.374   9.540   8.677 -0.1906  0.4833  0.1194
  445MOL0     H58712   4.416   9.733   8.446 -4.4862  0.2927 -2.7600
  445MOL0     H58713   4.436   9.558   8.439  1.8069  1.4471  0.0039
  445MOL0     H58714   4.183   9.679   8.522  0.8973 -1.1760  2.7212
  445MOL0     H58715   4.218   9.518   8.467  0.2231 -0.0188 -0.2915
  445MOL0     H58716   4.258   9.582   8.234  3.3851  1.0957  0.1548
  445MOL0     H58717   4.275   9.745   8.273  0.6650 -0.5570  1.4150
  445MOL0     H58718   4.001   9.598   8.274  0.8800 -0.3879  0.5100
  445MOL0     H58719   4.017   9.757   8.338 -2.6192 -1.7712  0.0199
  445MOL0     H58720   4.038   9.624   8.060 -1.1252 -0.1206  2.4422
  445MOL0     H58721   4.087   9.794   8.072  1.1279 -0.3209 -0.1517
  445MOL0     H58722   5.000   9.679   8.784  2.0496  0.0224 -0.0354
  445MOL0     H58723   5.189   9.834   8.816  0.3445 -0.1623 -0.9419
  445MOL0     H58724   5.395  10.094   8.607  3.5331 -2.0646  1.9177
  445MOL0     H58725   5.608  10.161   8.553 -1.0787  0.0193 -1.2946
  445MOL0     H58726   7.397  11.063   8.005  0.7557 -0.3123 -1.3722
  445MOL0     H58727   7.643  10.997   8.033  0.2600 -0.5509  0.4298
  445MOL0     H58728   8.106  10.820   7.954 -1.8465 -1.3038 -0.8309
  445MOL0     H58729   8.283  10.711   8.059 -1.5595 -0.3439 -1.4904
  445MOL0     H58730   8.387  10.797   8.301 -0.3900 -0.0496  2.7101
  445MOL0     H58731   8.466  10.654   8.221 -0.8908  2.0449 -2.4462
  445MOL0     H58732   8.601  10.669   8.416 -0.6771  1.7148 -2.0486
  445MOL0     H58733   8.470  10.689   8.527 -1.1034 -2.0168  0.9362
  445MOL0     H58734   8.494  10.452   8.349 -2.4251  2.8343 -0.6778
  445MOL0     H58735   8.397  10.476   8.509  0.4588  1.6047  1.5070
  445MOL0     H58736   8.689  10.427   8.471 -0.3925 -0.1788 -0.8387
  445MOL0     H58737   8.610  10.466   8.630 -0.7852  1.0862  0.0658
  445MOL0     H58738   8.517   9.981   8.598 -2.2296  0.2106 -0.6967
  445MOL0     H58739   8.064  10.654   8.417  0.2202 -0.9371 -0.1264
  445MOL0     H58740   7.854  10.764   8.303  0.5479 -2.4092  1.0035
  446MOL0     O58741   5.364   9.386   3.603  0.0373  0.0571 -0.3331
  446MOL0     C58742   5.369   9.264   3.595 -0.0492 -0.7763 -0.6693
  446MOL0     O58743   5.262   9.173   3.609  0.5304 -0.9243 -0.5066
  446MOL0     C58744   5.133   9.224   3.630  0.3853  0.3077 -0.4896
  446MOL0     C58745   5.039   9.115   3.635  0.4014 -0.9273  0.5479
  446MOL0     C58746   4.900   9.146   3.638  0.2641  0.9849  0.5001
  446MOL0     C58747   4.848   9.278   3.657 -0.3840  0.3823 -0.5668
  446MOL0     O58748   4.716   9.310   3.670  0.3314 -0.0359 -0.0233
  446MOL0     C58749   4.613   9.211   3.646 -1.3529  0.0387 -0.1488
  446MOL0     C58750   4.472   9.270   3.634 -0.6544  0.6774 -0.2555
  446MOL0     C58751   4.472   9.406   3.577  0.0780  0.8047  1.3577
  446MOL0     C58752   4.337   9.455   3.534  0.6421 -0.0578  0.2113
  446MOL0     C58753   4.240   9.513   3.645 -0.4030 -0.7692  0.5325
  446MOL0     C58754   4.268   9.659   3.689 -0.2721  0.2248  0.3439
  446MOL0     C58755   4.184   9.716   3.796  0.2770 -0.1464  0.2638
  446MOL0     C58756   4.039   9.681   3.761 -0.4052  0.8180 -0.1583
  446MOL0     N58757   3.955   9.768   3.843 -0.0838  0.2227  0.4044
  446MOL0     C58758   3.925   9.893   3.797  0.9195  0.0584  0.4185
  446MOL0     C58759   3.863   9.946   3.901  0.1065  0.6966 -0.6461
  446MOL0     C58760   3.824  10.093   3.923  0.0107 -0.0618 -0.3213
  446MOL0     C58761   3.686  10.112   4.001 -0.2154 -0.1295 -0.1491
  446MOL0     C58762   3.709  10.225   4.103 -0.9240  0.1939 -0.0580
  446MOL0     C58763   3.589  10.257   4.190  0.1020  0.5509 -0.5165
  446MOL0     O58764   3.464  10.285   4.124  0.8762  0.3979  0.8259
  446MOL0     C58765   3.354  10.315   4.201 -0.0078 -0.7392 -0.3652
  446MOL0     C58766   3.236  10.335   4.127  0.5240 -0.0347  0.0323
  446MOL0     C58767   3.112  10.347   4.184 -0.3654 -0.1541  0.3342
  446MOL0     C58768   3.106  10.355   4.329 -0.8255  0.6346 -0.8902
  446MOL0     C58769   2.979  10.366   4.387 -0.2438 -0.2174 -0.8197
  446MOL0     O58770   2.864  10.365   4.316  0.2076 -0.0587 -0.0337
  446MOL0     C58771   2.735  10.396   4.348  0.0268 -0.3423  0.7990
  446MOL0     C58772   2.627  10.362   4.257  0.6733 -0.3405  0.4534
  446MOL0     C58773   2.489  10.388   4.286  0.3952  0.3777  1.5505
  446MOL0     C58774   2.462  10.454   4.403  0.4962  0.1059  0.0577
  446MOL0     O58775   2.330  10.485   4.423 -0.1872  0.6300 -0.9332
  446MOL0     C58776   2.240  10.393   4.488  0.2363 -0.4873 -0.7971
  446MOL0     C58777   2.106  10.453   4.498 -0.3696  0.1038  0.1405
  446MOL0     C58778   2.066  10.498   4.359 -0.3447 -0.2532 -0.9688
  446MOL0     C58779   1.927  10.561   4.360 -0.2977 -0.4691 -0.2000
  446MOL0     C58780   1.882  10.594   4.213 -0.4453  0.3578 -0.6196
  446MOL0     C58781   1.727  10.629   4.203 -0.3001 -0.4056  0.1983
  446MOL0     C58782   1.690  10.655   4.052  0.1889  0.2180 -0.1784
  446MOL0     C58783   1.545  10.702   4.041  0.0832 -1.2030 -0.2794
  446MOL0    Cl58784   1.530  10.851   4.131  0.2583 -0.1429 -0.5595
  446MOL0     C58785   2.561  10.500   4.488 -0.0927 -1.1750  0.5459
  446MOL0     C58786   2.698  10.467   4.464  0.3360  0.4759 -0.1155
  446MOL0     O58787   2.984  10.398   4.508  0.0580 -0.5228 -0.0728
  446MOL0     C58788   3.222  10.349   4.403 -0.8227 -0.6722  0.4101
  446MOL0     C58789   3.348  10.336   4.344 -0.2642  0.2312 -0.0473
  446MOL0     N58790   3.878   9.862   4.006  0.3822  0.0608  0.0171
  446MOL0     N58791   3.927   9.751   3.970 -0.6228  0.0795 -0.0591
  446MOL0     C58792   4.936   9.383   3.655 -0.4024 -0.3035  0.9691
  446MOL0     C58793   5.077   9.356   3.642 -0.2529 -0.0018 -0.5200
  446MOL0     C58794   5.491   9.192   3.567 -0.0138  0.1981  0.1729
  446MOL0     C58795   5.510   9.053   3.598 -0.0871 -0.2648  0.3174
  446MOL0     C58796   5.625   8.984   3.576 -0.1649 -0.4618  0.1606
  446MOL0     C58797   5.735   9.053   3.530 -0.3967  1.2212 -0.2017
  446MOL0     O58798   5.843   8.971   3.521 -0.9921  0.3509 -0.0923
  446MOL0     C58799   5.900   8.949   3.390 -0.0553 -0.4539  0.4221
  446MOL0     C58800   5.802   8.878   3.293 -0.4164 -0.5849 -0.3541
  446MOL0     C58801   5.864   8.811   3.166  0.1688 -0.5128 -0.2251
  446MOL0     C58802   5.957   8.900   3.075  0.0866  1.1637 -0.8362
  446MOL0     C58803   6.091   8.927   3.133  0.5386 -1.6163  0.2275
  446MOL0     C58804   6.193   8.958   3.184 -0.0519  0.1503 -0.3635
  446MOL0     C58805   5.727   9.187   3.496  0.1513  0.1008 -0.0780
  446MOL0     C58806   5.602   9.257   3.505 -0.8669 -0.0982  0.2309
  446MOL0     H58807   5.062   9.011   3.613 -2.7270 -1.4440 -0.8138
  446MOL0     H58808   4.828   9.066   3.621  0.8421  0.7809 -1.2215
  446MOL0     H58809   4.624   9.135   3.724 -0.3531 -0.3512 -0.6602
  446MOL0     H58810   4.632   9.163   3.550 -0.6752  2.4768 -1.3189
  446MOL0     H58811   4.433   9.274   3.737 -0.2070  1.5044 -0.1113
  446MOL0     H58812   4.405   9.202   3.581  1.0937 -1.2708 -0.0719
  446MOL0     H58813   4.526   9.408   3.481 -1.9260  5.1202  0.0808
  446MOL0     H58814   4.529   9.476   3.638  1.4305  2.3420 -1.4577
  446MOL0     H58815   4.351   9.533   3.459  0.3018  0.0100  0.2147
  446MOL0     H58816   4.289   9.368   3.488 -0.0337 -0.0128  0.8110
  446MOL0     H58817   4.240   9.458   3.740 -0.1720  0.6731  1.4083
  446MOL0     H58818   4.139   9.498   3.605 -1.2536  2.7636  0.9641
  446MOL0     H58819   4.265   9.728   3.604  0.8030  2.1598  1.8021
  446MOL0     H58820   4.366   9.650   3.738  0.1893  1.6884 -0.2504
  446MOL0     H58821   4.217   9.680   3.894  0.6108  1.6445  0.8335
  446MOL0     H58822   4.202   9.824   3.798  2.7515 -0.4057 -2.1987
  446MOL0     H58823   4.011   9.577   3.785 -4.7257  2.5056  3.6120
  446MOL0     H58824   4.032   9.700   3.654  0.0519 -0.0154 -0.3502
  446MOL0     H58825   3.937   9.932   3.696 -1.7032  0.2858  0.1348
  446MOL0     H58826   3.820  10.139   3.823 -0.6120 -0.1079 -0.3236
  446MOL0     H58827   3.902  10.129   3.990 -1.8035 -0.4182  2.1075
  446MOL0     H58828   3.666  10.016   4.049 -0.0134 -1.1217 -1.9714
  446MOL0     H58829   3.602  10.151   3.943  0.1729  0.1177 -0.5507
  446MOL0     H58830   3.790  10.198   4.170 -0.3392 -0.2312 -0.9165
  446MOL0     H58831   3.741  10.307   4.038  1.8491 -0.9359 -0.2328
  446MOL0     H58832   3.609  10.347   4.250 -0.5790  2.2500 -2.7050
  446MOL0     H58833   3.575  10.179   4.265 -0.3718  0.9663 -0.1660
  446MOL0     H58834   3.229  10.330   4.019 -1.1325 -4.4203  0.1551
  446MOL0     H58835   3.020  10.348   4.126  0.8169  2.1228 -1.6566
  446MOL0     H58836   2.646  10.310   4.163  1.2427 -0.7488  0.7874
  446MOL0     H58837   2.401  10.356   4.231  2.5172 -1.9863 -0.7484
  446MOL0     H58838   2.262  10.358   4.589  1.1483 -2.3868 -1.5888
  446MOL0     H58839   2.236  10.299   4.431 -2.7735 -0.5163 -0.7036
  446MOL0     H58840   2.105  10.541   4.563  0.7098  0.4846 -0.3539
  446MOL0     H58841   2.043  10.370   4.534  1.3718 -1.7161 -0.8231
  446MOL0     H58842   2.080  10.415   4.289  2.6125  0.4251 -1.3285
  446MOL0     H58843   2.133  10.579   4.326  0.6823  0.3390  2.2236
  446MOL0     H58844   1.851  10.495   4.403 -1.1817  0.3186 -0.5300
  446MOL0     H58845   1.927  10.646   4.429 -2.2012  0.6319 -1.4688
  446MOL0     H58846   1.890  10.502   4.154 -2.0792 -1.8002  2.2310
  446MOL0     H58847   1.929  10.682   4.170 -0.7389  0.8361  0.0268
  446MOL0     H58848   1.708  10.720   4.262  1.6547 -1.0699  1.9735
  446MOL0     H58849   1.665  10.546   4.239  0.0067  0.2373  2.3454
  446MOL0     H58850   1.754  10.732   4.008  0.4561 -0.8949 -1.7864
  446MOL0     H58851   1.705  10.563   3.995  0.2200 -0.8818  1.5254
  446MOL0     H58852   1.458  10.644   4.074 -0.6354  0.4094  0.7874
  446MOL0     H58853   1.531  10.729   3.936  2.2241  0.3010 -0.2394
  446MOL0     H58854   2.539  10.562   4.574 -1.3880 -1.7622  0.6513
  446MOL0     H58855   2.772  10.507   4.533 -0.6435 -1.5619  2.2620
  446MOL0     H58856   3.220  10.359   4.511 -2.1697 -1.1093  0.4414
  446MOL0     H58857   3.441  10.351   4.398  1.2275 -0.6085 -2.2199
  446MOL0     H58858   4.888   9.478   3.675 -1.8213 -0.9337  0.6787
  446MOL0     H58859   5.143   9.442   3.633 -1.6230  1.1896  0.4013
  446MOL0     H58860   5.428   9.009   3.654 -2.3504  2.9967 -0.1141
  446MOL0     H58861   5.627   8.878   3.598  2.8652 -0.9803 -2.0077
  446MOL0     H58862   5.991   8.889   3.397  1.0328  1.0637 -0.3722
  446MOL0     H58863   5.934   9.040   3.341  0.7778 -1.8491 -1.7766
  446MOL0     H58864   5.758   8.793   3.347  0.6718 -0.8587  0.1347
  446MOL0     H58865   5.732   8.954   3.258  0.1915  0.0533 -0.2267
  446MOL0     H58866   5.782   8.783   3.100 -1.0800 -1.4648  1.6526
  446MOL0     H58867   5.918   8.718   3.187  0.5659 -0.0632  0.8380
  446MOL0     H58868   5.970   8.835   2.988 -2.4973  0.4468 -0.7549
  446MOL0     H58869   5.912   8.996   3.048 -1.1130  1.2562  1.2882
  446MOL0     H58870   6.282   8.980   3.239 -2.4265  2.9775  2.7008
  446MOL0     H58871   5.817   9.228   3.450 -0.7492  1.6523 -0.5436
  446MOL0     H58872   5.613   9.360   3.475  2.7482 -1.0201 -2.2867
  447MOL0     O58873   6.062   1.288   8.504 -0.5339 -0.1473  1.1593
  447MOL0     C58874   6.112   1.358   8.592  0.1325  0.5201  0.1636
  447MOL0     O58875   6.047   1.442   8.681 -0.5242 -0.3493 -0.3407
  447MOL0     C58876   5.915   1.460   8.667  1.2713  0.4063 -0.2107
  447MOL0     C58877   5.846   1.505   8.553 -0.1600 -0.8404 -0.3462
  447MOL0     C58878   5.708   1.529   8.547 -0.5218  0.3907 -0.7667
  447MOL0     C58879   5.636   1.504   8.665 -0.3507  0.1342 -0.1717
  447MOL0     O58880   5.499   1.520   8.674  0.4499 -0.6347  0.9727
  447MOL0     C58881   5.433   1.560   8.556 -0.3684  0.2865  0.4221
  447MOL0     C58882   5.289   1.606   8.591  0.3943 -0.1811 -0.1239
  447MOL0     C58883   5.211   1.637   8.460 -0.7690  0.9310 -0.2348
  447MOL0     C58884   5.072   1.677   8.497  0.6926  0.4886  0.0901
  447MOL0     C58885   4.960   1.658   8.384 -0.9998  0.0658 -0.6632
  447MOL0     C58886   4.823   1.717   8.419  0.3006 -0.0834 -0.1990
  447MOL0     C58887   4.823   1.864   8.458 -0.5749 -0.7268  0.0976
  447MOL0     C58888   4.896   1.964   8.358  0.1470 -0.2244 -0.8088
  447MOL0     N58889   4.842   2.096   8.375 -0.1821 -0.4090  1.2885
  447MOL0     C58890   4.786   2.165   8.270 -0.3461 -0.5687 -0.1024
  447MOL0     C58891   4.758   2.287   8.331  0.6347 -0.9667 -0.2862
  447MOL0     C58892   4.678   2.386   8.261  0.9321  0.2749  0.6952
  447MOL0     C58893   4.754   2.465   8.157  0.0297  0.2889  0.0205
  447MOL0     C58894   4.844   2.577   8.217  0.4190  0.1645  0.5978
  447MOL0     C58895   4.983   2.528   8.267 -0.2974 -0.3648  0.6137
  447MOL0     O58896   5.052   2.468   8.155 -0.0726 -0.2318 -0.8128
  447MOL0     C58897   5.183   2.425   8.161 -0.9344 -0.3170  0.6883
  447MOL0     C58898   5.249   2.374   8.045 -0.0559  0.0028 -0.4165
  447MOL0     C58899   5.374   2.326   8.057  0.1332 -0.9764  0.0878
  447MOL0     C58900   5.446   2.327   8.171 -0.0720 -0.6072  0.8974
  447MOL0     C58901   5.577   2.276   8.160 -0.1022 -0.2941 -0.0247
  447MOL0     O58902   5.620   2.207   8.054  0.5017  0.1155  0.0112
  447MOL0     C58903   5.748   2.173   8.033 -0.6504 -0.0710  0.1168
  447MOL0     C58904   5.856   2.158   8.130  0.6389  0.1806 -0.0367
  447MOL0     C58905   5.985   2.112   8.090 -0.4243  0.3663 -0.8907
  447MOL0     C58906   6.014   2.088   7.959  0.4874 -0.3536  0.4632
  447MOL0     O58907   6.138   2.047   7.924 -0.0994  0.2882  0.3401
  447MOL0     C58908   6.166   1.923   7.991  0.3884  0.4636  0.1690
  447MOL0     C58909   6.295   1.854   7.939  0.9541 -0.8057  0.5331
  447MOL0     C58910   6.420   1.944   7.961 -0.1243  0.0962 -0.1188
  447MOL0     C58911   6.557   1.854   7.931  1.0323 -0.5591  0.2406
  447MOL0     C58912   6.686   1.940   7.937  0.1446  0.1613  0.3741
  447MOL0     C58913   6.683   2.056   7.834  0.3085  0.9980 -0.8774
  447MOL0     C58914   6.822   2.111   7.817  0.0163  0.6093  0.4922
  447MOL0     C58915   6.845   2.165   7.671 -0.5452  0.0444  0.5067
  447MOL0    Cl58916   6.708   2.278   7.633  0.1736  0.2253 -0.1646
  447MOL0     C58917   5.913   2.119   7.857 -0.3166 -0.7262  0.1433
  447MOL0     C58918   5.786   2.147   7.897  0.8443 -0.9040  0.1729
  447MOL0     O58919   5.652   2.321   8.248  0.1891 -0.2219  0.3088
  447MOL0     C58920   5.386   2.377   8.283  0.4995 -0.0817  0.0230
  447MOL0     C58921   5.251   2.428   8.279 -0.0723 -0.0396  0.6590
  447MOL0     N58922   4.785   2.277   8.467 -0.1193 -0.5770  0.6460
  447MOL0     N58923   4.832   2.162   8.490 -0.3574  0.1514  0.6123
  447MOL0     C58924   5.701   1.456   8.778  0.6723  0.2888 -0.7638
  447MOL0     C58925   5.843   1.443   8.783 -0.2260  0.5762 -1.0294
  447MOL0     C58926   6.259   1.341   8.607  0.0292 -0.4657  0.6422
  447MOL0     C58927   6.327   1.407   8.715  0.6432 -0.8190  0.3790
  447MOL0     C58928   6.464   1.409   8.732 -0.3108 -0.4622  0.6771
  447MOL0     C58929   6.541   1.342   8.634 -0.1405  0.4259 -0.3068
  447MOL0     O58930   6.669   1.317   8.624 -0.7294  0.2101  0.1599
  447MOL0     C58931   6.755   1.386   8.713 -0.0155 -1.0150 -0.2746
  447MOL0     C58932   6.881   1.298   8.694 -0.1601  1.1675  0.0044
  447MOL0     C58933   6.944   1.338   8.562 -0.0803  0.0849 -0.1468
  447MOL0     C58934   7.064   1.237   8.538 -0.3410  0.1096  1.5125
  447MOL0     C58935   7.145   1.274   8.425  0.6171  0.3968  0.5345
  447MOL0     C58936   7.212   1.300   8.335  0.1120  0.2516  0.7072
  447MOL0     C58937   6.477   1.269   8.528 -0.2432 -0.1815  0.3289
  447MOL0     C58938   6.334   1.267   8.515  1.0759 -0.1169  0.3156
  447MOL0     H58939   5.905   1.534   8.466  1.1584 -0.5317  0.6178
  447MOL0     H58940   5.667   1.566   8.454 -0.5186  0.3031 -0.8039
  447MOL0     H58941   5.427   1.463   8.504  1.9635 -0.0665  0.7194
  447MOL0     H58942   5.484   1.626   8.486  3.0583 -2.2473  0.2750
  447MOL0     H58943   5.275   1.698   8.649 -1.6349 -1.2252  1.1378
  447MOL0     H58944   5.235   1.531   8.649  0.4791 -0.9935 -1.0671
  447MOL0     H58945   5.211   1.540   8.410  1.0148  1.8496 -2.1541
  447MOL0     H58946   5.269   1.705   8.398  1.7348 -1.1668 -0.3708
  447MOL0     H58947   5.033   1.610   8.574  0.2545 -0.5292 -0.9975
  447MOL0     H58948   5.080   1.782   8.529 -0.9078 -0.2549  3.4461
  447MOL0     H58949   4.950   1.551   8.366  3.7692 -1.3125  2.6385
  447MOL0     H58950   4.994   1.689   8.285 -2.3101 -1.3982 -1.6082
  447MOL0     H58951   4.765   1.656   8.489 -2.5470  0.7578 -1.6526
  447MOL0     H58952   4.761   1.717   8.328 -0.0451  0.2677  0.0381
  447MOL0     H58953   4.718   1.892   8.450 -0.0812  0.7685 -2.0261
  447MOL0     H58954   4.850   1.887   8.562 -0.7888  0.1905 -0.0422
  447MOL0     H58955   4.897   1.931   8.254 -1.4632 -0.3831 -0.8061
  447MOL0     H58956   5.002   1.967   8.384  0.1985  0.9913 -1.1158
  447MOL0     H58957   4.783   2.148   8.163  0.6075 -2.0908  0.0862
  447MOL0     H58958   4.631   2.458   8.328 -3.0107 -1.0519 -0.4058
  447MOL0     H58959   4.600   2.334   8.206  1.3866  0.0936  0.2200
  447MOL0     H58960   4.676   2.503   8.091  0.0237 -1.5424 -1.0911
  447MOL0     H58961   4.813   2.410   8.083  0.5044  0.6977  0.0934
  447MOL0     H58962   4.851   2.645   8.132 -2.9183 -1.9822 -1.6060
  447MOL0     H58963   4.807   2.636   8.301  2.2145  2.1271  0.1227
  447MOL0     H58964   4.964   2.462   8.351 -0.1291 -0.1395  0.8301
  447MOL0     H58965   5.041   2.614   8.303 -2.0853  1.9819 -1.7555
  447MOL0     H58966   5.194   2.388   7.953 -4.3371  2.3045  2.1380
  447MOL0     H58967   5.419   2.298   7.962  1.1736  3.0428 -0.7924
  447MOL0     H58968   5.838   2.167   8.237  0.0609  0.0233 -0.1173
  447MOL0     H58969   6.053   2.110   8.174 -0.0421  1.3481 -1.1690
  447MOL0     H58970   6.085   1.854   7.965 -0.4331  1.6844 -0.6857
  447MOL0     H58971   6.177   1.931   8.099  5.1924 -0.3948 -0.0574
  447MOL0     H58972   6.278   1.848   7.831  0.3799 -1.4773  0.6484
  447MOL0     H58973   6.314   1.754   7.980  0.8032 -0.5809  1.1623
  447MOL0     H58974   6.416   1.973   8.067  0.6967 -2.6256  0.7521
  447MOL0     H58975   6.415   2.035   7.901  0.0758 -1.3231 -2.4013
  447MOL0     H58976   6.573   1.777   8.007 -0.3444  0.2656  1.4121
  447MOL0     H58977   6.538   1.801   7.837  0.2956 -2.3762  1.3725
  447MOL0     H58978   6.774   1.878   7.924  0.4513  1.0124 -2.2658
  447MOL0     H58979   6.705   1.982   8.036 -1.9421  1.0818  0.4492
  447MOL0     H58980   6.612   2.134   7.861  0.4617  0.0983  2.6060
  447MOL0     H58981   6.657   2.016   7.735 -1.1637 -2.0950  0.6196
  447MOL0     H58982   6.841   2.184   7.897  1.6883 -1.7237  2.3816
  447MOL0     H58983   6.899   2.033   7.825 -0.5382  0.2249  2.6730
  447MOL0     H58984   6.839   2.076   7.607  0.2211 -1.4007  2.3524
  447MOL0     H58985   6.941   2.217   7.656  0.0180 -1.3411 -0.9972
  447MOL0     H58986   5.937   2.109   7.752 -0.0132  1.0796  0.0015
  447MOL0     H58987   5.705   2.169   7.828  0.6081  1.9563  1.2243
  447MOL0     H58988   5.439   2.384   8.377 -1.1593 -3.6750  1.4147
  447MOL0     H58989   5.201   2.461   8.370 -0.7923  0.4400  0.0985
  447MOL0     H58990   5.633   1.455   8.862 -0.9806 -3.1787 -1.9327
  447MOL0     H58991   5.904   1.425   8.871 -0.2214  0.0879 -1.1248
  447MOL0     H58992   6.288   1.476   8.789  4.2468  2.1638 -0.2343
  447MOL0     H58993   6.496   1.467   8.818 -0.3976  0.9429 -0.2015
  447MOL0     H58994   6.731   1.380   8.819  5.7110 -1.8127  1.3185
  447MOL0     H58995   6.763   1.491   8.685 -0.6793 -1.7887 -3.9290
  447MOL0     H58996   6.959   1.320   8.768  0.0315  0.8793 -0.1075
  447MOL0     H58997   6.848   1.194   8.699  1.5149  0.3470 -3.0608
  447MOL0     H58998   7.000   1.432   8.564 -0.9937  0.8099 -3.2736
  447MOL0     H58999   6.877   1.345   8.477 -2.5296 -0.6083  1.6120
  447MOL0     H59000   7.124   1.228   8.628  0.4190  0.3718  1.0422
  447MOL0     H59001   7.031   1.136   8.515  2.5080 -1.1691  2.6651
  447MOL0     H59002   7.272   1.317   8.247 -1.2167  1.9866  0.0901
  447MOL0     H59003   6.537   1.211   8.459 -0.9001  0.5438 -0.8969
  447MOL0     H59004   6.291   1.213   8.431  1.5669 -0.5696  0.3499
  448MOL0     O59005   8.889  11.034   9.723  0.4880 -0.4984  0.1428
  448MOL0     C59006   8.936  10.937   9.784 -0.0493 -0.0695  0.1589
  448MOL0     O59007   8.866  10.831   9.828  0.3977  0.6715 -0.0488
  448MOL0     C59008   8.731  10.849   9.830  0.3032 -0.4567 -0.7384
  448MOL0     C59009   8.655  10.793   9.734  0.5067 -0.5315 -0.3049
  448MOL0     C59010   8.513  10.787   9.748 -0.2556  0.3018  0.1471
  448MOL0     C59011   8.450  10.842   9.857  0.1651 -0.4283 -0.8982
  448MOL0     O59012   8.319  10.850   9.872  0.4100  0.1344 -0.1186
  448MOL0     C59013   8.231  10.820   9.763  0.4265 -0.2506 -0.7078
  448MOL0     C59014   8.084  10.824   9.798 -0.3027 -0.0929 -0.7483
  448MOL0     C59015   8.002  10.767   9.692 -0.2578 -0.1018  0.7153
  448MOL0     C59016   7.857  10.745   9.747  0.9879 -0.3286  0.4673
  448MOL0     C59017   7.754  10.704   9.631  0.9614  1.0684 -0.5007
  448MOL0     C59018   7.611  10.685   9.687 -0.1890 -0.2767 -0.9888
  448MOL0     C59019   7.513  10.658   9.562  0.3366  0.3584 -0.8451
  448MOL0     C59020   7.382  10.593   9.609 -1.0248 -0.5518  0.4214
  448MOL0     N59021   7.291  10.687   9.673  0.3883 -0.1762  0.3645
  448MOL0     C59022   7.207  10.769   9.602  0.4795 -0.3296  0.3663
  448MOL0     C59023   7.126  10.836   9.694  0.1952  0.5951 -0.4325
  448MOL0     C59024   7.018  10.937   9.684  0.9642  1.1047  0.4467
  448MOL0     C59025   6.904  10.891   9.595  0.5892 -0.8268  0.4168
  448MOL0     C59026   6.839  10.759   9.648  0.0375 -0.7669 -0.1087
  448MOL0     C59027   6.710  10.714   9.581  0.1422 -0.8294  0.0159
  448MOL0     O59028   6.607  10.812   9.601  0.0485  0.6815 -0.0873
  448MOL0     C59029   6.481  10.791   9.548  0.1574 -0.4658  0.9207
  448MOL0     C59030   6.386  10.888   9.571 -0.9149  0.2732  0.0507
  448MOL0     C59031   6.256  10.881   9.513 -0.2285 -0.2344  0.0977
  448MOL0     C59032   6.212  10.765   9.449 -0.0802  0.1190  0.6335
  448MOL0     C59033   6.074  10.750   9.405 -1.0035  0.4762 -0.3103
  448MOL0     O59034   5.987  10.838   9.474 -1.2243  0.5704 -0.4659
  448MOL0     C59035   5.860  10.844   9.444  0.0243 -0.1045 -0.1443
  448MOL0     C59036   5.777  10.878   9.547 -0.1542 -1.0853 -0.1650
  448MOL0     C59037   5.642  10.871   9.536  0.8606 -0.1573  0.3775
  448MOL0     C59038   5.585  10.848   9.410  1.3012 -0.6256 -0.4905
  448MOL0     O59039   5.451  10.859   9.385  0.1079 -0.0905  0.4985
  448MOL0     C59040   5.365  10.738   9.426 -0.1266 -0.9443  0.3011
  448MOL0     C59041   5.214  10.785   9.435 -0.8163 -1.2625 -0.0398
  448MOL0     C59042   5.137  10.658   9.478  0.1757  0.4702 -0.3792
  448MOL0     C59043   4.993  10.686   9.463 -0.0673  0.2079 -0.3093
  448MOL0     C59044   4.904  10.575   9.516  1.2940  0.2418  0.0144
  448MOL0     C59045   4.758  10.617   9.510 -0.0763 -0.3534 -0.1849
  448MOL0     C59046   4.667  10.500   9.518  0.4431 -0.3518 -0.3215
  448MOL0     C59047   4.517  10.545   9.536  0.8015  0.5693 -0.3643
  448MOL0    Cl59048   4.436  10.588   9.379 -0.1677  0.1688  0.0285
  448MOL0     C59049   5.670  10.838   9.294  0.9470 -0.6666 -0.4025
  448MOL0     C59050   5.808  10.838   9.310 -0.8084 -1.0204  0.3783
  448MOL0     O59051   6.046  10.659   9.323  0.1503 -0.1228 -0.2644
  448MOL0     C59052   6.315  10.670   9.410 -0.6646  0.6258 -0.8912
  448MOL0     C59053   6.444  10.686   9.458 -0.0967 -0.4468 -0.2685
  448MOL0     N59054   7.171  10.790   9.816  0.0182  0.1080  0.6485
  448MOL0     N59055   7.277  10.708   9.807  0.6187  0.3755  0.4836
  448MOL0     C59056   8.526  10.899   9.954 -0.4164  1.4821  0.6249
  448MOL0     C59057   8.665  10.900   9.938 -0.6327 -0.7632 -0.1189
  448MOL0     C59058   9.087  10.943   9.800  0.4394 -0.1166  0.5219
  448MOL0     C59059   9.162  10.844   9.870 -0.4663 -0.1667  0.1106
  448MOL0     C59060   9.295  10.833   9.858  0.8226  0.2739 -0.8477
  448MOL0     C59061   9.370  10.937   9.814  0.9744  0.6253  0.4813
  448MOL0     O59062   9.507  10.941   9.824  0.7808 -0.0251 -0.0436
  448MOL0     C59063   9.573  10.889   9.929 -0.6057  0.8288 -0.2432
  448MOL0     C59064   9.686  10.983   9.981 -1.2730  0.0473 -0.9729
  448MOL0     C59065   9.640  11.122  10.023 -0.4344  0.3529  1.0050
  448MOL0     C59066   9.731  11.230   9.966  0.0226  0.2379 -0.0601
  448MOL0     C59067   9.864  11.227  10.030 -0.0832 -0.8418 -0.0249
  448MOL0     C59068   9.976  11.221  10.075 -0.0468  0.4742 -0.8532
  448MOL0     C59069   9.310  11.038   9.748  0.5820  0.2898  0.5044
  448MOL0     C59070   9.172  11.039   9.733  0.3151 -0.1481  0.2367
  448MOL0     H59071   8.704  10.750   9.647  1.1005  0.5703 -0.5307
  448MOL0     H59072   8.464  10.746   9.661 -2.6449  2.4747  0.3479
  448MOL0     H59073   8.252  10.717   9.734 -1.0311 -0.7949  0.1017
  448MOL0     H59074   8.232  10.890   9.679 -0.1159  1.3120  0.5348
  448MOL0     H59075   8.039  10.921   9.822 -2.1093 -1.2580  0.8027
  448MOL0     H59076   8.070  10.769   9.891  0.3128 -0.7920 -1.0627
  448MOL0     H59077   8.036  10.673   9.646 -0.8757  0.1314 -0.2383
  448MOL0     H59078   8.007  10.838   9.609 -1.5537 -3.5266 -2.6300
  448MOL0     H59079   7.867  10.665   9.821  0.8015 -2.2110 -1.4246
  448MOL0     H59080   7.831  10.837   9.799  0.0832  0.6449 -1.6027
  448MOL0     H59081   7.788  10.611   9.584 -0.2358 -0.3008  1.2069
  448MOL0     H59082   7.744  10.782   9.555 -2.0133  2.0662  0.7751
  448MOL0     H59083   7.588  10.780   9.738 -1.5246 -1.8109  1.4627
  448MOL0     H59084   7.621  10.607   9.763 -0.7148  1.6553  1.1955
  448MOL0     H59085   7.486  10.745   9.503  1.9774  0.6794 -1.1759
  448MOL0     H59086   7.563  10.590   9.492  3.1383  0.3199  1.0271
  448MOL0     H59087   7.406  10.511   9.677 -0.9556  0.2425  1.3760
  448MOL0     H59088   7.336  10.551   9.519  2.4556 -1.8716 -0.8903
  448MOL0     H59089   7.212  10.789   9.496  1.7171 -2.0838  0.0592
  448MOL0     H59090   7.060  11.028   9.640 -1.3551  1.0880 -2.0649
  448MOL0     H59091   6.983  10.955   9.787 -0.6775  2.4571 -0.2975
  448MOL0     H59092   6.938  10.878   9.492  2.4541  2.4607  0.4892
  448MOL0     H59093   6.828  10.970   9.598 -0.6255 -1.9736  2.0433
  448MOL0     H59094   6.918  10.688   9.624  0.8697 -0.5842  1.9024
  448MOL0     H59095   6.830  10.764   9.757  2.0386  0.6100  0.0646
  448MOL0     H59096   6.676  10.620   9.625  1.1990 -0.7433  1.0515
  448MOL0     H59097   6.727  10.700   9.474 -3.0210  0.3662 -0.7588
  448MOL0     H59098   6.425  10.980   9.614  0.6163  0.5299 -1.7259
  448MOL0     H59099   6.187  10.963   9.528 -1.8559 -1.7274  1.2245
  448MOL0     H59100   5.815  10.920   9.639  1.9061  1.1442 -1.9084
  448MOL0     H59101   5.577  10.871   9.623 -0.5986  0.8719 -0.6552
  448MOL0     H59102   5.410  10.685   9.511 -1.1055  0.9765  2.1044
  448MOL0     H59103   5.381  10.665   9.346 -1.1882  1.9557 -2.7880
  448MOL0     H59104   5.181  10.824   9.338 -0.0398 -3.2772 -1.1619
  448MOL0     H59105   5.202  10.863   9.511 -1.6980 -0.8848 -0.5439
  448MOL0     H59106   5.153  10.626   9.581 -1.8549  0.1682 -0.1119
  448MOL0     H59107   5.162  10.577   9.408  1.9143  2.0995 -1.7458
  448MOL0     H59108   4.965  10.774   9.522  1.0138 -0.2640  0.9434
  448MOL0     H59109   4.975  10.698   9.355  1.2723 -3.8094 -1.1314
  448MOL0     H59110   4.944  10.564   9.617  2.3907 -1.5299 -0.5573
  448MOL0     H59111   4.923  10.478   9.468 -1.7889  0.0930 -1.1670
  448MOL0     H59112   4.747  10.668   9.414  1.4461  0.3411 -0.0302
  448MOL0     H59113   4.735  10.693   9.585 -1.2276 -1.2543  0.4053
  448MOL0     H59114   4.671  10.445   9.423  1.2108  1.2632 -1.2819
  448MOL0     H59115   4.704  10.436   9.599 -0.6958  0.1589  0.6259
  448MOL0     H59116   4.504  10.625   9.610  0.8820 -1.1050  1.5402
  448MOL0     H59117   4.446  10.468   9.566  1.4884 -1.0499 -2.6991
  448MOL0     H59118   5.614  10.835   9.201  1.7577  1.4431 -1.0203
  448MOL0     H59119   5.869  10.818   9.222 -2.7051 -2.2574 -0.7218
  448MOL0     H59120   6.287  10.588   9.345  0.8097 -1.1143  0.6000
  448MOL0     H59121   6.519  10.607   9.453 -1.6476 -1.9452 -0.5896
  448MOL0     H59122   8.470  10.947  10.034 -4.0001 -2.1606  0.5848
  448MOL0     H59123   8.734  10.949  10.006  1.1297 -2.2069 -0.7849
  448MOL0     H59124   9.111  10.764   9.922 -0.7437 -0.3624 -0.4608
  448MOL0     H59125   9.340  10.744   9.902  3.2830  1.6955 -0.2997
  448MOL0     H59126   9.613  10.791   9.901 -1.5872 -0.3616  2.2782
  448MOL0     H59127   9.506  10.868  10.012  0.2241  0.2818  0.3070
  448MOL0     H59128   9.753  10.935  10.053 -1.1142 -1.8702 -2.3133
  448MOL0     H59129   9.742  10.997   9.888 -0.4868 -1.5878 -0.7811
  448MOL0     H59130   9.647  11.135  10.132  1.5144  3.0176  0.6348
  448MOL0     H59131   9.533  11.130   9.999 -0.0012 -0.3345 -1.3356
  448MOL0     H59132   9.743  11.216   9.859  0.6537 -0.5577  0.1000
  448MOL0     H59133   9.691  11.330   9.981 -1.3622 -0.0580 -1.5085
  448MOL0     H59134  10.079  11.229  10.105 -0.4236  2.2201  0.1120
  448MOL0     H59135   9.384  11.107   9.708  1.7049 -1.7358 -1.1176
  448MOL0     H59136   9.128  11.108   9.662 -0.3553  1.0000  1.7108
  449MOL0     O59137   2.707   2.068   9.062 -0.1229 -0.2667 -0.1982
  449MOL0     C59138   2.728   2.103   8.948  0.7231  0.3110 -0.2530
  449MOL0     O59139   2.635   2.137   8.857 -0.3596 -0.2186 -0.3905
  449MOL0     C59140   2.513   2.159   8.911  0.3334 -0.5274  0.8504
  449MOL0     C59141   2.424   2.052   8.958 -0.8698 -0.8324  0.2734
  449MOL0     C59142   2.292   2.074   8.983 -0.1809  0.0554  1.4341
  449MOL0     C59143   2.247   2.211   8.988 -0.1591  0.6824 -0.8634
  449MOL0     O59144   2.119   2.239   9.035  0.1419 -0.1064 -0.8214
  449MOL0     C59145   2.057   2.369   9.026 -0.3884  0.0681 -0.3932
  449MOL0     C59146   1.914   2.342   9.066  0.1362  0.1082  0.1855
  449MOL0     C59147   1.833   2.475   9.091  0.1440 -0.4134  0.0138
  449MOL0     C59148   1.698   2.420   9.143 -0.2171 -0.3205  0.4740
  449MOL0     C59149   1.612   2.532   9.217 -0.2084  1.2635 -1.1862
  449MOL0     C59150   1.567   2.638   9.126  0.8735 -0.4395 -0.0814
  449MOL0     C59151   1.472   2.732   9.197  0.1456 -0.9147 -0.1440
  449MOL0     C59152   1.392   2.814   9.100  0.1783  0.1853 -0.4461
  449MOL0     N59153   1.343   2.935   9.162 -1.4574  0.1818 -0.1212
  449MOL0     C59154   1.264   2.941   9.278  0.4824  0.4479  0.1413
  449MOL0     C59155   1.260   3.079   9.296  0.1016  0.1165  1.2298
  449MOL0     C59156   1.176   3.156   9.391 -1.0062 -0.2753  0.5110
  449MOL0     C59157   1.052   3.198   9.324  0.4587  0.1813  0.1260
  449MOL0     C59158   1.069   3.299   9.209  0.3130 -0.6503  0.4236
  449MOL0     C59159   1.148   3.429   9.243  0.5491 -0.3894 -0.5389
  449MOL0     O59160   1.119   3.457   9.379 -0.1985 -0.0954  0.6950
  449MOL0     C59161   0.997   3.513   9.419  0.1733  0.6428  1.1032
  449MOL0     C59162   0.962   3.498   9.558 -0.0492  0.3290 -0.0324
  449MOL0     C59163   0.838   3.546   9.601  0.0109  0.6994 -0.3073
  449MOL0     C59164   0.748   3.606   9.514  1.3140  0.3932 -0.0872
  449MOL0     C59165   0.610   3.641   9.565  0.1139  0.5735 -0.0708
  449MOL0     O59166   0.589   3.593   9.693  0.1966 -0.7082  0.1425
  449MOL0     C59167   0.460   3.599   9.738  0.5089  0.9047 -1.0157
  449MOL0     C59168   0.447   3.636   9.871 -0.0326 -0.5001  0.4019
  449MOL0     C59169   0.322   3.639   9.934  0.5097  0.8773  0.2431
  449MOL0     C59170   0.204   3.620   9.861 -0.2703  0.5701  0.2217
  449MOL0     O59171   0.087   3.627   9.929  0.0902  0.1986 -0.2814
  449MOL0     C59172  -0.038   3.610   9.860 -0.2461  0.0337 -0.6064
  449MOL0     C59173  -0.149   3.626   9.958  0.3724  0.8252  0.5946
  449MOL0     C59174  -0.158   3.497  10.053 -0.3689  0.0931 -0.4681
  449MOL0     C59175  -0.055   3.487  10.159  0.0411 -0.1710  0.0326
  449MOL0     C59176  -0.076   3.386  10.274 -0.4921 -0.0777 -0.3210
  449MOL0     C59177   0.004   3.425  10.402 -0.5407 -0.0722 -0.4597
  449MOL0     C59178  -0.045   3.330  10.508 -0.6296  0.7132  0.0245
  449MOL0     C59179  -0.040   3.395  10.651  0.2088 -0.6549  0.1072
  449MOL0    Cl59180   0.122   3.483  10.671 -0.3381  0.3081  0.1229
  449MOL0     C59181   0.213   3.571   9.729 -0.3021 -0.1793 -0.1659
  449MOL0     C59182   0.345   3.547   9.674  0.0456  0.9431 -0.5306
  449MOL0     O59183   0.529   3.704   9.498  0.3641 -0.2464  0.6482
  449MOL0     C59184   0.780   3.620   9.378  0.7105 -0.0905  0.1867
  449MOL0     C59185   0.910   3.580   9.329  0.0717 -0.2590  0.0680
  449MOL0     N59186   1.348   3.139   9.211 -0.4917  0.5433 -0.0846
  449MOL0     N59187   1.388   3.056   9.129  0.0453  0.4028  0.0974
  449MOL0     C59188   2.332   2.310   8.947 -1.2225 -0.2837 -0.4771
  449MOL0     C59189   2.463   2.287   8.909  0.7373  0.4787  0.4062
  449MOL0     C59190   2.875   2.110   8.905  0.8684 -0.3871  0.1114
  449MOL0     C59191   2.917   2.182   8.796  0.8821 -0.0685  0.1316
  449MOL0     C59192   3.055   2.202   8.762 -0.8054  0.0983  0.4596
  449MOL0     C59193   3.155   2.148   8.835  0.8523 -0.5977 -0.2789
  449MOL0     O59194   3.290   2.182   8.808 -0.0171 -0.8932 -0.6131
  449MOL0     C59195   3.326   2.186   8.664 -0.6442  0.5496 -1.1532
  449MOL0     C59196   3.482   2.223   8.645  0.4148  0.0278 -0.5700
  449MOL0     C59197   3.579   2.168   8.751  0.6285 -0.1968  0.7924
  449MOL0     C59198   3.571   2.018   8.770 -0.3314 -0.6272 -0.1899
  449MOL0     C59199   3.700   1.953   8.786 -0.1901 -0.4916 -0.0848
  449MOL0     C59200   3.796   1.884   8.811 -0.5840 -0.8582  0.4664
  449MOL0     C59201   3.119   2.069   8.944 -0.1395  0.5100  0.2592
  449MOL0     C59202   2.978   2.050   8.980 -0.5229  0.8309  0.5213
  449MOL0     H59203   2.454   1.949   8.971  0.3845 -1.1384 -3.6340
  449MOL0     H59204   2.223   1.994   9.009 -2.1642  1.7134  1.4613
  449MOL0     H59205   2.055   2.405   8.923 -2.1879  1.3403  0.0412
  449MOL0     H59206   2.110   2.445   9.084  1.6926  0.8702 -3.0946
  449MOL0     H59207   1.918   2.278   9.155  0.3979  1.5057  1.2304
  449MOL0     H59208   1.877   2.279   8.985  1.0718  0.0891 -0.2305
  449MOL0     H59209   1.820   2.530   8.998 -4.1192  0.4392  0.9391
  449MOL0     H59210   1.874   2.532   9.175  1.6592  2.5145 -2.5309
  449MOL0     H59211   1.633   2.379   9.066 -1.6829  0.8690  1.0415
  449MOL0     H59212   1.711   2.342   9.219 -2.6506  0.8028  2.1414
  449MOL0     H59213   1.664   2.583   9.299 -0.3438 -1.5305  0.7789
  449MOL0     H59214   1.523   2.492   9.266  1.8179 -1.2522  0.8197
  449MOL0     H59215   1.498   2.592   9.053  0.9145 -0.5677 -0.0399
  449MOL0     H59216   1.649   2.682   9.070 -0.0005 -0.9686 -1.8663
  449MOL0     H59217   1.412   2.679   9.272  2.6895 -2.7560  0.7547
  449MOL0     H59218   1.526   2.804   9.261 -2.4530 -1.8492  3.4065
  449MOL0     H59219   1.312   2.753   9.057 -1.7831  1.0390  1.7669
  449MOL0     H59220   1.453   2.848   9.015  1.2771  0.5550  0.4730
  449MOL0     H59221   1.201   2.862   9.317 -2.2026  1.9669 -0.8365
  449MOL0     H59222   1.237   3.238   9.430 -2.1389  0.2146  1.3196
  449MOL0     H59223   1.151   3.092   9.475 -0.1105  1.2608  2.0060
  449MOL0     H59224   0.988   3.242   9.401  4.0792  2.5925  2.0807
  449MOL0     H59225   1.004   3.117   9.269 -0.5474  1.8860 -1.6204
  449MOL0     H59226   1.112   3.250   9.121 -2.1323 -0.0282 -1.2058
  449MOL0     H59227   0.970   3.328   9.174  1.7785 -0.1493 -3.9482
  449MOL0     H59228   1.122   3.515   9.182 -1.6721  0.6865  1.7486
  449MOL0     H59229   1.256   3.413   9.226  0.5920 -0.2652 -0.3792
  449MOL0     H59230   1.031   3.440   9.617  2.4761  0.9974 -2.0969
  449MOL0     H59231   0.817   3.526   9.706 -1.9512  1.0079 -0.6095
  449MOL0     H59232   0.535   3.657   9.931 -0.9241 -1.5352  2.1663
  449MOL0     H59233   0.299   3.649  10.040 -0.4208  3.9360 -0.1535
  449MOL0     H59234  -0.041   3.515   9.805  0.3293  0.6101 -1.6726
  449MOL0     H59235  -0.044   3.695   9.792  0.9682 -0.2350 -1.0878
  449MOL0     H59236  -0.238   3.645   9.898  0.7647 -0.2460 -0.3687
  449MOL0     H59237  -0.126   3.709  10.024 -0.1470  2.1551 -0.8278
  449MOL0     H59238  -0.130   3.402  10.007  0.9082 -0.5867  1.6205
  449MOL0     H59239  -0.257   3.495  10.099 -1.4357 -2.8556 -2.5817
  449MOL0     H59240   0.046   3.472  10.119 -0.1052 -1.7641  0.1751
  449MOL0     H59241  -0.056   3.589  10.199  0.5526 -0.2804  0.3441
  449MOL0     H59242  -0.026   3.295  10.238  0.0586  1.0188 -2.4941
  449MOL0     H59243  -0.181   3.363  10.296 -0.3146  0.6570  1.4898
  449MOL0     H59244  -0.025   3.525  10.437  0.5419 -0.2418  1.0351
  449MOL0     H59245   0.110   3.428  10.374 -0.4454 -0.8776 -0.2114
  449MOL0     H59246  -0.151   3.306  10.495 -0.1352 -0.3791 -2.6630
  449MOL0     H59247   0.026   3.247  10.500  0.1726  1.4379 -0.7568
  449MOL0     H59248  -0.042   3.314  10.724  0.0724 -0.4807  0.2970
  449MOL0     H59249  -0.122   3.466  10.662 -0.4212 -1.4028  0.3508
  449MOL0     H59250   0.130   3.518   9.684 -1.3063  2.3042 -1.4252
  449MOL0     H59251   0.355   3.498   9.578  2.3617  0.0674  0.1054
  449MOL0     H59252   0.706   3.663   9.312 -0.0242 -2.1109 -0.3594
  449MOL0     H59253   0.943   3.602   9.228  1.8628 -1.5207  0.3326
  449MOL0     H59254   2.306   2.415   8.947  0.3924  0.2004  2.3420
  449MOL0     H59255   2.527   2.367   8.873  0.8879  0.1702 -0.0186
  449MOL0     H59256   2.844   2.242   8.744 -0.0611 -0.1084  1.3595
  449MOL0     H59257   3.076   2.266   8.677 -0.4986  0.9353  1.1538
  449MOL0     H59258   3.265   2.267   8.623 -1.5643  0.1335 -0.6342
  449MOL0     H59259   3.305   2.092   8.613 -1.6756  0.6103 -0.8624
  449MOL0     H59260   3.508   2.182   8.547 -0.1659 -0.1219 -0.6665
  449MOL0     H59261   3.482   2.332   8.652 -1.0927  0.0693 -0.9469
  449MOL0     H59262   3.540   2.212   8.843 -0.4048  1.3685 -0.3411
  449MOL0     H59263   3.678   2.205   8.723  0.9702  0.8387  3.1679
  449MOL0     H59264   3.511   1.998   8.860  1.5338  1.1014  1.5557
  449MOL0     H59265   3.521   1.969   8.686  0.2774 -0.5767 -0.5864
  449MOL0     H59266   3.885   1.827   8.827  1.7123  2.2323 -0.1677
  449MOL0     H59267   3.179   2.017   9.017 -3.2964 -2.2244  1.1746
  449MOL0     H59268   2.956   1.988   9.066 -0.1480 -1.4309 -0.8974
  450MOL0     O59269   5.338   1.867   8.041  0.0750  0.2479 -0.4934
  450MOL0     C59270   5.363   1.858   7.928  0.2863 -1.0929  0.5858
  450MOL0     O59271   5.267   1.879   7.830 -0.0454  0.4457 -0.2526
  450MOL0     C59272   5.140   1.918   7.863  0.0531  0.1180  0.0738
  450MOL0     C59273   5.115   2.042   7.930  0.3532 -0.2797  0.7078
  450MOL0     C59274   4.986   2.090   7.951 -0.2347 -0.0330 -0.9909
  450MOL0     C59275   4.881   2.011   7.911 -0.4821  0.4642  0.4082
  450MOL0     O59276   4.757   2.057   7.938  0.0926  0.4989  0.5004
  450MOL0     C59277   4.642   1.975   7.892 -0.4488 -0.2189 -0.4436
  450MOL0     C59278   4.520   2.070   7.911  0.0923  0.7113 -0.0030
  450MOL0     C59279   4.493   2.131   8.044  0.0465 -0.5132 -0.5235
  450MOL0     C59280   4.377   2.063   8.122 -0.2052  0.7387  0.0969
  450MOL0     C59281   4.372   2.100   8.270 -0.5184 -0.4348  0.0900
  450MOL0     C59282   4.250   2.036   8.338 -0.3985  0.3599 -0.6484
  450MOL0     C59283   4.218   2.103   8.474  0.0531 -0.4593  0.0167
  450MOL0     C59284   4.299   2.035   8.590 -0.3242 -0.9034  0.0662
  450MOL0     N59285   4.272   2.092   8.722  0.3263  0.1101 -0.3736
  450MOL0     C59286   4.196   2.031   8.820 -0.0402  0.2398 -0.3700
  450MOL0     C59287   4.224   2.101   8.929  0.5108  0.1667  0.3908
  450MOL0     C59288   4.186   2.073   9.075  0.9908 -0.0145  0.3352
  450MOL0     C59289   4.089   2.183   9.125  1.0556 -0.3431  0.0733
  450MOL0     C59290   3.938   2.154   9.075 -0.3822  0.1168 -0.3873
  450MOL0     C59291   3.840   2.257   9.134  0.5735  0.9422  0.0701
  450MOL0     O59292   3.707   2.212   9.098  0.0964 -0.0694  0.6436
  450MOL0     C59293   3.593   2.298   9.120  0.2425  0.4452 -0.3801
  450MOL0     C59294   3.600   2.425   9.153  0.3376 -0.3930 -0.5064
  450MOL0     C59295   3.477   2.495   9.174  0.5588 -0.5935  0.1578
  450MOL0     C59296   3.348   2.434   9.161  1.0446  0.0408  0.8489
  450MOL0     C59297   3.220   2.507   9.177 -0.4299 -0.6252 -0.0038
  450MOL0     O59298   3.113   2.430   9.181  0.1733 -0.0728 -0.5634
  450MOL0     C59299   2.985   2.473   9.207  0.1328  0.0330 -0.3192
  450MOL0     C59300   2.927   2.595   9.185 -0.9272 -0.4791 -0.1457
  450MOL0     C59301   2.794   2.617   9.210 -0.0474 -0.4850 -0.2569
  450MOL0     C59302   2.709   2.515   9.264 -0.1497 -0.2506 -0.5726
  450MOL0     O59303   2.577   2.534   9.282 -0.2458  0.3968 -0.1796
  450MOL0     C59304   2.504   2.631   9.210  0.2727 -0.3000 -0.1985
  450MOL0     C59305   2.348   2.609   9.230 -0.9220 -0.0839  0.0230
  450MOL0     C59306   2.274   2.739   9.203  0.7219  0.3041  0.6461
  450MOL0     C59307   2.130   2.717   9.247 -1.0652  0.4153 -0.5040
  450MOL0     C59308   2.065   2.852   9.295  0.3193 -0.4104  0.2591
  450MOL0     C59309   1.925   2.882   9.239  1.1515  0.2527 -0.1190
  450MOL0     C59310   1.886   3.032   9.226 -0.1788  0.0764  0.2687
  450MOL0     C59311   1.731   3.055   9.196 -0.3919  0.4344 -0.4041
  450MOL0    Cl59312   1.679   3.228   9.208 -0.0256  0.1696  0.1119
  450MOL0     C59313   2.769   2.399   9.305 -0.4422 -0.1216 -0.6123
  450MOL0     C59314   2.906   2.380   9.277 -0.9064 -0.2885  0.7674
  450MOL0     O59315   3.226   2.630   9.201 -0.6246 -0.5438 -0.4420
  450MOL0     C59316   3.350   2.298   9.114 -0.7904 -0.3558 -0.7437
  450MOL0     C59317   3.473   2.242   9.092  1.0968  0.8919  0.4015
  450MOL0     N59318   4.305   2.203   8.886 -0.0118 -0.5126 -0.4346
  450MOL0     N59319   4.341   2.199   8.760  1.1057 -0.2689 -0.6203
  450MOL0     C59320   4.908   1.887   7.853  0.5349 -0.8360  0.8786
  450MOL0     C59321   5.036   1.833   7.827  0.2925 -0.5807  0.9356
  450MOL0     C59322   5.501   1.831   7.884  0.6940 -0.4875  0.5146
  450MOL0     C59323   5.605   1.851   7.970 -0.4587  0.8390  0.1597
  450MOL0     C59324   5.738   1.828   7.928 -0.0207 -1.3452 -0.4387
  450MOL0     C59325   5.766   1.794   7.799 -0.8032  0.6836  0.2464
  450MOL0     O59326   5.895   1.779   7.772  0.3076 -0.1552 -0.1542
  450MOL0     C59327   5.930   1.660   7.697 -0.6856 -0.4739  0.3319
  450MOL0     C59328   5.998   1.699   7.566  0.0114  0.3386  0.0115
  450MOL0     C59329   6.139   1.765   7.585 -0.0283  0.3280 -0.1611
  450MOL0     C59330   6.124   1.915   7.606 -1.0937  0.0677 -0.3664
  450MOL0     C59331   6.255   1.986   7.582  0.2733 -0.1444 -0.2777
  450MOL0     C59332   6.356   2.047   7.544 -0.0861 -0.1557 -0.2353
  450MOL0     C59333   5.664   1.795   7.703  0.5616  0.0959  1.1454
  450MOL0     C59334   5.532   1.807   7.739 -0.2195  0.3890 -0.4153
  450MOL0     H59335   5.204   2.100   7.952  0.8634  0.1940 -2.2791
  450MOL0     H59336   4.973   2.189   7.993 -2.1276 -0.0676 -1.4197
  450MOL0     H59337   4.634   1.884   7.953 -1.1052  0.7426  0.9528
  450MOL0     H59338   4.655   1.949   7.786  0.1860  2.3914 -1.0757
  450MOL0     H59339   4.435   2.014   7.872 -0.4149  1.0787  0.5498
  450MOL0     H59340   4.548   2.148   7.840 -3.7077 -0.7510 -3.4726
  450MOL0     H59341   4.475   2.238   8.034  0.8746 -0.4176 -1.1084
  450MOL0     H59342   4.584   2.116   8.103 -1.2693 -0.3840  1.6666
  450MOL0     H59343   4.277   2.077   8.080 -0.5829 -0.8953  0.4011
  450MOL0     H59344   4.392   1.955   8.127 -3.1519  0.2850  0.5127
  450MOL0     H59345   4.378   2.209   8.276  1.0314 -0.3294 -2.1181
  450MOL0     H59346   4.462   2.069   8.325 -0.6567  1.0559  1.2182
  450MOL0     H59347   4.269   1.929   8.349 -0.5452  0.3143 -0.8266
  450MOL0     H59348   4.158   2.060   8.282 -2.4644  0.3006  2.4874
  450MOL0     H59349   4.236   2.210   8.466 -1.0116 -0.3196 -0.7052
  450MOL0     H59350   4.113   2.098   8.504 -0.0183  1.5326  0.2324
  450MOL0     H59351   4.404   2.056   8.572 -0.6243  3.4011  1.9239
  450MOL0     H59352   4.289   1.926   8.589  0.0116 -0.9434  0.5703
  450MOL0     H59353   4.142   1.937   8.826 -0.8439  0.7465  0.4506
  450MOL0     H59354   4.277   2.067   9.135  1.7202 -0.4039 -0.7881
  450MOL0     H59355   4.130   1.980   9.084 -2.6086  1.7869 -1.2679
  450MOL0     H59356   4.119   2.283   9.093 -2.3912  1.1080  0.9955
  450MOL0     H59357   4.083   2.182   9.235  2.2803  0.2600  0.1705
  450MOL0     H59358   3.932   2.147   8.966  0.0461 -0.8956 -0.3589
  450MOL0     H59359   3.909   2.055   9.113 -0.2551 -0.1366 -0.9318
  450MOL0     H59360   3.862   2.353   9.088  1.9222  1.1943  1.1811
  450MOL0     H59361   3.845   2.279   9.241 -1.4723 -1.1393  0.6829
  450MOL0     H59362   3.700   2.468   9.146 -0.4616  1.3057 -3.4600
  450MOL0     H59363   3.477   2.600   9.200  0.5925 -0.4841 -0.2651
  450MOL0     H59364   2.981   2.679   9.143  0.3149 -1.6043 -0.8845
  450MOL0     H59365   2.777   2.722   9.187  0.8580 -0.7624 -2.4352
  450MOL0     H59366   2.516   2.629   9.102 -1.6685  0.9499 -0.4834
  450MOL0     H59367   2.541   2.730   9.238 -0.6509  1.3982 -4.2625
  450MOL0     H59368   2.334   2.586   9.336 -2.1713 -0.6854 -0.2481
  450MOL0     H59369   2.318   2.519   9.177 -1.1581 -1.4385  2.3313
  450MOL0     H59370   2.272   2.773   9.099  1.6810  1.5493  1.0142
  450MOL0     H59371   2.328   2.817   9.258  1.8409  1.3581 -1.7936
  450MOL0     H59372   2.067   2.679   9.166  2.4376 -1.1288 -2.7477
  450MOL0     H59373   2.115   2.635   9.318  1.2011  1.1159  0.8802
  450MOL0     H59374   2.125   2.938   9.264  1.5018 -0.7711  1.4370
  450MOL0     H59375   2.066   2.867   9.403  1.2722 -1.8464  0.4759
  450MOL0     H59376   1.850   2.835   9.304  1.2820 -0.6637 -0.6187
  450MOL0     H59377   1.923   2.836   9.140 -1.2781 -3.2401  1.3503
  450MOL0     H59378   1.914   3.080   9.320 -0.2611  0.2947  0.1843
  450MOL0     H59379   1.949   3.072   9.146  2.4427 -2.9418  0.6083
  450MOL0     H59380   1.679   2.998   9.274 -0.2806 -2.4939 -2.3041
  450MOL0     H59381   1.700   3.017   9.098  1.9455 -0.4476 -0.8701
  450MOL0     H59382   2.705   2.331   9.360  0.0726  1.1769  1.7087
  450MOL0     H59383   2.959   2.290   9.305  1.0760  1.3659  2.7495
  450MOL0     H59384   3.261   2.243   9.083 -0.3743 -0.6244 -1.4847
  450MOL0     H59385   3.469   2.140   9.054 -0.0643  1.3940 -0.9222
  450MOL0     H59386   4.823   1.827   7.822  1.5675 -1.9608  0.1464
  450MOL0     H59387   5.051   1.739   7.775  2.6215 -0.7063  1.6885
  450MOL0     H59388   5.582   1.885   8.070 -0.5655  0.6259  0.2075
  450MOL0     H59389   5.818   1.851   7.999 -1.0181  0.6823  0.1058
  450MOL0     H59390   5.842   1.603   7.666 -0.0609  0.2243 -3.1199
  450MOL0     H59391   5.987   1.594   7.762 -0.7416 -3.1672 -2.1403
  450MOL0     H59392   6.023   1.608   7.512  4.7120  1.9623 -1.0690
  450MOL0     H59393   5.930   1.757   7.503  0.6534  0.3808 -0.6589
  450MOL0     H59394   6.201   1.760   7.495 -0.9159  1.6064 -0.8609
  450MOL0     H59395   6.192   1.705   7.660 -1.3997 -0.2831  0.3412
  450MOL0     H59396   6.052   1.962   7.538  1.8864  3.1374 -1.6875
  450MOL0     H59397   6.085   1.930   7.707 -0.3873 -3.2776  0.5299
  450MOL0     H59398   6.447   2.098   7.521  0.8069 -1.3282  0.5696
  450MOL0     H59399   5.688   1.778   7.598  0.0244  1.3252  0.8075
  450MOL0     H59400   5.460   1.807   7.658  0.2630  2.1941 -0.8937
  451MOL0     O59401   6.504   9.614   2.832  0.2930 -0.3350 -0.1409
  451MOL0     C59402   6.482   9.516   2.910  0.2003  0.1158 -0.5757
  451MOL0     O59403   6.554   9.479   3.017 -0.4674 -0.6383 -0.5248
  451MOL0     C59404   6.660   9.565   3.067  0.2504 -0.9646  0.2610
  451MOL0     C59405   6.747   9.498   3.153  0.0137 -0.0137  0.7876
  451MOL0     C59406   6.845   9.570   3.229  0.1830  0.2165 -0.2487
  451MOL0     C59407   6.872   9.699   3.205 -0.2400  0.0119  0.1180
  451MOL0     O59408   6.972   9.749   3.280  0.1733 -0.0184  0.2018
  451MOL0     C59409   7.000   9.893   3.279  0.0264  0.2267 -0.3957
  451MOL0     C59410   7.136   9.915   3.340  0.0278 -0.0164  0.1414
  451MOL0     C59411   7.156   9.928   3.494  0.1719 -0.3758  0.3394
  451MOL0     C59412   7.079   9.821   3.579 -0.1794  0.1043 -0.0236
  451MOL0     C59413   7.104   9.847   3.732 -0.9465  0.5067  0.1635
  451MOL0     C59414   7.012   9.775   3.834  0.8411  0.2572  0.0743
  451MOL0     C59415   6.986   9.859   3.958 -0.8640 -1.0656 -0.5065
  451MOL0     C59416   6.876   9.784   4.034 -0.2175  0.0553  0.5547
  451MOL0     N59417   6.826   9.847   4.162 -0.2052 -0.3274 -0.4211
  451MOL0     C59418   6.872   9.820   4.285 -0.6292  0.1985 -0.2220
  451MOL0     C59419   6.801   9.909   4.365  0.7336  1.8513  0.8281
  451MOL0     C59420   6.812   9.940   4.507 -0.3305  0.1511 -0.6929
  451MOL0     C59421   6.671   9.942   4.574 -0.0848  0.2591  0.0573
  451MOL0     C59422   6.611   9.807   4.569 -0.6428  0.0885 -0.5276
  451MOL0     C59423   6.484   9.804   4.644 -0.2212 -0.5874  0.0264
  451MOL0     O59424   6.444   9.664   4.642  0.3706 -0.6361 -0.4112
  451MOL0     C59425   6.325   9.632   4.696  1.0269  0.2585  1.0041
  451MOL0     C59426   6.308   9.491   4.723 -0.0598  0.3477 -0.0988
  451MOL0     C59427   6.195   9.446   4.784  0.4191  0.9164  0.3041
  451MOL0     C59428   6.089   9.538   4.824 -0.2934 -0.0713 -0.5039
  451MOL0     C59429   5.964   9.485   4.881  0.2881 -0.0694  0.3360
  451MOL0     O59430   5.873   9.580   4.922  0.9791 -0.1600 -0.2680
  451MOL0     C59431   5.742   9.549   4.948  0.1971 -1.1717 -0.2795
  451MOL0     C59432   5.657   9.469   4.871 -0.5294  0.3184  0.0375
  451MOL0     C59433   5.521   9.439   4.904 -0.2427  0.3078 -0.5323
  451MOL0     C59434   5.467   9.507   5.015  1.3701  0.4169  0.1007
  451MOL0     O59435   5.341   9.494   5.057  0.0605 -0.0109 -1.0940
  451MOL0     C59436   5.285   9.362   5.038 -0.1238  0.1231  0.5096
  451MOL0     C59437   5.167   9.364   5.120  0.4657  0.0777 -0.9234
  451MOL0     C59438   5.049   9.450   5.069  0.3937 -0.1350  0.0339
  451MOL0     C59439   4.917   9.445   5.158  0.0757  1.2366  0.2928
  451MOL0     C59440   4.929   9.513   5.289 -0.0578 -0.1106 -0.5506
  451MOL0     C59441   4.785   9.539   5.343 -0.1565 -0.9573 -0.0673
  451MOL0     C59442   4.786   9.622   5.472 -0.3275 -0.2929  0.1615
  451MOL0     C59443   4.675   9.718   5.505 -0.1118 -0.4163  0.9543
  451MOL0    Cl59444   4.725   9.890   5.485  0.2326  0.3660 -0.1384
  451MOL0     C59445   5.547   9.586   5.095 -0.6211 -0.0018  0.3736
  451MOL0     C59446   5.687   9.597   5.065  0.7375 -0.0877 -0.5447
  451MOL0     O59447   5.941   9.363   4.883  0.0538  0.3262 -0.6318
  451MOL0     C59448   6.114   9.676   4.803 -0.1083 -0.4647  0.9327
  451MOL0     C59449   6.230   9.717   4.746 -0.7895 -0.4948  0.4719
  451MOL0     N59450   6.711   9.982   4.281 -0.6417 -0.2415 -0.1982
  451MOL0     N59451   6.736   9.949   4.162 -0.9009  0.2690 -0.1359
  451MOL0     C59452   6.795   9.773   3.107  0.3929  0.8193  0.1598
  451MOL0     C59453   6.685   9.705   3.050  0.1665  0.8880  0.1879
  451MOL0     C59454   6.363   9.438   2.880 -0.7067  0.7014 -0.6461
  451MOL0     C59455   6.276   9.462   2.773 -0.1278 -0.1866 -1.1578
  451MOL0     C59456   6.158   9.384   2.754 -1.4400  0.0568  0.0573
  451MOL0     C59457   6.132   9.270   2.840  0.5575 -0.3113  0.1288
  451MOL0     O59458   6.035   9.181   2.808 -0.4023  0.3111  0.0895
  451MOL0     C59459   5.928   9.215   2.712  0.1322  0.4933 -0.1210
  451MOL0     C59460   5.837   9.089   2.721 -0.7422  0.0772  0.1393
  451MOL0     C59461   5.728   9.098   2.613  0.7020 -0.4182 -0.1355
  451MOL0     C59462   5.641   8.972   2.626 -0.5369 -0.3645 -0.7056
  451MOL0     C59463   5.703   8.846   2.569  0.2195  0.0321 -0.6297
  451MOL0     C59464   5.749   8.748   2.512  0.3362  0.6208 -1.0462
  451MOL0     C59465   6.225   9.247   2.937 -0.4190  0.5765 -0.8081
  451MOL0     C59466   6.336   9.324   2.963 -0.4795 -0.2583 -0.2076
  451MOL0     H59467   6.730   9.393   3.171  2.7905 -0.7266 -0.1385
  451MOL0     H59468   6.896   9.506   3.301 -0.5531  0.6404  0.6583
  451MOL0     H59469   6.922   9.948   3.333 -0.7052 -0.5323 -0.6620
  451MOL0     H59470   7.004   9.933   3.177  0.2723 -3.4298 -1.9497
  451MOL0     H59471   7.172  10.006   3.291 -1.9500  1.0811  0.5894
  451MOL0     H59472   7.198   9.829   3.316 -1.2427 -1.0039  0.2641
  451MOL0     H59473   7.116  10.028   3.517  1.3513  0.4365 -1.0004
  451MOL0     H59474   7.263   9.924   3.515  1.6182  0.1634 -5.4202
  451MOL0     H59475   6.971   9.831   3.562 -0.2081 -1.3081 -0.8731
  451MOL0     H59476   7.096   9.716   3.553  1.3419  0.1460  0.6907
  451MOL0     H59477   7.085   9.950   3.765 -5.6350 -0.0339 -0.0785
  451MOL0     H59478   7.212   9.846   3.748 -0.8171  0.2250 -0.6988
  451MOL0     H59479   7.067   9.687   3.868  1.3842  0.4422 -0.3087
  451MOL0     H59480   6.916   9.749   3.789  0.0402  0.1067  1.7990
  451MOL0     H59481   7.073   9.856   4.025 -0.9658 -0.1981 -0.3294
  451MOL0     H59482   6.956   9.960   3.930 -0.2392 -1.0492 -1.1371
  451MOL0     H59483   6.894   9.677   4.050  0.6752  0.5033  2.9368
  451MOL0     H59484   6.791   9.792   3.966  1.1862 -1.7955 -1.5893
  451MOL0     H59485   6.960   9.766   4.319  0.7460  2.7371  0.5212
  451MOL0     H59486   6.852  10.042   4.514 -0.1255  0.1884 -2.1603
  451MOL0     H59487   6.879   9.869   4.555 -0.7026 -2.1343 -3.3110
  451MOL0     H59488   6.609  10.007   4.512 -0.2492 -0.1485 -0.2085
  451MOL0     H59489   6.670   9.979   4.676  1.6731  2.1127 -0.5274
  451MOL0     H59490   6.615   9.753   4.474  1.2957  1.6512 -1.3890
  451MOL0     H59491   6.667   9.743   4.638 -0.1138  0.2576 -0.8007
  451MOL0     H59492   6.398   9.853   4.597 -0.1592 -1.0317 -0.5656
  451MOL0     H59493   6.509   9.839   4.744  3.3343  0.9611 -1.2465
  451MOL0     H59494   6.377   9.416   4.684 -1.0502 -0.8782  0.4317
  451MOL0     H59495   6.178   9.340   4.800  0.5408  1.0010  1.0037
  451MOL0     H59496   5.684   9.419   4.779 -3.3294  0.0090 -0.7193
  451MOL0     H59497   5.458   9.373   4.845 -4.5140  0.3293  3.4138
  451MOL0     H59498   5.341   9.271   5.060 -0.4787  0.0235  1.0152
  451MOL0     H59499   5.246   9.354   4.936  1.7317 -0.5224 -0.2048
  451MOL0     H59500   5.195   9.387   5.223 -1.1644 -1.6404 -0.0554
  451MOL0     H59501   5.142   9.258   5.118 -0.7544  0.3486 -1.9363
  451MOL0     H59502   5.018   9.401   4.976  1.3513 -0.7629  0.0249
  451MOL0     H59503   5.078   9.553   5.047  0.7338 -0.3235 -0.4228
  451MOL0     H59504   4.850   9.483   5.080  1.3396 -0.8511 -1.9303
  451MOL0     H59505   4.889   9.341   5.175  3.6393 -0.8216 -4.2244
  451MOL0     H59506   4.998   9.598   5.280 -0.2941 -0.1131 -3.2730
  451MOL0     H59507   4.970   9.436   5.355 -0.0876  1.0206  0.8363
  451MOL0     H59508   4.732   9.443   5.344 -2.0070  0.0013 -0.7994
  451MOL0     H59509   4.738   9.593   5.260  0.9769 -0.6797 -0.5467
  451MOL0     H59510   4.789   9.549   5.553 -3.0027  0.4480  1.0466
  451MOL0     H59511   4.878   9.681   5.474  0.1537 -0.9597 -1.0351
  451MOL0     H59512   4.640   9.715   5.608 -0.3416 -2.4396  0.8487
  451MOL0     H59513   4.589   9.706   5.439  1.5200 -0.8620 -1.1998
  451MOL0     H59514   5.505   9.640   5.180 -0.4279 -0.7338  0.9486
  451MOL0     H59515   5.755   9.652   5.129 -0.5445 -1.6456  2.2987
  451MOL0     H59516   6.033   9.748   4.809 -0.3829 -0.5951 -0.5942
  451MOL0     H59517   6.248   9.824   4.743 -2.2707 -0.1696  1.7705
  451MOL0     H59518   6.801   9.881   3.094 -1.4025  1.1358  1.5008
  451MOL0     H59519   6.614   9.768   2.998  3.6481  2.7399 -2.8589
  451MOL0     H59520   6.294   9.548   2.709  1.2603  1.0391  0.7753
  451MOL0     H59521   6.089   9.403   2.672 -0.9717 -1.9596 -0.8577
  451MOL0     H59522   5.971   9.220   2.612  1.1543 -3.3687 -0.0314
  451MOL0     H59523   5.862   9.298   2.740 -1.5205 -1.3924  1.8928
  451MOL0     H59524   5.903   9.006   2.693 -2.0195 -0.2844 -2.0231
  451MOL0     H59525   5.796   9.082   2.822  0.6104 -0.2817  0.6916
  451MOL0     H59526   5.776   9.120   2.518  2.1538 -1.3722  0.3469
  451MOL0     H59527   5.663   9.181   2.642 -1.1458 -1.1792 -1.8918
  451MOL0     H59528   5.605   8.958   2.729 -0.3038  0.4882 -0.5028
  451MOL0     H59529   5.566   9.012   2.557  2.1011  2.0915 -2.4155
  451MOL0     H59530   5.779   8.659   2.459  0.3622  0.1249 -0.2133
  451MOL0     H59531   6.213   9.150   2.984 -1.6368 -0.0309 -2.2935
  451MOL0     H59532   6.413   9.294   3.033 -1.0630  0.1019  0.6063
  452MOL0     O59533  10.920  10.352   4.036  0.1011 -0.6711  0.3914
  452MOL0     C59534  10.944  10.285   3.943 -0.4615  0.2972  0.3654
  452MOL0     O59535  10.861  10.211   3.874  0.0086 -0.5243  0.6062
  452MOL0     C59536  10.730  10.197   3.904  0.2153 -0.7169 -0.5747
  452MOL0     C59537  10.651  10.291   3.970 -0.5820 -1.2656  0.3689
  452MOL0     C59538  10.516  10.271   3.982  0.5123 -0.0706 -0.2334
  452MOL0     C59539  10.452  10.155   3.933  0.0671  0.3974 -0.3506
  452MOL0     O59540  10.320  10.159   3.948 -0.2711 -0.1167 -0.0258
  452MOL0     C59541  10.234  10.059   3.896  0.4338  0.3393  0.4668
  452MOL0     C59542  10.086  10.115   3.896  0.6055 -0.1414  0.1380
  452MOL0     C59543   9.998   9.997   3.960 -0.5555 -0.4820  0.7792
  452MOL0     C59544   9.850  10.017   3.957 -0.0874 -0.2038 -0.3205
  452MOL0     C59545   9.801  10.151   4.023 -0.4230 -0.0575  0.1962
  452MOL0     C59546   9.816  10.130   4.176 -0.0555 -0.3533 -0.4529
  452MOL0     C59547   9.761  10.250   4.242  0.4517  0.3652 -0.2052
  452MOL0     C59548   9.854  10.378   4.246  0.4477  0.0820  0.4779
  452MOL0     N59549   9.975  10.375   4.325 -0.5327 -0.0308  0.1742
  452MOL0     C59550  10.088  10.291   4.298  0.3221  0.7129 -0.2092
  452MOL0     C59551  10.181  10.320   4.399 -0.2674 -0.1285 -0.0920
  452MOL0     C59552  10.320  10.271   4.425 -0.1022  0.5177 -0.2861
  452MOL0     C59553  10.423  10.317   4.322  0.4842  0.6026  0.2043
  452MOL0     C59554  10.549  10.243   4.351 -0.3956 -0.4796  0.6185
  452MOL0     C59555  10.682  10.315   4.323  0.8443  0.4431  0.1507
  452MOL0     O59556  10.789  10.249   4.392 -0.8347 -0.0133  0.4360
  452MOL0     C59557  10.921  10.297   4.385  0.6823  1.0744  0.2921
  452MOL0     C59558  10.937  10.437   4.361  0.3936  0.5108  0.0353
  452MOL0     C59559  11.061  10.492   4.330  0.4914 -0.1973 -0.4254
  452MOL0     C59560  11.173  10.405   4.325  0.4080  0.4660 -0.1514
  452MOL0     C59561  11.304  10.448   4.277  0.4421 -0.4153 -0.8017
  452MOL0     O59562  11.412  10.357   4.279  1.3884 -0.3151 -0.3804
  452MOL0     C59563  11.527  10.372   4.208 -0.1264 -0.1710 -0.8485
  452MOL0     C59564  11.610  10.483   4.223 -0.7318  0.1726 -0.6493
  452MOL0     C59565  11.731  10.487   4.153 -0.9327  0.2285  0.7632
  452MOL0     C59566  11.780  10.388   4.083 -0.2697  0.0877  0.2020
  452MOL0     O59567  11.903  10.400   4.024 -0.1385  0.2598 -0.2177
  452MOL0     C59568  11.978  10.291   3.973 -0.0611 -0.0545  1.1708
  452MOL0     C59569  12.118  10.334   3.996  0.5270 -0.0521  0.0390
  452MOL0     C59570  12.151  10.454   3.896  0.5936  0.8738  0.0704
  452MOL0     C59571  12.291  10.505   3.893  0.6086 -0.1854 -0.1179
  452MOL0     C59572  12.377  10.402   3.824 -0.2188 -0.2676 -0.4962
  452MOL0     C59573  12.522  10.451   3.807  0.5665 -0.9216  0.7714
  452MOL0     C59574  12.615  10.359   3.728  0.2438  0.2411 -0.2453
  452MOL0     C59575  12.762  10.371   3.773 -0.4648 -0.0194  0.6418
  452MOL0    Cl59576  12.825  10.530   3.764 -0.1027  0.3713 -0.0596
  452MOL0     C59577  11.694  10.279   4.058 -0.2059 -0.8938 -0.0291
  452MOL0     C59578  11.568  10.269   4.127 -0.0374 -0.5597  0.9697
  452MOL0     O59579  11.313  10.558   4.222 -0.1071  0.3450  0.0109
  452MOL0     C59580  11.151  10.268   4.359 -0.7626 -0.6209  0.3439
  452MOL0     C59581  11.027  10.211   4.385  0.9371  0.2952  0.0616
  452MOL0     N59582  10.133  10.421   4.486 -0.2561  0.3994 -0.0187
  452MOL0     N59583  10.013  10.443   4.443  0.3033  0.7689 -0.6261
  452MOL0     C59584  10.527  10.068   3.858 -0.4233  0.8694  0.7855
  452MOL0     C59585  10.666  10.080   3.849  0.4104 -1.0900  0.4009
  452MOL0     C59586  11.092  10.281   3.904 -1.0039  0.3912 -0.5920
  452MOL0     C59587  11.142  10.182   3.819 -0.6712  0.7247  0.3639
  452MOL0     C59588  11.278  10.177   3.788  0.0352  0.6328  0.5425
  452MOL0     C59589  11.365  10.278   3.830  0.1832 -0.2667  0.2822
  452MOL0     O59590  11.496  10.291   3.807 -0.8875  0.2151  0.5211
  452MOL0     C59591  11.563  10.212   3.710 -0.3508 -0.2473  0.9774
  452MOL0     C59592  11.714  10.257   3.702 -0.7644 -0.8609 -0.1367
  452MOL0     C59593  11.797  10.205   3.584 -0.3046 -0.1058 -0.2015
  452MOL0     C59594  11.933  10.278   3.545  0.4159 -0.1898 -0.0438
  452MOL0     C59595  12.045  10.215   3.623  0.1013 -0.9118  0.0624
  452MOL0     C59596  12.127  10.156   3.685  0.3478  0.1901 -0.1476
  452MOL0     C59597  11.316  10.371   3.922  0.3366  0.4944  0.8609
  452MOL0     C59598  11.180  10.371   3.963  0.0008 -1.3310  0.1978
  452MOL0     H59599  10.691  10.386   4.001 -1.7863  0.5096 -2.9560
  452MOL0     H59600  10.458  10.350   4.029 -0.7958 -1.6127  0.8344
  452MOL0     H59601  10.235   9.972   3.963 -2.7881  0.0942  0.3588
  452MOL0     H59602  10.256  10.023   3.795 -5.0249 -3.4838  0.1986
  452MOL0     H59603  10.054  10.133   3.793  2.9027  0.9159 -0.4465
  452MOL0     H59604  10.087  10.207   3.955 -2.4899  0.6065 -0.7767
  452MOL0     H59605  10.036   9.984   4.062  0.9795  0.4113  0.3602
  452MOL0     H59606  10.018   9.906   3.904  2.1110  0.7841 -0.5435
  452MOL0     H59607   9.820  10.015   3.851 -0.2088 -2.1415 -0.2910
  452MOL0     H59608   9.808   9.929   4.007 -0.0907  1.8378  3.6071
  452MOL0     H59609   9.695  10.166   4.000 -0.9964 -1.6417  1.5715
  452MOL0     H59610   9.861  10.238   3.995  3.7680 -2.1992  1.5836
  452MOL0     H59611   9.918  10.114   4.211 -0.3768  0.1233  0.7914
  452MOL0     H59612   9.757  10.045   4.210  0.6777 -0.3933  0.7720
  452MOL0     H59613   9.663  10.284   4.208 -0.4099  0.4344  2.1762
  452MOL0     H59614   9.751  10.232   4.349  1.8020 -1.9338 -0.4090
  452MOL0     H59615   9.792  10.457   4.290 -1.8666 -1.2048 -0.2965
  452MOL0     H59616   9.874  10.393   4.140  0.6498  1.8820  0.7439
  452MOL0     H59617  10.100  10.225   4.212 -3.9671 -2.4691  1.2391
  452MOL0     H59618  10.295  10.164   4.429 -3.7120  1.2592  1.1750
  452MOL0     H59619  10.354  10.305   4.524  0.1156 -2.5562  0.8135
  452MOL0     H59620  10.449  10.423   4.324  1.4559  0.4011 -0.9024
  452MOL0     H59621  10.386  10.293   4.222 -0.4007 -0.1089  0.6831
  452MOL0     H59622  10.538  10.205   4.453 -0.6751  0.4464  0.9412
  452MOL0     H59623  10.555  10.152   4.290 -0.2778  0.2694 -0.5182
  452MOL0     H59624  10.663  10.413   4.368 -2.1339  0.4087 -0.7987
  452MOL0     H59625  10.702  10.319   4.216  2.1011  1.4193  0.4026
  452MOL0     H59626  10.856  10.509   4.367  1.2001  1.3261  2.0863
  452MOL0     H59627  11.062  10.597   4.302  0.1826  0.3832  1.6179
  452MOL0     H59628  11.563  10.557   4.286 -2.3449 -2.4041  1.3922
  452MOL0     H59629  11.795  10.574   4.161 -2.2637  1.5244 -1.4050
  452MOL0     H59630  11.961  10.260   3.870  0.4185  0.9393  0.7813
  452MOL0     H59631  11.967  10.197   4.028 -1.6123 -0.4231  0.2710
  452MOL0     H59632  12.179  10.245   3.978 -1.2256 -1.2422 -0.1572
  452MOL0     H59633  12.134  10.364   4.100  1.4373  1.4822 -0.4978
  452MOL0     H59634  12.084  10.539   3.908 -1.5867 -0.5140 -1.4712
  452MOL0     H59635  12.126  10.419   3.795  0.3908  1.7011 -0.1756
  452MOL0     H59636  12.317  10.607   3.863 -0.1384  0.3634  1.0388
  452MOL0     H59637  12.307  10.510   4.001  0.6646 -0.1349 -0.1282
  452MOL0     H59638  12.342  10.380   3.723  0.5366  0.6973 -0.9834
  452MOL0     H59639  12.371  10.310   3.882 -0.9478 -0.2486 -0.5301
  452MOL0     H59640  12.554  10.465   3.911 -3.4592 -0.8726  2.1781
  452MOL0     H59641  12.532  10.543   3.749 -0.8612 -1.3146 -0.1428
  452MOL0     H59642  12.580  10.256   3.739  0.4957  0.0885 -0.8151
  452MOL0     H59643  12.606  10.385   3.622 -1.2873 -0.3622 -0.2786
  452MOL0     H59644  12.822  10.300   3.715  0.7389  1.2764  0.2275
  452MOL0     H59645  12.760  10.349   3.880  1.9782  1.5573  1.0829
  452MOL0     H59646  11.728  10.197   3.995  3.5770  0.1084  0.4741
  452MOL0     H59647  11.500  10.187   4.107 -0.5360  0.0903 -0.0802
  452MOL0     H59648  11.226  10.190   4.353 -1.4645 -1.3368  0.6325
  452MOL0     H59649  11.013  10.104   4.395 -0.1079  0.0368 -3.1797
  452MOL0     H59650  10.481   9.975   3.826 -0.9254  0.8233  1.6108
  452MOL0     H59651  10.738  10.010   3.805  2.7877  0.4647  1.6204
  452MOL0     H59652  11.061  10.123   3.778  2.0219 -2.3322 -0.9511
  452MOL0     H59653  11.323  10.101   3.726  1.0560  1.2031  0.5566
  452MOL0     H59654  11.525  10.230   3.609 -0.5317  1.5512  1.3303
  452MOL0     H59655  11.562  10.106   3.736 -0.4080 -0.3201  0.6872
  452MOL0     H59656  11.705  10.365   3.687  0.5750 -0.9038 -1.4891
  452MOL0     H59657  11.764  10.222   3.793 -2.1772 -1.1203  0.5664
  452MOL0     H59658  11.727  10.229   3.504 -0.3983  3.1994  0.7357
  452MOL0     H59659  11.814  10.097   3.595  2.9772  0.3976  0.6234
  452MOL0     H59660  11.955  10.281   3.438  0.4493  2.2666 -0.0099
  452MOL0     H59661  11.913  10.382   3.571 -1.8418  0.0020 -2.1756
  452MOL0     H59662  12.195  10.119   3.759 -1.6642  2.6551  3.2314
  452MOL0     H59663  11.390  10.443   3.957  2.2620 -0.3635 -1.1306
  452MOL0     H59664  11.140  10.452   4.023  0.7885  0.7011 -1.8652
  453MOL0     O59665  11.191   8.207   7.321  0.3373  0.0457 -0.4290
  453MOL0     C59666  11.249   8.297   7.367  0.0407  0.0960 -1.0410
  453MOL0     O59667  11.195   8.387   7.458  0.8032 -0.3924 -0.0299
  453MOL0     C59668  11.059   8.412   7.470  0.0974  0.7145  0.2180
  453MOL0     C59669  11.008   8.461   7.590 -0.5974  0.0816 -0.2394
  453MOL0     C59670  10.873   8.491   7.589 -0.6590 -0.5477  1.1342
  453MOL0     C59671  10.792   8.477   7.477  0.1644 -0.7929 -0.2179
  453MOL0     O59672  10.667   8.506   7.497  0.0032 -0.4004  0.4306
  453MOL0     C59673  10.568   8.406   7.449 -0.4606 -0.3863  0.5306
  453MOL0     C59674  10.434   8.461   7.421  0.1730 -0.1872 -0.0163
  453MOL0     C59675  10.319   8.387   7.493 -0.9035 -0.3605  0.7429
  453MOL0     C59676  10.202   8.478   7.485  1.1955 -0.4456  0.2806
  453MOL0     C59677  10.078   8.413   7.546 -0.6670  0.3304  0.2460
  453MOL0     C59678  10.093   8.390   7.699  0.0001 -0.3890  0.4919
  453MOL0     C59679   9.954   8.340   7.759  0.0370 -0.7192 -0.0211
  453MOL0     C59680   9.973   8.262   7.893 -0.5727 -0.1864 -0.4385
  453MOL0     N59681   9.856   8.195   7.945  0.0503 -0.2242  0.6104
  453MOL0     C59682   9.800   8.081   7.885  0.3216  0.0152  0.0570
  453MOL0     C59683   9.695   8.048   7.962  0.0736  1.2131 -0.2412
  453MOL0     C59684   9.599   7.934   7.929 -2.1731 -0.1549  0.0565
  453MOL0     C59685   9.468   7.942   7.999 -0.4675  1.1541 -0.0319
  453MOL0     C59686   9.384   8.063   7.954  0.0534 -0.2226  0.3327
  453MOL0     C59687   9.246   8.066   8.014 -0.0888 -0.3481 -0.0560
  453MOL0     O59688   9.259   8.100   8.153  0.1375  0.3678 -1.0885
  453MOL0     C59689   9.157   8.163   8.219 -0.6699  0.7328 -0.8829
  453MOL0     C59690   9.174   8.182   8.360  0.2838 -0.0574 -0.2762
  453MOL0     C59691   9.080   8.248   8.431 -0.3570  0.5668 -1.1212
  453MOL0     C59692   8.961   8.288   8.384  0.3743  0.0671  0.0024
  453MOL0     C59693   8.862   8.365   8.461 -0.1774 -0.1725 -0.7051
  453MOL0     O59694   8.740   8.377   8.398  0.3081 -0.0230 -0.9029
  453MOL0     C59695   8.646   8.463   8.459  0.0267  0.0492  0.9150
  453MOL0     C59696   8.622   8.592   8.401  0.6364  0.6961  0.8192
  453MOL0     C59697   8.522   8.669   8.467  0.4895  0.3138  0.3151
  453MOL0     C59698   8.450   8.629   8.578  0.2415  0.3796  0.3850
  453MOL0     O59699   8.363   8.706   8.656  0.4676  0.3833 -0.2897
  453MOL0     C59700   8.299   8.819   8.589 -0.2019  0.4966 -1.1286
  453MOL0     C59701   8.174   8.868   8.668  0.0275 -0.1560  0.0951
  453MOL0     C59702   8.043   8.778   8.645 -0.4861  0.0492 -0.4972
  453MOL0     C59703   7.922   8.843   8.710 -0.2915 -0.0565 -1.2677
  453MOL0     C59704   7.792   8.778   8.665  0.2277 -0.5415 -0.1989
  453MOL0     C59705   7.739   8.814   8.520 -0.2302 -0.2126  0.0461
  453MOL0     C59706   7.617   8.728   8.480  0.2526  0.2606  0.3634
  453MOL0     C59707   7.580   8.742   8.326  0.0679  0.0582  0.3782
  453MOL0    Cl59708   7.422   8.667   8.285  0.1111 -0.6023 -0.3668
  453MOL0     C59709   8.471   8.503   8.623 -0.2777  0.4667  0.4228
  453MOL0     C59710   8.571   8.419   8.570  0.2661  0.0354  0.6479
  453MOL0     O59711   8.890   8.418   8.571 -0.1745  0.0038 -0.1656
  453MOL0     C59712   8.939   8.278   8.246 -0.1416  0.5044  0.1014
  453MOL0     C59713   9.032   8.206   8.163  0.2136  0.2006  0.2422
  453MOL0     N59714   9.681   8.136   8.064  0.0281 -0.3614  0.0713
  453MOL0     N59715   9.766   8.231   8.045  0.0632 -0.2289 -0.7896
  453MOL0     C59716  10.844   8.432   7.358 -0.1342  0.1773  0.3488
  453MOL0     C59717  10.980   8.394   7.357  0.2859 -0.4561  0.4344
  453MOL0     C59718  11.398   8.289   7.354  0.1810  0.1734  0.5218
  453MOL0     C59719  11.478   8.398   7.378  0.5192 -0.4625 -0.9257
  453MOL0     C59720  11.613   8.388   7.370 -0.1171  0.0629  0.3009
  453MOL0     C59721  11.671   8.269   7.325  0.1004 -0.1471 -0.4881
  453MOL0     O59722  11.810   8.257   7.319 -0.5809 -0.8929  0.0629
  453MOL0     C59723  11.884   8.332   7.417  0.0622  0.6648  0.6176
  453MOL0     C59724  12.028   8.300   7.402 -0.2335  0.2508 -0.0856
  453MOL0     C59725  12.081   8.156   7.428 -0.5648 -0.1257 -0.0670
  453MOL0     C59726  11.992   8.043   7.379  0.1386  0.6419 -0.4880
  453MOL0     C59727  12.058   7.913   7.401 -0.6239  0.4150  0.3867
  453MOL0     C59728  12.133   7.816   7.436 -0.0889 -0.6200  0.3147
  453MOL0     C59729  11.600   8.156   7.295  0.3220 -0.3270 -0.0582
  453MOL0     C59730  11.460   8.175   7.302 -0.2728 -0.4433  0.9214
  453MOL0     H59731  11.069   8.461   7.680 -0.3234  4.8883 -0.2038
  453MOL0     H59732  10.830   8.523   7.683 -0.0137 -1.5025  1.7662
  453MOL0     H59733  10.556   8.337   7.533  0.3305  1.3223  2.1032
  453MOL0     H59734  10.601   8.348   7.363  0.8701  2.2029 -0.8056
  453MOL0     H59735  10.416   8.464   7.313  2.6499 -0.7827 -0.5124
  453MOL0     H59736  10.445   8.563   7.457  1.6864 -0.3165 -0.0546
  453MOL0     H59737  10.353   8.361   7.594  1.0792 -0.4705  0.0868
  453MOL0     H59738  10.283   8.295   7.445 -1.0376 -0.5083  1.1247
  453MOL0     H59739  10.220   8.570   7.542  0.7030 -1.5799  2.3913
  453MOL0     H59740  10.166   8.508   7.386 -3.4303  0.8225  2.1083
  453MOL0     H59741  10.065   8.320   7.489  1.5566 -0.2933  0.6839
  453MOL0     H59742   9.991   8.479   7.537 -0.8061 -0.0479 -1.6655
  453MOL0     H59743  10.117   8.479   7.758 -0.6189  0.3013 -0.2759
  453MOL0     H59744  10.165   8.311   7.721 -0.0290 -0.7310 -0.5513
  453MOL0     H59745   9.889   8.426   7.780  5.7098  3.9585  0.9625
  453MOL0     H59746   9.911   8.272   7.685 -1.2991 -0.3529  0.3834
  453MOL0     H59747  10.030   8.323   7.963 -2.7631 -0.6661  1.9063
  453MOL0     H59748  10.047   8.183   7.874  0.5800  1.2989 -2.4347
  453MOL0     H59749   9.843   8.026   7.802  0.7819 -2.2260  1.6904
  453MOL0     H59750   9.641   7.835   7.949 -2.4748 -0.0855  1.1040
  453MOL0     H59751   9.575   7.926   7.822 -2.3074  1.6495 -0.0667
  453MOL0     H59752   9.487   7.958   8.105  0.6960 -1.0158  0.1246
  453MOL0     H59753   9.410   7.850   7.987  1.1674  0.1121 -0.2060
  453MOL0     H59754   9.444   8.153   7.972  2.3199 -1.6899  0.6239
  453MOL0     H59755   9.364   8.060   7.847 -1.5435 -0.4528  0.6257
  453MOL0     H59756   9.182   7.978   8.002  0.3700 -0.6409 -0.4146
  453MOL0     H59757   9.188   8.143   7.963  1.9149  1.5618  0.3976
  453MOL0     H59758   9.258   8.140   8.415  2.4955  2.0771 -1.8023
  453MOL0     H59759   9.101   8.256   8.537  0.3794 -1.0599 -1.1134
  453MOL0     H59760   8.668   8.629   8.310 -0.6220  2.4413  0.8373
  453MOL0     H59761   8.517   8.774   8.440  1.0858  0.3040  0.1394
  453MOL0     H59762   8.252   8.786   8.495  0.8132 -2.3261 -0.7505
  453MOL0     H59763   8.363   8.907   8.580  0.9934  0.0402  1.9199
  453MOL0     H59764   8.153   8.970   8.633 -2.4725  0.1063  2.0998
  453MOL0     H59765   8.196   8.868   8.775  0.9654 -0.9955 -0.0849
  453MOL0     H59766   8.060   8.677   8.682 -0.2716 -0.6937 -2.4888
  453MOL0     H59767   8.032   8.753   8.539 -1.0977 -0.6551 -0.2757
  453MOL0     H59768   7.940   8.834   8.818 -2.0105 -1.0664 -1.0343
  453MOL0     H59769   7.925   8.950   8.684  4.0167  0.2585 -0.2590
  453MOL0     H59770   7.715   8.822   8.729  0.7633  0.9475 -0.5388
  453MOL0     H59771   7.778   8.669   8.674 -1.1637 -0.5385 -1.7790
  453MOL0     H59772   7.814   8.792   8.443 -0.0301  1.4015 -0.2552
  453MOL0     H59773   7.723   8.920   8.501  0.8585  0.0154  0.3296
  453MOL0     H59774   7.635   8.623   8.507  1.6281  0.2001 -0.6708
  453MOL0     H59775   7.532   8.754   8.543  0.2753 -1.2939  1.0957
  453MOL0     H59776   7.667   8.707   8.269  1.6505  2.7648  0.9091
  453MOL0     H59777   7.579   8.850   8.307  0.4991  0.5197  2.6430
  453MOL0     H59778   8.423   8.470   8.715  1.1517  4.1717  2.7344
  453MOL0     H59779   8.566   8.315   8.599 -1.1626  0.7077  3.0364
  453MOL0     H59780   8.845   8.308   8.202 -1.6312 -0.8709  2.1779
  453MOL0     H59781   9.004   8.191   8.059 -2.0643  1.0487  0.6731
  453MOL0     H59782  10.770   8.416   7.281  0.2150 -3.2199  0.5863
  453MOL0     H59783  11.014   8.356   7.261 -0.6736 -3.1160  1.0668
  453MOL0     H59784  11.448   8.489   7.429 -3.7087 -1.7717 -0.7079
  453MOL0     H59785  11.674   8.478   7.376 -0.8657  0.6066 -0.0916
  453MOL0     H59786  11.851   8.302   7.517 -0.4075  0.9397  0.5451
  453MOL0     H59787  11.865   8.440   7.414  0.8576  0.7893 -1.0447
  453MOL0     H59788  12.044   8.322   7.297 -1.8854 -0.6472 -0.5654
  453MOL0     H59789  12.087   8.369   7.463  1.8377 -0.7692 -0.8648
  453MOL0     H59790  12.098   8.156   7.536 -1.5060  1.0678  0.1077
  453MOL0     H59791  12.182   8.156   7.387  0.3060  2.3780  1.8388
  453MOL0     H59792  11.899   8.042   7.436 -0.6607 -3.0276 -1.6096
  453MOL0     H59793  11.961   8.042   7.274 -4.8160  0.6021  0.7469
  453MOL0     H59794  12.203   7.737   7.452  0.2847 -0.8992 -2.2478
  453MOL0     H59795  11.651   8.068   7.259 -0.5492 -0.8762  0.0314
  453MOL0     H59796  11.388   8.101   7.270 -1.1281  0.2023  1.3131
  454MOL0     O59797   1.800   4.462   6.539  0.1986 -0.6248  0.7130
  454MOL0     C59798   1.808   4.509   6.425 -0.8859 -0.5733  0.1278
  454MOL0     O59799   1.702   4.541   6.342  0.7666  0.1161 -0.3866
  454MOL0     C59800   1.567   4.525   6.386  0.2220 -0.4238 -0.2505
  454MOL0     C59801   1.473   4.471   6.298 -0.3187 -0.0089  0.7881
  454MOL0     C59802   1.331   4.464   6.332  0.1410 -0.3762  0.0740
  454MOL0     C59803   1.289   4.511   6.455  0.3479  0.6755 -0.2265
  454MOL0     O59804   1.155   4.487   6.500  0.2739 -0.2117  0.1504
  454MOL0     C59805   1.068   4.416   6.422 -0.1739  0.1352  0.1615
  454MOL0     C59806   1.015   4.498   6.308 -0.7927 -0.6924  0.2735
  454MOL0     C59807   0.955   4.631   6.356  0.2662  0.1313  0.2368
  454MOL0     C59808   0.852   4.609   6.459 -0.3937  0.1488 -0.2650
  454MOL0     C59809   0.771   4.736   6.478 -0.0265 -0.7243 -0.4843
  454MOL0     C59810   0.702   4.720   6.618  0.1226 -0.3592  0.2738
  454MOL0     C59811   0.601   4.835   6.639 -0.3451 -0.4142 -0.6139
  454MOL0     C59812   0.542   4.816   6.776 -0.1755  0.3217  0.2869
  454MOL0     N59813   0.422   4.903   6.767  0.8987 -0.2073 -0.3792
  454MOL0     C59814   0.402   5.017   6.837  0.2692  0.5056  0.5609
  454MOL0     C59815   0.264   5.035   6.840 -0.6442  0.4189  0.2237
  454MOL0     C59816   0.201   5.148   6.917  0.0125 -0.3107  0.0231
  454MOL0     C59817   0.044   5.152   6.930 -0.4989 -0.3198  0.7820
  454MOL0     C59818  -0.002   5.289   6.946  0.0420  0.2833 -0.7248
  454MOL0     C59819  -0.124   5.311   7.041  0.1505  0.6771  0.9672
  454MOL0     O59820  -0.228   5.217   7.005  0.2677 -0.2208 -0.0462
  454MOL0     C59821  -0.354   5.231   7.069 -0.7229 -0.2031 -0.0425
  454MOL0     C59822  -0.456   5.177   7.003 -0.8470 -0.0344 -1.0997
  454MOL0     C59823  -0.584   5.181   7.047  0.2524  0.1982 -0.3435
  454MOL0     C59824  -0.600   5.243   7.177 -0.3016  0.4592  0.7786
  454MOL0     C59825  -0.736   5.244   7.240  0.2809  0.6921 -0.4831
  454MOL0     O59826  -0.845   5.189   7.164 -0.6171 -0.3100  0.0555
  454MOL0     C59827  -0.971   5.206   7.212 -0.9170  1.5018  0.4147
  454MOL0     C59828  -1.022   5.114   7.303 -0.5026 -0.1118  0.2614
  454MOL0     C59829  -1.158   5.112   7.346  0.2759 -0.9189 -0.3861
  454MOL0     C59830  -1.254   5.203   7.292 -0.2907  1.5185  0.5016
  454MOL0     O59831  -1.388   5.207   7.315 -0.9834  0.4662 -0.2572
  454MOL0     C59832  -1.455   5.097   7.388 -0.3006 -0.4026 -0.0839
  454MOL0     C59833  -1.588   5.074   7.317  0.5499 -0.3197 -0.4563
  454MOL0     C59834  -1.687   5.029   7.423 -0.2030  0.6771 -0.4752
  454MOL0     C59835  -1.818   5.002   7.355  0.9376  0.2294 -0.3025
  454MOL0     C59836  -1.933   5.030   7.439  0.5595 -0.0846  0.6823
  454MOL0     C59837  -2.069   5.044   7.354 -0.2595 -0.2498 -0.3141
  454MOL0     C59838  -2.181   5.100   7.445  0.1032 -0.5637 -0.3184
  454MOL0     C59839  -2.331   5.079   7.394 -0.4750  0.7800 -0.7678
  454MOL0    Cl59840  -2.361   5.192   7.259  0.4781  0.4295 -0.2408
  454MOL0     C59841  -1.201   5.288   7.190  0.4511 -0.2020 -0.1363
  454MOL0     C59842  -1.065   5.283   7.149 -0.0899 -0.5533 -0.0271
  454MOL0     O59843  -0.745   5.311   7.344 -0.3037 -0.3086  0.0750
  454MOL0     C59844  -0.494   5.313   7.237 -0.1404 -0.4665 -0.4837
  454MOL0     C59845  -0.371   5.300   7.186 -1.3454 -0.1553 -0.0954
  454MOL0     N59846   0.204   4.934   6.762 -0.0269 -0.2896  0.2273
  454MOL0     N59847   0.293   4.855   6.727  0.2280 -0.2824 -0.3457
  454MOL0     C59848   1.383   4.557   6.543 -0.8947  0.3775 -0.5460
  454MOL0     C59849   1.519   4.566   6.512 -0.0180  0.7105  0.2654
  454MOL0     C59850   1.945   4.515   6.361 -0.2342  0.5229 -0.0461
  454MOL0     C59851   2.066   4.507   6.442  0.2803 -0.2554  0.4812
  454MOL0     C59852   2.187   4.501   6.377 -1.0000 -0.0426  0.2114
  454MOL0     C59853   2.198   4.509   6.237 -0.1125  0.6619  0.3901
  454MOL0     O59854   2.315   4.474   6.177 -0.3743 -0.6301 -0.1727
  454MOL0     C59855   2.365   4.587   6.106 -0.1848 -0.2119 -0.6051
  454MOL0     C59856   2.516   4.591   6.096  0.3084 -0.1800  1.3029
  454MOL0     C59857   2.555   4.626   5.954 -0.1131  0.1896 -0.2138
  454MOL0     C59858   2.700   4.679   5.937  1.0005  0.1097 -0.8182
  454MOL0     C59859   2.811   4.582   5.968 -0.7275  0.0268  0.2282
  454MOL0     C59860   2.912   4.512   5.981  0.6032 -0.1062 -0.3551
  454MOL0     C59861   2.087   4.528   6.159  0.1078 -0.2718 -0.0942
  454MOL0     C59862   1.963   4.522   6.219  0.9765  0.6197 -0.3482
  454MOL0     H59863   1.499   4.438   6.198 -0.2792  0.3886  0.6637
  454MOL0     H59864   1.266   4.418   6.259 -1.6099  2.2307 -0.1432
  454MOL0     H59865   0.977   4.393   6.477 -0.4382  0.8361  0.0344
  454MOL0     H59866   1.128   4.330   6.391  2.5642  1.6401  0.8928
  454MOL0     H59867   0.941   4.449   6.245  1.6807 -0.9871 -2.6842
  454MOL0     H59868   1.096   4.520   6.238  0.0574 -4.9640 -0.3744
  454MOL0     H59869   0.913   4.678   6.267  2.6985  0.5945 -0.7581
  454MOL0     H59870   1.036   4.692   6.396  2.1305 -1.0795 -1.4471
  454MOL0     H59871   0.795   4.517   6.446  0.8670 -0.4106 -2.0163
  454MOL0     H59872   0.907   4.599   6.553 -1.3702 -0.1734  0.2838
  454MOL0     H59873   0.692   4.749   6.404 -1.3927  0.5190  1.0965
  454MOL0     H59874   0.840   4.821   6.486 -1.8020  0.6224  2.0520
  454MOL0     H59875   0.769   4.714   6.704 -0.5487 -1.8640  0.7184
  454MOL0     H59876   0.636   4.633   6.620 -0.3721  0.0198  0.9892
  454MOL0     H59877   0.648   4.933   6.626 -2.2943  0.3716 -2.2014
  454MOL0     H59878   0.527   4.832   6.558  3.9351  0.2320 -5.0394
  454MOL0     H59879   0.621   4.838   6.849 -2.1359 -2.7759  3.6474
  454MOL0     H59880   0.507   4.713   6.785 -1.9656  0.7862 -0.8589
  454MOL0     H59881   0.470   5.096   6.870  1.2650 -0.3605  0.6399
  454MOL0     H59882   0.225   5.237   6.859  1.0622 -1.0188 -0.6630
  454MOL0     H59883   0.253   5.156   7.013  2.1012  2.3881 -1.2286
  454MOL0     H59884   0.012   5.092   7.016  2.1070 -1.5744  1.0109
  454MOL0     H59885  -0.009   5.114   6.843  1.0492 -0.0895 -0.2996
  454MOL0     H59886   0.077   5.363   6.960  0.4674 -0.1307 -0.8771
  454MOL0     H59887  -0.037   5.313   6.845  0.0157 -0.6230 -0.9458
  454MOL0     H59888  -0.162   5.412   7.024 -3.9019 -1.0560 -1.7890
  454MOL0     H59889  -0.094   5.301   7.146  2.0338  0.4851  0.4555
  454MOL0     H59890  -0.431   5.131   6.909 -0.4350 -1.8592 -0.1375
  454MOL0     H59891  -0.659   5.119   7.000  0.8703 -1.7575  1.1099
  454MOL0     H59892  -0.956   5.040   7.347 -1.2667 -1.8366 -1.3388
  454MOL0     H59893  -1.197   5.042   7.420 -1.2701 -0.9223 -1.1545
  454MOL0     H59894  -1.471   5.116   7.495 -1.6115 -2.6318  0.1760
  454MOL0     H59895  -1.395   5.008   7.408  1.0982  0.2620 -1.1290
  454MOL0     H59896  -1.595   5.006   7.231 -7.3397 -1.3754  0.2790
  454MOL0     H59897  -1.628   5.167   7.275 -4.2332 -1.8726  0.0645
  454MOL0     H59898  -1.703   5.108   7.497  0.9982 -1.6976  2.5353
  454MOL0     H59899  -1.654   4.935   7.468 -2.9398 -0.4902 -0.7185
  454MOL0     H59900  -1.838   5.076   7.276 -0.8937 -0.0432 -0.1316
  454MOL0     H59901  -1.814   4.907   7.300  2.3362  0.9415 -1.5042
  454MOL0     H59902  -1.917   5.125   7.490  1.9333  1.2185 -1.9581
  454MOL0     H59903  -1.955   4.949   7.510  1.6822  1.0638  2.4291
  454MOL0     H59904  -2.095   4.951   7.303 -1.6848  0.6553 -1.3073
  454MOL0     H59905  -2.039   5.114   7.275  2.0203 -1.1324 -0.3075
  454MOL0     H59906  -2.171   5.058   7.545 -0.8214 -0.2021 -0.0656
  454MOL0     H59907  -2.167   5.208   7.451 -1.2802 -0.4676  2.3843
  454MOL0     H59908  -2.403   5.081   7.476 -0.0998  0.4373 -0.4219
  454MOL0     H59909  -2.331   4.978   7.352  0.0370  0.5856 -0.3060
  454MOL0     H59910  -1.271   5.357   7.144  1.6031  0.9692 -0.2107
  454MOL0     H59911  -1.037   5.363   7.081 -0.5708 -1.7626 -1.7124
  454MOL0     H59912  -0.497   5.373   7.327  0.5395 -2.0338  0.6286
  454MOL0     H59913  -0.291   5.338   7.249  0.4646 -0.3944 -2.1295
  454MOL0     H59914   1.351   4.582   6.644 -0.9893 -1.8078  0.0264
  454MOL0     H59915   1.590   4.613   6.581 -0.2655 -0.8004  1.6017
  454MOL0     H59916   2.064   4.520   6.550 -0.0791  2.0272  0.2596
  454MOL0     H59917   2.277   4.486   6.436 -1.1123 -1.1424  0.1187
  454MOL0     H59918   2.330   4.675   6.163 -3.3043 -2.7774  1.8597
  454MOL0     H59919   2.314   4.593   6.010 -0.0249  2.1287 -0.6048
  454MOL0     H59920   2.553   4.675   6.157  0.7492  1.2769 -0.8620
  454MOL0     H59921   2.564   4.496   6.121  0.2557 -0.5037  0.1980
  454MOL0     H59922   2.488   4.702   5.913 -1.4888 -1.3857 -0.9612
  454MOL0     H59923   2.531   4.537   5.895 -2.5995  0.5013  0.1993
  454MOL0     H59924   2.713   4.705   5.832  0.0461 -0.4439 -1.0901
  454MOL0     H59925   2.705   4.772   5.995  2.1474 -0.1500 -0.4733
  454MOL0     H59926   2.998   4.448   5.984 -1.2630 -2.8956 -1.5576
  454MOL0     H59927   2.097   4.516   6.051 -1.4186 -1.2205 -0.1768
  454MOL0     H59928   1.876   4.545   6.159 -0.4120  1.0679  1.7125
  455MOL0     O59929   8.367   5.188   7.997  0.2184  0.5092 -0.2328
  455MOL0     C59930   8.337   5.168   8.115 -0.2943 -0.2064  0.5092
  455MOL0     O59931   8.214   5.208   8.170 -0.6258  0.5950  0.4031
  455MOL0     C59932   8.118   5.272   8.104 -0.3971 -0.3331 -0.5658
  455MOL0     C59933   7.983   5.241   8.144  0.1676  0.5753  0.2830
  455MOL0     C59934   7.877   5.309   8.078  0.6553 -0.5634 -0.3892
  455MOL0     C59935   7.901   5.405   7.984  0.1289  0.2702  0.0489
  455MOL0     O59936   7.802   5.474   7.915 -0.6704  0.1600 -1.0613
  455MOL0     C59937   7.695   5.397   7.864 -0.2748 -1.0465  0.8987
  455MOL0     C59938   7.612   5.473   7.766  0.5079 -0.4423  0.1442
  455MOL0     C59939   7.471   5.407   7.738  0.5083  0.1213 -1.9709
  455MOL0     C59940   7.364   5.418   7.861 -0.5298  0.0487  0.0032
  455MOL0     C59941   7.236   5.345   7.831 -0.5275  0.0512 -0.7157
  455MOL0     C59942   7.141   5.451   7.770 -0.1700 -0.5548 -0.4933
  455MOL0     C59943   7.001   5.405   7.746 -0.0548  0.9607 -0.9724
  455MOL0     C59944   6.980   5.279   7.656  0.0071  0.6152  0.3177
  455MOL0     N59945   6.833   5.257   7.647 -0.0720  0.3179 -0.8967
  455MOL0     C59946   6.772   5.153   7.716 -1.5296 -0.2945 -0.1338
  455MOL0     C59947   6.648   5.167   7.701  0.7092  0.0962 -0.5602
  455MOL0     C59948   6.546   5.072   7.761 -0.6885 -0.0918  0.1192
  455MOL0     C59949   6.478   5.122   7.885  0.6181 -0.2153 -0.8087
  455MOL0     C59950   6.399   5.250   7.859  0.4309 -0.4477 -0.0012
  455MOL0     C59951   6.284   5.238   7.769 -0.5099 -0.6778  0.9158
  455MOL0     O59952   6.229   5.372   7.721  0.2038  0.3739 -0.2798
  455MOL0     C59953   6.168   5.449   7.811  0.5321  0.5242  0.8776
  455MOL0     C59954   6.108   5.405   7.928  0.0347 -0.3111  0.7682
  455MOL0     C59955   6.037   5.488   8.015  0.7723 -0.3451  0.5915
  455MOL0     C59956   6.021   5.621   7.981  0.5335  0.7969  1.1610
  455MOL0     C59957   5.933   5.704   8.070 -0.1974  0.4626  0.1806
  455MOL0     O59958   5.919   5.668   8.207  0.1606  0.8085  0.5091
  455MOL0     C59959   5.844   5.752   8.294 -0.1527  0.7636 -0.3324
  455MOL0     C59960   5.857   5.891   8.303  0.6566  0.9957  0.1869
  455MOL0     C59961   5.796   5.975   8.398 -0.2282  1.0386  0.3698
  455MOL0     C59962   5.713   5.917   8.487  0.1576 -0.8840 -0.1823
  455MOL0     O59963   5.654   5.986   8.593 -0.5053 -0.9880  0.4465
  455MOL0     C59964   5.653   6.133   8.589  0.2020  0.1329 -0.5763
  455MOL0     C59965   5.567   6.194   8.700 -0.1618 -0.0700  0.0943
  455MOL0     C59966   5.646   6.233   8.824 -0.7179  0.2438  0.5206
  455MOL0     C59967   5.707   6.101   8.872  0.2694 -0.1556 -0.8166
  455MOL0     C59968   5.804   6.138   8.994  0.4792  0.1573 -0.1272
  455MOL0     C59969   5.920   6.031   9.021  0.7155 -0.3875 -0.3923
  455MOL0     C59970   6.006   6.077   9.134 -0.5024 -0.0296  0.4230
  455MOL0     C59971   6.106   5.974   9.183  0.1604  0.3405 -0.3168
  455MOL0    Cl59972   6.025   5.822   9.251  0.2850 -0.1650  0.0831
  455MOL0     C59973   5.686   5.791   8.478 -0.1359  0.3962 -0.0298
  455MOL0     C59974   5.752   5.693   8.384  0.5247 -0.8799  0.3770
  455MOL0     O59975   5.885   5.810   8.024  0.4152  0.0754 -0.1639
  455MOL0     C59976   6.074   5.679   7.867 -0.8144  0.4615 -0.0102
  455MOL0     C59977   6.140   5.586   7.774 -0.3436 -0.0338 -0.3186
  455MOL0     N59978   6.622   5.260   7.599 -0.0331  0.1745 -0.7705
  455MOL0     N59979   6.741   5.310   7.562  0.4503 -0.2170 -0.1089
  455MOL0     C59980   8.035   5.443   7.953  1.4895 -0.2174 -0.1336
  455MOL0     C59981   8.136   5.370   8.007  0.7026  0.0165 -0.5922
  455MOL0     C59982   8.449   5.114   8.196 -0.3191 -0.3629  0.2725
  455MOL0     C59983   8.420   5.066   8.328 -0.2411 -0.5839  0.0246
  455MOL0     C59984   8.535   5.010   8.399  0.9204 -0.5417 -0.5842
  455MOL0     C59985   8.662   5.001   8.350 -0.8162 -0.6139  0.1003
  455MOL0     O59986   8.758   4.970   8.447  0.6535  1.0320 -0.0867
  455MOL0     C59987   8.892   4.984   8.399 -0.8152 -0.3356  0.3655
  455MOL0     C59988   8.968   4.922   8.519 -0.9441 -0.0960 -0.3539
  455MOL0     C59989   9.118   4.893   8.485  0.9915  0.0931 -0.4027
  455MOL0     C59990   9.213   5.007   8.528 -0.5860 -0.5570 -0.9167
  455MOL0     C59991   9.354   4.976   8.486 -0.0097 -0.2571  0.6530
  455MOL0     C59992   9.466   4.923   8.455  0.2476 -0.1237 -0.4807
  455MOL0     C59993   8.691   5.048   8.219 -0.1077  0.5938 -0.1834
  455MOL0     C59994   8.589   5.108   8.150  0.5485 -0.6394  0.1567
  455MOL0     H59995   7.966   5.171   8.225 -1.2695  0.9018  0.2823
  455MOL0     H59996   7.774   5.285   8.105  0.5014 -0.5907 -0.9878
  455MOL0     H59997   7.637   5.361   7.949 -1.1116 -2.8323 -0.3742
  455MOL0     H59998   7.727   5.310   7.806  0.1514  1.0552 -2.2919
  455MOL0     H59999   7.667   5.480   7.671 -0.3483 -2.6959 -0.5816
  455MOL0     H60000   7.588   5.568   7.815 -3.4319 -2.1975  2.0323
  455MOL0     H60001   7.484   5.298   7.731  2.0787  0.1953 -0.8277
  455MOL0     H60002   7.439   5.444   7.640 -0.4889 -2.7694 -2.8423
  455MOL0     H60003   7.398   5.376   7.956 -1.2330  0.9417  0.6641
  455MOL0     H60004   7.351   5.524   7.882  1.8450  0.8396 -2.0331
  455MOL0     H60005   7.197   5.313   7.928  1.5452 -2.0113 -0.4525
  455MOL0     H60006   7.250   5.252   7.775 -1.0712 -2.7921  3.4292
  455MOL0     H60007   7.184   5.478   7.673 -1.3054  1.0869 -0.5748
  455MOL0     H60008   7.133   5.542   7.831  0.2580 -0.5026 -0.5080
  455MOL0     H60009   6.967   5.382   7.848  5.3493 -0.5712  0.8110
  455MOL0     H60010   6.939   5.485   7.707  1.4277  1.8684 -1.5301
  455MOL0     H60011   7.033   5.187   7.682  1.6939 -0.2173 -4.9489
  455MOL0     H60012   7.022   5.306   7.558  0.4227  0.9046  0.5716
  455MOL0     H60013   6.816   5.086   7.789  0.9708  0.1955 -1.0926
  455MOL0     H60014   6.590   4.977   7.790  0.2835  0.7145  1.3946
  455MOL0     H60015   6.466   5.046   7.690 -0.2203 -0.5145 -0.2615
  455MOL0     H60016   6.549   5.164   7.956  1.0382 -3.0921  0.6142
  455MOL0     H60017   6.414   5.046   7.932 -2.7658  1.4137 -2.4400
  455MOL0     H60018   6.370   5.271   7.963 -0.8040 -2.0264  0.0017
  455MOL0     H60019   6.461   5.331   7.820 -2.5598  1.6867 -0.7321
  455MOL0     H60020   6.210   5.173   7.816  0.9933 -1.7381  1.9133
  455MOL0     H60021   6.327   5.199   7.676 -0.6728  1.5757 -0.1742
  455MOL0     H60022   6.111   5.301   7.958 -2.9357 -1.0868 -1.1762
  455MOL0     H60023   5.995   5.441   8.103  2.4651  2.3388  3.0306
  455MOL0     H60024   5.924   5.931   8.227 -0.2062 -0.1460 -1.2276
  455MOL0     H60025   5.810   6.082   8.392  1.5752  0.7995 -0.6358
  455MOL0     H60026   5.608   6.160   8.493  3.4146 -3.4748 -3.4169
  455MOL0     H60027   5.755   6.172   8.597  0.4966 -0.8005  0.5037
  455MOL0     H60028   5.487   6.122   8.720 -1.5778  1.7977  1.4097
  455MOL0     H60029   5.513   6.284   8.673 -1.1200  0.2876  2.8681
  455MOL0     H60030   5.585   6.275   8.905 -0.1755 -0.1906  1.1692
  455MOL0     H60031   5.727   6.299   8.794  0.6282 -2.2728 -1.8375
  455MOL0     H60032   5.629   6.039   8.918  1.1193  1.1091  2.6359
  455MOL0     H60033   5.767   6.041   8.802 -1.4320 -2.2402 -0.6109
  455MOL0     H60034   5.737   6.161   9.077  0.5204  1.1794 -0.3618
  455MOL0     H60035   5.853   6.234   8.977 -0.7436  1.4831  3.0433
  455MOL0     H60036   5.976   6.020   8.928  0.8614 -0.7394 -0.2652
  455MOL0     H60037   5.890   5.933   9.059  1.2845 -1.2737 -2.1107
  455MOL0     H60038   6.064   6.166   9.109  0.1560 -0.6829 -0.4549
  455MOL0     H60039   5.946   6.101   9.222  1.0188 -0.6747  1.6834
  455MOL0     H60040   6.158   6.025   9.264 -2.7954  2.9926  0.0776
  455MOL0     H60041   6.182   5.940   9.111 -0.2406  0.2716 -0.7128
  455MOL0     H60042   5.613   5.763   8.553 -0.4342 -0.1833 -0.5303
  455MOL0     H60043   5.737   5.587   8.365  1.5935 -1.1321  0.8362
  455MOL0     H60044   6.068   5.782   7.833  0.3341 -0.2221 -2.5182
  455MOL0     H60045   6.174   5.616   7.675  0.3594  0.1601 -0.0303
  455MOL0     H60046   8.036   5.515   7.871  0.0895 -1.8904 -1.6991
  455MOL0     H60047   8.237   5.397   7.974  0.3299  1.3295 -0.7330
  455MOL0     H60048   8.316   5.065   8.358  0.3135  0.0199  2.1197
  455MOL0     H60049   8.537   4.978   8.503  0.4091 -0.5849 -0.5835
  455MOL0     H60050   8.926   5.086   8.379 -0.2023 -0.7810 -0.9846
  455MOL0     H60051   8.907   4.934   8.303  2.0489  0.1705  0.4464
  455MOL0     H60052   8.961   4.999   8.595  0.8351  2.2491 -2.4007
  455MOL0     H60053   8.918   4.829   8.548  3.6924 -3.4752 -1.9274
  455MOL0     H60054   9.134   4.890   8.376  0.8490 -0.7350 -0.4064
  455MOL0     H60055   9.143   4.800   8.536  0.7602 -0.4202 -1.2105
  455MOL0     H60056   9.193   5.095   8.466  2.1408  0.6499 -0.2821
  455MOL0     H60057   9.217   5.033   8.634  0.8558  1.0659 -1.3173
  455MOL0     H60058   9.562   4.881   8.436  1.3016  1.0502  1.8493
  455MOL0     H60059   8.789   5.046   8.173 -0.2360  0.0586 -0.4349
  455MOL0     H60060   8.599   5.131   8.045 -0.1926 -0.8583  0.0377
  456MOL0     O60061   2.753   6.062   1.655 -0.3519  1.1591 -0.6811
  456MOL0     C60062   2.732   6.051   1.534 -0.0841 -1.2643  0.4619
  456MOL0     O60063   2.611   6.020   1.473 -0.7395  0.4696  0.2560
  456MOL0     C60064   2.493   5.995   1.540  0.0678  0.2432 -1.3697
  456MOL0     C60065   2.390   5.939   1.460  0.0425 -0.3031  0.3910
  456MOL0     C60066   2.265   5.900   1.514  1.6629  0.2312 -0.1370
  456MOL0     C60067   2.245   5.913   1.647  0.0724 -0.1691 -0.9398
  456MOL0     O60068   2.114   5.883   1.688 -0.1125 -0.2252  0.3899
  456MOL0     C60069   2.091   5.848   1.825  0.0303 -0.2914 -0.5528
  456MOL0     C60070   1.949   5.792   1.816 -0.1099 -0.1898 -0.7708
  456MOL0     C60071   1.844   5.905   1.835 -0.2182 -0.9902  0.7960
  456MOL0     C60072   1.716   5.853   1.905 -0.1931 -0.3672 -0.6584
  456MOL0     C60073   1.593   5.943   1.908  0.2640  0.5932  0.3501
  456MOL0     C60074   1.470   5.874   1.966 -0.5522  0.0348  0.4214
  456MOL0     C60075   1.375   5.969   2.037  1.0742  0.1070 -0.0382
  456MOL0     C60076   1.239   5.891   2.072  0.5581  0.9508 -0.3494
  456MOL0     N60077   1.139   5.990   2.118 -0.0897 -0.3635 -0.1008
  456MOL0     C60078   1.042   6.045   2.042 -0.6935 -0.2182  0.5523
  456MOL0     C60079   0.970   6.128   2.116  0.1408 -0.0904  0.6422
  456MOL0     C60080   0.862   6.220   2.070  0.0043  0.3802 -0.8099
  456MOL0     C60081   0.750   6.129   2.012  0.0171 -0.6770 -0.4303
  456MOL0     C60082   0.630   6.218   2.015 -0.2931  0.1692 -0.2398
  456MOL0     C60083   0.509   6.150   1.951  0.6964  0.3876 -0.1086
  456MOL0     O60084   0.417   6.255   1.912  0.2739  0.2653 -0.2210
  456MOL0     C60085   0.315   6.300   1.991 -0.0594 -0.0203 -0.0961
  456MOL0     C60086   0.264   6.419   1.943 -0.7996 -0.9248 -0.1555
  456MOL0     C60087   0.162   6.485   2.015 -1.3978  0.0351 -0.2554
  456MOL0     C60088   0.119   6.426   2.141 -0.4291 -0.3461  0.0986
  456MOL0     C60089   0.005   6.487   2.217  0.8210 -0.2258  0.0806
  456MOL0     O60090  -0.041   6.609   2.174  0.4028  0.5304 -0.1996
  456MOL0     C60091  -0.136   6.691   2.233 -0.3924 -0.0907 -0.4814
  456MOL0     C60092  -0.122   6.733   2.366  0.0353 -0.1348  0.4543
  456MOL0     C60093  -0.225   6.808   2.426 -0.3697 -0.7448  0.1713
  456MOL0     C60094  -0.331   6.857   2.347  0.0295  0.3005  0.1505
  456MOL0     O60095  -0.407   6.964   2.393  0.1466  0.5822  0.3741
  456MOL0     C60096  -0.548   6.942   2.380 -0.1181 -0.7890 -0.2498
  456MOL0     C60097  -0.604   7.075   2.330  0.1938  0.3466  0.2304
  456MOL0     C60098  -0.761   7.080   2.363 -0.6305 -0.7334 -0.1649
  456MOL0     C60099  -0.839   6.972   2.282 -0.7956  0.2534  0.8267
  456MOL0     C60100  -0.967   6.930   2.341 -0.4149 -0.4856 -0.1787
  456MOL0     C60101  -1.077   7.035   2.286 -0.4633  0.7163 -0.5654
  456MOL0     C60102  -1.199   7.030   2.383 -0.2134  0.3861 -1.4827
  456MOL0     C60103  -1.331   7.087   2.331 -0.1801 -0.5523 -0.0800
  456MOL0    Cl60104  -1.461   7.079   2.458  0.1772 -0.0841  0.1883
  456MOL0     C60105  -0.346   6.809   2.211 -0.6554 -0.9088 -0.2294
  456MOL0     C60106  -0.245   6.729   2.162  0.1409  0.0748  0.4558
  456MOL0     O60107  -0.036   6.430   2.320  0.2021 -0.2009  0.2303
  456MOL0     C60108   0.168   6.304   2.180  0.1575  0.1421  0.6685
  456MOL0     C60109   0.273   6.241   2.115 -1.1840 -0.6797 -0.1041
  456MOL0     N60110   1.027   6.117   2.244 -0.1657 -0.8123  0.7316
  456MOL0     N60111   1.121   6.039   2.246 -0.7827  0.9024  0.7042
  456MOL0     C60112   2.343   5.970   1.735  0.0714 -0.0937 -0.3838
  456MOL0     C60113   2.467   6.017   1.678  0.2646 -0.5691  0.3556
  456MOL0     C60114   2.852   6.062   1.440  0.4186  0.1913 -0.3530
  456MOL0     C60115   2.835   6.077   1.308  0.1112  0.3657 -1.0402
  456MOL0     C60116   2.946   6.076   1.222 -0.8198  0.3689 -0.7070
  456MOL0     C60117   3.072   6.090   1.272  0.2722 -0.9097  0.1315
  456MOL0     O60118   3.181   6.109   1.186 -0.5527 -0.3088  0.2750
  456MOL0     C60119   3.165   6.114   1.046 -0.2036  0.0144  0.0656
  456MOL0     C60120   3.164   5.978   0.977 -0.3308  0.2846  0.2722
  456MOL0     C60121   3.249   5.881   1.049 -0.0664 -0.0157 -0.3897
  456MOL0     C60122   3.400   5.895   1.037 -0.3306 -0.0604  0.5531
  456MOL0     C60123   3.456   5.885   0.902  0.6055  0.0464  0.1573
  456MOL0     C60124   3.509   5.917   0.800 -0.3835  0.6666 -0.5256
  456MOL0     C60125   3.088   6.097   1.409  0.7083 -0.5531 -0.1082
  456MOL0     C60126   2.979   6.063   1.491  0.4393 -0.0083 -0.8068
  456MOL0     H60127   2.421   5.932   1.356  2.4414  1.7272  0.8538
  456MOL0     H60128   2.179   5.852   1.468  1.6405 -1.7426  1.7956
  456MOL0     H60129   2.106   5.925   1.902  0.8148 -0.3363 -0.6522
  456MOL0     H60130   2.158   5.767   1.854  1.1981  1.2142  1.2172
  456MOL0     H60131   1.940   5.726   1.903  1.5640  0.4853 -0.0384
  456MOL0     H60132   1.923   5.742   1.723 -3.6061  0.6848 -0.4046
  456MOL0     H60133   1.834   5.939   1.731  5.0995 -2.7648 -0.6562
  456MOL0     H60134   1.890   5.985   1.893 -1.1941  0.4735 -0.3574
  456MOL0     H60135   1.686   5.762   1.852  1.1771  0.7802 -3.6173
  456MOL0     H60136   1.745   5.827   2.007 -1.1373  0.4215 -0.1842
  456MOL0     H60137   1.564   5.976   1.808 -1.6699 -0.5391  0.4838
  456MOL0     H60138   1.621   6.029   1.971  2.1467 -0.1544  0.6185
  456MOL0     H60139   1.495   5.802   2.044 -1.5180 -0.4560  0.2957
  456MOL0     H60140   1.424   5.815   1.886  1.9552 -1.4800 -0.0168
  456MOL0     H60141   1.421   6.020   2.122  0.7098  2.9326 -1.4059
  456MOL0     H60142   1.337   6.045   1.968  1.4137  1.4859  1.2354
  456MOL0     H60143   1.260   5.823   2.155 -1.7065  1.0676  0.3930
  456MOL0     H60144   1.198   5.838   1.986 -1.0019 -0.7845  1.3693
  456MOL0     H60145   1.027   6.017   1.938 -4.4135  0.8280  0.6598
  456MOL0     H60146   0.897   6.289   1.992  0.7999 -0.5991 -1.3373
  456MOL0     H60147   0.817   6.264   2.160 -0.6361 -0.7929 -0.5445
  456MOL0     H60148   0.725   6.042   2.073  2.5909 -0.4969  1.0706
  456MOL0     H60149   0.775   6.096   1.911  0.5692  1.6146 -1.1162
  456MOL0     H60150   0.610   6.247   2.119 -0.3900 -1.3629  0.1939
  456MOL0     H60151   0.657   6.310   1.963 -2.5143 -0.2942 -2.3459
  456MOL0     H60152   0.456   6.075   2.011  0.4431  0.4000 -0.3183
  456MOL0     H60153   0.532   6.093   1.860 -1.2256 -2.1395  0.8601
  456MOL0     H60154   0.302   6.448   1.845 -0.1278 -2.8376 -0.5077
  456MOL0     H60155   0.120   6.574   1.970 -0.3727  1.5186  1.5602
  456MOL0     H60156  -0.034   6.709   2.425  0.0439  0.2387  0.5990
  456MOL0     H60157  -0.205   6.845   2.527 -1.7247 -1.5513  0.7619
  456MOL0     H60158  -0.591   6.928   2.479  1.0233 -0.4506  0.3087
  456MOL0     H60159  -0.589   6.862   2.318 -2.3021 -2.3333  2.9220
  456MOL0     H60160  -0.582   7.080   2.223  2.1678  0.2037  0.5915
  456MOL0     H60161  -0.547   7.155   2.379  1.4284  0.0762 -0.7291
  456MOL0     H60162  -0.788   7.176   2.319  3.4922  0.8508  0.2706
  456MOL0     H60163  -0.779   7.081   2.471 -2.4747 -3.5343 -0.3500
  456MOL0     H60164  -0.851   7.000   2.177 -1.7113 -1.2893  0.4944
  456MOL0     H60165  -0.782   6.879   2.269 -3.3546 -1.3789  0.5779
  456MOL0     H60166  -0.946   6.949   2.446  1.0552  0.1986 -0.5663
  456MOL0     H60167  -0.991   6.826   2.316 -2.4295  0.1103 -1.0117
  456MOL0     H60168  -1.110   7.011   2.184 -0.1103 -0.1234 -0.4895
  456MOL0     H60169  -1.037   7.135   2.302 -3.0535  1.7422  0.0138
  456MOL0     H60170  -1.204   6.925   2.414  1.8823 -0.0323 -2.3145
  456MOL0     H60171  -1.157   7.087   2.466 -0.5134  2.1776 -2.5274
  456MOL0     H60172  -1.359   7.029   2.242 -0.0500  0.3759 -0.7369
  456MOL0     H60173  -1.311   7.188   2.296  0.5276 -0.9916 -0.9792
  456MOL0     H60174  -0.427   6.831   2.143  0.1215 -1.1331 -1.2676
  456MOL0     H60175  -0.261   6.699   2.059  2.0699  1.0067 -0.1539
  456MOL0     H60176   0.140   6.249   2.269  3.3941  0.3869  1.9800
  456MOL0     H60177   0.313   6.150   2.157  0.5591  0.1692  0.1363
  456MOL0     H60178   2.314   5.994   1.837 -0.3204  4.0090 -1.2657
  456MOL0     H60179   2.552   6.045   1.739  0.2725 -1.4047  0.7446
  456MOL0     H60180   2.738   6.074   1.260 -1.0114 -0.8768  1.1592
  456MOL0     H60181   2.922   6.080   1.117  1.2665  0.2044 -1.2341
  456MOL0     H60182   3.252   6.167   1.005  0.3520  0.9967  2.3537
  456MOL0     H60183   3.085   6.181   1.012  1.4688  1.9254 -0.2996
  456MOL0     H60184   3.065   5.933   0.971 -0.0489 -0.3597  0.4291
  456MOL0     H60185   3.201   6.006   0.877  0.5301  0.5235  0.6462
  456MOL0     H60186   3.232   5.779   1.012 -1.4486 -0.4802  1.3918
  456MOL0     H60187   3.217   5.881   1.154 -1.9797  1.3604 -0.9291
  456MOL0     H60188   3.418   5.998   1.070  0.2917  0.2355 -0.6459
  456MOL0     H60189   3.450   5.824   1.104 -2.6232  1.3308  4.0173
  456MOL0     H60190   3.560   5.957   0.715 -1.2741 -0.9552 -1.8761
  456MOL0     H60191   3.182   6.097   1.464  0.6056 -0.1491  0.0696
  456MOL0     H60192   2.996   6.053   1.598 -1.1288 -0.1844 -0.5565
  457MOL0     O60193   0.681   3.295   6.588 -0.5042  0.1496 -0.3234
  457MOL0     C60194   0.732   3.282   6.700 -0.4250 -0.4857  0.1172
  457MOL0     O60195   0.671   3.301   6.818  0.0763 -0.3324  0.8609
  457MOL0     C60196   0.532   3.334   6.831  0.5062  0.1226 -0.1289
  457MOL0     C60197   0.489   3.405   6.945  0.1788  0.8168 -0.2328
  457MOL0     C60198   0.362   3.451   6.957  0.0479  0.7499  0.8561
  457MOL0     C60199   0.259   3.420   6.860 -0.1768 -0.9058 -0.3407
  457MOL0     O60200   0.126   3.468   6.861 -0.1834  0.0097  0.1710
  457MOL0     C60201   0.096   3.559   6.971 -0.0725  1.0070 -0.1887
  457MOL0     C60202  -0.053   3.583   6.977  0.0381 -0.3746 -0.3554
  457MOL0     C60203  -0.101   3.699   6.885 -0.5149 -0.5133  0.7138
  457MOL0     C60204  -0.245   3.701   6.869  0.1519  1.1676 -0.8139
  457MOL0     C60205  -0.305   3.596   6.771  0.8709  0.4943 -0.2950
  457MOL0     C60206  -0.270   3.630   6.624 -0.8504 -0.0795  0.9430
  457MOL0     C60207  -0.324   3.544   6.513  0.0235 -0.0583  0.5065
  457MOL0     C60208  -0.472   3.506   6.507  0.4324 -0.6318 -0.1929
  457MOL0     N60209  -0.562   3.623   6.489  1.5341  0.2524  0.1472
  457MOL0     C60210  -0.548   3.716   6.382  0.2887  0.0797 -0.4186
  457MOL0     C60211  -0.645   3.805   6.417  0.4343 -0.6895  0.3556
  457MOL0     C60212  -0.680   3.939   6.352 -0.1335  0.3863 -0.4260
  457MOL0     C60213  -0.820   3.944   6.289  0.4962  0.8919 -0.6222
  457MOL0     C60214  -0.934   3.937   6.387 -0.0524  1.0836 -0.7641
  457MOL0     C60215  -1.065   3.976   6.338  0.3766 -0.4735 -0.0063
  457MOL0     O60216  -1.110   3.897   6.229 -0.7473  0.1068 -0.5338
  457MOL0     C60217  -1.220   3.938   6.155 -0.2516 -0.1664 -0.5266
  457MOL0     C60218  -1.292   4.057   6.179 -0.7581  0.2407  0.3218
  457MOL0     C60219  -1.406   4.077   6.100  0.8880  0.0644 -0.6578
  457MOL0     C60220  -1.461   3.984   6.007  0.2933  0.5960  0.3348
  457MOL0     C60221  -1.592   3.998   5.950 -0.7163  0.1827 -0.5543
  457MOL0     O60222  -1.669   4.108   5.991  0.5063 -0.2054  0.1613
  457MOL0     C60223  -1.796   4.100   5.950 -0.8168 -0.0708  0.2422
  457MOL0     C60224  -1.827   4.128   5.814  0.3231  0.1887 -0.0361
  457MOL0     C60225  -1.962   4.117   5.768  0.0063  0.2100  0.0414
  457MOL0     C60226  -2.064   4.086   5.855 -0.5522 -0.2899 -0.4201
  457MOL0     O60227  -2.203   4.087   5.828 -0.0480  0.8710  0.3137
  457MOL0     C60228  -2.251   4.129   5.699  0.1651  0.3488 -0.9923
  457MOL0     C60229  -2.393   4.191   5.708  0.6124  0.0443  0.5196
  457MOL0     C60230  -2.448   4.236   5.567  0.4387  0.4396  0.0013
  457MOL0     C60231  -2.603   4.222   5.556  0.1771 -0.2392  0.0586
  457MOL0     C60232  -2.641   4.242   5.409  0.0653 -0.3188 -0.2237
  457MOL0     C60233  -2.800   4.230   5.386 -0.0403  0.2543 -0.2115
  457MOL0     C60234  -2.842   4.246   5.239 -0.1290  0.6072 -0.4924
  457MOL0     C60235  -2.995   4.276   5.218  0.2554  0.3152 -0.8927
  457MOL0    Cl60236  -3.104   4.148   5.273 -0.0503 -0.2446  0.3924
  457MOL0     C60237  -2.029   4.043   5.985 -0.3043 -0.6001  1.4885
  457MOL0     C60238  -1.899   4.064   6.035 -0.0572 -0.2933  0.4555
  457MOL0     O60239  -1.623   3.914   5.865  0.3900  0.2757  0.2885
  457MOL0     C60240  -1.378   3.879   5.981 -0.6786  0.3810 -0.1513
  457MOL0     C60241  -1.260   3.858   6.048 -0.2997  0.2298 -0.2095
  457MOL0     N60242  -0.717   3.763   6.533 -0.7554  0.8819  0.5251
  457MOL0     N60243  -0.670   3.656   6.574 -0.4619 -0.4467 -0.4007
  457MOL0     C60244   0.296   3.339   6.755  0.4296  0.6486 -0.2771
  457MOL0     C60245   0.430   3.303   6.737 -0.8410  0.0713  0.0061
  457MOL0     C60246   0.866   3.231   6.707  0.8226 -0.1800  0.0913
  457MOL0     C60247   0.935   3.231   6.829 -0.4294  0.3571 -0.8773
  457MOL0     C60248   1.072   3.196   6.844  0.5528  0.2914 -0.2944
  457MOL0     C60249   1.135   3.138   6.736  0.6145  0.7116 -0.6020
  457MOL0     O60250   1.264   3.108   6.761 -0.8263  0.6044 -0.0965
  457MOL0     C60251   1.358   3.170   6.674  0.2354  0.0830  0.4609
  457MOL0     C60252   1.484   3.087   6.681 -0.5054  0.3694  0.5218
  457MOL0     C60253   1.554   3.090   6.820  0.4804  0.6157 -0.9558
  457MOL0     C60254   1.695   3.039   6.803  0.4438  0.5541  0.1941
  457MOL0     C60255   1.772   3.021   6.921  0.2339 -0.1880 -0.0201
  457MOL0     C60256   1.833   3.001   7.024 -0.5488  0.0506  0.3224
  457MOL0     C60257   1.077   3.152   6.608 -0.1285  0.6131 -0.1194
  457MOL0     C60258   0.940   3.197   6.599 -0.1274  0.0038 -0.1174
  457MOL0     H60259   0.556   3.434   7.025  0.8303  0.3632 -0.6042
  457MOL0     H60260   0.340   3.516   7.041  0.6197  0.8494  0.9320
  457MOL0     H60261   0.149   3.653   6.955 -1.5713  2.1667  1.2430
  457MOL0     H60262   0.111   3.517   7.070 -1.7267  1.0531  0.1126
  457MOL0     H60263  -0.091   3.609   7.076 -1.1773  0.5347 -1.0296
  457MOL0     H60264  -0.100   3.491   6.941  0.1654  0.1291 -1.8900
  457MOL0     H60265  -0.053   3.693   6.787 -1.3991 -0.1346  0.2545
  457MOL0     H60266  -0.072   3.797   6.925  0.0710 -0.1682 -0.4902
  457MOL0     H60267  -0.291   3.677   6.965  1.7008  1.3124 -0.0057
  457MOL0     H60268  -0.279   3.801   6.841 -0.5655  0.7206 -1.5911
  457MOL0     H60269  -0.414   3.606   6.780  1.0795  1.9202  0.9654
  457MOL0     H60270  -0.291   3.488   6.783 -0.7027  0.1833 -0.9524
  457MOL0     H60271  -0.162   3.618   6.613 -1.0137 -1.6092  0.8050
  457MOL0     H60272  -0.299   3.734   6.608 -0.5865 -0.4331 -2.7846
  457MOL0     H60273  -0.299   3.582   6.413 -2.0897 -1.9250 -0.8355
  457MOL0     H60274  -0.282   3.443   6.518 -1.0272 -0.5771 -0.6213
  457MOL0     H60275  -0.505   3.457   6.599 -1.7733 -1.9050 -1.5820
  457MOL0     H60276  -0.495   3.435   6.427  0.4527 -0.6583 -0.1745
  457MOL0     H60277  -0.467   3.721   6.309  1.5446 -2.1493  0.7006
  457MOL0     H60278  -0.601   3.960   6.280 -1.8165  1.4062 -2.0713
  457MOL0     H60279  -0.673   4.016   6.429 -1.4378  0.5971 -0.4935
  457MOL0     H60280  -0.823   3.867   6.211  0.7949  0.6245 -0.3694
  457MOL0     H60281  -0.816   4.043   6.242 -1.3895  1.1511 -0.3316
  457MOL0     H60282  -0.936   3.834   6.425 -1.8329  1.2546 -0.3174
  457MOL0     H60283  -0.923   3.990   6.482 -1.9044  1.3256 -0.6583
  457MOL0     H60284  -1.050   4.080   6.305 -1.1920 -0.0168  0.5965
  457MOL0     H60285  -1.140   3.977   6.417  0.0774  3.1733 -0.1724
  457MOL0     H60286  -1.267   4.127   6.258 -3.4924  0.4598  1.0749
  457MOL0     H60287  -1.465   4.166   6.121  0.8422  0.2665 -1.6177
  457MOL0     H60288  -1.747   4.162   5.748 -1.0576  0.6026 -1.5562
  457MOL0     H60289  -1.991   4.152   5.669 -1.8747 -1.2934 -0.0088
  457MOL0     H60290  -2.264   4.042   5.635  1.7700 -0.9259  0.3186
  457MOL0     H60291  -2.180   4.197   5.651  2.1544  1.2724  2.8194
  457MOL0     H60292  -2.394   4.284   5.766 -0.4813 -0.3345  1.1259
  457MOL0     H60293  -2.455   4.110   5.746  1.1953 -1.1381 -0.9265
  457MOL0     H60294  -2.405   4.175   5.487 -1.4241  0.7994 -1.3327
  457MOL0     H60295  -2.417   4.334   5.531  0.5869 -0.3072 -2.0797
  457MOL0     H60296  -2.642   4.127   5.596 -1.6848  0.2986 -0.4107
  457MOL0     H60297  -2.658   4.295   5.617 -2.6285 -0.1041 -2.4069
  457MOL0     H60298  -2.595   4.153   5.364 -1.5129 -1.6014  0.5875
  457MOL0     H60299  -2.610   4.340   5.372  0.7362 -0.2181  0.5862
  457MOL0     H60300  -2.845   4.307   5.449 -0.6398 -0.5111  0.3166
  457MOL0     H60301  -2.838   4.136   5.427 -3.2408  2.0072  1.2004
  457MOL0     H60302  -2.784   4.336   5.212  0.8248  0.0062 -0.4903
  457MOL0     H60303  -2.809   4.166   5.172 -2.8114  0.3073 -1.5950
  457MOL0     H60304  -3.009   4.269   5.110 -1.9747  0.3980 -0.6548
  457MOL0     H60305  -3.023   4.370   5.266 -0.6800  0.6563 -2.0674
  457MOL0     H60306  -2.110   4.007   6.047 -0.5016 -0.5247  1.2733
  457MOL0     H60307  -1.873   4.032   6.135 -0.6225 -0.9450  0.4039
  457MOL0     H60308  -1.408   3.808   5.905  0.7668  1.5295 -1.8686
  457MOL0     H60309  -1.198   3.778   6.010  0.2867  1.7167 -2.5824
  457MOL0     H60310   0.209   3.312   6.697 -0.4987  1.5040  0.6832
  457MOL0     H60311   0.446   3.240   6.651  1.7899 -0.0325  0.4989
  457MOL0     H60312   0.885   3.257   6.922 -0.6735 -1.5688 -0.4210
  457MOL0     H60313   1.120   3.196   6.942 -0.3193  1.6762  0.1695
  457MOL0     H60314   1.375   3.273   6.707  0.2064  0.0304  0.6421
  457MOL0     H60315   1.338   3.188   6.568 -0.4754 -0.7458  0.4440
  457MOL0     H60316   1.478   2.980   6.659  1.0954  0.6764 -1.7980
  457MOL0     H60317   1.556   3.117   6.605  1.6367 -0.0100  2.3059
  457MOL0     H60318   1.506   3.019   6.889  4.1218  0.0215  1.2117
  457MOL0     H60319   1.563   3.187   6.868  0.5623 -0.2701  0.9139
  457MOL0     H60320   1.685   2.943   6.751 -0.6087  0.1918  1.0252
  457MOL0     H60321   1.757   3.104   6.741  2.2247 -1.9046 -0.7394
  457MOL0     H60322   1.888   2.986   7.115  0.1409  0.6881  0.0313
  457MOL0     H60323   1.138   3.118   6.525  2.3642  0.0738  1.8209
  457MOL0     H60324   0.908   3.204   6.495  0.0456  0.6015 -0.1368
  458MOL0     O60325  10.285   2.096   0.579  0.1881 -0.4368 -0.6455
  458MOL0     C60326  10.388   2.114   0.644 -0.3512  0.1407  0.0815
  458MOL0     O60327  10.399   2.172   0.768 -0.5165 -0.9697 -0.4192
  458MOL0     C60328  10.284   2.219   0.828 -0.2325  0.6481 -0.0570
  458MOL0     C60329  10.247   2.354   0.829  0.0918  0.6377 -0.6360
  458MOL0     C60330  10.130   2.392   0.894  0.0239  0.1405 -0.1181
  458MOL0     C60331  10.037   2.301   0.949 -0.7929 -0.1426  0.2653
  458MOL0     O60332   9.917   2.351   0.996  0.9878 -0.3204 -0.1726
  458MOL0     C60333   9.803   2.265   0.977  0.6760  0.2901  0.0862
  458MOL0     C60334   9.769   2.184   1.110  0.1881 -0.3523  0.0234
  458MOL0     C60335   9.632   2.129   1.100 -0.3152 -0.6190 -0.6836
  458MOL0     C60336   9.594   2.054   1.224 -0.4889 -0.1193 -0.5583
  458MOL0     C60337   9.442   2.015   1.242  0.7830 -1.2562 -0.4229
  458MOL0     C60338   9.422   1.963   1.393 -0.3227  0.6619  0.5785
  458MOL0     C60339   9.534   1.874   1.448 -0.1936 -0.2468 -0.0755
  458MOL0     C60340   9.536   1.737   1.384  0.0425  0.9049 -0.8987
  458MOL0     N60341   9.438   1.646   1.437  0.2616 -0.4003 -0.1937
  458MOL0     C60342   9.442   1.581   1.554  0.3601 -0.3050 -0.1912
  458MOL0     C60343   9.346   1.494   1.548  0.2483  0.4308 -0.2177
  458MOL0     C60344   9.313   1.392   1.655  0.3905 -0.1692  0.2849
  458MOL0     C60345   9.169   1.409   1.711  0.6345  0.3739 -0.4766
  458MOL0     C60346   9.153   1.539   1.789  0.1953  0.1427  0.2086
  458MOL0     C60347   9.004   1.560   1.817  0.6166 -0.4507  0.1064
  458MOL0     O60348   8.971   1.459   1.912  0.2528  0.0899 -0.2800
  458MOL0     C60349   8.830   1.434   1.928 -0.3275 -0.0990 -0.0483
  458MOL0     C60350   8.816   1.297   1.952  1.0745 -1.0472  0.0058
  458MOL0     C60351   8.691   1.254   1.990 -0.0504 -0.2977  0.3963
  458MOL0     C60352   8.573   1.337   1.979 -1.1128 -0.7347  0.4390
  458MOL0     C60353   8.440   1.293   2.030  0.2866 -0.4823  1.0809
  458MOL0     O60354   8.346   1.392   2.068 -0.1271 -0.5573 -0.4137
  458MOL0     C60355   8.246   1.357   2.145  1.0214  0.0466 -0.0914
  458MOL0     C60356   8.135   1.276   2.110 -0.7355 -0.8147  0.4422
  458MOL0     C60357   8.031   1.253   2.198  1.5232 -0.3027  0.0609
  458MOL0     C60358   8.035   1.310   2.327  0.2973  0.5601  0.0415
  458MOL0     O60359   7.938   1.284   2.421 -0.2920  0.1669 -0.1642
  458MOL0     C60360   7.932   1.144   2.468  1.2225 -0.1092 -0.0003
  458MOL0     C60361   7.804   1.079   2.413 -0.1099  0.4844  1.1221
  458MOL0     C60362   7.675   1.126   2.481 -0.5470  0.8159 -0.3578
  458MOL0     C60363   7.557   1.088   2.396 -0.5035  0.5802 -0.4403
  458MOL0     C60364   7.431   1.158   2.447 -0.0046  0.3178 -0.1289
  458MOL0     C60365   7.315   1.107   2.364  0.0353 -0.2575 -0.2637
  458MOL0     C60366   7.179   1.163   2.398 -0.6937  0.0202 -0.2863
  458MOL0     C60367   7.082   1.140   2.288 -0.2223 -1.0019 -0.0348
  458MOL0    Cl60368   7.036   0.955   2.283  0.0311 -0.1704  0.3569
  458MOL0     C60369   8.143   1.389   2.369 -0.4526 -0.3626  0.2581
  458MOL0     C60370   8.249   1.411   2.275  0.1323 -0.5444  0.1853
  458MOL0     O60371   8.431   1.169   2.048 -0.1502 -0.2438  0.1978
  458MOL0     C60372   8.592   1.473   1.942 -0.6353 -1.1243  0.0721
  458MOL0     C60373   8.719   1.526   1.925 -0.3023 -0.4047  0.2297
  458MOL0     N60374   9.281   1.509   1.433 -0.5571 -0.1242  0.7419
  458MOL0     N60375   9.340   1.597   1.353 -0.8091  0.4071 -0.1744
  458MOL0     C60376  10.073   2.165   0.959 -0.3688 -1.6801 -0.6654
  458MOL0     C60377  10.200   2.130   0.902  0.2377 -0.0507  0.3646
  458MOL0     C60378  10.521   2.072   0.585 -0.5771 -0.5228  0.3241
  458MOL0     C60379  10.546   2.072   0.446  0.1503 -0.4554  0.3044
  458MOL0     C60380  10.675   2.040   0.389  0.5625  0.0154  0.3565
  458MOL0     C60381  10.782   2.019   0.475  0.7414 -0.3041  0.5794
  458MOL0     O60382  10.904   2.002   0.420 -0.4908 -0.1027 -0.3194
  458MOL0     C60383  10.959   2.052   0.300  0.0524  0.0122 -0.7440
  458MOL0     C60384  11.110   2.071   0.316 -0.6525  0.6796 -0.3603
  458MOL0     C60385  11.193   2.125   0.192 -0.3522 -0.3183  0.0970
  458MOL0     C60386  11.251   2.010   0.110 -0.5331  0.5288  0.0118
  458MOL0     C60387  11.381   1.981   0.173  1.2509 -0.2154 -0.3287
  458MOL0     C60388  11.484   1.947   0.231  0.0492 -0.3542 -0.4919
  458MOL0     C60389  10.762   2.026   0.616 -1.0789 -0.9557 -0.7170
  458MOL0     C60390  10.636   2.046   0.670 -0.1323  0.0186  0.3316
  458MOL0     H60391  10.331   2.417   0.803  1.2069  0.0993  1.4449
  458MOL0     H60392  10.096   2.495   0.894 -1.2706 -0.2522  1.4621
  458MOL0     H60393   9.817   2.199   0.891  0.7279  1.1078 -0.5444
  458MOL0     H60394   9.719   2.332   0.959  0.1860 -0.3484 -0.0508
  458MOL0     H60395   9.779   2.246   1.200 -0.1765  0.4090 -0.4473
  458MOL0     H60396   9.848   2.109   1.114  0.7636  0.1930 -0.7034
  458MOL0     H60397   9.633   2.062   1.013 -1.7673 -0.3978 -0.8965
  458MOL0     H60398   9.556   2.205   1.083 -0.6705 -0.9714 -0.6737
  458MOL0     H60399   9.642   1.956   1.219 -4.2657 -2.0599 -3.2533
  458MOL0     H60400   9.623   2.109   1.314  0.6078 -0.6631 -0.5566
  458MOL0     H60401   9.394   1.949   1.169  0.9513  0.4273 -2.1316
  458MOL0     H60402   9.377   2.103   1.232  0.4856 -1.3297  0.7267
  458MOL0     H60403   9.328   1.907   1.391  0.4222 -0.5981 -1.8863
  458MOL0     H60404   9.405   2.052   1.455  1.5187 -0.5236  2.9492
  458MOL0     H60405   9.632   1.922   1.445  0.3674 -1.0784  2.5126
  458MOL0     H60406   9.517   1.870   1.556 -1.5562 -2.3785 -0.3146
  458MOL0     H60407   9.635   1.700   1.412  0.2551  2.0078 -0.1125
  458MOL0     H60408   9.520   1.734   1.276  2.4904  0.1144 -1.3072
  458MOL0     H60409   9.516   1.608   1.629  2.8817 -0.7475 -2.3291
  458MOL0     H60410   9.382   1.407   1.739  1.1122 -0.6659 -0.2092
  458MOL0     H60411   9.320   1.290   1.615 -0.6960 -1.1655  2.4515
  458MOL0     H60412   9.146   1.329   1.782  0.4496  1.6555  0.9458
  458MOL0     H60413   9.096   1.412   1.629  0.7994 -1.7637 -0.7674
  458MOL0     H60414   9.207   1.531   1.884  0.3431  0.7545  0.1778
  458MOL0     H60415   9.199   1.616   1.727  0.4014  0.0633  0.2618
  458MOL0     H60416   8.935   1.572   1.733  0.9557  4.3599  0.2335
  458MOL0     H60417   8.991   1.656   1.868 -2.0313 -0.1533 -0.9776
  458MOL0     H60418   8.899   1.229   1.938  0.6668 -1.2615 -1.5202
  458MOL0     H60419   8.680   1.151   2.024  0.1834  0.2897  2.3917
  458MOL0     H60420   8.145   1.243   2.008 -1.4284 -0.7868  0.3610
  458MOL0     H60421   7.950   1.188   2.165  2.5410 -1.1989 -0.7793
  458MOL0     H60422   7.951   1.152   2.576  4.4375 -2.6005 -0.2133
  458MOL0     H60423   8.022   1.094   2.433  1.8549  0.8087  0.2516
  458MOL0     H60424   7.811   0.971   2.429 -0.6300  0.1378 -0.7182
  458MOL0     H60425   7.798   1.096   2.305  2.6362  0.9837  0.9696
  458MOL0     H60426   7.680   1.234   2.498  0.6214  0.7096  0.0822
  458MOL0     H60427   7.672   1.075   2.578  0.9704  0.7341 -0.3202
  458MOL0     H60428   7.579   1.120   2.294 -1.4592  1.0267 -0.5143
  458MOL0     H60429   7.553   0.981   2.419 -0.6895  0.8137  0.7172
  458MOL0     H60430   7.439   1.266   2.441 -1.3244  0.4020 -0.8834
  458MOL0     H60431   7.419   1.133   2.553 -2.4369 -0.6837 -0.5615
  458MOL0     H60432   7.302   0.999   2.364 -2.5762 -0.0397  1.6814
  458MOL0     H60433   7.347   1.140   2.265  0.8428  0.1092  0.1101
  458MOL0     H60434   7.149   1.115   2.492  0.8359 -0.1898  0.1182
  458MOL0     H60435   7.187   1.271   2.411 -0.0822  0.1323 -1.4189
  458MOL0     H60436   7.123   1.171   2.191 -1.1129 -1.8455 -0.6995
  458MOL0     H60437   6.992   1.198   2.312  0.7607  1.0225 -1.0159
  458MOL0     H60438   8.137   1.444   2.462 -0.6713 -1.0410  0.6478
  458MOL0     H60439   8.334   1.472   2.305 -0.5509 -0.7031  2.6874
  458MOL0     H60440   8.502   1.535   1.945 -1.1231 -1.8410  1.7630
  458MOL0     H60441   8.728   1.633   1.910 -1.2226 -0.4735 -0.9713
  458MOL0     H60442  10.004   2.099   1.010 -0.4044 -0.6215  0.6970
  458MOL0     H60443  10.235   2.028   0.911  2.1985  0.4053 -1.4139
  458MOL0     H60444  10.467   2.107   0.380 -1.8761 -1.8194  1.8558
  458MOL0     H60445  10.677   2.050   0.281  1.9811 -1.5695  0.2158
  458MOL0     H60446  10.905   2.142   0.272 -4.1266 -1.5379  1.3519
  458MOL0     H60447  10.934   1.981   0.220 -2.2701  1.4955 -1.4179
  458MOL0     H60448  11.122   2.137   0.403  0.3687 -0.8678  0.7327
  458MOL0     H60449  11.142   1.971   0.345 -0.2164  0.6965 -0.7688
  458MOL0     H60450  11.274   2.184   0.236 -0.2658 -1.8647  2.1877
  458MOL0     H60451  11.132   2.195   0.135  5.5674  3.9084 -2.0425
  458MOL0     H60452  11.196   1.916   0.101  0.1502  0.1850 -0.6151
  458MOL0     H60453  11.279   2.036   0.008 -0.8709  0.7444 -0.0289
  458MOL0     H60454  11.578   1.913   0.271  0.0718  0.1468 -0.1161
  458MOL0     H60455  10.847   2.028   0.683 -1.5355 -2.1738 -0.0831
  458MOL0     H60456  10.618   2.043   0.778 -1.2296 -2.0349  0.1389
  459MOL0     O60457   4.966   2.837   4.032 -0.0682 -0.1905 -0.7814
  459MOL0     C60458   4.984   2.721   4.054  0.3789 -0.3949  0.6238
  459MOL0     O60459   4.893   2.628   4.087 -0.0369  0.0969  0.5331
  459MOL0     C60460   4.762   2.665   4.128  0.1815 -0.2703 -0.1582
  459MOL0     C60461   4.664   2.565   4.119  0.1628 -0.1873 -0.0220
  459MOL0     C60462   4.530   2.587   4.155 -0.2209  0.3865 -0.4595
  459MOL0     C60463   4.490   2.711   4.204  0.9805 -0.2138 -0.3014
  459MOL0     O60464   4.362   2.731   4.247 -0.4682  0.1102  0.8695
  459MOL0     C60465   4.287   2.796   4.138 -0.0939  0.1684  0.1110
  459MOL0     C60466   4.152   2.721   4.126  0.5968  0.0783 -0.0207
  459MOL0     C60467   4.042   2.804   4.061  0.7428  0.5619 -0.0013
  459MOL0     C60468   3.907   2.734   4.068  0.4076  1.1171  0.0229
  459MOL0     C60469   3.797   2.771   3.962  0.0696 -0.0224 -0.4780
  459MOL0     C60470   3.855   2.742   3.819  0.1018 -0.0081 -0.2942
  459MOL0     C60471   3.745   2.714   3.709 -0.8596  0.3430 -0.4159
  459MOL0     C60472   3.664   2.841   3.673 -0.1257  0.3290 -0.7871
  459MOL0     N60473   3.598   2.824   3.547  0.0362  0.2637 -0.1618
  459MOL0     C60474   3.649   2.851   3.423 -0.6364 -0.3195 -0.1165
  459MOL0     C60475   3.543   2.840   3.336  0.0910  0.1440  0.7842
  459MOL0     C60476   3.564   2.856   3.187  0.7637 -0.7356  0.0156
  459MOL0     C60477   3.580   3.005   3.143  0.4879  0.0641  0.4148
  459MOL0     C60478   3.609   3.029   2.993 -0.6248 -0.3081  0.3081
  459MOL0     C60479   3.677   3.162   2.955  0.1155  0.0216 -0.3516
  459MOL0     O60480   3.741   3.149   2.823  0.4651 -0.3803 -0.3731
  459MOL0     C60481   3.665   3.137   2.712  0.9766 -1.3001  0.3337
  459MOL0     C60482   3.533   3.178   2.705 -0.2541 -0.4123 -0.9059
  459MOL0     C60483   3.461   3.167   2.592  0.7914 -0.3028 -0.1669
  459MOL0     C60484   3.520   3.118   2.480 -0.5399  0.4801  0.2703
  459MOL0     C60485   3.445   3.114   2.348  0.4061 -0.9320  0.0111
  459MOL0     O60486   3.308   3.138   2.347 -0.6236  0.0291  0.0483
  459MOL0     C60487   3.244   3.069   2.253 -0.0696  0.7155  1.6635
  459MOL0     C60488   3.249   2.933   2.219 -0.9742 -0.2095  0.6159
  459MOL0     C60489   3.173   2.878   2.117  0.3434 -0.3722  0.3509
  459MOL0     C60490   3.078   2.957   2.042 -0.1290  0.1079 -0.4006
  459MOL0     O60491   2.992   2.896   1.947 -0.2449 -0.1683  0.3590
  459MOL0     C60492   3.036   2.770   1.888 -0.6171  0.6123 -1.1306
  459MOL0     C60493   2.931   2.711   1.793 -0.5968 -0.1470 -0.2263
  459MOL0     C60494   2.972   2.562   1.756  0.3750  0.1538  0.5534
  459MOL0     C60495   2.991   2.471   1.881 -0.2492  0.2524  0.3859
  459MOL0     C60496   2.970   2.329   1.829 -0.1625  0.1686 -0.2042
  459MOL0     C60497   3.009   2.222   1.927 -0.6232 -0.4330 -0.2565
  459MOL0     C60498   2.945   2.085   1.899  0.1546  0.8881  0.6131
  459MOL0     C60499   2.980   2.022   1.759 -0.3308 -0.5868 -0.0841
  459MOL0    Cl60500   3.159   2.033   1.722 -0.1492 -0.1881  0.2478
  459MOL0     C60501   3.070   3.090   2.079  1.1650  0.2977  0.7006
  459MOL0     C60502   3.153   3.137   2.180  0.5794 -0.3434  0.0320
  459MOL0     O60503   3.509   3.094   2.244  0.4395 -0.0890  0.9374
  459MOL0     C60504   3.654   3.088   2.478  0.9283 -0.2641 -0.0146
  459MOL0     C60505   3.726   3.107   2.592  0.1825 -0.2002  0.3670
  459MOL0     N60506   3.429   2.807   3.398 -0.5031 -0.1537  0.3614
  459MOL0     N60507   3.460   2.807   3.526  0.3816 -0.2574  0.1677
  459MOL0     C60508   4.587   2.808   4.221  0.2748 -0.3181  0.3673
  459MOL0     C60509   4.725   2.791   4.185 -0.2815 -0.8782 -0.6998
  459MOL0     C60510   5.127   2.671   4.052  0.2240  0.9704 -0.7404
  459MOL0     C60511   5.165   2.539   4.088 -0.7854 -0.3950  0.3561
  459MOL0     C60512   5.299   2.493   4.076 -0.2694  0.9692  0.0425
  459MOL0     C60513   5.407   2.574   4.029  0.6104 -0.2285 -0.1439
  459MOL0     O60514   5.537   2.525   4.031 -0.2277 -0.6414  0.1156
  459MOL0     C60515   5.636   2.625   4.001 -0.9296 -0.8700 -0.1035
  459MOL0     C60516   5.779   2.591   4.046  0.0921  0.2009  0.5873
  459MOL0     C60517   5.871   2.707   4.016  0.0977  0.2383  0.1361
  459MOL0     C60518   6.019   2.684   4.042  0.3368  0.8072  0.5132
  459MOL0     C60519   6.099   2.801   4.008  0.6742 -0.7879 -0.0828
  459MOL0     C60520   6.150   2.906   3.972  0.1740  1.2167 -0.2706
  459MOL0     C60521   5.365   2.706   3.980 -0.8023  0.1055 -0.1996
  459MOL0     C60522   5.228   2.746   3.983  0.2143 -0.4334  0.4098
  459MOL0     H60523   4.688   2.467   4.079  2.0334  0.0037  0.5561
  459MOL0     H60524   4.445   2.521   4.140  0.0880  0.1888 -1.4176
  459MOL0     H60525   4.335   2.794   4.040 -3.6823  2.6005 -1.9729
  459MOL0     H60526   4.280   2.902   4.164  0.6822  0.6144 -1.3940
  459MOL0     H60527   4.120   2.687   4.225  0.5017  1.4812  0.4586
  459MOL0     H60528   4.172   2.624   4.080  1.3573 -1.4534  3.2206
  459MOL0     H60529   4.061   2.831   3.956 -2.3021  1.3834 -0.4319
  459MOL0     H60530   4.044   2.887   4.132 -2.5622 -0.3714  1.3755
  459MOL0     H60531   3.919   2.628   4.045  2.2478  1.5720 -1.3015
  459MOL0     H60532   3.879   2.740   4.173  1.8479  1.5207  0.3981
  459MOL0     H60533   3.760   2.874   3.963 -0.2735  0.1464 -5.1655
  459MOL0     H60534   3.711   2.705   3.975 -0.2127  0.3131 -0.6129
  459MOL0     H60535   3.907   2.646   3.828 -1.0718 -0.6047  0.4336
  459MOL0     H60536   3.911   2.824   3.772 -1.1293  1.0206 -0.0051
  459MOL0     H60537   3.791   2.687   3.613 -2.7985 -0.7961 -1.0900
  459MOL0     H60538   3.683   2.630   3.741  2.5835 -2.3407 -0.2107
  459MOL0     H60539   3.736   2.921   3.654  0.4120 -0.2360 -1.1440
  459MOL0     H60540   3.591   2.861   3.752 -1.6905 -1.1203 -1.8063
  459MOL0     H60541   3.753   2.872   3.400 -0.2836  0.9942  2.3433
  459MOL0     H60542   3.475   2.816   3.138  0.3511  1.1768 -0.8670
  459MOL0     H60543   3.653   2.800   3.156  0.9353 -0.6490  0.3455
  459MOL0     H60544   3.660   3.045   3.206 -0.9545  0.9608  1.7397
  459MOL0     H60545   3.496   3.064   3.180  1.3683  0.0582  2.5551
  459MOL0     H60546   3.684   2.953   2.968 -0.3761  0.3197 -0.9829
  459MOL0     H60547   3.521   3.009   2.932 -1.7373  0.0732  1.7446
  459MOL0     H60548   3.748   3.197   3.030  2.0044 -3.3573 -0.3588
  459MOL0     H60549   3.593   3.232   2.951 -2.1313 -2.5561 -1.8230
  459MOL0     H60550   3.480   3.229   2.785  0.1999 -0.6913 -0.4311
  459MOL0     H60551   3.361   3.209   2.583  0.9346  0.0471 -0.1090
  459MOL0     H60552   3.319   2.875   2.278 -1.5783 -0.2432  1.2983
  459MOL0     H60553   3.200   2.773   2.105 -1.5904 -0.9117  0.4992
  459MOL0     H60554   3.053   2.698   1.968 -0.3443 -1.9965 -3.3858
  459MOL0     H60555   3.135   2.775   1.841  0.8648  1.7795  1.8268
  459MOL0     H60556   2.942   2.767   1.700  3.2398  2.0660  1.3183
  459MOL0     H60557   2.833   2.710   1.842  0.1405 -3.5801  1.5619
  459MOL0     H60558   3.058   2.564   1.688 -1.9563  0.4396 -2.6371
  459MOL0     H60559   2.888   2.528   1.694 -1.8928  0.7534  3.1233
  459MOL0     H60560   3.085   2.478   1.936 -0.0334  2.7771 -0.1600
  459MOL0     H60561   2.918   2.480   1.963 -0.4552  0.4070  0.1873
  459MOL0     H60562   3.044   2.312   1.750  0.1556  2.0707 -0.3575
  459MOL0     H60563   2.867   2.316   1.794 -1.5591  4.3058  1.7523
  459MOL0     H60564   2.968   2.254   2.023 -0.0010  0.5990 -0.3205
  459MOL0     H60565   3.113   2.200   1.950 -0.6417  0.4105  0.6868
  459MOL0     H60566   2.976   2.016   1.978 -0.5998  2.0071  1.9476
  459MOL0     H60567   2.836   2.091   1.898  0.1887  2.6301 -2.1694
  459MOL0     H60568   2.930   2.071   1.677  1.0608  1.8679  0.4379
  459MOL0     H60569   2.959   1.914   1.760  1.1588 -0.9368  1.6547
  459MOL0     H60570   3.001   3.155   2.025 -1.6491 -2.2844  0.9094
  459MOL0     H60571   3.154   3.244   2.200 -1.9062 -0.6556  2.3396
  459MOL0     H60572   3.704   3.059   2.386  1.4485 -0.3354  0.2864
  459MOL0     H60573   3.834   3.095   2.594  0.4239  1.5768 -0.5821
  459MOL0     H60574   4.559   2.909   4.251  5.0090  1.6025 -0.6718
  459MOL0     H60575   4.790   2.876   4.201 -2.5006  0.8756 -0.5064
  459MOL0     H60576   5.093   2.462   4.110  1.1481 -3.5535 -3.1516
  459MOL0     H60577   5.323   2.392   4.108  0.3851  1.3240  0.6844
  459MOL0     H60578   5.599   2.723   4.033 -1.9166 -1.1338 -0.4098
  459MOL0     H60579   5.644   2.647   3.894  0.9146  1.4935  0.4229
  459MOL0     H60580   5.776   2.565   4.153  0.5654  0.3562  0.6409
  459MOL0     H60581   5.812   2.499   3.996  3.8181  0.5056  2.1109
  459MOL0     H60582   5.836   2.775   4.094  0.0693 -0.0789  0.4033
  459MOL0     H60583   5.860   2.744   3.913  2.4536 -2.4231 -1.2229
  459MOL0     H60584   6.031   2.660   4.148 -2.4642  0.5444  0.8379
  459MOL0     H60585   6.055   2.607   3.974  0.6133  1.6389 -0.3027
  459MOL0     H60586   6.198   2.997   3.942  0.4687  0.7691 -1.1966
  459MOL0     H60587   5.434   2.788   3.961 -0.6867  0.5909  1.9714
  459MOL0     H60588   5.201   2.834   3.926 -2.6799  0.2361  2.6027
  460MOL0     O60589   4.939   0.237   4.651 -0.2423 -0.1473  0.3727
  460MOL0     C60590   4.943   0.125   4.593  0.3026  0.5523  0.0421
  460MOL0     O60591   4.840   0.056   4.533  0.1912  0.4963  0.1155
  460MOL0     C60592   4.714   0.116   4.535  0.5074 -0.4297  0.5132
  460MOL0     C60593   4.617   0.081   4.632 -0.3971  0.5667 -0.2029
  460MOL0     C60594   4.493   0.143   4.637 -0.1486 -0.0976 -0.2643
  460MOL0     C60595   4.470   0.249   4.549 -0.3480 -0.0172 -0.5080
  460MOL0     O60596   4.354   0.318   4.543 -0.4964  0.2236 -0.2336
  460MOL0     C60597   4.253   0.242   4.468 -0.0372  0.0003  0.3236
  460MOL0     C60598   4.130   0.338   4.454 -0.3210  0.3157  0.4587
  460MOL0     C60599   4.012   0.250   4.398  0.2752 -0.6121  0.8682
  460MOL0     C60600   3.883   0.337   4.409 -0.5276  0.3021  0.3242
  460MOL0     C60601   3.762   0.259   4.355 -0.0849 -0.1755  0.0105
  460MOL0     C60602   3.641   0.357   4.376  0.2971 -0.9407 -0.2240
  460MOL0     C60603   3.505   0.281   4.361  0.6291  0.1800 -0.5859
  460MOL0     C60604   3.388   0.392   4.371 -0.4407  1.0047  0.3521
  460MOL0     N60605   3.252   0.348   4.333 -0.3588  0.1761  0.1729
  460MOL0     C60606   3.133   0.430   4.339  0.0149 -0.2851 -0.0876
  460MOL0     C60607   3.041   0.351   4.293 -1.1974  0.1039  0.4958
  460MOL0     C60608   2.895   0.392   4.266  0.3257 -0.2726  0.2333
  460MOL0     C60609   2.786   0.316   4.344 -0.4865  0.5579 -0.7329
  460MOL0     C60610   2.645   0.363   4.323  0.9109 -0.0767  0.5286
  460MOL0     C60611   2.543   0.289   4.403  0.3358 -0.7334 -0.7835
  460MOL0     O60612   2.408   0.341   4.398 -0.0920  0.4989  0.5684
  460MOL0     C60613   2.320   0.302   4.497 -0.4200  0.1732 -0.2586
  460MOL0     C60614   2.224   0.399   4.533  0.1111 -0.1934 -0.2492
  460MOL0     C60615   2.128   0.370   4.633  0.1550  0.2613 -0.0455
  460MOL0     C60616   2.116   0.251   4.697  0.4352  0.3312 -0.7695
  460MOL0     C60617   1.997   0.204   4.778 -0.9938  0.2252 -0.7835
  460MOL0     O60618   1.886   0.285   4.761 -0.0910  0.7055 -0.3608
  460MOL0     C60619   1.766   0.241   4.818 -0.3979  1.0002  0.3820
  460MOL0     C60620   1.658   0.219   4.739  0.2807 -0.3558 -0.5859
  460MOL0     C60621   1.539   0.160   4.783  0.1563 -0.0390 -0.3987
  460MOL0     C60622   1.528   0.120   4.920  0.6673  0.2456  0.0060
  460MOL0     O60623   1.406   0.080   4.967 -0.2790 -0.2980 -0.2456
  460MOL0     C60624   1.370   0.122   5.097  0.5228 -0.5419  0.4164
  460MOL0     C60625   1.211   0.132   5.095 -0.5820  0.9022 -0.4382
  460MOL0     C60626   1.164   0.184   5.236  0.0169  0.8539  0.1505
  460MOL0     C60627   1.012   0.221   5.236 -0.1223 -0.8907 -0.6167
  460MOL0     C60628   0.915   0.110   5.263  0.9230  0.1868 -0.0617
  460MOL0     C60629   0.772   0.184   5.288  0.8430  0.2976  0.1651
  460MOL0     C60630   0.656   0.083   5.324  0.3752  0.8143 -0.7212
  460MOL0     C60631   0.643   0.043   5.474  0.7403 -1.2283  0.2718
  460MOL0    Cl60632   0.571   0.161   5.595 -0.0464 -0.4756  0.1645
  460MOL0     C60633   1.641   0.142   5.007 -0.4311 -1.2263  0.7983
  460MOL0     C60634   1.750   0.214   4.957 -0.2870  0.1914 -0.9219
  460MOL0     O60635   2.000   0.098   4.840  0.5069 -0.4656  0.4563
  460MOL0     C60636   2.217   0.157   4.658 -0.7221 -0.2382 -0.8404
  460MOL0     C60637   2.321   0.180   4.564  0.1312  0.6762  0.8596
  460MOL0     N60638   3.092   0.223   4.266 -0.6488  0.5066 -0.0661
  460MOL0     N60639   3.220   0.217   4.295  0.0762 -0.0617 -0.0719
  460MOL0     C60640   4.574   0.298   4.471  0.3181 -0.5339  0.3728
  460MOL0     C60641   4.702   0.232   4.462 -0.0753 -0.4896 -0.1589
  460MOL0     C60642   5.074   0.062   4.613 -0.5456  0.2447  0.3568
  460MOL0     C60643   5.182   0.123   4.684  0.2071  0.0817 -0.6934
  460MOL0     C60644   5.317   0.071   4.670 -0.6318 -0.3002  0.3275
  460MOL0     C60645   5.341  -0.050   4.601 -0.1591  0.3141 -0.4413
  460MOL0     O60646   5.461  -0.095   4.572  0.5531  0.3714  0.3640
  460MOL0     C60647   5.579  -0.041   4.629  0.0520  0.2607 -0.1424
  460MOL0     C60648   5.683  -0.150   4.633  0.2447 -0.5505  0.4193
  460MOL0     C60649   5.816  -0.092   4.692 -0.3238  0.8128  0.6986
  460MOL0     C60650   5.934  -0.178   4.656  0.5684  0.0029  0.2728
  460MOL0     C60651   5.936  -0.317   4.709  0.4390 -0.3034  0.0106
  460MOL0     C60652   5.922  -0.431   4.754 -0.4129 -0.4426 -0.2373
  460MOL0     C60653   5.228  -0.114   4.542 -0.6037  0.1347  0.2493
  460MOL0     C60654   5.100  -0.059   4.540  0.1395 -0.5262  0.2250
  460MOL0     H60655   4.647  -0.006   4.689 -0.0104  0.9016  0.1185
  460MOL0     H60656   4.404   0.100   4.682 -0.0541 -2.2803 -1.9697
  460MOL0     H60657   4.226   0.145   4.511  2.4459 -1.7366 -1.7187
  460MOL0     H60658   4.288   0.218   4.367 -3.6028  1.4812 -1.4720
  460MOL0     H60659   4.161   0.430   4.404  2.5262 -1.3934 -1.2148
  460MOL0     H60660   4.100   0.372   4.553 -2.0100 -3.2760  1.3655
  460MOL0     H60661   4.000   0.156   4.452 -0.4671 -1.0761 -0.0676
  460MOL0     H60662   4.034   0.229   4.293  1.8967 -0.4161  1.1363
  460MOL0     H60663   3.867   0.367   4.513 -0.3299  0.0711  0.4222
  460MOL0     H60664   3.906   0.432   4.360 -1.9387  0.6899  0.3647
  460MOL0     H60665   3.757   0.175   4.425 -0.1546 -0.5348 -0.4229
  460MOL0     H60666   3.766   0.235   4.249  1.9822  3.3140 -0.8381
  460MOL0     H60667   3.638   0.449   4.317 -2.9778 -1.1554 -0.5776
  460MOL0     H60668   3.655   0.383   4.482  1.0075  1.2925 -0.8073
  460MOL0     H60669   3.514   0.235   4.262 -0.0482  1.9439 -1.5071
  460MOL0     H60670   3.481   0.201   4.432 -0.1972  1.4505  0.6227
  460MOL0     H60671   3.412   0.474   4.303 -0.2605 -1.3228 -2.6001
  460MOL0     H60672   3.388   0.427   4.475  0.0022  1.3521  0.2401
  460MOL0     H60673   3.127   0.533   4.371  1.2695 -0.6312  1.3771
  460MOL0     H60674   2.872   0.366   4.162 -4.3374  3.8565 -0.1264
  460MOL0     H60675   2.887   0.500   4.272 -0.4023 -0.0540 -2.8457
  460MOL0     H60676   2.808   0.319   4.451 -2.1660 -4.7166  0.1105
  460MOL0     H60677   2.801   0.211   4.317  0.7039  1.2360 -2.9625
  460MOL0     H60678   2.626   0.470   4.334 -0.0583 -0.2133  0.2761
  460MOL0     H60679   2.611   0.332   4.223  0.7306  1.0721  0.2126
  460MOL0     H60680   2.579   0.303   4.505 -0.1596 -0.9627 -0.5728
  460MOL0     H60681   2.546   0.183   4.376  2.4012 -1.1323  0.7990
  460MOL0     H60682   2.227   0.493   4.479  1.2391  0.5272  1.0196
  460MOL0     H60683   2.062   0.451   4.663 -0.2960  0.8862 -2.4809
  460MOL0     H60684   1.676   0.251   4.636 -0.1895  1.5129 -0.1237
  460MOL0     H60685   1.452   0.138   4.723 -0.7235 -0.7060  1.0739
  460MOL0     H60686   1.424   0.213   5.125 -0.3244  0.0601  0.1633
  460MOL0     H60687   1.403   0.044   5.166 -1.0550 -0.4800  1.2798
  460MOL0     H60688   1.188   0.026   5.080  0.9692  0.6807 -1.5516
  460MOL0     H60689   1.170   0.189   5.011 -1.5753 -0.0948 -0.6485
  460MOL0     H60690   1.214   0.277   5.264 -0.5251  0.8332  1.2555
  460MOL0     H60691   1.179   0.116   5.320  1.8700  1.3103  0.2314
  460MOL0     H60692   1.007   0.286   5.324  0.5716  0.6842 -1.6918
  460MOL0     H60693   0.992   0.279   5.145  4.7681  1.0815 -0.7640
  460MOL0     H60694   0.940   0.056   5.354  1.5784  0.9375  0.2103
  460MOL0     H60695   0.907   0.038   5.181 -1.2293  0.1926  0.0969
  460MOL0     H60696   0.750   0.236   5.194  0.3104 -1.0496 -0.4834
  460MOL0     H60697   0.777   0.257   5.369 -0.0463  2.3389 -1.5307
  460MOL0     H60698   0.562   0.129   5.294 -1.5124 -0.3005  2.8753
  460MOL0     H60699   0.660  -0.009   5.265  2.6595  0.1641  0.3042
  460MOL0     H60700   0.738   0.021   5.523  1.3363 -1.7029 -1.0708
  460MOL0     H60701   0.580  -0.046   5.483  0.6670 -1.1396  0.6853
  460MOL0     H60702   1.639   0.128   5.114  0.9951  2.2426  1.4085
  460MOL0     H60703   1.836   0.238   5.019  0.8397 -2.9330 -1.1028
  460MOL0     H60704   2.208   0.058   4.702  0.2426  0.7794  1.8225
  460MOL0     H60705   2.387   0.099   4.538 -0.4625  0.8287 -1.3401
  460MOL0     H60706   4.557   0.386   4.410  1.0239 -0.9698 -0.4600
  460MOL0     H60707   4.781   0.282   4.407 -0.3617  1.0026  0.7322
  460MOL0     H60708   5.166   0.220   4.731 -2.9092  0.4789 -2.3308
  460MOL0     H60709   5.395   0.133   4.714 -0.2088  0.1391 -1.0052
  460MOL0     H60710   5.563  -0.011   4.733 -0.4131 -2.1208  0.5440
  460MOL0     H60711   5.612   0.051   4.580  3.4371 -0.2350  0.9400
  460MOL0     H60712   5.647  -0.229   4.699 -2.4711 -0.0561 -0.3450
  460MOL0     H60713   5.685  -0.194   4.533 -0.4009 -0.6148  0.4289
  460MOL0     H60714   5.816  -0.095   4.802  1.8664 -0.7997  0.7154
  460MOL0     H60715   5.848   0.005   4.655  0.3143  0.3837  0.1229
  460MOL0     H60716   5.955  -0.183   4.549  4.8393 -0.0613  0.9546
  460MOL0     H60717   6.023  -0.135   4.704  0.2406  1.1744 -0.1287
  460MOL0     H60718   5.908  -0.531   4.789  0.5302 -0.7166 -0.6136
  460MOL0     H60719   5.249  -0.206   4.487  0.9353  0.5444  0.1170
  460MOL0     H60720   5.016  -0.099   4.484 -1.3034  1.6950  0.6709
  461MOL0     O60721   1.757   7.650   2.922 -0.7663 -0.2479  0.7089
  461MOL0     C60722   1.834   7.568   2.978 -0.5503 -0.8987  0.1561
  461MOL0     O60723   1.804   7.457   3.053  0.2133  0.4306 -0.4164
  461MOL0     C60724   1.671   7.443   3.092 -0.1152  0.0856  0.5474
  461MOL0     C60725   1.647   7.418   3.233 -0.2465 -0.5411 -0.4188
  461MOL0     C60726   1.517   7.410   3.276  1.0663  0.1798  1.2396
  461MOL0     C60727   1.406   7.404   3.184  0.2747 -0.0829  0.5664
  461MOL0     O60728   1.267   7.382   3.211 -0.1828 -0.4695 -0.5422
  461MOL0     C60729   1.240   7.358   3.351 -0.2345 -0.5742  0.6936
  461MOL0     C60730   1.081   7.378   3.356 -0.8702  0.0141  0.1313
  461MOL0     C60731   1.014   7.356   3.496 -0.0253 -1.0525 -0.3387
  461MOL0     C60732   0.862   7.334   3.489 -0.0190 -0.1175 -0.3389
  461MOL0     C60733   0.812   7.280   3.623 -0.1836 -0.6474 -0.0980
  461MOL0     C60734   0.660   7.222   3.612 -0.7687  0.0524 -0.1044
  461MOL0     C60735   0.616   7.147   3.738 -0.4951  0.3752 -0.6418
  461MOL0     C60736   0.649   7.217   3.867 -0.0245  0.1805 -0.0548
  461MOL0     N60737   0.571   7.339   3.886 -0.5870 -0.3468 -0.3972
  461MOL0     C60738   0.433   7.337   3.909 -0.7814 -0.2846  0.3994
  461MOL0     C60739   0.401   7.472   3.928 -0.0243 -0.5243 -0.1111
  461MOL0     C60740   0.252   7.524   3.956 -0.0783 -0.2557 -0.1887
  461MOL0     C60741   0.177   7.566   3.826 -0.1553 -0.0591 -0.2814
  461MOL0     C60742   0.036   7.620   3.871 -1.0107  0.9901 -0.0224
  461MOL0     C60743  -0.052   7.669   3.761 -0.3238 -0.0738  0.0368
  461MOL0     O60744  -0.179   7.723   3.813 -0.0848 -0.0779 -0.8940
  461MOL0     C60745  -0.298   7.660   3.820 -0.0769  0.3378 -0.0424
  461MOL0     C60746  -0.315   7.524   3.828 -0.1983 -0.1445  0.9338
  461MOL0     C60747  -0.430   7.459   3.840 -0.5456 -0.7699 -0.4322
  461MOL0     C60748  -0.548   7.540   3.851 -0.1946  0.7876  0.3201
  461MOL0     C60749  -0.681   7.485   3.877  0.1548  0.7226 -0.0540
  461MOL0     O60750  -0.775   7.556   3.956 -1.0452  0.8378  0.5091
  461MOL0     C60751  -0.873   7.480   4.013  0.4531  0.9130  0.4292
  461MOL0     C60752  -0.853   7.366   4.090  0.7225  0.6527  0.0625
  461MOL0     C60753  -0.957   7.293   4.146 -0.2126  0.6485  0.4364
  461MOL0     C60754  -1.086   7.333   4.122  0.1999  0.7439 -0.8260
  461MOL0     O60755  -1.189   7.264   4.184  0.7985 -0.2427  0.7570
  461MOL0     C60756  -1.185   7.232   4.322 -0.5428 -0.3377  0.1567
  461MOL0     C60757  -1.316   7.271   4.384  0.0196 -0.6806  1.0123
  461MOL0     C60758  -1.426   7.188   4.323 -0.1208  0.3988  0.9972
  461MOL0     C60759  -1.548   7.162   4.405  0.2258 -0.3011 -0.0885
  461MOL0     C60760  -1.681   7.122   4.329 -0.8765  0.0594 -0.2969
  461MOL0     C60761  -1.679   6.991   4.249 -0.3741  0.1922 -0.2503
  461MOL0     C60762  -1.821   6.977   4.191 -0.8745 -0.1988  0.3876
  461MOL0     C60763  -1.834   6.850   4.104  0.2438 -0.3545  0.2956
  461MOL0    Cl60764  -2.020   6.812   4.078 -0.0840  0.0471 -0.6410
  461MOL0     C60765  -1.113   7.429   4.026  0.6289 -0.1913 -0.1259
  461MOL0     C60766  -1.006   7.505   3.974  0.6318  0.2102  0.2897
  461MOL0     O60767  -0.694   7.367   3.829 -0.9137  0.2363 -0.0156
  461MOL0     C60768  -0.541   7.679   3.829 -0.8388  0.0846  0.4402
  461MOL0     C60769  -0.413   7.742   3.827 -0.0320 -0.2241 -0.6154
  461MOL0     N60770   0.511   7.550   3.893  0.1538 -0.0929 -0.3569
  461MOL0     N60771   0.615   7.471   3.866 -0.2097  0.2134 -0.0698
  461MOL0     C60772   1.431   7.419   3.047  0.1689 -0.0491 -0.5281
  461MOL0     C60773   1.557   7.438   3.000  0.1907  0.2880 -0.2572
  461MOL0     C60774   1.980   7.583   2.959 -0.1854 -0.5986  0.0014
  461MOL0     C60775   2.025   7.678   2.870  0.1489 -0.5328  0.0288
  461MOL0     C60776   2.159   7.684   2.834  0.5242  0.2208  0.6892
  461MOL0     C60777   2.257   7.610   2.899 -0.1232 -0.1854 -0.4119
  461MOL0     O60778   2.392   7.621   2.864 -0.3119 -0.1996  0.3851
  461MOL0     C60779   2.415   7.650   2.725  0.0894  1.2533 -1.1195
  461MOL0     C60780   2.543   7.575   2.690 -0.0953  0.8060  0.9922
  461MOL0     C60781   2.637   7.651   2.599 -0.9202 -0.4546 -0.0264
  461MOL0     C60782   2.761   7.575   2.545  0.5814 -0.2424 -0.8518
  461MOL0     C60783   2.729   7.448   2.487  0.7024 -0.0906  0.4534
  461MOL0     C60784   2.703   7.341   2.435  0.0714 -1.0801 -0.1116
  461MOL0     C60785   2.210   7.520   3.000 -0.4180 -0.4662  0.2878
  461MOL0     C60786   2.073   7.505   3.026  0.6346 -0.7358 -0.3828
  461MOL0     H60787   1.728   7.403   3.303  0.3561  0.3319 -0.9160
  461MOL0     H60788   1.483   7.394   3.378 -1.3196 -1.2953  0.2966
  461MOL0     H60789   1.282   7.428   3.424  1.0960  0.2195 -0.7762
  461MOL0     H60790   1.276   7.256   3.368  0.5821 -0.5020 -0.4843
  461MOL0     H60791   1.049   7.303   3.283 -1.3399  1.0476 -0.7566
  461MOL0     H60792   1.058   7.477   3.316  2.3789 -0.1273 -2.5118
  461MOL0     H60793   1.032   7.441   3.563  0.4746 -1.1944 -0.2936
  461MOL0     H60794   1.049   7.265   3.545  1.2258 -0.1049  0.6150
  461MOL0     H60795   0.803   7.426   3.480 -2.7107 -1.5639  1.2082
  461MOL0     H60796   0.847   7.275   3.399  3.3049  3.7714 -3.8911
  461MOL0     H60797   0.822   7.370   3.685  0.3143 -1.0827  0.4576
  461MOL0     H60798   0.886   7.211   3.663  2.2404  2.1047  0.5627
  461MOL0     H60799   0.648   7.142   3.539 -0.9394 -1.4000  1.4453
  461MOL0     H60800   0.586   7.293   3.574  0.1574  0.6907 -0.7570
  461MOL0     H60801   0.508   7.130   3.733 -0.8864  0.3623  4.0800
  461MOL0     H60802   0.660   7.046   3.735 -1.3037 -0.1010  1.6010
  461MOL0     H60803   0.757   7.236   3.873  0.5215 -2.8794  1.4954
  461MOL0     H60804   0.618   7.158   3.953 -0.6449  0.6678  0.0680
  461MOL0     H60805   0.365   7.252   3.908 -2.7515  1.1972 -2.1979
  461MOL0     H60806   0.250   7.592   4.041 -0.2245 -2.4984  1.7204
  461MOL0     H60807   0.186   7.446   3.996  0.8292 -0.4027  1.0732
  461MOL0     H60808   0.172   7.478   3.761  0.7282 -0.0291 -0.3891
  461MOL0     H60809   0.223   7.655   3.783 -3.3550  0.5211 -2.9973
  461MOL0     H60810  -0.032   7.547   3.916 -2.0875  1.6302 -0.5607
  461MOL0     H60811   0.043   7.704   3.941 -0.8153  0.3368  0.7510
  461MOL0     H60812  -0.072   7.589   3.690 -1.0936  0.1995 -0.0629
  461MOL0     H60813   0.007   7.746   3.710 -1.6576  1.7187  1.0879
  461MOL0     H60814  -0.214   7.485   3.815 -0.2708 -0.0020 -0.0934
  461MOL0     H60815  -0.455   7.354   3.840 -0.5676 -0.7772 -1.5554
  461MOL0     H60816  -0.754   7.335   4.123  0.9537 -1.6933 -2.4875
  461MOL0     H60817  -0.931   7.203   4.201  2.9436 -0.8331 -3.1041
  461MOL0     H60818  -1.108   7.295   4.368  0.4313 -1.2557 -0.1688
  461MOL0     H60819  -1.158   7.127   4.335  1.0982 -0.1085 -1.0363
  461MOL0     H60820  -1.327   7.379   4.383  1.5280 -0.5119 -0.3732
  461MOL0     H60821  -1.308   7.244   4.490 -2.0886  0.5087  1.5307
  461MOL0     H60822  -1.388   7.094   4.281  0.3639  1.7013 -1.6517
  461MOL0     H60823  -1.451   7.245   4.233  0.5808 -3.8415 -2.2098
  461MOL0     H60824  -1.519   7.079   4.469  4.4220  0.6246 -0.5123
  461MOL0     H60825  -1.569   7.259   4.451  1.3673  0.2691 -0.7063
  461MOL0     H60826  -1.687   7.204   4.257 -3.7215 -0.0942 -0.3181
  461MOL0     H60827  -1.767   7.126   4.396  0.4671 -1.1037  1.5878
  461MOL0     H60828  -1.662   6.907   4.317 -2.4723  1.6346  2.2355
  461MOL0     H60829  -1.605   6.990   4.168 -0.9006  0.5622 -0.7443
  461MOL0     H60830  -1.898   6.970   4.268  0.3277 -0.3609  1.6053
  461MOL0     H60831  -1.852   7.060   4.126  0.1856 -3.1330 -4.3321
  461MOL0     H60832  -1.788   6.775   4.169 -2.0874 -0.2358  2.2139
  461MOL0     H60833  -1.779   6.866   4.011 -1.9675  3.2065 -0.5802
  461MOL0     H60834  -1.214   7.444   3.990  0.0943 -0.3959  1.2220
  461MOL0     H60835  -1.028   7.586   3.905 -3.5323 -0.9079  0.0606
  461MOL0     H60836  -0.624   7.748   3.822  1.0350  2.4672  0.6048
  461MOL0     H60837  -0.403   7.850   3.833  1.6572 -0.4032  0.4003
  461MOL0     H60838   1.340   7.415   2.988 -0.3917 -1.2056  0.3564
  461MOL0     H60839   1.557   7.428   2.892 -0.6586 -3.8889 -0.0326
  461MOL0     H60840   1.964   7.749   2.815 -0.9712 -2.5299 -1.4834
  461MOL0     H60841   2.183   7.762   2.762  3.3051 -2.6345 -1.8038
  461MOL0     H60842   2.426   7.758   2.711  3.2709  1.2627  0.6186
  461MOL0     H60843   2.327   7.616   2.669 -0.8532  1.2755  0.2899
  461MOL0     H60844   2.606   7.547   2.774 -2.1875  1.7002  2.9610
  461MOL0     H60845   2.510   7.482   2.642  0.3177  1.3695 -0.4464
  461MOL0     H60846   2.678   7.738   2.652  1.6164 -0.4005 -1.9142
  461MOL0     H60847   2.570   7.690   2.522 -4.6455 -2.5877  1.8040
  461MOL0     H60848   2.814   7.646   2.480  1.0719  1.3660  1.2032
  461MOL0     H60849   2.835   7.559   2.624  0.1461 -1.0759 -0.6078
  461MOL0     H60850   2.682   7.248   2.387 -0.5404 -1.5934  1.1115
  461MOL0     H60851   2.277   7.460   3.060  1.0427 -3.1863 -3.6886
  461MOL0     H60852   2.043   7.425   3.092 -1.9438  0.4693  0.0140
  462MOL0     O60853   9.503   4.815  11.007  0.0180  0.0290 -0.3670
  462MOL0     C60854   9.546   4.741  10.916 -0.9036 -1.0389 -0.5596
  462MOL0     O60855   9.473   4.645  10.859 -0.3156 -0.0187 -0.0492
  462MOL0     C60856   9.385   4.580  10.941  0.3756 -1.0195 -0.0017
  462MOL0     C60857   9.258   4.632  10.946 -0.5362  0.2382  0.3429
  462MOL0     C60858   9.159   4.566  11.014  0.2289 -1.2665  0.3635
  462MOL0     C60859   9.188   4.456  11.095  0.0693  0.5136 -0.0211
  462MOL0     O60860   9.102   4.386  11.171 -0.0646 -0.1849  0.5036
  462MOL0     C60861   8.971   4.380  11.106 -0.2234 -0.3646 -0.2483
  462MOL0     C60862   8.902   4.254  11.156 -0.5803  0.6717  1.1798
  462MOL0     C60863   8.762   4.239  11.096 -0.2341 -0.0059 -1.0029
  462MOL0     C60864   8.699   4.118  11.179  0.0968 -0.9710 -0.6287
  462MOL0     C60865   8.553   4.085  11.136 -0.2776 -0.2668  0.5959
  462MOL0     C60866   8.491   3.954  11.196  0.7034  0.1591 -0.5448
  462MOL0     C60867   8.346   3.957  11.152  0.7351  0.4153 -0.1671
  462MOL0     C60868   8.264   3.840  11.200 -0.1486  0.8450 -0.2711
  462MOL0     N60869   8.117   3.841  11.172 -0.5189 -0.4798  1.0823
  462MOL0     C60870   8.044   3.728  11.144 -0.1805 -1.0953 -0.5034
  462MOL0     C60871   7.912   3.765  11.162  0.8589 -0.1949 -0.4515
  462MOL0     C60872   7.803   3.661  11.151  0.1708 -0.2462  0.4846
  462MOL0     C60873   7.674   3.705  11.071 -0.4441 -0.3954  0.8972
  462MOL0     C60874   7.575   3.587  11.050 -0.2741  0.1558 -0.8704
  462MOL0     C60875   7.536   3.517  11.189 -0.1378 -0.0535 -0.2830
  462MOL0     O60876   7.439   3.407  11.162 -0.2042  1.0800  0.4513
  462MOL0     C60877   7.341   3.425  11.072 -0.0094 -0.4003  0.5843
  462MOL0     C60878   7.351   3.373  10.951 -0.0891  0.1715  1.0960
  462MOL0     C60879   7.247   3.388  10.866 -0.3881 -1.3206  0.1686
  462MOL0     C60880   7.133   3.448  10.901  0.2024  0.8752  0.4228
  462MOL0     C60881   7.025   3.458  10.796 -0.9763  0.0920 -0.5303
  462MOL0     O60882   6.899   3.483  10.831 -0.2905 -0.6589 -0.0978
  462MOL0     C60883   6.796   3.469  10.749 -0.3675  0.6339  0.0281
  462MOL0     C60884   6.786   3.363  10.653 -0.7564  0.7750  1.0535
  462MOL0     C60885   6.665   3.328  10.595 -0.4103 -0.7901  0.9355
  462MOL0     C60886   6.557   3.400  10.625  0.1597  0.4239  0.2480
  462MOL0     O60887   6.445   3.364  10.553  0.3318  0.2734 -0.0017
  462MOL0     C60888   6.327   3.440  10.571 -0.2569 -0.7304  0.1442
  462MOL0     C60889   6.257   3.410  10.701 -0.5191 -0.1377  0.0009
  462MOL0     C60890   6.145   3.510  10.737 -0.3821 -0.3716  0.3173
  462MOL0     C60891   6.088   3.489  10.873  0.0738 -0.0867 -1.0938
  462MOL0     C60892   5.989   3.588  10.912  0.3558 -0.3631  0.3351
  462MOL0     C60893   5.921   3.563  11.044  0.0177  0.0945 -0.0354
  462MOL0     C60894   6.014   3.587  11.171 -0.5526 -0.4091  0.6580
  462MOL0     C60895   5.947   3.557  11.297 -0.1252 -0.3206 -0.6028
  462MOL0    Cl60896   5.912   3.384  11.308 -0.2488 -0.0125 -0.2534
  462MOL0     C60897   6.565   3.501  10.718  0.8667 -0.6973  0.6067
  462MOL0     C60898   6.677   3.529  10.793 -1.6364  0.0012  0.6649
  462MOL0     O60899   7.068   3.457  10.682 -0.4599  0.9867  0.7064
  462MOL0     C60900   7.119   3.506  11.025  0.3423 -0.0672  0.1261
  462MOL0     C60901   7.231   3.494  11.109 -0.3582  0.0903 -0.5020
  462MOL0     N60902   7.908   3.894  11.217 -1.2285  0.3108  0.0153
  462MOL0     N60903   8.027   3.941  11.212  0.1582  0.4043 -0.8026
  462MOL0     C60904   9.316   4.412  11.095  0.2619 -0.3932  0.2701
  462MOL0     C60905   9.420   4.475  11.020  0.6706 -0.8939  0.1894
  462MOL0     C60906   9.674   4.778  10.842 -0.2325  0.3777 -0.6635
  462MOL0     C60907   9.739   4.676  10.770  0.7101 -0.3843  0.1529
  462MOL0     C60908   9.851   4.702  10.696  0.3444  0.3265 -0.0103
  462MOL0     C60909   9.922   4.829  10.712 -0.5119 -0.5393  0.8773
  462MOL0     O60910  10.040   4.872  10.651  0.6060 -0.3086 -0.1491
  462MOL0     C60911  10.107   4.766  10.579  0.1235  0.2730  0.6348
  462MOL0     C60912  10.230   4.831  10.504 -0.0152  0.1633 -0.1556
  462MOL0     C60913  10.202   4.951  10.414 -1.0714 -0.5618 -0.0944
  462MOL0     C60914  10.168   4.919  10.270 -0.2685  0.4445  0.3200
  462MOL0     C60915  10.119   5.032  10.198 -0.1976 -0.2374 -0.5813
  462MOL0     C60916  10.067   5.110  10.125  0.2395 -0.7511  0.1341
  462MOL0     C60917   9.864   4.925  10.798 -0.5959  0.0013 -0.1588
  462MOL0     C60918   9.743   4.902  10.867 -0.5233 -0.3330 -0.0587
  462MOL0     H60919   9.242   4.720  10.883  3.7869  0.2708 -1.0098
  462MOL0     H60920   9.058   4.607  11.016 -0.4277 -2.7690  3.3671
  462MOL0     H60921   8.973   4.389  10.997  1.0059  3.5409 -0.0674
  462MOL0     H60922   8.911   4.464  11.142  1.2765  0.3696  0.6532
  462MOL0     H60923   8.912   4.258  11.265  0.4487 -1.6030  1.2184
  462MOL0     H60924   8.968   4.169  11.135 -1.8948 -0.0249 -0.3038
  462MOL0     H60925   8.774   4.203  10.993 -0.3706 -2.8351 -0.1221
  462MOL0     H60926   8.707   4.334  11.098 -0.3501 -0.0798 -0.4189
  462MOL0     H60927   8.760   4.029  11.161 -0.6635 -1.2332 -2.2124
  462MOL0     H60928   8.691   4.145  11.284  5.0278  0.5291 -0.4335
  462MOL0     H60929   8.547   4.058  11.030 -1.9139 -2.7826  1.2211
  462MOL0     H60930   8.495   4.176  11.150 -1.8768 -0.3824 -3.6136
  462MOL0     H60931   8.481   3.956  11.305 -1.5191 -0.7425 -0.6722
  462MOL0     H60932   8.546   3.867  11.159  1.2923  0.7003 -0.9667
  462MOL0     H60933   8.297   4.043  11.198 -0.2685 -1.8361  3.3633
  462MOL0     H60934   8.333   3.965  11.044  0.3380  3.3040  0.0165
  462MOL0     H60935   8.272   3.837  11.309 -0.1525 -0.4183 -0.2912
  462MOL0     H60936   8.315   3.752  11.160  0.7766  1.7509 -1.1502
  462MOL0     H60937   8.071   3.626  11.120  1.1682 -1.2606  1.5182
  462MOL0     H60938   7.785   3.629  11.255  0.7812 -1.7310  0.1578
  462MOL0     H60939   7.840   3.571  11.101  0.1368 -0.5358  0.9727
  462MOL0     H60940   7.717   3.741  10.978 -3.3831 -2.1623 -1.3056
  462MOL0     H60941   7.629   3.795  11.114 -1.3301  0.0014 -0.7794
  462MOL0     H60942   7.492   3.636  10.999  0.9741  4.5554  0.7875
  462MOL0     H60943   7.619   3.516  10.980 -2.0891  0.3973 -2.3325
  462MOL0     H60944   7.478   3.587  11.251 -0.8206 -2.0962  1.4948
  462MOL0     H60945   7.632   3.476  11.223  0.0885  0.0712 -0.7679
  462MOL0     H60946   7.445   3.332  10.914  0.1500  2.7126 -1.4840
  462MOL0     H60947   7.263   3.367  10.761 -1.0185 -1.8939  0.1836
  462MOL0     H60948   6.869   3.304  10.615 -1.9087  1.0449 -2.1896
  462MOL0     H60949   6.655   3.245  10.526  0.3019 -2.3214  2.5942
  462MOL0     H60950   6.258   3.431  10.487  0.3172 -0.2132 -0.3910
  462MOL0     H60951   6.351   3.547  10.568  0.2920 -0.8371  0.4901
  462MOL0     H60952   6.326   3.404  10.786  1.5838 -3.0419 -1.7309
  462MOL0     H60953   6.216   3.310  10.683  0.2402 -0.5626  0.5501
  462MOL0     H60954   6.067   3.511  10.660  1.2913 -2.7314 -1.5861
  462MOL0     H60955   6.202   3.603  10.734 -0.3306 -0.4160 -0.2682
  462MOL0     H60956   6.036   3.393  10.874 -1.3801  0.6791 -0.3213
  462MOL0     H60957   6.170   3.489  10.946  1.6864 -2.5378 -2.7187
  462MOL0     H60958   5.912   3.578  10.835 -0.0526 -1.3015  0.8542
  462MOL0     H60959   6.037   3.686  10.907 -0.8556  0.2565  0.4441
  462MOL0     H60960   5.873   3.465  11.035  1.3493 -0.6446  0.5001
  462MOL0     H60961   5.843   3.637  11.059 -0.9789 -0.7858 -0.7409
  462MOL0     H60962   6.108   3.530  11.166  1.5689  2.9372 -1.8503
  462MOL0     H60963   6.060   3.686  11.166  2.7171 -1.8120 -0.2424
  462MOL0     H60964   5.863   3.625  11.316 -0.5881 -0.6050 -1.5835
  462MOL0     H60965   6.024   3.589  11.368 -0.7248  1.6444 -0.7800
  462MOL0     H60966   6.480   3.565  10.738  2.4943  1.3186  1.4402
  462MOL0     H60967   6.671   3.598  10.877  1.0605  0.3426  0.6630
  462MOL0     H60968   7.036   3.568  11.056 -0.7196 -1.0613 -0.6118
  462MOL0     H60969   7.246   3.521  11.213  2.2876 -1.1565 -0.4559
  462MOL0     H60970   9.343   4.321  11.147  1.3135 -0.7412 -0.8451
  462MOL0     H60971   9.523   4.445  11.028  1.2937  1.0701  0.1189
  462MOL0     H60972   9.686   4.583  10.752 -1.2901  0.3387  1.8926
  462MOL0     H60973   9.879   4.633  10.617  1.1099  2.2141 -1.4472
  462MOL0     H60974  10.047   4.729  10.496 -0.7624  2.3428  0.2909
  462MOL0     H60975  10.138   4.672  10.627 -2.7150 -2.0247 -1.6464
  462MOL0     H60976  10.303   4.862  10.579 -1.0380  0.4825  0.7318
  462MOL0     H60977  10.265   4.746  10.445 -2.0519 -0.7631 -0.1064
  462MOL0     H60978  10.293   5.010  10.401 -0.5832 -1.4330 -0.6846
  462MOL0     H60979  10.125   5.017  10.456 -0.5030  1.0020 -1.3942
  462MOL0     H60980  10.258   4.873  10.226 -1.3072 -1.5664  0.1700
  462MOL0     H60981  10.086   4.847  10.269  0.0188  0.1136 -0.2066
  462MOL0     H60982  10.023   5.179  10.055 -0.8172 -2.2065 -0.7015
  462MOL0     H60983   9.903   5.026  10.810  0.9282 -0.1607 -2.9006
  462MOL0     H60984   9.695   4.976  10.931 -2.7336 -1.2956 -0.5297
  463MOL0     O60985   1.020   3.289   3.485 -0.5040 -0.4748  0.4981
  463MOL0     C60986   1.086   3.328   3.386  0.7273  0.8471  0.0170
  463MOL0     O60987   1.040   3.394   3.274  0.4900 -0.1603 -0.6868
  463MOL0     C60988   0.900   3.410   3.233 -0.4382 -0.4129 -0.2281
  463MOL0     C60989   0.790   3.339   3.278 -0.0413 -0.0495 -0.1931
  463MOL0     C60990   0.665   3.356   3.217  0.1025  1.3138  0.5366
  463MOL0     C60991   0.652   3.441   3.098  0.4048  1.0973 -0.0454
  463MOL0     O60992   0.527   3.445   3.039  0.2759  0.1554 -0.1791
  463MOL0     C60993   0.518   3.529   2.925 -0.5717  0.3661  0.0955
  463MOL0     C60994   0.384   3.503   2.872 -0.7218 -0.1769 -0.2239
  463MOL0     C60995   0.275   3.581   2.953 -0.0732  1.4115  0.1182
  463MOL0     C60996   0.147   3.571   2.878  0.0491  0.9306 -0.3008
  463MOL0     C60997   0.042   3.670   2.928 -0.6979  0.0596  0.5598
  463MOL0     C60998  -0.097   3.638   2.863  0.0673 -0.3375 -0.2260
  463MOL0     C60999  -0.219   3.732   2.891 -0.2457 -0.5197 -0.1047
  463MOL0     C61000  -0.193   3.882   2.858  0.0340 -0.5636 -0.6976
  463MOL0     N61001  -0.165   3.888   2.717 -0.3271 -0.4505 -0.4872
  463MOL0     C61002  -0.275   3.891   2.633 -1.6658 -0.3917  0.6535
  463MOL0     C61003  -0.222   3.889   2.506 -0.6361  0.3715 -0.2205
  463MOL0     C61004  -0.288   3.890   2.379 -0.1720  0.3135 -0.1678
  463MOL0     C61005  -0.394   3.774   2.362 -0.9841 -0.8401  0.1023
  463MOL0     C61006  -0.530   3.805   2.424 -0.0247 -0.3862  0.5300
  463MOL0     C61007  -0.661   3.746   2.367 -0.7256 -0.4355 -0.0514
  463MOL0     O61008  -0.773   3.804   2.440  0.0597 -0.4107 -0.4290
  463MOL0     C61009  -0.897   3.774   2.393  0.6582 -0.5431 -0.0693
  463MOL0     C61010  -0.938   3.684   2.289 -0.6326  0.1228 -1.1423
  463MOL0     C61011  -1.068   3.686   2.236  0.7916  0.3783  0.4810
  463MOL0     C61012  -1.168   3.760   2.307  0.2474  0.3904  0.7519
  463MOL0     C61013  -1.307   3.776   2.252  1.4085 -0.0710  0.3506
  463MOL0     O61014  -1.332   3.704   2.140 -0.0721  0.6181  0.0460
  463MOL0     C61015  -1.462   3.706   2.087 -0.3665 -0.3241 -0.2467
  463MOL0     C61016  -1.562   3.651   2.169 -0.1579 -0.4365 -1.1123
  463MOL0     C61017  -1.693   3.647   2.125 -0.0917  0.3118 -0.0968
  463MOL0     C61018  -1.729   3.679   1.993  0.1760 -0.0191 -0.7158
  463MOL0     O61019  -1.864   3.675   1.968  0.5224  0.5651 -1.1291
  463MOL0     C61020  -1.916   3.670   1.833 -0.4459  0.1323  1.0661
  463MOL0     C61021  -2.036   3.571   1.822 -0.6535 -0.2741 -0.2932
  463MOL0     C61022  -2.148   3.587   1.925  0.4735 -0.1369  0.4668
  463MOL0     C61023  -2.128   3.505   2.053 -0.4021  0.0717 -0.1641
  463MOL0     C61024  -2.233   3.551   2.156 -0.0451  0.7477 -0.4138
  463MOL0     C61025  -2.197   3.518   2.298  0.4150  0.8003 -0.2915
  463MOL0     C61026  -2.171   3.364   2.325  0.1076 -0.4256 -0.2680
  463MOL0     C61027  -2.151   3.338   2.474  0.3140  0.5759 -0.1291
  463MOL0    Cl61028  -2.126   3.167   2.483  0.3307  0.1147  0.0237
  463MOL0     C61029  -1.628   3.735   1.913 -0.2613 -0.9754  0.3410
  463MOL0     C61030  -1.497   3.756   1.959  0.7414  0.5960  0.8390
  463MOL0     O61031  -1.388   3.865   2.296 -0.1826  0.7147 -0.3896
  463MOL0     C61032  -1.136   3.834   2.424  0.3054 -0.5698  0.6261
  463MOL0     C61033  -1.002   3.853   2.451  0.4488  0.7548 -0.3646
  463MOL0     N61034  -0.084   3.889   2.517 -0.2036  0.0039 -0.5430
  463MOL0     N61035  -0.057   3.885   2.644 -0.0771  0.7091  1.0854
  463MOL0     C61036   0.759   3.521   3.063  0.2991 -0.3026 -0.2725
  463MOL0     C61037   0.882   3.503   3.132  0.1822 -0.1967 -0.1929
  463MOL0     C61038   1.231   3.282   3.380 -0.0121 -0.8485 -0.1569
  463MOL0     C61039   1.304   3.307   3.262  0.0967 -0.2776  0.4733
  463MOL0     C61040   1.435   3.266   3.261 -0.8518  0.3516  0.5894
  463MOL0     C61041   1.499   3.198   3.366  0.9245  0.0693 -0.6429
  463MOL0     O61042   1.636   3.181   3.357  0.1580  0.2487  0.8928
  463MOL0     C61043   1.713   3.171   3.475 -1.0074  0.1383 -0.1744
  463MOL0     C61044   1.872   3.198   3.459  0.1972 -0.1570 -0.6975
  463MOL0     C61045   1.954   3.087   3.386 -0.0362 -0.0179 -0.2222
  463MOL0     C61046   2.106   3.113   3.381  0.6235 -0.2838  0.6716
  463MOL0     C61047   2.134   3.242   3.317 -0.7052  0.8441 -0.1247
  463MOL0     C61048   2.174   3.360   3.285 -0.2430  0.9264 -0.3153
  463MOL0     C61049   1.421   3.169   3.473 -0.2597 -0.6969 -0.9878
  463MOL0     C61050   1.290   3.206   3.485  0.1734 -0.5937  0.0557
  463MOL0     H61051   0.812   3.267   3.356  2.4605 -1.4909 -2.0865
  463MOL0     H61052   0.576   3.296   3.230  0.3792  0.2939 -1.7328
  463MOL0     H61053   0.589   3.501   2.848 -1.4316  1.0494 -0.9705
  463MOL0     H61054   0.529   3.632   2.958  2.5168  0.2990 -0.4397
  463MOL0     H61055   0.355   3.397   2.878  0.2500 -0.4209  0.3470
  463MOL0     H61056   0.379   3.544   2.771  1.4277  1.5183  0.2994
  463MOL0     H61057   0.306   3.685   2.953 -0.2145  1.5732 -3.5875
  463MOL0     H61058   0.264   3.549   3.057  0.5677  0.2395 -0.1589
  463MOL0     H61059   0.155   3.597   2.772 -3.4552 -1.7042 -1.4094
  463MOL0     H61060   0.102   3.472   2.883  1.6823  0.2404  2.7258
  463MOL0     H61061   0.075   3.770   2.899 -0.5650  0.4166  1.8846
  463MOL0     H61062   0.032   3.660   3.037 -1.9956  3.1772  0.8237
  463MOL0     H61063  -0.134   3.542   2.900 -0.1803  0.3908  1.5332
  463MOL0     H61064  -0.087   3.624   2.755  2.0090  3.4060 -0.7167
  463MOL0     H61065  -0.302   3.701   2.827 -0.6533 -0.0532  0.1929
  463MOL0     H61066  -0.245   3.711   2.995  2.2410 -1.0931  0.4772
  463MOL0     H61067  -0.119   3.923   2.928  2.3905 -3.1689 -1.4810
  463MOL0     H61068  -0.283   3.941   2.877  0.3574  0.4408 -2.1664
  463MOL0     H61069  -0.377   3.872   2.662 -1.5059 -0.9717  0.8556
  463MOL0     H61070  -0.211   3.875   2.303 -0.0863  1.2001 -0.2704
  463MOL0     H61071  -0.332   3.988   2.356 -0.7125 -0.4877 -2.9413
  463MOL0     H61072  -0.369   3.679   2.409 -0.8254 -0.0918  1.5858
  463MOL0     H61073  -0.404   3.751   2.255  1.3261 -1.5101 -0.0220
  463MOL0     H61074  -0.530   3.782   2.531 -0.9345  2.3469  1.1916
  463MOL0     H61075  -0.539   3.914   2.420  1.1580 -0.2830 -0.0147
  463MOL0     H61076  -0.657   3.637   2.373 -0.8848 -0.3645  1.8393
  463MOL0     H61077  -0.658   3.764   2.259  0.6493 -0.8910 -0.1177
  463MOL0     H61078  -0.866   3.625   2.233  0.6339  3.0310 -2.8306
  463MOL0     H61079  -1.099   3.623   2.153 -0.7349  0.0937  1.2332
  463MOL0     H61080  -1.549   3.618   2.272 -1.2427 -1.3630 -1.2521
  463MOL0     H61081  -1.767   3.609   2.194  0.5227 -1.1430 -0.1945
  463MOL0     H61082  -1.843   3.640   1.757  0.4933  0.1708  1.9387
  463MOL0     H61083  -1.933   3.777   1.811  2.2073  0.5129  0.5612
  463MOL0     H61084  -1.998   3.469   1.827 -2.2766 -0.9060 -0.3087
  463MOL0     H61085  -2.085   3.597   1.728 -1.0986  0.0642  0.0299
  463MOL0     H61086  -2.249   3.565   1.891  0.4465  0.0806  0.4020
  463MOL0     H61087  -2.154   3.694   1.947  0.6719  0.0853 -0.5134
  463MOL0     H61088  -2.137   3.399   2.029 -1.0449  0.1827 -0.4469
  463MOL0     H61089  -2.029   3.532   2.092  0.0483 -2.0023  0.2273
  463MOL0     H61090  -2.328   3.511   2.118 -0.1600  1.0899 -0.4909
  463MOL0     H61091  -2.253   3.658   2.169  0.2764  0.6482  1.0074
  463MOL0     H61092  -2.280   3.562   2.353  1.8275  1.3317  1.5138
  463MOL0     H61093  -2.112   3.571   2.342  1.7234 -3.0013  2.3319
  463MOL0     H61094  -2.254   3.307   2.281 -0.6704 -0.6177  1.3926
  463MOL0     H61095  -2.080   3.336   2.272  0.9950  1.8435 -0.0381
  463MOL0     H61096  -2.229   3.374   2.542  0.5491 -1.7791  1.5331
  463MOL0     H61097  -2.065   3.401   2.498  0.6345  0.7731 -1.6593
  463MOL0     H61098  -1.655   3.763   1.811  0.6795 -0.1855  0.2887
  463MOL0     H61099  -1.420   3.787   1.889  0.9421  0.8054  1.1471
  463MOL0     H61100  -1.206   3.887   2.487 -0.1853 -0.3429 -0.1008
  463MOL0     H61101  -0.962   3.930   2.517 -2.3003  1.3396  0.7592
  463MOL0     H61102   0.751   3.599   2.988  1.3170 -1.0616 -1.2098
  463MOL0     H61103   0.961   3.568   3.095  2.6054 -1.1956  2.7893
  463MOL0     H61104   1.256   3.356   3.178  1.6173 -1.2931 -1.0348
  463MOL0     H61105   1.497   3.277   3.173 -3.9393  1.4093 -1.6255
  463MOL0     H61106   1.694   3.072   3.518  2.2310 -0.2268  0.6651
  463MOL0     H61107   1.671   3.234   3.554  1.2820  1.0527  0.4022
  463MOL0     H61108   1.892   3.290   3.403 -1.6407  0.5797 -0.2042
  463MOL0     H61109   1.919   3.209   3.557  0.8283 -1.1937 -0.8727
  463MOL0     H61110   1.912   3.079   3.285 -2.3547  0.1243  0.6915
  463MOL0     H61111   1.944   2.994   3.443  0.7338  2.0089  3.5653
  463MOL0     H61112   2.150   3.116   3.482  0.3287  1.0321  0.7796
  463MOL0     H61113   2.171   3.032   3.345  3.1290 -0.3076  4.6430
  463MOL0     H61114   2.195   3.463   3.265  0.1876  1.1729  1.2408
  463MOL0     H61115   1.464   3.102   3.547  0.6048 -1.5068 -2.1758
  463MOL0     H61116   1.221   3.181   3.564  2.6380 -2.5157  1.7381
  464MOL0     O61117   1.674   5.310   6.590 -0.1424  0.1291  0.8277
  464MOL0     C61118   1.676   5.193   6.639 -0.1733  0.4655 -0.0229
  464MOL0     O61119   1.610   5.142   6.743  0.6028 -0.2043 -0.1210
  464MOL0     C61120   1.506   5.215   6.801 -0.0814  0.9758 -0.5259
  464MOL0     C61121   1.483   5.199   6.942 -0.2797 -0.0793  0.2386
  464MOL0     C61122   1.380   5.269   6.999 -0.1960 -1.0108  0.1196
  464MOL0     C61123   1.292   5.357   6.930  0.1586 -0.1103 -0.6060
  464MOL0     O61124   1.181   5.398   6.998  0.3910  0.0126  0.0818
  464MOL0     C61125   1.208   5.512   7.080 -0.2300  0.3409  0.1995
  464MOL0     C61126   1.111   5.627   7.064 -0.5469  0.2372  0.2317
  464MOL0     C61127   1.095   5.673   6.918 -0.2546 -0.4462  0.1104
  464MOL0     C61128   1.016   5.811   6.914  0.2708 -0.4695  0.5999
  464MOL0     C61129   0.875   5.832   6.975 -1.1635 -0.2076  0.8655
  464MOL0     C61130   0.779   5.732   6.932  0.7603  0.3838  0.3034
  464MOL0     C61131   0.641   5.770   6.975  0.3140 -0.8609 -0.7246
  464MOL0     C61132   0.549   5.651   6.962  0.5410 -0.5109 -1.2762
  464MOL0     N61133   0.417   5.679   7.031 -0.3155 -0.0914  0.1294
  464MOL0     C61134   0.323   5.764   6.978 -0.6149 -0.5342  0.4849
  464MOL0     C61135   0.247   5.807   7.077 -0.8609 -0.0700  0.3382
  464MOL0     C61136   0.127   5.897   7.066 -0.0105 -0.2373  0.8267
  464MOL0     C61137   0.021   5.890   7.174 -0.0417  0.0410  0.8328
  464MOL0     C61138  -0.109   5.957   7.146  0.5325  0.2307 -0.0817
  464MOL0     C61139  -0.190   5.868   7.054 -0.0666  0.2577  0.7257
  464MOL0     O61140  -0.251   5.761   7.115  0.0291 -0.2755  0.0952
  464MOL0     C61141  -0.373   5.784   7.167 -0.2673  0.1269  0.9373
  464MOL0     C61142  -0.454   5.667   7.157  0.6020 -0.0320 -0.0725
  464MOL0     C61143  -0.578   5.661   7.219 -0.3862 -0.2822  0.0504
  464MOL0     C61144  -0.623   5.768   7.295  0.4822  0.2157  0.2547
  464MOL0     C61145  -0.768   5.766   7.344 -0.3833  0.0211 -0.0401
  464MOL0     O61146  -0.847   5.659   7.310 -0.3093 -0.5003  0.6526
  464MOL0     C61147  -0.983   5.668   7.332  0.1835  0.4472  0.4806
  464MOL0     C61148  -1.048   5.546   7.362 -0.4153 -0.9460 -0.5598
  464MOL0     C61149  -1.186   5.543   7.376 -0.0290 -0.2961  0.9268
  464MOL0     C61150  -1.263   5.660   7.383  0.2826  0.2227  0.1461
  464MOL0     O61151  -1.392   5.661   7.418 -0.0213  0.2988  0.8208
  464MOL0     C61152  -1.467   5.535   7.391  0.2613  0.6723  0.0442
  464MOL0     C61153  -1.619   5.554   7.401 -0.3672 -0.5398  0.7414
  464MOL0     C61154  -1.692   5.428   7.357 -0.5484  0.1474  0.0309
  464MOL0     C61155  -1.840   5.434   7.372  0.4807  0.1477 -0.6885
  464MOL0     C61156  -1.908   5.543   7.298 -0.7019  0.3984 -0.4376
  464MOL0     C61157  -2.057   5.544   7.338 -0.1300  0.3557 -0.4774
  464MOL0     C61158  -2.127   5.648   7.264  0.1863  0.4616  0.8416
  464MOL0     C61159  -2.277   5.652   7.295  0.8051  0.8720 -0.0441
  464MOL0    Cl61160  -2.292   5.659   7.469 -0.3519  0.1411  0.4472
  464MOL0     C61161  -1.198   5.779   7.347 -0.9825 -0.3912  1.0185
  464MOL0     C61162  -1.061   5.786   7.316  0.3715  0.3658  0.0801
  464MOL0     O61163  -0.805   5.855   7.421 -0.6503 -0.4000 -0.0303
  464MOL0     C61164  -0.548   5.885   7.303 -0.9527 -0.2660 -0.5871
  464MOL0     C61165  -0.418   5.894   7.241 -0.6124  0.2553 -0.8160
  464MOL0     N61166   0.297   5.739   7.188  0.2303 -0.2502  0.0055
  464MOL0     N61167   0.389   5.662   7.164 -1.0181 -0.4073  0.3462
  464MOL0     C61168   1.315   5.380   6.796  0.4396 -0.1685 -0.4083
  464MOL0     C61169   1.430   5.314   6.740  0.7038  0.1848  0.4635
  464MOL0     C61170   1.776   5.103   6.581 -0.2758 -0.2529 -0.9164
  464MOL0     C61171   1.766   4.959   6.615  0.6879  0.2795 -0.4765
  464MOL0     C61172   1.865   4.868   6.578  0.2790  0.2084  0.5038
  464MOL0     C61173   1.976   4.918   6.508  0.6146 -0.3755 -0.0033
  464MOL0     O61174   2.085   4.842   6.475 -0.5928 -0.3868 -0.0515
  464MOL0     C61175   2.198   4.830   6.572 -0.8083  0.7972  0.0444
  464MOL0     C61176   2.290   4.955   6.571  0.1313 -0.4053  0.1276
  464MOL0     C61177   2.396   4.955   6.468 -0.3090 -0.1057 -0.0603
  464MOL0     C61178   2.492   4.849   6.459 -0.0075  0.3881  0.0854
  464MOL0     C61179   2.592   4.892   6.363  0.4198 -0.3798 -0.6076
  464MOL0     C61180   2.675   4.934   6.284  0.2378 -0.3973  0.4130
  464MOL0     C61181   1.983   5.051   6.468  0.5632 -0.6640  0.1493
  464MOL0     C61182   1.885   5.142   6.500  0.3285  0.8817 -0.4450
  464MOL0     H61183   1.546   5.127   6.994  1.2268  0.2284 -1.0613
  464MOL0     H61184   1.354   5.236   7.099 -0.4672  0.3972  0.5436
  464MOL0     H61185   1.307   5.554   7.059  0.2028 -0.2649  0.9857
  464MOL0     H61186   1.212   5.473   7.182  0.4595 -2.0006 -0.6570
  464MOL0     H61187   1.165   5.709   7.113  1.4353 -1.5094  1.1230
  464MOL0     H61188   1.019   5.609   7.119 -0.6800 -0.9264 -0.3435
  464MOL0     H61189   1.035   5.602   6.861  1.9138 -1.6321 -0.8072
  464MOL0     H61190   1.194   5.688   6.875  0.2488  0.6114  1.5809
  464MOL0     H61191   1.081   5.890   6.952  0.8304 -1.4355  1.7450
  464MOL0     H61192   1.017   5.845   6.810  1.5134 -0.1254  0.7077
  464MOL0     H61193   0.839   5.927   6.934 -3.4193 -0.9136  1.0946
  464MOL0     H61194   0.886   5.831   7.084 -1.3595 -0.1746  0.8868
  464MOL0     H61195   0.807   5.634   6.971  1.3209  0.4757  0.1414
  464MOL0     H61196   0.782   5.722   6.823  0.0119  1.0582  0.2105
  464MOL0     H61197   0.638   5.812   7.075  0.0692 -0.1504 -1.0228
  464MOL0     H61198   0.610   5.852   6.910  1.8315  0.8718  0.6164
  464MOL0     H61199   0.599   5.571   7.017 -1.8778  0.2300  2.3561
  464MOL0     H61200   0.536   5.630   6.855 -1.7366 -1.1341 -0.9162
  464MOL0     H61201   0.303   5.800   6.878 -1.1232  2.3756  1.5093
  464MOL0     H61202   0.086   5.880   6.966  3.1857 -1.5197 -0.4042
  464MOL0     H61203   0.172   5.997   7.070 -1.6317  0.6707 -1.5085
  464MOL0     H61204   0.061   5.938   7.263 -0.4532  3.5896 -0.7163
  464MOL0     H61205   0.003   5.785   7.198  1.4060 -0.6263 -0.7362
  464MOL0     H61206  -0.159   5.951   7.243  1.8118  1.5044  0.6943
  464MOL0     H61207  -0.087   6.060   7.115  0.1911  1.5051  3.4642
  464MOL0     H61208  -0.132   5.833   6.969  1.3113  3.2689  0.2838
  464MOL0     H61209  -0.265   5.933   7.007 -0.4747  1.6223  3.0879
  464MOL0     H61210  -0.422   5.589   7.089  1.7401 -0.0976  0.5246
  464MOL0     H61211  -0.647   5.578   7.214  1.3144 -1.7557  0.0642
  464MOL0     H61212  -0.973   5.468   7.371  3.3555  2.0046 -3.0474
  464MOL0     H61213  -1.235   5.446   7.384 -3.5298  0.6515 -4.1227
  464MOL0     H61214  -1.450   5.451   7.458 -0.7420 -0.5508 -1.1896
  464MOL0     H61215  -1.449   5.505   7.287  4.4103  1.7055  0.2469
  464MOL0     H61216  -1.650   5.635   7.335 -2.2114 -0.4969  1.5927
  464MOL0     H61217  -1.656   5.584   7.499 -3.5231  1.5909 -0.9426
  464MOL0     H61218  -1.651   5.339   7.405 -2.5097  0.1559  1.8673
  464MOL0     H61219  -1.671   5.410   7.251  2.2558 -0.9384  0.7087
  464MOL0     H61220  -1.879   5.337   7.342  2.7236 -1.1418  0.2763
  464MOL0     H61221  -1.860   5.436   7.479  1.1604 -1.3557 -0.5120
  464MOL0     H61222  -1.907   5.530   7.189  0.3275 -1.3217 -0.2679
  464MOL0     H61223  -1.860   5.639   7.317 -1.1576  1.1950 -2.9478
  464MOL0     H61224  -2.064   5.551   7.447  1.7998  0.0197 -0.3008
  464MOL0     H61225  -2.100   5.448   7.307 -0.0396  0.8118 -2.1099
  464MOL0     H61226  -2.089   5.746   7.295 -0.5404  1.3278 -0.8327
  464MOL0     H61227  -2.108   5.647   7.157  0.2104  1.0979  0.8376
  464MOL0     H61228  -2.323   5.555   7.271  1.6467  0.6601 -0.8417
  464MOL0     H61229  -2.337   5.729   7.246  2.2378  1.6057 -0.6919
  464MOL0     H61230  -1.261   5.864   7.323 -3.8688 -2.6371 -0.0406
  464MOL0     H61231  -1.018   5.880   7.281 -1.6056  1.8342  1.3399
  464MOL0     H61232  -0.592   5.966   7.360 -1.0686 -1.7883  1.6019
  464MOL0     H61233  -0.366   5.989   7.229  0.6760 -0.6475 -2.8983
  464MOL0     H61234   1.243   5.446   6.750 -0.7947 -2.2745 -1.6242
  464MOL0     H61235   1.454   5.329   6.636  0.6679  1.9336  0.6767
  464MOL0     H61236   1.685   4.922   6.677  0.2060  0.9004 -0.7261
  464MOL0     H61237   1.843   4.762   6.593 -1.2412  0.3496 -0.4538
  464MOL0     H61238   2.255   4.738   6.555 -1.0831  0.3716  1.3531
  464MOL0     H61239   2.143   4.819   6.666  0.2784 -0.1363  0.6002
  464MOL0     H61240   2.234   5.049   6.562  1.0803  0.3660  1.9341
  464MOL0     H61241   2.331   4.960   6.672 -1.1018  3.0963  0.6027
  464MOL0     H61242   2.445   5.053   6.476  0.3985 -0.5792  2.0158
  464MOL0     H61243   2.335   4.954   6.377 -1.3449 -1.0987  0.6188
  464MOL0     H61244   2.545   4.825   6.552 -2.2572  1.5873  1.7926
  464MOL0     H61245   2.444   4.757   6.426 -1.6900 -0.3476  3.9367
  464MOL0     H61246   2.752   4.974   6.221 -1.7184  3.4572  0.1573
  464MOL0     H61247   2.069   5.085   6.411 -1.2772 -0.8019 -2.9438
  464MOL0     H61248   1.890   5.247   6.473  1.8818  0.7305 -0.8432
  465MOL0     O61249   3.149   1.122   7.131 -0.0722  0.4435 -0.6508
  465MOL0     C61250   3.237   1.046   7.086 -0.1178  0.1076  0.0395
  465MOL0     O61251   3.215   0.926   7.012  0.3008  0.0669 -0.1587
  465MOL0     C61252   3.098   0.856   7.026 -0.3371 -0.1420  0.7228
  465MOL0     C61253   2.983   0.882   7.106 -0.8960  0.3291  0.5437
  465MOL0     C61254   2.866   0.809   7.102 -0.6863 -0.4831  0.2351
  465MOL0     C61255   2.852   0.706   7.015 -0.3455  0.9756  1.4412
  465MOL0     O61256   2.752   0.612   7.017  0.1591  0.1174  0.0332
  465MOL0     C61257   2.790   0.480   7.059 -0.6317 -0.0541  1.2513
  465MOL0     C61258   2.660   0.406   7.071 -0.7563  0.1896 -0.2860
  465MOL0     C61259   2.593   0.431   7.197  1.7360 -0.1663 -0.6573
  465MOL0     C61260   2.619   0.333   7.310 -0.7327  0.2266 -0.9126
  465MOL0     C61261   2.577   0.379   7.453  0.2110 -0.2736 -0.5393
  465MOL0     C61262   2.426   0.364   7.477  0.5224  0.1105  0.8378
  465MOL0     C61263   2.370   0.467   7.586  0.0855  0.4787  0.0707
  465MOL0     C61264   2.212   0.452   7.590 -0.1345 -0.4563 -0.0461
  465MOL0     N61265   2.151   0.516   7.468 -0.1351 -0.2219 -0.0295
  465MOL0     C61266   2.180   0.630   7.397 -0.1391  1.1744 -0.3835
  465MOL0     C61267   2.112   0.624   7.285 -0.2288 -0.4899  0.2568
  465MOL0     C61268   2.106   0.723   7.170 -0.9959 -0.4739  1.1064
  465MOL0     C61269   1.975   0.792   7.146  0.0775  0.2230  0.3195
  465MOL0     C61270   1.875   0.711   7.051 -0.3236  0.6220 -0.6922
  465MOL0     C61271   1.927   0.661   6.914  0.1773 -0.1181  0.5350
  465MOL0     O61272   1.831   0.579   6.847  0.3004  0.3294  0.0798
  465MOL0     C61273   1.701   0.601   6.832 -0.3179  0.0900  0.0444
  465MOL0     C61274   1.641   0.728   6.824  0.0579  1.0275 -1.2543
  465MOL0     C61275   1.506   0.741   6.786 -0.5901 -0.3171 -0.3363
  465MOL0     C61276   1.429   0.628   6.757  0.3016 -0.1640 -0.0129
  465MOL0     C61277   1.285   0.634   6.720  0.3598 -1.0021  0.0564
  465MOL0     O61278   1.230   0.513   6.669 -0.1904 -0.3705  0.3883
  465MOL0     C61279   1.095   0.474   6.664 -0.5462 -0.4648  0.3966
  465MOL0     C61280   0.994   0.551   6.728  0.5749  0.5577  0.4851
  465MOL0     C61281   0.864   0.490   6.742  0.8355 -0.6036 -0.0731
  465MOL0     C61282   0.829   0.379   6.667  0.0783  0.1669  1.2847
  465MOL0     O61283   0.699   0.328   6.662  0.0413 -1.0317 -0.4167
  465MOL0     C61284   0.582   0.406   6.696  0.2459  0.0168 -1.9689
  465MOL0     C61285   0.563   0.525   6.598 -0.2442 -0.0507  1.3960
  465MOL0     C61286   0.428   0.588   6.606  0.3692 -0.3114 -0.0840
  465MOL0     C61287   0.335   0.529   6.502  0.4348  0.9218 -0.4242
  465MOL0     C61288   0.223   0.629   6.491  0.6347  0.0893 -1.1768
  465MOL0     C61289   0.102   0.582   6.402  0.0295 -0.1092 -0.1009
  465MOL0     C61290   0.022   0.459   6.437  0.0668  0.0725 -0.9113
  465MOL0     C61291  -0.063   0.410   6.319 -0.5441  0.0646 -0.7842
  465MOL0    Cl61292  -0.180   0.296   6.385  0.4035 -0.1072  0.6459
  465MOL0     C61293   0.923   0.318   6.580  0.6863  0.0296  0.2394
  465MOL0     C61294   1.052   0.367   6.579 -0.2311 -0.1423 -0.1270
  465MOL0     O61295   1.225   0.744   6.727 -0.2615  0.3724  0.8157
  465MOL0     C61296   1.488   0.497   6.788 -0.3840  0.3084 -0.0476
  465MOL0     C61297   1.625   0.491   6.807 -0.1984 -0.0378  0.6064
  465MOL0     N61298   2.049   0.504   7.275 -0.5156 -0.4144  0.8292
  465MOL0     N61299   2.063   0.444   7.384  0.6015 -0.4789  0.3963
  465MOL0     C61300   2.965   0.673   6.935 -0.0153  0.0462 -0.0076
  465MOL0     C61301   3.084   0.748   6.935  0.2608  0.0641  0.1770
  465MOL0     C61302   3.374   1.104   7.087 -0.2917 -0.0504 -0.4022
  465MOL0     C61303   3.483   1.013   7.127 -0.1277  0.3736 -0.6260
  465MOL0     C61304   3.614   1.056   7.117  0.0255  0.6317  0.3246
  465MOL0     C61305   3.643   1.189   7.078 -0.2639  0.7930 -0.1525
  465MOL0     O61306   3.777   1.209   7.062  0.2834  0.0764  0.5636
  465MOL0     C61307   3.816   1.334   7.007 -0.0576 -0.6943  0.1546
  465MOL0     C61308   3.966   1.337   7.001  0.6102 -0.0849 -0.0425
  465MOL0     C61309   4.014   1.439   6.905  0.3745 -0.5320  0.2762
  465MOL0     C61310   3.996   1.588   6.951  0.9386  0.4691 -1.1153
  465MOL0     C61311   3.858   1.635   6.939  0.0216 -0.3062  0.5048
  465MOL0     C61312   3.741   1.668   6.937  0.2592 -0.8738 -0.9105
  465MOL0     C61313   3.540   1.274   7.052  0.4004 -0.3293  0.1358
  465MOL0     C61314   3.410   1.233   7.053  0.1081  0.5775 -0.1731
  465MOL0     H61315   2.979   0.965   7.175 -1.5759 -1.0194  2.1854
  465MOL0     H61316   2.783   0.829   7.168 -3.2692 -3.2565 -1.9149
  465MOL0     H61317   2.857   0.476   7.146  0.3194 -1.9991  0.4884
  465MOL0     H61318   2.846   0.420   6.987 -0.1030  1.8257  0.0088
  465MOL0     H61319   2.682   0.299   7.062  0.4160  0.5679 -2.9606
  465MOL0     H61320   2.600   0.423   6.982  0.3627 -1.7016 -1.4766
  465MOL0     H61321   2.486   0.440   7.177  2.3242  2.7187 -3.2512
  465MOL0     H61322   2.629   0.530   7.230  1.2761 -0.1438 -0.2185
  465MOL0     H61323   2.566   0.240   7.287 -0.8935  0.6386 -2.2522
  465MOL0     H61324   2.726   0.312   7.319 -0.6148  1.5648  1.8075
  465MOL0     H61325   2.601   0.485   7.465  0.0922 -0.2593 -0.4230
  465MOL0     H61326   2.639   0.323   7.524  0.1075  0.6171  0.2763
  465MOL0     H61327   2.401   0.261   7.502 -0.7758  0.0218 -0.6777
  465MOL0     H61328   2.381   0.377   7.378 -1.0737 -0.2930  1.4924
  465MOL0     H61329   2.415   0.435   7.681 -0.4112 -1.0218 -0.1649
  465MOL0     H61330   2.397   0.568   7.554 -0.1709  0.7582  0.7315
  465MOL0     H61331   2.166   0.501   7.675  1.4747 -1.3612  1.4193
  465MOL0     H61332   2.192   0.344   7.594  2.5182 -1.0932 -1.4159
  465MOL0     H61333   2.239   0.718   7.421 -0.5272  1.7284 -1.3687
  465MOL0     H61334   2.148   0.672   7.082  0.3880 -2.4027  2.7725
  465MOL0     H61335   2.176   0.804   7.193 -3.3700  1.6024  1.4013
  465MOL0     H61336   1.983   0.892   7.104  1.2847  1.3592  3.0412
  465MOL0     H61337   1.943   0.813   7.248  0.5713  2.0614  0.1325
  465MOL0     H61338   1.842   0.620   7.101  4.9549 -1.4832 -0.4421
  465MOL0     H61339   1.786   0.772   7.034 -2.3870 -2.9839 -4.7076
  465MOL0     H61340   2.019   0.605   6.931  0.3227 -0.8954 -2.4282
  465MOL0     H61341   1.945   0.756   6.863 -1.6239  0.6852  1.3063
  465MOL0     H61342   1.700   0.816   6.851  2.5630 -0.0489 -2.8031
  465MOL0     H61343   1.464   0.839   6.767 -0.3171 -0.1423 -0.0339
  465MOL0     H61344   1.021   0.648   6.767  1.0397  1.4103 -1.7751
  465MOL0     H61345   0.800   0.548   6.807  1.5625 -0.4681  0.5355
  465MOL0     H61346   0.583   0.441   6.800  0.7001  1.5292 -2.4616
  465MOL0     H61347   0.496   0.340   6.680  0.2130 -0.0409 -1.5606
  465MOL0     H61348   0.587   0.503   6.494  0.2025  0.8321  1.3034
  465MOL0     H61349   0.641   0.599   6.622  0.2499  0.2384 -0.8669
  465MOL0     H61350   0.422   0.697   6.608 -2.0068 -0.3979  0.1722
  465MOL0     H61351   0.381   0.565   6.702 -3.6498 -1.1630 -2.0514
  465MOL0     H61352   0.389   0.519   6.407 -1.4487  1.3677 -1.5817
  465MOL0     H61353   0.283   0.440   6.536  1.9385  0.5042  0.9051
  465MOL0     H61354   0.257   0.715   6.433 -2.0796  2.3657  0.3699
  465MOL0     H61355   0.183   0.666   6.586 -0.6390 -0.2591 -1.5496
  465MOL0     H61356   0.150   0.561   6.306 -0.8904 -1.1552 -0.3573
  465MOL0     H61357   0.038   0.671   6.393 -4.3248 -3.1149 -3.3070
  465MOL0     H61358   0.099   0.386   6.462 -1.6402 -0.8603  2.1211
  465MOL0     H61359  -0.038   0.477   6.527 -0.0549 -2.2916 -0.4451
  465MOL0     H61360  -0.002   0.356   6.246  1.0712 -3.5526  2.8281
  465MOL0     H61361  -0.112   0.497   6.276 -2.2160  1.0079  2.6512
  465MOL0     H61362   0.881   0.236   6.522 -2.0492  1.7360 -0.3643
  465MOL0     H61363   1.125   0.317   6.517 -1.6698 -2.5995  0.0359
  465MOL0     H61364   1.430   0.406   6.776  0.0535 -0.1562  1.2509
  465MOL0     H61365   1.675   0.394   6.812 -0.2612 -0.0170  2.8597
  465MOL0     H61366   2.955   0.586   6.870  1.6159 -1.1905  1.3092
  465MOL0     H61367   3.159   0.740   6.857  0.3442 -1.1759  0.3686
  465MOL0     H61368   3.458   0.921   7.178  1.8200 -0.6215 -1.3847
  465MOL0     H61369   3.695   0.987   7.139 -0.3919  0.2015  0.5195
  465MOL0     H61370   3.786   1.416   7.074  1.8444 -0.9550  1.4114
  465MOL0     H61371   3.780   1.350   6.905 -0.6834 -0.1308  0.4543
  465MOL0     H61372   4.015   1.356   7.097  1.3543  2.3068 -0.8084
  465MOL0     H61373   4.004   1.236   6.980  0.3875 -1.0993  3.6772
  465MOL0     H61374   3.971   1.416   6.808  4.4174  2.1225 -2.4737
  465MOL0     H61375   4.122   1.430   6.887  0.2631 -2.0166  0.2081
  465MOL0     H61376   4.019   1.599   7.058  1.0712  2.4475 -1.2996
  465MOL0     H61377   4.055   1.659   6.893  0.7414 -0.0501 -1.9692
  465MOL0     H61378   3.644   1.712   6.943  1.8925  3.0956 -0.2150
  465MOL0     H61379   3.558   1.381   7.050 -0.5349 -0.0861  2.1478
  465MOL0     H61380   3.330   1.301   7.024  2.0829  1.9147 -3.1049
  466MOL0     O61381   1.983   8.686   3.252  0.1585 -0.0694 -0.1040
  466MOL0     C61382   1.965   8.603   3.162 -0.5298  0.7833 -0.5392
  466MOL0     O61383   1.854   8.519   3.152 -0.1372  0.3095  0.3865
  466MOL0     C61384   1.753   8.507   3.243  0.6019  0.3429 -0.9665
  466MOL0     C61385   1.616   8.502   3.214  0.2522 -0.6709 -0.0032
  466MOL0     C61386   1.521   8.503   3.316  0.2533 -0.0221  0.6205
  466MOL0     C61387   1.565   8.497   3.453  1.1802 -0.0917  0.4173
  466MOL0     O61388   1.468   8.502   3.549  0.3788 -0.6577 -0.0577
  466MOL0     C61389   1.484   8.618   3.622  0.3965  0.0415 -0.1516
  466MOL0     C61390   1.406   8.598   3.760  0.3184  0.4540  1.4136
  466MOL0     C61391   1.472   8.493   3.853 -0.7411 -0.0064 -0.2520
  466MOL0     C61392   1.381   8.468   3.973 -0.0091 -0.3123 -0.3656
  466MOL0     C61393   1.435   8.502   4.115  0.4422 -0.3127  0.8868
  466MOL0     C61394   1.573   8.437   4.144  0.2043  0.6203  0.3441
  466MOL0     C61395   1.576   8.284   4.152 -0.0806 -0.2540  0.6890
  466MOL0     C61396   1.716   8.229   4.147 -0.2651 -0.8274 -0.9648
  466MOL0     N61397   1.784   8.248   4.022  0.0819  0.3428  0.0425
  466MOL0     C61398   1.760   8.165   3.918 -0.0716 -0.3052  0.2094
  466MOL0     C61399   1.840   8.221   3.820  0.3264 -0.3126 -0.8847
  466MOL0     C61400   1.876   8.145   3.699 -1.4652 -0.4380  1.1385
  466MOL0     C61401   1.771   8.145   3.589 -0.0595 -1.5502 -0.6072
  466MOL0     C61402   1.836   8.114   3.450  0.4222  0.5920 -0.2573
  466MOL0     C61403   1.743   8.124   3.328  0.1749 -0.6270  0.4657
  466MOL0     O61404   1.626   8.043   3.341  0.5985 -1.0212 -0.1889
  466MOL0     C61405   1.515   8.128   3.318  0.0257  0.4646 -0.1668
  466MOL0     C61406   1.501   8.189   3.189 -0.1593 -0.5019 -0.6786
  466MOL0     C61407   1.383   8.252   3.154 -0.3922  0.7011 -0.3163
  466MOL0     C61408   1.286   8.263   3.251 -0.3058  0.8954  0.4426
  466MOL0     C61409   1.158   8.333   3.219 -0.4158  0.6330  0.3809
  466MOL0     O61410   1.175   8.448   3.149 -0.5362  0.1251 -0.3334
  466MOL0     C61411   1.060   8.520   3.108 -0.0294  0.2273 -0.2427
  466MOL0     C61412   1.052   8.658   3.143 -0.6902 -0.5776  0.1347
  466MOL0     C61413   0.939   8.742   3.109 -0.7485 -0.1225 -0.8958
  466MOL0     C61414   0.839   8.683   3.037 -0.0120 -0.1774  0.6113
  466MOL0     O61415   0.733   8.763   3.008  0.4073 -0.2678  0.2472
  466MOL0     C61416   0.658   8.738   2.890  0.0171  0.0264 -0.6485
  466MOL0     C61417   0.533   8.831   2.874 -1.2369  0.8578 -0.2033
  466MOL0     C61418   0.564   8.984   2.899 -0.6828 -0.5263 -0.5361
  466MOL0     C61419   0.438   9.066   2.865 -0.2841  0.3288  1.5053
  466MOL0     C61420   0.462   9.211   2.888 -0.2943 -0.9689  0.5304
  466MOL0     C61421   0.335   9.284   2.847  0.5009  0.0113  0.9353
  466MOL0     C61422   0.330   9.441   2.881 -1.1798 -0.3316 -0.0345
  466MOL0     C61423   0.193   9.520   2.892  0.3712  0.3552  0.7467
  466MOL0    Cl61424   0.218   9.697   2.933  0.0897  0.5770  0.0239
  466MOL0     C61425   0.845   8.545   3.004  1.2069  0.8766  0.4749
  466MOL0     C61426   0.951   8.470   3.041 -0.1731 -0.7840  0.5439
  466MOL0     O61427   1.050   8.274   3.236 -0.0194  0.1517 -0.0536
  466MOL0     C61428   1.294   8.189   3.373 -0.1202 -0.0297 -0.1890
  466MOL0     C61429   1.404   8.121   3.406 -0.7227  0.2480 -0.0253
  466MOL0     N61430   1.911   8.323   3.878  0.1708 -0.2179 -0.7100
  466MOL0     N61431   1.884   8.338   4.005 -0.0550 -0.3025 -0.0644
  466MOL0     C61432   1.701   8.490   3.479  0.6293  0.7953  0.4779
  466MOL0     C61433   1.789   8.500   3.378  0.7156 -0.5574  0.1236
  466MOL0     C61434   2.070   8.589   3.071 -1.3311 -0.1696 -0.1060
  466MOL0     C61435   2.071   8.481   2.976 -1.1271 -0.4660 -0.0736
  466MOL0     C61436   2.176   8.459   2.885  0.2424  0.5203  0.3530
  466MOL0     C61437   2.289   8.546   2.894  0.3063  0.0094 -0.1214
  466MOL0     O61438   2.404   8.530   2.814  0.0130 -0.3182 -0.2773
  466MOL0     C61439   2.434   8.399   2.763 -0.5280 -0.6688  0.0868
  466MOL0     C61440   2.567   8.397   2.689  0.7968  0.2949  0.6509
  466MOL0     C61441   2.686   8.419   2.776 -0.3117  0.5010 -0.6446
  466MOL0     C61442   2.805   8.394   2.687 -0.6681  0.1152  0.2577
  466MOL0     C61443   2.846   8.496   2.596  0.5349 -0.1957  0.1100
  466MOL0     C61444   2.886   8.581   2.514  0.1179 -0.0200  0.0890
  466MOL0     C61445   2.293   8.644   2.983 -0.1276 -0.0451  0.7215
  466MOL0     C61446   2.192   8.665   3.081  0.4784 -0.6105  0.3403
  466MOL0     H61447   1.597   8.510   3.108  1.1273 -0.1736 -0.1303
  466MOL0     H61448   1.419   8.517   3.281  1.2893  1.0632 -2.2644
  466MOL0     H61449   1.443   8.708   3.576 -0.0519 -0.1999 -0.2379
  466MOL0     H61450   1.588   8.637   3.650 -0.9650  2.4722  4.2677
  466MOL0     H61451   1.304   8.560   3.745 -0.0590  1.1371  2.2117
  466MOL0     H61452   1.407   8.697   3.805  0.3849  0.5041  1.3046
  466MOL0     H61453   1.570   8.528   3.887 -0.3368 -0.1237 -1.2638
  466MOL0     H61454   1.499   8.399   3.803  0.3054 -0.1404  0.5395
  466MOL0     H61455   1.287   8.521   3.957 -0.3479 -0.1880  1.7470
  466MOL0     H61456   1.363   8.360   3.970 -0.1680 -0.2541 -1.6684
  466MOL0     H61457   1.352   8.463   4.175 -1.1954  0.7623 -0.5570
  466MOL0     H61458   1.432   8.610   4.132 -0.4418  0.2501 -2.1390
  466MOL0     H61459   1.615   8.476   4.237  0.3736 -0.1203  0.5876
  466MOL0     H61460   1.638   8.476   4.065 -0.6850 -0.9163 -1.2060
  466MOL0     H61461   1.533   8.261   4.250  0.5218 -3.2759  0.3436
  466MOL0     H61462   1.505   8.247   4.077  0.9030 -0.9659  0.0930
  466MOL0     H61463   1.715   8.124   4.177 -1.2123 -1.0515 -1.7721
  466MOL0     H61464   1.776   8.275   4.227 -3.2252  2.5128 -0.4029
  466MOL0     H61465   1.703   8.073   3.925 -0.7019  0.0111 -0.5523
  466MOL0     H61466   1.899   8.040   3.717  3.0097  0.5275  2.3873
  466MOL0     H61467   1.970   8.182   3.658 -1.8961 -0.5344  0.0318
  466MOL0     H61468   1.714   8.237   3.600 -0.4771 -2.0019  1.2424
  466MOL0     H61469   1.691   8.073   3.602 -1.1507 -0.8117 -2.7382
  466MOL0     H61470   1.928   8.169   3.430  0.1043  0.4823 -2.2857
  466MOL0     H61471   1.877   8.013   3.455 -1.3689 -0.1375  0.8502
  466MOL0     H61472   1.799   8.082   3.244 -1.1462 -2.6395  0.5184
  466MOL0     H61473   1.734   8.233   3.316  4.0995 -0.1563  0.5959
  466MOL0     H61474   1.583   8.196   3.118  0.9243  1.3318  0.6295
  466MOL0     H61475   1.378   8.298   3.056  2.6072  1.7329 -0.1059
  466MOL0     H61476   1.121   8.710   3.208 -3.7579  2.1655  1.4878
  466MOL0     H61477   0.918   8.841   3.146 -0.0956 -1.1580  2.5555
  466MOL0     H61478   0.620   8.637   2.879  2.5624 -1.6613  3.5438
  466MOL0     H61479   0.728   8.758   2.808  0.3517  1.4257 -0.0521
  466MOL0     H61480   0.448   8.794   2.933 -2.6928 -0.3581 -2.8691
  466MOL0     H61481   0.511   8.815   2.768  2.6188  1.7120 -1.2910
  466MOL0     H61482   0.655   9.007   2.842  0.9252 -4.4877  0.0840
  466MOL0     H61483   0.589   8.998   3.005 -3.1811 -0.0963  0.0390
  466MOL0     H61484   0.405   9.041   2.763  1.2518  3.1941  0.1730
  466MOL0     H61485   0.349   9.043   2.924 -0.7054  2.9722  2.0372
  466MOL0     H61486   0.552   9.244   2.836 -0.7258 -2.9755 -1.6539
  466MOL0     H61487   0.481   9.242   2.991  0.3763  2.1290 -0.4297
  466MOL0     H61488   0.241   9.243   2.884 -0.4713 -0.0674 -1.4593
  466MOL0     H61489   0.324   9.275   2.739  0.7686  1.3207  0.7833
  466MOL0     H61490   0.377   9.461   2.978  1.2956  2.1519 -1.6025
  466MOL0     H61491   0.391   9.499   2.811 -1.0536  0.1838  0.4943
  466MOL0     H61492   0.141   9.468   2.973 -0.3348 -2.3660 -1.3044
  466MOL0     H61493   0.133   9.508   2.802 -0.3854  0.9950  1.1523
  466MOL0     H61494   0.763   8.491   2.959 -1.6348  3.2600  2.4143
  466MOL0     H61495   0.962   8.365   3.019  3.6171 -0.3213 -0.5339
  466MOL0     H61496   1.213   8.193   3.445  1.1360 -2.7129  1.5238
  466MOL0     H61497   1.417   8.057   3.493  1.1225 -0.8273 -1.0364
  466MOL0     H61498   1.734   8.484   3.583  0.6005  0.0225  0.4492
  466MOL0     H61499   1.896   8.499   3.400  0.1554 -0.6196  3.4534
  466MOL0     H61500   1.991   8.408   2.972 -0.3681 -1.2611 -1.4181
  466MOL0     H61501   2.189   8.373   2.820 -1.0799 -0.9336  1.9291
  466MOL0     H61502   2.353   8.369   2.696 -1.6537 -0.7941  1.4489
  466MOL0     H61503   2.442   8.327   2.845  0.3605 -2.0007 -1.1343
  466MOL0     H61504   2.560   8.294   2.653 -1.9055  0.5879  0.1442
  466MOL0     H61505   2.560   8.467   2.605 -2.0976 -0.1008  0.4798
  466MOL0     H61506   2.676   8.337   2.848  2.4056 -0.0411 -0.7399
  466MOL0     H61507   2.698   8.518   2.821  0.0623 -0.3332  1.2010
  466MOL0     H61508   2.893   8.371   2.748 -0.9275 -1.6343  0.0283
  466MOL0     H61509   2.789   8.313   2.615  0.9057 -0.4142  0.4697
  466MOL0     H61510   2.929   8.655   2.450 -0.8219  1.7381  1.3971
  466MOL0     H61511   2.382   8.706   2.996  0.1998  0.0613 -1.6862
  466MOL0     H61512   2.192   8.738   3.161 -5.4708  0.8079 -0.4921
  467MOL0     O61513   6.648   2.028   1.974 -0.4955 -0.2734 -0.3941
  467MOL0     C61514   6.735   2.092   1.915 -0.9687  0.3595 -0.3823
  467MOL0     O61515   6.717   2.212   1.855  0.3177 -0.4719 -0.2058
  467MOL0     C61516   6.596   2.271   1.826 -0.3988 -0.3917  0.0658
  467MOL0     C61517   6.468   2.225   1.849  0.0211  0.3880 -0.3174
  467MOL0     C61518   6.362   2.303   1.808 -0.5107 -0.2071 -0.2041
  467MOL0     C61519   6.381   2.437   1.760  0.3159 -0.1338  0.3367
  467MOL0     O61520   6.269   2.508   1.719 -0.2210  0.1409 -0.2493
  467MOL0     C61521   6.281   2.643   1.684 -0.1557  0.5338  0.0973
  467MOL0     C61522   6.140   2.709   1.696 -0.4871 -0.7103  0.3270
  467MOL0     C61523   6.142   2.840   1.614  0.3688  0.8570 -0.1549
  467MOL0     C61524   6.017   2.933   1.612  0.5401  0.6764 -0.4980
  467MOL0     C61525   6.056   3.074   1.564  1.1940  0.2028  0.2622
  467MOL0     C61526   5.965   3.175   1.635  0.0528 -0.2406  0.5271
  467MOL0     C61527   5.993   3.321   1.594 -0.4006 -0.0750 -0.2818
  467MOL0     C61528   5.975   3.358   1.451  1.0843 -0.2134  0.5905
  467MOL0     N61529   5.834   3.342   1.404 -0.2403 -0.4008 -0.5018
  467MOL0     C61530   5.792   3.220   1.366 -0.8931 -0.7831 -1.0414
  467MOL0     C61531   5.659   3.219   1.380 -0.4337  0.1958 -0.1978
  467MOL0     C61532   5.582   3.087   1.374  0.8922 -0.0560  0.2421
  467MOL0     C61533   5.474   3.073   1.476  0.4924  0.3473  0.1828
  467MOL0     C61534   5.523   3.074   1.618  0.3304  0.6595  0.4267
  467MOL0     C61535   5.397   3.099   1.710  0.0725 -0.4214  0.3841
  467MOL0     O61536   5.323   2.973   1.726  0.1426  0.2848 -0.0736
  467MOL0     C61537   5.194   2.981   1.777 -0.0075  0.5935  0.2013
  467MOL0     C61538   5.129   3.083   1.855  0.2069  0.6562  0.1127
  467MOL0     C61539   4.998   3.066   1.890 -0.7254 -0.7056 -0.3743
  467MOL0     C61540   4.918   2.959   1.862 -0.2220  1.0174  0.2622
  467MOL0     C61541   4.779   2.940   1.912  0.2631 -0.2641 -0.3733
  467MOL0     O61542   4.737   2.817   1.939  0.0851  0.3818 -0.2280
  467MOL0     C61543   4.602   2.787   1.926  0.0860  0.2830 -0.7747
  467MOL0     C61544   4.565   2.748   1.792  0.3409  0.3526 -0.1132
  467MOL0     C61545   4.433   2.716   1.761  0.0093  0.2006 -0.3879
  467MOL0     C61546   4.333   2.721   1.863  0.3555 -0.7180 -0.0606
  467MOL0     O61547   4.192   2.702   1.833 -0.6463  0.0085 -0.1694
  467MOL0     C61548   4.107   2.815   1.825  1.4067 -0.5012  0.0788
  467MOL0     C61549   3.974   2.775   1.856  0.4936 -0.5034  0.0998
  467MOL0     C61550   3.874   2.834   1.752  1.3225 -0.2357 -0.3233
  467MOL0     C61551   3.728   2.805   1.792 -0.1957  0.8517 -0.0340
  467MOL0     C61552   3.631   2.884   1.707 -0.2555  0.1884 -0.3907
  467MOL0     C61553   3.613   3.028   1.756  0.0001 -0.3418  0.6468
  467MOL0     C61554   3.519   3.096   1.649  0.0607  0.3092  0.5889
  467MOL0     C61555   3.474   3.236   1.687 -0.6021  0.1359 -0.6204
  467MOL0    Cl61556   3.601   3.357   1.737  0.3309  0.1980 -0.1099
  467MOL0     C61557   4.365   2.761   1.994 -0.3718 -0.1561  0.5555
  467MOL0     C61558   4.503   2.796   2.024  0.9183  0.4371  0.6349
  467MOL0     O61559   4.710   3.042   1.902 -0.2019 -0.2563 -0.4813
  467MOL0     C61560   4.982   2.849   1.793 -0.0252  0.4583  0.2172
  467MOL0     C61561   5.113   2.862   1.758 -1.3386  0.1247 -0.9764
  467MOL0     N61562   5.620   3.345   1.421  0.4270  0.2805 -0.1201
  467MOL0     N61563   5.727   3.418   1.438 -0.9003 -0.0220  0.3373
  467MOL0     C61564   6.512   2.478   1.736 -0.4816 -0.3117 -0.4398
  467MOL0     C61565   6.620   2.395   1.765 -0.8313  0.7065  0.4231
  467MOL0     C61566   6.878   2.046   1.924  0.9193 -0.4715 -1.1514
  467MOL0     C61567   6.980   2.125   1.887 -0.3279 -0.7218  0.1709
  467MOL0     C61568   7.112   2.083   1.897 -1.3867  0.8092  0.8018
  467MOL0     C61569   7.146   1.951   1.941  0.7809  0.1714  0.0905
  467MOL0     O61570   7.283   1.929   1.952 -0.0438 -0.4107  0.7119
  467MOL0     C61571   7.333   1.797   1.989  0.7902  0.3513  0.1824
  467MOL0     C61572   7.479   1.780   1.938 -0.4180 -0.5044 -0.5703
  467MOL0     C61573   7.496   1.811   1.789 -0.2663  0.0407 -1.3114
  467MOL0     C61574   7.643   1.807   1.757  0.9356  0.7354  0.6586
  467MOL0     C61575   7.706   1.933   1.786  0.0254  1.5995  0.0934
  467MOL0     C61576   7.760   2.037   1.817  0.9182 -0.0155  0.0302
  467MOL0     C61577   7.047   1.868   1.989  0.1777 -0.2300 -0.3433
  467MOL0     C61578   6.911   1.923   1.983 -0.3818  0.3075 -0.0110
  467MOL0     H61579   6.455   2.127   1.894  3.5932  0.4141  1.0401
  467MOL0     H61580   6.260   2.273   1.831 -0.7188 -0.7709 -1.7728
  467MOL0     H61581   6.316   2.653   1.581 -1.2720 -0.7302 -0.4464
  467MOL0     H61582   6.349   2.689   1.755 -1.8462  1.8261  0.9553
  467MOL0     H61583   6.101   2.732   1.796 -1.8510 -1.1928 -0.0644
  467MOL0     H61584   6.077   2.638   1.641 -0.7764 -0.8586  0.8414
  467MOL0     H61585   6.162   2.814   1.509  3.5792 -1.8567  0.9555
  467MOL0     H61586   6.228   2.902   1.641  1.7377 -0.7652 -0.6482
  467MOL0     H61587   5.935   2.880   1.562  1.2466  0.3573 -1.3321
  467MOL0     H61588   5.980   2.937   1.715 -1.3132  2.6607 -1.1768
  467MOL0     H61589   6.040   3.077   1.456 -3.6169  2.6526  0.7565
  467MOL0     H61590   6.156   3.106   1.595  0.3014  1.6632  1.7574
  467MOL0     H61591   5.984   3.167   1.742 -0.4361 -0.9404  0.5704
  467MOL0     H61592   5.860   3.145   1.632 -0.4916  1.0145  3.6075
  467MOL0     H61593   5.928   3.387   1.653  1.2889  0.5510  0.9394
  467MOL0     H61594   6.095   3.348   1.623 -0.7806  0.7456  0.3542
  467MOL0     H61595   6.035   3.296   1.384 -0.5903 -3.3112  1.7756
  467MOL0     H61596   5.996   3.462   1.424  0.3566 -0.6447 -1.8718
  467MOL0     H61597   5.861   3.137   1.353  2.0894  1.1460  1.0000
  467MOL0     H61598   5.647   3.002   1.393  1.0509  0.1972  0.8365
  467MOL0     H61599   5.519   3.059   1.289  0.6577  1.8155 -0.2459
  467MOL0     H61600   5.408   2.990   1.452 -0.5786  0.9228  1.0546
  467MOL0     H61601   5.410   3.161   1.461  0.8694  0.1948 -2.9431
  467MOL0     H61602   5.576   2.980   1.635  1.6055  0.8721 -1.8976
  467MOL0     H61603   5.589   3.160   1.627  0.1140  1.0288 -1.1462
  467MOL0     H61604   5.325   3.175   1.678  1.3659  1.8516  2.5646
  467MOL0     H61605   5.420   3.133   1.811 -0.6076 -1.3077  0.8566
  467MOL0     H61606   5.185   3.170   1.888  2.4637 -0.4851 -0.5109
  467MOL0     H61607   4.956   3.141   1.955  1.3410 -2.3008  3.0926
  467MOL0     H61608   4.638   2.741   1.712  1.1360 -1.6201  0.7072
  467MOL0     H61609   4.404   2.707   1.657 -4.1508 -0.3032  0.6482
  467MOL0     H61610   4.117   2.875   1.734 -1.3425  2.0482  1.3243
  467MOL0     H61611   4.142   2.878   1.907 -1.5060  2.4226 -0.7140
  467MOL0     H61612   3.945   2.821   1.951 -1.3160  0.9178 -1.0481
  467MOL0     H61613   3.966   2.666   1.855  0.0283 -0.4757 -1.4396
  467MOL0     H61614   3.889   2.799   1.650  1.6428 -1.1583  0.0312
  467MOL0     H61615   3.908   2.936   1.772  2.8583 -1.2353  2.7383
  467MOL0     H61616   3.716   2.699   1.770 -3.1109  0.2429  3.5086
  467MOL0     H61617   3.710   2.825   1.898  0.4022 -1.1581  0.4942
  467MOL0     H61618   3.534   2.834   1.707  1.1511 -2.7065  0.2074
  467MOL0     H61619   3.663   2.890   1.603 -1.3564  1.1498 -0.7015
  467MOL0     H61620   3.707   3.083   1.756 -1.4181  2.5485 -2.8008
  467MOL0     H61621   3.565   3.016   1.853 -0.5670  0.6792  0.5069
  467MOL0     H61622   3.578   3.105   1.556  0.8350 -0.8468  0.9395
  467MOL0     H61623   3.432   3.032   1.631 -0.1985  0.0799  2.5253
  467MOL0     H61624   3.424   3.216   1.782  2.6681 -1.7262  0.8706
  467MOL0     H61625   3.400   3.262   1.610 -1.5516 -3.5804 -1.1676
  467MOL0     H61626   4.283   2.775   2.063 -0.2180 -0.6562  0.8407
  467MOL0     H61627   4.514   2.840   2.123 -0.3006 -0.3347  1.1450
  467MOL0     H61628   4.936   2.751   1.785 -1.5057  1.1090  0.3348
  467MOL0     H61629   5.145   2.775   1.701  0.1481  2.4761 -4.0402
  467MOL0     H61630   6.533   2.576   1.693  0.1183  0.4812  1.5639
  467MOL0     H61631   6.725   2.422   1.751  0.1037 -1.7529  2.0164
  467MOL0     H61632   6.960   2.215   1.830  0.8396 -2.4627 -3.2939
  467MOL0     H61633   7.191   2.151   1.865 -0.4758 -1.2458 -1.6847
  467MOL0     H61634   7.273   1.713   1.954  0.8151 -0.6905  2.5329
  467MOL0     H61635   7.334   1.783   2.097 -0.4082 -1.3375  0.0050
  467MOL0     H61636   7.547   1.843   1.997 -1.4287 -0.8086  0.9728
  467MOL0     H61637   7.517   1.678   1.950  2.3236  0.4296 -0.5459
  467MOL0     H61638   7.458   1.909   1.759  2.0938  1.0325 -1.2414
  467MOL0     H61639   7.446   1.732   1.733 -2.3804 -0.6908  1.3783
  467MOL0     H61640   7.699   1.728   1.808 -0.4039 -0.8832 -0.3020
  467MOL0     H61641   7.652   1.788   1.650 -0.8952 -0.2573  0.6487
  467MOL0     H61642   7.809   2.130   1.833  3.7108 -1.2826 -0.4602
  467MOL0     H61643   7.069   1.773   2.036 -1.6659 -0.8019 -0.5394
  467MOL0     H61644   6.832   1.862   2.024  0.2893 -1.4030 -1.1585
  468MOL0     O61645   1.068   4.253   6.096  0.1397  0.2106  0.4093
  468MOL0     C61646   1.058   4.134   6.116 -0.3078  0.1118 -0.6232
  468MOL0     O61647   0.965   4.075   6.193  0.4004 -0.2523  1.0847
  468MOL0     C61648   0.852   4.142   6.237 -0.9185  0.0267 -0.5415
  468MOL0     C61649   0.831   4.157   6.375 -0.0771 -0.9854  0.2058
  468MOL0     C61650   0.731   4.243   6.418 -0.0921 -0.1306  0.2627
  468MOL0     C61651   0.654   4.320   6.330  0.1327  0.1928 -0.2079
  468MOL0     O61652   0.584   4.430   6.391 -0.6744  0.2050  0.5920
  468MOL0     C61653   0.455   4.456   6.338 -0.3954  0.3057 -0.0127
  468MOL0     C61654   0.442   4.577   6.251  0.0534 -0.0558  0.5243
  468MOL0     C61655   0.305   4.605   6.193  0.4335 -0.5998 -0.2918
  468MOL0     C61656   0.198   4.624   6.297  1.1968  0.4274  1.3509
  468MOL0     C61657   0.056   4.644   6.232  0.0200  0.7072 -0.3641
  468MOL0     C61658   0.010   4.791   6.234  0.4858 -0.0431  0.0520
  468MOL0     C61659  -0.130   4.805   6.178  0.4413  0.6565  0.4956
  468MOL0     C61660  -0.215   4.898   6.258 -0.8745 -0.2065 -0.1434
  468MOL0     N61661  -0.345   4.926   6.198 -0.0155  0.9061  0.5253
  468MOL0     C61662  -0.463   4.876   6.230  0.9808  0.6226  0.0142
  468MOL0     C61663  -0.555   4.962   6.182 -0.5784  0.1203  0.8688
  468MOL0     C61664  -0.701   4.976   6.197  0.4331 -0.8046 -0.3841
  468MOL0     C61665  -0.729   5.121   6.226 -0.1533 -0.1042  0.6065
  468MOL0     C61666  -0.753   5.204   6.096  0.0924  0.0164 -0.6522
  468MOL0     C61667  -0.866   5.304   6.102 -0.1471  0.9137 -1.0066
  468MOL0     O61668  -0.999   5.255   6.119  0.3468  0.3534 -0.1241
  468MOL0     C61669  -1.089   5.338   6.171 -0.3349 -1.0329 -0.4189
  468MOL0     C61670  -1.077   5.476   6.199  0.0382 -0.0040  0.1569
  468MOL0     C61671  -1.180   5.548   6.266 -0.6952 -0.0796 -0.5484
  468MOL0     C61672  -1.286   5.484   6.326 -0.2161  0.4472  0.8038
  468MOL0     C61673  -1.388   5.553   6.405  0.5777 -0.4075 -0.4700
  468MOL0     O61674  -1.376   5.694   6.423 -0.6451  0.2639  1.2404
  468MOL0     C61675  -1.477   5.770   6.477 -0.3620  0.8684  0.8031
  468MOL0     C61676  -1.444   5.879   6.556 -0.2823 -0.1118  1.2433
  468MOL0     C61677  -1.550   5.960   6.604  0.3226  0.2735  0.1229
  468MOL0     C61678  -1.683   5.950   6.563  0.3227 -0.6520 -0.5661
  468MOL0     O61679  -1.761   6.049   6.604  0.1174 -0.7505  0.5703
  468MOL0     C61680  -1.902   6.016   6.612 -0.2269 -0.7343 -0.8310
  468MOL0     C61681  -1.967   6.141   6.670  0.0226 -0.3526 -0.6819
  468MOL0     C61682  -2.118   6.135   6.654 -0.0789 -0.1830  0.4439
  468MOL0     C61683  -2.181   6.254   6.735  0.2231 -0.2554 -0.1301
  468MOL0     C61684  -2.331   6.252   6.714 -0.1100  0.1867 -0.2284
  468MOL0     C61685  -2.387   6.388   6.758 -0.4589 -0.3588 -0.0984
  468MOL0     C61686  -2.538   6.400   6.741 -0.3287 -0.7260  0.1479
  468MOL0     C61687  -2.575   6.446   6.596  0.7104 -0.0973  0.7521
  468MOL0    Cl61688  -2.758   6.497   6.597  0.1246 -0.2286 -0.3502
  468MOL0     C61689  -1.718   5.843   6.483 -0.1241  0.6405 -0.7614
  468MOL0     C61690  -1.618   5.760   6.435  0.4469  0.0092  0.8880
  468MOL0     O61691  -1.471   5.481   6.461  0.6340  0.0481 -0.0829
  468MOL0     C61692  -1.295   5.346   6.300  0.0382 -0.9325 -0.2606
  468MOL0     C61693  -1.207   5.280   6.204  0.2360 -0.2626  0.0475
  468MOL0     N61694  -0.484   5.056   6.109  0.4512 -0.0806 -0.0997
  468MOL0     N61695  -0.361   5.027   6.102 -0.3801  0.9571 -0.2717
  468MOL0     C61696   0.665   4.300   6.195 -0.7981  0.2149  0.0380
  468MOL0     C61697   0.774   4.221   6.151  0.4479 -0.5652 -0.3281
  468MOL0     C61698   1.168   4.048   6.058  0.4959  0.6110 -0.1535
  468MOL0     C61699   1.257   4.094   5.955 -0.2817 -0.6218  0.2951
  468MOL0     C61700   1.359   4.015   5.908 -1.3524  0.1535 -0.5904
  468MOL0     C61701   1.379   3.884   5.965  0.5408  0.2633  0.0297
  468MOL0     O61702   1.485   3.812   5.917 -0.4954 -0.9846  0.1507
  468MOL0     C61703   1.564   3.745   6.014  0.5585  0.1775 -0.1211
  468MOL0     C61704   1.708   3.749   5.974 -0.1697 -0.2965 -0.1742
  468MOL0     C61705   1.744   3.638   5.875  0.8617  0.0747  0.4464
  468MOL0     C61706   1.823   3.522   5.925  0.1511  0.0603  0.2135
  468MOL0     C61707   1.960   3.554   5.953 -0.0870  0.7941  0.4801
  468MOL0     C61708   2.086   3.571   5.970  0.0647  0.3030 -0.5455
  468MOL0     C61709   1.295   3.839   6.069 -0.2944  0.4314 -0.0767
  468MOL0     C61710   1.188   3.911   6.098 -0.6654  0.0445  0.3225
  468MOL0     H61711   0.889   4.100   6.448 -0.7797 -3.2281 -0.8877
  468MOL0     H61712   0.734   4.276   6.521  3.2801 -0.3314  0.3532
  468MOL0     H61713   0.397   4.474   6.429  0.4399 -2.0221  1.0619
  468MOL0     H61714   0.414   4.370   6.283  1.7303  0.1014 -1.3737
  468MOL0     H61715   0.512   4.556   6.170 -1.7689 -0.6861 -0.9624
  468MOL0     H61716   0.478   4.662   6.310 -0.4252  1.2468 -0.9885
  468MOL0     H61717   0.291   4.528   6.116  1.9834 -1.3288  0.1064
  468MOL0     H61718   0.294   4.695   6.132  0.7716 -1.2552 -1.3392
  468MOL0     H61719   0.198   4.539   6.366  1.8715  1.5356  2.7909
  468MOL0     H61720   0.221   4.710   6.361  0.9586  1.6581 -0.1579
  468MOL0     H61721  -0.019   4.588   6.289 -1.3188  0.8183 -1.9511
  468MOL0     H61722   0.051   4.599   6.133  0.7100 -0.5925  0.1604
  468MOL0     H61723   0.081   4.847   6.173 -0.0524 -1.2087 -1.7166
  468MOL0     H61724   0.011   4.828   6.337 -4.5683  2.5214 -0.5352
  468MOL0     H61725  -0.119   4.838   6.074 -0.1737  1.3989  0.6540
  468MOL0     H61726  -0.178   4.706   6.180  0.1160  0.8223  1.3123
  468MOL0     H61727  -0.153   4.988   6.266 -1.8643  0.4134  0.9106
  468MOL0     H61728  -0.232   4.840   6.349 -0.3992 -2.4412 -1.3859
  468MOL0     H61729  -0.477   4.786   6.289  2.4451 -0.6774 -1.5260
  468MOL0     H61730  -0.732   4.915   6.283 -0.5138  0.3837  0.1465
  468MOL0     H61731  -0.762   4.940   6.114 -2.2582 -4.0697  2.6506
  468MOL0     H61732  -0.659   5.173   6.291 -0.8152  0.6575  0.7186
  468MOL0     H61733  -0.823   5.115   6.281 -0.3639  1.0111  0.3916
  468MOL0     H61734  -0.661   5.259   6.073  0.2912  1.2322  2.5296
  468MOL0     H61735  -0.784   5.139   6.014 -0.7452 -1.0602  0.4841
  468MOL0     H61736  -0.859   5.357   6.007  5.1122 -0.3082 -1.6196
  468MOL0     H61737  -0.838   5.375   6.179  1.0937 -1.5058  0.9188
  468MOL0     H61738  -0.989   5.531   6.170 -0.7795  0.2185 -2.0755
  468MOL0     H61739  -1.157   5.652   6.283 -0.0959 -0.1707 -0.7899
  468MOL0     H61740  -1.339   5.899   6.577  0.1836 -0.1164 -0.8915
  468MOL0     H61741  -1.523   6.038   6.674 -0.0255 -2.7017  3.9416
  468MOL0     H61742  -1.937   5.928   6.666 -0.0318  0.9119  2.1678
  468MOL0     H61743  -1.946   6.015   6.511 -0.6403  1.9658 -0.7487
  468MOL0     H61744  -1.928   6.233   6.625  0.7257 -1.2919 -2.0424
  468MOL0     H61745  -1.932   6.145   6.774  0.0613  0.5225 -0.7197
  468MOL0     H61746  -2.154   6.050   6.712  2.1726  1.1367  4.1388
  468MOL0     H61747  -2.143   6.130   6.547  1.7823 -2.5115  0.0445
  468MOL0     H61748  -2.159   6.255   6.842  3.2309 -2.0807 -0.6176
  468MOL0     H61749  -2.130   6.338   6.689  4.9642 -1.9970  1.3089
  468MOL0     H61750  -2.367   6.174   6.781 -0.5687 -0.2163 -0.9305
  468MOL0     H61751  -2.362   6.222   6.613 -1.2020  0.7657 -0.0831
  468MOL0     H61752  -2.333   6.457   6.693 -3.1052 -0.4306 -2.5751
  468MOL0     H61753  -2.364   6.410   6.862 -0.9524  1.1234 -0.2873
  468MOL0     H61754  -2.601   6.315   6.770 -0.8219 -0.0766  1.0265
  468MOL0     H61755  -2.555   6.482   6.811  1.1056 -1.0518  0.9087
  468MOL0     H61756  -2.562   6.352   6.541 -1.8590 -1.2267  1.9082
  468MOL0     H61757  -2.516   6.532   6.566 -2.7867  2.6187  1.0426
  468MOL0     H61758  -1.822   5.837   6.451 -0.3543 -0.1903  0.0771
  468MOL0     H61759  -1.637   5.675   6.371 -0.0720  1.8415 -1.5562
  468MOL0     H61760  -1.383   5.288   6.327 -0.2646 -0.2227  0.3145
  468MOL0     H61761  -1.218   5.175   6.177  0.5713 -0.9120  2.1957
  468MOL0     H61762   0.604   4.369   6.138  0.9472  1.9229  0.1242
  468MOL0     H61763   0.800   4.213   6.046 -1.4008 -0.8270 -0.8104
  468MOL0     H61764   1.242   4.194   5.917  1.5145  0.3816  2.0070
  468MOL0     H61765   1.422   4.066   5.835 -0.0643  0.9744  1.0094
  468MOL0     H61766   1.523   3.644   6.029 -3.0927  1.6063  0.4919
  468MOL0     H61767   1.557   3.795   6.110 -0.0032 -1.4005  0.6943
  468MOL0     H61768   1.725   3.848   5.930  1.0359 -1.2991 -2.0698
  468MOL0     H61769   1.776   3.740   6.060 -0.7499  1.5270  0.5404
  468MOL0     H61770   1.798   3.685   5.792  0.5134  2.8882  1.6921
  468MOL0     H61771   1.649   3.603   5.834  1.1838 -0.8843  0.4936
  468MOL0     H61772   1.773   3.477   6.011 -0.5646 -2.2110 -1.2923
  468MOL0     H61773   1.826   3.436   5.857 -2.2815 -1.5794  1.9971
  468MOL0     H61774   2.193   3.566   5.969  0.0352 -2.4627  0.7314
  468MOL0     H61775   1.310   3.744   6.121  0.7501  0.8620  0.4341
  468MOL0     H61776   1.132   3.875   6.184 -0.6066  1.1537  0.8503
  469MOL0     O61777   3.977  10.572   7.966 -0.3712  0.4417  0.4137
  469MOL0     C61778   4.067  10.578   8.053 -0.6981 -0.0694 -0.3808
  469MOL0     O61779   4.059  10.648   8.169 -0.9819  0.3055  0.4204
  469MOL0     C61780   3.957  10.727   8.198  0.9485 -0.1453 -0.1163
  469MOL0     C61781   3.919  10.839   8.120  0.5873  0.6888  0.3777
  469MOL0     C61782   3.816  10.923   8.158  1.7512 -0.0158 -0.3772
  469MOL0     C61783   3.749  10.899   8.281 -0.4192 -0.0840  1.1059
  469MOL0     O61784   3.651  10.983   8.307  0.1795  0.0171 -0.0531
  469MOL0     C61785   3.680  11.129   8.293 -0.5691 -0.1582  0.4199
  469MOL0     C61786   3.604  11.226   8.395  0.1787 -0.2608 -0.1908
  469MOL0     C61787   3.450  11.240   8.370 -0.3535  0.1773  0.2083
  469MOL0     C61788   3.372  11.311   8.490 -0.2678  0.7071 -0.6548
  469MOL0     C61789   3.233  11.321   8.453 -1.0076  0.3366  0.2900
  469MOL0     C61790   3.144  11.386   8.558 -0.0494 -0.0064 -0.2456
  469MOL0     C61791   3.006  11.427   8.484 -0.6088  0.1843 -1.1274
  469MOL0     C61792   2.906  11.485   8.599 -0.6412  1.0230  0.7986
  469MOL0     N61793   2.772  11.478   8.542  0.5245  0.3137 -0.1348
  469MOL0     C61794   2.734  11.538   8.423  0.1757 -0.2002 -1.2468
  469MOL0     C61795   2.603  11.508   8.413  0.4113 -0.5598  0.5497
  469MOL0     C61796   2.516  11.571   8.304 -0.6381 -0.1476  0.4389
  469MOL0     C61797   2.428  11.664   8.381 -0.8035 -0.4805 -0.0189
  469MOL0     C61798   2.283  11.606   8.402 -0.0876 -0.2443 -0.6782
  469MOL0     C61799   2.195  11.688   8.497 -0.6453 -0.1032 -0.3266
  469MOL0     O61800   2.063  11.622   8.503 -0.3080 -0.0491 -0.5828
  469MOL0     C61801   1.964  11.700   8.564 -0.1294 -0.4817 -1.1152
  469MOL0     C61802   1.980  11.813   8.644 -0.2672  0.3128 -0.0618
  469MOL0     C61803   1.875  11.880   8.708 -0.2203 -0.5185 -0.0340
  469MOL0     C61804   1.742  11.854   8.676  0.3316  0.0486 -0.2316
  469MOL0     C61805   1.628  11.936   8.738  0.8683 -0.0068  0.7348
  469MOL0     O61806   1.505  11.876   8.753 -0.3728 -0.3147  0.1367
  469MOL0     C61807   1.398  11.935   8.821 -1.0492 -0.3233  0.4632
  469MOL0     C61808   1.305  11.845   8.866 -0.2189 -0.1935 -0.3427
  469MOL0     C61809   1.194  11.887   8.935 -0.7116 -0.1430 -0.4072
  469MOL0     C61810   1.158  12.024   8.949  1.1935  0.5348  0.1242
  469MOL0     O61811   1.035  12.058   9.010  0.4289  0.4067  0.9384
  469MOL0     C61812   1.067  12.098   9.150 -0.0847 -0.4051  0.2692
  469MOL0     C61813   1.057  11.994   9.251 -0.1296 -0.9317 -0.5118
  469MOL0     C61814   0.904  11.969   9.281 -1.0460  0.7523 -0.2087
  469MOL0     C61815   0.841  12.078   9.375 -0.6537 -0.2688 -0.7898
  469MOL0     C61816   0.710  12.033   9.434 -0.1510  0.4742  0.2805
  469MOL0     C61817   0.657  12.147   9.514  0.3893 -0.3078 -0.0190
  469MOL0     C61818   0.544  12.087   9.591  0.5900 -0.3370 -0.4778
  469MOL0     C61819   0.589  12.027   9.719 -0.8320  1.0661  1.4038
  469MOL0    Cl61820   0.466  12.053   9.845  0.1116 -0.1845 -0.3467
  469MOL0     C61821   1.248  12.112   8.893  0.6421  0.3460 -0.0456
  469MOL0     C61822   1.364  12.070   8.825  0.3556 -0.6467  0.2923
  469MOL0     O61823   1.664  12.044   8.774  0.5612 -0.2505  0.0990
  469MOL0     C61824   1.722  11.735   8.600 -0.2980  0.3339  0.1914
  469MOL0     C61825   1.829  11.654   8.550  0.1124 -0.2837  0.1172
  469MOL0     N61826   2.568  11.413   8.506  0.2976 -1.2254  0.4053
  469MOL0     N61827   2.670  11.401   8.590 -0.4083 -0.3532 -0.1722
  469MOL0     C61828   3.795  10.797   8.358  0.8736  0.1240 -0.0190
  469MOL0     C61829   3.884  10.699   8.314  0.1982 -0.6186 -0.2086
  469MOL0     C61830   4.193  10.518   8.008  1.2732  0.7393 -0.2548
  469MOL0     C61831   4.206  10.427   7.898  0.5380 -0.7801 -0.0058
  469MOL0     C61832   4.328  10.386   7.856 -0.3978  0.9071 -0.0012
  469MOL0     C61833   4.446  10.413   7.934  0.6509 -0.9672  0.9799
  469MOL0     O61834   4.571  10.381   7.883 -0.4393 -0.0297  0.5081
  469MOL0     C61835   4.579  10.240   7.874 -0.1365  0.4734 -0.1503
  469MOL0     C61836   4.688  10.213   7.973  0.2673 -0.5971  0.0068
  469MOL0     C61837   4.826  10.266   7.924 -0.4356  0.5421 -0.6015
  469MOL0     C61838   4.920  10.147   7.871  0.4193 -0.3726  0.0648
  469MOL0     C61839   4.861  10.081   7.759  1.0287 -0.7281  0.0329
  469MOL0     C61840   4.805  10.010   7.675 -0.2726 -0.0265  0.5753
  469MOL0     C61841   4.427  10.485   8.050  0.0307  0.4597  0.9482
  469MOL0     C61842   4.301  10.536   8.092 -0.1936 -0.4498 -0.1133
  469MOL0     H61843   3.973  10.865   8.030  0.1951  0.0779 -0.0462
  469MOL0     H61844   3.782  11.010   8.102  1.9286  0.0912 -0.3193
  469MOL0     H61845   3.672  11.154   8.187 -0.0702  0.2410  0.4754
  469MOL0     H61846   3.787  11.141   8.311  0.0158  0.8146 -2.9558
  469MOL0     H61847   3.640  11.328   8.381 -2.0738  0.7857  1.1344
  469MOL0     H61848   3.631  11.186   8.493 -1.7830 -1.5626 -0.1179
  469MOL0     H61849   3.408  11.145   8.337 -1.0168  0.8149 -0.8523
  469MOL0     H61850   3.445  11.302   8.280 -2.3762 -1.3412 -0.8029
  469MOL0     H61851   3.397  11.249   8.577 -0.3941  2.3239  0.5954
  469MOL0     H61852   3.408  11.414   8.498 -2.1708  1.3338  0.6260
  469MOL0     H61853   3.189  11.225   8.428 -0.7858  1.1423 -3.9009
  469MOL0     H61854   3.232  11.368   8.354 -1.0924  2.0894  1.0831
  469MOL0     H61855   3.184  11.472   8.611 -1.0028  1.4563 -1.8078
  469MOL0     H61856   3.117  11.311   8.633 -2.2488  2.9881  2.1799
  469MOL0     H61857   3.018  11.505   8.408 -1.5045  0.2451 -1.2133
  469MOL0     H61858   2.969  11.332   8.445 -1.4288  0.2277 -0.4749
  469MOL0     H61859   2.939  11.588   8.616  2.8674  0.7776 -2.8155
  469MOL0     H61860   2.906  11.424   8.689  0.9574 -0.4467 -0.1319
  469MOL0     H61861   2.798  11.598   8.359  0.2859  0.8673 -0.1799
  469MOL0     H61862   2.455  11.502   8.245 -1.5528 -1.6457  3.0092
  469MOL0     H61863   2.576  11.633   8.236 -0.1994 -0.3966  0.5949
  469MOL0     H61864   2.419  11.756   8.323 -0.9246  0.3614  1.2775
  469MOL0     H61865   2.463  11.700   8.478  0.4974 -3.5355  0.7826
  469MOL0     H61866   2.236  11.619   8.305 -0.3194  1.2402 -0.3984
  469MOL0     H61867   2.279  11.500   8.427 -0.9436  0.4996  3.0800
  469MOL0     H61868   2.185  11.791   8.462 -0.5328  0.0732  0.1469
  469MOL0     H61869   2.245  11.689   8.594 -0.5864 -0.2875 -0.3547
  469MOL0     H61870   2.077  11.850   8.674  0.1439  0.6477 -1.7103
  469MOL0     H61871   1.886  11.962   8.778 -1.8404 -1.2131  1.0727
  469MOL0     H61872   1.319  11.741   8.839  1.9515 -0.4091  1.2959
  469MOL0     H61873   1.127  11.813   8.979 -1.5241  0.6956 -0.2066
  469MOL0     H61874   1.002  12.181   9.180 -0.6643 -0.7408 -0.0324
  469MOL0     H61875   1.166  12.142   9.164  0.1814 -0.0577 -2.2182
  469MOL0     H61876   1.102  12.025   9.346 -0.7447 -0.5923 -0.3262
  469MOL0     H61877   1.111  11.905   9.216  5.3304  0.4007  3.2202
  469MOL0     H61878   0.910  11.877   9.340  0.4744  1.7808  1.3653
  469MOL0     H61879   0.851  11.957   9.186 -1.5388 -0.1276  0.1630
  469MOL0     H61880   0.910  12.112   9.453 -1.5701 -0.3645  0.0882
  469MOL0     H61881   0.814  12.161   9.309 -2.7621 -0.5764 -0.3869
  469MOL0     H61882   0.721  11.944   9.497 -1.5213  1.1292  1.5054
  469MOL0     H61883   0.638  12.013   9.354 -0.5241  2.3698  0.1080
  469MOL0     H61884   0.627  12.233   9.453  0.9594  1.3806  1.9706
  469MOL0     H61885   0.733  12.182   9.584  0.0559  0.6486 -0.1123
  469MOL0     H61886   0.465  12.159   9.617  1.2525 -0.0717  0.9155
  469MOL0     H61887   0.506  12.004   9.530 -0.8088  0.2872 -0.4942
  469MOL0     H61888   0.681  12.065   9.764  0.7030 -3.0752  2.1286
  469MOL0     H61889   0.615  11.921   9.714  2.3598  1.6991  2.5866
  469MOL0     H61890   1.230  12.218   8.908 -0.0638  0.4918 -1.6556
  469MOL0     H61891   1.425  12.154   8.793 -0.4055 -0.0379  0.4040
  469MOL0     H61892   1.622  11.706   8.567 -0.6254  1.9085 -0.3059
  469MOL0     H61893   1.817  11.560   8.498  1.5646 -0.6136  0.3330
  469MOL0     H61894   3.734  10.778   8.446  1.9145 -0.0425  0.6872
  469MOL0     H61895   3.914  10.624   8.387 -1.2556 -1.4856 -0.4599
  469MOL0     H61896   4.127  10.405   7.827  0.4013 -2.2422  0.5552
  469MOL0     H61897   4.331  10.336   7.760 -1.0470  0.8581 -0.0046
  469MOL0     H61898   4.604  10.196   7.777 -1.1789 -0.1624 -0.1492
  469MOL0     H61899   4.490  10.194   7.919  0.7140  1.2744  2.5505
  469MOL0     H61900   4.652  10.254   8.067 -1.3529 -3.2375  0.6439
  469MOL0     H61901   4.700  10.105   7.988  0.8137 -0.0712  5.3933
  469MOL0     H61902   4.883  10.310   8.006  0.9602 -1.7860 -0.2037
  469MOL0     H61903   4.823  10.350   7.854  3.3988  0.7000 -0.8122
  469MOL0     H61904   5.015  10.195   7.845  1.0164 -0.5086  1.8291
  469MOL0     H61905   4.932  10.075   7.952 -0.9650  1.9479  2.4982
  469MOL0     H61906   4.789   9.934   7.601 -0.8105 -1.0844  1.7450
  469MOL0     H61907   4.513  10.494   8.115  1.6208 -0.1267 -0.9730
  469MOL0     H61908   4.301  10.589   8.186  3.5856 -0.5978  0.1214
  470MOL0     O61909   7.547   6.305   7.474  0.7363  0.5215  0.0866
  470MOL0     C61910   7.640   6.225   7.492 -0.2311  0.3854  0.1470
  470MOL0     O61911   7.637   6.097   7.538  0.6519  0.3554  0.1412
  470MOL0     C61912   7.520   6.036   7.557 -0.5389  0.0269 -0.9178
  470MOL0     C61913   7.417   6.093   7.627  0.4228 -0.2254  0.7461
  470MOL0     C61914   7.287   6.033   7.637  0.1216 -0.9926 -0.0446
  470MOL0     C61915   7.265   5.906   7.583 -0.2054  0.0429 -0.3116
  470MOL0     O61916   7.150   5.833   7.596 -0.7705 -0.5304  0.3511
  470MOL0     C61917   7.068   5.867   7.710  0.3390  0.4078 -0.1902
  470MOL0     C61918   6.950   5.773   7.727  0.4485 -0.0642 -0.5045
  470MOL0     C61919   6.879   5.744   7.596 -1.2054  0.0590  0.5109
  470MOL0     C61920   6.748   5.677   7.608  0.4000 -0.8566 -0.6755
  470MOL0     C61921   6.685   5.643   7.475  0.2923 -0.6471 -0.2029
  470MOL0     C61922   6.540   5.597   7.506  0.4086  0.3897  1.1176
  470MOL0     C61923   6.471   5.534   7.376  0.2559  0.9026  0.6379
  470MOL0     C61924   6.325   5.515   7.400  1.4380 -0.4517 -0.0692
  470MOL0     N61925   6.257   5.617   7.326  0.3431 -0.1488  0.6805
  470MOL0     C61926   6.249   5.751   7.355 -1.0474 -0.5038 -0.2722
  470MOL0     C61927   6.208   5.802   7.234  0.2662 -0.2574 -0.0077
  470MOL0     C61928   6.196   5.950   7.205 -0.0931  0.2887 -0.8403
  470MOL0     C61929   6.051   5.988   7.189  0.3496  0.9426 -0.2759
  470MOL0     C61930   6.026   6.128   7.138 -0.2230  0.4360 -0.1609
  470MOL0     C61931   5.875   6.168   7.135  0.2819 -0.4887  0.4574
  470MOL0     O61932   5.846   6.162   6.991 -0.0552  0.3205 -0.0703
  470MOL0     C61933   5.717   6.133   6.946 -0.5332  0.0914 -0.5764
  470MOL0     C61934   5.614   6.084   7.018  0.2882  0.2749 -0.1806
  470MOL0     C61935   5.485   6.072   6.957 -0.1745 -0.1999  0.3922
  470MOL0     C61936   5.467   6.099   6.822 -0.1723  0.8712  0.9299
  470MOL0     C61937   5.335   6.077   6.760 -0.4047  0.3020 -1.0779
  470MOL0     O61938   5.236   6.022   6.850  0.5367 -0.1616  0.0817
  470MOL0     C61939   5.109   5.997   6.810 -0.5935  0.2517 -0.2675
  470MOL0     C61940   5.029   5.934   6.909 -1.1241 -0.2714 -0.0715
  470MOL0     C61941   4.895   5.894   6.874  0.4668  0.1431 -0.2252
  470MOL0     C61942   4.837   5.935   6.759  0.1179  0.4665  0.3719
  470MOL0     O61943   4.707   5.895   6.732  0.3704 -0.4919  0.3874
  470MOL0     C61944   4.634   5.986   6.662  0.5431 -0.2471 -0.5228
  470MOL0     C61945   4.492   5.958   6.703  0.4276 -0.1700 -0.2915
  470MOL0     C61946   4.394   6.034   6.610 -1.0971  0.0816 -0.3102
  470MOL0     C61947   4.259   5.975   6.629 -0.0020  0.3229 -0.2298
  470MOL0     C61948   4.250   5.818   6.594 -0.2316 -0.6307 -0.4474
  470MOL0     C61949   4.327   5.777   6.471 -0.4568 -0.6100  0.0650
  470MOL0     C61950   4.295   5.855   6.337 -0.8853 -0.0320 -0.4134
  470MOL0     C61951   4.364   5.798   6.214  0.2533  0.0849  0.7661
  470MOL0    Cl61952   4.323   5.894   6.070  0.1657 -0.4117  0.2293
  470MOL0     C61953   4.912   5.999   6.660 -0.0678 -0.1860  0.0966
  470MOL0     C61954   5.046   6.032   6.690 -0.0766  0.0806 -0.0595
  470MOL0     O61955   5.324   6.112   6.640  0.0112  0.0452  0.4728
  470MOL0     C61956   5.576   6.147   6.748  1.3793 -0.0129  0.0440
  470MOL0     C61957   5.696   6.164   6.810 -0.2422 -0.0932 -0.6927
  470MOL0     N61958   6.165   5.700   7.151  0.0218  0.4242 -0.6799
  470MOL0     N61959   6.197   5.582   7.209 -0.5979 -1.0431 -0.2221
  470MOL0     C61960   7.373   5.850   7.517  0.0239  0.3237  0.5023
  470MOL0     C61961   7.500   5.909   7.514  0.7362  0.6551  0.9207
  470MOL0     C61962   7.776   6.273   7.447  0.7315 -0.4074 -0.3074
  470MOL0     C61963   7.798   6.394   7.367 -0.1924  0.3177  0.5474
  470MOL0     C61964   7.915   6.410   7.301 -0.2310  1.0011  0.1273
  470MOL0     C61965   8.027   6.329   7.328  0.2892  0.6981  0.4021
  470MOL0     O61966   8.157   6.355   7.275  0.3321  0.1351  0.3653
  470MOL0     C61967   8.165   6.421   7.146  0.7965 -0.2760  0.1830
  470MOL0     C61968   8.293   6.371   7.068 -0.5614  0.3782  0.0466
  470MOL0     C61969   8.425   6.379   7.151  0.5768  0.4783  0.4414
  470MOL0     C61970   8.542   6.355   7.051  1.0947  0.0012  0.0605
  470MOL0     C61971   8.659   6.339   7.137  0.3073 -0.1517 -0.4470
  470MOL0     C61972   8.756   6.314   7.216 -0.0169 -0.7664  0.2890
  470MOL0     C61973   8.019   6.228   7.420  0.3741  1.3706  0.2578
  470MOL0     C61974   7.892   6.196   7.480 -0.0567 -0.0819 -0.1641
  470MOL0     H61975   7.419   6.194   7.668 -0.2103  1.0181 -2.0469
  470MOL0     H61976   7.216   6.093   7.692 -0.1848 -0.6481 -0.7974
  470MOL0     H61977   7.028   5.968   7.700  1.8411  1.3238  2.1562
  470MOL0     H61978   7.136   5.855   7.795 -0.3251 -2.4727  0.0459
  470MOL0     H61979   6.872   5.792   7.802 -0.1888 -0.7824 -0.9626
  470MOL0     H61980   6.993   5.678   7.760 -2.9008 -2.5100 -2.5193
  470MOL0     H61981   6.942   5.691   7.525  1.3162  4.0496 -0.5058
  470MOL0     H61982   6.852   5.839   7.549 -1.3310 -0.3207 -0.1935
  470MOL0     H61983   6.766   5.591   7.673  0.9613 -1.7097 -1.9127
  470MOL0     H61984   6.674   5.742   7.656  0.1919 -1.4346 -0.2086
  470MOL0     H61985   6.744   5.557   7.440 -1.4281 -2.2624  0.6839
  470MOL0     H61986   6.688   5.728   7.406 -0.6686  0.9357  1.5949
  470MOL0     H61987   6.474   5.679   7.534  0.4709  0.5834  0.7006
  470MOL0     H61988   6.536   5.527   7.590  0.1417  0.1973  0.9436
  470MOL0     H61989   6.494   5.601   7.293  1.0984 -0.5485 -0.3341
  470MOL0     H61990   6.514   5.435   7.361 -1.4244  0.4000 -1.3769
  470MOL0     H61991   6.295   5.532   7.504  1.3461  1.5198 -0.3858
  470MOL0     H61992   6.291   5.417   7.363 -1.3925 -0.2232  1.5885
  470MOL0     H61993   6.281   5.794   7.450  0.9918 -2.5774  0.0714
  470MOL0     H61994   6.253   5.970   7.114  1.4152  1.0092  0.2049
  470MOL0     H61995   6.240   6.008   7.288 -3.3021  2.6069 -0.5814
  470MOL0     H61996   6.000   5.969   7.283  2.4924 -0.1402  0.7500
  470MOL0     H61997   6.007   5.923   7.113  2.0202 -0.6029 -0.0063
  470MOL0     H61998   6.075   6.204   7.199 -1.2741  1.5571 -0.6686
  470MOL0     H61999   6.064   6.144   7.036 -0.8833 -0.9808 -0.6625
  470MOL0     H62000   5.859   6.271   7.168 -3.2119 -1.1684  1.2299
  470MOL0     H62001   5.818   6.100   7.199  0.7760 -1.3575 -0.0056
  470MOL0     H62002   5.623   6.058   7.123  1.2163  1.1622 -0.0218
  470MOL0     H62003   5.408   6.037   7.024  0.9040 -1.1584  1.1706
  470MOL0     H62004   5.069   5.903   7.006  2.1308  2.1158 -0.4740
  470MOL0     H62005   4.835   5.839   6.946  0.0395 -0.8620 -1.3046
  470MOL0     H62006   4.638   5.961   6.555  2.0835 -1.7056 -0.1635
  470MOL0     H62007   4.645   6.091   6.688  1.8167 -0.8486  1.6005
  470MOL0     H62008   4.470   6.000   6.801  1.0166 -0.6088  0.0359
  470MOL0     H62009   4.470   5.854   6.727 -2.5867  1.2051  3.9177
  470MOL0     H62010   4.428   6.020   6.506 -0.9973  1.9023 -0.5589
  470MOL0     H62011   4.398   6.140   6.636 -1.2315 -0.1813  0.8380
  470MOL0     H62012   4.218   5.991   6.729 -3.6920  1.0240 -1.6852
  470MOL0     H62013   4.190   6.038   6.573 -1.4718  0.9642  2.1361
  470MOL0     H62014   4.147   5.780   6.591 -1.6667  2.3641  3.2462
  470MOL0     H62015   4.297   5.766   6.677  0.3988  0.3021 -0.2076
  470MOL0     H62016   4.318   5.668   6.469  2.8439 -1.0148  0.7600
  470MOL0     H62017   4.434   5.794   6.488 -0.4714  0.5863 -0.8919
  470MOL0     H62018   4.190   5.868   6.311 -0.6949  2.3271 -0.1988
  470MOL0     H62019   4.324   5.960   6.337 -2.2207  0.3536 -0.1617
  470MOL0     H62020   4.333   5.695   6.195  2.0095 -1.1323  3.8312
  470MOL0     H62021   4.473   5.797   6.228  0.3699  3.5075  0.8933
  470MOL0     H62022   4.878   6.019   6.559  0.6062  0.6053  0.0162
  470MOL0     H62023   5.101   6.086   6.613  1.9836  0.0817  1.3492
  470MOL0     H62024   5.550   6.174   6.646 -0.9960 -3.1605 -0.3282
  470MOL0     H62025   5.773   6.213   6.751  0.4016 -0.3041 -0.0363
  470MOL0     H62026   7.368   5.757   7.462  0.5811  1.2728 -1.2085
  470MOL0     H62027   7.578   5.853   7.464 -0.6818 -1.3342  0.8183
  470MOL0     H62028   7.715   6.458   7.340 -0.8434  0.1549  2.0700
  470MOL0     H62029   7.925   6.492   7.230  0.5215  0.5644 -0.2934
  470MOL0     H62030   8.167   6.529   7.164  0.5367 -0.3198  0.4708
  470MOL0     H62031   8.073   6.393   7.094  0.1660 -0.5569  1.4207
  470MOL0     H62032   8.274   6.269   7.032  1.3366  0.8861 -2.7084
  470MOL0     H62033   8.311   6.428   6.977  1.0441 -0.4726 -0.2081
  470MOL0     H62034   8.420   6.302   7.228  0.4787 -1.3330 -1.3022
  470MOL0     H62035   8.442   6.468   7.212  0.6557 -0.6554  2.1465
  470MOL0     H62036   8.528   6.257   7.005  2.8266  0.5055 -1.6526
  470MOL0     H62037   8.563   6.427   6.972 -0.7770  1.8876  1.1741
  470MOL0     H62038   8.847   6.297   7.269  0.8224  0.1844 -0.8009
  470MOL0     H62039   8.105   6.165   7.440  0.1392  1.3265  1.2124
  470MOL0     H62040   7.882   6.110   7.545  1.1138 -1.2366 -1.4388
  471MOL0     O62041   6.876   3.653   6.193  0.2573 -0.3734 -0.1041
  471MOL0     C62042   6.955   3.627   6.100 -0.0334  0.1155  0.4431
  471MOL0     O62043   6.917   3.541   5.996  0.5300  0.1287  0.4772
  471MOL0     C62044   6.779   3.518   5.993  0.2994  0.4621  0.6532
  471MOL0     C62045   6.700   3.623   5.943 -0.2537  0.4039 -0.6243
  471MOL0     C62046   6.561   3.602   5.920 -0.3596  0.5380  0.0887
  471MOL0     C62047   6.498   3.476   5.952  0.7476 -0.2770  0.4011
  471MOL0     O62048   6.357   3.475   5.940 -0.1912 -0.3634  0.3361
  471MOL0     C62049   6.303   3.378   6.024  0.0735 -0.3277 -1.1917
  471MOL0     C62050   6.152   3.377   6.067 -1.1753  0.0791  1.0407
  471MOL0     C62051   6.065   3.360   5.948 -0.1474  0.4296  1.3415
  471MOL0     C62052   5.917   3.349   5.989  0.8056 -0.0227  0.8106
  471MOL0     C62053   5.815   3.344   5.871 -1.1933  0.2396  0.2878
  471MOL0     C62054   5.678   3.336   5.941  0.4724  0.0658  1.0339
  471MOL0     C62055   5.564   3.309   5.836 -0.1413 -0.4323  0.0061
  471MOL0     C62056   5.431   3.282   5.909  1.7486 -0.0372 -0.4985
  471MOL0     N62057   5.392   3.383   6.017 -0.1648  0.7136  0.1146
  471MOL0     C62058   5.323   3.502   5.993 -0.6134 -0.0181 -0.2699
  471MOL0     C62059   5.280   3.535   6.126 -0.0798  0.0496  0.9533
  471MOL0     C62060   5.212   3.652   6.157  0.5718  0.2671  0.3137
  471MOL0     C62061   5.064   3.623   6.166  0.1941 -1.1235  0.5230
  471MOL0     C62062   5.000   3.768   6.192 -0.3742 -0.6093  0.7269
  471MOL0     C62063   4.850   3.757   6.218  0.1752  0.6392  0.3579
  471MOL0     O62064   4.801   3.878   6.276 -0.2993 -0.0322 -0.2906
  471MOL0     C62065   4.681   3.883   6.324 -0.4278 -0.9642  0.1112
  471MOL0     C62066   4.648   4.012   6.388 -0.2230  0.4785  0.3225
  471MOL0     C62067   4.517   4.046   6.419 -0.8207  0.8841 -0.4008
  471MOL0     C62068   4.415   3.950   6.393 -0.5630 -0.2039 -0.0124
  471MOL0     C62069   4.265   3.992   6.421 -0.3230  0.7974 -0.5866
  471MOL0     O62070   4.181   3.894   6.411 -0.0410 -0.4987 -0.4122
  471MOL0     C62071   4.044   3.900   6.434 -0.8276  0.5574  0.1238
  471MOL0     C62072   3.973   3.993   6.504  1.0375 -0.2020 -0.0245
  471MOL0     C62073   3.836   3.984   6.525  0.4653 -0.9931  0.6732
  471MOL0     C62074   3.763   3.881   6.486  0.3501  0.7976  0.2961
  471MOL0     O62075   3.625   3.868   6.510 -0.5236 -0.3073  0.0504
  471MOL0     C62076   3.549   3.761   6.457 -1.3004  1.0255  0.1176
  471MOL0     C62077   3.400   3.780   6.498  0.2695 -0.1114 -0.1733
  471MOL0     C62078   3.356   3.700   6.614 -0.1090  0.2220  0.5583
  471MOL0     C62079   3.211   3.732   6.651  0.1332  0.2916  0.4125
  471MOL0     C62080   3.172   3.640   6.772  0.4002 -0.7589  0.6604
  471MOL0     C62081   3.026   3.646   6.802 -0.3556 -0.6808 -0.3628
  471MOL0     C62082   3.002   3.558   6.924  0.1378  0.8697  0.0248
  471MOL0     C62083   2.856   3.555   6.963  0.1714  0.0573  0.2441
  471MOL0    Cl62084   2.778   3.412   6.898 -0.8040 -0.0644 -0.4605
  471MOL0     C62085   3.822   3.783   6.410 -0.2327 -0.9291  0.1312
  471MOL0     C62086   3.959   3.785   6.395 -0.2022  0.4435  0.1144
  471MOL0     O62087   4.237   4.099   6.455  0.6865 -0.4726 -0.4447
  471MOL0     C62088   4.445   3.824   6.336 -0.5537 -0.9019 -0.5250
  471MOL0     C62089   4.577   3.797   6.309  0.0122 -0.8069  0.0133
  471MOL0     N62090   5.334   3.442   6.210  0.2363  0.0754 -1.1845
  471MOL0     N62091   5.399   3.348   6.152 -0.2833 -0.9967  0.0875
  471MOL0     C62092   6.587   3.368   5.984 -0.4923 -0.3146  0.7532
  471MOL0     C62093   6.722   3.392   6.010 -0.4450  0.8746  0.1140
  471MOL0     C62094   7.097   3.685   6.099 -0.1617 -0.4655 -0.5641
  471MOL0     C62095   7.202   3.614   6.043  0.9345 -0.2095 -0.3870
  471MOL0     C62096   7.334   3.669   6.047  1.1406  1.0192  0.7313
  471MOL0     C62097   7.357   3.785   6.126 -0.3474  0.5284 -0.2113
  471MOL0     O62098   7.476   3.830   6.164 -0.5735  0.2807 -0.3697
  471MOL0     C62099   7.586   3.759   6.108  0.1779 -0.3337  0.4742
  471MOL0     C62100   7.717   3.816   6.155  0.7203 -0.6997  0.3550
  471MOL0     C62101   7.831   3.734   6.100 -0.3772 -0.4695 -0.2064
  471MOL0     C62102   7.886   3.796   5.968  0.4775  0.1833 -0.8145
  471MOL0     C62103   7.989   3.711   5.913 -0.2233  0.4796 -1.5441
  471MOL0     C62104   8.076   3.647   5.855  0.1149  0.3425  0.3453
  471MOL0     C62105   7.247   3.847   6.181  0.6352 -0.4617  0.1088
  471MOL0     C62106   7.113   3.800   6.177 -0.0067  0.1373  0.3915
  471MOL0     H62107   6.737   3.721   5.915  0.0469  0.9756  1.6080
  471MOL0     H62108   6.500   3.690   5.900 -1.5620 -0.5272 -1.1897
  471MOL0     H62109   6.350   3.399   6.121  0.3428  0.7486 -1.5482
  471MOL0     H62110   6.330   3.282   5.980  1.3106 -0.4635 -0.1903
  471MOL0     H62111   6.123   3.471   6.116 -0.8309  0.6303  0.2030
  471MOL0     H62112   6.140   3.294   6.137 -1.7467 -1.4472 -0.7985
  471MOL0     H62113   6.093   3.277   5.883 -1.5002  2.1140 -1.6089
  471MOL0     H62114   6.074   3.443   5.877 -0.5611 -0.1372  0.6082
  471MOL0     H62115   5.909   3.258   6.050  1.2046  0.8015  2.1363
  471MOL0     H62116   5.889   3.434   6.053  0.5886  0.7601 -0.2977
  471MOL0     H62117   5.821   3.257   5.806 -1.8334 -0.5272  1.2305
  471MOL0     H62118   5.823   3.443   5.823  0.5812  1.0623  2.1356
  471MOL0     H62119   5.664   3.432   5.991 -1.2963  0.6631 -0.5213
  471MOL0     H62120   5.687   3.255   6.014  0.8836 -1.4771 -0.6626
  471MOL0     H62121   5.556   3.400   5.775  2.0459  2.0359  3.0972
  471MOL0     H62122   5.591   3.225   5.770 -0.7096  1.8400 -3.4044
  471MOL0     H62123   5.442   3.183   5.956  0.3008 -0.6959 -1.4781
  471MOL0     H62124   5.347   3.269   5.840  2.0949 -0.6814 -0.8082
  471MOL0     H62125   5.298   3.549   5.898  1.1368 -1.9649 -1.7600
  471MOL0     H62126   5.234   3.728   6.082  0.2798 -0.0547 -0.0998
  471MOL0     H62127   5.231   3.691   6.258 -2.1993  1.0159  0.6211
  471MOL0     H62128   5.037   3.548   6.241  0.2503 -1.0084  0.6589
  471MOL0     H62129   5.032   3.576   6.072 -2.2173 -1.6667  1.5338
  471MOL0     H62130   5.056   3.816   6.272  1.8918 -1.8465 -0.0231
  471MOL0     H62131   5.005   3.837   6.107  0.8900 -0.0106  1.2688
  471MOL0     H62132   4.840   3.671   6.286  2.0814  0.7397  0.8460
  471MOL0     H62133   4.805   3.742   6.120  4.2071 -0.0359 -1.6145
  471MOL0     H62134   4.727   4.083   6.411  0.5531 -0.2097 -0.2008
  471MOL0     H62135   4.495   4.143   6.462  0.3967  1.3721 -0.8302
  471MOL0     H62136   4.027   4.074   6.551 -0.5150  1.5940 -1.2226
  471MOL0     H62137   3.790   4.051   6.597 -0.2302 -0.6907 -0.0360
  471MOL0     H62138   3.585   3.660   6.480  1.9362  1.5502 -1.8452
  471MOL0     H62139   3.554   3.768   6.348 -0.1296  0.7214  0.1324
  471MOL0     H62140   3.329   3.750   6.420 -2.7005  0.2756  2.1606
  471MOL0     H62141   3.381   3.886   6.514 -3.3743 -0.3441 -2.0149
  471MOL0     H62142   3.421   3.719   6.700 -0.0684 -2.0750  1.1115
  471MOL0     H62143   3.365   3.591   6.603 -1.1900  0.0512  1.2293
  471MOL0     H62144   3.201   3.836   6.684  0.0841  0.3894  0.0909
  471MOL0     H62145   3.137   3.712   6.573 -0.3888 -0.1968  1.0209
  471MOL0     H62146   3.247   3.672   6.845  3.1292 -1.1473 -1.7421
  471MOL0     H62147   3.203   3.538   6.746  1.5143  0.3546 -3.0683
  471MOL0     H62148   2.964   3.626   6.714 -0.2460  0.6829 -0.7692
  471MOL0     H62149   2.999   3.750   6.820  0.5709  0.3236 -3.9564
  471MOL0     H62150   3.028   3.454   6.904  0.9092  1.1165 -0.2991
  471MOL0     H62151   3.063   3.596   7.006  0.1579  0.3828  0.2368
  471MOL0     H62152   2.808   3.646   6.926  0.1578  0.1355  0.4503
  471MOL0     H62153   2.842   3.559   7.072 -4.8246  0.5654 -0.1619
  471MOL0     H62154   3.776   3.697   6.362  1.7539 -0.5235 -2.6962
  471MOL0     H62155   4.009   3.706   6.340  1.1812  1.9702 -0.9072
  471MOL0     H62156   4.373   3.757   6.289  1.6481 -3.2760 -0.7376
  471MOL0     H62157   4.584   3.699   6.261 -2.4947  0.1106 -2.5140
  471MOL0     H62158   6.547   3.268   5.999  2.2710 -1.7450 -0.6785
  471MOL0     H62159   6.787   3.313   6.045  0.7377  2.5111  1.7745
  471MOL0     H62160   7.163   3.525   5.994 -4.0548  3.3621 -3.9009
  471MOL0     H62161   7.406   3.599   6.006  1.2662  1.0509  0.8961
  471MOL0     H62162   7.582   3.777   6.000 -0.1103 -2.2541  0.1365
  471MOL0     H62163   7.576   3.651   6.122 -0.0322 -0.6344 -1.5831
  471MOL0     H62164   7.718   3.924   6.142 -0.4779 -0.4371  2.1947
  471MOL0     H62165   7.728   3.799   6.262  0.6176 -1.7406  0.2107
  471MOL0     H62166   7.805   3.628   6.092 -2.1180 -0.1703  1.0215
  471MOL0     H62167   7.915   3.735   6.170  1.0478  1.2155 -1.8479
  471MOL0     H62168   7.807   3.811   5.895 -1.5983  0.4211  1.3453
  471MOL0     H62169   7.936   3.890   5.994  3.2321 -2.1601  3.9887
  471MOL0     H62170   8.159   3.594   5.813 -0.3827  0.1265 -0.3960
  471MOL0     H62171   7.262   3.942   6.231  0.6387  0.1931 -1.0933
  471MOL0     H62172   7.033   3.851   6.230  0.8011 -0.8158  2.6133
  472MOL0     O62173   1.127   6.490   9.394  0.3178 -0.4322 -0.1994
  472MOL0     C62174   1.167   6.396   9.330  0.4928  0.1305  0.4070
  472MOL0     O62175   1.107   6.270   9.314  0.1905 -0.2259 -0.9219
  472MOL0     C62176   0.970   6.260   9.336 -0.0800  0.2992 -0.0184
  472MOL0     C62177   0.906   6.309   9.452 -0.1665  0.2611 -0.2663
  472MOL0     C62178   0.768   6.287   9.466  0.2923 -0.2786 -0.3949
  472MOL0     C62179   0.692   6.208   9.374 -0.2514  0.1581 -0.3773
  472MOL0     O62180   0.552   6.183   9.377 -0.1278  0.1297 -0.5924
  472MOL0     C62181   0.456   6.278   9.412 -0.2789  0.2770 -0.6176
  472MOL0     C62182   0.313   6.224   9.401  0.7057  0.2134 -0.7144
  472MOL0     C62183   0.215   6.338   9.353  0.3665 -0.0634  0.1886
  472MOL0     C62184   0.075   6.317   9.417  0.1438 -0.7220 -0.0515
  472MOL0     C62185  -0.012   6.429   9.360 -0.2958 -0.8096  0.2839
  472MOL0     C62186  -0.047   6.393   9.217  0.0476  0.0620  0.0136
  472MOL0     C62187  -0.183   6.448   9.167 -0.1387 -0.2399 -0.3519
  472MOL0     C62188  -0.199   6.392   9.024  0.2649 -0.9025 -0.5991
  472MOL0     N62189  -0.337   6.406   8.966 -0.8482 -0.4916  0.1468
  472MOL0     C62190  -0.390   6.528   8.919  0.8505 -0.5269  0.1449
  472MOL0     C62191  -0.506   6.488   8.874  0.4834  1.4324  0.4801
  472MOL0     C62192  -0.603   6.573   8.798 -0.0512 -1.0610 -0.3444
  472MOL0     C62193  -0.750   6.563   8.841 -0.0974  0.1041  0.1641
  472MOL0     C62194  -0.837   6.686   8.780 -0.1441  0.5807  0.1001
  472MOL0     C62195  -0.977   6.688   8.825 -0.8517 -0.5035  0.2418
  472MOL0     O62196  -1.040   6.820   8.807  1.1282 -0.2425  0.6537
  472MOL0     C62197  -1.175   6.825   8.840 -0.2980  0.8140  0.4417
  472MOL0     C62198  -1.248   6.712   8.893 -0.7386  0.0950  0.0973
  472MOL0     C62199  -1.381   6.733   8.940  0.0981 -0.4898  0.9612
  472MOL0     C62200  -1.451   6.857   8.925 -0.5801 -1.0454  0.0997
  472MOL0     C62201  -1.585   6.884   8.985 -0.4960  0.2675  0.8984
  472MOL0     O62202  -1.647   7.015   8.970 -1.0050 -0.0281 -0.0690
  472MOL0     C62203  -1.777   7.023   8.990 -0.2337 -0.4117 -1.1326
  472MOL0     C62204  -1.806   7.127   9.085 -0.1754 -0.6549  1.0078
  472MOL0     C62205  -1.942   7.136   9.121  0.7898 -0.8199  0.3787
  472MOL0     C62206  -2.044   7.067   9.053 -0.0923 -0.4518  0.4086
  472MOL0     O62207  -2.177   7.085   9.098  0.2473  0.1440  0.0416
  472MOL0     C62208  -2.286   7.004   9.039 -0.0387  0.0721  0.3964
  472MOL0     C62209  -2.413   7.074   9.088 -0.2796 -0.5974 -0.0369
  472MOL0     C62210  -2.537   7.025   9.014 -0.0199  0.4854  0.4109
  472MOL0     C62211  -2.665   7.103   9.035 -0.7646 -0.3947  0.7560
  472MOL0     C62212  -2.776   7.051   8.948  0.2088  0.4142  0.4991
  472MOL0     C62213  -2.908   7.089   9.027  1.0606 -0.6591  0.0308
  472MOL0     C62214  -3.032   7.040   8.964 -0.3011 -0.0859  0.0115
  472MOL0     C62215  -3.155   7.062   9.039  0.0029 -0.3171 -0.3374
  472MOL0    Cl62216  -3.309   7.007   8.950  0.3755  0.0166  0.1501
  472MOL0     C62217  -2.008   6.964   8.960 -0.4942  0.9625 -0.2332
  472MOL0     C62218  -1.873   6.940   8.944  1.0456  0.0725 -0.6309
  472MOL0     O62219  -1.638   6.779   9.036  0.3741 -1.1257 -0.1680
  472MOL0     C62220  -1.376   6.959   8.860  0.4230  0.2918  0.7981
  472MOL0     C62221  -1.243   6.941   8.818 -0.1849 -0.4164  0.2815
  472MOL0     N62222  -0.523   6.353   8.891  0.7142  0.6793  0.1239
  472MOL0     N62223  -0.419   6.306   8.950 -0.3584 -0.2039  0.3043
  472MOL0     C62224   0.759   6.175   9.252 -0.4296 -0.2701 -0.0234
  472MOL0     C62225   0.899   6.193   9.237  0.9496 -0.6299 -0.0172
  472MOL0     C62226   1.305   6.409   9.283 -0.3774  0.8875  0.0996
  472MOL0     C62227   1.371   6.305   9.216 -0.2341  0.8583  0.4463
  472MOL0     C62228   1.504   6.323   9.163 -0.1067 -0.1229  0.5629
  472MOL0     C62229   1.563   6.448   9.174  0.1408 -0.2240 -0.2181
  472MOL0     O62230   1.672   6.483   9.094  0.1834 -0.2332  0.2331
  472MOL0     C62231   1.776   6.373   9.092 -0.4621  0.3940  0.5129
  472MOL0     C62232   1.909   6.438   9.029  0.3709  0.2879  0.1525
  472MOL0     C62233   1.917   6.433   8.878 -0.4818 -0.2679  0.6491
  472MOL0     C62234   2.046   6.500   8.833 -0.3464  0.7693 -0.0557
  472MOL0     C62235   2.054   6.640   8.858 -0.3204 -0.6807  0.4219
  472MOL0     C62236   2.037   6.755   8.895 -0.4282 -0.9248 -0.0748
  472MOL0     C62237   1.499   6.550   9.242 -0.2051  0.6617 -0.0154
  472MOL0     C62238   1.367   6.536   9.299  0.1132 -0.1501 -0.4278
  472MOL0     H62239   0.959   6.376   9.519 -0.4553  1.1703 -0.9336
  472MOL0     H62240   0.722   6.329   9.555  1.0112  0.2364 -0.2536
  472MOL0     H62241   0.466   6.371   9.355 -0.3386  1.7446  1.6464
  472MOL0     H62242   0.481   6.302   9.516  1.0601  1.5800 -1.2047
  472MOL0     H62243   0.270   6.214   9.502  1.3471  0.3558 -0.4233
  472MOL0     H62244   0.299   6.126   9.356  0.2637  0.5574 -1.3347
  472MOL0     H62245   0.214   6.340   9.243  2.9443 -2.0892  0.0461
  472MOL0     H62246   0.245   6.435   9.392 -1.9150  1.0012 -0.4941
  472MOL0     H62247   0.031   6.217   9.403 -2.3249  0.1342  0.9794
  472MOL0     H62248   0.083   6.340   9.523  0.1328 -0.9275 -0.0047
  472MOL0     H62249   0.034   6.528   9.367 -1.7398  0.2957 -3.2755
  472MOL0     H62250  -0.105   6.428   9.417 -0.2658  1.0065  0.4150
  472MOL0     H62251  -0.056   6.284   9.209 -0.1711  0.2358 -2.9641
  472MOL0     H62252   0.036   6.432   9.158  0.6048 -0.3529  0.5037
  472MOL0     H62253  -0.272   6.421   9.224 -3.5408  0.7286 -4.6354
  472MOL0     H62254  -0.196   6.557   9.167 -2.1274 -0.4254  0.0148
  472MOL0     H62255  -0.185   6.285   9.039 -0.3429 -0.7600  1.1832
  472MOL0     H62256  -0.122   6.420   8.951 -0.7223 -5.4094 -3.7870
  472MOL0     H62257  -0.344   6.626   8.906  0.9053 -0.6383 -0.5349
  472MOL0     H62258  -0.601   6.548   8.691 -0.7433  0.0218 -0.6204
  472MOL0     H62259  -0.575   6.676   8.824  4.0615 -1.8210 -0.9696
  472MOL0     H62260  -0.752   6.573   8.950  0.8336  0.8150  0.1295
  472MOL0     H62261  -0.794   6.463   8.829 -0.2702  0.2966 -0.9235
  472MOL0     H62262  -0.786   6.779   8.805  0.7477  0.1986 -0.2724
  472MOL0     H62263  -0.845   6.672   8.672 -0.4323  0.5276  0.1265
  472MOL0     H62264  -0.979   6.654   8.929  1.1219  0.4477  0.6524
  472MOL0     H62265  -1.028   6.615   8.762  1.2338 -0.3687 -1.7283
  472MOL0     H62266  -1.194   6.619   8.909  1.5091  1.6208  2.0265
  472MOL0     H62267  -1.426   6.647   8.988 -0.3977 -0.7095  0.1151
  472MOL0     H62268  -1.726   7.192   9.119  0.7597 -1.7006  0.8474
  472MOL0     H62269  -1.967   7.214   9.193  0.1650  1.9334 -2.5937
  472MOL0     H62270  -2.294   6.901   9.076 -0.0674 -0.2307 -0.4365
  472MOL0     H62271  -2.290   7.009   8.930  0.0835 -0.3592  0.3710
  472MOL0     H62272  -2.399   7.179   9.058  1.7564 -0.4054  1.4360
  472MOL0     H62273  -2.410   7.073   9.197  0.3965 -2.0330 -0.0495
  472MOL0     H62274  -2.560   6.920   9.037 -4.2647  1.1921  0.2033
  472MOL0     H62275  -2.508   7.034   8.909 -0.7749 -0.2671  0.1326
  472MOL0     H62276  -2.696   7.088   9.139  0.2005 -0.2347  1.0711
  472MOL0     H62277  -2.649   7.208   9.011  0.2755 -0.8142 -0.5559
  472MOL0     H62278  -2.771   6.942   8.942 -0.0937  0.4563 -0.7398
  472MOL0     H62279  -2.767   7.092   8.847  1.7355  1.4177  1.0035
  472MOL0     H62280  -2.920   7.197   9.045 -2.1713 -1.1775  1.6844
  472MOL0     H62281  -2.894   7.041   9.125  0.4719  2.6497  1.9192
  472MOL0     H62282  -3.032   7.086   8.865  2.1742 -0.9065 -0.4568
  472MOL0     H62283  -3.023   6.933   8.942  1.3115 -0.4220  1.9800
  472MOL0     H62284  -3.158   7.169   9.058  2.2503 -0.4232  1.0013
  472MOL0     H62285  -3.146   7.013   9.136  1.5705  2.0481  0.8103
  472MOL0     H62286  -2.087   6.902   8.919 -0.3655  0.4418  0.2930
  472MOL0     H62287  -1.833   6.866   8.875  1.4832  1.4316 -1.8962
  472MOL0     H62288  -1.426   7.051   8.833  0.3456  0.5418  1.7511
  472MOL0     H62289  -1.200   7.018   8.755  1.7495  0.4145  2.4556
  472MOL0     H62290   0.701   6.143   9.166  0.7629 -0.2850 -0.8514
  472MOL0     H62291   0.953   6.153   9.151  2.2981 -0.8660  0.9119
  472MOL0     H62292   1.307   6.218   9.201 -0.3096  0.7422  1.3914
  472MOL0     H62293   1.539   6.245   9.097  0.7712 -0.3739  1.3063
  472MOL0     H62294   1.737   6.289   9.034 -1.3132  0.5107  0.9086
  472MOL0     H62295   1.794   6.340   9.195  1.2266  3.3033  1.2608
  472MOL0     H62296   1.928   6.537   9.073 -0.2938  0.4645  0.0612
  472MOL0     H62297   1.988   6.372   9.064 -0.5879 -1.6506 -1.1801
  472MOL0     H62298   1.826   6.473   8.832 -1.3801  0.8805  3.2504
  472MOL0     H62299   1.908   6.328   8.850  1.5308 -0.0132 -1.1949
  472MOL0     H62300   2.125   6.460   8.898 -0.4767 -0.7475 -0.7940
  472MOL0     H62301   2.077   6.468   8.733 -2.6344 -0.0456 -0.5611
  472MOL0     H62302   2.041   6.856   8.932 -3.8736 -1.3036  1.8088
  472MOL0     H62303   1.565   6.636   9.248 -0.3704  0.7705  0.2345
  472MOL0     H62304   1.311   6.620   9.337 -0.0507 -0.7356  0.6704
  473MOL0     O62305   7.537   0.875   3.687 -0.4286  0.0145  0.9505
  473MOL0     C62306   7.542   0.993   3.704  0.2404  0.3015 -0.1732
  473MOL0     O62307   7.429   1.077   3.715  0.0519 -0.0972 -0.4030
  473MOL0     C62308   7.297   1.044   3.685  0.8163 -0.6950 -0.0349
  473MOL0     C62309   7.257   0.945   3.595 -0.1451 -0.1791 -1.0012
  473MOL0     C62310   7.116   0.919   3.570 -0.3035 -0.7341  0.5732
  473MOL0     C62311   7.023   0.985   3.657  0.1154  0.8708  0.2330
  473MOL0     O62312   6.890   0.963   3.671  0.0450 -0.0719 -0.3277
  473MOL0     C62313   6.809   0.974   3.557 -0.4314 -0.2035 -0.3658
  473MOL0     C62314   6.664   0.976   3.594  0.3673  0.1882  0.0239
  473MOL0     C62315   6.564   0.982   3.491 -0.5611 -0.9172 -0.1629
  473MOL0     C62316   6.429   0.986   3.560  0.4732  0.3864  0.3828
  473MOL0     C62317   6.324   0.943   3.459 -0.2065  1.0112 -0.0810
  473MOL0     C62318   6.193   0.919   3.520  0.2737  0.1834 -0.8158
  473MOL0     C62319   6.081   0.894   3.411 -0.1319 -0.4130 -1.2512
  473MOL0     C62320   5.937   0.902   3.468  0.7857  0.7980 -0.5747
  473MOL0     N62321   5.845   0.913   3.355 -0.3719 -0.0967 -0.3427
  473MOL0     C62322   5.760   1.021   3.337  0.3536 -0.4564  0.3302
  473MOL0     C62323   5.685   0.988   3.226 -0.7736 -0.8932 -0.7981
  473MOL0     C62324   5.558   1.070   3.189  0.1600 -0.3563  0.0430
  473MOL0     C62325   5.480   1.108   3.320 -0.0758 -0.2407 -0.2047
  473MOL0     C62326   5.336   1.156   3.287 -0.0329 -0.1419 -0.1129
  473MOL0     C62327   5.251   1.185   3.415 -0.9573  0.3673  0.4708
  473MOL0     O62328   5.212   1.062   3.480 -0.3770  0.4538  0.1725
  473MOL0     C62329   5.083   1.033   3.498  0.4177 -0.3789  1.1615
  473MOL0     C62330   4.971   1.095   3.447  0.5779  1.6770 -0.0738
  473MOL0     C62331   4.836   1.047   3.482  0.0702  0.6281  0.3114
  473MOL0     C62332   4.829   0.921   3.554 -0.3162  0.1508  0.7730
  473MOL0     C62333   4.699   0.871   3.597 -0.0804 -0.2259  0.1063
  473MOL0     O62334   4.589   0.915   3.532 -0.1140  0.8245  0.4420
  473MOL0     C62335   4.464   0.879   3.566  0.6726  0.1407  0.0351
  473MOL0     C62336   4.379   0.846   3.464  0.2583 -0.5264  0.0156
  473MOL0     C62337   4.243   0.826   3.482  0.8903  0.2374 -0.3697
  473MOL0     C62338   4.191   0.848   3.612 -0.1542  0.0676 -0.0845
  473MOL0     O62339   4.061   0.837   3.621 -0.3468  0.3348  0.3371
  473MOL0     C62340   4.017   0.793   3.743 -0.1054  0.6718  0.6064
  473MOL0     C62341   3.879   0.732   3.728  0.2472 -0.1803  0.1038
  473MOL0     C62342   3.770   0.821   3.679  0.1747 -0.6545  0.0808
  473MOL0     C62343   3.642   0.751   3.640 -0.4305  0.3678 -0.2005
  473MOL0     C62344   3.536   0.847   3.604  0.7661  1.3040  0.9934
  473MOL0     C62345   3.419   0.754   3.564  0.2919 -0.2028 -0.5559
  473MOL0     C62346   3.282   0.831   3.565  0.4343 -0.0372 -0.1922
  473MOL0     C62347   3.172   0.738   3.545  0.6252  0.2203 -0.0472
  473MOL0    Cl62348   3.189   0.599   3.416  0.4980 -0.0758 -0.1411
  473MOL0     C62349   4.268   0.889   3.721 -0.1413  0.1488  0.6746
  473MOL0     C62350   4.408   0.903   3.690  0.8525  1.2803 -0.7149
  473MOL0     O62351   4.693   0.796   3.696  0.9694  0.5763  0.2019
  473MOL0     C62352   4.943   0.865   3.600 -0.8451  0.1782  0.1296
  473MOL0     C62353   5.068   0.915   3.569 -0.2366  0.0156 -0.8939
  473MOL0     N62354   5.723   0.862   3.182  0.1938  0.0510 -0.1573
  473MOL0     N62355   5.817   0.820   3.257 -0.6548  0.2420 -1.1317
  473MOL0     C62356   7.064   1.087   3.740  0.4835  0.0443  0.4132
  473MOL0     C62357   7.200   1.118   3.757 -0.5567  0.0528  0.2267
  473MOL0     C62358   7.675   1.061   3.702  0.1036  0.2598  0.3546
  473MOL0     C62359   7.790   0.990   3.662  0.1869 -0.2531 -0.5069
  473MOL0     C62360   7.907   1.048   3.646  0.3240  0.2965 -0.3449
  473MOL0     C62361   7.918   1.184   3.671 -0.1997 -0.3663  0.5385
  473MOL0     O62362   8.027   1.258   3.634 -0.6023  0.0385 -0.2181
  473MOL0     C62363   8.123   1.253   3.740 -0.5535 -0.1681  0.1192
  473MOL0     C62364   8.067   1.310   3.875 -0.3866  0.7394 -0.2362
  473MOL0     C62365   8.178   1.302   3.977  0.2533 -0.5187 -0.1654
  473MOL0     C62366   8.141   1.330   4.113 -0.5079 -0.3827 -0.0092
  473MOL0     C62367   8.079   1.467   4.133 -0.1469  0.4615  0.4656
  473MOL0     C62368   8.034   1.580   4.142 -0.1228  0.8216 -0.1688
  473MOL0     C62369   7.802   1.249   3.713 -0.4370 -0.0851  0.2308
  473MOL0     C62370   7.680   1.195   3.729  0.8801 -0.3462  0.2721
  473MOL0     H62371   7.331   0.889   3.539  1.5591 -0.0176  0.9364
  473MOL0     H62372   7.087   0.843   3.499  1.8794  0.1205 -1.3958
  473MOL0     H62373   6.823   0.886   3.494 -1.2454  1.0156 -2.3735
  473MOL0     H62374   6.829   1.060   3.492 -0.3121 -1.4525 -2.0559
  473MOL0     H62375   6.647   1.074   3.640 -1.4625  0.2351 -0.6771
  473MOL0     H62376   6.654   0.888   3.659  1.0750  0.8944  1.1419
  473MOL0     H62377   6.573   0.894   3.427 -0.0285 -1.7366  1.0019
  473MOL0     H62378   6.577   1.072   3.429 -1.5294 -0.3538  0.4177
  473MOL0     H62379   6.425   0.918   3.646 -1.6758 -1.7958 -1.2970
  473MOL0     H62380   6.416   1.089   3.596  3.3719  1.0281 -0.1427
  473MOL0     H62381   6.365   0.848   3.425 -0.9169  1.1339 -1.3125
  473MOL0     H62382   6.318   1.011   3.374 -2.0749  1.0480  0.0581
  473MOL0     H62383   6.165   1.007   3.579 -0.7148 -0.8747  0.3470
  473MOL0     H62384   6.184   0.838   3.593 -1.2065  0.7611 -0.3105
  473MOL0     H62385   6.094   0.972   3.335 -2.0412  0.8286 -0.3654
  473MOL0     H62386   6.106   0.792   3.381  1.0955 -2.0165  4.1027
  473MOL0     H62387   5.922   0.992   3.528  3.3991  0.7736  0.2262
  473MOL0     H62388   5.905   0.818   3.531  0.2142  1.7852  0.4919
  473MOL0     H62389   5.757   1.118   3.386  0.7042 -0.7297  0.9080
  473MOL0     H62390   5.489   1.013   3.127  0.0773 -2.6460  2.0862
  473MOL0     H62391   5.581   1.164   3.140 -4.7515  1.4786  0.7136
  473MOL0     H62392   5.543   1.189   3.356  0.5502 -1.0234  0.5085
  473MOL0     H62393   5.474   1.033   3.400 -1.4366 -0.1789 -0.2257
  473MOL0     H62394   5.350   1.248   3.230  0.7343  3.2559  4.8397
  473MOL0     H62395   5.284   1.073   3.238  1.4420 -0.3089 -1.4654
  473MOL0     H62396   5.166   1.243   3.380 -1.5780 -0.9912 -0.3679
  473MOL0     H62397   5.314   1.245   3.482 -0.9155 -1.0915  1.8121
  473MOL0     H62398   4.981   1.164   3.364 -1.6085  0.5744 -1.3344
  473MOL0     H62399   4.743   1.082   3.438 -0.3412 -0.6607  0.0923
  473MOL0     H62400   4.416   0.816   3.366 -0.5204 -2.6770  0.3247
  473MOL0     H62401   4.187   0.804   3.392  0.0557  2.2901 -0.4044
  473MOL0     H62402   4.012   0.886   3.800 -1.2592  0.5129  0.7890
  473MOL0     H62403   4.081   0.723   3.798  1.0562  0.8150 -0.5249
  473MOL0     H62404   3.837   0.678   3.813  0.3241  0.5798  0.6266
  473MOL0     H62405   3.888   0.661   3.644 -1.9676  0.3809 -0.6901
  473MOL0     H62406   3.817   0.875   3.596  1.3027 -2.8549 -0.7901
  473MOL0     H62407   3.751   0.888   3.764  4.6354 -0.5790  1.2491
  473MOL0     H62408   3.663   0.679   3.560  2.5152  2.2512 -1.2642
  473MOL0     H62409   3.600   0.709   3.731  1.3858  0.0586  0.5190
  473MOL0     H62410   3.563   0.904   3.515 -0.4386 -0.2876 -0.4635
  473MOL0     H62411   3.510   0.912   3.688 -1.2963  0.6455  0.9259
  473MOL0     H62412   3.410   0.663   3.624 -1.0357  0.8582  0.9628
  473MOL0     H62413   3.434   0.720   3.462  0.6895  1.2386 -1.0113
  473MOL0     H62414   3.260   0.883   3.659 -0.0129 -0.6854  0.0648
  473MOL0     H62415   3.272   0.916   3.496 -2.2183  0.1946  0.3786
  473MOL0     H62416   3.086   0.801   3.525  0.8744  1.0915  1.4469
  473MOL0     H62417   3.158   0.686   3.641  0.1498 -0.1549 -0.3159
  473MOL0     H62418   4.234   0.911   3.822 -0.5932  1.6044  0.2365
  473MOL0     H62419   4.469   0.915   3.779 -0.0483  0.7584  0.0024
  473MOL0     H62420   4.930   0.765   3.642  1.5330 -1.2753 -2.2976
  473MOL0     H62421   5.154   0.856   3.600 -0.7321  0.1980  0.9178
  473MOL0     H62422   6.992   1.153   3.788  0.2429  1.3794 -1.6810
  473MOL0     H62423   7.220   1.187   3.838 -1.5462  0.1767  0.3811
  473MOL0     H62424   7.774   0.885   3.638  0.6585 -0.6005  0.6548
  473MOL0     H62425   7.990   0.992   3.603 -0.4378 -1.5938  0.5596
  473MOL0     H62426   8.204   1.325   3.720 -1.0829  0.5352  0.4512
  473MOL0     H62427   8.166   1.153   3.750 -1.1328 -0.4308 -0.0286
  473MOL0     H62428   8.036   1.415   3.865 -1.5646  0.3976 -0.4003
  473MOL0     H62429   7.982   1.245   3.899  0.4027 -0.1831  0.0890
  473MOL0     H62430   8.261   1.363   3.942  0.1702  0.3106  1.0160
  473MOL0     H62431   8.206   1.196   3.986 -0.6442 -0.7085  0.5076
  473MOL0     H62432   8.073   1.249   4.141  0.8502 -2.0843 -1.4018
  473MOL0     H62433   8.235   1.319   4.169 -0.5340 -0.3042  0.0495
  473MOL0     H62434   7.981   1.673   4.147  2.8349  2.7276 -1.5641
  473MOL0     H62435   7.826   1.355   3.722 -3.7295  0.6103  2.5905
  473MOL0     H62436   7.596   1.251   3.766  1.3311 -0.6905  1.8976
  474MOL0     O62437   9.720   9.263   2.546  0.3064  1.0905  0.0600
  474MOL0     C62438   9.808   9.306   2.624  0.6766 -0.0642 -0.1836
  474MOL0     O62439   9.781   9.383   2.729  0.6731 -0.1890 -0.2716
  474MOL0     C62440   9.651   9.401   2.765  0.7686 -0.0181  0.4094
  474MOL0     C62441   9.608   9.539   2.772 -0.1761  0.8829  0.2057
  474MOL0     C62442   9.481   9.567   2.821 -0.3284 -0.1970 -0.5401
  474MOL0     C62443   9.392   9.467   2.855 -0.1830  0.5001  0.4469
  474MOL0     O62444   9.284   9.527   2.917 -0.3610  0.1211  0.6986
  474MOL0     C62445   9.164   9.450   2.941  0.7476 -0.1443 -0.0264
  474MOL0     C62446   9.040   9.535   2.920 -0.1259 -0.3601 -1.0265
  474MOL0     C62447   8.915   9.471   2.990  0.3372 -0.1851 -0.6842
  474MOL0     C62448   8.903   9.512   3.141  0.9690  0.2297 -0.2824
  474MOL0     C62449   8.800   9.415   3.212 -0.3337 -0.5600 -0.2404
  474MOL0     C62450   8.765   9.467   3.350  0.2911 -0.2048  0.0873
  474MOL0     C62451   8.625   9.434   3.382  0.3161 -0.4041 -0.1498
  474MOL0     C62452   8.517   9.517   3.310 -0.5323  0.2643 -1.0212
  474MOL0     N62453   8.390   9.496   3.373  0.3803  0.5170 -0.6176
  474MOL0     C62454   8.294   9.595   3.392  0.1239 -0.2238  0.4740
  474MOL0     C62455   8.182   9.522   3.434  0.1094  0.5495 -0.3290
  474MOL0     C62456   8.043   9.566   3.468 -0.8744 -0.3625 -0.1780
  474MOL0     C62457   7.938   9.471   3.409 -0.1550  0.7209 -0.1265
  474MOL0     C62458   7.966   9.392   3.279 -0.8498  0.2993  1.0318
  474MOL0     C62459   8.004   9.490   3.171  0.0784  0.0623 -0.0608
  474MOL0     O62460   7.887   9.575   3.140 -0.9860  0.0532 -0.6371
  474MOL0     C62461   7.845   9.563   3.014  0.4599 -0.1412 -0.2398
  474MOL0     C62462   7.909   9.612   2.901 -0.8047  0.4870 -0.6500
  474MOL0     C62463   7.868   9.588   2.775 -0.2657 -0.2512  0.1966
  474MOL0     C62464   7.743   9.519   2.754 -0.5155 -0.4574 -0.6676
  474MOL0     C62465   7.691   9.501   2.615 -0.4471  0.1893 -0.4760
  474MOL0     O62466   7.562   9.455   2.603  0.2884 -0.3844  0.3121
  474MOL0     C62467   7.500   9.428   2.478  0.1766  0.0926 -0.0835
  474MOL0     C62468   7.552   9.343   2.380  0.1760 -0.7164  0.3403
  474MOL0     C62469   7.482   9.302   2.265 -0.3751  0.9683 -0.4788
  474MOL0     C62470   7.347   9.336   2.249 -0.1473 -0.1809  0.0546
  474MOL0     O62471   7.265   9.292   2.153  0.4260 -0.2028 -0.6764
  474MOL0     C62472   7.318   9.209   2.046 -0.2297 -0.1091 -0.4208
  474MOL0     C62473   7.216   9.172   1.948  1.1568  0.1263  0.2789
  474MOL0     C62474   7.084   9.107   2.014  0.2802  0.4544  0.1919
  474MOL0     C62475   6.964   9.133   1.933 -0.0738 -0.5309 -0.3816
  474MOL0     C62476   6.970   9.038   1.819  1.1259 -0.4218  0.9140
  474MOL0     C62477   6.837   9.053   1.742  0.3915  0.1343  0.3428
  474MOL0     C62478   6.712   9.001   1.816  0.0843  0.7978  0.2755
  474MOL0     C62479   6.616   8.943   1.721 -0.5746  0.0381 -0.0653
  474MOL0    Cl62480   6.560   9.072   1.608  0.5934  0.0724 -0.0509
  474MOL0     C62481   7.287   9.416   2.351  0.3244  0.7434  0.6284
  474MOL0     C62482   7.367   9.456   2.461 -0.7731 -0.0807 -0.2203
  474MOL0     O62483   7.762   9.551   2.523  0.3794  0.4003  0.4799
  474MOL0     C62484   7.666   9.485   2.865 -0.4007 -0.2598 -0.9795
  474MOL0     C62485   7.720   9.504   2.998  0.5776  0.7587  0.6252
  474MOL0     N62486   8.226   9.388   3.456 -0.0272  0.1146  0.5204
  474MOL0     N62487   8.344   9.373   3.407 -0.8757 -0.0934  0.0100
  474MOL0     C62488   9.431   9.337   2.837 -0.1057  0.3728 -0.5082
  474MOL0     C62489   9.558   9.304   2.796  0.4521  0.7825 -0.1358
  474MOL0     C62490   9.950   9.282   2.600 -0.0574 -0.2454 -0.8783
  474MOL0     C62491   9.996   9.193   2.506 -0.5067  0.6604 -0.2127
  474MOL0     C62492  10.129   9.180   2.477 -0.2445 -0.5264 -0.1004
  474MOL0     C62493  10.231   9.261   2.546  0.4158 -0.8474  0.2673
  474MOL0     O62494  10.365   9.261   2.532 -0.1374  0.1395 -0.3728
  474MOL0     C62495  10.437   9.152   2.470  0.7182  0.1207  1.1617
  474MOL0     C62496  10.431   9.013   2.543  1.0063 -1.2255  0.5268
  474MOL0     C62497  10.571   8.959   2.578  0.1964 -0.0216 -0.4085
  474MOL0     C62498  10.656   8.916   2.458  0.0633  0.1264  0.3527
  474MOL0     C62499  10.798   8.923   2.478 -0.1330  0.1123 -0.0970
  474MOL0     C62500  10.916   8.907   2.501 -0.4185  0.6803 -0.4316
  474MOL0     C62501  10.188   9.350   2.642  0.2113 -0.1080 -0.0792
  474MOL0     C62502  10.045   9.363   2.666  0.4707  0.0644  0.0417
  474MOL0     H62503   9.682   9.611   2.737  4.0148 -2.5693  1.0040
  474MOL0     H62504   9.458   9.672   2.837  0.2996  0.2501 -2.3868
  474MOL0     H62505   9.166   9.432   3.049  0.3297 -1.6111 -0.2485
  474MOL0     H62506   9.146   9.353   2.894 -0.2548 -1.3470  2.6380
  474MOL0     H62507   9.030   9.564   2.815 -1.5938  3.3123 -0.0363
  474MOL0     H62508   9.057   9.632   2.966 -0.9609 -1.8766  2.8676
  474MOL0     H62509   8.924   9.362   2.979 -0.8082 -0.4420  0.6115
  474MOL0     H62510   8.826   9.500   2.933  0.4540  2.5885  0.4006
  474MOL0     H62511   8.995   9.487   3.193 -0.5867 -2.3856  1.4358
  474MOL0     H62512   8.894   9.620   3.156  2.6225  0.6817 -2.1276
  474MOL0     H62513   8.850   9.318   3.221  0.1455 -0.5925 -2.6214
  474MOL0     H62514   8.709   9.393   3.154  1.0997 -2.1877 -2.0065
  474MOL0     H62515   8.771   9.577   3.351 -0.5250 -0.1019 -1.9039
  474MOL0     H62516   8.834   9.433   3.427 -0.1613  0.7415  0.9382
  474MOL0     H62517   8.601   9.333   3.347 -3.8732  0.6043 -0.6688
  474MOL0     H62518   8.613   9.425   3.490  3.4807 -2.3843  0.1908
  474MOL0     H62519   8.507   9.494   3.204 -1.3372  0.8151 -1.0792
  474MOL0     H62520   8.543   9.622   3.322 -1.3511  0.3962 -0.2037
  474MOL0     H62521   8.313   9.699   3.366  3.3830 -0.6492  0.7737
  474MOL0     H62522   8.023   9.667   3.431  0.7521  0.5223  1.2107
  474MOL0     H62523   8.029   9.574   3.576  1.3688 -2.4682  0.3664
  474MOL0     H62524   7.848   9.527   3.381 -0.1586 -1.0584 -4.4133
  474MOL0     H62525   7.922   9.400   3.491  2.5243 -0.4615 -0.5245
  474MOL0     H62526   8.026   9.304   3.305 -0.3922  1.0480  2.6814
  474MOL0     H62527   7.877   9.334   3.252  0.9825 -2.5074  0.5030
  474MOL0     H62528   8.036   9.434   3.083  0.6963  1.4065 -0.7307
  474MOL0     H62529   8.083   9.560   3.199  0.7353 -0.7145  0.0610
  474MOL0     H62530   7.996   9.675   2.917 -0.8663  0.1318  1.2842
  474MOL0     H62531   7.923   9.631   2.692 -2.4288  0.6777 -0.8353
  474MOL0     H62532   7.651   9.299   2.383  0.2684 -0.5011  0.5041
  474MOL0     H62533   7.527   9.249   2.182 -1.9329 -1.3807  0.0797
  474MOL0     H62534   7.370   9.119   2.078  1.6848  0.9886 -0.3152
  474MOL0     H62535   7.404   9.257   1.999  1.2343 -0.6340  1.5562
  474MOL0     H62536   7.255   9.094   1.882  1.2488  1.3246 -1.1317
  474MOL0     H62537   7.190   9.258   1.887  2.8545 -0.5806 -1.5282
  474MOL0     H62538   7.067   9.147   2.114  2.2930  0.3520  0.6030
  474MOL0     H62539   7.107   9.000   2.019 -1.0420  0.1856  4.6108
  474MOL0     H62540   6.881   9.113   2.001  1.5553 -0.5235  1.7469
  474MOL0     H62541   6.970   9.232   1.889  1.2830  0.2712  1.4385
  474MOL0     H62542   6.982   8.936   1.855 -1.6144 -2.2297 -2.6489
  474MOL0     H62543   7.053   9.061   1.752 -0.7228  1.7742 -0.8297
  474MOL0     H62544   6.837   8.990   1.652 -2.3077 -2.3670  1.9347
  474MOL0     H62545   6.810   9.153   1.705 -1.3927  0.2087  1.7307
  474MOL0     H62546   6.742   8.922   1.885 -3.4327 -0.3524  0.6959
  474MOL0     H62547   6.666   9.085   1.869 -0.4239  1.3247 -0.9668
  474MOL0     H62548   6.528   8.909   1.777 -1.3462  3.6561  1.2593
  474MOL0     H62549   6.658   8.861   1.663  1.4457  0.3380  0.8902
  474MOL0     H62550   7.182   9.444   2.351 -0.1036 -0.7429  1.4627
  474MOL0     H62551   7.334   9.519   2.542  0.9962 -0.5153  0.9043
  474MOL0     H62552   7.567   9.440   2.862 -0.2419 -0.6597 -0.3797
  474MOL0     H62553   7.657   9.475   3.081 -0.3604 -0.7996 -0.5850
  474MOL0     H62554   9.360   9.257   2.858 -1.3651  1.4166 -0.6131
  474MOL0     H62555   9.589   9.200   2.794 -0.6947  0.3653  1.5746
  474MOL0     H62556   9.929   9.131   2.448 -1.5848  1.7702 -0.2027
  474MOL0     H62557  10.159   9.111   2.399 -0.0731 -1.1909  0.5406
  474MOL0     H62558  10.544   9.174   2.463  0.8230 -0.3119 -5.7982
  474MOL0     H62559  10.402   9.146   2.367  0.0158  3.6740  1.0527
  474MOL0     H62560  10.383   9.018   2.641  0.1581 -3.5405  0.2927
  474MOL0     H62561  10.369   8.947   2.482  0.5103  0.0718 -0.4167
  474MOL0     H62562  10.557   8.879   2.651 -2.4946 -0.0640 -0.8586
  474MOL0     H62563  10.628   9.038   2.628 -0.9356 -0.0497  1.0058
  474MOL0     H62564  10.632   8.810   2.442  0.3986  0.3914 -2.3492
  474MOL0     H62565  10.622   8.971   2.369  4.0668  1.1213 -0.7395
  474MOL0     H62566  11.021   8.901   2.521 -0.6340  0.8438  0.7835
  474MOL0     H62567  10.273   9.397   2.690 -0.3718  0.7096  0.1757
  474MOL0     H62568  10.017   9.437   2.741 -0.4480 -0.3447  0.1157
  475MOL0     O62569   0.518   7.023   7.256 -0.0111  0.3209 -1.3206
  475MOL0     C62570   0.502   6.902   7.229 -0.2051 -0.3282  0.9527
  475MOL0     O62571   0.385   6.825   7.233 -0.2446 -0.9589  0.1744
  475MOL0     C62572   0.272   6.904   7.254 -0.1208 -0.1765  0.5129
  475MOL0     C62573   0.203   6.931   7.136 -0.9598  0.3325 -0.8443
  475MOL0     C62574   0.093   7.011   7.148  0.4441 -0.1376  0.1226
  475MOL0     C62575   0.037   7.051   7.266  0.2152  1.3486 -0.1085
  475MOL0     O62576  -0.085   7.117   7.273  0.0583  0.7979 -0.1987
  475MOL0     C62577  -0.153   7.163   7.161  0.1948 -0.2603  0.5494
  475MOL0     C62578  -0.293   7.174   7.218 -0.7346  0.5547  0.0816
  475MOL0     C62579  -0.395   7.207   7.117  0.1109  0.0290  0.5424
  475MOL0     C62580  -0.519   7.281   7.178 -0.3746 -0.0360  0.3007
  475MOL0     C62581  -0.597   7.210   7.290  1.0466  0.3981 -0.6193
  475MOL0     C62582  -0.654   7.080   7.237  0.1553 -0.2859 -0.3085
  475MOL0     C62583  -0.801   7.070   7.282  0.0899  0.4342  0.5432
  475MOL0     C62584  -0.895   7.171   7.201 -1.5261 -0.3566 -1.5769
  475MOL0     N62585  -0.901   7.145   7.055  0.2827 -0.6084  0.0187
  475MOL0     C62586  -0.852   7.231   6.962 -0.1405 -0.8400 -0.0604
  475MOL0     C62587  -0.811   7.154   6.862 -1.0573 -0.0180 -0.3031
  475MOL0     C62588  -0.762   7.204   6.726 -0.4711 -0.0412  0.0353
  475MOL0     C62589  -0.746   7.084   6.624 -0.0755 -0.3310  0.5042
  475MOL0     C62590  -0.867   7.009   6.573 -0.2252 -0.3227  0.2104
  475MOL0     C62591  -0.984   7.101   6.526 -0.4718 -0.7688 -0.6319
  475MOL0     O62592  -1.084   7.026   6.452 -0.2465 -0.1100 -0.0386
  475MOL0     C62593  -1.196   7.082   6.403 -0.4997  0.1646  0.4080
  475MOL0     C62594  -1.280   6.999   6.329  0.3752  0.3952  1.0172
  475MOL0     C62595  -1.392   7.046   6.262  0.7578  0.1379 -0.3611
  475MOL0     C62596  -1.425   7.172   6.286  0.3837 -0.2040  0.3383
  475MOL0     C62597  -1.554   7.225   6.219  0.2209  0.7154  0.4799
  475MOL0     O62598  -1.600   7.165   6.104 -0.2576 -0.1809 -0.6311
  475MOL0     C62599  -1.720   7.204   6.053  0.2711 -1.0287 -0.3486
  475MOL0     C62600  -1.733   7.270   5.934 -0.0465 -0.0195  0.4435
  475MOL0     C62601  -1.850   7.313   5.876 -0.6827 -0.0938 -0.2273
  475MOL0     C62602  -1.969   7.306   5.951 -0.0080  0.4208  0.7928
  475MOL0     O62603  -2.079   7.354   5.902  0.3317  0.2572 -0.2695
  475MOL0     C62604  -2.210   7.318   5.966 -0.8251 -0.3821  0.2865
  475MOL0     C62605  -2.309   7.381   5.875 -0.8174  0.8527  0.1942
  475MOL0     C62606  -2.339   7.526   5.916 -0.1188  0.0773  0.2398
  475MOL0     C62607  -2.420   7.601   5.815  0.0529  0.5472 -0.5778
  475MOL0     C62608  -2.354   7.633   5.685 -0.1799  0.1117  0.8793
  475MOL0     C62609  -2.444   7.730   5.612  0.3034 -0.4548 -0.2688
  475MOL0     C62610  -2.387   7.770   5.476  0.3095 -1.0722  0.2082
  475MOL0     C62611  -2.503   7.828   5.410  0.4462 -0.7554  0.4993
  475MOL0    Cl62612  -2.456   7.948   5.291 -0.0696 -0.1488  0.0304
  475MOL0     C62613  -1.961   7.236   6.077 -0.5225  0.4762  0.5484
  475MOL0     C62614  -1.836   7.194   6.132 -0.6099 -0.2420  0.0596
  475MOL0     O62615  -1.598   7.325   6.276 -0.2616  0.2763 -0.2367
  475MOL0     C62616  -1.353   7.257   6.369  0.0618  0.2422  1.0162
  475MOL0     C62617  -1.235   7.209   6.422  0.8043 -0.3043 -0.5446
  475MOL0     N62618  -0.826   7.022   6.901 -0.4496 -0.8842 -0.4034
  475MOL0     N62619  -0.892   7.020   7.008 -0.0149 -0.2311  0.0103
  475MOL0     C62620   0.095   7.013   7.384 -0.6179  0.4006 -0.0019
  475MOL0     C62621   0.223   6.948   7.381 -0.1458 -0.5482  1.3855
  475MOL0     C62622   0.630   6.842   7.175 -0.3505  0.1146 -0.6368
  475MOL0     C62623   0.629   6.701   7.153 -0.2122  0.7386  0.2380
  475MOL0     C62624   0.731   6.635   7.096 -0.1398  0.9914 -0.2497
  475MOL0     C62625   0.845   6.701   7.054  0.0845  0.0929 -0.3474
  475MOL0     O62626   0.941   6.631   6.990 -0.2043 -0.2636 -0.2228
  475MOL0     C62627   1.069   6.684   6.965  0.6482  0.2392  0.2126
  475MOL0     C62628   1.186   6.585   6.948 -0.1354 -0.2967  0.4839
  475MOL0     C62629   1.314   6.664   6.914 -0.4561 -1.2126  0.5107
  475MOL0     C62630   1.439   6.575   6.916 -0.1312  0.9255  0.1765
  475MOL0     C62631   1.549   6.652   6.870  0.0348 -0.3895 -0.1378
  475MOL0     C62632   1.643   6.692   6.811  0.5463 -0.0207  0.1946
  475MOL0     C62633   0.847   6.840   7.073  1.0099 -0.0160 -0.5351
  475MOL0     C62634   0.744   6.915   7.131  0.0254 -0.2470  0.5661
  475MOL0     H62635   0.235   6.884   7.043 -0.5585  0.4826 -0.7804
  475MOL0     H62636   0.043   7.041   7.056  0.7423 -1.0763 -0.3670
  475MOL0     H62637  -0.163   7.105   7.069 -1.5249  2.3185 -1.0313
  475MOL0     H62638  -0.122   7.262   7.127 -0.1715 -0.0746  0.7437
  475MOL0     H62639  -0.283   7.260   7.285 -0.7016 -0.1813  1.0352
  475MOL0     H62640  -0.321   7.085   7.274 -2.3616  2.1094  1.9084
  475MOL0     H62641  -0.420   7.112   7.069  1.5585 -0.1176  0.0349
  475MOL0     H62642  -0.359   7.275   7.040  0.1867 -0.2341  0.3427
  475MOL0     H62643  -0.480   7.378   7.211  2.8036 -0.7741 -0.8974
  475MOL0     H62644  -0.603   7.299   7.111 -0.8547  2.2085  1.4214
  475MOL0     H62645  -0.679   7.274   7.324  0.5135 -0.2377 -0.6881
  475MOL0     H62646  -0.545   7.184   7.383 -0.9540 -0.6458  0.2683
  475MOL0     H62647  -0.593   6.998   7.275 -1.3495 -1.9247 -1.2777
  475MOL0     H62648  -0.650   7.075   7.127  0.2592  0.5580 -0.3511
  475MOL0     H62649  -0.840   6.969   7.269 -0.4036  0.5835  0.8357
  475MOL0     H62650  -0.805   7.089   7.389 -0.3523  0.2551  0.5620
  475MOL0     H62651  -0.868   7.273   7.228  2.2254 -1.8787  1.2657
  475MOL0     H62652  -0.996   7.147   7.236 -0.6617 -0.5553  0.9381
  475MOL0     H62653  -0.858   7.339   6.963  0.4118 -0.8021 -0.1926
  475MOL0     H62654  -0.671   7.262   6.746  1.3823 -2.3841 -1.0745
  475MOL0     H62655  -0.848   7.259   6.687 -1.4049 -1.9042 -0.6302
  475MOL0     H62656  -0.667   7.016   6.656  0.2326 -0.4822 -0.5302
  475MOL0     H62657  -0.702   7.124   6.532 -0.8638  0.7278  0.5696
  475MOL0     H62658  -0.832   6.955   6.485 -0.6087 -0.4405  0.1297
  475MOL0     H62659  -0.903   6.930   6.640 -2.6188 -1.4262 -2.2182
  475MOL0     H62660  -0.935   7.176   6.463 -1.0863 -0.1652 -0.4011
  475MOL0     H62661  -1.032   7.155   6.608  0.3103  3.3861 -2.6125
  475MOL0     H62662  -1.252   6.894   6.327 -1.2997 -0.0910 -0.6440
  475MOL0     H62663  -1.446   6.984   6.191  1.7364 -0.4969 -0.5638
  475MOL0     H62664  -1.643   7.306   5.885 -2.2486  1.9806 -2.4454
  475MOL0     H62665  -1.846   7.366   5.781 -0.5890 -1.5962 -1.0882
  475MOL0     H62666  -2.218   7.357   6.067 -0.8375  1.1834 -0.2966
  475MOL0     H62667  -2.239   7.213   5.958 -1.3229 -0.1327 -2.0683
  475MOL0     H62668  -2.390   7.309   5.894  1.3370 -1.8396 -0.1537
  475MOL0     H62669  -2.281   7.375   5.769  0.9523  2.6940  0.5178
  475MOL0     H62670  -2.241   7.573   5.928  0.0945 -0.3310  0.1333
  475MOL0     H62671  -2.401   7.529   6.006 -0.3020 -0.8644  0.1532
  475MOL0     H62672  -2.513   7.545   5.802 -0.2003  0.7262  0.3822
  475MOL0     H62673  -2.453   7.690   5.868 -2.4476 -1.2368  1.0754
  475MOL0     H62674  -2.330   7.547   5.621  1.7188  2.7711 -2.3009
  475MOL0     H62675  -2.264   7.696   5.689 -1.6825  2.4213  0.0956
  475MOL0     H62676  -2.452   7.821   5.672 -1.9147 -1.0627  0.4388
  475MOL0     H62677  -2.541   7.683   5.591 -0.8725 -0.0193  3.4353
  475MOL0     H62678  -2.315   7.844   5.513  1.8990 -3.2894  1.8150
  475MOL0     H62679  -2.332   7.689   5.428  3.8103  1.2906 -0.1953
  475MOL0     H62680  -2.563   7.882   5.484 -0.8113 -1.4875  0.0482
  475MOL0     H62681  -2.567   7.748   5.372 -0.4812 -0.4826  1.4401
  475MOL0     H62682  -2.049   7.217   6.137 -2.0550  0.2820 -1.6573
  475MOL0     H62683  -1.832   7.147   6.229 -1.6264  1.8448  1.1774
  475MOL0     H62684  -1.370   7.362   6.388 -0.6942  0.5766 -1.2350
  475MOL0     H62685  -1.178   7.277   6.485  0.0934 -0.1622 -0.0287
  475MOL0     H62686   0.058   7.033   7.484  1.1260 -1.7006  1.1647
  475MOL0     H62687   0.271   6.923   7.475 -0.9421 -1.5665  1.5373
  475MOL0     H62688   0.547   6.641   7.191  0.2714  1.1141  1.9913
  475MOL0     H62689   0.723   6.527   7.104 -0.9767  1.0208 -0.5451
  475MOL0     H62690   1.111   6.743   7.047  1.8625  0.7101 -0.7193
  475MOL0     H62691   1.054   6.747   6.876  0.3801  2.6642  1.8647
  475MOL0     H62692   1.217   6.532   7.039 -3.2284 -0.6956  1.4039
  475MOL0     H62693   1.155   6.514   6.871  3.6764  0.2477 -1.7900
  475MOL0     H62694   1.331   6.746   6.985 -0.5180 -0.2805 -0.5168
  475MOL0     H62695   1.309   6.704   6.812  1.4426 -0.6149  0.6061
  475MOL0     H62696   1.455   6.536   7.017 -0.2443  2.1970  0.6995
  475MOL0     H62697   1.426   6.489   6.849 -1.8827  0.5436  0.9400
  475MOL0     H62698   1.734   6.718   6.759 -0.2975 -1.5228 -2.2235
  475MOL0     H62699   0.934   6.892   7.033  1.4539  0.6244  1.1542
  475MOL0     H62700   0.736   7.023   7.137 -2.4616 -0.3671  0.4222
  476MOL0     O62701   0.519   2.278   3.911 -0.0726 -0.6651  0.0536
  476MOL0     C62702   0.530   2.167   3.960 -0.9565 -0.0251 -0.4025
  476MOL0     O62703   0.436   2.086   3.999  0.4786  0.5470  0.3699
  476MOL0     C62704   0.312   2.130   4.032 -0.5461  0.1974 -0.2882
  476MOL0     C62705   0.204   2.113   3.943 -0.5316 -0.3299 -0.2642
  476MOL0     C62706   0.081   2.163   3.982 -0.0880  0.0942  0.0487
  476MOL0     C62707   0.063   2.223   4.106  0.9606 -0.1685 -0.1818
  476MOL0     O62708  -0.061   2.255   4.157 -0.5421  0.6397  0.4320
  476MOL0     C62709  -0.172   2.191   4.099  0.5341  0.1419 -0.3207
  476MOL0     C62710  -0.289   2.220   4.197  0.0287  0.6351  0.3386
  476MOL0     C62711  -0.422   2.180   4.135  0.8015  0.6161 -0.6835
  476MOL0     C62712  -0.543   2.260   4.209 -0.6888 -0.4206  0.2943
  476MOL0     C62713  -0.526   2.307   4.356  0.5288  0.2495  0.2210
  476MOL0     C62714  -0.664   2.350   4.419  0.0660 -0.5533 -0.3463
  476MOL0     C62715  -0.644   2.392   4.559  0.4639  0.5662 -0.4135
  476MOL0     C62716  -0.780   2.412   4.634  0.5605 -0.1717 -0.6069
  476MOL0     N62717  -0.752   2.413   4.780 -1.3275  0.1677 -0.3776
  476MOL0     C62718  -0.663   2.331   4.848  0.8033 -0.0605  0.0670
  476MOL0     C62719  -0.674   2.361   4.978  0.1345 -0.2369 -0.1516
  476MOL0     C62720  -0.590   2.306   5.099 -0.1711 -0.7946  0.4500
  476MOL0     C62721  -0.644   2.173   5.163  0.9058 -0.2844 -0.3079
  476MOL0     C62722  -0.652   2.053   5.067 -0.7572 -0.0338 -0.6341
  476MOL0     C62723  -0.516   2.004   5.043 -0.5620 -0.8872  0.2958
  476MOL0     O62724  -0.519   1.881   4.964 -0.0479 -0.4039 -0.6466
  476MOL0     C62725  -0.401   1.816   4.962 -0.2804 -0.1147 -0.3443
  476MOL0     C62726  -0.275   1.872   4.979 -0.0235 -0.4314 -0.6219
  476MOL0     C62727  -0.157   1.799   4.966 -0.1270  0.4433 -0.4169
  476MOL0     C62728  -0.157   1.677   4.892 -0.3373 -1.3759 -0.8899
  476MOL0     C62729  -0.025   1.609   4.854  0.2805 -0.1782 -1.0852
  476MOL0     O62730   0.084   1.663   4.912  0.2683  0.1525  0.1719
  476MOL0     C62731   0.207   1.605   4.874 -0.3381 -0.2129  0.2872
  476MOL0     C62732   0.284   1.518   4.951 -0.5628  0.1891 -0.4667
  476MOL0     C62733   0.398   1.459   4.901 -1.3816  0.3515  0.2245
  476MOL0     C62734   0.452   1.499   4.784 -0.5640  0.1944 -0.0532
  476MOL0     O62735   0.576   1.444   4.758  0.4197 -0.3314  0.2763
  476MOL0     C62736   0.614   1.455   4.621 -0.0170 -0.1343  0.5001
  476MOL0     C62737   0.739   1.361   4.580  1.3911  0.1517  0.4229
  476MOL0     C62738   0.728   1.218   4.642  0.4641 -0.0961  0.2366
  476MOL0     C62739   0.832   1.121   4.583  0.4587  0.8161  0.1142
  476MOL0     C62740   0.978   1.168   4.615  0.9508  0.4190  0.6800
  476MOL0     C62741   1.035   1.145   4.759  0.0451  0.4455 -0.1130
  476MOL0     C62742   1.185   1.121   4.754 -0.6592  0.6830  0.2736
  476MOL0     C62743   1.247   1.096   4.890 -0.1692 -0.0736  1.2193
  476MOL0    Cl62744   1.214   1.235   5.000 -0.4474 -0.4225  0.0723
  476MOL0     C62745   0.384   1.594   4.710  0.0221 -0.2006  0.5391
  476MOL0     C62746   0.261   1.644   4.754  0.8227  0.1552  0.1023
  476MOL0     O62747  -0.024   1.519   4.773 -0.6949 -0.1965 -0.0182
  476MOL0     C62748  -0.284   1.624   4.874  0.8437 -0.7448 -0.0134
  476MOL0     C62749  -0.410   1.689   4.916  0.1439  0.2194  0.1600
  476MOL0     N62750  -0.760   2.473   4.984 -0.0469 -0.5546 -0.2495
  476MOL0     N62751  -0.808   2.496   4.865  0.5693  0.6633  1.2636
  476MOL0     C62752   0.168   2.232   4.196  0.4781  0.1513  0.5027
  476MOL0     C62753   0.285   2.179   4.152  0.1889 -1.4268 -0.6040
  476MOL0     C62754   0.658   2.118   3.991 -0.3292 -0.5020  1.1790
  476MOL0     C62755   0.685   1.982   4.005 -0.6009 -0.4103 -1.2758
  476MOL0     C62756   0.818   1.935   4.031  0.9916 -0.6291 -1.3503
  476MOL0     C62757   0.918   2.026   4.054 -0.0981  0.2027 -0.7908
  476MOL0     O62758   1.050   1.998   4.100 -0.5249  0.0961 -0.7458
  476MOL0     C62759   1.099   1.863   4.080 -0.6382 -0.3100  0.1445
  476MOL0     C62760   1.169   1.845   3.945 -0.0181 -0.8968 -0.0847
  476MOL0     C62761   1.300   1.922   3.940  0.6817 -0.0555 -0.9568
  476MOL0     C62762   1.381   1.899   3.808 -0.2019 -0.1257  0.4895
  476MOL0     C62763   1.469   1.781   3.809  0.8101  0.1118 -0.4137
  476MOL0     C62764   1.541   1.683   3.810  0.9041 -0.0417 -0.0722
  476MOL0     C62765   0.898   2.158   4.025 -0.2892  0.4680 -0.1579
  476MOL0     C62766   0.767   2.206   4.000 -0.2824 -0.6886 -1.1035
  476MOL0     H62767   0.210   2.054   3.852  0.8868 -0.3008 -0.2071
  476MOL0     H62768  -0.007   2.155   3.918  0.7546 -1.6239 -0.9808
  476MOL0     H62769  -0.161   2.082   4.090 -1.7620 -0.0739 -1.0661
  476MOL0     H62770  -0.199   2.231   4.001  2.0690  0.0804 -0.8010
  476MOL0     H62771  -0.286   2.325   4.226 -0.2128  0.1426  2.2623
  476MOL0     H62772  -0.274   2.165   4.290 -1.0896 -0.8889 -0.3192
  476MOL0     H62773  -0.447   2.074   4.139 -0.0511  0.7404 -1.9967
  476MOL0     H62774  -0.420   2.209   4.029  2.3424  0.0250 -0.8435
  476MOL0     H62775  -0.551   2.356   4.158 -1.4309 -0.1912  0.8276
  476MOL0     H62776  -0.633   2.198   4.208 -1.1636  0.2333  1.4675
  476MOL0     H62777  -0.444   2.379   4.370  2.0727 -1.6534  1.4952
  476MOL0     H62778  -0.486   2.224   4.414 -0.0364 -0.1791  0.0016
  476MOL0     H62779  -0.728   2.261   4.415 -2.0683  0.9187 -0.5370
  476MOL0     H62780  -0.697   2.442   4.371 -1.3071  0.9620  3.1601
  476MOL0     H62781  -0.599   2.302   4.602  0.4733  1.1575  0.8749
  476MOL0     H62782  -0.580   2.473   4.593 -0.8334  1.3617  0.2372
  476MOL0     H62783  -0.849   2.333   4.606  1.4288 -0.7490 -1.1612
  476MOL0     H62784  -0.831   2.508   4.623 -0.3714 -0.3567  1.6356
  476MOL0     H62785  -0.599   2.247   4.823  1.1751 -0.9282  3.5127
  476MOL0     H62786  -0.582   2.386   5.173 -1.1609  0.3960 -0.6722
  476MOL0     H62787  -0.493   2.279   5.056  0.8931  0.7071  1.7970
  476MOL0     H62788  -0.738   2.200   5.211  0.7206 -0.7198 -0.4139
  476MOL0     H62789  -0.576   2.151   5.245  0.2504  1.1853  0.6740
  476MOL0     H62790  -0.715   1.975   5.110 -0.4499  0.1692  0.2185
  476MOL0     H62791  -0.700   2.080   4.972 -0.1306  1.1547 -0.6330
  476MOL0     H62792  -0.459   1.982   5.133 -1.3415 -3.6609  0.2060
  476MOL0     H62793  -0.461   2.081   4.988  0.7711  0.5208  3.3534
  476MOL0     H62794  -0.249   1.974   5.005  0.4198 -1.2533  2.6003
  476MOL0     H62795  -0.061   1.843   4.991  0.7016 -0.8500 -1.1985
  476MOL0     H62796   0.253   1.502   5.053 -1.6871  1.7293 -0.5287
  476MOL0     H62797   0.442   1.392   4.975 -2.3400 -0.2562  0.2599
  476MOL0     H62798   0.645   1.555   4.592  3.7367 -1.6203 -1.2935
  476MOL0     H62799   0.531   1.418   4.560  0.9075 -0.1305 -0.7848
  476MOL0     H62800   0.830   1.401   4.627  1.1476  3.0715 -1.3321
  476MOL0     H62801   0.746   1.355   4.471 -0.9003  1.0320  0.1729
  476MOL0     H62802   0.627   1.182   4.618  1.6530 -3.0976 -0.7083
  476MOL0     H62803   0.737   1.234   4.750  1.0529  1.6886 -0.0367
  476MOL0     H62804   0.824   1.020   4.623 -2.0607  1.0524  0.4140
  476MOL0     H62805   0.812   1.101   4.477 -0.3473 -2.2739  0.7709
  476MOL0     H62806   0.995   1.271   4.581  2.7051  0.2240  0.8549
  476MOL0     H62807   1.031   1.100   4.548 -0.1639  0.7874 -0.6076
  476MOL0     H62808   0.992   1.047   4.783 -0.9717  0.5808 -1.2654
  476MOL0     H62809   1.008   1.221   4.832  0.8284  2.1029 -1.4826
  476MOL0     H62810   1.197   1.026   4.700 -2.4235 -0.0005  0.9995
  476MOL0     H62811   1.234   1.201   4.698 -1.9612  1.6287  0.4412
  476MOL0     H62812   1.353   1.072   4.879 -0.4967 -0.3778 -3.0121
  476MOL0     H62813   1.193   1.008   4.929 -0.5306 -0.8641 -0.9270
  476MOL0     H62814   0.423   1.624   4.613 -2.0279 -0.0545 -0.3124
  476MOL0     H62815   0.219   1.716   4.684  0.5034  1.4874  1.6175
  476MOL0     H62816  -0.300   1.530   4.823  0.1244 -0.7737  0.2500
  476MOL0     H62817  -0.505   1.643   4.891  1.0907 -1.9202  0.3261
  476MOL0     H62818   0.179   2.268   4.298  0.5045  0.0381  0.5399
  476MOL0     H62819   0.364   2.184   4.226 -0.1391  3.0548 -0.2482
  476MOL0     H62820   0.613   1.903   3.987  0.6847 -2.0936  0.5995
  476MOL0     H62821   0.828   1.831   4.060 -0.0618  0.5326  4.3343
  476MOL0     H62822   1.019   1.789   4.093  0.7628 -2.5220 -2.5587
  476MOL0     H62823   1.164   1.835   4.163 -3.4329 -1.8107  1.9595
  476MOL0     H62824   1.203   1.743   3.927 -0.5096 -0.7555 -1.9505
  476MOL0     H62825   1.098   1.873   3.867 -0.6080 -0.2956  0.6444
  476MOL0     H62826   1.348   1.885   4.031 -3.4252  2.7339  2.8030
  476MOL0     H62827   1.302   2.029   3.961 -1.6304 -0.5146  2.5110
  476MOL0     H62828   1.312   1.906   3.723  1.0042 -2.3860 -0.7481
  476MOL0     H62829   1.448   1.985   3.798  0.9655 -0.7256  2.5719
  476MOL0     H62830   1.597   1.592   3.804 -1.3968 -1.4390 -1.5681
  476MOL0     H62831   0.982   2.225   4.043  1.1363 -1.3833  0.3565
  476MOL0     H62832   0.755   2.311   3.975 -1.4271 -0.3120  0.8260
  477MOL0     O62833  10.424   7.533   5.252 -0.7277  0.5162  0.6672
  477MOL0     C62834  10.321   7.586   5.274  0.2236  0.6788 -0.4727
  477MOL0     O62835  10.224   7.534   5.361 -0.0966 -0.1529 -0.3486
  477MOL0     C62836  10.245   7.412   5.413  0.0466  0.0402 -0.3910
  477MOL0     C62837  10.249   7.393   5.555  0.4775  0.2278  0.4778
  477MOL0     C62838  10.284   7.275   5.619  0.9502  0.2702  0.2634
  477MOL0     C62839  10.306   7.155   5.552 -0.1110 -0.7717 -0.1170
  477MOL0     O62840  10.327   7.031   5.598 -0.3228  0.7077  0.4177
  477MOL0     C62841  10.423   7.021   5.703  0.3249 -0.3172  0.3138
  477MOL0     C62842  10.497   6.892   5.700 -0.1173 -0.7238 -0.3781
  477MOL0     C62843  10.545   6.839   5.559  0.2000  0.2287  0.3055
  477MOL0     C62844  10.609   6.951   5.473  0.6395 -0.3760 -0.0506
  477MOL0     C62845  10.740   6.996   5.530  0.5745 -0.4058  0.3687
  477MOL0     C62846  10.842   6.883   5.546  0.4892 -0.3243 -0.6945
  477MOL0     C62847  10.978   6.947   5.591  0.5288  0.5318  0.2143
  477MOL0     C62848  11.073   6.973   5.470 -0.0016 -0.2744  1.2220
  477MOL0     N62849  11.211   6.992   5.517  0.5794 -0.7962  0.7780
  477MOL0     C62850  11.277   6.913   5.602 -0.1857 -0.1063  0.0381
  477MOL0     C62851  11.399   6.966   5.627 -0.3035 -0.9024  0.1729
  477MOL0     C62852  11.510   6.924   5.730 -0.7759  0.9197  0.0809
  477MOL0     C62853  11.512   6.770   5.749 -0.6900  0.2975  0.7082
  477MOL0     C62854  11.568   6.674   5.641 -0.2017 -0.2560 -1.0565
  477MOL0     C62855  11.719   6.706   5.617 -0.3950  0.7193 -0.4954
  477MOL0     O62856  11.775   6.613   5.529 -0.3973  0.1256 -0.6889
  477MOL0     C62857  11.912   6.613   5.520 -0.5558  0.1224  0.4458
  477MOL0     C62858  12.004   6.681   5.601  0.0008  0.4383  0.3833
  477MOL0     C62859  12.141   6.682   5.586  0.6571  0.9865 -0.3756
  477MOL0     C62860  12.199   6.604   5.482  0.4256  0.2514 -0.2386
  477MOL0     C62861  12.345   6.604   5.463  0.0404 -0.2466 -0.6300
  477MOL0     O62862  12.393   6.535   5.357 -0.6916  0.7488 -0.3404
  477MOL0     C62863  12.528   6.537   5.337 -0.4830 -0.3783 -0.6480
  477MOL0     C62864  12.620   6.513   5.447  0.4642 -0.3123 -0.8077
  477MOL0     C62865  12.753   6.507   5.421  0.1415  1.1182 -0.0452
  477MOL0     C62866  12.793   6.526   5.288 -0.3047  0.2215 -0.6882
  477MOL0     O62867  12.924   6.502   5.254 -0.5987  0.8866 -0.5291
  477MOL0     C62868  13.021   6.583   5.328  0.2570  0.9169  0.4922
  477MOL0     C62869  13.054   6.701   5.240 -0.6691  0.3991  0.0213
  477MOL0     C62870  13.103   6.656   5.101 -1.0126 -0.4187 -0.7856
  477MOL0     C62871  13.243   6.590   5.092  0.2934  0.3704 -0.5347
  477MOL0     C62872  13.278   6.532   4.952  0.3243 -0.8367 -0.6937
  477MOL0     C62873  13.377   6.417   4.934 -0.0907  0.3196  0.3230
  477MOL0     C62874  13.515   6.479   4.940 -0.6663 -0.0434 -0.0046
  477MOL0     C62875  13.615   6.372   4.959  1.3255  0.5906 -0.6501
  477MOL0    Cl62876  13.780   6.400   4.922 -0.2916  0.4281 -0.2069
  477MOL0     C62877  12.708   6.555   5.186  0.5152  0.1023  0.6633
  477MOL0     C62878  12.577   6.565   5.215  0.0338  0.5914  0.2127
  477MOL0     O62879  12.411   6.675   5.539 -0.7114  0.0724 -0.2627
  477MOL0     C62880  12.117   6.518   5.414  0.2603 -0.0733 -0.1278
  477MOL0     C62881  11.976   6.519   5.428  0.2253  0.0884 -0.2603
  477MOL0     N62882  11.408   7.077   5.549 -0.1696  0.0291 -0.0017
  477MOL0     N62883  11.292   7.101   5.494 -0.0799 -0.1199 -0.0466
  477MOL0     C62884  10.283   7.168   5.411 -0.1369  0.6878  0.0902
  477MOL0     C62885  10.257   7.290   5.346  0.4354 -0.6367  0.8683
  477MOL0     C62886  10.299   7.716   5.209  0.3760  0.6019 -0.0371
  477MOL0     C62887  10.378   7.750   5.101  0.1509  0.0321  1.1274
  477MOL0     C62888  10.368   7.877   5.043 -0.2175 -0.3485  1.3937
  477MOL0     C62889  10.292   7.980   5.099 -0.2001  0.3820  0.0261
  477MOL0     O62890  10.310   8.109   5.054  0.0489  0.0019 -0.1276
  477MOL0     C62891  10.413   8.149   4.958  0.3993 -0.3604  0.0055
  477MOL0     C62892  10.443   8.297   4.978  0.7616 -0.5778 -0.2653
  477MOL0     C62893  10.315   8.385   4.978  0.0688  0.8064  0.5418
  477MOL0     C62894  10.321   8.535   4.958 -1.0947 -0.4357  1.0314
  477MOL0     C62895  10.449   8.602   4.983  0.7762 -0.1392 -0.2190
  477MOL0     C62896  10.559   8.654   5.007  0.5081 -0.2324 -0.3184
  477MOL0     C62897  10.206   7.939   5.203 -0.3553 -0.5868 -0.1535
  477MOL0     C62898  10.206   7.812   5.263  0.2382 -0.4056 -0.3033
  477MOL0     H62899  10.244   7.483   5.616 -1.7804 -0.7693  1.8986
  477MOL0     H62900  10.311   7.281   5.724  1.1302 -1.8095  0.3657
  477MOL0     H62901  10.380   7.031   5.803 -1.4018  0.7419 -0.4844
  477MOL0     H62902  10.502   7.095   5.687  0.4494 -0.3114  0.9459
  477MOL0     H62903  10.440   6.815   5.753  1.8206 -0.5911  2.0724
  477MOL0     H62904  10.588   6.899   5.759  0.6445  0.0443 -1.6048
  477MOL0     H62905  10.460   6.802   5.501  0.9795 -1.0570 -0.0407
  477MOL0     H62906  10.611   6.753   5.568 -1.3701 -0.8209  5.5850
  477MOL0     H62907  10.616   6.924   5.367 -0.1279  0.2039 -0.2579
  477MOL0     H62908  10.547   7.041   5.468  2.3830  1.0551  2.2728
  477MOL0     H62909  10.739   7.042   5.629  1.9002  1.1578 -0.2847
  477MOL0     H62910  10.776   7.072   5.459  0.6501 -2.3887 -1.8352
  477MOL0     H62911  10.844   6.823   5.455 -3.5181  0.1546 -1.3038
  477MOL0     H62912  10.805   6.810   5.618  0.3694 -1.1272 -1.5411
  477MOL0     H62913  10.956   7.047   5.628 -0.3485  1.6390 -3.0251
  477MOL0     H62914  11.025   6.872   5.656 -0.8579  0.1458  0.8142
  477MOL0     H62915  11.040   7.068   5.427  0.8632  0.1152  1.4045
  477MOL0     H62916  11.070   6.890   5.398 -2.3900 -1.6529  2.7487
  477MOL0     H62917  11.245   6.815   5.637  0.9304 -0.8187 -0.8813
  477MOL0     H62918  11.481   6.962   5.828 -0.7901 -2.5464  1.5635
  477MOL0     H62919  11.613   6.950   5.705  0.8323 -3.0754  1.6034
  477MOL0     H62920  11.412   6.740   5.780 -0.8969 -1.5800 -1.4976
  477MOL0     H62921  11.574   6.770   5.839  2.7148  3.8750 -1.3260
  477MOL0     H62922  11.544   6.568   5.652 -1.5005 -0.2676 -3.4185
  477MOL0     H62923  11.507   6.692   5.553 -0.9373  0.3468 -0.4337
  477MOL0     H62924  11.763   6.702   5.718 -1.6810 -1.6476  0.0602
  477MOL0     H62925  11.730   6.803   5.569  1.7027  0.9898  0.4246
  477MOL0     H62926  11.970   6.751   5.676 -1.4573  0.8538 -0.6175
  477MOL0     H62927  12.194   6.740   5.661 -0.8507  1.9888 -0.0165
  477MOL0     H62928  12.593   6.494   5.551  1.2580 -1.0587 -0.7304
  477MOL0     H62929  12.833   6.468   5.483 -0.8766 -0.2183  0.4697
  477MOL0     H62930  13.112   6.526   5.346  0.0610  0.5863  0.4381
  477MOL0     H62931  12.979   6.619   5.423 -1.6720  0.1868 -0.0451
  477MOL0     H62932  13.127   6.756   5.301  0.8264 -1.0045 -0.4530
  477MOL0     H62933  12.967   6.767   5.228 -0.7020  0.8905  2.4589
  477MOL0     H62934  13.105   6.739   5.030  0.8996  0.7175  0.5319
  477MOL0     H62935  13.037   6.578   5.062 -0.8806 -0.8085 -0.2353
  477MOL0     H62936  13.322   6.661   5.120  0.1058  0.1111  0.6995
  477MOL0     H62937  13.253   6.506   5.162  2.2956  0.4334 -0.6780
  477MOL0     H62938  13.294   6.607   4.874 -0.3803 -2.1511 -2.1584
  477MOL0     H62939  13.184   6.488   4.918  0.5184 -0.9991 -1.0208
  477MOL0     H62940  13.360   6.376   4.834  0.5158  0.0715  0.3207
  477MOL0     H62941  13.361   6.340   5.011  0.5095 -0.6309 -0.4777
  477MOL0     H62942  13.526   6.525   4.842 -1.7512  2.6279  1.0492
  477MOL0     H62943  13.531   6.546   5.025 -0.1504 -3.1136  2.5527
  477MOL0     H62944  13.587   6.288   4.894 -0.2116  1.9031 -1.7527
  477MOL0     H62945  13.613   6.351   5.066  0.9754  0.9815 -0.5794
  477MOL0     H62946  12.741   6.567   5.083 -1.5323  2.3978  0.1671
  477MOL0     H62947  12.513   6.572   5.127  1.4966 -1.5259 -1.1236
  477MOL0     H62948  12.165   6.457   5.339  1.7269  2.2361 -1.2009
  477MOL0     H62949  11.917   6.451   5.367  0.4473  0.0086 -0.3871
  477MOL0     H62950  10.290   7.079   5.348  1.5576  0.3812  0.6681
  477MOL0     H62951  10.252   7.300   5.238  0.9355  1.6069  0.9968
  477MOL0     H62952  10.453   7.681   5.063 -0.5511  0.0328 -0.3375
  477MOL0     H62953  10.433   7.890   4.957  2.5485  0.2361  3.4416
  477MOL0     H62954  10.378   8.138   4.855  4.4145  0.2276 -1.5790
  477MOL0     H62955  10.505   8.092   4.975  2.5036  2.5615 -0.8956
  477MOL0     H62956  10.492   8.324   5.072  0.2420  0.4759 -0.2795
  477MOL0     H62957  10.510   8.324   4.895 -0.0080 -1.2130 -1.1050
  477MOL0     H62958  10.263   8.359   5.071  0.0387 -2.0119 -0.1843
  477MOL0     H62959  10.252   8.350   4.896  1.0148 -0.6932  0.4281
  477MOL0     H62960  10.285   8.556   4.857  2.2813 -3.0433 -0.9804
  477MOL0     H62961  10.243   8.576   5.022 -0.2200 -0.9155  2.4563
  477MOL0     H62962  10.655   8.692   5.033  0.7165  1.5380 -3.1685
  477MOL0     H62963  10.132   8.010   5.239 -2.1327 -2.2446 -0.3639
  477MOL0     H62964  10.146   7.785   5.349 -0.1188 -2.1397 -1.0536
  478MOL0     O62965   6.124   4.176   0.960  0.0433 -0.0310 -0.2680
  478MOL0     C62966   6.133   4.282   0.891  0.5015 -0.7908  0.2180
  478MOL0     O62967   6.024   4.361   0.854 -0.1430  0.5331  0.2141
  478MOL0     C62968   5.904   4.320   0.896 -0.8478 -0.0119 -0.1766
  478MOL0     C62969   5.837   4.232   0.807  0.1568 -0.4360  0.2085
  478MOL0     C62970   5.707   4.206   0.825  0.2803  0.3286 -0.3588
  478MOL0     C62971   5.635   4.252   0.940 -0.5279  0.4326  0.5604
  478MOL0     O62972   5.508   4.231   0.970  0.1217  0.1258  0.5838
  478MOL0     C62973   5.423   4.185   0.862 -0.5250  0.1750 -0.6605
  478MOL0     C62974   5.278   4.206   0.899 -0.2622  0.4498 -0.2217
  478MOL0     C62975   5.186   4.148   0.789 -0.2198 -0.7945 -0.6339
  478MOL0     C62976   5.129   4.263   0.709 -0.6222  0.1311 -0.2384
  478MOL0     C62977   5.029   4.214   0.608  0.9982 -0.5778 -0.1644
  478MOL0     C62978   4.935   4.333   0.549  0.0223 -0.8447  0.2132
  478MOL0     C62979   5.010   4.445   0.474  0.4420 -0.1549 -0.9270
  478MOL0     C62980   4.927   4.571   0.471  0.6607  0.6107  0.0573
  478MOL0     N62981   4.842   4.584   0.350 -0.3899  0.5345  0.1040
  478MOL0     C62982   4.872   4.674   0.247 -0.7425 -0.1230 -0.6485
  478MOL0     C62983   4.762   4.671   0.169  0.3426 -0.1894 -0.3302
  478MOL0     C62984   4.751   4.759   0.049  0.2591 -0.4544  0.0922
  478MOL0     C62985   4.746   4.904   0.080 -0.2482 -0.0230 -0.2787
  478MOL0     C62986   4.776   5.003  -0.040 -0.7597  0.0570 -0.0904
  478MOL0     C62987   4.647   5.040  -0.116 -0.6870 -0.4486  0.6173
  478MOL0     O62988   4.665   5.154  -0.197  0.5209 -0.3166 -0.2582
  478MOL0     C62989   4.750   5.137  -0.307  0.2341 -0.0331 -0.5431
  478MOL0     C62990   4.848   5.238  -0.326 -0.2218  0.5609  0.3064
  478MOL0     C62991   4.936   5.229  -0.436 -0.1026 -0.0372  0.0416
  478MOL0     C62992   4.944   5.112  -0.520 -0.1166  0.1090 -0.8645
  478MOL0     C62993   5.038   5.121  -0.628  1.4379 -0.0440 -0.2826
  478MOL0     O62994   5.098   5.243  -0.649 -0.1773  0.4825 -0.0061
  478MOL0     C62995   5.205   5.238  -0.729  0.5663  0.1897  0.7572
  478MOL0     C62996   5.223   5.346  -0.822 -0.3124  0.8847 -0.1988
  478MOL0     C62997   5.341   5.359  -0.900  0.1679 -0.3472  0.0605
  478MOL0     C62998   5.448   5.263  -0.884  0.5909 -0.1440  0.3217
  478MOL0     O62999   5.562   5.267  -0.964  0.7625 -0.4635 -0.0907
  478MOL0     C63000   5.631   5.394  -0.968  0.7374 -0.3711  0.0357
  478MOL0     C63001   5.749   5.372  -1.055  1.3071  0.4117  0.6969
  478MOL0     C63002   5.854   5.474  -1.060  0.1272 -0.9308  0.3837
  478MOL0     C63003   5.955   5.454  -1.179 -1.0927 -0.2663  1.2043
  478MOL0     C63004   6.018   5.321  -1.202  0.7295 -0.1149 -0.2897
  478MOL0     C63005   6.137   5.322  -1.297 -0.1285  0.1362  0.1904
  478MOL0     C63006   6.193   5.182  -1.334  0.4241 -0.4432  1.4509
  478MOL0     C63007   6.272   5.109  -1.230 -0.0222  0.7339  1.2695
  478MOL0    Cl63008   6.426   5.191  -1.202  0.0511 -0.6699  0.1698
  478MOL0     C63009   5.428   5.155  -0.798  0.6595 -0.6955 -0.7449
  478MOL0     C63010   5.313   5.147  -0.727 -0.2641 -0.4825 -0.3147
  478MOL0     O63011   5.059   5.020  -0.692  0.6220  0.7266  0.3522
  478MOL0     C63012   4.847   5.011  -0.495  0.4719  0.8173 -0.6205
  478MOL0     C63013   4.754   5.031  -0.399  0.5595  0.6211  0.5673
  478MOL0     N63014   4.675   4.580   0.216 -0.1500 -0.1633 -0.8297
  478MOL0     N63015   4.718   4.523   0.327 -0.5609 -0.3792 -0.1503
  478MOL0     C63016   5.711   4.336   1.033  0.6157  0.4966 -0.0815
  478MOL0     C63017   5.842   4.378   1.006  0.0737  0.1462 -0.0556
  478MOL0     C63018   6.273   4.321   0.844 -0.0448  0.1083 -0.7825
  478MOL0     C63019   6.382   4.232   0.824  0.4248 -0.3826 -0.7115
  478MOL0     C63020   6.508   4.278   0.779 -0.5387 -0.5670  0.5443
  478MOL0     C63021   6.526   4.409   0.740 -0.4068 -0.6031  0.1082
  478MOL0     O63022   6.642   4.476   0.697 -0.3182  0.1179 -0.3152
  478MOL0     C63023   6.760   4.403   0.714  0.5879 -0.2629 -0.5710
  478MOL0     C63024   6.890   4.489   0.694  1.0221 -0.5745  0.4845
  478MOL0     C63025   7.015   4.412   0.658  0.2111 -0.8582 -1.0413
  478MOL0     C63026   7.140   4.500   0.632  0.1696  0.3789 -0.5283
  478MOL0     C63027   7.261   4.418   0.609 -0.0169  0.5889 -0.3364
  478MOL0     C63028   7.358   4.346   0.605 -0.3422  0.4473  0.9001
  478MOL0     C63029   6.424   4.499   0.757  0.0222 -0.3470 -0.6061
  478MOL0     C63030   6.297   4.456   0.803 -0.4631 -0.4656 -0.7511
  478MOL0     H63031   5.895   4.190   0.725 -1.3856  0.5527 -1.4573
  478MOL0     H63032   5.674   4.137   0.748 -0.0444  0.8425 -0.6896
  478MOL0     H63033   5.440   4.077   0.857 -1.9119 -0.0586 -0.6927
  478MOL0     H63034   5.452   4.226   0.765 -1.0895 -0.3647 -1.0662
  478MOL0     H63035   5.250   4.310   0.917 -0.4106  0.4989 -0.7400
  478MOL0     H63036   5.260   4.151   0.992 -0.7058  0.2804 -0.4090
  478MOL0     H63037   5.097   4.103   0.835 -0.7455 -1.5526 -2.3159
  478MOL0     H63038   5.225   4.070   0.723 -1.0449 -2.4087  0.7030
  478MOL0     H63039   5.084   4.326   0.787  0.5301 -0.2617  0.7631
  478MOL0     H63040   5.212   4.317   0.662  0.3247 -1.3344 -0.2877
  478MOL0     H63041   4.965   4.136   0.651  1.4832  0.7843  3.3905
  478MOL0     H63042   5.073   4.154   0.527  1.5233 -2.0130  1.1227
  478MOL0     H63043   4.880   4.373   0.634  1.0545  0.1431  0.4399
  478MOL0     H63044   4.859   4.279   0.492 -2.1183  0.2505  1.8729
  478MOL0     H63045   5.107   4.453   0.525 -0.1973  0.6430  0.2178
  478MOL0     H63046   5.019   4.408   0.372 -1.9617 -1.0673 -0.8627
  478MOL0     H63047   4.995   4.656   0.481  0.2968  0.9689 -0.4955
  478MOL0     H63048   4.859   4.584   0.556 -0.9492 -0.2349 -1.0425
  478MOL0     H63049   4.960   4.736   0.235 -0.4351 -0.8135 -2.2237
  478MOL0     H63050   4.665   4.726  -0.011 -0.7511  1.9556  0.1284
  478MOL0     H63051   4.840   4.741  -0.013 -0.1514 -0.7183 -0.4373
  478MOL0     H63052   4.817   4.927   0.159 -0.0972 -0.9653 -0.1242
  478MOL0     H63053   4.652   4.927   0.131  0.7043  1.9362  0.6909
  478MOL0     H63054   4.829   5.089   0.002  0.2610 -1.1875  1.2921
  478MOL0     H63055   4.846   4.958  -0.111  0.6047  2.0686 -0.0934
  478MOL0     H63056   4.569   5.061  -0.042 -0.9869 -1.8772  0.7318
  478MOL0     H63057   4.603   4.963  -0.180 -0.0159  1.9904 -3.0767
  478MOL0     H63058   4.847   5.319  -0.254 -0.0141 -0.0546  1.0078
  478MOL0     H63059   4.998   5.313  -0.465 -1.7594  1.2559  0.1262
  478MOL0     H63060   5.153   5.428  -0.830  0.6888  1.7179 -0.7069
  478MOL0     H63061   5.347   5.444  -0.967  1.7648 -0.5399 -0.0893
  478MOL0     H63062   5.657   5.405  -0.862 -1.5003 -1.5156  0.7738
  478MOL0     H63063   5.577   5.483  -1.000 -1.1365 -1.2970  0.4930
  478MOL0     H63064   5.710   5.372  -1.157  1.6967  1.2840  0.5365
  478MOL0     H63065   5.791   5.275  -1.027 -0.9394 -0.4296  1.3182
  478MOL0     H63066   5.889   5.459  -0.958  0.1798  0.3080  0.5640
  478MOL0     H63067   5.808   5.572  -1.077  0.2457 -0.9811 -0.2622
  478MOL0     H63068   5.899   5.473  -1.271  3.3721  0.0431 -1.7439
  478MOL0     H63069   6.037   5.527  -1.178 -0.8024 -0.5351 -0.3369
  478MOL0     H63070   5.945   5.251  -1.243 -1.5664  2.4749 -0.8525
  478MOL0     H63071   6.045   5.294  -1.100 -1.8066  0.9728  0.7555
  478MOL0     H63072   6.214   5.384  -1.251 -0.4541  0.7456 -0.0771
  478MOL0     H63073   6.099   5.367  -1.389 -0.9143 -2.8456 -1.0706
  478MOL0     H63074   6.102   5.124  -1.353 -2.1547  3.7450 -0.4710
  478MOL0     H63075   6.255   5.184  -1.423  1.0545 -0.8338  1.8749
  478MOL0     H63076   6.293   5.007  -1.262 -1.7188  0.0496  2.1978
  478MOL0     H63077   6.218   5.105  -1.134  0.7482  0.2989  1.6925
  478MOL0     H63078   5.514   5.089  -0.798  0.0560 -1.4970 -1.2957
  478MOL0     H63079   5.315   5.057  -0.666  2.5548 -0.4535 -0.2391
  478MOL0     H63080   4.852   4.923  -0.559 -0.8138  1.7826 -2.1156
  478MOL0     H63081   4.675   4.958  -0.384 -0.7415  2.4855  3.8482
  478MOL0     H63082   5.664   4.372   1.124 -0.5236 -0.0101 -0.4525
  478MOL0     H63083   5.882   4.463   1.060 -1.1303  0.1322  0.9056
  478MOL0     H63084   6.370   4.129   0.856  0.9194 -0.8154 -1.8596
  478MOL0     H63085   6.586   4.205   0.756 -1.0143 -0.3828 -1.9255
  478MOL0     H63086   6.771   4.330   0.634 -0.7835  0.9480 -1.9318
  478MOL0     H63087   6.769   4.345   0.807 -0.2532 -1.5967 -1.2878
  478MOL0     H63088   6.857   4.558   0.616 -1.3042  0.9158  2.6414
  478MOL0     H63089   6.906   4.557   0.778 -0.2660 -0.4505  0.6506
  478MOL0     H63090   6.989   4.357   0.567 -0.7308 -0.6434 -0.9213
  478MOL0     H63091   7.028   4.328   0.727 -1.4171 -2.1454 -2.2029
  478MOL0     H63092   7.114   4.578   0.560  1.2033  1.7940  0.5875
  478MOL0     H63093   7.167   4.554   0.723  0.7112 -0.2912 -0.2813
  478MOL0     H63094   7.445   4.287   0.584 -0.5927  0.2901  0.2948
  478MOL0     H63095   6.438   4.606   0.750  0.9432 -0.1725  2.4066
  478MOL0     H63096   6.211   4.523   0.804 -0.8153 -0.9154 -0.6979
  479MOL0     O63097   6.983   6.798   0.056 -0.2365 -0.4991  0.5794
  479MOL0     C63098   7.051   6.828  -0.042 -0.8521  0.0229  0.1265
  479MOL0     O63099   7.005   6.882  -0.157  0.4240 -0.2146  0.3694
  479MOL0     C63100   6.864   6.899  -0.160 -0.1238 -0.0707  0.4946
  479MOL0     C63101   6.769   6.799  -0.128 -0.6698 -1.1411 -0.5784
  479MOL0     C63102   6.632   6.835  -0.133  0.0071  0.1442 -0.3643
  479MOL0     C63103   6.590   6.954  -0.192  0.5827 -0.3440  0.0421
  479MOL0     O63104   6.454   6.989  -0.198 -0.1130  0.0961  0.2289
  479MOL0     C63105   6.355   6.895  -0.155 -0.2127  0.1911  0.3743
  479MOL0     C63106   6.206   6.942  -0.172 -0.1766 -0.0439  0.1931
  479MOL0     C63107   6.168   6.963  -0.322 -0.1621 -0.3422 -0.2470
  479MOL0     C63108   6.148   6.827  -0.385 -0.4202  0.3374  0.1581
  479MOL0     C63109   6.097   6.859  -0.524 -0.3352 -0.2693  0.0054
  479MOL0     C63110   6.078   6.730  -0.596  0.4761  0.4756  0.2304
  479MOL0     C63111   6.030   6.751  -0.741  0.2400 -0.4408 -0.8028
  479MOL0     C63112   5.904   6.832  -0.752 -0.9365  0.5115  0.4161
  479MOL0     N63113   5.864   6.822  -0.889 -0.3159  0.0575  0.2593
  479MOL0     C63114   5.892   6.914  -0.991 -0.8104  0.2149  0.2907
  479MOL0     C63115   5.820   6.875  -1.093 -0.5225  0.1015 -0.0714
  479MOL0     C63116   5.786   6.919  -1.233  0.1822 -1.0965  0.3783
  479MOL0     C63117   5.873   6.876  -1.344  0.2357  0.3008  0.2756
  479MOL0     C63118   6.007   6.962  -1.342  0.3191  0.6974  0.5551
  479MOL0     C63119   5.997   7.093  -1.415 -0.1136  0.3102 -0.2602
  479MOL0     O63120   5.948   7.079  -1.553 -0.5755 -0.1173  0.1598
  479MOL0     C63121   6.032   7.011  -1.642  0.0828  0.4507  0.3242
  479MOL0     C63122   5.986   6.918  -1.741 -0.0090 -0.3729 -0.2368
  479MOL0     C63123   6.069   6.842  -1.820 -0.4059  0.5001  0.3295
  479MOL0     C63124   6.207   6.868  -1.819 -0.6836 -0.1150  0.0567
  479MOL0     C63125   6.306   6.792  -1.901 -0.2289 -0.3117 -0.3365
  479MOL0     O63126   6.432   6.783  -1.846  0.0943  0.2559 -0.4721
  479MOL0     C63127   6.516   6.689  -1.898  0.6160 -0.4597  0.6729
  479MOL0     C63128   6.567   6.705  -2.027 -0.4264  0.7643 -0.3592
  479MOL0     C63129   6.665   6.619  -2.072 -0.5735 -0.3977  0.3133
  479MOL0     C63130   6.710   6.509  -1.999  0.3504  0.1331 -1.2501
  479MOL0     O63131   6.813   6.425  -2.036  0.0611 -0.3483 -0.0784
  479MOL0     C63132   6.855   6.445  -2.173  0.3375 -0.4190  0.7269
  479MOL0     C63133   6.968   6.558  -2.189  0.2891  0.1575 -0.2228
  479MOL0     C63134   7.051   6.545  -2.307  0.4394 -0.3277  0.3403
  479MOL0     C63135   7.140   6.665  -2.332 -0.7534 -0.1581 -0.1359
  479MOL0     C63136   7.259   6.621  -2.424  0.0358 -0.0768  0.2919
  479MOL0     C63137   7.350   6.737  -2.437  0.0996  0.2655  0.1014
  479MOL0     C63138   7.456   6.713  -2.543  0.1261 -0.4974  0.2126
  479MOL0     C63139   7.553   6.831  -2.544  0.3379  0.0450 -0.1444
  479MOL0    Cl63140   7.660   6.814  -2.395  0.4070 -0.0158 -0.2527
  479MOL0     C63141   6.658   6.497  -1.870  0.7467  0.4709 -0.3727
  479MOL0     C63142   6.560   6.587  -1.817 -0.6633  0.8176  0.2735
  479MOL0     O63143   6.270   6.732  -2.003  0.2043 -0.5100 -0.5593
  479MOL0     C63144   6.257   6.958  -1.724  0.5574  0.2775 -0.5075
  479MOL0     C63145   6.169   7.029  -1.641 -0.4460 -0.5232  0.8254
  479MOL0     N63146   5.772   6.746  -1.064  0.1396 -0.4200  0.4756
  479MOL0     N63147   5.795   6.717  -0.942  0.3409 -0.2540 -0.0915
  479MOL0     C63148   6.687   7.046  -0.239  1.4239  0.1300  0.4731
  479MOL0     C63149   6.824   7.020  -0.219 -0.0174  0.2788  0.3000
  479MOL0     C63150   7.191   6.770  -0.051 -0.2733  0.0321  0.4328
  479MOL0     C63151   7.247   6.756  -0.180 -0.2256 -1.0176 -0.8652
  479MOL0     C63152   7.378   6.718  -0.199 -0.7490 -0.5033  0.5770
  479MOL0     C63153   7.453   6.680  -0.092 -0.1923  0.0297  0.3851
  479MOL0     O63154   7.579   6.637  -0.140 -0.0140  0.0903 -0.6549
  479MOL0     C63155   7.686   6.645  -0.041  0.2169  0.4108 -0.5905
  479MOL0     C63156   7.806   6.569  -0.094 -0.1222 -0.1091 -0.1664
  479MOL0     C63157   7.860   6.639  -0.225 -1.3432 -0.6386  0.7040
  479MOL0     C63158   8.011   6.616  -0.239 -0.6381  0.2736  0.0480
  479MOL0     C63159   8.051   6.642  -0.378  0.2135 -0.1870 -0.5273
  479MOL0     C63160   8.060   6.672  -0.486  0.6682  0.6075  0.5248
  479MOL0     C63161   7.407   6.694   0.043 -1.2319  0.1817 -0.2349
  479MOL0     C63162   7.275   6.744   0.063 -0.8575  0.4643 -0.3381
  479MOL0     H63163   6.793   6.703  -0.082  0.6067  0.2752  1.9420
  479MOL0     H63164   6.567   6.753  -0.106 -0.4500  0.3633 -0.7775
  479MOL0     H63165   6.380   6.873  -0.051 -1.0768 -0.6135  0.4311
  479MOL0     H63166   6.365   6.806  -0.217  2.4182  0.1441  0.7741
  479MOL0     H63167   6.194   7.029  -0.107  0.6047  2.3133 -2.6091
  479MOL0     H63168   6.137   6.864  -0.138  0.9017 -0.9364  0.4198
  479MOL0     H63169   6.250   7.015  -0.372  1.1342 -0.6234  1.4685
  479MOL0     H63170   6.075   7.019  -0.329 -0.9028 -1.1975  1.7926
  479MOL0     H63171   6.245   6.776  -0.396 -0.2391  0.9784 -1.6261
  479MOL0     H63172   6.088   6.772  -0.312 -0.1761  0.1602  0.2258
  479MOL0     H63173   6.170   6.922  -0.577  1.3468 -0.1481  2.2727
  479MOL0     H63174   6.005   6.918  -0.521  0.1330  0.7925 -2.9048
  479MOL0     H63175   5.997   6.677  -0.544  1.4600  1.6199  3.1692
  479MOL0     H63176   6.176   6.683  -0.584 -1.1281 -2.3756  4.7795
  479MOL0     H63177   6.116   6.788  -0.797 -0.0532 -2.6118 -2.8426
  479MOL0     H63178   6.011   6.648  -0.771 -0.2387  0.1036 -2.4527
  479MOL0     H63179   5.927   6.936  -0.727 -3.6129  1.1318  0.6042
  479MOL0     H63180   5.833   6.805  -0.674  1.9591  0.0395  3.1092
  479MOL0     H63181   5.947   7.007  -0.980 -1.4336  0.7980 -1.3523
  479MOL0     H63182   5.786   7.028  -1.235  2.1810 -1.0119  2.1741
  479MOL0     H63183   5.681   6.891  -1.250 -0.1368 -0.2439  0.8970
  479MOL0     H63184   5.812   6.882  -1.435  1.4703  0.5525 -0.5547
  479MOL0     H63185   5.895   6.771  -1.319 -1.6563  0.0510  1.0505
  479MOL0     H63186   6.051   6.977  -1.243  2.7526 -0.5488 -0.2617
  479MOL0     H63187   6.088   6.900  -1.382 -0.3179  0.6777 -0.7611
  479MOL0     H63188   6.095   7.140  -1.401  0.5411 -0.7736 -1.0527
  479MOL0     H63189   5.923   7.151  -1.359  0.0832  1.5268 -1.2297
  479MOL0     H63190   5.880   6.900  -1.751 -0.3602  1.6862 -0.6403
  479MOL0     H63191   6.031   6.757  -1.875  1.6542  0.8140 -1.7398
  479MOL0     H63192   6.545   6.799  -2.076  1.0076  1.5754  0.4660
  479MOL0     H63193   6.722   6.654  -2.158  2.2392  1.0631  2.6043
  479MOL0     H63194   6.772   6.460  -2.243  1.7730  0.4682 -0.8287
  479MOL0     H63195   6.905   6.352  -2.202  0.4272 -0.2910  0.4706
  479MOL0     H63196   7.029   6.566  -2.099  0.5659  0.2974 -0.4207
  479MOL0     H63197   6.919   6.655  -2.191 -4.2275 -1.8149  1.1005
  479MOL0     H63198   6.992   6.536  -2.399  2.5647  2.5124 -1.4906
  479MOL0     H63199   7.112   6.454  -2.307 -2.5207 -2.5733 -2.7911
  479MOL0     H63200   7.091   6.742  -2.391 -2.3263 -2.0695 -1.4667
  479MOL0     H63201   7.176   6.717  -2.244 -0.4679 -1.5923  0.6320
  479MOL0     H63202   7.224   6.581  -2.519  0.2615  1.6691 -0.5713
  479MOL0     H63203   7.315   6.537  -2.380  0.3706 -0.4691 -0.8488
  479MOL0     H63204   7.409   6.746  -2.346  3.2440 -1.5566 -1.6122
  479MOL0     H63205   7.299   6.834  -2.451 -0.6900 -0.2165 -0.4655
  479MOL0     H63206   7.506   6.617  -2.528 -2.5527 -1.8840  1.0941
  479MOL0     H63207   7.415   6.722  -2.644  0.5994 -1.2048 -0.0505
  479MOL0     H63208   7.504   6.928  -2.556  2.8773  1.6915  1.7782
  479MOL0     H63209   7.611   6.837  -2.636 -4.1381  4.9735 -3.2011
  479MOL0     H63210   6.673   6.404  -1.816 -0.4876 -0.4701 -1.5817
  479MOL0     H63211   6.531   6.568  -1.714 -1.6927  1.9525  0.2122
  479MOL0     H63212   6.359   6.991  -1.708 -0.3659  2.4612  1.4604
  479MOL0     H63213   6.210   7.114  -1.589 -0.5293 -0.0096  0.0668
  479MOL0     H63214   6.649   7.132  -0.295  0.2029 -2.7195 -3.5665
  479MOL0     H63215   6.896   7.095  -0.248  0.5304  0.9401  3.0560
  479MOL0     H63216   7.196   6.765  -0.275 -1.7329 -0.4971 -0.0399
  479MOL0     H63217   7.412   6.711  -0.302  0.8601 -0.2668  1.0701
  479MOL0     H63218   7.657   6.593   0.051 -1.0285  0.8432 -0.7180
  479MOL0     H63219   7.708   6.750  -0.023 -0.9188  0.7802 -1.2792
  479MOL0     H63220   7.886   6.579  -0.020 -1.1265  0.8929  0.8092
  479MOL0     H63221   7.785   6.465  -0.121  0.1302 -0.2827  0.3004
  479MOL0     H63222   7.842   6.746  -0.232 -0.0765 -0.0830  4.0423
  479MOL0     H63223   7.810   6.596  -0.312  1.1778  0.1899 -1.2642
  479MOL0     H63224   8.065   6.686  -0.174  0.0197 -0.0785 -0.1148
  479MOL0     H63225   8.044   6.515  -0.214 -0.8060  0.2833  0.3145
  479MOL0     H63226   8.066   6.708  -0.587 -0.4520 -1.6909 -0.4134
  479MOL0     H63227   7.470   6.670   0.128 -2.0886 -0.2480  0.2920
  479MOL0     H63228   7.231   6.753   0.162 -1.8221 -2.0523 -0.4556
  480MOL0     O63229   3.082   1.145   4.641  0.5968  0.3466  0.6783
  480MOL0     C63230   3.162   1.229   4.599  0.0795 -0.4956 -0.0916
  480MOL0     O63231   3.170   1.272   4.470  0.2972 -0.2623  0.8801
  480MOL0     C63232   3.048   1.257   4.403  0.0038  0.7500  0.6092
  480MOL0     C63233   2.931   1.304   4.450 -0.9347  0.0720  0.3278
  480MOL0     C63234   2.817   1.288   4.370 -0.2657 -0.2802  0.5617
  480MOL0     C63235   2.818   1.228   4.249 -0.2430  0.4223  0.1972
  480MOL0     O63236   2.704   1.222   4.170  0.3922  0.3238  0.1054
  480MOL0     C63237   2.680   1.348   4.096 -0.6499 -0.0935 -0.9517
  480MOL0     C63238   2.569   1.335   3.991  0.0606 -0.2282 -0.0534
  480MOL0     C63239   2.445   1.258   4.036  0.1890 -0.2625  0.8790
  480MOL0     C63240   2.314   1.317   3.984  0.5106 -0.2332  0.5580
  480MOL0     C63241   2.255   1.425   4.070 -1.0301 -0.7004  0.9145
  480MOL0     C63242   2.145   1.493   3.999 -0.3515  0.0038  0.0400
  480MOL0     C63243   2.023   1.406   3.977  0.9559 -0.2645 -0.1034
  480MOL0     C63244   1.905   1.484   3.913  0.3443  0.2183  0.0584
  480MOL0     N63245   1.926   1.523   3.774 -0.4452  0.0830 -0.4602
  480MOL0     C63246   1.893   1.640   3.716  0.0422 -0.7498  0.1139
  480MOL0     C63247   1.922   1.632   3.581 -0.2601  0.3339  0.3485
  480MOL0     C63248   1.893   1.740   3.475  0.5909  0.1492 -0.0641
  480MOL0     C63249   1.746   1.751   3.442  0.9953  0.4252  0.5033
  480MOL0     C63250   1.678   1.626   3.377  0.1491  0.0759 -0.4989
  480MOL0     C63251   1.530   1.631   3.361  0.6682  0.6779 -0.1453
  480MOL0     O63252   1.497   1.722   3.252  0.4136 -1.2914  0.2477
  480MOL0     C63253   1.372   1.744   3.210 -0.4576 -0.6299 -0.7096
  480MOL0     C63254   1.336   1.877   3.184 -0.5668  0.4260 -0.5645
  480MOL0     C63255   1.206   1.903   3.134  1.3763 -0.8257  0.5250
  480MOL0     C63256   1.114   1.796   3.118 -0.6648 -0.2648 -0.1847
  480MOL0     C63257   0.975   1.831   3.084  0.4024  0.5144 -0.6020
  480MOL0     O63258   0.887   1.726   3.096 -0.3537 -0.1579  0.2499
  480MOL0     C63259   0.755   1.757   3.105 -0.7811  0.7130 -0.3000
  480MOL0     C63260   0.692   1.740   3.229 -0.1691 -0.1335 -0.4027
  480MOL0     C63261   0.554   1.759   3.239  0.3502 -0.0809 -0.3369
  480MOL0     C63262   0.481   1.797   3.127 -0.2411 -0.1154  0.1045
  480MOL0     O63263   0.347   1.823   3.132 -0.4438  0.1890 -0.2547
  480MOL0     C63264   0.321   1.969   3.138  0.5397  1.4333 -0.0925
  480MOL0     C63265   0.188   1.981   3.224 -0.2574 -0.1201  0.5737
  480MOL0     C63266   0.057   1.934   3.151  0.2409  0.3655  0.0424
  480MOL0     C63267  -0.050   1.964   3.260  0.4629 -0.0229 -0.7401
  480MOL0     C63268  -0.174   1.890   3.245  0.6584  0.2307  0.0894
  480MOL0     C63269  -0.266   1.924   3.369 -0.1234 -0.1722 -0.2954
  480MOL0     C63270  -0.409   1.865   3.352 -0.1782 -0.9575  0.2331
  480MOL0     C63271  -0.519   1.950   3.406  0.0584  0.0519 -0.4641
  480MOL0    Cl63272  -0.480   2.016   3.566 -0.1018 -0.1812 -0.4881
  480MOL0     C63273   0.539   1.812   3.004  0.8001  1.0701 -0.5656
  480MOL0     C63274   0.676   1.794   3.001 -0.2028  1.0021 -0.0987
  480MOL0     O63275   0.941   1.942   3.046 -0.1466 -0.6999  0.0131
  480MOL0     C63276   1.148   1.664   3.147  0.4403  0.9593  0.1129
  480MOL0     C63277   1.279   1.644   3.190 -0.4749  0.8562 -0.3267
  480MOL0     N63278   1.970   1.503   3.573  0.0025 -0.2726  0.2400
  480MOL0     N63279   1.967   1.440   3.686 -0.5111 -0.7408 -0.3049
  480MOL0     C63280   2.936   1.181   4.198  0.1585 -0.2204  0.2280
  480MOL0     C63281   3.047   1.192   4.277 -0.5909  0.3534  0.8182
  480MOL0     C63282   3.279   1.265   4.689  0.0202 -0.5218  0.5149
  480MOL0     C63283   3.354   1.159   4.742  0.0232  0.1680 -0.1770
  480MOL0     C63284   3.479   1.184   4.803  0.9715 -0.3007 -0.1088
  480MOL0     C63285   3.523   1.316   4.818  0.0540 -0.2035  0.4573
  480MOL0     O63286   3.644   1.355   4.863 -0.6660 -0.2612  0.3612
  480MOL0     C63287   3.752   1.252   4.856  0.4078 -0.2396  0.1743
  480MOL0     C63288   3.871   1.312   4.929 -0.5971 -0.2672 -0.5291
  480MOL0     C63289   4.008   1.241   4.899 -0.0358 -0.2097  0.0792
  480MOL0     C63290   4.034   1.123   4.998  0.2041  0.1664  0.1251
  480MOL0     C63291   4.160   1.068   4.950 -0.8753  0.0857  0.6138
  480MOL0     C63292   4.265   1.031   4.898 -0.7350  0.1490  0.9991
  480MOL0     C63293   3.445   1.418   4.750 -1.0423 -0.8609 -0.1364
  480MOL0     C63294   3.321   1.395   4.697  0.5605  0.5262 -0.0654
  480MOL0     H63295   2.928   1.359   4.544 -0.8249  1.4930 -0.4768
  480MOL0     H63296   2.726   1.332   4.408  0.5903  1.5012  0.6420
  480MOL0     H63297   2.765   1.388   4.040 -1.9854  1.0746 -2.2402
  480MOL0     H63298   2.643   1.419   4.170 -0.0647  0.3516 -1.0771
  480MOL0     H63299   2.614   1.274   3.913  1.1402  0.3643  0.0867
  480MOL0     H63300   2.542   1.435   3.955 -2.0464 -1.0065 -0.7911
  480MOL0     H63301   2.423   1.253   4.144 -4.0039 -2.1406  0.1711
  480MOL0     H63302   2.461   1.152   4.013  0.3067 -0.0296 -0.1392
  480MOL0     H63303   2.331   1.337   3.878  0.8750 -1.0421  0.4568
  480MOL0     H63304   2.242   1.234   3.978 -0.6339  0.8340 -1.4373
  480MOL0     H63305   2.337   1.495   4.087 -1.1169  1.2736 -4.6128
  480MOL0     H63306   2.227   1.371   4.160  1.6020 -1.5138  1.3178
  480MOL0     H63307   2.165   1.541   3.903  1.9137 -0.4771  0.2222
  480MOL0     H63308   2.110   1.569   4.070 -0.0534 -1.3474  1.6776
  480MOL0     H63309   2.061   1.325   3.914  3.0224  0.1734  0.4909
  480MOL0     H63310   1.993   1.364   4.074  2.8377  0.6983  0.9646
  480MOL0     H63311   1.877   1.566   3.980  0.5909 -0.3706  0.8935
  480MOL0     H63312   1.823   1.411   3.916 -2.1695  2.8777  0.0144
  480MOL0     H63313   1.830   1.720   3.754 -0.9617 -1.0459 -0.8459
  480MOL0     H63314   1.949   1.725   3.382  2.7607  3.0698  0.6228
  480MOL0     H63315   1.927   1.836   3.516 -3.3786  1.9856 -0.5463
  480MOL0     H63316   1.731   1.841   3.381  2.1438  0.6301  0.5137
  480MOL0     H63317   1.693   1.770   3.536 -0.9250  1.6364 -0.7428
  480MOL0     H63318   1.722   1.619   3.277 -0.5409  1.1477 -0.8961
  480MOL0     H63319   1.697   1.540   3.443 -0.5684 -0.1778 -0.6210
  480MOL0     H63320   1.472   1.669   3.446 -1.1272  2.4834 -2.0486
  480MOL0     H63321   1.500   1.527   3.344 -0.6791  0.7445  1.4696
  480MOL0     H63322   1.401   1.964   3.196  0.7172 -0.6239  0.4751
  480MOL0     H63323   1.173   2.001   3.102  0.7065 -0.7928  1.2873
  480MOL0     H63324   0.741   1.701   3.317 -3.0573 -1.3141  0.8317
  480MOL0     H63325   0.499   1.748   3.331  0.2534  5.0901  0.5179
  480MOL0     H63326   0.317   2.024   3.044  2.0958  1.0894 -0.3982
  480MOL0     H63327   0.407   1.998   3.199  2.2694  0.0121 -1.7081
  480MOL0     H63328   0.179   2.085   3.257 -0.1587  1.5028 -3.8412
  480MOL0     H63329   0.220   1.928   3.314  0.5578  1.4592  1.2576
  480MOL0     H63330   0.061   1.828   3.125  3.5426 -0.3965  2.8952
  480MOL0     H63331   0.032   1.983   3.056  1.1019 -2.0248 -1.5134
  480MOL0     H63332   0.010   1.942   3.349  2.5841  0.6095 -1.9336
  480MOL0     H63333  -0.074   2.070   3.270  2.1849  0.2644  0.9470
  480MOL0     H63334  -0.143   1.785   3.238  0.6578  0.1889  0.6500
  480MOL0     H63335  -0.220   1.934   3.156 -2.3524 -2.3501  0.1901
  480MOL0     H63336  -0.276   2.032   3.381 -0.0453 -0.1955 -0.0240
  480MOL0     H63337  -0.199   1.882   3.445  1.3888 -0.8472 -1.9197
  480MOL0     H63338  -0.423   1.851   3.245 -1.3137 -1.3237  0.4140
  480MOL0     H63339  -0.414   1.768   3.401 -2.6602 -2.4232 -2.5929
  480MOL0     H63340  -0.613   1.893   3.414  0.0556  0.1510  0.2726
  480MOL0     H63341  -0.534   2.030   3.333  0.9823 -0.9049 -1.7562
  480MOL0     H63342   0.478   1.838   2.918 -2.8954 -0.8035  1.2552
  480MOL0     H63343   0.716   1.794   2.900 -2.4408 -2.8585 -1.1851
  480MOL0     H63344   1.073   1.585   3.151  0.8026  0.6322  2.8820
  480MOL0     H63345   1.310   1.542   3.210  0.4458  0.2971 -3.9526
  480MOL0     H63346   2.929   1.141   4.097 -0.5553  1.1775 -0.2994
  480MOL0     H63347   3.138   1.157   4.230 -2.1120 -1.4357 -0.9584
  480MOL0     H63348   3.311   1.061   4.728  0.0394  0.0333  0.6440
  480MOL0     H63349   3.537   1.094   4.822  0.3984 -1.1142 -1.9165
  480MOL0     H63350   3.776   1.219   4.755  3.4784  1.3874  0.2729
  480MOL0     H63351   3.723   1.159   4.906 -2.9789 -0.1765 -1.3438
  480MOL0     H63352   3.874   1.419   4.906 -2.1776  0.1797  1.0912
  480MOL0     H63353   3.850   1.319   5.037 -0.5674 -1.3253 -0.4406
  480MOL0     H63354   4.084   1.319   4.906  1.2404 -1.4745  0.6886
  480MOL0     H63355   4.010   1.204   4.797  0.0120  1.3317 -0.4976
  480MOL0     H63356   4.035   1.166   5.099 -1.3584 -2.2053  1.2170
  480MOL0     H63357   3.955   1.049   4.999 -0.6328  1.0428  0.5930
  480MOL0     H63358   4.349   0.990   4.845 -0.0459  2.1745  0.4282
  480MOL0     H63359   3.476   1.520   4.729 -1.6689 -0.4367  0.8999
  480MOL0     H63360   3.266   1.472   4.644 -1.6639 -1.5626 -1.0214
  481MOL0     O63361   1.343   5.909   5.026  0.0479  0.1851 -0.4101
  481MOL0     C63362   1.402   6.017   5.025  0.4847  0.0676 -0.3637
  481MOL0     O63363   1.343   6.134   5.046  0.2115  0.3530  0.2305
  481MOL0     C63364   1.205   6.142   5.055  0.3920  0.0918 -0.3810
  481MOL0     C63365   1.124   6.078   4.964  0.1915 -0.3212  0.7593
  481MOL0     C63366   0.986   6.087   4.983  0.4497 -0.4046 -0.6372
  481MOL0     C63367   0.928   6.171   5.086 -0.5852  0.6028  1.0388
  481MOL0     O63368   0.794   6.182   5.110 -0.6188 -0.6633 -0.6066
  481MOL0     C63369   0.707   6.071   5.084  0.4301  0.5460  0.2385
  481MOL0     C63370   0.576   6.092   5.160  0.9675  0.4492  0.3561
  481MOL0     C63371   0.471   6.141   5.065 -0.6749  0.5671 -0.2934
  481MOL0     C63372   0.338   6.169   5.138  0.4027 -0.6200 -0.2786
  481MOL0     C63373   0.337   6.278   5.259 -0.1275 -0.3293  0.3750
  481MOL0     C63374   0.188   6.306   5.290  0.2935  0.5711  0.1228
  481MOL0     C63375   0.161   6.402   5.403 -0.3113 -0.2473 -0.3069
  481MOL0     C63376   0.017   6.397   5.456 -0.1926  0.7227  0.1029
  481MOL0     N63377  -0.072   6.473   5.372  0.4659 -0.4956  0.1390
  481MOL0     C63378  -0.181   6.425   5.307  0.7778  0.6391 -0.3722
  481MOL0     C63379  -0.243   6.532   5.249  0.2019  0.5307 -0.3921
  481MOL0     C63380  -0.357   6.517   5.151 -0.0733  0.0226  0.1569
  481MOL0     C63381  -0.426   6.377   5.150 -0.4331  0.6389 -0.1779
  481MOL0     C63382  -0.543   6.381   5.047 -0.3892  0.0721 -0.0115
  481MOL0     C63383  -0.561   6.244   4.985  0.0529  0.6283 -0.7028
  481MOL0     O63384  -0.609   6.148   5.084  0.2501 -0.3301  0.1475
  481MOL0     C63385  -0.746   6.142   5.100  0.7879  0.5764 -0.5179
  481MOL0     C63386  -0.801   6.184   5.229  0.0483  0.1805 -0.8241
  481MOL0     C63387  -0.937   6.173   5.257 -0.4634  0.0037  0.3684
  481MOL0     C63388  -1.024   6.113   5.162 -0.7150  0.4763 -0.1456
  481MOL0     C63389  -1.168   6.104   5.194  0.0556  0.8813  0.2484
  481MOL0     O63390  -1.252   6.055   5.100  0.1750 -1.0153 -0.2330
  481MOL0     C63391  -1.389   6.050   5.119  0.5726 -0.2701 -0.0794
  481MOL0     C63392  -1.477   6.038   5.009  0.7787  0.2447 -0.2225
  481MOL0     C63393  -1.612   6.016   5.029 -0.5518 -0.4545  0.8245
  481MOL0     C63394  -1.667   5.988   5.148 -0.0363  0.8461 -0.0553
  481MOL0     O63395  -1.802   5.966   5.155  0.2267  0.4076  0.5965
  481MOL0     C63396  -1.847   5.871   5.247  0.6555  0.9743  0.1439
  481MOL0     C63397  -1.991   5.834   5.214 -0.3656  0.4219  0.0958
  481MOL0     C63398  -2.070   5.829   5.348 -0.3046 -0.1994  0.5556
  481MOL0     C63399  -2.199   5.756   5.332 -0.3835  0.2377 -0.3579
  481MOL0     C63400  -2.286   5.753   5.464  0.7330  0.3757 -0.4404
  481MOL0     C63401  -2.409   5.659   5.422  0.1364  0.1722  1.0314
  481MOL0     C63402  -2.493   5.634   5.543 -0.0815 -0.1290  0.6334
  481MOL0     C63403  -2.556   5.754   5.602 -0.3875  0.4049 -0.9010
  481MOL0    Cl63404  -2.681   5.718   5.728  0.0483 -0.8029  0.1847
  481MOL0     C63405  -1.578   5.986   5.257  0.3908  0.3796  0.2185
  481MOL0     C63406  -1.445   6.014   5.241 -0.5638  0.0896  0.2762
  481MOL0     O63407  -1.194   6.136   5.313 -0.2199 -0.7591  0.1021
  481MOL0     C63408  -0.969   6.073   5.031 -0.1817 -1.0269 -0.2266
  481MOL0     C63409  -0.832   6.090   5.008 -0.2685 -1.2989  0.7663
  481MOL0     N63410  -0.169   6.640   5.294  0.0786 -0.1944 -0.0129
  481MOL0     N63411  -0.076   6.610   5.375 -0.4059  0.3426  0.2070
  481MOL0     C63412   1.010   6.246   5.169 -1.4947 -0.2714  0.2117
  481MOL0     C63413   1.152   6.228   5.158 -0.2136  0.3686  0.3836
  481MOL0     C63414   1.545   6.021   5.012 -0.5285 -1.2786  0.1064
  481MOL0     C63415   1.623   5.905   4.978  0.9480  0.0331  0.3878
  481MOL0     C63416   1.766   5.900   4.969  0.6002 -0.9502 -0.3718
  481MOL0     C63417   1.838   6.020   4.980  0.1665  0.4590 -0.6116
  481MOL0     O63418   1.978   6.029   4.942  1.1568  0.1227  0.0275
  481MOL0     C63419   2.053   5.922   4.878 -0.1474 -1.0030 -0.2399
  481MOL0     C63420   2.129   5.980   4.755  0.5893 -0.5865 -0.6593
  481MOL0     C63421   2.223   5.872   4.715  0.2924 -0.6143  0.6807
  481MOL0     C63422   2.264   5.892   4.565 -0.7708 -0.0052 -0.0177
  481MOL0     C63423   2.327   5.768   4.505  0.8642  0.3720  1.0072
  481MOL0     C63424   2.401   5.685   4.461 -0.6010 -0.8749  0.1246
  481MOL0     C63425   1.768   6.133   5.023 -0.4102  0.3029  0.1671
  481MOL0     C63426   1.624   6.138   5.042  0.4291  0.8718  0.6656
  481MOL0     H63427   1.166   6.026   4.879  0.1171 -0.2079  0.6522
  481MOL0     H63428   0.910   6.048   4.916 -1.5551  0.9961  0.7024
  481MOL0     H63429   0.760   5.984   5.124  1.9019  1.4342  0.3213
  481MOL0     H63430   0.698   6.066   4.975  2.1314 -0.5731  0.1094
  481MOL0     H63431   0.588   6.160   5.245 -1.1108 -2.8546  3.5797
  481MOL0     H63432   0.534   6.000   5.203 -3.7719  1.9900 -0.3808
  481MOL0     H63433   0.456   6.060   4.992  3.3802 -0.0367 -0.6984
  481MOL0     H63434   0.504   6.229   5.009 -0.5716 -0.4268 -1.8755
  481MOL0     H63435   0.259   6.192   5.066  0.8865 -0.1023 -0.6552
  481MOL0     H63436   0.314   6.071   5.180 -2.7728  0.5215  0.9197
  481MOL0     H63437   0.387   6.369   5.224  0.3045 -1.0338 -0.9074
  481MOL0     H63438   0.386   6.249   5.353 -1.8932  0.9682  1.7705
  481MOL0     H63439   0.140   6.209   5.308 -1.3018  1.0054 -1.5363
  481MOL0     H63440   0.143   6.351   5.201 -1.5365 -1.0637  0.1494
  481MOL0     H63441   0.226   6.378   5.487 -1.0483  0.0175  0.3470
  481MOL0     H63442   0.179   6.502   5.364 -0.2908 -0.6516 -1.3809
  481MOL0     H63443   0.014   6.447   5.553  2.2398 -1.5861  1.4993
  481MOL0     H63444  -0.011   6.291   5.461  1.1939  0.3523  3.9087
  481MOL0     H63445  -0.205   6.319   5.302  4.4228 -0.3620  0.6415
  481MOL0     H63446  -0.325   6.535   5.048  0.4304 -1.9407 -0.0680
  481MOL0     H63447  -0.427   6.590   5.191  0.3785 -0.5080  2.0241
  481MOL0     H63448  -0.469   6.373   5.251  2.4747 -1.0666  1.1161
  481MOL0     H63449  -0.354   6.297   5.135  0.4665  1.7218 -2.0337
  481MOL0     H63450  -0.629   6.410   5.109  0.6857 -1.9699  2.6639
  481MOL0     H63451  -0.526   6.449   4.963 -0.2714 -0.9919 -0.8645
  481MOL0     H63452  -0.462   6.211   4.950 -0.5888  0.1476 -2.1271
  481MOL0     H63453  -0.624   6.259   4.897  1.9855  1.5908 -2.0236
  481MOL0     H63454  -0.738   6.230   5.305 -2.1943  1.0983  0.5745
  481MOL0     H63455  -0.979   6.205   5.352  0.2815 -2.0834  1.4676
  481MOL0     H63456  -1.426   6.053   4.914  2.7584 -0.6463  0.6488
  481MOL0     H63457  -1.680   6.020   4.945  0.1330 -0.7895  0.2464
  481MOL0     H63458  -1.839   5.915   5.347  0.9763  0.2445  0.4458
  481MOL0     H63459  -1.776   5.789   5.237 -1.9019 -1.3778 -0.0424
  481MOL0     H63460  -1.984   5.731   5.177  1.3766 -0.1271  1.7959
  481MOL0     H63461  -2.035   5.896   5.136  3.5198  0.8938 -1.9217
  481MOL0     H63462  -2.099   5.931   5.374 -2.7266 -1.4189  3.1433
  481MOL0     H63463  -2.018   5.785   5.433 -0.7285 -1.6664  0.0920
  481MOL0     H63464  -2.257   5.804   5.253 -1.4814 -0.5205 -0.0483
  481MOL0     H63465  -2.172   5.654   5.303  2.8002  1.8369 -3.8224
  481MOL0     H63466  -2.330   5.853   5.478  0.2047  0.0898 -0.0157
  481MOL0     H63467  -2.242   5.706   5.552  1.8283  1.4739 -0.3743
  481MOL0     H63468  -2.368   5.565   5.385 -0.5551 -1.3288  3.7654
  481MOL0     H63469  -2.466   5.701   5.338  0.7556 -2.1393 -0.6324
  481MOL0     H63470  -2.570   5.560   5.519  0.5410 -0.6664  0.2794
  481MOL0     H63471  -2.432   5.575   5.612  0.3863 -1.0198 -0.4971
  481MOL0     H63472  -2.616   5.808   5.528 -0.5519 -2.8316 -3.3501
  481MOL0     H63473  -2.475   5.809   5.650  1.3844 -1.3540 -1.7268
  481MOL0     H63474  -1.614   5.969   5.357  0.6013 -3.0481 -0.1464
  481MOL0     H63475  -1.389   6.016   5.334  1.5478  4.6680 -0.7958
  481MOL0     H63476  -1.040   6.046   4.953 -1.1267 -1.4370  0.7570
  481MOL0     H63477  -0.780   6.056   4.919  0.4689 -1.0665  1.0996
  481MOL0     H63478   0.980   6.321   5.241  0.5307 -1.5818  2.5896
  481MOL0     H63479   1.225   6.277   5.222  1.8673 -0.9145 -0.8867
  481MOL0     H63480   1.569   5.812   4.961  1.5623 -0.5839  1.7373
  481MOL0     H63481   1.813   5.804   4.951 -0.0143 -0.8928 -2.5252
  481MOL0     H63482   1.981   5.846   4.843 -2.4542 -0.2182  2.4169
  481MOL0     H63483   2.117   5.881   4.956 -0.9406  0.1727  1.0651
  481MOL0     H63484   2.068   6.012   4.671  0.5967  1.5939  0.1143
  481MOL0     H63485   2.184   6.068   4.789 -0.1741  0.2597 -1.5764
  481MOL0     H63486   2.182   5.771   4.726  0.0669 -0.5154  0.7571
  481MOL0     H63487   2.305   5.873   4.786 -0.1369 -3.0924  1.3141
  481MOL0     H63488   2.178   5.909   4.500  1.0190  2.5364 -1.9033
  481MOL0     H63489   2.327   5.981   4.554 -0.4041  0.0128  1.8751
  481MOL0     H63490   2.463   5.610   4.416  2.1548  1.3933 -0.1338
  481MOL0     H63491   1.813   6.230   5.043 -0.8259  0.5250  0.0249
  481MOL0     H63492   1.582   6.232   5.076 -1.3901  0.5210 -0.4717
  482MOL0     O63493   1.171   8.723   9.100 -0.1407  0.5298 -0.3458
  482MOL0     C63494   1.250   8.801   9.057 -0.1480 -0.0319  0.2172
  482MOL0     O63495   1.248   8.935   9.055 -0.2464 -0.3109 -0.2396
  482MOL0     C63496   1.136   8.997   9.097  0.2370 -0.1520 -0.2802
  482MOL0     C63497   1.034   9.022   9.008 -0.5524 -0.5979  0.4144
  482MOL0     C63498   0.910   9.067   9.052  0.2084  0.5834  0.3936
  482MOL0     C63499   0.885   9.086   9.187 -0.8074 -0.6524 -1.2058
  482MOL0     O63500   0.767   9.132   9.242  0.9973  0.1498 -0.2130
  482MOL0     C63501   0.644   9.111   9.167 -1.0312  0.4928  0.0128
  482MOL0     C63502   0.540   9.199   9.233 -0.6148  0.1710 -0.0553
  482MOL0     C63503   0.399   9.142   9.222 -1.3786 -0.1539  0.1168
  482MOL0     C63504   0.290   9.233   9.275  0.1418 -0.3796  0.2198
  482MOL0     C63505   0.297   9.221   9.435  0.6739  0.5660  0.0937
  482MOL0     C63506   0.176   9.295   9.493  0.1411  0.2382  0.8028
  482MOL0     C63507   0.196   9.290   9.645  0.3966  0.7023 -1.0504
  482MOL0     C63508   0.062   9.301   9.737  0.1987  0.8354  0.2739
  482MOL0     N63509   0.031   9.182   9.809  0.8923  0.9281 -0.1342
  482MOL0     C63510   0.086   9.150   9.927 -0.7009 -0.5057 -0.0207
  482MOL0     C63511   0.070   9.018   9.944  1.2928 -0.8876 -0.6839
  482MOL0     C63512   0.115   8.948  10.058  0.6657  0.4355 -0.4432
  482MOL0     C63513  -0.011   8.915  10.153 -0.0032  0.1675  0.4330
  482MOL0     C63514  -0.097   9.033  10.209 -0.1987  0.4765  1.2077
  482MOL0     C63515  -0.009   9.135  10.279  0.2587  0.1099  0.6105
  482MOL0     O63516   0.066   9.074  10.378  0.1170  0.7165  0.0335
  482MOL0     C63517   0.176   9.137  10.431  1.0882 -0.7621 -0.0961
  482MOL0     C63518   0.242   9.065  10.528 -0.3173 -0.0083  0.0950
  482MOL0     C63519   0.358   9.110  10.583 -0.6877  0.0433 -0.3424
  482MOL0     C63520   0.412   9.234  10.535  0.3675  0.7697  0.7449
  482MOL0     C63521   0.535   9.281  10.593 -0.1747 -0.4327  0.3852
  482MOL0     O63522   0.591   9.395  10.532 -0.0073 -1.0211 -0.0172
  482MOL0     C63523   0.705   9.448  10.570  0.4837 -1.2116  0.5989
  482MOL0     C63524   0.830   9.387  10.570  0.0066 -0.2618 -0.0387
  482MOL0     C63525   0.941   9.461  10.619  0.6274 -0.1819 -0.3213
  482MOL0     C63526   0.928   9.596  10.651 -0.8042 -0.3098 -0.3585
  482MOL0     O63527   1.049   9.660  10.672  0.1521  0.7836 -0.3297
  482MOL0     C63528   1.048   9.805  10.668 -0.7348 -0.0689  1.2313
  482MOL0     C63529   1.186   9.871  10.657  0.4728 -0.2244  0.1017
  482MOL0     C63530   1.253   9.861  10.525  0.3455 -0.1626  0.7857
  482MOL0     C63531   1.403   9.873  10.544 -0.3550  0.2199 -0.0798
  482MOL0     C63532   1.439  10.021  10.539  0.6200  0.3671  0.8761
  482MOL0     C63533   1.577  10.056  10.588 -0.9297  0.2385  0.3423
  482MOL0     C63534   1.593  10.028  10.737  0.1306 -0.0274 -0.0291
  482MOL0     C63535   1.716  10.104  10.807 -0.0175 -0.1712  1.1811
  482MOL0    Cl63536   1.867  10.042  10.716  0.1382  0.0800 -0.0217
  482MOL0     C63537   0.807   9.651  10.647  1.1814 -0.1891 -0.1131
  482MOL0     C63538   0.696   9.582  10.607  0.7326 -0.1924 -1.5614
  482MOL0     O63539   0.583   9.220  10.685 -0.1687  0.1659  0.0002
  482MOL0     C63540   0.350   9.309  10.437 -0.6358  0.8784  0.2664
  482MOL0     C63541   0.231   9.260  10.383 -0.0033 -0.5238 -0.1090
  482MOL0     N63542  -0.007   8.972   9.846 -0.8452  0.5200  0.2065
  482MOL0     N63543  -0.027   9.068   9.758  0.4482 -0.1366  0.3931
  482MOL0     C63544   0.988   9.070   9.280 -0.5650  0.3006 -0.2365
  482MOL0     C63545   1.115   9.028   9.234 -0.5233  0.2148 -0.5437
  482MOL0     C63546   1.371   8.735   8.993  0.0968  0.1535 -1.0441
  482MOL0     C63547   1.385   8.595   8.990  0.1552 -0.1830 -0.5141
  482MOL0     C63548   1.496   8.536   8.936 -0.2454 -0.1069  0.4285
  482MOL0     C63549   1.607   8.619   8.898  0.0779  0.1913 -0.3958
  482MOL0     O63550   1.734   8.566   8.882  0.4088 -0.5211 -0.0305
  482MOL0     C63551   1.764   8.430   8.928  0.5983 -0.4120 -0.2461
  482MOL0     C63552   1.921   8.409   8.898 -0.6280 -0.3236 -0.2183
  482MOL0     C63553   1.955   8.258   8.915 -0.4001  0.0480 -0.8263
  482MOL0     C63554   2.108   8.236   8.890 -0.0757 -0.6858  0.4819
  482MOL0     C63555   2.133   8.092   8.892  0.6248 -0.0466 -0.4981
  482MOL0     C63556   2.153   7.974   8.899 -0.9408 -0.2290 -0.6809
  482MOL0     C63557   1.585   8.760   8.889  0.6407 -0.4535 -0.0866
  482MOL0     C63558   1.466   8.819   8.927 -0.1532  0.0092  0.2226
  482MOL0     H63559   1.064   9.018   8.903  3.1886 -1.2356  1.3543
  482MOL0     H63560   0.839   9.097   8.976  0.2048 -0.1734  0.0868
  482MOL0     H63561   0.613   9.007   9.180 -2.9440  0.8861 -1.0238
  482MOL0     H63562   0.651   9.136   9.061 -0.5041  0.0449 -0.0641
  482MOL0     H63563   0.540   9.291   9.174 -0.9822 -0.7297 -1.5022
  482MOL0     H63564   0.557   9.221   9.339 -4.0693  0.4913  0.5432
  482MOL0     H63565   0.385   9.050   9.278 -3.7577 -0.9003 -1.5521
  482MOL0     H63566   0.370   9.131   9.117 -1.2342  2.0352 -0.2055
  482MOL0     H63567   0.303   9.339   9.249 -4.5694  0.3716  0.0313
  482MOL0     H63568   0.194   9.202   9.234  2.5198 -2.8559 -4.1080
  482MOL0     H63569   0.399   9.250   9.463  1.8637 -1.4142 -1.8799
  482MOL0     H63570   0.280   9.114   9.452 -2.0062  1.0425  0.8130
  482MOL0     H63571   0.082   9.246   9.469 -0.8310  1.5087  1.8118
  482MOL0     H63572   0.187   9.399   9.461 -0.3863 -0.1313 -0.6440
  482MOL0     H63573   0.224   9.186   9.662 -0.1298  0.7879  0.5567
  482MOL0     H63574   0.272   9.359   9.682 -0.3457  2.0454 -1.9328
  482MOL0     H63575  -0.025   9.321   9.673  0.5101 -0.9997 -0.7749
  482MOL0     H63576   0.068   9.387   9.806  1.8862  1.5000 -0.6461
  482MOL0     H63577   0.161   9.206   9.981  2.4169 -0.8320 -3.5680
  482MOL0     H63578   0.194   9.003  10.109  1.9463 -2.3355  0.7585
  482MOL0     H63579   0.155   8.854  10.021  1.6176  0.2922  0.8631
  482MOL0     H63580   0.035   8.871  10.242  0.0826 -1.6923 -0.4726
  482MOL0     H63581  -0.073   8.843  10.097 -0.2416  1.5673 -1.1731
  482MOL0     H63582  -0.146   9.081  10.123  2.2458  2.8263  1.0270
  482MOL0     H63583  -0.184   8.990  10.260 -1.3395 -1.0261 -1.7627
  482MOL0     H63584  -0.083   9.206  10.318 -1.4222 -0.3318 -1.6349
  482MOL0     H63585   0.042   9.195  10.204 -2.8534  2.7806  0.3963
  482MOL0     H63586   0.212   8.964  10.554  3.2235 -0.5779  2.7495
  482MOL0     H63587   0.413   9.051  10.656 -2.1829 -1.1484 -0.1065
  482MOL0     H63588   0.848   9.283  10.544  2.9605  0.2366 -0.3130
  482MOL0     H63589   1.041   9.419  10.627  1.4243  1.8603  1.4108
  482MOL0     H63590   1.001   9.832  10.763  0.5687 -1.0379  2.1790
  482MOL0     H63591   0.976   9.824  10.588 -0.8316 -0.1878  1.2899
  482MOL0     H63592   1.249   9.826  10.734 -1.3924 -1.5722  0.9160
  482MOL0     H63593   1.192   9.976  10.687  4.1748  0.6106 -2.8520
  482MOL0     H63594   1.214   9.929  10.449 -2.0094 -2.4685 -0.2245
  482MOL0     H63595   1.226   9.764  10.482 -0.1922  0.7455 -1.0357
  482MOL0     H63596   1.434   9.834  10.641  2.3529  3.1974  0.4195
  482MOL0     H63597   1.459   9.802  10.482  1.1533  0.2242  1.2331
  482MOL0     H63598   1.380  10.084  10.606  0.1157 -1.5438  2.3206
  482MOL0     H63599   1.424  10.050  10.435  2.8920  0.5649  0.5539
  482MOL0     H63600   1.597  10.161  10.564 -0.6644  0.3672  1.0953
  482MOL0     H63601   1.650   9.997  10.531 -2.1019 -0.2607 -0.6826
  482MOL0     H63602   1.498  10.059  10.782 -2.3095 -3.3535 -2.4221
  482MOL0     H63603   1.616   9.923  10.760  5.5408  0.6962 -0.7420
  482MOL0     H63604   1.721  10.084  10.915  0.8691  1.3971  1.4476
  482MOL0     H63605   1.699  10.210  10.789 -0.3412 -0.2788  0.8336
  482MOL0     H63606   0.793   9.754  10.676 -4.4055 -1.1717  1.7709
  482MOL0     H63607   0.602   9.633  10.622 -0.1757 -2.1697 -0.0669
  482MOL0     H63608   0.374   9.410  10.407 -3.8096  2.6550  2.9337
  482MOL0     H63609   0.186   9.327  10.310  1.3391  1.0542  0.4464
  482MOL0     H63610   0.978   9.087   9.386  1.8519 -1.9597  0.4587
  482MOL0     H63611   1.198   9.021   9.303  0.0044 -0.6447 -1.2441
  482MOL0     H63612   1.308   8.526   9.023 -0.2557 -0.5646 -2.1894
  482MOL0     H63613   1.509   8.429   8.945 -1.1706 -0.2552  0.1735
  482MOL0     H63614   1.715   8.370   8.851 -0.2413 -0.0195 -0.0306
  482MOL0     H63615   1.734   8.412   9.031 -1.0983 -1.2801 -0.8607
  482MOL0     H63616   1.940   8.443   8.796 -4.0962 -0.2308 -0.9616
  482MOL0     H63617   1.982   8.470   8.966 -1.5166  1.2572 -0.7905
  482MOL0     H63618   1.898   8.191   8.849 -0.4752 -2.1744  1.3368
  482MOL0     H63619   1.927   8.229   9.017 -1.3970  1.9363 -0.5286
  482MOL0     H63620   2.125   8.287   8.794  3.9181 -1.1378  0.7903
  482MOL0     H63621   2.159   8.288   8.971 -0.1440  0.4305 -0.1561
  482MOL0     H63622   2.175   7.869   8.887  0.5712  0.2302 -2.4049
  482MOL0     H63623   1.671   8.818   8.857  0.1642  1.0461  1.2395
  482MOL0     H63624   1.449   8.923   8.901  0.1018  0.5528  2.1505
  483MOL0     O63625   1.791   5.184   5.226 -0.0932 -0.6384  0.4558
  483MOL0     C63626   1.912   5.155   5.253  0.1515 -0.5955 -0.3879
  483MOL0     O63627   1.946   5.054   5.343 -0.1779  0.1482 -0.0989
  483MOL0     C63628   1.838   4.982   5.396 -0.1134 -0.3472 -0.1950
  483MOL0     C63629   1.801   4.863   5.352 -0.4910  0.0897 -0.2913
  483MOL0     C63630   1.704   4.776   5.401  0.1313  0.1197  0.2292
  483MOL0     C63631   1.627   4.836   5.501 -0.0809  0.1267  0.2078
  483MOL0     O63632   1.524   4.775   5.563  0.0152 -0.1719  0.3913
  483MOL0     C63633   1.459   4.657   5.501 -0.1085 -0.4000  0.6028
  483MOL0     C63634   1.307   4.655   5.530  0.0716 -0.2984 -0.4324
  483MOL0     C63635   1.230   4.788   5.489  0.9288  0.7056 -0.0584
  483MOL0     C63636   1.070   4.757   5.493 -0.3401 -0.2942  0.0533
  483MOL0     C63637   0.999   4.866   5.414 -0.1850 -0.0881 -1.0976
  483MOL0     C63638   0.846   4.845   5.384  0.1113 -0.3031  0.1439
  483MOL0     C63639   0.786   4.965   5.307 -0.2002 -0.2150 -0.0908
  483MOL0     C63640   0.641   4.935   5.272 -0.4939 -0.1949 -0.2068
  483MOL0     N63641   0.564   4.895   5.393  0.1590 -0.4344  0.0960
  483MOL0     C63642   0.498   4.975   5.491  0.4201 -0.2642  0.8898
  483MOL0     C63643   0.421   4.885   5.549  0.3366 -0.0907 -0.3148
  483MOL0     C63644   0.330   4.919   5.658  0.1475  0.1641 -0.5437
  483MOL0     C63645   0.391   4.976   5.787  0.0814  0.2881  0.8726
  483MOL0     C63646   0.530   4.909   5.815  0.5662  0.2984  0.2317
  483MOL0     C63647   0.505   4.767   5.877  0.0968  0.6768 -0.7803
  483MOL0     O63648   0.630   4.721   5.932 -0.1993 -0.5180 -0.2036
  483MOL0     C63649   0.718   4.647   5.858 -0.5018 -0.9832 -0.2213
  483MOL0     C63650   0.690   4.598   5.731 -0.0558  0.8166 -0.2919
  483MOL0     C63651   0.787   4.521   5.669 -0.1573 -0.4658 -0.5157
  483MOL0     C63652   0.913   4.494   5.723  0.2752 -0.3408  0.4073
  483MOL0     C63653   1.016   4.423   5.651 -0.8178  0.2542  0.0615
  483MOL0     O63654   1.144   4.423   5.713  0.0834  0.2431  0.5130
  483MOL0     C63655   1.248   4.341   5.680  0.2900  0.0156 -0.7530
  483MOL0     C63656   1.258   4.238   5.586 -0.0008  0.5902  1.1244
  483MOL0     C63657   1.386   4.183   5.540  0.1280 -0.4961 -0.1757
  483MOL0     C63658   1.499   4.213   5.615 -0.6249 -0.3038 -0.5434
  483MOL0     O63659   1.623   4.161   5.581 -0.2877 -0.0772 -0.1498
  483MOL0     C63660   1.637   4.033   5.510 -0.0329  0.4298  0.2126
  483MOL0     C63661   1.788   4.004   5.498 -0.2883  0.0728  0.7679
  483MOL0     C63662   1.853   3.932   5.616 -0.8390 -0.9066  0.8068
  483MOL0     C63663   1.997   3.892   5.579  0.2731  0.3889 -0.2136
  483MOL0     C63664   2.084   3.994   5.512 -0.1537  1.2999  1.2540
  483MOL0     C63665   2.110   4.121   5.584  0.6492  0.7576 -0.5153
  483MOL0     C63666   2.212   4.207   5.521  0.5420  0.1633  0.7417
  483MOL0     C63667   2.238   4.339   5.591  0.8817 -0.6115 -0.1020
  483MOL0    Cl63668   2.289   4.313   5.766  0.0722  0.4557 -0.2289
  483MOL0     C63669   1.488   4.311   5.717  0.6682  0.2918  0.1393
  483MOL0     C63670   1.368   4.381   5.751 -0.4558 -0.0208  0.1414
  483MOL0     O63671   0.997   4.368   5.547  0.2465 -1.0153 -0.0291
  483MOL0     C63672   0.935   4.542   5.860 -0.1127 -0.3476  0.2962
  483MOL0     C63673   0.836   4.609   5.928  0.0758  0.9214 -0.0732
  483MOL0     N63674   0.444   4.758   5.504  0.3758  1.2665 -0.0021
  483MOL0     N63675   0.519   4.769   5.400  0.5284  0.9554  0.1830
  483MOL0     C63676   1.651   4.961   5.546  0.1973  0.5507 -0.9056
  483MOL0     C63677   1.762   5.030   5.508  0.4862  0.9341 -0.2249
  483MOL0     C63678   2.021   5.210   5.184  0.2309  0.0366 -0.6683
  483MOL0     C63679   2.144   5.216   5.241 -0.0642 -0.2938 -0.1034
  483MOL0     C63680   2.263   5.250   5.175  1.2110  0.1242  0.1202
  483MOL0     C63681   2.260   5.270   5.037  0.0385  0.9641 -0.6070
  483MOL0     O63682   2.382   5.290   4.972  0.6242 -0.3587  0.8515
  483MOL0     C63683   2.380   5.314   4.831  1.1921 -0.2133  0.9626
  483MOL0     C63684   2.531   5.302   4.802  0.9036  0.2587  0.8312
  483MOL0     C63685   2.554   5.326   4.646  0.4594 -0.5087 -0.9302
  483MOL0     C63686   2.687   5.279   4.593  0.6617  0.4164 -0.4256
  483MOL0     C63687   2.698   5.334   4.456  0.1292 -0.5209 -1.2639
  483MOL0     C63688   2.707   5.382   4.346  0.3713  0.2010 -0.2168
  483MOL0     C63689   2.129   5.273   4.974  0.5215 -0.9076 -0.0208
  483MOL0     C63690   2.006   5.247   5.054  0.3096  0.2363 -0.2018
  483MOL0     H63691   1.854   4.835   5.262 -3.3980 -1.4539 -1.6712
  483MOL0     H63692   1.681   4.683   5.352 -1.6234  0.7594 -0.2281
  483MOL0     H63693   1.524   4.574   5.533  0.0532 -1.5906 -2.4644
  483MOL0     H63694   1.462   4.668   5.392 -1.9806 -2.0851  0.3209
  483MOL0     H63695   1.292   4.630   5.636 -1.4031 -2.1506 -1.0385
  483MOL0     H63696   1.274   4.565   5.478  1.3961 -1.7225  1.0778
  483MOL0     H63697   1.272   4.792   5.388  1.4799 -2.8533 -0.1066
  483MOL0     H63698   1.254   4.870   5.557  0.8812  1.2189 -0.6561
  483MOL0     H63699   1.040   4.659   5.455 -1.1533 -0.2040  0.4360
  483MOL0     H63700   1.034   4.764   5.596 -1.6622  0.2632 -0.4199
  483MOL0     H63701   1.049   4.875   5.317  1.4999  2.8396 -0.0943
  483MOL0     H63702   1.004   4.962   5.467 -0.7383 -2.6897  4.2481
  483MOL0     H63703   0.797   4.809   5.474  3.1007 -0.5855  1.7828
  483MOL0     H63704   0.843   4.766   5.308 -0.5061 -0.0288 -0.1265
  483MOL0     H63705   0.803   5.051   5.373 -3.0493  0.4990 -0.1545
  483MOL0     H63706   0.842   4.983   5.215  0.6937  1.0451  0.6569
  483MOL0     H63707   0.644   4.857   5.195  0.1519 -1.4410  1.0417
  483MOL0     H63708   0.592   5.027   5.240  2.5907  1.7847  0.3489
  483MOL0     H63709   0.508   5.081   5.510  1.6235 -0.5103  1.6998
  483MOL0     H63710   0.287   4.820   5.673 -0.3003  0.6685  1.9019
  483MOL0     H63711   0.244   4.972   5.615 -0.5290  0.1050  0.6932
  483MOL0     H63712   0.316   4.972   5.867 -1.6314 -1.4941 -0.7336
  483MOL0     H63713   0.418   5.079   5.761  1.3618 -0.8901 -3.0475
  483MOL0     H63714   0.595   4.902   5.727  0.0128  0.3818 -0.1920
  483MOL0     H63715   0.574   4.977   5.888 -1.0970  3.1048 -1.1950
  483MOL0     H63716   0.463   4.699   5.802  1.3915  0.5200 -1.3914
  483MOL0     H63717   0.438   4.780   5.963 -1.7407  0.6281 -2.1477
  483MOL0     H63718   0.597   4.617   5.679 -1.2994 -1.8369  0.7386
  483MOL0     H63719   0.756   4.485   5.572  3.0810  1.3350 -2.4009
  483MOL0     H63720   1.166   4.214   5.533 -0.3567  1.2055  1.4612
  483MOL0     H63721   1.387   4.098   5.472 -0.5450 -0.3808 -0.3378
  483MOL0     H63722   1.590   4.033   5.411 -0.3190 -1.1017  0.3215
  483MOL0     H63723   1.590   3.952   5.567  0.1624 -2.0283 -2.8227
  483MOL0     H63724   1.843   4.098   5.486  0.7778 -0.4918  1.1224
  483MOL0     H63725   1.812   3.953   5.404 -1.4537 -0.3124  0.6588
  483MOL0     H63726   1.809   3.834   5.639 -1.4155  0.0765  4.5548
  483MOL0     H63727   1.853   4.002   5.701  3.2244  0.7992 -0.3661
  483MOL0     H63728   2.049   3.867   5.673  1.6476 -1.5801 -1.4179
  483MOL0     H63729   1.989   3.795   5.529  1.1870 -0.0154  0.3892
  483MOL0     H63730   2.029   4.011   5.419 -2.6740 -2.0262  1.8976
  483MOL0     H63731   2.180   3.948   5.487 -2.5574 -2.9543 -1.4315
  483MOL0     H63732   2.155   4.088   5.678 -0.2390 -0.5241 -0.5172
  483MOL0     H63733   2.017   4.175   5.607 -0.0649 -0.8357  0.4895
  483MOL0     H63734   2.305   4.150   5.530  0.3570 -0.1235  0.8402
  483MOL0     H63735   2.198   4.226   5.414  1.3255 -1.9892  0.2156
  483MOL0     H63736   2.151   4.406   5.588  0.9055 -0.6124 -0.9616
  483MOL0     H63737   2.312   4.396   5.535 -0.2055  2.7136  1.5541
  483MOL0     H63738   1.577   4.354   5.761 -0.5447  1.6691  1.3633
  483MOL0     H63739   1.372   4.461   5.825  1.3081  1.2719 -1.2662
  483MOL0     H63740   1.033   4.519   5.901  1.8928  1.1601 -3.2401
  483MOL0     H63741   0.839   4.632   6.034 -1.6722 -1.0795  0.4925
  483MOL0     H63742   1.575   5.012   5.605  1.2609 -2.1445  3.1959
  483MOL0     H63743   1.784   5.121   5.561 -3.7909  1.3056  1.3724
  483MOL0     H63744   2.155   5.211   5.349  0.4013 -0.9475 -0.1750
  483MOL0     H63745   2.354   5.246   5.234  0.8195 -0.1465  0.7114
  483MOL0     H63746   2.336   5.409   4.798  4.2312  1.1284  0.4236
  483MOL0     H63747   2.325   5.233   4.783 -1.4164  1.2371  1.3091
  483MOL0     H63748   2.587   5.378   4.857  0.6477  2.3512 -1.6301
  483MOL0     H63749   2.551   5.198   4.830 -2.0523 -1.3658 -2.2698
  483MOL0     H63750   2.555   5.436   4.644 -0.7289 -0.4332  0.6404
  483MOL0     H63751   2.471   5.288   4.587 -0.3595 -0.1993 -0.0129
  483MOL0     H63752   2.767   5.324   4.653 -1.6876  1.9044  1.7805
  483MOL0     H63753   2.689   5.169   4.593  3.1459  0.3780 -2.2785
  483MOL0     H63754   2.715   5.428   4.250 -1.1925 -0.5368 -0.7513
  483MOL0     H63755   2.128   5.285   4.866 -2.1898 -0.9752 -0.0700
  483MOL0     H63756   1.905   5.246   5.013 -0.3653  0.9103  1.3269
  484MOL0     O63757   8.566   6.434   1.367 -0.3239  0.2611 -0.1226
  484MOL0     C63758   8.621   6.346   1.297 -0.0721 -0.3595  0.7020
  484MOL0     O63759   8.560   6.248   1.215 -0.6931  0.0481  0.6615
  484MOL0     C63760   8.440   6.285   1.165 -0.0808  0.2871  0.0395
  484MOL0     C63761   8.321   6.220   1.213 -0.8125 -0.9590  0.3029
  484MOL0     C63762   8.200   6.281   1.169 -0.3276  0.7170  0.6257
  484MOL0     C63763   8.192   6.385   1.076 -0.6134  0.3558 -0.0027
  484MOL0     O63764   8.076   6.454   1.043  0.3148  0.3106  0.0930
  484MOL0     C63765   7.961   6.365   1.030 -0.2324 -0.3304 -0.6104
  484MOL0     C63766   7.845   6.434   0.965 -0.3674  0.3650  0.0750
  484MOL0     C63767   7.747   6.327   0.896 -0.4327  0.4812 -0.1115
  484MOL0     C63768   7.654   6.396   0.804  0.4584 -0.4396  0.2298
  484MOL0     C63769   7.572   6.296   0.726  0.2664  0.2460 -0.3847
  484MOL0     C63770   7.453   6.368   0.650 -0.3854  0.1445 -0.3852
  484MOL0     C63771   7.370   6.279   0.552 -0.7627 -0.1673 -0.3308
  484MOL0     C63772   7.271   6.190   0.625 -0.1066  0.6013 -0.3557
  484MOL0     N63773   7.205   6.109   0.522  0.1571  0.0411 -0.8609
  484MOL0     C63774   7.102   6.147   0.438 -0.3829  0.1690  0.5287
  484MOL0     C63775   7.078   6.042   0.352  0.5644  0.3723 -0.6136
  484MOL0     C63776   6.985   6.031   0.233 -1.2136  0.0281 -0.0175
  484MOL0     C63777   7.028   5.897   0.154 -0.3316 -0.3852 -0.1878
  484MOL0     C63778   6.942   5.872   0.030  0.5161  0.0637  0.2421
  484MOL0     C63779   6.820   5.780   0.050  0.4708 -0.1910 -0.0648
  484MOL0     O63780   6.717   5.865   0.106  0.3238 -0.3998 -0.9706
  484MOL0     C63781   6.584   5.829   0.082  0.0356  0.1922 -0.3412
  484MOL0     C63782   6.489   5.921   0.130 -1.0525  0.7432 -0.9936
  484MOL0     C63783   6.349   5.890   0.112 -0.5217  0.4753 -0.4367
  484MOL0     C63784   6.306   5.767   0.059 -0.4940  0.0396 -0.3633
  484MOL0     C63785   6.152   5.739   0.063 -0.2575 -0.0056 -0.2239
  484MOL0     O63786   6.106   5.615   0.033  0.5930  0.1823 -0.1211
  484MOL0     C63787   5.972   5.598   0.041  0.9439  0.2613 -0.4772
  484MOL0     C63788   5.915   5.521   0.142 -1.3322 -0.2032 -0.0314
  484MOL0     C63789   5.772   5.506   0.139 -0.7912  0.9821 -0.7566
  484MOL0     C63790   5.697   5.535   0.025 -1.0352 -0.3751  0.7846
  484MOL0     O63791   5.561   5.543   0.028 -0.5819 -0.0659  0.8082
  484MOL0     C63792   5.478   5.459   0.110 -0.3717  0.8206 -0.5755
  484MOL0     C63793   5.353   5.407   0.044 -0.1272  0.5201  0.1161
  484MOL0     C63794   5.267   5.317   0.131  0.4959 -0.3392 -0.4969
  484MOL0     C63795   5.149   5.247   0.062 -0.2827 -0.8520 -0.4513
  484MOL0     C63796   5.042   5.350  -0.005 -1.0273 -0.4230  0.2618
  484MOL0     C63797   4.940   5.415   0.085 -0.3120  0.6677 -0.8294
  484MOL0     C63798   4.861   5.517   0.002 -0.1571 -0.3644 -0.3385
  484MOL0     C63799   4.745   5.580   0.087 -0.6958 -0.0797  0.6668
  484MOL0    Cl63800   4.645   5.698  -0.002 -0.4044 -0.1305  0.3660
  484MOL0     C63801   5.760   5.600  -0.078 -0.1401  0.8053  0.2926
  484MOL0     C63802   5.894   5.639  -0.066 -0.3124  0.2150  0.2916
  484MOL0     O63803   6.085   5.838   0.090  0.5224  0.0088 -0.1497
  484MOL0     C63804   6.400   5.669   0.026 -0.4975  0.6599  0.5187
  484MOL0     C63805   6.538   5.703   0.033 -0.3814  0.4920  0.7650
  484MOL0     N63806   7.168   5.941   0.396  0.1402  0.2759 -0.2544
  484MOL0     N63807   7.240   5.979   0.488 -0.4514 -0.4334  0.1124
  484MOL0     C63808   8.310   6.439   1.022  0.0587  0.3956  0.6558
  484MOL0     C63809   8.431   6.383   1.065  0.5876  0.1956  0.7226
  484MOL0     C63810   8.766   6.349   1.313  0.2353 -0.0233  0.2626
  484MOL0     C63811   8.838   6.457   1.269 -0.8706 -0.7095  0.2243
  484MOL0     C63812   8.982   6.458   1.279 -0.0633  0.5967 -0.0631
  484MOL0     C63813   9.050   6.346   1.332  0.7987  0.1824  0.0440
  484MOL0     O63814   9.181   6.328   1.354  0.1737 -0.3453 -0.1250
  484MOL0     C63815   9.270   6.426   1.288 -0.0159  0.4578  0.4423
  484MOL0     C63816   9.289   6.382   1.145  0.1523 -0.2065  0.1717
  484MOL0     C63817   9.351   6.237   1.123 -0.3574 -0.6219 -0.0492
  484MOL0     C63818   9.379   6.205   0.976  0.4234  0.4357 -0.2882
  484MOL0     C63819   9.402   6.058   0.963 -0.0198  0.5920  0.0900
  484MOL0     C63820   9.412   5.934   0.960 -0.1922 -1.4780 -0.4578
  484MOL0     C63821   8.969   6.239   1.368  0.1794 -0.4824 -0.3466
  484MOL0     C63822   8.830   6.235   1.367  0.1384  0.6230  0.4734
  484MOL0     H63823   8.333   6.140   1.286  2.5273 -1.2422 -0.3683
  484MOL0     H63824   8.113   6.232   1.211 -0.2664 -0.3120 -0.3939
  484MOL0     H63825   7.939   6.327   1.130 -0.0736  0.7584 -0.1500
  484MOL0     H63826   7.991   6.278   0.971  1.4632  0.5467 -1.1372
  484MOL0     H63827   7.889   6.499   0.888  1.8491  0.0099  0.9727
  484MOL0     H63828   7.789   6.491   1.040 -0.4302  1.7418 -0.9846
  484MOL0     H63829   7.688   6.277   0.974  0.6843 -0.7845 -0.0407
  484MOL0     H63830   7.810   6.252   0.847  1.9323  3.6977 -2.4603
  484MOL0     H63831   7.593   6.464   0.864 -0.0854 -1.0204  0.3371
  484MOL0     H63832   7.710   6.469   0.743 -1.3949  1.2145  0.4024
  484MOL0     H63833   7.537   6.235   0.811 -1.4384  0.9314 -0.5409
  484MOL0     H63834   7.622   6.235   0.651  0.4665  0.7937 -0.7038
  484MOL0     H63835   7.496   6.452   0.596  1.1340 -0.5373 -0.2811
  484MOL0     H63836   7.390   6.412   0.728  0.9305 -1.5334  1.7626
  484MOL0     H63837   7.327   6.347   0.478  0.4983  0.8057 -0.2197
  484MOL0     H63838   7.448   6.235   0.489  1.0473  2.7118 -0.3261
  484MOL0     H63839   7.203   6.249   0.687 -0.2779 -0.5851  0.6080
  484MOL0     H63840   7.314   6.123   0.699 -3.1440 -2.3428 -1.0263
  484MOL0     H63841   7.066   6.249   0.431  1.1734  0.8490  1.6196
  484MOL0     H63842   6.999   6.112   0.160 -2.9056  1.5898  1.3033
  484MOL0     H63843   6.881   6.012   0.259 -1.4511 -0.4670 -1.2902
  484MOL0     H63844   7.032   5.804   0.212  0.4181  0.7188  1.5871
  484MOL0     H63845   7.133   5.908   0.124 -0.6110  2.1242 -0.3971
  484MOL0     H63846   6.910   5.965  -0.018  2.4874  0.8494  0.3636
  484MOL0     H63847   7.010   5.817  -0.037 -0.9748 -1.8456  0.1741
  484MOL0     H63848   6.832   5.693   0.115 -0.7476  0.8560  1.6685
  484MOL0     H63849   6.786   5.748  -0.049  2.2159 -2.3109 -0.0494
  484MOL0     H63850   6.512   6.012   0.184 -2.8030 -1.9481  5.1956
  484MOL0     H63851   6.275   5.968   0.127 -1.4060 -0.8095  2.7216
  484MOL0     H63852   5.978   5.487   0.223  0.4035 -1.6939 -1.9168
  484MOL0     H63853   5.716   5.459   0.219 -0.6360  0.5386 -0.9069
  484MOL0     H63854   5.457   5.511   0.204  3.2401  2.0152 -0.2770
  484MOL0     H63855   5.539   5.376   0.148  0.3565  1.9386  0.8295
  484MOL0     H63856   5.369   5.358  -0.052 -2.5730 -1.0792  0.4447
  484MOL0     H63857   5.304   5.504   0.027  1.6441  1.8232  1.8791
  484MOL0     H63858   5.227   5.376   0.214  1.1431 -1.3212  0.5513
  484MOL0     H63859   5.330   5.240   0.176  1.1420 -0.6907 -1.9347
  484MOL0     H63860   5.181   5.197  -0.030  2.6231  1.6460 -0.9526
  484MOL0     H63861   5.090   5.193   0.136  0.9268 -1.2266  0.2578
  484MOL0     H63862   5.004   5.303  -0.096  0.3588 -0.2407 -0.4352
  484MOL0     H63863   5.095   5.438  -0.043  1.0383 -1.1851  1.2126
  484MOL0     H63864   4.975   5.457   0.180 -1.3739  0.1501 -0.1894
  484MOL0     H63865   4.878   5.332   0.118 -1.0268  0.4907 -2.5101
  484MOL0     H63866   4.938   5.590  -0.024 -0.5547 -0.0404 -0.6139
  484MOL0     H63867   4.824   5.471  -0.090  4.1635 -0.9069 -2.0399
  484MOL0     H63868   4.795   5.641   0.164  0.8633 -1.3594  0.7132
  484MOL0     H63869   4.677   5.503   0.124  1.2996 -1.8018  0.9619
  484MOL0     H63870   5.704   5.637  -0.163 -0.8722  0.4062  0.5895
  484MOL0     H63871   5.936   5.702  -0.145  1.2363 -0.7374  0.3204
  484MOL0     H63872   6.365   5.571  -0.005 -0.0369  0.6193  0.1033
  484MOL0     H63873   6.609   5.628   0.002 -1.8817 -0.3857 -0.6985
  484MOL0     H63874   8.304   6.516   0.946  0.8763  0.0901  0.2765
  484MOL0     H63875   8.517   6.430   1.018 -0.1057 -1.1002 -2.1052
  484MOL0     H63876   8.775   6.530   1.219  1.4382  1.3606  0.1904
  484MOL0     H63877   9.031   6.551   1.252  2.5873 -1.1105 -1.5536
  484MOL0     H63878   9.370   6.417   1.333 -0.8945 -1.2270  2.1978
  484MOL0     H63879   9.249   6.533   1.286  1.3296  0.7368 -0.4270
  484MOL0     H63880   9.197   6.394   1.086 -0.2407  3.8323  1.3716
  484MOL0     H63881   9.352   6.455   1.095  0.3270  0.5125  1.4014
  484MOL0     H63882   9.280   6.160   1.155  1.5279 -3.2702 -1.7979
  484MOL0     H63883   9.439   6.223   1.187 -1.0802 -3.7541  0.4279
  484MOL0     H63884   9.298   6.245   0.914 -0.1004  1.5658  1.0659
  484MOL0     H63885   9.469   6.257   0.941 -0.8434  1.4710 -2.1755
  484MOL0     H63886   9.436   5.829   0.959 -2.6600 -2.2020  2.3049
  484MOL0     H63887   9.021   6.155   1.413 -0.5493 -1.6475 -1.5805
  484MOL0     H63888   8.771   6.153   1.407  2.1519 -1.0057  0.2373
  485MOL0     O63889   1.735   1.280   0.601 -0.4515  0.5569  0.0021
  485MOL0     C63890   1.814   1.339   0.525  0.3878  0.1288  0.5489
  485MOL0     O63891   1.796   1.454   0.466  0.3117  0.3593  0.0590
  485MOL0     C63892   1.682   1.520   0.494  0.2846 -0.7760 -0.3416
  485MOL0     C63893   1.634   1.601   0.394 -0.1056  0.6216 -0.0584
  485MOL0     C63894   1.527   1.690   0.420 -0.3380  0.7923  0.4979
  485MOL0     C63895   1.456   1.691   0.542 -0.3890 -0.4160  0.3204
  485MOL0     O63896   1.364   1.790   0.564 -0.0745 -0.3581  0.2885
  485MOL0     C63897   1.330   1.848   0.690  0.6946  0.5588 -0.2004
  485MOL0     C63898   1.259   1.984   0.680  1.4135 -0.0814  0.6416
  485MOL0     C63899   1.116   1.977   0.602  0.4076  0.5176  0.1026
  485MOL0     C63900   1.012   1.966   0.716  0.2605 -0.8033  0.2486
  485MOL0     C63901   0.863   1.997   0.662 -0.7105 -0.4053  1.0046
  485MOL0     C63902   0.770   2.038   0.771 -0.0884 -0.1798 -0.5230
  485MOL0     C63903   0.628   2.034   0.725  0.5042  0.4753 -0.4554
  485MOL0     C63904   0.578   2.164   0.661  0.8745  0.2856  0.4354
  485MOL0     N63905   0.449   2.126   0.607 -0.4224 -0.1923 -0.4938
  485MOL0     C63906   0.330   2.128   0.683  0.1728 -0.2023  0.5202
  485MOL0     C63907   0.237   2.088   0.593 -0.3221 -0.1393 -0.1571
  485MOL0     C63908   0.092   2.080   0.636 -0.6167 -0.2001  0.6880
  485MOL0     C63909   0.061   1.935   0.676  0.4271  0.9441  0.4977
  485MOL0     C63910  -0.094   1.939   0.704  0.2628  0.0253  0.1933
  485MOL0     C63911  -0.137   1.798   0.750 -0.0080  0.5134  0.4714
  485MOL0     O63912  -0.283   1.797   0.749  0.6925 -0.5901 -0.1631
  485MOL0     C63913  -0.343   1.676   0.763 -0.5554 -0.3181  0.2452
  485MOL0     C63914  -0.476   1.672   0.729  1.6950 -0.3893  0.0900
  485MOL0     C63915  -0.554   1.555   0.734  0.3932  0.3863  0.0644
  485MOL0     C63916  -0.491   1.438   0.785 -0.3040  0.4061  0.3083
  485MOL0     C63917  -0.568   1.306   0.783  0.2613 -0.3583  0.3052
  485MOL0     O63918  -0.673   1.306   0.687 -0.0564 -0.1242 -0.7396
  485MOL0     C63919  -0.784   1.224   0.697  0.0144 -0.2573 -0.1524
  485MOL0     C63920  -0.821   1.163   0.818  1.4723 -1.2457  0.4039
  485MOL0     C63921  -0.937   1.083   0.819 -0.4454 -0.7542  0.0975
  485MOL0     C63922  -1.030   1.079   0.716 -0.6748 -0.0366 -0.0068
  485MOL0     O63923  -1.154   1.017   0.720  0.8351  0.1139 -0.6948
  485MOL0     C63924  -1.187   0.924   0.614  0.0675 -0.1716  0.0141
  485MOL0     C63925  -1.333   0.886   0.620 -0.3709 -0.1611  1.7729
  485MOL0     C63926  -1.369   0.781   0.511  0.0418  0.9110  0.3523
  485MOL0     C63927  -1.513   0.738   0.522  0.5422  0.2507 -0.1262
  485MOL0     C63928  -1.549   0.659   0.393  0.3803  0.2645  0.3897
  485MOL0     C63929  -1.504   0.514   0.382 -0.5216 -0.1091 -0.4099
  485MOL0     C63930  -1.533   0.453   0.246  0.0147  0.2181 -0.6695
  485MOL0     C63931  -1.476   0.319   0.225 -0.5966 -0.5990  0.2650
  485MOL0    Cl63932  -1.509   0.260   0.056 -0.5087 -0.3624 -0.2844
  485MOL0     C63933  -0.993   1.151   0.598 -0.1847 -0.0139 -0.6007
  485MOL0     C63934  -0.867   1.210   0.582  0.3167 -0.3911  0.2824
  485MOL0     O63935  -0.537   1.222   0.865 -0.6147 -0.0695  0.5851
  485MOL0     C63936  -0.356   1.449   0.835 -0.0056 -0.5417 -0.2261
  485MOL0     C63937  -0.287   1.567   0.815 -0.5228  0.3731  0.4293
  485MOL0     N63938   0.296   2.076   0.472  0.1558  0.0717  0.1853
  485MOL0     N63939   0.420   2.093   0.481  0.4375  0.9755 -0.4176
  485MOL0     C63940   1.504   1.604   0.640  0.4359 -0.1821  0.0802
  485MOL0     C63941   1.620   1.520   0.625  0.8463  0.2831 -0.1631
  485MOL0     C63942   1.947   1.271   0.491  0.0082  0.7654 -0.9652
  485MOL0     C63943   2.035   1.326   0.395  0.2703 -0.3297 -0.6814
  485MOL0     C63944   2.150   1.257   0.354  0.2145  0.7922  0.1410
  485MOL0     C63945   2.202   1.162   0.437 -0.1132 -0.6288 -0.2404
  485MOL0     O63946   2.320   1.099   0.418 -0.5480  0.2767 -0.3754
  485MOL0     C63947   2.426   1.180   0.366 -0.2700 -0.5378 -0.5184
  485MOL0     C63948   2.560   1.113   0.393  0.1734  0.0086 -0.1186
  485MOL0     C63949   2.689   1.182   0.339 -0.0846 -0.3390 -0.7163
  485MOL0     C63950   2.811   1.099   0.373 -0.0073 -0.4603 -0.0708
  485MOL0     C63951   2.812   0.993   0.273 -0.1717 -0.1525  0.6988
  485MOL0     C63952   2.829   0.916   0.184  0.6364  0.6784 -0.1390
  485MOL0     C63953   2.124   1.118   0.540  0.0609 -0.5525 -0.3060
  485MOL0     C63954   1.990   1.166   0.563 -0.2697 -0.5242 -0.5482
  485MOL0     H63955   1.676   1.618   0.296 -0.0350  0.0448 -0.1312
  485MOL0     H63956   1.507   1.766   0.345  1.7471  2.4698  1.5221
  485MOL0     H63957   1.422   1.852   0.750  0.8511 -0.2075 -0.3716
  485MOL0     H63958   1.264   1.783   0.749 -0.8483  1.5380 -0.7939
  485MOL0     H63959   1.322   2.043   0.612 -0.5222  2.0089  0.5360
  485MOL0     H63960   1.256   2.049   0.768 -0.9744  1.3053 -0.3752
  485MOL0     H63961   1.112   1.888   0.538 -0.6136  0.0752  0.7540
  485MOL0     H63962   1.101   2.069   0.545 -2.0957  1.7139  2.4411
  485MOL0     H63963   1.023   1.871   0.769  1.4533 -0.6525  0.3021
  485MOL0     H63964   1.027   2.054   0.780 -2.0361  0.5732 -0.9780
  485MOL0     H63965   0.822   1.915   0.603  0.0838  0.0657 -0.2501
  485MOL0     H63966   0.866   2.089   0.603 -4.3403 -0.9342 -0.2179
  485MOL0     H63967   0.786   2.139   0.809 -1.9847 -0.0145 -0.0473
  485MOL0     H63968   0.778   1.965   0.852 -2.2138  0.7927  0.6643
  485MOL0     H63969   0.603   1.948   0.661 -0.8538 -0.9459  1.8361
  485MOL0     H63970   0.571   2.008   0.815 -1.8034 -0.1968 -2.0100
  485MOL0     H63971   0.636   2.200   0.575  0.7014 -1.8326 -0.6420
  485MOL0     H63972   0.567   2.242   0.737  2.3969 -1.9835  3.2066
  485MOL0     H63973   0.327   2.148   0.789  1.5924  0.3718  0.4819
  485MOL0     H63974   0.014   2.109   0.564 -0.8249 -1.2802  0.4556
  485MOL0     H63975   0.095   2.149   0.721  2.9387 -1.2625  1.5612
  485MOL0     H63976   0.126   1.903   0.759 -1.7386 -1.6200  1.3512
  485MOL0     H63977   0.074   1.865   0.594 -0.6962  3.3584 -1.8779
  485MOL0     H63978  -0.128   2.022   0.767 -0.2539  0.2825 -0.4156
  485MOL0     H63979  -0.139   1.953   0.605 -0.8681 -0.5728  0.6061
  485MOL0     H63980  -0.107   1.787   0.854  2.0267  2.8274  0.2293
  485MOL0     H63981  -0.091   1.723   0.685  0.4711  1.4351 -0.2927
  485MOL0     H63982  -0.521   1.757   0.679  3.0125 -0.8574 -2.0461
  485MOL0     H63983  -0.659   1.561   0.708  0.6829  1.4980 -0.9568
  485MOL0     H63984  -0.781   1.182   0.917 -2.1293  1.4834  1.5812
  485MOL0     H63985  -0.966   1.020   0.902 -3.3933 -2.1422 -1.7912
  485MOL0     H63986  -1.127   0.836   0.641  0.4518  0.5341  1.5603
  485MOL0     H63987  -1.166   0.956   0.512  0.7135 -1.4349 -0.2673
  485MOL0     H63988  -1.390   0.977   0.597  2.9542  2.1324  1.9831
  485MOL0     H63989  -1.363   0.866   0.723 -2.9028  4.1517  2.1353
  485MOL0     H63990  -1.308   0.691   0.527 -0.8159  0.4378  1.0802
  485MOL0     H63991  -1.346   0.820   0.412  3.0667  1.9371  1.3679
  485MOL0     H63992  -1.539   0.687   0.615 -0.1893  0.6223 -0.1188
  485MOL0     H63993  -1.575   0.828   0.524  1.3121  0.8656 -1.6807
  485MOL0     H63994  -1.523   0.718   0.304 -1.1472 -0.1732 -0.3697
  485MOL0     H63995  -1.657   0.657   0.379  0.6752  0.2450 -2.6928
  485MOL0     H63996  -1.553   0.451   0.456  1.6381  0.0085  1.2005
  485MOL0     H63997  -1.401   0.516   0.417 -0.3769  2.7465 -0.8116
  485MOL0     H63998  -1.642   0.447   0.235 -0.0271 -1.9324  0.4307
  485MOL0     H63999  -1.505   0.513   0.159  1.4758 -0.8195 -0.9452
  485MOL0     H64000  -1.533   0.256   0.294  0.8890 -2.1770  0.1291
  485MOL0     H64001  -1.369   0.319   0.245 -0.2964  0.1716 -1.2274
  485MOL0     H64002  -1.067   1.147   0.518 -2.8429 -1.6824  1.7492
  485MOL0     H64003  -0.850   1.248   0.482 -2.5521 -2.2727 -1.0688
  485MOL0     H64004  -0.312   1.361   0.883 -2.3677 -0.0645  3.1750
  485MOL0     H64005  -0.180   1.565   0.832 -0.2319  1.0373 -1.1230
  485MOL0     H64006   1.447   1.593   0.732  1.1753  2.1076  0.8866
  485MOL0     H64007   1.650   1.453   0.705 -2.6102 -2.4100 -0.8547
  485MOL0     H64008   2.013   1.409   0.328 -3.0431 -0.9460 -0.5224
  485MOL0     H64009   2.201   1.291   0.265 -1.1752 -0.8978 -1.3924
  485MOL0     H64010   2.433   1.278   0.413 -0.2786 -1.7417  2.2415
  485MOL0     H64011   2.411   1.193   0.259 -1.7313  0.0148 -0.2692
  485MOL0     H64012   2.565   1.111   0.502  0.9801  1.8064 -0.0918
  485MOL0     H64013   2.553   1.009   0.360  0.5293 -0.2457  0.5876
  485MOL0     H64014   2.702   1.280   0.387  1.3465 -1.1119  0.5667
  485MOL0     H64015   2.680   1.195   0.231 -1.1988 -1.2580 -0.7586
  485MOL0     H64016   2.903   1.154   0.352  1.8439 -2.7209  1.5827
  485MOL0     H64017   2.817   1.067   0.477 -1.0197  1.5011  0.6390
  485MOL0     H64018   2.848   0.854   0.099  1.0649  0.5488  0.0515
  485MOL0     H64019   2.177   1.048   0.604  2.5109  0.4720 -1.1088
  485MOL0     H64020   1.920   1.125   0.635 -1.9879  0.3168 -1.6595
  486MOL0     O64021  10.495   9.062   2.175  0.0388  0.4793  0.0292
  486MOL0     C64022  10.508   8.965   2.094  0.4955  0.2847  0.9789
  486MOL0     O64023  10.404   8.883   2.049  0.0644 -0.2477  0.6809
  486MOL0     C64024  10.282   8.887   2.117  0.4217  1.0573 -0.8456
  486MOL0     C64025  10.261   8.812   2.237  0.2868 -0.0101  0.7619
  486MOL0     C64026  10.140   8.813   2.306 -0.1894 -0.1517  0.1481
  486MOL0     C64027  10.036   8.899   2.263 -0.0521 -0.5217  1.3220
  486MOL0     O64028   9.921   8.935   2.325  0.2818  0.3793  0.7596
  486MOL0     C64029   9.854   8.831   2.399  0.5805 -0.1811 -0.5485
  486MOL0     C64030   9.699   8.846   2.406 -0.3519  0.8321 -0.5668
  486MOL0     C64031   9.640   8.803   2.274 -0.0080  1.5368 -0.0044
  486MOL0     C64032   9.492   8.836   2.271 -0.5939  0.3330  0.0085
  486MOL0     C64033   9.446   8.794   2.128 -0.7432 -0.7906 -0.2072
  486MOL0     C64034   9.420   8.640   2.111 -0.6676 -0.0876  0.2659
  486MOL0     C64035   9.317   8.579   2.214  0.6441  0.2263 -0.6922
  486MOL0     C64036   9.174   8.622   2.208  0.0220  0.6087  0.5657
  486MOL0     N64037   9.099   8.566   2.324 -0.0607  0.3482 -0.4710
  486MOL0     C64038   8.968   8.565   2.333  0.4410 -0.1712  0.5153
  486MOL0     C64039   8.936   8.475   2.431 -0.3307 -0.2956 -0.1779
  486MOL0     C64040   8.808   8.440   2.503  0.4739 -0.4749  0.2626
  486MOL0     C64041   8.781   8.287   2.504  0.2557  0.4551  0.0153
  486MOL0     C64042   8.671   8.248   2.609 -0.2983 -0.4023 -0.5038
  486MOL0     C64043   8.537   8.280   2.551 -0.7994  0.1027  0.0559
  486MOL0     O64044   8.504   8.418   2.561  0.1563  0.1878  0.6383
  486MOL0     C64045   8.367   8.436   2.584  0.0826 -0.4962 -0.6525
  486MOL0     C64046   8.308   8.439   2.715  0.1975  0.1530 -0.1235
  486MOL0     C64047   8.171   8.444   2.735  0.1563  0.4788  0.0191
  486MOL0     C64048   8.084   8.449   2.616  0.3249 -0.3127 -0.1894
  486MOL0     C64049   7.943   8.463   2.645  0.2319  0.0584 -0.5087
  486MOL0     O64050   7.861   8.485   2.546  0.3930  0.1178 -0.0710
  486MOL0     C64051   7.741   8.538   2.591 -0.7059 -1.1397  0.4135
  486MOL0     C64052   7.736   8.668   2.663  0.1499 -0.2387 -1.1099
  486MOL0     C64053   7.617   8.724   2.687  0.4937 -0.3928 -0.9753
  486MOL0     C64054   7.497   8.672   2.650  0.4191  0.3975 -0.0537
  486MOL0     O64055   7.380   8.738   2.693 -0.2923  0.0189  0.3510
  486MOL0     C64056   7.259   8.728   2.618  0.1682  0.7764  0.4137
  486MOL0     C64057   7.184   8.608   2.668  0.0705 -0.1851  0.9373
  486MOL0     C64058   7.070   8.556   2.579 -0.4943  0.1680 -0.0200
  486MOL0     C64059   6.932   8.603   2.609  0.0035 -0.6031 -0.2332
  486MOL0     C64060   6.825   8.543   2.521  0.3641 -0.1035 -0.0438
  486MOL0     C64061   6.696   8.630   2.523 -0.3136 -0.0241  0.4416
  486MOL0     C64062   6.596   8.577   2.422  0.4977 -0.6720 -0.1653
  486MOL0     C64063   6.511   8.462   2.472 -1.3916  0.3215 -0.7038
  486MOL0    Cl64064   6.409   8.395   2.349 -0.0916 -0.4537 -0.0836
  486MOL0     C64065   7.496   8.562   2.558  0.3745 -0.8743 -0.6353
  486MOL0     C64066   7.624   8.505   2.522 -0.1612 -0.3221  0.2984
  486MOL0     O64067   7.912   8.441   2.763  0.2868  0.4845  0.2069
  486MOL0     C64068   8.143   8.446   2.484 -0.6719 -0.9489 -0.5785
  486MOL0     C64069   8.284   8.439   2.470  0.2843  0.6007 -0.0886
  486MOL0     N64070   9.057   8.436   2.485  0.2658 -0.7202 -0.2637
  486MOL0     N64071   9.151   8.487   2.424 -0.8036 -0.1838 -0.0130
  486MOL0     C64072  10.056   8.971   2.147  0.1742 -0.0100 -0.0651
  486MOL0     C64073  10.177   8.962   2.073  0.3716 -0.2131 -0.3927
  486MOL0     C64074  10.648   8.927   2.062  0.2602 -0.5153 -0.3737
  486MOL0     C64075  10.667   8.822   1.979 -0.6542 -0.0988  0.3256
  486MOL0     C64076  10.796   8.775   1.942 -0.2926 -0.4950 -0.1857
  486MOL0     C64077  10.906   8.847   1.991 -0.3163 -0.0554  0.9583
  486MOL0     O64078  11.032   8.800   1.942  0.2339 -1.1096  0.5273
  486MOL0     C64079  11.152   8.857   1.996 -0.6156 -0.2125 -0.1628
  486MOL0     C64080  11.266   8.767   1.954  0.1672 -0.0868  0.1205
  486MOL0     C64081  11.324   8.791   1.808  1.0100  0.7281  1.0775
  486MOL0     C64082  11.436   8.701   1.770 -0.5554  0.7267 -0.0007
  486MOL0     C64083  11.544   8.692   1.864 -0.6174  0.3436  0.0876
  486MOL0     C64084  11.631   8.684   1.943  0.0170 -0.4762  0.6951
  486MOL0     C64085  10.892   8.964   2.076 -0.3757  0.6663 -0.4339
  486MOL0     C64086  10.762   8.996   2.110  0.1415 -0.0755  0.3099
  486MOL0     H64087  10.337   8.746   2.277 -1.3960 -1.1569  2.2364
  486MOL0     H64088  10.141   8.747   2.392  0.2068  1.2843  1.2970
  486MOL0     H64089   9.900   8.824   2.498 -0.3239 -0.8757 -0.1639
  486MOL0     H64090   9.888   8.738   2.353  2.8089  1.4606 -2.4601
  486MOL0     H64091   9.668   8.949   2.428 -1.9599 -0.2874  3.0087
  486MOL0     H64092   9.655   8.790   2.489  0.2801  0.3141 -0.5688
  486MOL0     H64093   9.668   8.697   2.268 -1.3949  1.1348  0.3710
  486MOL0     H64094   9.687   8.861   2.194  1.7087  1.1252  0.6590
  486MOL0     H64095   9.445   8.778   2.351 -0.7448 -0.4970 -0.6770
  486MOL0     H64096   9.480   8.942   2.296  1.5969  0.6643 -0.2008
  486MOL0     H64097   9.519   8.838   2.061  0.6465  1.0867  2.3503
  486MOL0     H64098   9.350   8.844   2.112  0.2419  0.4896 -2.5595
  486MOL0     H64099   9.517   8.590   2.116  0.1977  1.6045  3.3608
  486MOL0     H64100   9.373   8.624   2.014  1.6559  0.1199 -0.9498
  486MOL0     H64101   9.300   8.472   2.202 -4.1778  0.6082  0.4687
  486MOL0     H64102   9.351   8.591   2.317 -1.8806 -0.7298  0.3372
  486MOL0     H64103   9.128   8.599   2.111  0.1241  0.3650  0.5762
  486MOL0     H64104   9.159   8.731   2.211  1.3379  0.8428 -0.3732
  486MOL0     H64105   8.905   8.633   2.278  3.3940  2.2253 -0.1371
  486MOL0     H64106   8.725   8.495   2.456  0.6212 -0.5087 -0.0342
  486MOL0     H64107   8.813   8.472   2.608  0.0077  2.5555 -0.5373
  486MOL0     H64108   8.870   8.229   2.529  0.5244  1.0450  0.4608
  486MOL0     H64109   8.751   8.242   2.409  1.6694 -0.3949 -0.0494
  486MOL0     H64110   8.675   8.143   2.637  1.4387  0.6393  3.9225
  486MOL0     H64111   8.682   8.297   2.706 -1.0245  0.5746 -0.8949
  486MOL0     H64112   8.461   8.229   2.610 -1.5199 -0.6250 -1.4470
  486MOL0     H64113   8.528   8.237   2.451  0.6690  0.2000 -0.1373
  486MOL0     H64114   8.376   8.423   2.798  0.6610  1.5053 -0.2144
  486MOL0     H64115   8.137   8.441   2.838  3.3167  1.0550  1.1877
  486MOL0     H64116   7.829   8.712   2.698  0.4019 -0.3502 -1.6291
  486MOL0     H64117   7.615   8.815   2.745  2.0735 -1.2877  0.5633
  486MOL0     H64118   7.269   8.726   2.509 -2.2443  0.4302  0.1512
  486MOL0     H64119   7.199   8.818   2.632  0.6088  1.1839 -0.2652
  486MOL0     H64120   7.130   8.631   2.760  0.4160 -1.0600  1.3648
  486MOL0     H64121   7.258   8.534   2.698  1.5224  1.3006  1.2144
  486MOL0     H64122   7.063   8.448   2.599 -0.6418 -0.1333 -1.5838
  486MOL0     H64123   7.091   8.576   2.473 -1.8375  0.2942 -0.2863
  486MOL0     H64124   6.909   8.589   2.715 -1.8033  0.1555 -0.4860
  486MOL0     H64125   6.930   8.711   2.594 -3.0819 -0.6317 -0.5055
  486MOL0     H64126   6.802   8.446   2.566  0.9856  1.5970  4.5112
  486MOL0     H64127   6.863   8.535   2.419 -0.4686  2.0602 -0.5667
  486MOL0     H64128   6.722   8.733   2.495 -1.2219 -0.4898 -2.5134
  486MOL0     H64129   6.656   8.623   2.624 -1.5646  0.7979  0.0260
  486MOL0     H64130   6.535   8.661   2.389  3.2645  0.5773 -2.4880
  486MOL0     H64131   6.644   8.551   2.327 -1.6449  0.1153 -1.5478
  486MOL0     H64132   6.438   8.491   2.549 -0.2836  0.0127  0.5076
  486MOL0     H64133   6.573   8.383   2.515 -0.2413  0.8980 -1.2776
  486MOL0     H64134   7.407   8.515   2.517 -0.0749 -1.2956  0.7526
  486MOL0     H64135   7.636   8.423   2.452  0.4247 -2.0506  2.3289
  486MOL0     H64136   8.080   8.456   2.396  0.3811 -0.4858 -1.3103
  486MOL0     H64137   8.322   8.446   2.369  1.2445  3.1870  0.3639
  486MOL0     H64138   9.969   9.025   2.111 -0.7119 -0.5218  1.2640
  486MOL0     H64139  10.177   9.023   1.983  1.6363  1.5221  0.7110
  486MOL0     H64140  10.582   8.770   1.938 -1.6115 -1.6279  3.8615
  486MOL0     H64141  10.810   8.696   1.869 -0.8855 -0.1406 -0.6899
  486MOL0     H64142  11.143   8.855   2.105 -0.4104 -2.0170 -0.1436
  486MOL0     H64143  11.166   8.959   1.960  0.7576 -0.3914 -0.1849
  486MOL0     H64144  11.333   8.787   2.038 -0.5671  0.9359  0.4738
  486MOL0     H64145  11.249   8.660   1.965  3.2380 -0.8463 -1.3162
  486MOL0     H64146  11.357   8.895   1.809 -0.4014  1.2004  0.5751
  486MOL0     H64147  11.252   8.798   1.726  2.7082  2.3909 -0.3373
  486MOL0     H64148  11.390   8.602   1.761  2.1747 -0.5928 -0.6562
  486MOL0     H64149  11.477   8.733   1.674  2.1930  3.1063  1.7970
  486MOL0     H64150  11.716   8.692   2.009  0.7099  1.2902 -0.3145
  486MOL0     H64151  10.974   9.026   2.111 -0.8985  0.4400  1.2954
  486MOL0     H64152  10.746   9.082   2.174  2.4455  0.4505  0.2620
  487MOL0     O64153  10.355   2.238   3.287  0.1259  0.0384 -0.4227
  487MOL0     C64154  10.460   2.280   3.337 -0.4901 -0.9716  0.4540
  487MOL0     O64155  10.479   2.334   3.465 -0.4279 -0.0248  0.0512
  487MOL0     C64156  10.361   2.372   3.522  0.7649 -0.4712  0.1453
  487MOL0     C64157  10.346   2.344   3.659  0.0096  0.9000  0.3655
  487MOL0     C64158  10.227   2.364   3.731 -0.2311 -0.1750 -0.3982
  487MOL0     C64159  10.123   2.427   3.670  0.3642  0.3813  0.5630
  487MOL0     O64160  10.016   2.447   3.749  0.1006  0.9061  0.4873
  487MOL0     C64161   9.879   2.451   3.696 -1.1163 -0.1874 -0.0478
  487MOL0     C64162   9.789   2.439   3.813  0.2797 -0.7283  0.3258
  487MOL0     C64163   9.642   2.461   3.756 -0.3522 -0.2126 -0.0400
  487MOL0     C64164   9.555   2.336   3.767 -0.3758  0.3386  0.1567
  487MOL0     C64165   9.412   2.338   3.729  0.3653  0.3474  0.8091
  487MOL0     C64166   9.332   2.419   3.825  0.4610  0.8717 -0.0110
  487MOL0     C64167   9.178   2.397   3.806 -0.6175  0.0238  0.2657
  487MOL0     C64168   9.101   2.499   3.891  0.2808  0.2904  0.5868
  487MOL0     N64169   8.954   2.466   3.879  0.1421 -0.5870  0.5099
  487MOL0     C64170   8.880   2.408   3.976  1.0689 -0.3727 -0.0725
  487MOL0     C64171   8.762   2.373   3.923  0.3408 -0.2040  0.3384
  487MOL0     C64172   8.652   2.287   3.989  1.0687 -0.0964  0.0367
  487MOL0     C64173   8.593   2.193   3.883  0.0071 -0.1449 -0.2944
  487MOL0     C64174   8.472   2.110   3.934 -0.6989  0.5308  0.8287
  487MOL0     C64175   8.340   2.164   3.921  0.4721 -0.7892  0.1702
  487MOL0     O64176   8.252   2.065   3.984 -0.6054  1.0313 -0.0989
  487MOL0     C64177   8.121   2.087   3.984 -0.2432  0.3006 -0.0622
  487MOL0     C64178   8.032   1.988   4.013  0.2070 -0.6099  0.3827
  487MOL0     C64179   7.893   2.006   4.004 -0.7121 -0.2013  0.7997
  487MOL0     C64180   7.838   2.126   3.951  0.1421  0.6631 -0.5025
  487MOL0     C64181   7.695   2.132   3.944  1.0979 -0.2701 -0.2481
  487MOL0     O64182   7.648   2.262   3.930 -0.1342 -0.0338  0.5821
  487MOL0     C64183   7.523   2.299   3.890  0.0380  0.0438 -0.7994
  487MOL0     C64184   7.401   2.242   3.933  0.8471 -0.1163 -0.7433
  487MOL0     C64185   7.286   2.295   3.882  0.2646  0.0032 -0.9284
  487MOL0     C64186   7.283   2.387   3.784 -0.0138  0.1989 -0.4607
  487MOL0     O64187   7.161   2.449   3.750  0.5599  0.4490 -0.1102
  487MOL0     C64188   7.152   2.578   3.679 -0.2132  0.4026 -0.0686
  487MOL0     C64189   7.007   2.594   3.635  0.3531 -0.1798  0.5099
  487MOL0     C64190   6.900   2.600   3.746 -0.5981 -0.5492  1.1729
  487MOL0     C64191   6.767   2.638   3.678 -0.1452  0.0379 -0.3373
  487MOL0     C64192   6.701   2.517   3.601 -0.6730  0.5012  0.3348
  487MOL0     C64193   6.546   2.524   3.630  0.4997  0.3140 -0.9159
  487MOL0     C64194   6.454   2.426   3.546  0.8569 -0.0669  0.3456
  487MOL0     C64195   6.304   2.463   3.559  1.1399  0.5456  0.2910
  487MOL0    Cl64196   6.269   2.433   3.728  0.4171 -0.1834 -0.0517
  487MOL0     C64197   7.401   2.439   3.738 -0.0236  0.0582 -0.3044
  487MOL0     C64198   7.518   2.398   3.795 -0.2209  0.6944  0.0008
  487MOL0     O64199   7.623   2.032   3.941  0.3949 -0.3496 -0.3297
  487MOL0     C64200   7.924   2.233   3.914  0.9115  0.1617  0.7752
  487MOL0     C64201   8.060   2.212   3.929 -0.4664  0.1160 -0.6286
  487MOL0     N64202   8.756   2.433   3.796 -0.1105  0.1820  0.2065
  487MOL0     N64203   8.868   2.485   3.768 -0.2012  0.4110 -0.0536
  487MOL0     C64204  10.141   2.464   3.532  0.3207  0.1780 -0.0749
  487MOL0     C64205  10.248   2.428   3.458 -0.3888  0.0490  0.3593
  487MOL0     C64206  10.580   2.260   3.257 -0.7159 -0.3561  0.1946
  487MOL0     C64207  10.578   2.178   3.133 -0.4771 -0.0585  0.8487
  487MOL0     C64208  10.704   2.141   3.071  0.8856 -0.1728 -0.5810
  487MOL0     C64209  10.824   2.200   3.116 -0.6371 -0.0011 -0.0604
  487MOL0     O64210  10.952   2.178   3.053 -0.0962  0.3696 -0.0521
  487MOL0     C64211  10.944   2.092   2.943 -0.0326 -0.3027 -0.1324
  487MOL0     C64212  11.084   2.080   2.883 -0.1518  0.1984  0.7431
  487MOL0     C64213  11.091   1.953   2.791  0.3477  0.0339 -0.4095
  487MOL0     C64214  10.994   1.962   2.669 -0.6359  0.3814 -0.2815
  487MOL0     C64215  11.060   1.880   2.568 -0.0959  0.1640  0.1565
  487MOL0     C64216  11.134   1.849   2.475  0.9672 -0.2433 -0.4270
  487MOL0     C64217  10.824   2.273   3.233  0.4571  0.4628  0.2507
  487MOL0     C64218  10.709   2.299   3.311  0.0011  0.2543 -0.2417
  487MOL0     H64219  10.430   2.293   3.706  0.3698  0.5222 -0.6523
  487MOL0     H64220  10.227   2.348   3.839  0.4096  2.3369  0.0359
  487MOL0     H64221   9.861   2.374   3.621 -0.4901  0.7435 -1.2006
  487MOL0     H64222   9.864   2.551   3.654  1.4558  0.2928  0.0234
  487MOL0     H64223   9.818   2.509   3.892 -1.1160  0.6250 -0.3198
  487MOL0     H64224   9.802   2.337   3.851  0.4711 -1.6505 -2.0396
  487MOL0     H64225   9.649   2.472   3.648  2.0698  1.9689  0.2488
  487MOL0     H64226   9.590   2.550   3.793 -2.5066 -1.5113  0.2519
  487MOL0     H64227   9.584   2.249   3.707 -5.4383 -3.3914  2.3291
  487MOL0     H64228   9.560   2.296   3.869  3.0535 -3.2003 -1.1284
  487MOL0     H64229   9.377   2.234   3.732  0.1786  0.3515 -0.7466
  487MOL0     H64230   9.400   2.381   3.629 -1.5614  1.7902  1.6142
  487MOL0     H64231   9.364   2.523   3.825 -1.3638  1.4874 -1.7444
  487MOL0     H64232   9.353   2.376   3.924  0.1611 -0.5281 -0.5327
  487MOL0     H64233   9.148   2.405   3.701 -0.6455 -1.5575  0.1229
  487MOL0     H64234   9.163   2.295   3.842 -0.1471  0.0925  0.6814
  487MOL0     H64235   9.114   2.605   3.870 -0.0794  0.3557  0.6904
  487MOL0     H64236   9.129   2.476   3.994  2.2077 -2.1992 -0.3831
  487MOL0     H64237   8.902   2.400   4.082 -3.3836  3.0023  1.3790
  487MOL0     H64238   8.573   2.345   4.037  0.9564  0.5462 -0.8823
  487MOL0     H64239   8.695   2.225   4.068 -1.9171 -1.6813  0.5340
  487MOL0     H64240   8.679   2.127   3.869  1.4120  1.2947  1.1613
  487MOL0     H64241   8.570   2.239   3.787 -4.8048  0.2616  0.7978
  487MOL0     H64242   8.475   2.013   3.882 -0.9433 -2.5653  5.8728
  487MOL0     H64243   8.486   2.088   4.041  0.7539  0.1923  0.5993
  487MOL0     H64244   8.310   2.188   3.818 -2.4408  1.6449  1.4269
  487MOL0     H64245   8.329   2.254   3.982 -0.4613 -1.5840  1.2370
  487MOL0     H64246   8.080   1.902   4.057  1.7463  0.8601  1.7229
  487MOL0     H64247   7.838   1.916   4.029 -0.5752  0.0426  2.0516
  487MOL0     H64248   7.389   2.163   4.006  0.3686  0.3668 -0.2839
  487MOL0     H64249   7.200   2.255   3.935  1.9755 -1.0651  1.1813
  487MOL0     H64250   7.228   2.585   3.601  0.6520  4.5752  0.9196
  487MOL0     H64251   7.163   2.657   3.753 -2.4415 -0.2002  0.9928
  487MOL0     H64252   6.982   2.503   3.580 -1.1530  0.6661 -0.2595
  487MOL0     H64253   6.999   2.681   3.569 -0.6233  0.5210  1.5084
  487MOL0     H64254   6.913   2.675   3.824 -4.7847 -0.8772  2.4112
  487MOL0     H64255   6.902   2.508   3.805 -0.5735 -1.4484 -0.1813
  487MOL0     H64256   6.712   2.681   3.762  4.0934  0.3460  2.6077
  487MOL0     H64257   6.778   2.723   3.610 -2.2856  0.3707 -0.3361
  487MOL0     H64258   6.748   2.426   3.641 -1.7072 -1.0726 -1.7783
  487MOL0     H64259   6.727   2.515   3.494  0.1914 -1.0549  0.5275
  487MOL0     H64260   6.525   2.630   3.613  0.0782  0.6967  1.5781
  487MOL0     H64261   6.541   2.507   3.738  4.2511 -2.3595 -0.9843
  487MOL0     H64262   6.479   2.420   3.439 -0.2066 -1.5223  0.1487
  487MOL0     H64263   6.476   2.326   3.586  1.6400  0.4812  1.3323
  487MOL0     H64264   6.257   2.392   3.492 -1.1611  0.6019  1.7433
  487MOL0     H64265   6.285   2.565   3.525 -1.3419  0.3543  0.9322
  487MOL0     H64266   7.411   2.511   3.658 -0.1147 -0.4640 -0.7958
  487MOL0     H64267   7.605   2.453   3.761 -1.3860  1.8734 -1.2267
  487MOL0     H64268   7.886   2.326   3.873  0.4256 -0.5257 -0.4063
  487MOL0     H64269   8.126   2.294   3.901 -0.4881 -0.6770 -3.3816
  487MOL0     H64270  10.067   2.509   3.466  0.2073  1.0437  0.6294
  487MOL0     H64271  10.248   2.449   3.352  0.0903  2.0055  0.7060
  487MOL0     H64272  10.488   2.145   3.082 -0.6288  1.9319 -0.2944
  487MOL0     H64273  10.691   2.083   2.980 -1.4865 -1.2791  0.3783
  487MOL0     H64274  10.879   2.134   2.866  0.0983 -1.0968 -0.6905
  487MOL0     H64275  10.908   1.991   2.966  2.7107 -1.4174 -0.3788
  487MOL0     H64276  11.118   2.173   2.836 -0.2186 -0.2962 -0.3227
  487MOL0     H64277  11.159   2.063   2.961  1.1825  1.8135 -0.1367
  487MOL0     H64278  11.067   1.872   2.860 -1.2253 -0.1627 -1.1475
  487MOL0     H64279  11.194   1.939   2.758  0.8931  2.5323 -0.0144
  487MOL0     H64280  10.901   1.911   2.694  0.6791 -2.9378 -1.5836
  487MOL0     H64281  10.982   2.065   2.632 -0.9343  0.3362 -0.3059
  487MOL0     H64282  11.204   1.816   2.402 -0.4198  0.3526 -2.0979
  487MOL0     H64283  10.922   2.309   3.264  0.3611  1.5341 -0.6714
  487MOL0     H64284  10.729   2.344   3.408 -1.0529  0.7601 -0.2422
  488MOL0     O64285   4.590   3.084   4.609 -0.3737 -0.3667  0.6472
  488MOL0     C64286   4.608   3.114   4.490 -0.7887  0.1798  0.1447
  488MOL0     O64287   4.514   3.110   4.396  0.1756  0.4677  0.0468
  488MOL0     C64288   4.388   3.069   4.440  0.6447 -0.1833  0.1170
  488MOL0     C64289   4.272   3.151   4.417 -0.0153  0.0748  0.3881
  488MOL0     C64290   4.145   3.102   4.457  0.2161  0.3409  0.2911
  488MOL0     C64291   4.130   2.975   4.512 -0.2717 -0.0619 -0.0788
  488MOL0     O64292   4.007   2.926   4.558 -0.4597  0.7574  0.6065
  488MOL0     C64293   3.899   3.019   4.576  0.7520  0.4986 -0.7524
  488MOL0     C64294   3.821   3.035   4.449 -0.4206 -0.7186 -0.1065
  488MOL0     C64295   3.764   2.899   4.406  0.4800 -0.4005 -0.5274
  488MOL0     C64296   3.674   2.920   4.292  0.5748  0.3039 -0.2415
  488MOL0     C64297   3.569   2.807   4.275 -0.2834  0.3828  0.0739
  488MOL0     C64298   3.482   2.823   4.152  0.4126 -0.0898 -0.2156
  488MOL0     C64299   3.436   2.684   4.117 -0.8724  0.2729  0.9236
  488MOL0     C64300   3.330   2.688   4.014 -0.9957 -0.1033 -0.2081
  488MOL0     N64301   3.195   2.708   4.061  0.0585 -0.9495 -0.3778
  488MOL0     C64302   3.106   2.620   4.089  0.6478 -0.1315  0.8524
  488MOL0     C64303   2.989   2.679   4.099 -0.4391 -1.0774 -0.4300
  488MOL0     C64304   2.858   2.605   4.131  0.8208  0.1260  0.4462
  488MOL0     C64305   2.742   2.688   4.073 -0.0227 -0.7288  0.6308
  488MOL0     C64306   2.604   2.656   4.129 -0.2744 -0.2724  0.2829
  488MOL0     C64307   2.559   2.514   4.113  0.3368 -0.7048  0.5421
  488MOL0     O64308   2.539   2.474   3.977 -0.1167 -0.1890  0.0507
  488MOL0     C64309   2.413   2.483   3.919 -0.5073  0.8508  0.0550
  488MOL0     C64310   2.387   2.392   3.813  0.5884  0.0293 -0.3386
  488MOL0     C64311   2.269   2.394   3.739  0.4529 -0.0659  0.2497
  488MOL0     C64312   2.164   2.472   3.786  0.5259 -0.0014  0.5019
  488MOL0     C64313   2.033   2.470   3.718 -0.4902 -0.5025  0.1005
  488MOL0     O64314   2.001   2.363   3.637 -0.4272  0.5570  0.0717
  488MOL0     C64315   1.871   2.340   3.583  0.7703  0.4090 -1.5185
  488MOL0     C64316   1.776   2.250   3.652 -0.4618 -0.3913  0.0724
  488MOL0     C64317   1.644   2.242   3.621 -0.2810 -0.8709  0.3213
  488MOL0     C64318   1.588   2.321   3.530 -0.6904 -0.4499  0.5388
  488MOL0     O64319   1.453   2.325   3.506 -0.1055  0.9727  0.1934
  488MOL0     C64320   1.409   2.300   3.373 -0.4802  0.0220 -0.0376
  488MOL0     C64321   1.290   2.210   3.367 -0.2885 -1.0646 -0.1227
  488MOL0     C64322   1.155   2.263   3.416 -0.5749  1.0423  0.0894
  488MOL0     C64323   1.142   2.291   3.568  0.2480  0.0506  0.1125
  488MOL0     C64324   0.989   2.322   3.579  0.5097 -0.3187  0.4856
  488MOL0     C64325   0.949   2.334   3.724 -0.0149 -0.7087  0.0957
  488MOL0     C64326   0.993   2.475   3.792 -0.4209 -0.2194  0.0071
  488MOL0     C64327   0.930   2.597   3.740  0.1861  0.2655  0.5648
  488MOL0    Cl64328   0.758   2.611   3.764 -0.1518 -0.1619 -0.2822
  488MOL0     C64329   1.679   2.404   3.450 -0.7538  0.1360 -0.2939
  488MOL0     C64330   1.816   2.415   3.485  0.0036  0.8071  1.6378
  488MOL0     O64331   1.945   2.560   3.751  0.2767  0.5574  0.5374
  488MOL0     C64332   2.179   2.558   3.900 -0.0638 -0.4312  0.9542
  488MOL0     C64333   2.309   2.562   3.961 -1.0276 -1.1269 -0.5034
  488MOL0     N64334   3.014   2.819   4.104 -0.2427  0.0354 -0.1251
  488MOL0     N64335   3.139   2.837   4.081  0.2415  0.8596 -0.2734
  488MOL0     C64336   4.242   2.894   4.512  0.1649  0.4027  0.4287
  488MOL0     C64337   4.368   2.941   4.491  0.0651  0.4755  0.2764
  488MOL0     C64338   4.751   3.136   4.448  0.0540 -0.1152  0.3350
  488MOL0     C64339   4.860   3.116   4.539 -0.0227 -0.1029  0.7567
  488MOL0     C64340   4.991   3.112   4.491  0.9318 -0.2495 -0.2496
  488MOL0     C64341   5.021   3.107   4.351  0.2742 -0.2042 -0.7330
  488MOL0     O64342   5.150   3.113   4.305  0.0456  0.0688  0.5318
  488MOL0     C64343   5.269   3.101   4.393 -0.1763 -0.4196  0.4302
  488MOL0     C64344   5.322   3.238   4.434 -0.0669 -1.1520 -0.4454
  488MOL0     C64345   5.356   3.341   4.321 -1.0786  0.4997  0.2230
  488MOL0     C64346   5.490   3.310   4.271 -0.5255 -1.5215 -0.0756
  488MOL0     C64347   5.531   3.413   4.186 -1.6432 -0.7229 -0.3220
  488MOL0     C64348   5.574   3.500   4.108  0.5079 -0.3151  0.8947
  488MOL0     C64349   4.916   3.138   4.272 -0.0248  0.9832 -0.4676
  488MOL0     C64350   4.783   3.154   4.315 -0.8377  0.0355  0.3792
  488MOL0     H64351   4.282   3.243   4.361  0.0290 -0.2168 -0.0873
  488MOL0     H64352   4.069   3.180   4.449 -1.1800 -0.9440  0.5993
  488MOL0     H64353   3.931   3.121   4.599 -2.0779  1.8782 -2.2990
  488MOL0     H64354   3.835   2.983   4.657  2.2840 -0.7570 -0.0653
  488MOL0     H64355   3.887   3.082   4.375 -0.4095  1.1832  1.0667
  488MOL0     H64356   3.737   3.104   4.461 -0.5080 -0.3003 -2.5249
  488MOL0     H64357   3.702   2.880   4.493 -0.4338  2.9050 -0.3449
  488MOL0     H64358   3.846   2.827   4.394  1.5547  0.7764 -0.4939
  488MOL0     H64359   3.618   3.014   4.299 -0.3803 -0.3645  2.4656
  488MOL0     H64360   3.725   2.936   4.197 -0.5575  0.5740 -0.8296
  488MOL0     H64361   3.509   2.808   4.366  1.9377  2.6787  1.6589
  488MOL0     H64362   3.617   2.709   4.268 -2.0044 -0.7780  2.7611
  488MOL0     H64363   3.523   2.863   4.060 -3.2319  1.0412 -1.5325
  488MOL0     H64364   3.403   2.894   4.178  1.0538  0.4866  0.1978
  488MOL0     H64365   3.522   2.630   4.077 -1.5642 -0.9683  1.0627
  488MOL0     H64366   3.393   2.632   4.203 -2.8598 -0.7603 -0.6003
  488MOL0     H64367   3.334   2.591   3.964 -0.2427  0.8435 -2.0946
  488MOL0     H64368   3.357   2.752   3.930  1.4992 -0.4270  0.2694
  488MOL0     H64369   3.133   2.515   4.092  1.1615 -0.0361  0.0245
  488MOL0     H64370   2.851   2.600   4.240 -0.6500 -2.4921  0.3320
  488MOL0     H64371   2.876   2.507   4.085  0.1955  0.3790 -0.3653
  488MOL0     H64372   2.743   2.680   3.964  0.5876 -2.6147  0.7482
  488MOL0     H64373   2.764   2.787   4.114 -2.4488 -1.1789  3.3719
  488MOL0     H64374   2.591   2.682   4.234 -2.0286  1.5342 -0.3246
  488MOL0     H64375   2.536   2.718   4.070 -0.8585 -1.9458 -0.8813
  488MOL0     H64376   2.468   2.492   4.169 -1.1082  0.3872 -1.3070
  488MOL0     H64377   2.637   2.446   4.149  1.7605  0.5750 -0.0286
  488MOL0     H64378   2.451   2.314   3.772 -1.1274 -3.0268  2.3605
  488MOL0     H64379   2.262   2.341   3.645 -0.7431  0.3718  0.0774
  488MOL0     H64380   1.810   2.179   3.727  0.4544 -0.3318 -0.2671
  488MOL0     H64381   1.565   2.184   3.667 -2.2738  1.8792  0.6003
  488MOL0     H64382   1.491   2.258   3.315  0.7212 -2.9002  3.4154
  488MOL0     H64383   1.374   2.388   3.318 -3.3625 -0.9575  0.0127
  488MOL0     H64384   1.314   2.125   3.432  0.4345 -0.5402  0.3074
  488MOL0     H64385   1.265   2.195   3.261  0.6262  4.4256 -1.4350
  488MOL0     H64386   1.084   2.186   3.385  3.9027 -2.9209 -1.6521
  488MOL0     H64387   1.135   2.357   3.364  0.4520  3.3855  3.6072
  488MOL0     H64388   1.178   2.201   3.621  1.8505  0.9413  0.6176
  488MOL0     H64389   1.198   2.378   3.603 -1.5091  0.6581  1.5494
  488MOL0     H64390   0.940   2.240   3.526  0.7912  2.0269 -3.8771
  488MOL0     H64391   0.977   2.412   3.519 -0.4056 -0.3880  0.5499
  488MOL0     H64392   0.989   2.254   3.788  0.1165 -0.0720  0.8177
  488MOL0     H64393   0.840   2.328   3.719  0.0059 -0.3575 -0.8460
  488MOL0     H64394   0.984   2.470   3.901 -0.5420  1.7884  0.1246
  488MOL0     H64395   1.100   2.482   3.775 -0.0770 -0.5250  1.8271
  488MOL0     H64396   0.940   2.597   3.631 -1.5806 -1.4959  0.3469
  488MOL0     H64397   0.989   2.682   3.778  2.3771 -0.5571 -0.8078
  488MOL0     H64398   1.657   2.454   3.357 -1.3187  1.7844  0.6987
  488MOL0     H64399   1.878   2.481   3.426 -0.8693 -1.3649 -2.0098
  488MOL0     H64400   2.104   2.623   3.942 -0.1161  0.0895  0.0694
  488MOL0     H64401   2.330   2.622   4.048 -2.1404  0.7546 -1.4644
  488MOL0     H64402   4.237   2.788   4.537  0.1442 -0.4333 -2.6859
  488MOL0     H64403   4.451   2.870   4.484 -1.0094 -0.6727 -1.5552
  488MOL0     H64404   4.845   3.094   4.645 -0.4900 -1.3100  0.4643
  488MOL0     H64405   5.068   3.099   4.567  0.9446  2.0026  0.1763
  488MOL0     H64406   5.348   3.066   4.326  0.1420 -0.3977  0.7935
  488MOL0     H64407   5.266   3.033   4.478 -0.8394 -0.7885  0.1197
  488MOL0     H64408   5.246   3.273   4.505  2.3357 -3.7073  3.8286
  488MOL0     H64409   5.405   3.225   4.505 -0.9111  0.5501  0.9417
  488MOL0     H64410   5.348   3.440   4.366  1.1200  1.6183 -1.6652
  488MOL0     H64411   5.285   3.326   4.240 -0.0697  0.2254 -0.6247
  488MOL0     H64412   5.551   3.324   4.361  1.0113 -0.7432 -1.1812
  488MOL0     H64413   5.486   3.217   4.214  1.0742 -0.7168 -1.5934
  488MOL0     H64414   5.634   3.572   4.056  1.3257 -3.4789 -3.0085
  488MOL0     H64415   4.929   3.159   4.167 -2.7253  2.2862 -0.6137
  488MOL0     H64416   4.717   3.175   4.231 -2.3571  0.0490  1.5347
  489MOL0     O64417   3.112  10.888   9.529  0.3106 -0.3937  0.6604
  489MOL0     C64418   3.165  10.789   9.474  0.3933 -0.2666 -0.1897
  489MOL0     O64419   3.122  10.720   9.367  0.2884  0.2892 -0.2765
  489MOL0     C64420   3.009  10.757   9.305  0.3479  0.6579  0.4787
  489MOL0     C64421   2.880  10.726   9.358  0.2237 -0.0659 -0.4688
  489MOL0     C64422   2.762  10.779   9.296 -0.3676  0.3348 -0.1157
  489MOL0     C64423   2.776  10.858   9.184  0.1590 -0.1332  0.0336
  489MOL0     O64424   2.658  10.884   9.130 -0.3193 -0.3093 -0.8465
  489MOL0     C64425   2.659  10.995   9.041  0.0611 -0.5290 -0.5331
  489MOL0     C64426   2.508  11.011   9.001  1.2359 -0.0846 -0.4681
  489MOL0     C64427   2.426  11.103   9.088  0.3885  0.6115  0.0579
  489MOL0     C64428   2.293  11.125   9.035 -0.4695  0.1923  0.1794
  489MOL0     C64429   2.200  11.011   9.073  0.5414  0.4233 -0.1263
  489MOL0     C64430   2.139  11.032   9.217  0.1205 -0.1238 -0.2672
  489MOL0     C64431   2.039  10.922   9.258  0.8231  0.0348  0.4283
  489MOL0     C64432   1.908  10.931   9.171 -0.2069  0.1052  0.1761
  489MOL0     N64433   1.836  11.065   9.186  0.7032  0.2212  0.2279
  489MOL0     C64434   1.796  11.135   9.292 -0.8703 -0.3674  0.2339
  489MOL0     C64435   1.710  11.225   9.241  0.3597  0.9036 -0.5914
  489MOL0     C64436   1.644  11.339   9.316 -0.2239  0.2337  0.0730
  489MOL0     C64437   1.498  11.316   9.339 -0.8669 -0.1784 -0.3367
  489MOL0     C64438   1.449  11.287   9.480 -0.5286  0.2068  0.0768
  489MOL0     C64439   1.301  11.258   9.477  0.6882 -0.0322  0.5407
  489MOL0     O64440   1.265  11.203   9.605  1.1737  0.6085  0.0311
  489MOL0     C64441   1.135  11.182   9.650 -0.4018  0.0005  0.1423
  489MOL0     C64442   1.021  11.191   9.576  0.0787  0.2118  0.0867
  489MOL0     C64443   0.899  11.156   9.628  0.2389 -0.3238 -0.3015
  489MOL0     C64444   0.892  11.105   9.758 -0.5541 -0.6265  0.0296
  489MOL0     C64445   0.754  11.051   9.804  0.1016  0.6634  0.1770
  489MOL0     O64446   0.650  11.051   9.718 -0.1065 -0.2600  0.0458
  489MOL0     C64447   0.519  11.042   9.752  0.8259 -0.5596 -0.1019
  489MOL0     C64448   0.458  11.076   9.876 -0.5859 -0.7673  0.0294
  489MOL0     C64449   0.325  11.056   9.905 -0.3759  0.7684 -0.6526
  489MOL0     C64450   0.240  11.013   9.807  1.0040 -0.4798  0.6978
  489MOL0     O64451   0.109  11.004   9.842 -0.1383 -0.6089  0.2359
  489MOL0     C64452   0.034  10.884   9.833 -0.4056 -0.5340  0.0544
  489MOL0     C64453  -0.094  10.871   9.928 -0.2503 -0.1265 -0.0325
  489MOL0     C64454  -0.190  10.984   9.894 -0.1555  0.0009  0.3051
  489MOL0     C64455  -0.312  10.973   9.985  0.9602 -0.3182  0.6049
  489MOL0     C64456  -0.409  11.083   9.934 -0.2647  0.1536  0.4846
  489MOL0     C64457  -0.507  11.122  10.048 -0.1389 -1.0811  0.9542
  489MOL0     C64458  -0.617  11.209   9.973  0.2335  0.4203 -0.5695
  489MOL0     C64459  -0.731  11.242  10.079 -1.2667  0.9369 -0.6550
  489MOL0    Cl64460  -0.875  11.268   9.980  0.1367 -0.1045 -0.2209
  489MOL0     C64461   0.289  10.973   9.681 -1.1144  0.2118 -0.2580
  489MOL0     C64462   0.431  10.979   9.659  1.1460 -0.6988 -0.6633
  489MOL0     O64463   0.744  11.003   9.921 -0.1598 -0.0308  0.7646
  489MOL0     C64464   1.006  11.095   9.834  0.6788  0.7919 -0.3176
  489MOL0     C64465   1.132  11.122   9.776  0.0048  0.3801 -0.0238
  489MOL0     N64466   1.697  11.207   9.106 -0.0462 -0.4462 -0.1128
  489MOL0     N64467   1.774  11.115   9.077 -1.2079 -0.1092 -1.1453
  489MOL0     C64468   2.906  10.890   9.132 -0.0716 -0.6014 -0.5973
  489MOL0     C64469   3.017  10.836   9.192 -0.5858 -0.1820  0.0687
  489MOL0     C64470   3.297  10.746   9.534  0.1531 -0.4096  1.0603
  489MOL0     C64471   3.361  10.631   9.497  0.5166  0.1586 -0.0702
  489MOL0     C64472   3.476  10.589   9.561  0.0332 -0.1362  0.0273
  489MOL0     C64473   3.529  10.671   9.657  0.1280  0.3557 -0.8689
  489MOL0     O64474   3.634  10.618   9.728 -0.3648 -0.7404 -0.0490
  489MOL0     C64475   3.754  10.689   9.686 -0.2255  0.2477  0.0531
  489MOL0     C64476   3.814  10.642   9.557 -0.3649  0.9386  0.0772
  489MOL0     C64477   3.957  10.707   9.527  0.2745 -0.3299 -0.1535
  489MOL0     C64478   4.054  10.622   9.446  0.1493 -1.0286 -0.1604
  489MOL0     C64479   4.099  10.518   9.539  0.0318  0.1838 -0.0628
  489MOL0     C64480   4.143  10.435   9.615 -0.4807 -0.2364  0.0612
  489MOL0     C64481   3.466  10.791   9.698 -0.0731  0.4028  0.6042
  489MOL0     C64482   3.352  10.826   9.634 -0.3149 -0.6305  0.2819
  489MOL0     H64483   2.866  10.665   9.446 -1.0264 -0.6285 -1.0285
  489MOL0     H64484   2.664  10.751   9.332 -0.0714 -1.0544 -0.2923
  489MOL0     H64485   2.721  10.965   8.956  0.4640 -1.9252  0.2113
  489MOL0     H64486   2.700  11.092   9.071  1.0533 -0.7114 -1.2385
  489MOL0     H64487   2.454  10.918   8.985 -1.3231  1.2364 -0.0487
  489MOL0     H64488   2.520  11.070   8.909  1.9131 -0.0182 -0.3481
  489MOL0     H64489   2.482  11.197   9.083  1.2092  0.0818 -1.3717
  489MOL0     H64490   2.435  11.071   9.192  0.2500 -0.6047 -0.2883
  489MOL0     H64491   2.273  11.221   9.085  1.5222  0.1717  1.1390
  489MOL0     H64492   2.294  11.147   8.928 -1.8262 -0.4891  0.0105
  489MOL0     H64493   2.255  10.916   9.078  0.5807  0.2694 -2.4356
  489MOL0     H64494   2.124  10.996   8.997  1.7144 -1.2688 -1.0415
  489MOL0     H64495   2.083  11.125   9.206 -1.1802 -1.1349 -3.6009
  489MOL0     H64496   2.214  11.039   9.296  0.1351  2.7752 -0.4336
  489MOL0     H64497   2.077  10.820   9.247 -1.6850 -1.0711  1.2946
  489MOL0     H64498   2.015  10.928   9.364  0.3264  1.6772  0.2538
  489MOL0     H64499   1.839  10.850   9.198 -3.3621  1.2399 -3.5873
  489MOL0     H64500   1.933  10.911   9.067 -0.6663 -0.9450  0.2518
  489MOL0     H64501   1.824  11.118   9.396 -2.2652 -1.5426  0.4459
  489MOL0     H64502   1.649  11.430   9.255 -1.4419  1.4962  1.7499
  489MOL0     H64503   1.701  11.374   9.402  1.9476 -0.0246 -1.1977
  489MOL0     H64504   1.457  11.241   9.272 -1.0118  1.4473 -2.1691
  489MOL0     H64505   1.450  11.411   9.313 -0.8487 -0.3035 -0.8357
  489MOL0     H64506   1.506  11.204   9.521  0.8026 -0.1949 -2.4014
  489MOL0     H64507   1.463  11.369   9.551 -0.3724  0.2875 -0.0460
  489MOL0     H64508   1.279  11.187   9.397  0.1413  0.0280  0.6364
  489MOL0     H64509   1.236  11.340   9.447 -1.6012 -1.6597  0.7293
  489MOL0     H64510   1.024  11.215   9.470  0.7211  1.7253  0.4197
  489MOL0     H64511   0.804  11.168   9.577 -1.3626 -1.7308  2.1150
  489MOL0     H64512   0.520  11.111   9.958 -0.0109 -2.3417  0.2929
  489MOL0     H64513   0.288  11.079  10.004 -0.4049 -1.9346  0.0232
  489MOL0     H64514   0.102  10.798   9.837 -2.3705 -2.1176  1.5624
  489MOL0     H64515  -0.005  10.887   9.731 -1.4377  2.0045  0.4606
  489MOL0     H64516  -0.051  10.881  10.028  1.6204  1.6559 -0.9459
  489MOL0     H64517  -0.132  10.771   9.903 -2.0387  0.8449 -1.4553
  489MOL0     H64518  -0.205  10.998   9.787 -1.1102  2.2630  0.6773
  489MOL0     H64519  -0.145  11.080   9.924 -2.2634  0.3871  2.5774
  489MOL0     H64520  -0.364  10.877   9.976 -0.8085  0.5974  0.5370
  489MOL0     H64521  -0.282  10.980  10.090  1.5034 -1.6538  0.5622
  489MOL0     H64522  -0.467  11.047   9.848  1.8867 -1.3468 -0.4127
  489MOL0     H64523  -0.355  11.171   9.900 -0.8403  0.7369  1.0508
  489MOL0     H64524  -0.453  11.191  10.112 -0.4245  1.0101 -0.9379
  489MOL0     H64525  -0.561  11.044  10.103  0.5942 -1.6524  0.8754
  489MOL0     H64526  -0.579  11.298   9.922  3.3004 -0.6217 -0.2979
  489MOL0     H64527  -0.660  11.135   9.904 -1.1316  1.2197 -0.6112
  489MOL0     H64528  -0.703  11.327  10.141  0.4453 -0.1395  0.1407
  489MOL0     H64529  -0.754  11.154  10.141 -2.3550  1.8185  0.2422
  489MOL0     H64530   0.229  10.924   9.605  0.7258 -1.0284 -0.9858
  489MOL0     H64531   0.469  10.953   9.561  2.2246  1.9822 -1.0472
  489MOL0     H64532   1.004  11.049   9.932 -0.6895  1.3562 -0.0470
  489MOL0     H64533   1.224  11.096   9.826  0.9969  0.0554 -1.9082
  489MOL0     H64534   2.927  10.947   9.042 -3.2712 -0.9428 -1.6906
  489MOL0     H64535   3.116  10.867   9.160  0.5827 -3.3823  0.2741
  489MOL0     H64536   3.324  10.559   9.425  0.3954  1.6230 -1.5315
  489MOL0     H64537   3.530  10.498   9.537 -0.3997 -1.0988  2.5033
  489MOL0     H64538   3.834  10.683   9.761 -0.9356  1.2603  0.9229
  489MOL0     H64539   3.737  10.796   9.672  1.7518  0.7106  0.8586
  489MOL0     H64540   3.823  10.534   9.544  1.3029  1.2929 -2.5820
  489MOL0     H64541   3.740  10.652   9.477  0.2536 -3.1150 -1.2267
  489MOL0     H64542   4.008  10.732   9.620  1.5347 -2.0810 -0.3385
  489MOL0     H64543   3.932  10.796   9.467  0.6111 -0.4158 -0.4244
  489MOL0     H64544   4.012  10.588   9.351 -0.4152  3.0568 -1.6181
  489MOL0     H64545   4.145  10.674   9.411  0.5180 -0.3353  1.6749
  489MOL0     H64546   4.173  10.351   9.675  0.4000 -1.0211 -1.4121
  489MOL0     H64547   3.488  10.852   9.785  1.0949  1.1477 -0.1930
  489MOL0     H64548   3.293  10.906   9.675 -0.7754 -0.3690 -0.8560
  490MOL0     O64549  10.268   8.040   8.038 -0.2380  0.4626 -0.5124
  490MOL0     C64550  10.332   8.030   8.146 -0.4367  0.0759  0.3400
  490MOL0     O64551  10.289   7.971   8.258  0.5079  0.5861  0.2909
  490MOL0     C64552  10.161   7.938   8.278  0.5614 -0.1467  0.2820
  490MOL0     C64553  10.043   7.989   8.213 -0.1523 -0.1447 -0.9549
  490MOL0     C64554   9.916   7.957   8.257 -0.6223 -1.0379 -0.7767
  490MOL0     C64555   9.901   7.869   8.366  0.4887 -0.3994 -0.4370
  490MOL0     O64556   9.768   7.848   8.403  0.0465  0.4835  0.3450
  490MOL0     C64557   9.740   7.756   8.505  0.7333 -0.1528  0.0862
  490MOL0     C64558   9.598   7.704   8.518 -0.6131  0.0099  0.3520
  490MOL0     C64559   9.492   7.807   8.523  0.4958 -0.3219 -0.0369
  490MOL0     C64560   9.353   7.737   8.541 -0.3015  0.6207 -0.1191
  490MOL0     C64561   9.238   7.817   8.466  0.2792  0.1368  0.1039
  490MOL0     C64562   9.158   7.707   8.382 -0.5790 -0.5325 -0.1418
  490MOL0     C64563   9.063   7.769   8.274 -0.3863 -0.6870  0.2861
  490MOL0     C64564   8.918   7.761   8.338 -0.0819 -1.1395  0.1644
  490MOL0     N64565   8.824   7.823   8.244 -0.1961  0.3332 -0.7246
  490MOL0     C64566   8.801   7.958   8.233 -0.1031  0.6594  1.0092
  490MOL0     C64567   8.674   7.965   8.185 -0.0118  0.1329 -0.3429
  490MOL0     C64568   8.587   8.086   8.181 -0.7787 -0.5982 -0.4029
  490MOL0     C64569   8.531   8.138   8.045 -0.2582  0.4242 -0.6227
  490MOL0     C64570   8.444   8.044   7.980  0.3331  0.6166  0.3280
  490MOL0     C64571   8.328   7.996   8.069 -0.0647 -0.0557 -0.8015
  490MOL0     O64572   8.242   7.916   7.992  0.8193 -0.0576 -0.7043
  490MOL0     C64573   8.123   7.870   8.038 -0.2727 -0.8959  0.2661
  490MOL0     C64574   8.062   7.760   7.969 -0.5827  0.2056  0.3529
  490MOL0     C64575   7.933   7.716   8.010 -0.1184 -0.5224  0.4431
  490MOL0     C64576   7.876   7.754   8.133  0.2957  0.2279 -0.3447
  490MOL0     C64577   7.760   7.681   8.189  0.3438  0.5258 -0.2868
  490MOL0     O64578   7.692   7.593   8.106  0.1037  0.4675  0.6696
  490MOL0     C64579   7.577   7.527   8.135  0.3779  0.0510 -0.2887
  490MOL0     C64580   7.562   7.410   8.068  0.2495  0.0495 -0.2202
  490MOL0     C64581   7.438   7.339   8.090  0.3659  0.2305  0.3198
  490MOL0     C64582   7.328   7.389   8.164 -0.3331 -0.1941 -0.1532
  490MOL0     O64583   7.213   7.323   8.162  0.9562 -0.2127 -0.1042
  490MOL0     C64584   7.131   7.326   8.273  0.1159  0.1200  0.5390
  490MOL0     C64585   7.011   7.223   8.269  0.1537 -0.4281  0.6951
  490MOL0     C64586   6.911   7.242   8.388  0.1132 -0.0508 -0.5611
  490MOL0     C64587   6.793   7.138   8.372  0.2915 -1.2723 -0.5921
  490MOL0     C64588   6.704   7.144   8.501  0.3644  0.4494 -0.4029
  490MOL0     C64589   6.573   7.071   8.475  0.6229 -0.2152 -0.4461
  490MOL0     C64590   6.485   7.073   8.600  0.2665  0.3164  0.1527
  490MOL0     C64591   6.338   7.026   8.582  0.4085  0.3001 -0.4679
  490MOL0    Cl64592   6.333   6.837   8.558  0.2356  0.0828  0.3188
  490MOL0     C64593   7.351   7.505   8.229  0.2173 -0.2957 -1.1685
  490MOL0     C64594   7.473   7.580   8.215  0.1650 -0.2332  0.1819
  490MOL0     O64595   7.726   7.709   8.294 -0.2006  0.0405 -0.7252
  490MOL0     C64596   7.933   7.864   8.203 -0.0931  0.5215  0.3688
  490MOL0     C64597   8.056   7.915   8.154  0.3414 -1.3703  0.3956
  490MOL0     N64598   8.629   7.836   8.154  0.4689  0.3893  0.2128
  490MOL0     N64599   8.715   7.753   8.202  0.8311  0.2154 -0.7833
  490MOL0     C64600  10.015   7.819   8.424  0.5972  0.0437 -0.1276
  490MOL0     C64601  10.144   7.862   8.385  0.0049  0.3535 -0.5645
  490MOL0     C64602  10.472   8.082   8.152 -0.5989  0.6258 -0.3372
  490MOL0     C64603  10.544   8.122   8.044  0.0932 -0.2574  0.8614
  490MOL0     C64604  10.672   8.157   8.049 -0.4853 -0.5726  0.8562
  490MOL0     C64605  10.738   8.151   8.168 -0.0958 -0.5934 -0.6207
  490MOL0     O64606  10.865   8.193   8.174  0.1870 -0.6588 -0.2145
  490MOL0     C64607  10.943   8.219   8.286 -0.7955  0.9428  0.2819
  490MOL0     C64608  11.092   8.252   8.232 -0.3967  0.2028 -1.5585
  490MOL0     C64609  11.193   8.259   8.345 -0.2022 -0.4797 -0.5940
  490MOL0     C64610  11.262   8.121   8.371  0.4966  0.1583 -0.2740
  490MOL0     C64611  11.345   8.070   8.259 -0.1733  0.0432 -0.4462
  490MOL0     C64612  11.400   8.047   8.158  0.2774 -0.2885  0.3924
  490MOL0     C64613  10.666   8.119   8.291 -0.5813  0.3192  0.0842
  490MOL0     C64614  10.530   8.093   8.279 -0.7069 -0.0405 -0.1033
  490MOL0     H64615  10.056   8.053   8.126  0.4503 -2.4585 -2.6698
  490MOL0     H64616   9.827   8.002   8.213 -0.7870  0.3387  0.8541
  490MOL0     H64617   9.758   7.807   8.600 -2.7822 -1.6537  1.7711
  490MOL0     H64618   9.808   7.671   8.501  0.4758 -0.3610  0.1247
  490MOL0     H64619   9.594   7.647   8.612 -0.1346 -1.7144 -0.6291
  490MOL0     H64620   9.578   7.632   8.439  4.4931 -3.3198  1.5859
  490MOL0     H64621   9.488   7.854   8.424 -2.3435  2.9504  1.4237
  490MOL0     H64622   9.519   7.867   8.611  0.1629 -1.2294  0.6980
  490MOL0     H64623   9.363   7.635   8.502  0.3960  0.3894  0.6144
  490MOL0     H64624   9.324   7.728   8.647 -1.4562  1.2266 -0.3671
  490MOL0     H64625   9.285   7.891   8.400  0.2381 -0.7814 -0.9891
  490MOL0     H64626   9.170   7.872   8.533  0.9429  2.9277 -1.3376
  490MOL0     H64627   9.113   7.642   8.457 -1.9938 -2.0237 -2.1506
  490MOL0     H64628   9.240   7.653   8.332  0.3392 -0.3211  1.1047
  490MOL0     H64629   9.089   7.874   8.262  1.8593 -1.1022  1.0813
  490MOL0     H64630   9.077   7.715   8.180 -0.9478 -1.4009  0.6004
  490MOL0     H64631   8.916   7.809   8.436 -0.7488 -3.2274  1.2439
  490MOL0     H64632   8.896   7.654   8.347  2.1056 -1.5217  1.9089
  490MOL0     H64633   8.864   8.037   8.271  0.0661  2.1404 -2.0097
  490MOL0     H64634   8.646   8.168   8.223 -0.5016 -0.3050 -1.3299
  490MOL0     H64635   8.506   8.079   8.253 -0.4496 -1.6187 -0.1194
  490MOL0     H64636   8.620   8.162   7.987  0.1607  0.6581  0.1088
  490MOL0     H64637   8.483   8.236   8.052 -0.2189  0.3455  1.1526
  490MOL0     H64638   8.399   8.095   7.894 -0.1946 -0.3837 -0.0042
  490MOL0     H64639   8.492   7.953   7.941  0.9363  1.1781 -0.2736
  490MOL0     H64640   8.277   8.086   8.103 -1.7784 -1.6854  1.1977
  490MOL0     H64641   8.366   7.933   8.150  0.8158 -0.1855 -1.3024
  490MOL0     H64642   8.114   7.710   7.887  0.6675 -0.6704  1.6304
  490MOL0     H64643   7.887   7.633   7.956 -3.2392  0.2930  1.6190
  490MOL0     H64644   7.642   7.365   8.009  0.3177  1.0113 -0.8762
  490MOL0     H64645   7.423   7.242   8.043  1.5704 -0.5905  1.5624
  490MOL0     H64646   7.091   7.427   8.279  0.4945  0.3700 -0.7472
  490MOL0     H64647   7.184   7.308   8.367 -0.0810  0.0999  0.6476
  490MOL0     H64648   7.037   7.117   8.270  0.1858 -0.4220  2.0249
  490MOL0     H64649   6.955   7.236   8.176  4.5937  0.5482 -2.1882
  490MOL0     H64650   6.882   7.345   8.411  3.6571  0.8982  0.4179
  490MOL0     H64651   6.960   7.214   8.481 -0.3783  2.5308  0.5556
  490MOL0     H64652   6.733   7.151   8.282 -2.0078  0.3596  1.0503
  490MOL0     H64653   6.829   7.034   8.373 -1.3761 -1.8912 -1.4653
  490MOL0     H64654   6.678   7.248   8.523 -0.4625  0.1051  0.2967
  490MOL0     H64655   6.751   7.102   8.590  2.2866  2.5552 -0.3533
  490MOL0     H64656   6.597   6.966   8.454  1.5429 -0.2089  0.5424
  490MOL0     H64657   6.520   7.121   8.394 -1.8003 -0.8133  0.6836
  490MOL0     H64658   6.539   7.022   8.680  4.3422  1.8765 -1.3367
  490MOL0     H64659   6.472   7.178   8.629 -1.1808  0.3326 -0.4238
  490MOL0     H64660   6.287   7.075   8.499  1.0575  0.3012 -0.8745
  490MOL0     H64661   6.303   7.053   8.682  3.0435 -2.6871  1.4800
  490MOL0     H64662   7.274   7.546   8.294  2.0346  1.4723 -0.0494
  490MOL0     H64663   7.481   7.671   8.273  0.3001 -0.9984  1.3841
  490MOL0     H64664   7.912   7.891   8.306 -1.0189 -0.1362  0.3581
  490MOL0     H64665   8.101   7.991   8.217 -2.8177  1.4572 -0.4235
  490MOL0     H64666  10.009   7.753   8.509  0.1182  1.1094  0.6945
  490MOL0     H64667  10.229   7.821   8.438 -1.5578 -5.4411 -1.7750
  490MOL0     H64668  10.485   8.130   7.954  1.7497 -1.8985 -0.4370
  490MOL0     H64669  10.718   8.194   7.958 -0.7981 -2.1294  0.0324
  490MOL0     H64670  10.942   8.125   8.341 -0.5441  0.7023 -0.1145
  490MOL0     H64671  10.896   8.291   8.353  0.8047  4.3013 -1.9566
  490MOL0     H64672  11.119   8.173   8.161 -0.4045  0.9737 -2.4344
  490MOL0     H64673  11.091   8.343   8.172 -3.5589 -0.8274 -3.3013
  490MOL0     H64674  11.147   8.293   8.438  0.6957  1.2986 -0.7647
  490MOL0     H64675  11.268   8.329   8.308 -0.9842  0.9629  0.4453
  490MOL0     H64676  11.321   8.134   8.462 -1.4958 -0.2667  1.1615
  490MOL0     H64677  11.177   8.055   8.389  0.4501  0.5693  1.1096
  490MOL0     H64678  11.450   8.044   8.063  0.1805 -2.0197  0.3606
  490MOL0     H64679  10.713   8.108   8.388  2.9439 -0.3927 -1.5202
  490MOL0     H64680  10.482   8.082   8.376 -0.9774 -0.4042 -0.2798
  491MOL0     O64681   4.199   5.021   8.712 -1.1288 -0.5105  0.1958
  491MOL0     C64682   4.101   4.953   8.734  0.0791 -0.3935 -0.0656
  491MOL0     O64683   4.061   4.836   8.678 -0.4387 -0.0343 -0.0888
  491MOL0     C64684   4.156   4.765   8.615  0.1443  0.2454  0.6173
  491MOL0     C64685   4.240   4.810   8.510 -0.1476  0.6632 -0.2223
  491MOL0     C64686   4.350   4.734   8.468  0.3523  0.2146 -0.4616
  491MOL0     C64687   4.371   4.602   8.506 -0.4694  0.0015  0.1679
  491MOL0     O64688   4.485   4.533   8.471  0.0925  1.3227  0.4097
  491MOL0     C64689   4.602   4.616   8.435 -0.8591 -0.2110 -0.2001
  491MOL0     C64690   4.715   4.526   8.408  0.0647  0.3809 -0.2653
  491MOL0     C64691   4.744   4.437   8.527 -0.3620 -0.3813  0.0511
  491MOL0     C64692   4.853   4.338   8.488  0.9839  0.1801 -0.2134
  491MOL0     C64693   4.929   4.269   8.597  1.0476  1.1530  0.2580
  491MOL0     C64694   4.845   4.214   8.717 -1.0980  0.2701  0.7296
  491MOL0     C64695   4.933   4.173   8.830  0.4845 -0.0474 -0.5864
  491MOL0     C64696   5.052   4.078   8.794  0.7546 -0.1244 -1.4732
  491MOL0     N64697   5.000   3.941   8.775  0.2345 -0.1069 -0.4597
  491MOL0     C64698   4.940   3.865   8.876 -0.0652 -0.3772 -0.9601
  491MOL0     C64699   4.909   3.743   8.816 -0.7828 -1.0181  0.6418
  491MOL0     C64700   4.865   3.616   8.878 -0.8309 -0.6172  1.2688
  491MOL0     C64701   4.982   3.529   8.921 -0.1171 -0.4701 -0.2601
  491MOL0     C64702   4.994   3.379   8.892 -0.3965  0.2877 -0.1184
  491MOL0     C64703   4.982   3.342   8.738 -0.8940  0.1353  0.2558
  491MOL0     O64704   4.891   3.411   8.656  0.1199 -0.1237 -0.2693
  491MOL0     C64705   4.763   3.363   8.645 -0.1823 -0.3556  0.6282
  491MOL0     C64706   4.699   3.438   8.546  0.4390  0.4337  0.2933
  491MOL0     C64707   4.567   3.407   8.511  0.6910  0.6230 -0.8334
  491MOL0     C64708   4.506   3.293   8.576 -0.3896  0.2261  0.1758
  491MOL0     C64709   4.363   3.256   8.538 -0.0944 -0.2988  0.0905
  491MOL0     O64710   4.305   3.157   8.618 -0.0566 -0.2606  0.4668
  491MOL0     C64711   4.169   3.125   8.600 -0.6268  0.0774 -0.9109
  491MOL0     C64712   4.142   2.993   8.622 -0.6483 -0.3766 -0.6750
  491MOL0     C64713   4.004   2.949   8.621 -0.4329 -0.2202  0.7074
  491MOL0     C64714   3.898   3.042   8.613  0.4898  0.7659  1.0186
  491MOL0     O64715   3.770   2.996   8.629  0.0640  0.5622  0.2907
  491MOL0     C64716   3.678   3.023   8.523  0.2383 -0.3462 -0.5868
  491MOL0     C64717   3.576   2.916   8.501 -0.6757 -0.1892 -0.5637
  491MOL0     C64718   3.465   2.926   8.610 -0.0496 -0.1344  0.1379
  491MOL0     C64719   3.365   2.807   8.605  0.0666  0.2793  0.4940
  491MOL0     C64720   3.257   2.808   8.720 -1.5247 -0.1060  0.4103
  491MOL0     C64721   3.163   2.693   8.700  0.7973 -0.4571  0.3704
  491MOL0     C64722   3.084   2.666   8.837 -0.2276 -0.1552 -0.1808
  491MOL0     C64723   3.005   2.532   8.846 -0.2935 -0.0769 -0.7426
  491MOL0    Cl64724   2.895   2.521   8.706 -0.0411  0.8569 -0.5323
  491MOL0     C64725   3.928   3.181   8.598 -0.4841 -0.1083  0.1332
  491MOL0     C64726   4.062   3.214   8.580  0.5282 -0.5670 -0.0257
  491MOL0     O64727   4.314   3.322   8.446  0.6479  0.0911 -0.4295
  491MOL0     C64728   4.573   3.216   8.664 -0.9149  0.4162  0.7450
  491MOL0     C64729   4.702   3.253   8.706  0.2198  0.1336 -0.2587
  491MOL0     N64730   4.963   3.755   8.689  0.5232  0.2883  0.3170
  491MOL0     N64731   5.005   3.874   8.664  0.7413  0.4288  0.5722
  491MOL0     C64732   4.286   4.560   8.609  0.0473 -0.2304 -0.9175
  491MOL0     C64733   4.176   4.633   8.656  0.1723  0.0698  0.6853
  491MOL0     C64734   3.998   5.010   8.831 -0.9427  0.6696  0.1061
  491MOL0     C64735   3.879   4.944   8.847 -0.5531 -0.5623 -0.4432
  491MOL0     C64736   3.796   4.994   8.951  0.5665  0.1697 -0.5641
  491MOL0     C64737   3.837   5.094   9.042 -0.3420 -0.8879 -0.2761
  491MOL0     O64738   3.749   5.135   9.151  0.2840 -0.8925 -0.0760
  491MOL0     C64739   3.752   5.267   9.200  0.5454 -1.0619 -0.0248
  491MOL0     C64740   3.699   5.368   9.093  0.8424 -0.2249  0.2894
  491MOL0     C64741   3.553   5.341   9.062  0.5371 -0.0361  0.0183
  491MOL0     C64742   3.481   5.449   8.973 -0.2463 -0.5832 -0.1355
  491MOL0     C64743   3.338   5.450   8.967  0.1962  0.3984  0.5024
  491MOL0     C64744   3.216   5.459   8.965  0.0793 -0.7220  0.7714
  491MOL0     C64745   3.947   5.165   9.013  0.8312  0.2582  0.0300
  491MOL0     C64746   4.033   5.124   8.911  0.4106 -0.0920  0.0240
  491MOL0     H64747   4.224   4.911   8.475  1.1326  0.4022 -1.6581
  491MOL0     H64748   4.405   4.771   8.382 -0.0503  0.1717 -0.7428
  491MOL0     H64749   4.634   4.669   8.526  3.2727 -2.2179 -0.2541
  491MOL0     H64750   4.585   4.689   8.355 -2.0311 -0.1494  0.0801
  491MOL0     H64751   4.809   4.579   8.391  0.4333  0.0183  0.5775
  491MOL0     H64752   4.700   4.463   8.320  0.3721  1.0039 -0.7690
  491MOL0     H64753   4.652   4.396   8.570  0.1491  0.9159  2.5567
  491MOL0     H64754   4.794   4.491   8.608  0.6151  0.7036 -1.2249
  491MOL0     H64755   4.801   4.265   8.426  0.5621  1.2327 -1.1512
  491MOL0     H64756   4.915   4.391   8.416  1.1127  0.8838  0.4030
  491MOL0     H64757   5.006   4.336   8.638  2.2603 -0.2175  0.3017
  491MOL0     H64758   4.982   4.191   8.542 -1.0672  1.4551 -2.4193
  491MOL0     H64759   4.801   4.125   8.672  0.7273 -1.0288  1.4144
  491MOL0     H64760   4.773   4.283   8.762 -1.5210 -0.7127  1.5989
  491MOL0     H64761   4.978   4.266   8.866 -0.9776  0.3010  0.4608
  491MOL0     H64762   4.877   4.142   8.919 -0.8254  1.2590 -0.9124
  491MOL0     H64763   5.135   4.081   8.865  1.4457 -0.8291 -2.2318
  491MOL0     H64764   5.109   4.107   8.706  4.4076 -1.0205  0.4153
  491MOL0     H64765   4.925   3.895   8.979  1.1684 -2.2361 -0.1798
  491MOL0     H64766   4.800   3.567   8.805 -0.3284 -2.4329  1.9996
  491MOL0     H64767   4.806   3.643   8.967 -2.2706  2.9873 -0.5765
  491MOL0     H64768   5.000   3.534   9.029  3.0445 -0.9351 -0.6689
  491MOL0     H64769   5.078   3.571   8.887  0.6078 -1.1705  0.8471
  491MOL0     H64770   5.094   3.345   8.919 -0.5557 -1.0436 -1.1028
  491MOL0     H64771   4.931   3.310   8.949  2.7705 -1.7789  1.1208
  491MOL0     H64772   4.946   3.239   8.744 -5.6680  1.6362  2.4877
  491MOL0     H64773   5.087   3.345   8.710 -0.5251 -0.2211  1.5307
  491MOL0     H64774   4.750   3.521   8.500 -1.2598  1.0433 -0.5601
  491MOL0     H64775   4.532   3.476   8.435  1.6362  1.3451 -0.6274
  491MOL0     H64776   4.228   2.927   8.624  0.8740  1.3561 -3.0131
  491MOL0     H64777   3.969   2.848   8.640  2.0204 -0.6607  3.5728
  491MOL0     H64778   3.722   3.053   8.427  0.7724  3.1287  0.5880
  491MOL0     H64779   3.622   3.109   8.562  0.6229  0.2769 -1.3766
  491MOL0     H64780   3.618   2.815   8.512  1.0996  0.5951  0.3229
  491MOL0     H64781   3.525   2.931   8.406  0.8419  2.1774 -1.1062
  491MOL0     H64782   3.415   3.022   8.599 -0.5277 -0.3254  0.5528
  491MOL0     H64783   3.510   2.933   8.710  0.0914  3.6389 -0.0473
  491MOL0     H64784   3.311   2.805   8.510 -2.2490  0.4271  1.7206
  491MOL0     H64785   3.423   2.715   8.619 -0.2048  0.0598  0.2170
  491MOL0     H64786   3.198   2.899   8.729 -2.8115 -0.6969 -1.3699
  491MOL0     H64787   3.311   2.782   8.812  1.8820 -0.3704 -1.4852
  491MOL0     H64788   3.209   2.597   8.675  0.7207 -0.2357 -0.6833
  491MOL0     H64789   3.104   2.702   8.608 -0.5465  0.8501  1.3032
  491MOL0     H64790   3.159   2.649   8.914 -1.2523 -0.1841  0.8422
  491MOL0     H64791   3.013   2.744   8.866  1.5525  1.6760 -0.5015
  491MOL0     H64792   2.938   2.525   8.932  0.5526  0.3978 -0.0412
  491MOL0     H64793   3.075   2.449   8.856 -0.1917  0.1890  0.9341
  491MOL0     H64794   3.854   3.259   8.589 -1.2653 -1.0061 -1.6091
  491MOL0     H64795   4.085   3.320   8.571  1.4706 -0.8494 -1.1887
  491MOL0     H64796   4.531   3.126   8.707  1.2383 -0.8529  0.3596
  491MOL0     H64797   4.742   3.191   8.786 -4.3539 -1.2221  1.3350
  491MOL0     H64798   4.295   4.464   8.659 -1.2315  0.3366  0.4539
  491MOL0     H64799   4.119   4.602   8.743  0.2974  2.4680  1.6951
  491MOL0     H64800   3.854   4.860   8.783  0.3084 -0.6768 -0.6445
  491MOL0     H64801   3.697   4.954   8.966  0.2888  0.5199 -1.3760
  491MOL0     H64802   3.852   5.301   9.228 -0.8134  1.5961  2.0165
  491MOL0     H64803   3.693   5.278   9.291  0.0910  3.8087 -0.6670
  491MOL0     H64804   3.709   5.465   9.143  0.7588  0.0921 -0.3023
  491MOL0     H64805   3.752   5.367   8.997  1.7360  0.5899  0.7508
  491MOL0     H64806   3.502   5.353   9.158 -0.5413  0.2180 -0.5633
  491MOL0     H64807   3.539   5.242   9.019 -0.1216  0.2831 -0.5353
  491MOL0     H64808   3.511   5.548   9.008  3.4392 -1.3258 -0.7947
  491MOL0     H64809   3.525   5.446   8.873 -1.0443  1.5200 -0.6094
  491MOL0     H64810   3.113   5.487   8.954  0.7861  0.9928 -3.3502
  491MOL0     H64811   3.985   5.248   9.071 -0.2366  0.8649 -0.1110
  491MOL0     H64812   4.124   5.178   8.888 -0.1170  1.1378  0.7311
  492MOL0     O64813   8.110   3.837   3.643 -0.1196 -0.4517  1.1077
  492MOL0     C64814   8.163   3.891   3.546  0.8335  0.3276 -0.0973
  492MOL0     O64815   8.284   3.860   3.499 -0.1367 -0.4876 -0.3795
  492MOL0     C64816   8.335   3.740   3.544  0.2745  0.6742  0.0016
  492MOL0     C64817   8.259   3.618   3.557  0.4235  0.1899 -0.5786
  492MOL0     C64818   8.326   3.494   3.586  0.1909 -0.5509 -1.5645
  492MOL0     C64819   8.462   3.492   3.627  1.0004  0.6452 -0.1659
  492MOL0     O64820   8.522   3.372   3.661  0.1635  0.1660 -0.0332
  492MOL0     C64821   8.656   3.375   3.729 -0.2308 -0.5292  0.4769
  492MOL0     C64822   8.692   3.236   3.791 -0.7127  0.8287 -0.0246
  492MOL0     C64823   8.710   3.125   3.698 -0.2280 -0.0030  0.3032
  492MOL0     C64824   8.714   2.981   3.754  0.0638 -0.6180 -0.4481
  492MOL0     C64825   8.758   2.879   3.651 -0.0855 -0.1845 -1.3442
  492MOL0     C64826   8.691   2.872   3.511  0.6798  0.3022  0.1947
  492MOL0     C64827   8.546   2.844   3.527 -0.0545  0.3223  0.6683
  492MOL0     C64828   8.472   2.851   3.394 -0.2947 -0.4381  0.2792
  492MOL0     N64829   8.481   2.983   3.323 -0.5541 -0.1499 -0.5634
  492MOL0     C64830   8.426   3.106   3.350  0.5113  0.4283 -0.2643
  492MOL0     C64831   8.476   3.190   3.261 -0.5756 -0.6073  0.4989
  492MOL0     C64832   8.448   3.330   3.244  0.0622  0.7662  0.8027
  492MOL0     C64833   8.303   3.353   3.194  0.1516 -0.1830  0.1273
  492MOL0     C64834   8.289   3.305   3.049  0.4180 -0.9692 -0.1865
  492MOL0     C64835   8.158   3.349   2.984  0.5345  0.2776  0.3263
  492MOL0     O64836   8.050   3.278   3.042 -0.0356  0.0746  0.0861
  492MOL0     C64837   7.927   3.318   2.997  0.4184 -0.3355 -0.3166
  492MOL0     C64838   7.901   3.418   2.905 -0.8256 -0.4209  0.6197
  492MOL0     C64839   7.773   3.454   2.872  0.8761  0.0349  0.1696
  492MOL0     C64840   7.658   3.378   2.918  0.5087  0.1700  0.1477
  492MOL0     C64841   7.521   3.410   2.893  0.0728 -0.2885 -0.1340
  492MOL0     O64842   7.431   3.330   2.948 -0.1346 -1.3647 -0.5888
  492MOL0     C64843   7.304   3.339   2.893 -0.2160 -0.2375  0.2598
  492MOL0     C64844   7.264   3.381   2.759 -0.2474  0.1921 -0.7572
  492MOL0     C64845   7.126   3.396   2.723 -0.4271  0.3653  0.2870
  492MOL0     C64846   7.023   3.362   2.819  0.2171 -0.3750 -0.0813
  492MOL0     O64847   6.890   3.346   2.785  0.5561  0.3467  0.1122
  492MOL0     C64848   6.841   3.399   2.667  1.4060 -0.3140 -0.2148
  492MOL0     C64849   6.681   3.376   2.650 -0.4204 -0.3944  0.5237
  492MOL0     C64850   6.598   3.421   2.776  0.4382 -0.0708  0.0576
  492MOL0     C64851   6.601   3.571   2.801  0.1328 -0.6060  0.5028
  492MOL0     C64852   6.529   3.616   2.927  0.6010 -0.2229  0.0580
  492MOL0     C64853   6.385   3.563   2.955  0.3649 -0.5537 -0.0268
  492MOL0     C64854   6.273   3.611   2.862  0.5038  0.0705  0.5379
  492MOL0     C64855   6.229   3.759   2.890 -0.3279  0.2018  0.9927
  492MOL0    Cl64856   6.056   3.776   2.822 -0.2605  0.1586  0.1927
  492MOL0     C64857   7.065   3.306   2.933  0.1074 -0.1088  1.2328
  492MOL0     C64858   7.202   3.315   2.983 -0.5061  0.3391  0.4660
  492MOL0     O64859   7.498   3.512   2.827  0.3106 -0.7557  0.4519
  492MOL0     C64860   7.685   3.277   3.011 -0.3386  0.5100 -0.2352
  492MOL0     C64861   7.818   3.249   3.051  0.5947 -0.3928  0.1708
  492MOL0     N64862   8.573   3.121   3.194 -0.0001 -0.1288 -0.0511
  492MOL0     N64863   8.578   2.998   3.234 -0.8455  0.4526  0.8379
  492MOL0     C64864   8.534   3.608   3.618 -0.1188  0.2643 -0.8548
  492MOL0     C64865   8.476   3.727   3.581 -0.0131 -0.3955 -0.6384
  492MOL0     C64866   8.097   4.010   3.478  0.8918 -0.2063  0.1366
  492MOL0     C64867   8.157   4.084   3.371 -1.2456  0.0071 -0.1739
  492MOL0     C64868   8.102   4.188   3.301 -0.6657 -0.9213  0.1314
  492MOL0     C64869   7.974   4.226   3.338 -0.4805  0.4052 -0.1652
  492MOL0     O64870   7.911   4.337   3.280  0.1937 -0.4191 -0.6035
  492MOL0     C64871   7.979   4.431   3.198 -0.3679 -0.0775 -0.2842
  492MOL0     C64872   7.976   4.391   3.051 -0.3003  0.1296 -0.4347
  492MOL0     C64873   7.831   4.388   2.994  0.6429 -0.3342 -0.1559
  492MOL0     C64874   7.786   4.507   2.922 -0.1683 -0.8562  0.8496
  492MOL0     C64875   7.684   4.478   2.821 -0.4841 -0.5716  0.7611
  492MOL0     C64876   7.604   4.443   2.733  0.8842  0.1413  0.5254
  492MOL0     C64877   7.913   4.161   3.444 -0.4359  0.5494  0.3431
  492MOL0     C64878   7.980   4.060   3.528  1.4571  0.4327 -0.2134
  492MOL0     H64879   8.154   3.626   3.532  0.0751  4.2712  1.3595
  492MOL0     H64880   8.276   3.398   3.585  0.7890 -1.2249  3.4596
  492MOL0     H64881   8.656   3.451   3.808 -2.8324  0.9589 -0.8324
  492MOL0     H64882   8.733   3.399   3.654 -0.9081 -2.9989 -1.1301
  492MOL0     H64883   8.613   3.203   3.859  2.2226 -4.0271  1.5280
  492MOL0     H64884   8.785   3.227   3.849 -0.3465 -3.1635 -0.9191
  492MOL0     H64885   8.805   3.148   3.649  2.1656 -0.1830  4.3921
  492MOL0     H64886   8.629   3.126   3.624 -0.2005 -0.2557  0.2710
  492MOL0     H64887   8.779   2.959   3.839  1.0332  1.9040 -0.4623
  492MOL0     H64888   8.610   2.963   3.782  0.5280 -1.4972  0.7977
  492MOL0     H64889   8.748   2.783   3.702  1.3983  1.3017  2.0614
  492MOL0     H64890   8.866   2.901   3.653  0.3485 -2.1356  0.6615
  492MOL0     H64891   8.731   2.797   3.442 -0.0194  0.3706 -0.2937
  492MOL0     H64892   8.694   2.973   3.468  2.1178 -0.4940 -1.7274
  492MOL0     H64893   8.533   2.743   3.566 -1.4952 -0.7462 -2.2552
  492MOL0     H64894   8.498   2.914   3.596 -2.6313  0.1194 -0.8017
  492MOL0     H64895   8.368   2.826   3.416 -0.2227 -1.7733 -0.7488
  492MOL0     H64896   8.509   2.771   3.330 -0.0559 -0.2389  0.1679
  492MOL0     H64897   8.347   3.129   3.420 -0.5074 -0.7463 -0.9983
  492MOL0     H64898   8.523   3.364   3.172 -0.1812 -3.1834 -1.6188
  492MOL0     H64899   8.464   3.388   3.336 -1.4629  0.0408  1.5609
  492MOL0     H64900   8.269   3.456   3.212  0.7104  0.0970 -0.3770
  492MOL0     H64901   8.242   3.289   3.258  1.5767 -2.3453 -0.5712
  492MOL0     H64902   8.377   3.352   3.005  0.7117 -1.1159  0.2340
  492MOL0     H64903   8.293   3.196   3.044  0.3984 -0.9978  0.3405
  492MOL0     H64904   8.148   3.336   2.875 -2.9557  0.8051  0.4772
  492MOL0     H64905   8.139   3.457   2.993  1.7329  0.7379 -1.7131
  492MOL0     H64906   7.985   3.468   2.857 -2.3959 -0.1179 -1.9626
  492MOL0     H64907   7.759   3.538   2.805 -1.2378 -1.9920 -2.1590
  492MOL0     H64908   7.348   3.400   2.692  2.0513 -1.4518  1.4665
  492MOL0     H64909   7.095   3.431   2.625  0.1078 -0.2088 -0.0965
  492MOL0     H64910   6.884   3.346   2.582 -0.5570 -2.4555  0.0286
  492MOL0     H64911   6.845   3.508   2.667  1.6064 -0.3201 -0.8648
  492MOL0     H64912   6.674   3.270   2.621  2.8422 -0.1433 -1.6159
  492MOL0     H64913   6.640   3.433   2.566  1.2409  1.7224  1.0797
  492MOL0     H64914   6.654   3.376   2.859  1.0810  4.1165  2.1708
  492MOL0     H64915   6.498   3.377   2.772  0.0803  0.7259  0.0082
  492MOL0     H64916   6.708   3.596   2.810  0.2270 -1.0746  0.6729
  492MOL0     H64917   6.569   3.617   2.707  2.7793 -4.2104 -2.4848
  492MOL0     H64918   6.513   3.724   2.914 -0.8321  0.1054  3.5467
  492MOL0     H64919   6.589   3.605   3.017 -0.2249  0.2995  0.6821
  492MOL0     H64920   6.374   3.603   3.056 -1.2785  3.3113 -1.5459
  492MOL0     H64921   6.399   3.455   2.957  1.4385 -0.4331 -0.2348
  492MOL0     H64922   6.304   3.607   2.757  0.3550  0.7988  0.4629
  492MOL0     H64923   6.191   3.539   2.869  0.9290 -0.7752 -2.0513
  492MOL0     H64924   6.301   3.824   2.840  0.0289 -0.9535 -0.0637
  492MOL0     H64925   6.230   3.789   2.995  4.1467  3.6137  0.3208
  492MOL0     H64926   6.986   3.281   3.004 -2.8268 -3.7419 -2.7563
  492MOL0     H64927   7.208   3.285   3.087 -0.9380 -2.6925 -0.2702
  492MOL0     H64928   7.615   3.208   3.057  2.0860 -1.0841  1.2695
  492MOL0     H64929   7.841   3.168   3.119  4.3253  1.2209  1.0754
  492MOL0     H64930   8.642   3.608   3.614  0.1692  1.6854  2.7494
  492MOL0     H64931   8.545   3.808   3.565  0.6197 -1.1505 -1.9649
  492MOL0     H64932   8.256   4.054   3.339 -1.3859  0.1900 -0.7912
  492MOL0     H64933   8.153   4.239   3.219  0.1557  1.5790  2.0433
  492MOL0     H64934   8.086   4.441   3.221 -0.5670  1.0673  0.1832
  492MOL0     H64935   7.933   4.530   3.204  0.3002  0.6192 -4.1906
  492MOL0     H64936   8.041   4.459   2.995 -0.3268  0.8345  0.3609
  492MOL0     H64937   8.019   4.292   3.038  2.1999  1.2650 -1.4494
  492MOL0     H64938   7.751   4.368   3.066 -1.4818 -0.1723 -2.3602
  492MOL0     H64939   7.837   4.304   2.925  1.9948  1.0289 -1.7936
  492MOL0     H64940   7.746   4.587   2.985  1.5691  0.7213  0.0130
  492MOL0     H64941   7.874   4.553   2.877 -0.8039 -0.5594 -0.1380
  492MOL0     H64942   7.536   4.409   2.658 -0.0735 -1.4402  2.0315
  492MOL0     H64943   7.811   4.194   3.461 -0.7322  0.5935 -1.3657
  492MOL0     H64944   7.923   4.018   3.610 -4.2143  0.7133 -3.4735
  493MOL0     O64945   0.926   2.429   5.749 -0.7105  0.1563  0.0459
  493MOL0     C64946   0.993   2.515   5.684  0.1867 -0.4918  0.2701
  493MOL0     O64947   0.947   2.637   5.658  0.2620  0.3137  0.5273
  493MOL0     C64948   0.832   2.681   5.716  0.1676  0.4816  0.1009
  493MOL0     C64949   0.713   2.654   5.645 -0.1006  0.3499  0.4382
  493MOL0     C64950   0.593   2.707   5.696  0.1027  0.6017 -0.2425
  493MOL0     C64951   0.595   2.788   5.812 -0.4964 -0.0480  0.7175
  493MOL0     O64952   0.485   2.859   5.855  0.5408  0.6278  0.3188
  493MOL0     C64953   0.364   2.784   5.862  0.6362 -0.3553  0.5555
  493MOL0     C64954   0.266   2.849   5.968  0.6936 -0.0368  0.0809
  493MOL0     C64955   0.237   2.989   5.926  0.0534 -0.4664 -0.6152
  493MOL0     C64956   0.167   3.060   6.041  0.2491  0.2391 -0.4121
  493MOL0     C64957   0.074   3.178   6.011 -0.3505 -0.0239 -0.4223
  493MOL0     C64958   0.026   3.244   6.138  0.4282 -0.6646 -0.2754
  493MOL0     C64959  -0.077   3.350   6.113 -0.1621 -0.3891  0.2063
  493MOL0     C64960  -0.220   3.279   6.098 -0.2024 -0.3038 -0.0192
  493MOL0     N64961  -0.336   3.373   6.093  0.1288 -0.6614  0.1983
  493MOL0     C64962  -0.461   3.351   6.035 -0.2808 -0.0458  0.2113
  493MOL0     C64963  -0.533   3.469   6.058 -0.0397 -0.2292  0.2558
  493MOL0     C64964  -0.669   3.499   6.019  0.6171  0.7700  0.3747
  493MOL0     C64965  -0.677   3.561   5.872  0.2982  0.1287  0.4941
  493MOL0     C64966  -0.628   3.703   5.859 -0.5227 -0.1505 -0.3074
  493MOL0     C64967  -0.701   3.806   5.940 -0.1582 -0.3540 -0.3327
  493MOL0     O64968  -0.676   3.927   5.878  0.6401 -0.2413 -1.0754
  493MOL0     C64969  -0.771   4.023   5.915 -0.9239  0.1046  0.0902
  493MOL0     C64970  -0.906   4.014   5.889  0.3198  0.6548  0.5977
  493MOL0     C64971  -0.993   4.116   5.907  0.0641 -0.6121  0.1460
  493MOL0     C64972  -0.947   4.236   5.969 -0.6356  0.3744  0.4292
  493MOL0     C64973  -1.035   4.345   6.017  0.5754  0.8016 -1.0235
  493MOL0     O64974  -1.143   4.365   5.944 -0.3367  0.3270 -0.3230
  493MOL0     C64975  -1.241   4.451   5.986  0.1290 -0.4167  0.0485
  493MOL0     C64976  -1.271   4.573   5.928 -0.0923 -0.3917  0.3620
  493MOL0     C64977  -1.384   4.643   5.972  0.2102 -0.4582  0.4573
  493MOL0     C64978  -1.467   4.594   6.081  0.4867 -1.0520 -0.6790
  493MOL0     O64979  -1.581   4.668   6.111 -0.2324 -0.1379 -0.4146
  493MOL0     C64980  -1.687   4.590   6.174  0.8006  0.4752  0.2936
  493MOL0     C64981  -1.813   4.676   6.200 -0.4626 -0.0014  0.0904
  493MOL0     C64982  -1.863   4.736   6.075  0.2739 -0.0996  0.0450
  493MOL0     C64983  -1.996   4.809   6.100  0.1932  0.4891 -0.4421
  493MOL0     C64984  -2.037   4.901   5.983  0.5560  1.2295 -0.9502
  493MOL0     C64985  -2.172   4.975   5.989 -0.2563  0.8441  0.2213
  493MOL0     C64986  -2.201   5.117   5.926 -1.0658  0.7834 -0.2251
  493MOL0     C64987  -2.095   5.154   5.820 -0.9199 -0.7105 -0.5001
  493MOL0    Cl64988  -2.081   5.064   5.670 -0.4352  0.4110 -0.0292
  493MOL0     C64989  -1.426   4.477   6.144 -0.2369 -0.6550 -0.1015
  493MOL0     C64990  -1.320   4.398   6.084  0.9048 -0.4574 -0.2446
  493MOL0     O64991  -1.020   4.400   6.129  0.2607 -0.4822  0.0495
  493MOL0     C64992  -0.807   4.244   6.003 -0.4655  0.4224  0.5928
  493MOL0     C64993  -0.716   4.139   5.971 -0.0994 -0.4533 -0.1010
  493MOL0     N64994  -0.448   3.555   6.132  0.9611  0.3561 -0.3552
  493MOL0     N64995  -0.336   3.496   6.146 -0.5726 -0.7753  0.5263
  493MOL0     C64996   0.711   2.812   5.876  0.8777  0.0391  0.3538
  493MOL0     C64997   0.831   2.754   5.832  0.3393 -0.3078 -0.4885
  493MOL0     C64998   1.113   2.479   5.597  0.0565  0.8273 -0.2401
  493MOL0     C64999   1.139   2.336   5.588  0.4779  0.3970 -0.6468
  493MOL0     C65000   1.244   2.295   5.508  0.1815 -0.5631 -0.4856
  493MOL0     C65001   1.319   2.391   5.434 -0.1618 -0.2304 -0.0787
  493MOL0     O65002   1.415   2.357   5.341  0.2179  0.7487  0.3733
  493MOL0     C65003   1.406   2.228   5.277  0.8618 -0.6508  0.2248
  493MOL0     C65004   1.514   2.126   5.315  0.3093 -1.1456 -0.2223
  493MOL0     C65005   1.654   2.158   5.265  0.7772 -0.3145 -0.3775
  493MOL0     C65006   1.768   2.045   5.282  0.4289  0.5809  0.4081
  493MOL0     C65007   1.901   2.099   5.252  0.6649 -0.6628  0.4629
  493MOL0     C65008   2.006   2.150   5.227 -0.3064 -0.4889  0.1689
  493MOL0     C65009   1.291   2.529   5.446 -0.1197 -0.1152 -0.0915
  493MOL0     C65010   1.193   2.571   5.531  0.5103  0.0827  0.3598
  493MOL0     H65011   0.705   2.599   5.552 -2.1767  3.7831 -1.6193
  493MOL0     H65012   0.500   2.688   5.644 -0.5559  1.3746  0.6240
  493MOL0     H65013   0.379   2.684   5.903  0.0576 -1.3587 -1.5525
  493MOL0     H65014   0.322   2.785   5.761  1.0943 -1.3231  0.3469
  493MOL0     H65015   0.319   2.845   6.063  0.6977  1.4676  0.1683
  493MOL0     H65016   0.174   2.789   5.971 -0.1679  0.8491 -3.4300
  493MOL0     H65017   0.166   2.975   5.844 -0.3239 -2.3317 -0.0305
  493MOL0     H65018   0.325   3.048   5.897 -0.1264  0.4557  0.6685
  493MOL0     H65019   0.126   2.986   6.111 -0.3887 -0.0447 -1.0641
  493MOL0     H65020   0.241   3.113   6.100 -1.1904  1.4796  0.3472
  493MOL0     H65021  -0.010   3.146   5.950 -0.2026  0.2015 -0.7472
  493MOL0     H65022   0.129   3.259   5.962 -1.7111  2.2505  1.6216
  493MOL0     H65023   0.111   3.296   6.181 -0.6333  1.8952 -1.0751
  493MOL0     H65024  -0.008   3.168   6.209 -0.2222 -0.4658 -0.3609
  493MOL0     H65025  -0.091   3.423   6.193 -0.4129  0.4795 -0.6143
  493MOL0     H65026  -0.052   3.401   6.020  2.8180  0.2870  1.2872
  493MOL0     H65027  -0.233   3.210   6.182 -1.0697  1.8973  1.7637
  493MOL0     H65028  -0.222   3.215   6.009 -0.3510  0.4706 -0.5832
  493MOL0     H65029  -0.497   3.261   5.986 -2.8960 -0.9347  3.4047
  493MOL0     H65030  -0.714   3.568   6.090  0.0319  0.7770 -0.0000
  493MOL0     H65031  -0.729   3.408   6.014  1.5187  0.2206 -1.1442
  493MOL0     H65032  -0.783   3.560   5.844  0.0068 -1.8477  1.4760
  493MOL0     H65033  -0.629   3.490   5.804 -0.1276  2.1381 -2.0746
  493MOL0     H65034  -0.533   3.709   5.913 -1.7747  0.5101  1.9565
  493MOL0     H65035  -0.610   3.731   5.755  0.2755  0.3617 -0.0440
  493MOL0     H65036  -0.670   3.804   6.045  2.1274 -0.7562 -0.9598
  493MOL0     H65037  -0.807   3.777   5.932 -0.0113 -1.3779  0.9673
  493MOL0     H65038  -0.952   3.922   5.855  1.0418 -0.3969  2.3507
  493MOL0     H65039  -1.098   4.099   5.885  0.6758 -2.3142 -1.7554
  493MOL0     H65040  -1.221   4.612   5.841 -0.0794 -0.6882  0.2341
  493MOL0     H65041  -1.405   4.738   5.924  2.7951  0.0897  0.2734
  493MOL0     H65042  -1.656   4.544   6.268 -0.7890 -1.3973 -0.0351
  493MOL0     H65043  -1.701   4.500   6.113  1.8311  0.8923 -0.5875
  493MOL0     H65044  -1.792   4.756   6.271  2.8814  2.0352 -2.8732
  493MOL0     H65045  -1.888   4.607   6.240  0.5674 -2.2465 -1.6305
  493MOL0     H65046  -1.870   4.664   5.993 -1.1190 -0.4439  0.4311
  493MOL0     H65047  -1.794   4.810   6.035 -1.8719  1.4651 -0.9330
  493MOL0     H65048  -2.080   4.740   6.115 -0.2341  1.1618  0.3308
  493MOL0     H65049  -1.982   4.866   6.192  4.9926 -2.7097  1.2478
  493MOL0     H65050  -2.037   4.842   5.891  0.5725  0.0714 -0.2200
  493MOL0     H65051  -1.956   4.974   5.970  3.1159 -1.4832 -1.4435
  493MOL0     H65052  -2.201   4.985   6.094  0.9503 -0.0997  0.6650
  493MOL0     H65053  -2.250   4.911   5.947 -1.2375  3.0498 -1.6128
  493MOL0     H65054  -2.297   5.119   5.872 -1.8221 -4.8155  0.3189
  493MOL0     H65055  -2.199   5.198   6.000  1.5747  1.0017 -0.4349
  493MOL0     H65056  -2.002   5.167   5.876 -1.0134 -1.5911 -0.1166
  493MOL0     H65057  -2.122   5.255   5.788 -1.6703 -0.9619 -0.6700
  493MOL0     H65058  -1.469   4.448   6.239 -1.7223 -1.0201 -0.8604
  493MOL0     H65059  -1.289   4.309   6.137  0.7256 -1.2014 -1.3514
  493MOL0     H65060  -0.782   4.332   6.060 -0.9768  1.0954 -0.1891
  493MOL0     H65061  -0.608   4.141   5.981 -0.2394 -0.5569  1.6721
  493MOL0     H65062   0.706   2.883   5.958 -0.7973 -2.3871  2.5080
  493MOL0     H65063   0.930   2.772   5.872  0.1853 -1.6760  0.5851
  493MOL0     H65064   1.082   2.260   5.642  0.4691 -0.5710 -1.9708
  493MOL0     H65065   1.286   2.195   5.501  0.6408 -0.3040 -1.8461
  493MOL0     H65066   1.431   2.246   5.172  0.7078 -3.2833 -0.3451
  493MOL0     H65067   1.306   2.185   5.285  1.4387 -2.1142 -0.0673
  493MOL0     H65068   1.508   2.106   5.422 -0.0813  0.1170  0.0076
  493MOL0     H65069   1.478   2.036   5.263  2.5759 -2.2248 -0.0392
  493MOL0     H65070   1.687   2.236   5.335 -0.6672  0.1224 -0.1385
  493MOL0     H65071   1.643   2.181   5.159 -1.7905  0.7203  0.0460
  493MOL0     H65072   1.757   2.022   5.389  0.3138 -0.2327  0.2297
  493MOL0     H65073   1.753   1.949   5.231 -1.8981  2.1585 -2.1088
  493MOL0     H65074   2.092   2.204   5.193  0.0825  0.0880  1.9437
  493MOL0     H65075   1.344   2.590   5.373 -1.6061 -1.4955 -2.4773
  493MOL0     H65076   1.165   2.676   5.531 -1.3094 -0.3665 -0.1708
  494MOL0     O65077   4.458  11.094   4.390  0.3562  0.1289  0.3851
  494MOL0     C65078   4.457  11.063   4.512  0.0349  0.2084 -1.3847
  494MOL0     O65079   4.346  11.062   4.598 -0.3142  0.1156  0.4995
  494MOL0     C65080   4.215  11.054   4.550  0.3682 -0.2928 -0.9981
  494MOL0     C65081   4.180  10.945   4.467  0.3815  0.4991 -0.0998
  494MOL0     C65082   4.046  10.927   4.422  0.5981 -0.1379 -0.1708
  494MOL0     C65083   3.943  11.027   4.462  0.8000 -0.0967  0.3683
  494MOL0     O65084   3.808  11.003   4.417 -0.2519 -0.4852  0.8308
  494MOL0     C65085   3.703  11.088   4.456  0.0067  0.2951  0.0967
  494MOL0     C65086   3.590  10.992   4.485 -0.5113 -0.5276  0.1521
  494MOL0     C65087   3.477  11.072   4.553 -0.1520  0.1194  0.4596
  494MOL0     C65088   3.408  11.157   4.444 -0.6168 -0.3470  0.3603
  494MOL0     C65089   3.271  11.200   4.481  0.2662  0.5247  0.0647
  494MOL0     C65090   3.167  11.084   4.452  0.1220 -1.2124 -0.5523
  494MOL0     C65091   3.019  11.098   4.507 -1.1756  0.0148  0.4902
  494MOL0     C65092   2.945  11.220   4.458  0.1723 -0.0802  0.0262
  494MOL0     N65093   2.807  11.218   4.508  0.5679  0.1718  0.0426
  494MOL0     C65094   2.716  11.126   4.468 -0.1908  0.3772 -0.2174
  494MOL0     C65095   2.597  11.176   4.525 -0.2659  0.0392 -0.5678
  494MOL0     C65096   2.459  11.113   4.502  0.7169  0.9634  0.2043
  494MOL0     C65097   2.435  10.959   4.477  0.0042  0.4454 -0.1502
  494MOL0     C65098   2.454  10.877   4.606 -0.0939 -0.6100  0.6772
  494MOL0     C65099   2.599  10.859   4.658 -0.6929  0.2038  0.1917
  494MOL0     O65100   2.679  10.792   4.557 -0.6689  0.1066 -1.5020
  494MOL0     C65101   2.816  10.787   4.579 -0.3685  0.3144 -0.1153
  494MOL0     C65102   2.885  10.727   4.482  0.7713 -0.5620 -0.6392
  494MOL0     C65103   3.023  10.705   4.481 -0.0166 -0.0566 -0.8078
  494MOL0     C65104   3.099  10.727   4.600 -1.5142  0.9557 -0.1035
  494MOL0     C65105   3.241  10.696   4.611 -0.4049  0.3453 -0.4308
  494MOL0     O65106   3.303  10.631   4.506  0.4992  0.0725  0.0503
  494MOL0     C65107   3.438  10.601   4.522  0.6247  1.5806  0.4757
  494MOL0     C65108   3.486  10.517   4.624  0.5656  1.0450  0.6061
  494MOL0     C65109   3.620  10.482   4.626  0.1145  0.1460  0.8915
  494MOL0     C65110   3.715  10.538   4.534  0.0873  0.4408  0.0909
  494MOL0     O65111   3.852  10.520   4.548  0.1423  0.4419  0.3370
  494MOL0     C65112   3.885  10.386   4.580  0.4421  0.6384 -0.2612
  494MOL0     C65113   4.034  10.365   4.546 -0.1905  0.1523  0.0733
  494MOL0     C65114   4.073  10.225   4.592  0.7376 -0.4236  0.0032
  494MOL0     C65115   4.223  10.226   4.565 -0.1013 -0.0007  0.1988
  494MOL0     C65116   4.282  10.086   4.579  0.4079  0.8065  0.8910
  494MOL0     C65117   4.286  10.026   4.717  0.4425  0.9199 -0.8698
  494MOL0     C65118   4.153   9.996   4.788 -0.4318  0.1174  0.1546
  494MOL0     C65119   4.130   9.852   4.833 -0.0311 -0.7649  0.6755
  494MOL0    Cl65120   4.276   9.792   4.909 -0.4033 -0.2705  0.1648
  494MOL0     C65121   3.661  10.633   4.444  0.7924 -0.3716  0.8378
  494MOL0     C65122   3.525  10.666   4.437 -0.9279  0.0687 -0.9375
  494MOL0     O65123   3.301  10.731   4.717 -0.4518  0.0907 -0.6838
  494MOL0     C65124   3.026  10.778   4.711 -1.0430  0.1683  0.0876
  494MOL0     C65125   2.892  10.818   4.696 -0.1014 -0.0560  0.4291
  494MOL0     N65126   2.615  11.296   4.583  0.2444  0.6961  0.5424
  494MOL0     N65127   2.739  11.323   4.564  0.5138  0.0939 -0.4167
  494MOL0     C65128   3.986  11.147   4.523 -0.5083  1.0727  0.2529
  494MOL0     C65129   4.117  11.148   4.572 -0.1635 -0.7359  0.5956
  494MOL0     C65130   4.584  11.034   4.587  0.4434  0.4010 -0.0289
  494MOL0     C65131   4.708  11.016   4.520 -0.0039 -0.2253  0.3116
  494MOL0     C65132   4.821  10.979   4.594  0.0548  0.0437 -0.7730
  494MOL0     C65133   4.822  10.964   4.729 -0.1396 -0.5567 -0.0601
  494MOL0     O65134   4.925  10.927   4.811 -0.0549 -0.1864  0.2960
  494MOL0     C65135   5.059  10.956   4.775  0.0872 -0.1041 -0.1663
  494MOL0     C65136   5.128  10.971   4.906  1.0920 -0.5804 -0.1578
  494MOL0     C65137   5.263  11.017   4.888 -0.1207 -0.5215 -0.3721
  494MOL0     C65138   5.362  10.984   4.998  0.9428  0.1453  0.0224
  494MOL0     C65139   5.489  11.052   4.961 -0.3175  0.5599  1.5615
  494MOL0     C65140   5.591  11.120   4.952  0.4072 -0.0075  0.4549
  494MOL0     C65141   4.704  10.981   4.801  0.5329 -0.4165  0.3233
  494MOL0     C65142   4.589  11.017   4.726 -0.0160  1.0941 -1.0000
  494MOL0     H65143   4.254  10.872   4.435 -0.1529  0.3687 -1.0698
  494MOL0     H65144   4.017  10.844   4.358  1.2490 -3.1704  3.1823
  494MOL0     H65145   3.670  11.157   4.377 -4.2842 -0.3347  1.1251
  494MOL0     H65146   3.718  11.140   4.551 -1.9244  0.5766  0.2885
  494MOL0     H65147   3.631  10.914   4.550  2.4049  0.9581  0.2523
  494MOL0     H65148   3.549  10.946   4.394  0.2954 -1.2509  0.1384
  494MOL0     H65149   3.505  11.135   4.638 -0.1035  1.4084 -0.4935
  494MOL0     H65150   3.404  11.006   4.601 -1.2932  0.6278 -0.5588
  494MOL0     H65151   3.466  11.249   4.439 -2.1562  0.6449  0.0098
  494MOL0     H65152   3.411  11.122   4.340 -2.1453  1.3466 -0.3080
  494MOL0     H65153   3.248  11.292   4.427 -1.7912  0.4563  0.7145
  494MOL0     H65154   3.255  11.212   4.589 -1.2118 -1.5054  0.1305
  494MOL0     H65155   3.198  10.988   4.494  0.6820  0.0701  2.1900
  494MOL0     H65156   3.157  11.074   4.343  0.2402  0.1270 -0.7140
  494MOL0     H65157   2.966  11.007   4.477 -2.8715  0.5939  1.6020
  494MOL0     H65158   3.037  11.087   4.615  0.5243  0.4215  0.2825
  494MOL0     H65159   2.951  11.212   4.349 -0.8532  0.6189 -0.0951
  494MOL0     H65160   2.995  11.314   4.482  3.8038 -1.0504 -2.7959
  494MOL0     H65161   2.733  11.036   4.409  0.0961 -0.7661  1.5188
  494MOL0     H65162   2.422  11.161   4.411 -1.3041 -1.3460 -0.3100
  494MOL0     H65163   2.385  11.142   4.577 -1.0754  2.2051 -1.9356
  494MOL0     H65164   2.498  10.912   4.401 -1.2550 -0.4882 -0.6432
  494MOL0     H65165   2.334  10.945   4.439  0.2464 -1.0738 -0.3062
  494MOL0     H65166   2.392  10.929   4.680 -2.0292 -0.4440 -0.9676
  494MOL0     H65167   2.420  10.776   4.585  3.4913 -2.2023  1.6826
  494MOL0     H65168   2.591  10.792   4.744 -1.6749  0.2911  0.1739
  494MOL0     H65169   2.645  10.953   4.690 -0.5538 -0.6214  2.6082
  494MOL0     H65170   2.831  10.693   4.394  0.9773  2.0031 -1.8414
  494MOL0     H65171   3.078  10.661   4.398  1.9720  0.6598  0.0499
  494MOL0     H65172   3.422  10.462   4.692  0.9398 -3.3505 -2.2037
  494MOL0     H65173   3.636  10.413   4.708 -4.1713 -2.1718  0.0214
  494MOL0     H65174   3.824  10.320   4.517  2.5703 -1.1315 -0.5669
  494MOL0     H65175   3.853  10.370   4.684  0.9389  0.4407 -0.1376
  494MOL0     H65176   4.087  10.446   4.597  0.4888  0.2115 -0.7233
  494MOL0     H65177   4.052  10.382   4.440 -3.1304  3.1173 -0.0918
  494MOL0     H65178   4.018  10.147   4.538 -4.1283  3.0373 -0.7157
  494MOL0     H65179   4.042  10.226   4.697  3.3126  1.7541  0.8633
  494MOL0     H65180   4.248  10.270   4.468  2.4124  0.3456  0.9450
  494MOL0     H65181   4.274  10.285   4.641  0.4026 -2.2120  1.6697
  494MOL0     H65182   4.380  10.081   4.531  0.7825 -1.5131  1.7759
  494MOL0     H65183   4.225  10.018   4.515  2.7214  0.4857 -0.9443
  494MOL0     H65184   4.350  10.091   4.778  3.5739  1.2179 -4.1649
  494MOL0     H65185   4.343   9.933   4.709  0.1291  0.2956  2.5477
  494MOL0     H65186   4.138  10.057   4.878 -0.8720  1.8942 -1.0798
  494MOL0     H65187   4.065  10.015   4.725 -0.4872 -0.1145  0.1617
  494MOL0     H65188   4.105   9.797   4.742  1.8621 -2.1768  0.9596
  494MOL0     H65189   4.044   9.842   4.900 -2.4831 -1.3855 -2.3045
  494MOL0     H65190   3.732  10.679   4.376 -0.4266 -2.0333 -1.7019
  494MOL0     H65191   3.493  10.743   4.367  2.5576  1.7188 -0.9338
  494MOL0     H65192   3.079  10.789   4.805  0.3341  0.1342 -0.6670
  494MOL0     H65193   2.839  10.867   4.778 -0.2194  3.0134 -1.3203
  494MOL0     H65194   3.925  11.236   4.538 -1.2712  0.4538  0.9081
  494MOL0     H65195   4.145  11.235   4.631 -0.3654 -0.9947  1.0888
  494MOL0     H65196   4.713  11.025   4.412 -2.1093  2.0525  0.3255
  494MOL0     H65197   4.918  10.972   4.546  0.5163  3.3331 -0.5366
  494MOL0     H65198   5.048  11.056   4.730 -2.2031 -0.0220  0.4437
  494MOL0     H65199   5.109  10.892   4.702 -2.3016 -2.5178  0.1488
  494MOL0     H65200   5.076  11.042   4.971  2.8665 -0.2400  0.9829
  494MOL0     H65201   5.125  10.872   4.953  0.6603 -0.6354 -0.3029
  494MOL0     H65202   5.259  11.125   4.876  1.2360 -0.2840  1.0700
  494MOL0     H65203   5.309  10.969   4.801  2.2999  0.2483  0.4248
  494MOL0     H65204   5.329  11.034   5.090  0.4231 -0.2461  0.0566
  494MOL0     H65205   5.359  10.875   5.007 -0.5882  0.1897  0.3030
  494MOL0     H65206   5.688  11.165   4.948 -0.5395  2.0732 -2.3605
  494MOL0     H65207   4.702  10.960   4.907 -1.4107  0.2561  0.4646
  494MOL0     H65208   4.494  11.026   4.778 -0.6786  0.1522 -2.0115
  495MOL0     O65209  10.465   2.335   7.102 -0.2660 -0.6534 -0.1511
  495MOL0     C65210  10.546   2.339   7.188  0.4925  0.2653 -0.2593
  495MOL0     O65211  10.521   2.359   7.321 -0.1966  0.7043  0.5896
  495MOL0     C65212  10.391   2.385   7.349 -0.0342 -0.2615  0.7858
  495MOL0     C65213  10.346   2.514   7.340 -0.1638 -0.9869  0.5300
  495MOL0     C65214  10.212   2.549   7.391 -0.1085  0.2782  0.0802
  495MOL0     C65215  10.125   2.449   7.437 -1.1482  0.1477  0.6770
  495MOL0     O65216   9.995   2.470   7.469 -0.0512 -0.3693 -0.9529
  495MOL0     C65217   9.972   2.515   7.607 -1.1904  0.4496 -0.0443
  495MOL0     C65218   9.817   2.510   7.633  0.2220  0.2636 -0.4789
  495MOL0     C65219   9.739   2.404   7.565 -0.2347  0.3882 -0.4084
  495MOL0     C65220   9.610   2.372   7.648  0.4229 -0.6386  0.0017
  495MOL0     C65221   9.508   2.295   7.565 -0.3335  0.3091 -0.0278
  495MOL0     C65222   9.384   2.387   7.535 -0.1944 -0.6708  0.4146
  495MOL0     C65223   9.302   2.411   7.662 -0.5236 -0.4510  0.4380
  495MOL0     C65224   9.178   2.511   7.644 -0.2850 -0.1979  0.2895
  495MOL0     N65225   9.231   2.643   7.624 -0.2408 -0.2213  0.6659
  495MOL0     C65226   9.202   2.726   7.514  0.2980  0.3287  0.3166
  495MOL0     C65227   9.282   2.835   7.541  0.4948 -0.4477 -0.1735
  495MOL0     C65228   9.276   2.965   7.464 -0.4276 -0.3863  1.3387
  495MOL0     C65229   9.414   3.004   7.417 -0.0346 -0.5402 -0.0582
  495MOL0     C65230   9.484   2.901   7.323  0.1638 -0.0944  0.2952
  495MOL0     C65231   9.623   2.937   7.277  0.2234  0.1025  0.1784
  495MOL0     O65232   9.711   2.826   7.269 -0.3752 -0.0070 -0.7826
  495MOL0     C65233   9.840   2.843   7.227 -0.8181  0.1921  0.6413
  495MOL0     C65234   9.921   2.730   7.209  0.6127 -0.2676 -1.1293
  495MOL0     C65235  10.045   2.749   7.156 -0.6007  0.0197 -0.1604
  495MOL0     C65236  10.106   2.875   7.120  0.8090 -0.4937 -0.1319
  495MOL0     C65237  10.233   2.868   7.051  0.9338 -1.3982  0.3775
  495MOL0     O65238  10.284   2.744   7.008  0.5085  0.3179 -0.5327
  495MOL0     C65239  10.408   2.733   6.955 -1.0454 -0.0568 -0.1750
  495MOL0     C65240  10.427   2.715   6.815  0.3236 -0.4943 -0.4064
  495MOL0     C65241  10.549   2.686   6.764 -0.1788  0.2547 -0.5519
  495MOL0     C65242  10.664   2.691   6.842 -0.3577 -0.5139  0.5693
  495MOL0     O65243  10.784   2.671   6.779  0.3379  0.3333  0.0588
  495MOL0     C65244  10.910   2.657   6.846 -1.0118 -0.5477 -0.3117
  495MOL0     C65245  11.019   2.645   6.735 -0.8496 -0.2405  0.4083
  495MOL0     C65246  11.021   2.773   6.646  0.9797 -0.4216  0.1804
  495MOL0     C65247  11.100   2.737   6.519  0.6102  0.5680  0.1768
  495MOL0     C65248  11.139   2.867   6.440 -0.0512  0.3055 -1.0629
  495MOL0     C65249  11.192   2.848   6.294  0.1217 -0.6169 -1.2769
  495MOL0     C65250  11.093   2.772   6.205 -0.0825 -0.0802 -0.9347
  495MOL0     C65251  11.142   2.744   6.061 -0.5080  0.2553 -0.1502
  495MOL0    Cl65252  11.170   2.901   5.983  0.0936  0.9092 -0.0550
  495MOL0     C65253  10.650   2.701   6.984  0.1563 -0.2005  0.8085
  495MOL0     C65254  10.524   2.718   7.039 -0.5645  0.5798  0.4495
  495MOL0     O65255  10.292   2.974   7.037  0.0775 -0.3576 -0.1244
  495MOL0     C65256  10.031   2.985   7.149  1.2105  0.2947  0.5254
  495MOL0     C65257   9.897   2.977   7.198  0.0649 -0.0462 -0.0868
  495MOL0     N65258   9.366   2.820   7.641 -1.1588 -0.4381  0.0883
  495MOL0     N65259   9.328   2.710   7.696 -1.0726  1.0840  0.6034
  495MOL0     C65260  10.175   2.319   7.435  0.3778  0.4139 -0.5382
  495MOL0     C65261  10.306   2.284   7.400  0.3340 -0.6492 -0.8149
  495MOL0     C65262  10.688   2.335   7.145  1.4268 -0.8261  0.7050
  495MOL0     C65263  10.782   2.321   7.242 -0.6686  0.3302 -0.6039
  495MOL0     C65264  10.920   2.315   7.196  0.3774  0.5127 -0.4400
  495MOL0     C65265  10.957   2.322   7.063 -0.0591 -0.8135  0.2328
  495MOL0     O65266  11.086   2.339   7.021 -0.1831  0.3404  0.4194
  495MOL0     C65267  11.187   2.357   7.111  0.6578 -0.0500  0.3981
  495MOL0     C65268  11.304   2.401   7.028  0.2797 -0.1879 -0.1852
  495MOL0     C65269  11.419   2.302   7.007  0.9689  0.4669  0.0730
  495MOL0     C65270  11.512   2.276   7.123  0.1207 -0.7648  0.1199
  495MOL0     C65271  11.611   2.178   7.089 -0.1217  0.5244  0.6936
  495MOL0     C65272  11.687   2.089   7.049  0.3948  0.5049 -0.1522
  495MOL0     C65273  10.865   2.330   6.968  0.3828 -0.1594  0.3577
  495MOL0     C65274  10.726   2.346   7.009  0.8935  0.3212 -0.8902
  495MOL0     H65275  10.411   2.593   7.305 -0.6160 -0.5613  0.6325
  495MOL0     H65276  10.174   2.650   7.383  1.0645  0.6724 -0.8029
  495MOL0     H65277  10.018   2.610   7.635 -2.4355  1.3703 -1.0483
  495MOL0     H65278  10.025   2.447   7.675  0.8857 -1.5535 -3.3480
  495MOL0     H65279   9.772   2.607   7.611 -0.1262 -0.0088 -0.9884
  495MOL0     H65280   9.803   2.499   7.741  4.3941 -0.6604  0.1329
  495MOL0     H65281   9.795   2.315   7.535 -1.8422 -2.0950  3.2889
  495MOL0     H65282   9.715   2.442   7.465 -0.2928 -0.1163 -0.5884
  495MOL0     H65283   9.630   2.311   7.736 -2.6053 -0.9112  0.6190
  495MOL0     H65284   9.570   2.469   7.679 -1.1672 -0.3439 -2.6518
  495MOL0     H65285   9.474   2.206   7.620 -1.1195  1.2401  1.0402
  495MOL0     H65286   9.552   2.261   7.471 -1.2730 -0.5384 -0.1783
  495MOL0     H65287   9.328   2.338   7.455  2.5892 -1.1360 -1.3977
  495MOL0     H65288   9.418   2.481   7.489 -1.5730 -0.2059  0.3212
  495MOL0     H65289   9.272   2.316   7.707  1.9268 -0.4643  2.2977
  495MOL0     H65290   9.371   2.446   7.740 -0.1280 -1.3502  0.5105
  495MOL0     H65291   9.119   2.514   7.737  0.0881  0.8775  0.5032
  495MOL0     H65292   9.117   2.479   7.559 -2.7467  3.4099  0.4475
  495MOL0     H65293   9.139   2.716   7.426  0.8772 -2.0015  0.1089
  495MOL0     H65294   9.228   3.034   7.535  0.6844  1.3697  0.4733
  495MOL0     H65295   9.209   2.951   7.379 -1.9708  0.9021  2.2714
  495MOL0     H65296   9.482   3.029   7.498 -0.7281  1.0412  0.0755
  495MOL0     H65297   9.400   3.091   7.351  1.2165  1.0462  1.6866
  495MOL0     H65298   9.501   2.806   7.375 -1.0525 -1.2990 -1.4082
  495MOL0     H65299   9.419   2.873   7.240  0.2932  1.5300 -0.4109
  495MOL0     H65300   9.670   3.014   7.339 -0.0747  1.9311 -1.7323
  495MOL0     H65301   9.599   2.988   7.183  0.9229  1.3669  0.6650
  495MOL0     H65302   9.884   2.630   7.231  4.1263 -0.9879  2.7121
  495MOL0     H65303  10.092   2.654   7.134  1.0250  0.8874 -0.6104
  495MOL0     H65304  10.350   2.697   6.741  0.8099  1.4551 -1.4341
  495MOL0     H65305  10.560   2.663   6.658 -2.2289 -0.8628 -0.5787
  495MOL0     H65306  10.894   2.568   6.908  1.2635 -1.7156 -1.2966
  495MOL0     H65307  10.927   2.747   6.905 -2.3168 -0.6204  0.2013
  495MOL0     H65308  11.001   2.555   6.676 -2.0475 -0.1400  0.5943
  495MOL0     H65309  11.112   2.620   6.787 -0.4797  0.9936  0.3836
  495MOL0     H65310  11.063   2.848   6.714  0.9963  0.9206 -1.2630
  495MOL0     H65311  10.917   2.798   6.624  0.3507 -0.8935  2.3469
  495MOL0     H65312  11.197   2.693   6.543  1.1674  1.4837 -0.3621
  495MOL0     H65313  11.043   2.666   6.459  2.3553 -0.9020  0.1863
  495MOL0     H65314  11.231   2.898   6.489 -0.3122 -1.6444  0.8002
  495MOL0     H65315  11.064   2.946   6.452  0.6446  0.6854  1.4669
  495MOL0     H65316  11.287   2.795   6.308  0.5400  0.5737  1.0948
  495MOL0     H65317  11.212   2.948   6.253  2.9266 -0.6075 -0.1524
  495MOL0     H65318  11.079   2.672   6.248 -0.7698  0.1250 -0.6722
  495MOL0     H65319  10.989   2.803   6.211 -1.5673 -4.5420  2.7223
  495MOL0     H65320  11.064   2.681   6.015 -0.6441  1.4226 -1.5909
  495MOL0     H65321  11.235   2.688   6.066  0.8773  2.2179 -1.9779
  495MOL0     H65322  10.740   2.707   7.044  1.5857  1.2935 -1.3239
  495MOL0     H65323  10.520   2.717   7.147 -1.1177  0.1687  0.4317
  495MOL0     H65324  10.077   3.082   7.135  1.6691  0.0263  0.1278
  495MOL0     H65325   9.850   3.075   7.203  2.0886  0.9966 -0.2431
  495MOL0     H65326  10.107   2.246   7.477  1.1954 -1.1358 -1.8060
  495MOL0     H65327  10.323   2.179   7.419 -2.1499 -0.7373  1.4610
  495MOL0     H65328  10.768   2.320   7.350 -1.2575  1.8637 -0.6408
  495MOL0     H65329  10.997   2.309   7.272  3.1822  0.4323 -3.0661
  495MOL0     H65330  11.216   2.262   7.158 -0.9623  0.5395  2.7904
  495MOL0     H65331  11.148   2.437   7.174  1.2051  1.8662 -1.5824
  495MOL0     H65332  11.281   2.438   6.927 -1.7191  0.6297  0.5208
  495MOL0     H65333  11.329   2.498   7.073 -1.0059 -0.4002  1.0461
  495MOL0     H65334  11.477   2.339   6.921  4.3348 -1.9201  1.1000
  495MOL0     H65335  11.366   2.212   6.976  1.2420  0.4182 -0.2577
  495MOL0     H65336  11.564   2.370   7.142 -2.6110  0.5301  1.8196
  495MOL0     H65337  11.465   2.245   7.217  0.3850  0.4329  0.6588
  495MOL0     H65338  11.747   2.009   7.010  0.1710  0.0134  0.4991
  495MOL0     H65339  10.902   2.326   6.866  1.9267  0.6324  0.8605
  495MOL0     H65340  10.652   2.364   6.932  0.2987  1.5874 -0.0577
  496MOL0     O65341  10.786   9.539   3.360  0.0971  0.5964 -1.0427
  496MOL0     C65342  10.819   9.439   3.295 -0.2742  0.4812 -0.0936
  496MOL0     O65343  10.733   9.345   3.245 -0.0422  0.3108 -0.2693
  496MOL0     C65344  10.599   9.359   3.264  1.2061 -1.0236 -0.8313
  496MOL0     C65345  10.527   9.241   3.277 -0.0438  0.3070  0.5652
  496MOL0     C65346  10.391   9.248   3.287 -0.6842  0.4274 -0.1457
  496MOL0     C65347  10.324   9.364   3.283  0.0589  0.6956 -0.9144
  496MOL0     O65348  10.186   9.366   3.276 -0.5552 -0.3938 -0.4509
  496MOL0     C65349  10.117   9.251   3.339  0.0447  0.3249 -1.2710
  496MOL0     C65350   9.975   9.309   3.368  0.7469  0.6305 -0.3442
  496MOL0     C65351   9.888   9.202   3.427  0.3418  0.1835  0.2250
  496MOL0     C65352   9.746   9.245   3.457 -1.0439  0.3172 -0.2459
  496MOL0     C65353   9.661   9.139   3.521  0.4523 -0.8874  0.1405
  496MOL0     C65354   9.508   9.187   3.515  0.2981  0.1014 -0.2329
  496MOL0     C65355   9.476   9.320   3.595 -0.1621  0.1424  0.0844
  496MOL0     C65356   9.497   9.326   3.746 -0.0774  0.6220  0.9158
  496MOL0     N65357   9.411   9.228   3.817 -0.2875  0.7565 -0.3394
  496MOL0     C65358   9.435   9.092   3.825  0.0682  0.5847  0.2822
  496MOL0     C65359   9.321   9.054   3.894 -1.5577  0.8704 -0.1688
  496MOL0     C65360   9.288   8.908   3.927  0.6001  0.2102  0.1055
  496MOL0     C65361   9.298   8.826   3.799  0.3548  0.8965 -0.1767
  496MOL0     C65362   9.221   8.883   3.678  0.6837  1.0733  0.7556
  496MOL0     C65363   9.220   8.787   3.553  0.4458 -0.5112 -1.3307
  496MOL0     O65364   9.360   8.744   3.517 -0.2566 -0.4058  0.4028
  496MOL0     C65365   9.414   8.807   3.410  0.6014 -0.9090  0.3875
  496MOL0     C65366   9.526   8.742   3.373 -0.2300  0.1740  0.2763
  496MOL0     C65367   9.611   8.793   3.280 -0.2046  0.5412 -0.2364
  496MOL0     C65368   9.582   8.913   3.209  0.2541  0.5673  0.3391
  496MOL0     C65369   9.688   8.975   3.135  0.2516 -0.0381  0.5026
  496MOL0     O65370   9.807   8.913   3.143  0.5109 -0.7077 -0.2986
  496MOL0     C65371   9.927   8.966   3.093 -0.1764 -0.0763  0.0213
  496MOL0     C65372   9.953   9.094   3.035  0.4899 -0.0631 -0.3182
  496MOL0     C65373  10.084   9.128   2.998 -0.4604  0.0408  0.1425
  496MOL0     C65374  10.193   9.046   3.016  0.9415  0.3287  0.7981
  496MOL0     O65375  10.327   9.068   2.977  0.3987  1.0961 -0.2781
  496MOL0     C65376  10.358   9.200   2.941 -0.1548  0.7518  0.5724
  496MOL0     C65377  10.504   9.198   2.920 -0.4627 -0.2002 -0.1483
  496MOL0     C65378  10.555   9.333   2.879  0.3014 -0.3856  0.3013
  496MOL0     C65379  10.709   9.333   2.886 -0.9883  0.4772  0.6683
  496MOL0     C65380  10.767   9.476   2.899  0.2756  0.5349 -0.3763
  496MOL0     C65381  10.922   9.456   2.893 -0.3049  0.0572 -0.1332
  496MOL0     C65382  10.976   9.592   2.909 -0.1025  1.0868 -0.2911
  496MOL0     C65383  11.125   9.607   2.880 -0.2479 -0.9454  0.5700
  496MOL0    Cl65384  11.154   9.610   2.717  0.1588  0.0879 -0.5069
  496MOL0     C65385  10.161   8.921   3.056 -0.2035 -0.0780  0.1430
  496MOL0     C65386  10.039   8.883   3.091 -0.1248  0.4780  0.5486
  496MOL0     O65387   9.658   9.073   3.067 -0.6208  0.4686  0.1286
  496MOL0     C65388   9.457   8.975   3.239  0.1756  0.0067  0.4532
  496MOL0     C65389   9.371   8.922   3.337 -0.2316 -0.2622 -0.7008
  496MOL0     N65390   9.236   9.162   3.927 -0.6112  0.8737 -0.7350
  496MOL0     N65391   9.293   9.267   3.881  0.1088 -0.4196 -1.5863
  496MOL0     C65392  10.387   9.484   3.261 -0.4146  0.5997  0.5570
  496MOL0     C65393  10.526   9.482   3.257  0.6532  0.1278  0.0903
  496MOL0     C65394  10.960   9.409   3.267  0.3899 -0.8206 -0.5437
  496MOL0     C65395  11.007   9.283   3.281  0.0037  0.0271 -0.0156
  496MOL0     C65396  11.151   9.260   3.283  0.3283 -0.5806  0.4832
  496MOL0     C65397  11.243   9.363   3.285 -0.7186  0.4304 -0.6147
  496MOL0     O65398  11.376   9.334   3.283 -0.2089  0.1244  0.3598
  496MOL0     C65399  11.415   9.299   3.415  0.4335  0.0762  0.4484
  496MOL0     C65400  11.574   9.330   3.424 -0.2708  0.1163  0.2204
  496MOL0     C65401  11.603   9.480   3.397 -0.1315  0.9008  0.4581
  496MOL0     C65402  11.747   9.515   3.433 -0.8136 -0.5776 -0.8429
  496MOL0     C65403  11.763   9.510   3.580  0.8865  1.0249  0.8347
  496MOL0     C65404  11.782   9.502   3.701 -0.0238 -0.2706  0.5784
  496MOL0     C65405  11.192   9.497   3.281 -0.6036 -0.1799  0.4632
  496MOL0     C65406  11.055   9.517   3.262 -0.0324  0.9619  1.2196
  496MOL0     H65407  10.582   9.147   3.270 -0.5941  0.1105 -1.7564
  496MOL0     H65408  10.344   9.150   3.288  0.7373 -0.3180 -1.4485
  496MOL0     H65409  10.165   9.225   3.434  0.4911 -0.6562 -1.7557
  496MOL0     H65410  10.110   9.162   3.277 -2.5137 -0.1064 -0.5112
  496MOL0     H65411   9.934   9.343   3.273 -2.3598 -0.4652  0.5008
  496MOL0     H65412   9.968   9.395   3.436  0.2889 -1.0943  1.9053
  496MOL0     H65413   9.928   9.158   3.519 -1.6559  0.0420  1.0622
  496MOL0     H65414   9.885   9.122   3.351 -0.3761 -0.7549  1.2117
  496MOL0     H65415   9.744   9.332   3.523  0.9856 -0.2832  0.6997
  496MOL0     H65416   9.704   9.286   3.365 -1.7769 -1.6704 -0.8404
  496MOL0     H65417   9.688   9.132   3.627 -0.4790  1.8075  0.6553
  496MOL0     H65418   9.653   9.045   3.466  3.1232 -1.1318  0.0429
  496MOL0     H65419   9.437   9.108   3.541  0.3468 -0.6757 -2.3302
  496MOL0     H65420   9.488   9.204   3.409 -0.9467 -0.6284 -0.1403
  496MOL0     H65421   9.543   9.398   3.558  1.9436 -2.3384 -1.6345
  496MOL0     H65422   9.371   9.350   3.590 -1.3065 -3.0914  1.6537
  496MOL0     H65423   9.463   9.424   3.780 -2.3953 -0.3695  1.7102
  496MOL0     H65424   9.601   9.308   3.773  0.2066  1.2975  0.3017
  496MOL0     H65425   9.512   9.024   3.790 -1.9739 -2.2118  0.8787
  496MOL0     H65426   9.187   8.899   3.967  0.5298 -1.2614 -0.3417
  496MOL0     H65427   9.352   8.862   4.003 -1.1861 -0.1003  1.4981
  496MOL0     H65428   9.239   8.739   3.829  1.5637 -0.2627 -1.0526
  496MOL0     H65429   9.400   8.800   3.770  0.2630 -0.4294  0.6130
  496MOL0     H65430   9.121   8.902   3.718  0.4142 -0.7143  1.0341
  496MOL0     H65431   9.264   8.973   3.633 -0.9803  0.9249 -1.2777
  496MOL0     H65432   9.166   8.826   3.466  0.7288  1.2174 -0.7500
  496MOL0     H65433   9.158   8.703   3.586 -0.4174  0.7490  0.3802
  496MOL0     H65434   9.549   8.648   3.423  1.2644  1.9767  3.3025
  496MOL0     H65435   9.703   8.737   3.270  0.2807  0.9362  1.6538
  496MOL0     H65436   9.872   9.161   3.007  2.4762  1.2844 -3.2828
  496MOL0     H65437  10.102   9.226   2.956  0.2609 -0.5917 -1.0810
  496MOL0     H65438  10.333   9.269   3.023  2.8303  0.7552  1.6037
  496MOL0     H65439  10.321   9.234   2.844 -0.6272 -2.2427 -0.3928
  496MOL0     H65440  10.528   9.122   2.844  2.4337  1.1295 -0.7220
  496MOL0     H65441  10.546   9.169   3.017 -1.3635  1.7963  0.8957
  496MOL0     H65442  10.524   9.412   2.949 -2.5780  0.7339 -2.0276
  496MOL0     H65443  10.507   9.360   2.785 -0.0243  1.6570  0.9863
  496MOL0     H65444  10.743   9.276   2.973 -1.3849  1.7404  1.6695
  496MOL0     H65445  10.749   9.286   2.795 -3.4492  0.7581 -0.6519
  496MOL0     H65446  10.754   9.512   3.001  2.2656  0.6969 -0.1445
  496MOL0     H65447  10.719   9.544   2.829  1.5482  0.2529 -1.5846
  496MOL0     H65448  10.927   9.408   2.795 -4.6905 -2.6392  0.7197
  496MOL0     H65449  10.963   9.398   2.976  1.1673 -0.4557 -1.1721
  496MOL0     H65450  10.930   9.669   2.846  2.7913  2.0558 -1.4047
  496MOL0     H65451  10.964   9.631   3.010  2.7716 -0.3512  0.6913
  496MOL0     H65452  11.183   9.529   2.931  1.6072  0.9002  1.4563
  496MOL0     H65453  11.158   9.702   2.923 -1.6612 -0.6539  1.0638
  496MOL0     H65454  10.242   8.849   3.043  2.5849  3.1454 -2.1028
  496MOL0     H65455  10.018   8.777   3.108  0.5906 -0.1821 -2.2624
  496MOL0     H65456   9.426   9.067   3.189 -0.3905 -0.8727 -0.8485
  496MOL0     H65457   9.285   8.984   3.360 -0.3870  0.5091 -3.0691
  496MOL0     H65458  10.335   9.578   3.246  0.2430  0.9002  0.1260
  496MOL0     H65459  10.578   9.576   3.250 -1.4937  1.3218 -0.6516
  496MOL0     H65460  10.939   9.199   3.281  0.4735 -0.3622  0.2658
  496MOL0     H65461  11.201   9.164   3.286  1.2936 -0.2742 -2.4615
  496MOL0     H65462  11.400   9.194   3.442 -1.1831  0.8341  2.8184
  496MOL0     H65463  11.366   9.362   3.490 -0.9066  0.2109 -0.5004
  496MOL0     H65464  11.604   9.290   3.522  0.9231  1.0799  0.2721
  496MOL0     H65465  11.629   9.273   3.348  2.4576  3.7371 -0.8025
  496MOL0     H65466  11.527   9.539   3.450 -0.1845 -0.5149  2.0467
  496MOL0     H65467  11.586   9.508   3.293  0.8470  2.3157  0.6554
  496MOL0     H65468  11.825   9.447   3.400  0.6097 -1.0445  3.0059
  496MOL0     H65469  11.780   9.610   3.390  2.1530 -0.7513  0.8367
  496MOL0     H65470  11.817   9.479   3.799 -0.4775  1.5549  1.2099
  496MOL0     H65471  11.255   9.586   3.283 -1.4366  0.4277  2.1626
  496MOL0     H65472  11.033   9.624   3.259  0.1468  0.9787 -1.2888
  497MOL0     O65473   8.069   4.554   5.528 -0.5322 -0.8277  0.3040
  497MOL0     C65474   8.069   4.569   5.650  0.3030 -0.1542  0.6565
  497MOL0     O65475   7.963   4.614   5.722  0.5441  0.3709 -0.6478
  497MOL0     C65476   7.864   4.687   5.664 -0.3318 -0.2581 -0.4376
  497MOL0     C65477   7.740   4.649   5.719  0.5090  0.6394 -0.5993
  497MOL0     C65478   7.625   4.726   5.692 -0.0987  0.8771  1.1514
  497MOL0     C65479   7.637   4.826   5.595  0.7112 -0.0861 -0.2543
  497MOL0     O65480   7.521   4.897   5.564  0.0199 -0.3020 -0.0874
  497MOL0     C65481   7.547   5.036   5.553  0.2451 -0.3398  0.4023
  497MOL0     C65482   7.422   5.123   5.598 -0.8068  0.9990 -0.8407
  497MOL0     C65483   7.313   5.096   5.504 -0.3727 -0.6047 -0.1724
  497MOL0     C65484   7.211   5.210   5.521  0.0163  0.0967  0.3249
  497MOL0     C65485   7.078   5.172   5.454  0.3471 -0.0899 -0.4684
  497MOL0     C65486   6.990   5.085   5.547  0.2178  0.3981 -0.7613
  497MOL0     C65487   6.866   5.020   5.471 -0.6259  0.4764 -0.3670
  497MOL0     C65488   6.751   5.119   5.454 -0.2056  0.1421 -0.6776
  497MOL0     N65489   6.641   5.066   5.378 -0.2177  0.4061  0.0503
  497MOL0     C65490   6.647   5.022   5.244  1.0869  0.0093  1.2481
  497MOL0     C65491   6.517   4.993   5.208  0.1553 -0.1761 -0.0101
  497MOL0     C65492   6.469   4.923   5.079 -0.1938 -0.7436 -0.9126
  497MOL0     C65493   6.329   4.972   5.038  0.1728  0.0899 -0.2955
  497MOL0     C65494   6.290   4.882   4.918 -0.2020  0.0887 -0.4292
  497MOL0     C65495   6.154   4.925   4.852  0.0056  0.1567  0.2543
  497MOL0     O65496   6.044   4.916   4.945  0.0263  0.0545  1.0712
  497MOL0     C65497   5.917   4.904   4.895 -0.7689  0.1901 -0.2263
  497MOL0     C65498   5.817   4.896   4.995 -0.5179  0.0921 -0.1287
  497MOL0     C65499   5.685   4.883   4.974  0.1878 -0.1820  0.2562
  497MOL0     C65500   5.644   4.858   4.842 -0.1490 -0.4198  0.1484
  497MOL0     C65501   5.505   4.867   4.791  0.1932  0.4601 -0.0650
  497MOL0     O65502   5.414   4.920   4.874 -0.6482 -0.8865 -0.2939
  497MOL0     C65503   5.283   4.909   4.845  0.0821  0.8293  0.5569
  497MOL0     C65504   5.203   5.020   4.802 -0.0517 -0.8273 -0.3646
  497MOL0     C65505   5.067   4.997   4.792  0.4064 -0.7283  0.1562
  497MOL0     C65506   5.006   4.876   4.824 -0.5154 -0.5481  1.1989
  497MOL0     O65507   4.867   4.866   4.798  0.4424 -0.1054  0.1025
  497MOL0     C65508   4.793   4.762   4.875 -0.0136 -0.3363  0.6287
  497MOL0     C65509   4.644   4.796   4.901 -0.6992 -0.6978  0.1523
  497MOL0     C65510   4.568   4.844   4.780  0.0684 -0.4745 -0.5493
  497MOL0     C65511   4.416   4.840   4.818 -0.3375 -0.5702  0.1816
  497MOL0     C65512   4.350   4.713   4.773  0.0067  0.7477  0.0180
  497MOL0     C65513   4.202   4.736   4.748  0.3719  1.2253 -0.0392
  497MOL0     C65514   4.145   4.637   4.656 -0.1087  0.6219  0.3073
  497MOL0     C65515   3.997   4.659   4.644  0.2453 -0.1759 -0.1292
  497MOL0    Cl65516   3.894   4.580   4.773 -0.0416 -0.1483 -0.0832
  497MOL0     C65517   5.087   4.764   4.859 -0.4247  0.1476  0.6867
  497MOL0     C65518   5.223   4.778   4.867 -0.0085  0.4135 -0.0088
  497MOL0     O65519   5.474   4.813   4.684 -0.3854  0.1982  0.5092
  497MOL0     C65520   5.737   4.847   4.740  0.4973 -0.0959  0.0684
  497MOL0     C65521   5.873   4.872   4.767  0.8728  0.3085 -0.6941
  497MOL0     N65522   6.433   5.004   5.327 -1.1250  0.7797  0.4268
  497MOL0     N65523   6.519   5.042   5.422 -0.1057  0.0903 -0.1627
  497MOL0     C65524   7.758   4.856   5.532  0.5285 -0.7028 -0.6185
  497MOL0     C65525   7.874   4.793   5.567 -0.3539  0.7308 -0.1012
  497MOL0     C65526   8.195   4.539   5.716  0.0099  0.9346  0.0531
  497MOL0     C65527   8.235   4.615   5.822  1.0014  0.0762  0.3832
  497MOL0     C65528   8.357   4.585   5.892  1.3314  0.2177 -1.7536
  497MOL0     C65529   8.437   4.479   5.853 -0.3229  0.1281 -0.4254
  497MOL0     O65530   8.541   4.457   5.932  0.1763 -0.8006 -0.1465
  497MOL0     C65531   8.519   4.368   6.035  0.2631  0.5381 -0.2416
  497MOL0     C65532   8.635   4.274   6.055  0.3022  0.0245 -0.0968
  497MOL0     C65533   8.781   4.343   6.054  1.0558 -0.4324  0.0784
  497MOL0     C65534   8.882   4.230   6.075  0.2964  0.4809  0.0440
  497MOL0     C65535   9.011   4.295   6.081  0.4540 -0.3049  1.5114
  497MOL0     C65536   9.120   4.333   6.073  0.2384 -0.5087  0.0150
  497MOL0     C65537   8.397   4.398   5.745 -0.3379 -0.1638  0.8848
  497MOL0     C65538   8.275   4.431   5.675 -0.8107  0.1766 -0.7321
  497MOL0     H65539   7.727   4.576   5.798  3.5671  0.2626 -0.3032
  497MOL0     H65540   7.536   4.708   5.752 -0.5260 -0.8057  0.0586
  497MOL0     H65541   7.572   5.060   5.450 -2.2976  0.5557 -0.0948
  497MOL0     H65542   7.630   5.065   5.617  2.8108 -0.1811 -2.7608
  497MOL0     H65543   7.469   5.221   5.585 -0.5235  0.7944 -1.4304
  497MOL0     H65544   7.383   5.107   5.699 -2.5795  0.1950 -1.6041
  497MOL0     H65545   7.264   5.000   5.524 -0.7607  0.1751  3.0905
  497MOL0     H65546   7.337   5.102   5.397 -1.0067  1.0423 -0.2462
  497MOL0     H65547   7.201   5.228   5.629 -1.4291  1.7231 -0.0428
  497MOL0     H65548   7.250   5.306   5.484  0.0603  0.0479  0.2440
  497MOL0     H65549   7.097   5.114   5.363 -1.0483 -1.9811  0.3499
  497MOL0     H65550   7.021   5.262   5.431 -2.0900 -0.4633  3.2951
  497MOL0     H65551   6.947   5.145   5.628  0.8017 -2.0072  1.4543
  497MOL0     H65552   7.044   5.003   5.595 -5.0649 -0.3331  5.2387
  497MOL0     H65553   6.905   4.988   5.374  0.8649 -0.7845  0.5988
  497MOL0     H65554   6.826   4.939   5.532  1.1193 -0.6869 -0.6817
  497MOL0     H65555   6.796   5.207   5.408  3.6049 -0.4298  1.5417
  497MOL0     H65556   6.712   5.158   5.548  0.9063  1.8099 -0.8570
  497MOL0     H65557   6.742   5.012   5.193  1.6587 -0.6563  2.3710
  497MOL0     H65558   6.461   4.815   5.093  1.3736 -0.8556 -0.7214
  497MOL0     H65559   6.541   4.949   5.000 -2.3226  0.2788 -2.6236
  497MOL0     H65560   6.338   5.075   5.002 -1.3121  0.2378 -0.2847
  497MOL0     H65561   6.263   4.958   5.123  0.5210  0.8974  0.1188
  497MOL0     H65562   6.374   4.866   4.849  1.2598  0.6001  1.1410
  497MOL0     H65563   6.279   4.780   4.957  0.7615  0.3497  0.5857
  497MOL0     H65564   6.140   4.848   4.776 -2.5629 -0.5966  1.3962
  497MOL0     H65565   6.157   5.027   4.812 -1.6144 -0.5767 -1.9259
  497MOL0     H65566   5.852   4.921   5.095 -0.4708  0.5927 -0.2705
  497MOL0     H65567   5.617   4.908   5.054  1.1817 -0.1315  1.1141
  497MOL0     H65568   5.256   5.111   4.777  2.0265 -0.9908  2.7978
  497MOL0     H65569   4.992   5.070   4.763  0.9621  0.5851  1.8566
  497MOL0     H65570   4.846   4.763   4.970 -0.0426  0.2350  0.6441
  497MOL0     H65571   4.799   4.666   4.824  1.5773 -0.2550  0.6095
  497MOL0     H65572   4.643   4.879   4.973  2.1027 -0.3044 -0.1320
  497MOL0     H65573   4.598   4.712   4.953 -0.8824 -0.6697  0.0360
  497MOL0     H65574   4.587   4.780   4.694 -0.3648 -2.0794  0.4935
  497MOL0     H65575   4.608   4.944   4.763 -2.4889  0.6132 -0.5635
  497MOL0     H65576   4.402   4.852   4.926 -1.7194  0.7915 -0.1058
  497MOL0     H65577   4.363   4.927   4.778 -0.2231  1.4881  3.9407
  497MOL0     H65578   4.372   4.634   4.846 -1.4908  0.9174  0.7002
  497MOL0     H65579   4.382   4.673   4.677  0.5713 -0.5618  0.7214
  497MOL0     H65580   4.192   4.832   4.697 -0.7305  0.4171 -1.4345
  497MOL0     H65581   4.137   4.738   4.836 -2.6009  2.2310 -2.1067
  497MOL0     H65582   4.191   4.633   4.557 -0.2798  0.2248  0.2404
  497MOL0     H65583   4.169   4.540   4.702 -0.0235  0.1727 -0.6637
  497MOL0     H65584   3.960   4.623   4.548 -0.4349 -0.6919  0.3157
  497MOL0     H65585   3.978   4.766   4.646  0.5486 -0.1116 -0.6195
  497MOL0     H65586   5.044   4.666   4.875  1.2194 -1.0184 -1.5437
  497MOL0     H65587   5.282   4.693   4.900 -1.2997 -0.1289  1.0116
  497MOL0     H65588   5.705   4.830   4.638  0.3937  2.4236 -0.3893
  497MOL0     H65589   5.938   4.874   4.680 -1.6225  1.2975 -2.6802
  497MOL0     H65590   7.752   4.938   5.461  2.4780  2.9833  3.0828
  497MOL0     H65591   7.962   4.824   5.511  0.1244  2.1938  1.3819
  497MOL0     H65592   8.175   4.695   5.863 -0.1716 -2.2173  3.5867
  497MOL0     H65593   8.395   4.640   5.977  1.5260 -2.3769 -0.0350
  497MOL0     H65594   8.428   4.310   6.015  0.1098  1.1438 -1.3841
  497MOL0     H65595   8.504   4.429   6.125  1.8084  3.1947 -1.6681
  497MOL0     H65596   8.624   4.224   6.152 -0.1674 -1.1683 -0.7471
  497MOL0     H65597   8.638   4.194   5.981 -0.6283 -0.1017 -0.0044
  497MOL0     H65598   8.781   4.408   6.141  1.4263 -1.3444  0.7769
  497MOL0     H65599   8.806   4.393   5.960  1.1562 -0.3562  0.1456
  497MOL0     H65600   8.860   4.177   6.168 -0.5878  1.0219  0.1634
  497MOL0     H65601   8.871   4.154   5.997 -1.7956 -0.6573  1.3469
  497MOL0     H65602   9.221   4.365   6.059  1.1305 -2.7283  0.9084
  497MOL0     H65603   8.459   4.317   5.709  1.4150  1.6445 -0.4328
  497MOL0     H65604   8.248   4.367   5.591  1.6719 -0.1193 -1.3952
  498MOL0     O65605   7.789  11.045   1.769 -0.7035 -0.9313  0.2082
  498MOL0     C65606   7.842  11.097   1.671 -0.0358  0.0767  0.0321
  498MOL0     O65607   7.781  11.126   1.552  0.2153 -0.4878 -0.0304
  498MOL0     C65608   7.650  11.153   1.537  0.2694 -0.6588 -0.3521
  498MOL0     C65609   7.616  11.267   1.472  0.1954 -0.0159 -0.4843
  498MOL0     C65610   7.481  11.295   1.449  0.4046  0.5881 -0.4101
  498MOL0     C65611   7.383  11.206   1.488 -0.2130  0.0587 -0.7845
  498MOL0     O65612   7.249  11.243   1.466 -0.3122  0.1010 -0.8802
  498MOL0     C65613   7.148  11.144   1.462 -0.2330  0.2224 -0.3418
  498MOL0     C65614   7.022  11.221   1.422 -0.0594 -0.0979  0.2471
  498MOL0     C65615   6.898  11.134   1.398 -0.2787 -0.0998  0.5133
  498MOL0     C65616   6.771  11.223   1.374 -0.1203 -0.0834  0.2824
  498MOL0     C65617   6.638  11.139   1.363  0.6659  0.1422  0.7345
  498MOL0     C65618   6.524  11.245   1.348  0.4285  0.5000  0.0875
  498MOL0     C65619   6.492  11.328   1.468 -0.5450  0.2385 -0.1623
  498MOL0     C65620   6.365  11.412   1.444 -0.3724  0.6694  0.5650
  498MOL0     N65621   6.260  11.324   1.383  1.0426 -0.7681 -0.3471
  498MOL0     C65622   6.183  11.230   1.451  0.5488 -0.7479  0.2086
  498MOL0     C65623   6.093  11.191   1.355 -0.2207 -0.7803  0.2104
  498MOL0     C65624   5.981  11.091   1.377  1.3346 -0.3418  0.0464
  498MOL0     C65625   5.844  11.151   1.397  0.0075 -0.3898  0.6072
  498MOL0     C65626   5.753  11.037   1.404  0.3230  0.2004 -0.5343
  498MOL0     C65627   5.611  11.081   1.451  0.0953 -0.5418 -0.5375
  498MOL0     O65628   5.574  11.186   1.364  0.5548  0.2473 -0.2638
  498MOL0     C65629   5.456  11.247   1.363  0.4909  0.1670  0.3008
  498MOL0     C65630   5.347  11.197   1.440  0.6780  0.8343  0.5774
  498MOL0     C65631   5.223  11.261   1.443 -0.4494  0.0284  0.5169
  498MOL0     C65632   5.206  11.371   1.355 -0.1780 -0.0196 -0.1150
  498MOL0     C65633   5.069  11.427   1.330 -0.6407 -0.5354 -0.0379
  498MOL0     O65634   5.049  11.550   1.263 -0.6146 -0.3558 -0.2587
  498MOL0     C65635   4.926  11.613   1.267  0.5222 -0.1818  0.0296
  498MOL0     C65636   4.926  11.749   1.294  0.0090  0.9427 -0.4677
  498MOL0     C65637   4.817  11.827   1.292  0.4770 -0.1524 -0.7279
  498MOL0     C65638   4.690  11.766   1.269  0.9885  0.0662 -0.1685
  498MOL0     O65639   4.575  11.838   1.283  0.2276 -0.1268  0.3113
  498MOL0     C65640   4.566  11.927   1.394  0.5307  0.2789  0.0689
  498MOL0     C65641   4.416  11.962   1.413 -0.2290  0.3906 -0.4291
  498MOL0     C65642   4.399  12.034   1.540  0.4058 -0.2764  0.0053
  498MOL0     C65643   4.249  12.083   1.539  0.0632 -0.3337  0.5163
  498MOL0     C65644   4.210  12.151   1.670  0.6432 -0.1048 -0.7034
  498MOL0     C65645   4.204  12.056   1.794  0.0522  0.7217  0.6560
  498MOL0     C65646   4.133  12.133   1.905 -0.0074  0.6730 -0.3404
  498MOL0     C65647   4.142  12.050   2.040 -0.1624  0.5096 -0.0102
  498MOL0    Cl65648   4.044  12.146   2.155 -0.1648  0.7375 -0.2374
  498MOL0     C65649   4.692  11.630   1.221  0.7381  0.4047 -0.0082
  498MOL0     C65650   4.811  11.552   1.229  1.1026 -0.5570  0.1317
  498MOL0     O65651   4.978  11.366   1.379 -0.0826 -0.2125  0.4574
  498MOL0     C65652   5.321  11.423   1.284  1.2499 -0.2701 -0.0833
  498MOL0     C65653   5.444  11.361   1.285  0.6237  0.6157 -0.1836
  498MOL0     N65654   6.118  11.272   1.239  0.8462  0.3387  0.2401
  498MOL0     N65655   6.227  11.335   1.254  0.2688 -0.1338 -0.2017
  498MOL0     C65656   7.416  11.088   1.551 -0.5679 -0.2160 -0.1084
  498MOL0     C65657   7.547  11.063   1.577 -0.1150 -0.1288 -0.5674
  498MOL0     C65658   7.989  11.087   1.670 -0.4207  0.5631  0.2551
  498MOL0     C65659   8.068  11.158   1.576 -0.1874 -0.3186 -0.0390
  498MOL0     C65660   8.210  11.138   1.567 -0.3075 -0.0610 -0.0053
  498MOL0     C65661   8.275  11.050   1.656 -1.2691  1.0419 -1.1578
  498MOL0     O65662   8.411  11.028   1.673 -0.4229 -0.1793 -0.2435
  498MOL0     C65663   8.508  11.103   1.589  0.3713  0.6475 -0.4820
  498MOL0     C65664   8.654  11.070   1.607  0.4773 -0.3140 -0.9226
  498MOL0     C65665   8.686  11.097   1.750  0.3891 -0.3788  0.3010
  498MOL0     C65666   8.831  11.076   1.791 -0.3372 -0.2622 -0.4065
  498MOL0     C65667   8.900  11.205   1.809 -0.1125 -0.5828 -0.3556
  498MOL0     C65668   8.979  11.293   1.836 -0.2310  0.1990  0.4353
  498MOL0     C65669   8.206  10.986   1.753 -0.2028 -0.0539 -0.0106
  498MOL0     C65670   8.060  10.997   1.757  0.0702  0.3097  1.0238
  498MOL0     H65671   7.694  11.333   1.435  0.3769  1.4909  2.2562
  498MOL0     H65672   7.435  11.372   1.388  3.2559  1.0620 -2.1403
  498MOL0     H65673   7.124  11.102   1.561 -1.1710  3.2554  0.8410
  498MOL0     H65674   7.181  11.062   1.399  1.7274  0.1761  0.6497
  498MOL0     H65675   7.051  11.269   1.328 -1.6667 -0.8045 -0.6396
  498MOL0     H65676   6.998  11.295   1.500  0.2440  0.5688 -0.2782
  498MOL0     H65677   6.890  11.084   1.494  0.7492  1.7313  1.6292
  498MOL0     H65678   6.914  11.073   1.309 -0.2195 -1.8104  1.6577
  498MOL0     H65679   6.767  11.293   1.458 -1.4476  1.5029 -1.0371
  498MOL0     H65680   6.791  11.268   1.277  0.3856 -1.0805 -0.0902
  498MOL0     H65681   6.613  11.077   1.450 -1.0586 -1.1525 -0.6121
  498MOL0     H65682   6.649  11.082   1.270  1.0842  0.9586  0.2800
  498MOL0     H65683   6.439  11.180   1.323  1.6168 -1.6567  1.3697
  498MOL0     H65684   6.547  11.320   1.273  2.4179  0.6131  0.7686
  498MOL0     H65685   6.477  11.251   1.545  1.3091 -1.9151 -1.8228
  498MOL0     H65686   6.586  11.375   1.499 -0.4733 -0.7939  1.2973
  498MOL0     H65687   6.394  11.491   1.374  1.0287 -0.8824 -0.6760
  498MOL0     H65688   6.328  11.451   1.540 -0.1838  0.4274  0.7364
  498MOL0     H65689   6.172  11.206   1.556 -0.6084  1.5480  0.6653
  498MOL0     H65690   6.006  11.024   1.460 -0.8519 -3.0589 -1.3413
  498MOL0     H65691   5.977  11.035   1.283 -2.8533  1.4858 -1.1072
  498MOL0     H65692   5.819  11.208   1.307 -2.7227  0.9135  2.0536
  498MOL0     H65693   5.831  11.211   1.488 -1.7854  1.5651 -0.8310
  498MOL0     H65694   5.739  10.990   1.307  0.9490  0.9470 -0.9974
  498MOL0     H65695   5.786  10.952   1.464 -2.8170 -1.2068 -0.5820
  498MOL0     H65696   5.613  11.108   1.556  0.7281  0.4107 -0.7893
  498MOL0     H65697   5.533  11.004   1.439 -1.5664  1.2532 -1.9567
  498MOL0     H65698   5.352  11.111   1.506 -1.7256 -1.9358 -2.4962
  498MOL0     H65699   5.140  11.235   1.507  0.2841 -0.4463  1.3035
  498MOL0     H65700   5.015  11.799   1.331 -1.8609  2.1603  2.7086
  498MOL0     H65701   4.820  11.932   1.320 -1.8134  0.4217 -2.4025
  498MOL0     H65702   4.614  12.024   1.380  2.2985 -0.3713  1.2902
  498MOL0     H65703   4.612  11.877   1.479  0.2830 -1.1278 -0.5874
  498MOL0     H65704   4.345  11.879   1.424 -0.0664  0.2104 -0.7364
  498MOL0     H65705   4.387  12.029   1.332  3.3860  2.0921 -0.5202
  498MOL0     H65706   4.472  12.113   1.558  0.5664 -1.0671  3.7717
  498MOL0     H65707   4.426  11.959   1.616 -1.7345 -1.0361  0.0709
  498MOL0     H65708   4.240  12.158   1.459  3.4493  2.2551  2.2975
  498MOL0     H65709   4.167  12.013   1.521 -0.0153 -0.1973  0.3335
  498MOL0     H65710   4.115  12.198   1.640  0.4515  0.4813  0.7351
  498MOL0     H65711   4.279  12.234   1.683  2.3085 -1.5015 -0.3393
  498MOL0     H65712   4.300  12.034   1.841 -0.3356  1.0863  1.6553
  498MOL0     H65713   4.145  11.967   1.770  2.3794 -0.7637  0.1678
  498MOL0     H65714   4.174  12.233   1.924  0.5057  0.3034  0.5510
  498MOL0     H65715   4.029  12.152   1.875  1.1535  4.6886 -2.5772
  498MOL0     H65716   4.245  12.053   2.077 -0.1469  0.7423 -0.0695
  498MOL0     H65717   4.101  11.949   2.031 -1.5426  1.0076  0.3753
  498MOL0     H65718   4.599  11.577   1.204  1.5179 -0.7193 -0.8661
  498MOL0     H65719   4.812  11.447   1.201  0.8950 -0.4506 -0.2950
  498MOL0     H65720   5.302  11.507   1.219  2.8324 -0.0909 -0.3661
  498MOL0     H65721   5.521  11.396   1.217  0.4950  1.0751 -0.0937
  498MOL0     H65722   7.338  11.018   1.577  2.5603 -3.9969 -0.0555
  498MOL0     H65723   7.581  10.969   1.618  1.7781  0.0796 -1.5457
  498MOL0     H65724   8.023  11.240   1.521  0.5196  0.9033  1.1448
  498MOL0     H65725   8.269  11.210   1.512  0.6121 -1.1011 -0.4378
  498MOL0     H65726   8.507  11.208   1.620 -0.8839  0.5294 -0.0673
  498MOL0     H65727   8.473  11.088   1.487 -2.9698 -2.5459  0.9060
  498MOL0     H65728   8.678  10.965   1.588  0.1426 -1.1904  2.7714
  498MOL0     H65729   8.711  11.129   1.535 -0.3207 -1.1262 -2.2587
  498MOL0     H65730   8.636  11.019   1.808 -0.6317 -1.0036 -1.3586
  498MOL0     H65731   8.649  11.198   1.772 -1.9280 -1.0800 -0.1914
  498MOL0     H65732   8.836  11.029   1.890  1.3334  0.3016 -0.1917
  498MOL0     H65733   8.895  11.018   1.724 -2.3449 -2.5014 -0.5013
  498MOL0     H65734   9.050  11.365   1.870  0.1798 -0.2177  0.4651
  498MOL0     H65735   8.251  10.924   1.830  3.4545  0.4567 -1.5375
  498MOL0     H65736   7.999  10.938   1.825  0.3558 -2.0059 -0.6002
  499MOL0     O65737   9.486   9.623  10.231  0.6121  0.4039  0.4485
  499MOL0     C65738   9.504   9.515  10.168 -0.2066 -0.5468 -0.7796
  499MOL0     O65739   9.408   9.437  10.106  0.0458  0.5246  0.4811
  499MOL0     C65740   9.280   9.483  10.097 -0.3798 -0.4461  0.4381
  499MOL0     C65741   9.249   9.609  10.045 -0.9977 -0.7905 -1.2740
  499MOL0     C65742   9.114   9.656  10.033 -0.6104  0.8779  0.7238
  499MOL0     C65743   9.014   9.572  10.084  0.6415  0.5214  0.1978
  499MOL0     O65744   8.887   9.606  10.099  0.4862 -0.0327  0.0319
  499MOL0     C65745   8.829   9.690   9.994  0.1925 -0.4586 -0.4879
  499MOL0     C65746   8.684   9.708  10.005  0.8438 -0.5730 -0.9908
  499MOL0     C65747   8.608   9.579   9.995 -0.0539  0.1564  0.0113
  499MOL0     C65748   8.604   9.515   9.862 -0.7630 -0.4642 -1.1957
  499MOL0     C65749   8.507   9.407   9.885  0.5612  0.9454  0.2287
  499MOL0     C65750   8.361   9.455   9.873 -0.9815  0.4283  0.3474
  499MOL0     C65751   8.277   9.348   9.791  0.2172  0.1736  0.5978
  499MOL0     C65752   8.250   9.222   9.866 -0.1386  0.0272  0.2558
  499MOL0     N65753   8.133   9.223   9.947 -0.4616  0.4685 -0.0717
  499MOL0     C65754   8.010   9.185   9.912  1.2818  0.7885  0.1846
  499MOL0     C65755   7.926   9.196  10.019 -0.3126  0.0329  0.1020
  499MOL0     C65756   7.794   9.128  10.058  0.3628  0.6007  0.1661
  499MOL0     C65757   7.673   9.225  10.078 -0.6177 -0.0208 -0.3301
  499MOL0     C65758   7.619   9.282   9.941  0.3254 -1.1156 -0.9000
  499MOL0     C65759   7.518   9.395   9.960  0.7102  0.4316  0.5391
  499MOL0     O65760   7.392   9.360  10.021  0.1583 -0.3158 -0.5274
  499MOL0     C65761   7.283   9.355   9.939  0.9760  0.1018  0.0753
  499MOL0     C65762   7.275   9.324   9.803 -0.2128 -0.3464  0.1882
  499MOL0     C65763   7.152   9.296   9.735 -0.4134  0.5755  0.2340
  499MOL0     C65764   7.031   9.304   9.810  0.0341 -0.0080 -0.2568
  499MOL0     C65765   6.895   9.280   9.754  0.0782  0.2696 -0.3939
  499MOL0     O65766   6.795   9.295   9.830  1.4140 -1.6525  0.2873
  499MOL0     C65767   6.668   9.310   9.781  0.0745  0.1481  0.5910
  499MOL0     C65768   6.632   9.377   9.666 -0.9726 -0.6095 -0.3974
  499MOL0     C65769   6.498   9.388   9.621  0.4747 -0.2764 -0.4741
  499MOL0     C65770   6.400   9.323   9.696  0.2553 -0.5084  1.1886
  499MOL0     O65771   6.271   9.321   9.655  0.6375  0.6863  0.1151
  499MOL0     C65772   6.241   9.262   9.532 -0.8387  0.5040  0.2383
  499MOL0     C65773   6.245   9.112   9.550 -0.3731  0.7566  0.2868
  499MOL0     C65774   6.149   9.066   9.667  0.8685 -0.3731 -0.1084
  499MOL0     C65775   6.159   8.916   9.694 -0.2060  0.5806  0.7058
  499MOL0     C65776   6.111   8.895   9.832 -0.2517  0.6901  0.3376
  499MOL0     C65777   6.070   8.752   9.854 -0.0734  0.6366  0.6874
  499MOL0     C65778   5.954   8.752   9.956  0.1347  0.9956  0.0559
  499MOL0     C65779   5.904   8.615   9.996 -0.4471 -0.0218 -0.3138
  499MOL0    Cl65780   5.746   8.629  10.095  0.3212 -0.2470  0.1770
  499MOL0     C65781   6.426   9.255   9.814  0.2314 -0.3170 -0.2274
  499MOL0     C65782   6.559   9.253   9.858 -0.1153  1.0333 -0.4716
  499MOL0     O65783   6.892   9.232   9.636 -0.2121  0.4620 -0.2110
  499MOL0     C65784   7.050   9.331   9.945  0.2976 -0.3107 -0.2119
  499MOL0     C65785   7.166   9.362  10.008 -0.2894  0.7189  0.1758
  499MOL0     N65786   8.006   9.251  10.120 -0.1596  0.3197  0.2381
  499MOL0     N65787   8.128   9.267  10.078  0.6132 -0.2461 -1.0141
  499MOL0     C65788   9.055   9.450  10.152  0.5263  0.1538  0.4728
  499MOL0     C65789   9.184   9.400  10.157  0.3028  0.4710 -1.0728
  499MOL0     C65790   9.635   9.449  10.173 -0.1838  0.5561  0.5282
  499MOL0     C65791   9.752   9.527  10.208 -1.2236  0.2180  0.2907
  499MOL0     C65792   9.866   9.471  10.255 -0.7003  0.0843  0.1015
  499MOL0     C65793   9.882   9.333  10.239 -0.3962 -0.6292 -0.0129
  499MOL0     O65794   9.996   9.255  10.266  0.5439  1.0325 -0.2090
  499MOL0     C65795  10.119   9.325  10.289  0.3794 -0.1838  0.2069
  499MOL0     C65796  10.236   9.226  10.271 -1.1019 -0.9266 -0.3828
  499MOL0     C65797  10.243   9.160  10.133  0.1764  0.2806  0.6315
  499MOL0     C65798  10.319   9.026  10.139  0.3712  0.1542 -0.1812
  499MOL0     C65799  10.276   8.934  10.037 -0.2119  0.1204 -0.5423
  499MOL0     C65800  10.225   8.853   9.965 -0.5738  0.3186 -0.7687
  499MOL0     C65801   9.772   9.254  10.213 -0.3600 -0.6011 -0.2935
  499MOL0     C65802   9.644   9.313  10.189  0.3336 -0.0379  0.7621
  499MOL0     H65803   9.335   9.665  10.008  0.4491 -0.4852  2.1811
  499MOL0     H65804   9.090   9.753   9.993 -4.1316 -0.9727 -2.2383
  499MOL0     H65805   8.852   9.643   9.898  0.1666  1.3367 -1.4078
  499MOL0     H65806   8.884   9.784  10.002 -0.2609 -0.2537  0.2280
  499MOL0     H65807   8.645   9.776   9.928 -3.0414 -1.3497  0.0764
  499MOL0     H65808   8.666   9.753  10.103 -0.7002  0.3852 -1.6618
  499MOL0     H65809   8.514   9.622  10.031  0.7224  0.5106  1.6981
  499MOL0     H65810   8.633   9.515  10.080 -1.6681  0.7819  1.0072
  499MOL0     H65811   8.574   9.584   9.783  0.2290  0.7810 -0.5216
  499MOL0     H65812   8.708   9.483   9.847  0.1008  1.9943 -0.7721
  499MOL0     H65813   8.517   9.361   9.984  3.3627  2.6325  0.8640
  499MOL0     H65814   8.526   9.338   9.803  0.7788 -2.3302  2.8369
  499MOL0     H65815   8.360   9.550   9.819 -0.4029  1.4405  2.0605
  499MOL0     H65816   8.323   9.472   9.974 -0.3730 -0.5892  0.7679
  499MOL0     H65817   8.181   9.390   9.760  1.6529  2.0959 -1.6445
  499MOL0     H65818   8.329   9.333   9.696 -0.9165 -1.5172  0.2080
  499MOL0     H65819   8.333   9.203   9.934 -2.3743  2.3635  3.9938
  499MOL0     H65820   8.237   9.137   9.798 -0.5313 -2.1741  2.8632
  499MOL0     H65821   7.988   9.127   9.822  0.1584 -0.5253  1.2560
  499MOL0     H65822   7.811   9.076  10.153  1.5318  2.1342  0.8341
  499MOL0     H65823   7.779   9.053   9.980 -1.3762 -0.5122  1.4806
  499MOL0     H65824   7.711   9.304  10.143 -4.1102 -1.0978  3.4165
  499MOL0     H65825   7.602   9.172  10.142  0.4445  1.2552  2.0323
  499MOL0     H65826   7.695   9.326   9.876 -0.2438 -0.0312 -0.8599
  499MOL0     H65827   7.562   9.196   9.905  0.9730 -2.4556  1.0986
  499MOL0     H65828   7.500   9.447   9.866 -0.6502 -0.3676  0.3361
  499MOL0     H65829   7.562   9.477  10.019 -1.0388  3.0544 -1.5873
  499MOL0     H65830   7.368   9.309   9.749 -0.7858 -2.4551 -0.3353
  499MOL0     H65831   7.143   9.282   9.627  0.2241 -0.8720  0.3450
  499MOL0     H65832   6.713   9.432   9.619  1.0013 -1.3977  1.9035
  499MOL0     H65833   6.483   9.448   9.532 -0.0462 -1.0084 -0.8936
  499MOL0     H65834   6.308   9.307   9.458  0.0880 -2.1368 -0.6111
  499MOL0     H65835   6.142   9.298   9.501 -2.4755 -3.0311  0.9190
  499MOL0     H65836   6.346   9.075   9.571 -1.1121 -1.8863 -0.4209
  499MOL0     H65837   6.216   9.052   9.464  1.1162  0.2189  0.1224
  499MOL0     H65838   6.048   9.099   9.638  1.7836  1.2178 -1.7142
  499MOL0     H65839   6.174   9.122   9.758 -0.2001 -0.3363  0.1854
  499MOL0     H65840   6.115   8.848   9.621  0.5890 -0.9631  1.6101
  499MOL0     H65841   6.267   8.898   9.687 -0.3598  0.1657 -0.8753
  499MOL0     H65842   6.030   8.962   9.860 -0.8485 -0.1384  0.6492
  499MOL0     H65843   6.189   8.913   9.906 -1.8824  1.3380  1.9845
  499MOL0     H65844   6.153   8.693   9.893  2.2311  1.4108 -2.5833
  499MOL0     H65845   6.038   8.702   9.761  2.6081  2.3096 -1.2646
  499MOL0     H65846   5.982   8.805  10.048  1.3637 -1.6854  1.3228
  499MOL0     H65847   5.872   8.814   9.918 -2.1213 -0.3851  2.3688
  499MOL0     H65848   5.972   8.567  10.067 -3.9017  0.0149  3.3260
  499MOL0     H65849   5.894   8.555   9.905  0.6323  1.2754 -1.3430
  499MOL0     H65850   6.347   9.198   9.861  1.1164  0.2332  2.0405
  499MOL0     H65851   6.573   9.188   9.944 -0.1682 -1.1117 -1.9871
  499MOL0     H65852   6.966   9.369  10.002  0.5818 -1.1826  0.8155
  499MOL0     H65853   7.176   9.386  10.113  1.0322 -1.2137  0.5462
  499MOL0     H65854   8.973   9.407  10.209  3.1525 -2.6749  2.4445
  499MOL0     H65855   9.215   9.304  10.197  0.2195 -0.4105 -3.0287
  499MOL0     H65856   9.740   9.634  10.207  1.2795  0.6296  2.6374
  499MOL0     H65857   9.945   9.544  10.268  1.2262 -1.6755 -1.2454
  499MOL0     H65858  10.122   9.376  10.386 -0.9149 -1.9385  1.2224
  499MOL0     H65859  10.134   9.410  10.221 -1.2181 -1.3448 -1.6972
  499MOL0     H65860  10.328   9.283  10.288 -0.0643 -1.0586 -4.5798
  499MOL0     H65861  10.234   9.146  10.346 -2.0755 -0.0289  0.5632
  499MOL0     H65862  10.313   9.220  10.074 -0.7648 -0.6884 -1.5377
  499MOL0     H65863  10.141   9.137  10.104  0.7258  0.2443 -1.3708
  499MOL0     H65864  10.423   9.051  10.117 -0.5338  3.1082 -1.6469
  499MOL0     H65865  10.326   8.982  10.239  0.5902 -2.1434 -1.1463
  499MOL0     H65866  10.180   8.803   9.881 -2.9856  3.5240 -1.5699
  499MOL0     H65867   9.790   9.147  10.218  0.2862 -0.4935 -0.2341
  499MOL0     H65868   9.561   9.243  10.180 -0.6449  1.1707  0.0336
  500MOL0     O65869   6.917  10.591   9.347 -0.6670 -0.3531 -0.0569
  500MOL0     C65870   6.959  10.483   9.297  0.5377 -0.5331 -0.4527
  500MOL0     O65871   6.884  10.367   9.274 -0.1156 -0.3883  0.2432
  500MOL0     C65872   6.757  10.362   9.315 -0.1471 -0.8218  1.0391
  500MOL0     C65873   6.661  10.418   9.229  0.4908  0.4492 -0.1322
  500MOL0     C65874   6.525  10.410   9.260 -0.8537 -0.5282 -1.3449
  500MOL0     C65875   6.480  10.347   9.385 -0.1527  0.3238  0.8965
  500MOL0     O65876   6.349  10.332   9.408 -0.2415 -0.7106 -1.2294
  500MOL0     C65877   6.293  10.235   9.322  0.0855  0.1424 -0.0558
  500MOL0     C65878   6.170  10.194   9.403 -0.1708 -0.3022 -0.9527
  500MOL0     C65879   6.089  10.085   9.334  0.4001 -0.0993 -0.5848
  500MOL0     C65880   5.988  10.033   9.442  0.8385  0.3073 -0.6075
  500MOL0     C65881   5.891   9.920   9.385  0.0983 -0.2562 -1.0774
  500MOL0     C65882   5.746   9.964   9.377 -0.7199 -0.5336 -0.5301
  500MOL0     C65883   5.655   9.844   9.358  0.2503  1.0866  0.4302
  500MOL0     C65884   5.591   9.794   9.492 -0.9324  0.1354 -0.5426
  500MOL0     N65885   5.480   9.704   9.469  0.2685 -0.2766 -0.4671
  500MOL0     C65886   5.502   9.566   9.460  0.6531  0.4750  0.4823
  500MOL0     C65887   5.379   9.513   9.437  0.4984  0.1897  0.0298
  500MOL0     C65888   5.337   9.362   9.425 -0.0393  0.1491 -0.1969
  500MOL0     C65889   5.276   9.318   9.561 -0.1773 -0.5507  0.2902
  500MOL0     C65890   5.189   9.190   9.555  0.4400 -0.5829 -0.1647
  500MOL0     C65891   5.056   9.216   9.484  0.4195 -0.0469  0.0495
  500MOL0     O65892   4.974   9.096   9.482 -0.0382  0.3197  0.2532
  500MOL0     C65893   4.838   9.098   9.448  0.0543  0.1340 -0.5465
  500MOL0     C65894   4.760   8.982   9.477 -0.2629 -0.5829  0.1352
  500MOL0     C65895   4.618   8.980   9.453 -0.2454  0.4659 -0.1975
  500MOL0     C65896   4.554   9.093   9.401 -0.5937  0.4275 -0.3594
  500MOL0     C65897   4.414   9.088   9.363 -0.8215 -0.6614  0.9552
  500MOL0     O65898   4.348   9.208   9.355 -0.2513  0.1655 -0.1189
  500MOL0     C65899   4.215   9.227   9.331  0.4323  0.2666  0.2317
  500MOL0     C65900   4.187   9.344   9.256 -0.0134 -1.0400  1.1783
  500MOL0     C65901   4.058   9.392   9.234 -0.6534  0.3246  0.3025
  500MOL0     C65902   3.956   9.310   9.288  0.0160  0.6427 -0.3426
  500MOL0     O65903   3.823   9.332   9.292  0.0634  0.1563 -0.1217
  500MOL0     C65904   3.770   9.459   9.245  0.1196  0.8962  0.3335
  500MOL0     C65905   3.739   9.437   9.094 -0.7350  0.0569 -0.1862
  500MOL0     C65906   3.647   9.555   9.046 -0.4759  0.8398  0.0443
  500MOL0     C65907   3.522   9.500   8.973 -0.1115 -0.0144 -0.6576
  500MOL0     C65908   3.538   9.469   8.836  0.2784  0.5366  0.7219
  500MOL0     C65909   3.550   9.600   8.748  0.2686 -0.4349 -0.8057
  500MOL0     C65910   3.701   9.614   8.701 -0.5752  0.0010  0.4710
  500MOL0     C65911   3.732   9.739   8.619  0.5126  0.0159  0.6333
  500MOL0    Cl65912   3.831   9.707   8.477 -0.1083 -0.3060 -0.1338
  500MOL0     C65913   3.985   9.189   9.353  0.6450 -0.1139 -0.5242
  500MOL0     C65914   4.111   9.136   9.363  0.0628 -0.2501  0.5701
  500MOL0     O65915   4.362   8.977   9.352 -0.2470 -0.4230  0.0915
  500MOL0     C65916   4.633   9.207   9.384 -0.0144  0.2192  0.3061
  500MOL0     C65917   4.768   9.211   9.412  0.4842  0.5524  0.8677
  500MOL0     N65918   5.293   9.618   9.431 -0.2309 -0.1436 -0.0837
  500MOL0     N65919   5.351   9.732   9.435 -0.3356  0.0725  0.2643
  500MOL0     C65920   6.584  10.290   9.466  0.2063  0.7791 -0.4978
  500MOL0     C65921   6.726  10.298   9.431  0.7015  0.2565  0.2338
  500MOL0     C65922   7.097  10.478   9.253 -0.0758  0.6846 -0.3546
  500MOL0     C65923   7.179  10.596   9.273 -0.0534 -0.0784  0.3011
  500MOL0     C65924   7.304  10.602   9.227 -0.0277  0.4870  0.6737
  500MOL0     C65925   7.371  10.494   9.177 -0.8797  1.3622 -0.5614
  500MOL0     O65926   7.509  10.506   9.154  0.0741  0.3919 -0.4803
  500MOL0     C65927   7.593  10.395   9.121 -0.0817 -0.5389 -0.2717
  500MOL0     C65928   7.729  10.452   9.097 -0.3833  0.2960  0.6064
  500MOL0     C65929   7.814  10.448   9.227  0.3923 -0.1518 -0.4833
  500MOL0     C65930   7.944  10.526   9.218  0.3882  0.9172 -0.7962
  500MOL0     C65931   7.925  10.667   9.258  0.5591 -0.6409 -0.1458
  500MOL0     C65932   7.912  10.777   9.306 -0.7639  0.0346 -0.2699
  500MOL0     C65933   7.302  10.380   9.167  0.9085  0.0471 -0.2533
  500MOL0     C65934   7.163  10.371   9.194  0.3391  0.5003  0.3065
  500MOL0     H65935   6.690  10.463   9.135  0.3644  1.2218  0.1852
  500MOL0     H65936   6.443  10.447   9.199 -1.8481  0.4062  0.4733
  500MOL0     H65937   6.356  10.147   9.308  1.6476  1.2602 -0.4017
  500MOL0     H65938   6.274  10.283   9.225 -0.5069 -0.5938 -0.3204
  500MOL0     H65939   6.113  10.284   9.428  1.5264  0.6694 -0.4031
  500MOL0     H65940   6.207  10.153   9.498 -0.2198 -1.0078 -1.2316
  500MOL0     H65941   6.159  10.003   9.314 -0.1811 -1.5080  2.5910
  500MOL0     H65942   6.030  10.113   9.247  1.4751 -1.2863 -1.7517
  500MOL0     H65943   6.041   9.985   9.525  0.7613  3.1649  1.2571
  500MOL0     H65944   5.932  10.114   9.490  0.7694  0.8875 -1.6428
  500MOL0     H65945   5.890   9.838   9.457 -2.5243 -1.2540 -2.1287
  500MOL0     H65946   5.938   9.881   9.294  2.4519  0.2339 -0.1464
  500MOL0     H65947   5.738  10.033   9.292  1.4680 -0.9027 -1.0953
  500MOL0     H65948   5.718  10.011   9.472  2.0107 -2.0812  1.1749
  500MOL0     H65949   5.574   9.875   9.292 -1.6505 -4.8134 -0.6269
  500MOL0     H65950   5.707   9.763   9.305  0.3604  1.2601  0.2710
  500MOL0     H65951   5.562   9.883   9.547  2.0222  0.7521  0.1297
  500MOL0     H65952   5.669   9.738   9.544 -1.1882 -2.6507 -2.8915
  500MOL0     H65953   5.592   9.508   9.477  1.9656  1.9198 -1.1949
  500MOL0     H65954   5.425   9.303   9.400  1.5063  2.6459 -1.0775
  500MOL0     H65955   5.263   9.352   9.345 -0.5220 -1.6044  0.4350
  500MOL0     H65956   5.219   9.400   9.606 -0.4544 -0.5767 -0.0044
  500MOL0     H65957   5.355   9.295   9.632 -0.9550 -1.3737  0.9083
  500MOL0     H65958   5.257   9.111   9.519  0.1350 -0.6165 -0.6892
  500MOL0     H65959   5.180   9.171   9.662  7.1883  0.6300  1.1001
  500MOL0     H65960   5.069   9.252   9.382 -1.7636 -0.7255 -0.5070
  500MOL0     H65961   5.010   9.296   9.542  0.8025  1.9087 -2.2012
  500MOL0     H65962   4.817   8.899   9.519  3.6808  1.8541  0.0376
  500MOL0     H65963   4.561   8.891   9.474  2.2158 -0.5848  2.7623
  500MOL0     H65964   4.274   9.394   9.215 -0.4947 -0.0933  1.2872
  500MOL0     H65965   4.028   9.482   9.182 -0.1093  0.2242 -0.1874
  500MOL0     H65966   3.841   9.542   9.259  0.6654  0.0688  3.0398
  500MOL0     H65967   3.674   9.475   9.295  1.1517  0.1055  2.7220
  500MOL0     H65968   3.683   9.345   9.077 -1.1052  0.3135 -0.3754
  500MOL0     H65969   3.828   9.428   9.032 -1.8289 -1.8523 -1.5960
  500MOL0     H65970   3.698   9.630   8.984 -2.7281  1.6246 -0.9736
  500MOL0     H65971   3.612   9.592   9.143  0.1751 -2.5592  1.7216
  500MOL0     H65972   3.489   9.410   9.026 -0.5610  1.0863  1.0034
  500MOL0     H65973   3.447   9.577   8.993 -1.1416 -1.2327  0.3603
  500MOL0     H65974   3.448   9.410   8.815  0.4072  1.0331 -1.4719
  500MOL0     H65975   3.621   9.400   8.817  1.5321  1.7611  1.5312
  500MOL0     H65976   3.522   9.684   8.812 -1.9914 -0.5144 -1.6301
  500MOL0     H65977   3.480   9.613   8.665  0.3140 -1.6798 -1.0630
  500MOL0     H65978   3.779   9.612   8.778 -0.0244  1.5485 -0.0116
  500MOL0     H65979   3.720   9.525   8.641 -0.0832 -1.4932  2.7293
  500MOL0     H65980   3.780   9.808   8.689 -0.0943 -1.1761  2.3165
  500MOL0     H65981   3.638   9.782   8.583  1.6059  0.6336 -1.6351
  500MOL0     H65982   3.898   9.147   9.403  0.4532 -4.3216 -3.8869
  500MOL0     H65983   4.140   9.040   9.403  0.9866  0.3082  1.2932
  500MOL0     H65984   4.581   9.293   9.342 -0.5988 -0.1961  0.1572
  500MOL0     H65985   4.824   9.301   9.391 -1.3759  1.9420  1.6129
  500MOL0     H65986   6.550  10.229   9.550 -2.0034  0.7273 -1.3473
  500MOL0     H65987   6.797  10.245   9.494 -1.2002 -1.6143  0.9065
  500MOL0     H65988   7.138  10.690   9.308 -0.0427  0.3865 -0.9126
  500MOL0     H65989   7.366  10.690   9.242 -1.0339  1.3553 -0.1745
  500MOL0     H65990   7.564  10.350   9.025 -0.2605 -1.1138  0.0499
  500MOL0     H65991   7.583  10.321   9.200 -1.1625  0.8502  0.9438
  500MOL0     H65992   7.786  10.408   9.014  2.0025 -0.2745  2.4518
  500MOL0     H65993   7.722  10.560   9.077  1.7616  0.7005  1.7299
  500MOL0     H65994   7.847  10.348   9.254  3.5674  1.2105  1.2552
  500MOL0     H65995   7.755  10.493   9.308  1.8407  3.2091 -1.0889
  500MOL0     H65996   8.012  10.484   9.293 -0.3682 -0.6046 -0.9172
  500MOL0     H65997   7.987  10.517   9.117  1.5121  1.4645 -0.3783
  500MOL0     H65998   7.903  10.876   9.347 -0.3037 -0.5467  1.3142
  500MOL0     H65999   7.348  10.285   9.140 -2.1066 -1.6462  0.1053
  500MOL0     H66000   7.111  10.279   9.170  0.7537  0.4210 -0.3310
  501MOL0     O66001   9.054   1.446   6.152  0.2135 -0.7519  0.2675
  501MOL0     C66002   8.993   1.516   6.073 -0.3027  0.2181 -0.4947
  501MOL0     O66003   9.042   1.615   6.000  0.3531 -0.0382  0.5240
  501MOL0     C66004   9.176   1.652   5.983  0.0873 -0.2548  0.4480
  501MOL0     C66005   9.294   1.579   6.004 -0.1454 -0.4424 -0.2702
  501MOL0     C66006   9.422   1.619   5.977 -0.5544  0.2748 -0.4002
  501MOL0     C66007   9.438   1.752   5.933  0.1004 -0.9298 -0.9249
  501MOL0     O66008   9.562   1.810   5.904 -0.4506 -0.0867 -0.3331
  501MOL0     C66009   9.671   1.757   5.979  0.9426 -0.2530  0.1099
  501MOL0     C66010   9.805   1.806   5.924 -0.2114 -0.3621 -0.6983
  501MOL0     C66011   9.892   1.686   5.864 -0.2601  0.3608  0.7604
  501MOL0     C66012  10.023   1.737   5.803 -0.7985 -0.3992 -0.0561
  501MOL0     C66013  10.100   1.616   5.759  0.1072  0.4701 -0.4954
  501MOL0     C66014  10.237   1.653   5.697 -0.6598  0.2863  0.2218
  501MOL0     C66015  10.320   1.523   5.671 -0.2733 -0.3472  0.2845
  501MOL0     C66016  10.272   1.460   5.539  0.4556  0.2106  1.0758
  501MOL0     N66017  10.348   1.336   5.515 -0.1447  0.5151 -0.1335
  501MOL0     C66018  10.468   1.319   5.449  0.2811  0.4193 -1.1640
  501MOL0     C66019  10.517   1.198   5.490  0.0054  0.9183  0.8835
  501MOL0     C66020  10.646   1.137   5.444 -0.1877 -0.8178  0.5220
  501MOL0     C66021  10.616   1.035   5.333 -0.1375  0.5175  0.5959
  501MOL0     C66022  10.743   0.993   5.273  0.4451  0.7708 -0.0357
  501MOL0     C66023  10.818   0.900   5.366 -0.2844 -0.9641 -0.2139
  501MOL0     O66024  10.749   0.787   5.412  0.6229 -0.0121  0.4436
  501MOL0     C66025  10.745   0.764   5.547  0.9704 -1.2318  0.3142
  501MOL0     C66026  10.623   0.732   5.599  0.1295  0.5512 -0.4362
  501MOL0     C66027  10.607   0.709   5.739 -0.2168  0.2337  1.2661
  501MOL0     C66028  10.708   0.733   5.826 -0.3105 -0.4962 -0.5237
  501MOL0     C66029  10.693   0.714   5.977 -0.0533 -0.3904  0.3319
  501MOL0     O66030  10.572   0.721   6.032  0.6636  0.0346  0.5774
  501MOL0     C66031  10.564   0.716   6.166 -0.1718  0.2820 -0.3023
  501MOL0     C66032  10.581   0.599   6.245  0.3182  0.6173  0.5137
  501MOL0     C66033  10.573   0.598   6.386  0.4256  0.1942 -0.4005
  501MOL0     C66034  10.557   0.723   6.461  0.1370  0.9610 -0.1723
  501MOL0     O66035  10.570   0.723   6.597 -0.3650  0.0870  0.2451
  501MOL0     C66036  10.654   0.829   6.646  0.6342  0.0835 -0.0718
  501MOL0     C66037  10.598   0.898   6.772 -0.2783 -0.6044  0.3762
  501MOL0     C66038  10.451   0.928   6.748 -0.2172  0.9936  0.2879
  501MOL0     C66039  10.392   1.012   6.861 -0.2400  0.1635 -0.2941
  501MOL0     C66040  10.246   1.050   6.818  0.0970  0.4475 -0.4995
  501MOL0     C66041  10.146   1.097   6.927  0.1951  0.1086  0.2492
  501MOL0     C66042  10.007   1.116   6.866  0.2807  0.6423 -0.0624
  501MOL0     C66043   9.914   1.175   6.969  0.7417  0.3980  0.1944
  501MOL0    Cl66044   9.910   1.055   7.110 -0.0436  0.6750  0.2770
  501MOL0     C66045  10.519   0.832   6.382 -0.1084  0.0783 -0.0387
  501MOL0     C66046  10.526   0.834   6.237 -1.1402  0.4477 -1.2759
  501MOL0     O66047  10.801   0.710   6.032  0.2479 -0.1881  0.2581
  501MOL0     C66048  10.836   0.758   5.775 -0.1354 -0.1138  0.0002
  501MOL0     C66049  10.848   0.784   5.642  0.2945  0.8229  0.0497
  501MOL0     N66050  10.417   1.133   5.563  0.5113  0.1535 -0.0899
  501MOL0     N66051  10.321   1.221   5.574  1.1279  0.1108  0.5734
  501MOL0     C66052   9.327   1.835   5.929 -0.4644  0.8424 -0.3141
  501MOL0     C66053   9.199   1.784   5.955  0.4835  0.9417 -0.1629
  501MOL0     C66054   8.845   1.495   6.081 -0.2238  0.0404 -1.1302
  501MOL0     C66055   8.784   1.379   6.148 -1.0232 -0.4311  0.3335
  501MOL0     C66056   8.643   1.364   6.145  0.1225  0.2016 -0.2713
  501MOL0     C66057   8.557   1.457   6.079  0.4317  0.9276 -1.0807
  501MOL0     O66058   8.416   1.453   6.080  0.0382  0.3071 -0.7768
  501MOL0     C66059   8.359   1.434   6.212 -0.8047 -0.5459 -0.2434
  501MOL0     C66060   8.206   1.441   6.223 -0.2760 -0.2396  0.0825
  501MOL0     C66061   8.165   1.294   6.243  0.0992  0.0014 -0.6792
  501MOL0     C66062   8.020   1.295   6.292  0.9640  1.0771 -0.2686
  501MOL0     C66063   7.930   1.360   6.201 -0.9133 -0.3272  0.6488
  501MOL0     C66064   7.844   1.397   6.128 -0.0943 -0.0844  0.5310
  501MOL0     C66065   8.617   1.554   6.005  0.1162 -0.0932  0.1411
  501MOL0     C66066   8.754   1.573   6.011  1.1037  0.1348  0.2849
  501MOL0     H66067   9.271   1.474   6.022 -1.1525  0.0834  1.7928
  501MOL0     H66068   9.506   1.554   5.995 -0.0292  0.0865 -3.1295
  501MOL0     H66069   9.676   1.648   5.979  1.2925 -0.2971 -2.3369
  501MOL0     H66070   9.663   1.785   6.084  1.4762  0.3327  0.0059
  501MOL0     H66071   9.861   1.873   5.990 -0.9771  2.3571 -2.5821
  501MOL0     H66072   9.792   1.873   5.838  2.3450  1.2022  0.0061
  501MOL0     H66073   9.824   1.640   5.793  1.3359 -0.6493 -0.1814
  501MOL0     H66074   9.919   1.611   5.940  0.9636  0.4893  0.4840
  501MOL0     H66075   9.991   1.792   5.714 -2.8220  1.4912  1.7164
  501MOL0     H66076  10.072   1.801   5.877  1.5774 -2.0007 -0.1356
  501MOL0     H66077  10.035   1.566   5.686 -1.6584 -0.4042  1.5843
  501MOL0     H66078  10.112   1.553   5.847 -0.3844  2.1473  0.8290
  501MOL0     H66079  10.296   1.710   5.770  0.4492  1.5426 -1.5638
  501MOL0     H66080  10.218   1.716   5.609 -0.5876 -0.7184 -0.5264
  501MOL0     H66081  10.425   1.553   5.668 -0.5205  0.6353  0.8583
  501MOL0     H66082  10.314   1.456   5.757  1.3432 -0.8840  0.0091
  501MOL0     H66083  10.298   1.533   5.462 -2.3146  0.9448  0.7308
  501MOL0     H66084  10.163   1.449   5.537  0.6326 -2.2181 -0.9436
  501MOL0     H66085  10.520   1.389   5.385  3.2582 -0.4341  0.1683
  501MOL0     H66086  10.690   1.092   5.533 -2.4447  0.8369  2.5999
  501MOL0     H66087  10.721   1.209   5.410 -1.6163  0.1570 -0.7012
  501MOL0     H66088  10.547   1.075   5.258 -1.4438  0.8076  1.9010
  501MOL0     H66089  10.555   0.953   5.371  1.7500 -1.0467  0.3824
  501MOL0     H66090  10.717   0.929   5.188  1.2366  0.8078 -0.3176
  501MOL0     H66091  10.809   1.070   5.231  0.4530  0.2149 -1.0565
  501MOL0     H66092  10.851   0.961   5.451 -3.1312  1.9815 -1.0470
  501MOL0     H66093  10.912   0.879   5.315 -0.1497  3.5522 -2.3380
  501MOL0     H66094  10.535   0.743   5.536 -1.7226  2.0355  2.2441
  501MOL0     H66095  10.505   0.690   5.770 -0.3479 -0.2450  0.5701
  501MOL0     H66096  10.611   0.522   6.175  1.1148  2.0833 -0.8057
  501MOL0     H66097  10.592   0.508   6.443  0.4185 -0.0323 -0.7544
  501MOL0     H66098  10.667   0.912   6.576  0.3843  2.3754  2.4345
  501MOL0     H66099  10.753   0.785   6.666 -0.0421 -1.2498  0.4692
  501MOL0     H66100  10.664   0.983   6.794  1.4151 -1.6667 -0.4150
  501MOL0     H66101  10.609   0.830   6.857  0.0089  0.3818  1.1495
  501MOL0     H66102  10.395   0.834   6.750 -0.4343  1.1304  0.8089
  501MOL0     H66103  10.428   0.986   6.658 -0.9760  0.4483  0.1192
  501MOL0     H66104  10.376   0.948   6.948 -0.8196 -1.3717 -1.4801
  501MOL0     H66105  10.454   1.099   6.884  1.2881 -0.9702  0.0265
  501MOL0     H66106  10.208   0.956   6.779  0.5532 -0.7675  1.8045
  501MOL0     H66107  10.247   1.127   6.740 -0.6992 -0.2540 -1.2146
  501MOL0     H66108  10.190   1.191   6.962  2.9490 -0.9003 -0.2755
  501MOL0     H66109  10.144   1.031   7.014  1.0133  2.4199  2.1228
  501MOL0     H66110  10.023   1.187   6.785  2.5366  0.0675 -0.1913
  501MOL0     H66111   9.972   1.022   6.821 -3.4548  0.3391  2.8996
  501MOL0     H66112   9.818   1.177   6.918  2.1676 -2.0287 -2.9152
  501MOL0     H66113   9.943   1.279   6.985 -0.0064  0.9424 -1.7863
  501MOL0     H66114  10.520   0.929   6.431  2.0009  0.0774  0.0198
  501MOL0     H66115  10.514   0.931   6.190  0.0202  1.3782  0.2527
  501MOL0     H66116  10.926   0.764   5.836  0.5506  1.9411 -1.1263
  501MOL0     H66117  10.950   0.806   5.611  1.9641 -2.1046  2.9294
  501MOL0     H66118   9.324   1.940   5.901 -2.4496  0.6977 -0.7574
  501MOL0     H66119   9.117   1.852   5.933  1.3101  1.7209 -0.8784
  501MOL0     H66120   8.849   1.309   6.200  2.3517  2.5576  0.5153
  501MOL0     H66121   8.606   1.288   6.213 -2.5023  3.3321  2.0959
  501MOL0     H66122   8.394   1.517   6.274  0.4956 -0.8258 -0.5790
  501MOL0     H66123   8.401   1.348   6.264 -3.8397 -0.5908  2.4620
  501MOL0     H66124   8.185   1.504   6.310 -0.7072  0.0153 -0.2026
  501MOL0     H66125   8.158   1.483   6.134 -1.5059 -2.8563 -0.5865
  501MOL0     H66126   8.232   1.251   6.317 -0.1533  0.1412 -0.3676
  501MOL0     H66127   8.179   1.248   6.145 -1.7229 -2.9748  0.3218
  501MOL0     H66128   7.992   1.189   6.294  0.7520  0.8629 -4.9060
  501MOL0     H66129   8.020   1.346   6.389 -2.6251  2.2697 -0.7174
  501MOL0     H66130   7.776   1.459   6.074  0.6612  1.3064  1.1310
  501MOL0     H66131   8.557   1.624   5.947  0.6003 -0.2069 -0.5057
  501MOL0     H66132   8.783   1.670   5.972  0.9645  1.4996  3.2993
  502MOL0     O66133   2.234   5.399   0.566  0.7177 -0.1059 -0.1905
  502MOL0     C66134   2.288   5.503   0.543 -0.2821  0.4409 -0.0706
  502MOL0     O66135   2.227   5.615   0.492 -0.6266 -0.1704  0.0716
  502MOL0     C66136   2.110   5.585   0.420 -0.5002 -0.0502 -0.1676
  502MOL0     C66137   2.097   5.593   0.282 -0.0655 -0.1445 -0.3199
  502MOL0     C66138   1.979   5.551   0.218 -0.3418 -0.0561 -0.4996
  502MOL0     C66139   1.863   5.528   0.289  0.2701 -0.1683 -1.0115
  502MOL0     O66140   1.751   5.480   0.224 -0.3776  0.3106 -0.7769
  502MOL0     C66141   1.630   5.490   0.297  0.2064  0.8220  0.4744
  502MOL0     C66142   1.504   5.421   0.231 -0.4373  0.8200  0.3282
  502MOL0     C66143   1.379   5.488   0.262 -0.2163  1.4444  0.1909
  502MOL0     C66144   1.254   5.427   0.186 -0.2995 -0.4038  0.8280
  502MOL0     C66145   1.130   5.528   0.174 -0.0870 -0.4158 -0.6659
  502MOL0     C66146   1.165   5.655   0.086 -0.5842  0.0612 -1.2375
  502MOL0     C66147   1.040   5.720   0.041  0.2974 -0.1209 -0.7993
  502MOL0     C66148   0.972   5.804   0.146  0.0553 -0.8223 -0.8163
  502MOL0     N66149   0.863   5.735   0.221 -0.3298 -0.3336  0.0614
  502MOL0     C66150   0.742   5.685   0.171  1.0373 -0.3311 -0.7334
  502MOL0     C66151   0.687   5.626   0.278  0.2462 -0.2961  0.2820
  502MOL0     C66152   0.560   5.547   0.269 -0.1711  0.4188  0.0946
  502MOL0     C66153   0.445   5.635   0.243  0.2956 -0.5641  0.2334
  502MOL0     C66154   0.306   5.565   0.216 -0.8174 -0.0288 -0.2721
  502MOL0     C66155   0.263   5.484   0.329  0.6775 -0.0610 -0.1885
  502MOL0     O66156   0.144   5.407   0.285 -0.6446 -0.0572 -0.2243
  502MOL0     C66157   0.018   5.457   0.303 -0.4348  0.1783  0.1085
  502MOL0     C66158  -0.017   5.590   0.334 -0.5922  0.4355 -0.2527
  502MOL0     C66159  -0.152   5.620   0.345 -0.5796 -0.1368  0.1076
  502MOL0     C66160  -0.257   5.519   0.330 -0.1370 -0.4832  1.0187
  502MOL0     C66161  -0.401   5.563   0.349  0.3137  0.2285  0.2818
  502MOL0     O66162  -0.500   5.474   0.368 -0.0767  0.0589  0.1649
  502MOL0     C66163  -0.634   5.499   0.390  1.0669  0.2155 -0.0190
  502MOL0     C66164  -0.701   5.620   0.364 -0.0255  0.7130  0.5226
  502MOL0     C66165  -0.835   5.629   0.389  1.0332  0.0112  0.7347
  502MOL0     C66166  -0.914   5.521   0.424 -0.7470 -0.6854 -0.1458
  502MOL0     O66167  -1.043   5.525   0.462 -0.3409 -0.6420  0.0329
  502MOL0     C66168  -1.081   5.648   0.523  1.2939  1.3356  0.1174
  502MOL0     C66169  -1.229   5.635   0.544 -0.1697  0.3956  0.6135
  502MOL0     C66170  -1.282   5.743   0.639  0.2113 -0.1873  0.7249
  502MOL0     C66171  -1.436   5.754   0.627  0.1042 -0.3019 -0.9132
  502MOL0     C66172  -1.508   5.670   0.734  0.1962 -0.7504 -0.5177
  502MOL0     C66173  -1.664   5.685   0.736 -0.7670  0.8446 -0.5515
  502MOL0     C66174  -1.722   5.667   0.589  1.0633 -0.2922 -0.4472
  502MOL0     C66175  -1.870   5.706   0.583 -0.2548  0.2543 -0.3418
  502MOL0    Cl66176  -1.985   5.596   0.672  0.3453  0.4179  0.3074
  502MOL0     C66177  -0.855   5.396   0.423  0.6571 -0.3396 -0.6328
  502MOL0     C66178  -0.717   5.385   0.414  0.7183 -0.1460 -0.0468
  502MOL0     O66179  -0.420   5.689   0.344  0.0416  0.2813 -0.6669
  502MOL0     C66180  -0.223   5.390   0.302 -0.0635  0.1056 -0.5574
  502MOL0     C66181  -0.086   5.363   0.295  0.5057 -0.3174  0.2160
  502MOL0     N66182   0.761   5.651   0.390  0.0308  0.4242 -0.7227
  502MOL0     N66183   0.877   5.709   0.355  0.1897 -0.1563 -0.2021
  502MOL0     C66184   1.871   5.546   0.437  0.4014 -0.4181  0.4138
  502MOL0     C66185   1.990   5.568   0.495 -0.8319 -0.2006 -0.8662
  502MOL0     C66186   2.431   5.511   0.588 -0.4747 -0.2206  0.1341
  502MOL0     C66187   2.513   5.621   0.561  0.2562 -0.1547 -0.0688
  502MOL0     C66188   2.642   5.630   0.614  0.1068  0.4581 -0.7776
  502MOL0     C66189   2.693   5.522   0.689 -0.3488 -0.9809 -0.6249
  502MOL0     O66190   2.823   5.546   0.724 -0.5293  0.1116 -0.5146
  502MOL0     C66191   2.874   5.480   0.836  0.4355  0.4267 -0.6179
  502MOL0     C66192   3.019   5.517   0.871 -1.0970 -0.0892  0.6525
  502MOL0     C66193   3.124   5.466   0.769 -0.0480 -0.4003 -0.5246
  502MOL0     C66194   3.265   5.539   0.797  0.2836  0.5399 -0.1794
  502MOL0     C66195   3.375   5.452   0.761 -0.3340  0.2061  0.5569
  502MOL0     C66196   3.466   5.376   0.729  0.7647 -0.4320  0.1958
  502MOL0     C66197   2.610   5.408   0.721 -1.1705  0.1952  0.1155
  502MOL0     C66198   2.478   5.410   0.677 -0.2121  0.3265  0.8297
  502MOL0     H66199   2.191   5.626   0.238  2.2521  2.0456  5.1996
  502MOL0     H66200   1.975   5.553   0.110  0.0243 -1.5806 -0.5604
  502MOL0     H66201   1.598   5.593   0.315  1.1601  0.8034  2.5552
  502MOL0     H66202   1.625   5.440   0.394 -1.6820 -2.9025 -1.3380
  502MOL0     H66203   1.504   5.317   0.265 -0.6409  0.4361 -0.8220
  502MOL0     H66204   1.512   5.426   0.122 -4.8193  3.0631 -0.0947
  502MOL0     H66205   1.386   5.595   0.238 -1.2381  1.0512 -2.1670
  502MOL0     H66206   1.378   5.467   0.369  0.9437 -2.8027 -0.4710
  502MOL0     H66207   1.289   5.405   0.085  0.0187 -1.8881  1.2276
  502MOL0     H66208   1.225   5.332   0.233 -1.3858  0.0078  1.0172
  502MOL0     H66209   1.089   5.552   0.272  1.4335  2.3995 -0.6220
  502MOL0     H66210   1.053   5.468   0.123  0.2902 -0.6451 -0.9739
  502MOL0     H66211   1.226   5.620   0.002  2.8042 -0.4997  1.2758
  502MOL0     H66212   1.218   5.727   0.148 -3.1454  2.5142 -1.6744
  502MOL0     H66213   1.077   5.791  -0.034 -0.4111 -0.4469 -1.4755
  502MOL0     H66214   0.970   5.647  -0.002 -1.2079  1.2336 -0.7438
  502MOL0     H66215   0.926   5.889   0.096  1.2538  0.9261  0.9432
  502MOL0     H66216   1.036   5.828   0.231  2.8737  1.2506 -3.3110
  502MOL0     H66217   0.694   5.697   0.075  1.4485 -0.2699 -0.9312
  502MOL0     H66218   0.545   5.500   0.366 -0.0257  0.7970  0.3047
  502MOL0     H66219   0.580   5.472   0.193  1.7082 -0.5580  1.4812
  502MOL0     H66220   0.461   5.704   0.160 -2.2589 -0.6600 -0.4315
  502MOL0     H66221   0.432   5.699   0.331  3.2987 -1.4714  1.4737
  502MOL0     H66222   0.227   5.639   0.201 -0.6223  0.7524  2.1193
  502MOL0     H66223   0.304   5.497   0.130  0.6132 -2.1589  1.2678
  502MOL0     H66224   0.248   5.534   0.424 -0.0025  1.3418 -1.0017
  502MOL0     H66225   0.340   5.409   0.349  1.7262  1.0371 -0.0091
  502MOL0     H66226   0.057   5.666   0.358 -1.1042  0.2145  2.2776
  502MOL0     H66227  -0.186   5.718   0.377 -0.3951  0.0901 -0.3683
  502MOL0     H66228  -0.654   5.712   0.331 -3.9123  4.2032  3.5910
  502MOL0     H66229  -0.885   5.723   0.365 -1.5170 -0.9390  1.9243
  502MOL0     H66230  -1.062   5.735   0.460 -2.7779  0.6518 -2.4417
  502MOL0     H66231  -1.028   5.664   0.617  2.3337 -0.9360 -0.0078
  502MOL0     H66232  -1.262   5.543   0.594 -2.1354  0.6436 -0.1220
  502MOL0     H66233  -1.267   5.625   0.442  0.8100 -0.2522  0.3023
  502MOL0     H66234  -1.252   5.845   0.614 -2.7295  0.4817 -0.4622
  502MOL0     H66235  -1.256   5.717   0.742  0.6188  0.8094  0.8816
  502MOL0     H66236  -1.478   5.854   0.644 -3.9117 -2.3243  3.8138
  502MOL0     H66237  -1.462   5.716   0.528 -1.2553 -2.5583  0.2364
  502MOL0     H66238  -1.478   5.709   0.831 -1.1504  0.5604 -0.5976
  502MOL0     H66239  -1.474   5.566   0.721  0.4788 -0.7145 -0.0743
  502MOL0     H66240  -1.682   5.778   0.791 -1.9739  0.2528  0.1129
  502MOL0     H66241  -1.710   5.609   0.800 -1.3183  0.3164 -1.5361
  502MOL0     H66242  -1.674   5.727   0.512 -1.8738 -0.2521 -2.3992
  502MOL0     H66243  -1.712   5.563   0.559 -3.7636 -0.6264 -1.7549
  502MOL0     H66244  -1.899   5.709   0.477  2.1247  1.4238 -1.0361
  502MOL0     H66245  -1.883   5.806   0.625  2.5934  0.0992  1.1841
  502MOL0     H66246  -0.906   5.309   0.464 -0.6410 -0.1534 -1.7727
  502MOL0     H66247  -0.664   5.291   0.423  4.5144  1.4802 -2.4719
  502MOL0     H66248  -0.300   5.314   0.306  1.9717 -2.0222  0.9273
  502MOL0     H66249  -0.047   5.263   0.274 -1.9508 -1.5218  1.0780
  502MOL0     H66250   1.781   5.534   0.496  0.4868  0.6267  0.7891
  502MOL0     H66251   1.977   5.572   0.603 -2.7687 -1.9829 -0.9703
  502MOL0     H66252   2.473   5.712   0.517  0.6691 -0.1614 -0.4748
  502MOL0     H66253   2.696   5.724   0.619  1.8339 -0.2609 -3.5149
  502MOL0     H66254   2.873   5.373   0.813 -2.6299  0.4352 -0.9727
  502MOL0     H66255   2.810   5.494   0.924  1.1237 -3.0129  0.6050
  502MOL0     H66256   3.030   5.626   0.872 -2.1639  0.0393  0.2216
  502MOL0     H66257   3.034   5.487   0.975  0.1524  1.7310  1.0478
  502MOL0     H66258   3.086   5.499   0.672  0.0131 -1.4480 -0.9118
  502MOL0     H66259   3.130   5.357   0.766  0.1805 -0.4780  1.4051
  502MOL0     H66260   3.271   5.634   0.744  0.6594  1.0113  0.7007
  502MOL0     H66261   3.281   5.560   0.903  0.7249 -1.1582  0.1211
  502MOL0     H66262   3.543   5.306   0.703  2.4258  0.8252  1.4963
  502MOL0     H66263   2.641   5.332   0.792 -2.5815 -1.1871 -0.6917
  502MOL0     H66264   2.410   5.330   0.705  0.0117 -0.9330 -1.8933
  503MOL0     O66265   1.309   7.718   2.143 -0.3325  0.4283  0.6359
  503MOL0     C66266   1.351   7.692   2.029  0.3367 -0.3778 -0.8728
  503MOL0     O66267   1.271   7.663   1.916  0.1563 -0.3286 -0.2010
  503MOL0     C66268   1.139   7.627   1.938 -0.3805  0.2914 -0.6149
  503MOL0     C66269   1.053   7.646   1.823 -0.1995 -0.1826 -0.5884
  503MOL0     C66270   0.923   7.591   1.818  0.2715 -0.1415 -0.1479
  503MOL0     C66271   0.865   7.542   1.933 -0.2361 -0.2514 -0.3525
  503MOL0     O66272   0.727   7.517   1.925 -0.5429  0.2443  0.1734
  503MOL0     C66273   0.651   7.428   2.013  0.2310  0.4455  0.3183
  503MOL0     C66274   0.504   7.426   1.968  0.2863  0.2576 -0.7127
  503MOL0     C66275   0.414   7.332   2.061 -0.0555 -0.6055 -0.1632
  503MOL0     C66276   0.272   7.370   2.048  0.2744  0.0460 -0.5078
  503MOL0     C66277   0.198   7.289   2.155 -0.5788  0.2041 -0.0212
  503MOL0     C66278   0.190   7.341   2.294  0.4022  0.1731  0.4249
  503MOL0     C66279   0.098   7.254   2.386  0.1866  0.7028  0.6823
  503MOL0     C66280   0.120   7.272   2.539 -0.1829  0.1178 -0.2429
  503MOL0     N66281  -0.003   7.254   2.615  0.3593 -0.0621 -0.1887
  503MOL0     C66282  -0.105   7.168   2.589  0.0922 -0.2109  0.2677
  503MOL0     C66283  -0.207   7.203   2.674 -0.4108  0.1754 -0.5557
  503MOL0     C66284  -0.338   7.139   2.689 -0.1340 -0.6850 -1.1635
  503MOL0     C66285  -0.328   7.008   2.771 -0.2593 -0.3124 -0.1341
  503MOL0     C66286  -0.358   7.029   2.919 -0.0051  0.5147  0.0085
  503MOL0     C66287  -0.507   7.033   2.955 -0.0958 -0.5611 -1.0604
  503MOL0     O66288  -0.577   7.137   2.889  0.2940  0.4658  0.7097
  503MOL0     C66289  -0.696   7.180   2.942 -0.1022 -0.0442  0.1077
  503MOL0     C66290  -0.767   7.110   3.042 -0.2599  0.2079  0.0482
  503MOL0     C66291  -0.882   7.172   3.094  0.2424 -0.4370 -0.6176
  503MOL0     C66292  -0.936   7.291   3.046 -0.2426  0.1212  1.5135
  503MOL0     C66293  -1.057   7.357   3.107  0.2202 -0.3185 -0.2512
  503MOL0     O66294  -1.100   7.305   3.230 -0.4757  0.2062 -0.2227
  503MOL0     C66295  -1.220   7.346   3.275  1.0088 -0.2212 -0.1668
  503MOL0     C66296  -1.330   7.270   3.266  1.1562 -0.3948 -0.7657
  503MOL0     C66297  -1.459   7.327   3.294 -0.9019 -0.5634  0.1125
  503MOL0     C66298  -1.468   7.459   3.344 -0.2341 -0.6740  0.2738
  503MOL0     O66299  -1.582   7.525   3.381  0.4244 -0.7356  0.7287
  503MOL0     C66300  -1.699   7.497   3.301 -0.3046 -0.6926  0.6210
  503MOL0     C66301  -1.694   7.526   3.153  0.3448  0.2919 -0.1667
  503MOL0     C66302  -1.842   7.556   3.103  0.3341  0.6251 -0.3752
  503MOL0     C66303  -1.841   7.556   2.951  0.0143  0.2258  0.3685
  503MOL0     C66304  -1.970   7.570   2.879  0.9705 -0.4150  0.9397
  503MOL0     C66305  -2.018   7.439   2.814  0.1700 -0.2824  0.4203
  503MOL0     C66306  -2.147   7.467   2.737  0.0311  1.0838 -0.2814
  503MOL0     C66307  -2.212   7.334   2.691 -0.2536 -0.0417 -0.9085
  503MOL0    Cl66308  -2.397   7.356   2.663 -0.1931  0.2309 -0.2359
  503MOL0     C66309  -1.358   7.535   3.356 -0.4920 -0.1169 -0.0192
  503MOL0     C66310  -1.233   7.481   3.330  0.1599  1.3724  0.3064
  503MOL0     O66311  -1.105   7.459   3.052  0.4001 -0.0812 -0.5303
  503MOL0     C66312  -0.868   7.348   2.935  0.9429  0.3482 -0.1096
  503MOL0     C66313  -0.753   7.295   2.884 -0.0617  0.0050  0.2402
  503MOL0     N66314  -0.152   7.299   2.756  0.4127  0.0395  0.5762
  503MOL0     N66315  -0.030   7.330   2.722  0.0643 -0.2449 -0.2456
  503MOL0     C66316   0.952   7.508   2.040  0.6476 -0.0703 -0.4481
  503MOL0     C66317   1.085   7.550   2.041 -0.3474  0.2272 -0.0280
  503MOL0     C66318   1.497   7.668   2.013 -0.4011 -0.1735 -0.3906
  503MOL0     C66319   1.551   7.647   1.885  0.1782 -0.0205 -0.3456
  503MOL0     C66320   1.683   7.613   1.873 -0.1443  0.1956 -1.0870
  503MOL0     C66321   1.766   7.628   1.983 -0.0680  0.0000 -0.5457
  503MOL0     O66322   1.896   7.600   1.959  0.4144 -0.7975  0.9822
  503MOL0     C66323   1.999   7.653   2.047 -0.9622 -0.1112 -0.3392
  503MOL0     C66324   2.131   7.648   1.965 -0.0452  0.1198 -0.4349
  503MOL0     C66325   2.186   7.507   1.952  0.0244  0.4493  0.4820
  503MOL0     C66326   2.310   7.493   1.861 -0.5338 -0.1932  0.0541
  503MOL0     C66327   2.270   7.524   1.722  0.1147 -0.5858 -0.4699
  503MOL0     C66328   2.235   7.571   1.619 -0.1120 -0.2524 -0.0841
  503MOL0     C66329   1.724   7.652   2.111  0.1982 -0.8519  0.7918
  503MOL0     C66330   1.584   7.680   2.124 -0.2916 -0.5047 -0.6611
  503MOL0     H66331   1.101   7.701   1.743  1.0227  1.6996  1.3481
  503MOL0     H66332   0.865   7.604   1.728  0.2733  0.1892 -0.1019
  503MOL0     H66333   0.657   7.465   2.116  0.1353 -0.1617  0.5494
  503MOL0     H66334   0.703   7.333   2.002  0.6067  0.6232  0.5436
  503MOL0     H66335   0.507   7.394   1.863 -1.0206  1.3911 -1.1221
  503MOL0     H66336   0.472   7.529   1.987  4.6370  1.6859 -0.1922
  503MOL0     H66337   0.444   7.354   2.164 -2.0338 -1.0721  0.5688
  503MOL0     H66338   0.430   7.225   2.040 -1.4347 -1.0956  1.1213
  503MOL0     H66339   0.258   7.478   2.055  0.9580  0.2438 -1.8434
  503MOL0     H66340   0.238   7.329   1.952 -0.7815  2.0163 -1.0473
  503MOL0     H66341   0.233   7.185   2.150  1.2789  0.8099 -0.0506
  503MOL0     H66342   0.095   7.288   2.116 -1.1673  1.4968  1.4179
  503MOL0     H66343   0.160   7.446   2.282  0.8504  0.2524 -0.0366
  503MOL0     H66344   0.296   7.344   2.321  0.6312  0.0279 -0.4473
  503MOL0     H66345  -0.008   7.268   2.364 -0.0938 -1.2229  0.6613
  503MOL0     H66346   0.110   7.146   2.378 -0.3024  0.5896  1.4055
  503MOL0     H66347   0.159   7.370   2.568 -0.0586 -0.0301  0.0895
  503MOL0     H66348   0.200   7.205   2.573  0.8123  1.8387  0.9393
  503MOL0     H66349  -0.095   7.091   2.513 -3.2213  1.2315 -1.8050
  503MOL0     H66350  -0.366   7.110   2.587 -2.3949 -1.5138 -0.3780
  503MOL0     H66351  -0.411   7.211   2.727  0.6847 -1.2292  1.6216
  503MOL0     H66352  -0.226   6.972   2.754  0.7328  0.3571  3.6096
  503MOL0     H66353  -0.410   6.946   2.732  0.1318 -0.6909 -0.3619
  503MOL0     H66354  -0.302   6.948   2.967  1.5042  0.6483 -1.4317
  503MOL0     H66355  -0.310   7.121   2.955 -3.9705  1.5974  3.2647
  503MOL0     H66356  -0.509   7.056   3.062 -2.7044  0.1433 -1.1980
  503MOL0     H66357  -0.554   6.934   2.956  0.3778 -0.7894 -1.1041
  503MOL0     H66358  -0.749   7.010   3.079 -1.1196  0.4445  1.1515
  503MOL0     H66359  -0.932   7.116   3.172  2.1705 -1.6676 -0.2150
  503MOL0     H66360  -1.318   7.166   3.234 -0.8023 -0.6881 -0.6301
  503MOL0     H66361  -1.550   7.267   3.291 -1.8955  0.9268 -1.2765
  503MOL0     H66362  -1.778   7.553   3.351  0.1996 -0.9596  1.7549
  503MOL0     H66363  -1.736   7.396   3.322 -1.4914 -0.2529  0.6850
  503MOL0     H66364  -1.657   7.431   3.114  0.3007 -0.1198  0.7807
  503MOL0     H66365  -1.626   7.609   3.133  1.2550 -0.3640  0.1596
  503MOL0     H66366  -1.887   7.646   3.145 -0.0383  0.4421 -0.3749
  503MOL0     H66367  -1.901   7.472   3.142  2.6374 -0.6681  0.5452
  503MOL0     H66368  -1.771   7.637   2.928  2.0097 -1.1549  1.3373
  503MOL0     H66369  -1.798   7.459   2.925 -2.0103 -1.4525  2.8096
  503MOL0     H66370  -1.956   7.640   2.796 -3.1724  0.3406  0.6799
  503MOL0     H66371  -2.039   7.621   2.946 -0.6712 -0.8991 -0.3242
  503MOL0     H66372  -2.031   7.355   2.883  1.3392 -1.2668 -0.5202
  503MOL0     H66373  -1.942   7.400   2.746 -0.2760 -1.8601  0.7882
  503MOL0     H66374  -2.212   7.519   2.808  0.8760 -0.3161  1.6049
  503MOL0     H66375  -2.132   7.527   2.647  1.1554  0.9205 -0.2098
  503MOL0     H66376  -2.205   7.254   2.765 -2.4395 -3.0025 -3.6618
  503MOL0     H66377  -2.172   7.292   2.598  0.0150  1.7924 -1.6676
  503MOL0     H66378  -1.363   7.640   3.386 -1.0023 -0.9817  3.3969
  503MOL0     H66379  -1.142   7.536   3.352  1.1611  0.4045 -1.1776
  503MOL0     H66380  -0.909   7.440   2.896 -1.2714 -0.9111 -0.9045
  503MOL0     H66381  -0.708   7.345   2.799  2.8198 -3.1043 -0.2570
  503MOL0     H66382   0.911   7.458   2.128 -1.0076  1.0335 -0.5376
  503MOL0     H66383   1.140   7.520   2.130 -1.3527 -1.1364  0.1725
  503MOL0     H66384   1.488   7.646   1.796 -0.6821  0.7896  0.2310
  503MOL0     H66385   1.727   7.585   1.778  0.0973 -3.4314 -0.0585
  503MOL0     H66386   1.998   7.609   2.147 -2.7723  0.1606 -0.2076
  503MOL0     H66387   1.982   7.760   2.061  0.3806  0.4537 -2.4871
  503MOL0     H66388   2.129   7.692   1.865 -4.0655 -1.5761 -1.3110
  503MOL0     H66389   2.200   7.712   2.019 -0.6591  0.5097 -0.0958
  503MOL0     H66390   2.116   7.430   1.918  0.5472  1.0305 -2.1765
  503MOL0     H66391   2.222   7.477   2.051 -2.6595  0.4533  1.5419
  503MOL0     H66392   2.390   7.555   1.903  0.4170 -2.5972  2.0303
  503MOL0     H66393   2.349   7.391   1.849  0.7425  0.5288 -2.7171
  503MOL0     H66394   2.200   7.600   1.523  0.0271 -2.3879 -0.8463
  503MOL0     H66395   1.789   7.665   2.197 -0.2886  0.0568  1.0441
  503MOL0     H66396   1.543   7.710   2.220 -1.4901 -0.4588 -1.1613
  504MOL0     O66397   4.611   7.110   1.289 -0.0270 -0.0437  0.4118
  504MOL0     C66398   4.618   7.226   1.253 -0.8885  0.3128  0.2409
  504MOL0     O66399   4.524   7.286   1.168  0.0076 -0.3353  0.3271
  504MOL0     C66400   4.409   7.223   1.120 -0.7583  0.4142  0.0864
  504MOL0     C66401   4.345   7.111   1.192  0.4503 -0.4774  0.4191
  504MOL0     C66402   4.239   7.033   1.143  0.2658  0.2482 -0.1732
  504MOL0     C66403   4.187   7.061   1.013  0.4180  0.2883 -0.1526
  504MOL0     O66404   4.078   6.990   0.966 -0.8646 -0.1941  0.6934
  504MOL0     C66405   4.053   6.995   0.816 -0.0041 -0.1226 -0.7580
  504MOL0     C66406   3.921   7.094   0.796 -0.9837  0.0819  0.1899
  504MOL0     C66407   3.805   7.059   0.891  0.7990 -0.8831  0.0285
  504MOL0     C66408   3.671   7.133   0.869  0.1156 -0.8975  0.3945
  504MOL0     C66409   3.663   7.270   0.936 -0.4557  0.0941  0.6237
  504MOL0     C66410   3.718   7.393   0.850  0.6269  0.7711 -0.2381
  504MOL0     C66411   3.843   7.456   0.914 -0.4391  0.5366 -0.1817
  504MOL0     C66412   3.902   7.559   0.809  0.5268  0.3692  0.3452
  504MOL0     N66413   3.967   7.505   0.690  0.4095  0.4555  0.0267
  504MOL0     C66414   4.089   7.442   0.699  0.5824 -0.2149 -0.1580
  504MOL0     C66415   4.131   7.431   0.573  0.0797  0.0178  0.0432
  504MOL0     C66416   4.273   7.401   0.520 -0.2272 -0.8715  0.3743
  504MOL0     C66417   4.385   7.490   0.585 -0.0666 -0.3824 -0.4844
  504MOL0     C66418   4.509   7.496   0.495  0.7560  0.0679 -0.1553
  504MOL0     C66419   4.490   7.610   0.387  0.2928 -0.1388 -0.5779
  504MOL0     O66420   4.459   7.752   0.435  0.0219  0.5493 -0.4773
  504MOL0     C66421   4.563   7.840   0.450  0.8039 -0.5233  0.0320
  504MOL0     C66422   4.696   7.807   0.437 -0.3126 -0.0654  0.0670
  504MOL0     C66423   4.805   7.894   0.444  0.0416  0.3464 -0.6034
  504MOL0     C66424   4.780   8.029   0.487 -0.5286 -0.5324  0.5777
  504MOL0     C66425   4.880   8.139   0.490 -0.4846  0.3358 -0.6887
  504MOL0     O66426   5.010   8.107   0.489  0.0879  0.1378 -0.3573
  504MOL0     C66427   5.120   8.196   0.486  0.6084  0.9613  0.3420
  504MOL0     C66428   5.123   8.314   0.552 -0.0636  0.0996 -0.4191
  504MOL0     C66429   5.240   8.392   0.545  0.8492 -0.6310 -0.0753
  504MOL0     C66430   5.353   8.346   0.480 -0.9803  0.2824 -0.0963
  504MOL0     O66431   5.466   8.424   0.478 -0.2473  0.1598  0.2111
  504MOL0     C66432   5.593   8.366   0.509 -0.5948 -0.1536  0.0346
  504MOL0     C66433   5.664   8.425   0.635 -0.5724 -0.4810  0.8424
  504MOL0     C66434   5.808   8.356   0.643  0.1793 -0.3804  0.4515
  504MOL0     C66435   5.880   8.397   0.779  0.2989  0.4107  0.1528
  504MOL0     C66436   6.016   8.333   0.828  0.1755 -0.3011  0.5235
  504MOL0     C66437   6.128   8.356   0.709  0.2100 -0.1992 -0.1100
  504MOL0     C66438   6.254   8.284   0.751 -0.0539  0.8465  0.0805
  504MOL0     C66439   6.360   8.307   0.647  0.1563 -1.1672  0.4855
  504MOL0    Cl66440   6.518   8.235   0.693  0.4425  0.3674  0.4891
  504MOL0     C66441   5.348   8.221   0.413 -0.0542 -0.2853  0.0274
  504MOL0     C66442   5.234   8.138   0.418  0.6102  0.0498 -0.1396
  504MOL0     O66443   4.841   8.253   0.503 -0.0646 -0.3058 -0.1880
  504MOL0     C66444   4.646   8.065   0.512  0.7025 -0.6558  0.6744
  504MOL0     C66445   4.536   7.974   0.492 -0.3807  0.6255  0.6386
  504MOL0     N66446   4.028   7.474   0.488  0.0268  0.6825 -0.8650
  504MOL0     N66447   3.929   7.524   0.559  0.1731  0.0817  0.6852
  504MOL0     C66448   4.254   7.167   0.944 -0.4474  0.4910 -0.8800
  504MOL0     C66449   4.360   7.243   0.989 -0.5130 -0.2910 -1.1289
  504MOL0     C66450   4.744   7.287   1.292 -0.2752 -0.3749  0.6593
  504MOL0     C66451   4.824   7.238   1.401  0.3289 -0.3662  0.3680
  504MOL0     C66452   4.939   7.315   1.446  0.2961  0.1944 -0.0144
  504MOL0     C66453   4.967   7.438   1.387 -0.5861  0.6961  0.8177
  504MOL0     O66454   5.074   7.507   1.437 -0.5427  0.2243 -0.1369
  504MOL0     C66455   5.052   7.614   1.528  0.0927 -0.1509  0.6743
  504MOL0     C66456   5.175   7.704   1.543  0.0875 -0.3058  0.1980
  504MOL0     C66457   5.300   7.626   1.598  0.9681 -0.5910  0.1211
  504MOL0     C66458   5.402   7.704   1.654  0.1033  0.8338  0.1373
  504MOL0     C66459   5.473   7.794   1.558 -1.6669  0.2160 -0.3298
  504MOL0     C66460   5.523   7.869   1.478 -0.0873 -0.3403 -0.1163
  504MOL0     C66461   4.891   7.488   1.284  0.4336  0.9599  0.8598
  504MOL0     C66462   4.783   7.416   1.237 -0.2209  0.0036 -0.5218
  504MOL0     H66463   4.382   7.097   1.294 -0.2648 -1.1346  0.5923
  504MOL0     H66464   4.206   6.947   1.200  0.7012 -0.6487 -1.2464
  504MOL0     H66465   4.034   6.898   0.770 -0.2373 -0.0586 -0.7937
  504MOL0     H66466   4.139   7.035   0.761 -0.2852  0.5286 -0.7336
  504MOL0     H66467   3.874   7.068   0.701  0.2816 -0.8992 -0.1944
  504MOL0     H66468   3.951   7.199   0.804 -0.2694 -0.1991  1.5289
  504MOL0     H66469   3.841   7.076   0.993 -2.4782  1.4598  0.9702
  504MOL0     H66470   3.783   6.956   0.863  3.3836 -0.9988 -2.0075
  504MOL0     H66471   3.643   7.142   0.764  0.8276  3.6949  0.3693
  504MOL0     H66472   3.596   7.070   0.918  1.7596 -1.2026  2.7151
  504MOL0     H66473   3.699   7.257   1.038 -0.1683 -0.3732  0.4669
  504MOL0     H66474   3.555   7.282   0.948 -0.4430 -1.1524  2.2533
  504MOL0     H66475   3.637   7.462   0.826 -0.3290  0.9188  2.8582
  504MOL0     H66476   3.758   7.358   0.755  1.0664  0.5984  0.0064
  504MOL0     H66477   3.812   7.508   1.005  0.7697  3.0532 -1.0874
  504MOL0     H66478   3.921   7.380   0.922 -2.2216 -1.7553 -2.7702
  504MOL0     H66479   3.977   7.618   0.864 -0.9059 -0.3853  3.3526
  504MOL0     H66480   3.817   7.624   0.785 -0.2788 -0.7250  0.1557
  504MOL0     H66481   4.144   7.410   0.787  0.8790  0.0592 -0.2414
  504MOL0     H66482   4.273   7.426   0.413 -0.4551  1.4546  0.8714
  504MOL0     H66483   4.296   7.294   0.534  0.4898 -0.6084  1.3145
  504MOL0     H66484   4.415   7.440   0.677 -1.4292  0.0378  0.2083
  504MOL0     H66485   4.335   7.582   0.615  1.3688 -0.3552  2.0934
  504MOL0     H66486   4.595   7.529   0.554 -0.5889  2.0638  0.8345
  504MOL0     H66487   4.529   7.402   0.443 -0.4716  0.7282 -1.9220
  504MOL0     H66488   4.409   7.578   0.320  0.2799 -1.9054  0.2378
  504MOL0     H66489   4.574   7.602   0.318 -0.2047  1.9460 -1.5091
  504MOL0     H66490   4.719   7.703   0.415 -0.8716  0.0882 -1.3452
  504MOL0     H66491   4.905   7.865   0.413 -0.5899  0.8166 -3.3529
  504MOL0     H66492   5.037   8.330   0.616 -1.0344 -0.7560 -1.4651
  504MOL0     H66493   5.247   8.483   0.604  1.4639  0.5758 -1.9355
  504MOL0     H66494   5.654   8.401   0.425 -0.0528  0.8528  0.8200
  504MOL0     H66495   5.594   8.257   0.505 -1.1376 -0.2193  1.2171
  504MOL0     H66496   5.608   8.396   0.724 -0.3681 -1.8086  0.5731
  504MOL0     H66497   5.679   8.533   0.635  0.0451 -0.5045 -1.5684
  504MOL0     H66498   5.865   8.389   0.556 -1.4729 -0.3128 -0.6473
  504MOL0     H66499   5.789   8.249   0.639 -1.1411 -0.1960  1.2137
  504MOL0     H66500   5.897   8.497   0.738 -1.2712 -0.0230 -1.7115
  504MOL0     H66501   5.802   8.394   0.855  2.5546 -2.3748  2.5999
  504MOL0     H66502   6.007   8.225   0.841 -0.9325 -0.2909  0.0131
  504MOL0     H66503   6.046   8.371   0.926  2.2187  2.2152 -0.9550
  504MOL0     H66504   6.157   8.462   0.704  0.8264 -0.2142  2.0697
  504MOL0     H66505   6.091   8.321   0.613  1.2150 -0.9219 -0.2479
  504MOL0     H66506   6.276   8.325   0.850 -2.6474  1.4233  0.4854
  504MOL0     H66507   6.228   8.180   0.774  0.9391  0.8536  1.3959
  504MOL0     H66508   6.378   8.413   0.623 -1.2487 -0.4368  2.3888
  504MOL0     H66509   6.324   8.249   0.562  1.6469 -0.0501 -0.9587
  504MOL0     H66510   5.440   8.196   0.361  3.0720  4.3917  2.5918
  504MOL0     H66511   5.222   8.037   0.378  2.1146 -0.0311 -0.4300
  504MOL0     H66512   4.617   8.162   0.550  1.2076 -0.5984  0.9117
  504MOL0     H66513   4.433   8.006   0.500 -0.9358 -1.2936  2.2190
  504MOL0     H66514   4.218   7.192   0.844 -2.1937  1.2959 -0.0972
  504MOL0     H66515   4.389   7.339   0.948  1.1297  1.6773  3.8589
  504MOL0     H66516   4.800   7.137   1.433  0.2226 -0.5063 -0.1410
  504MOL0     H66517   5.019   7.274   1.507  1.9406 -0.1564 -2.2643
  504MOL0     H66518   5.025   7.579   1.628  0.2592  1.0838  1.1756
  504MOL0     H66519   4.962   7.667   1.497 -2.2659 -3.8016  0.7544
  504MOL0     H66520   5.197   7.734   1.440  2.0674  0.6117  0.8385
  504MOL0     H66521   5.162   7.802   1.591  0.5365  0.1731 -0.6289
  504MOL0     H66522   5.344   7.578   1.510  1.6194  1.1145 -0.5207
  504MOL0     H66523   5.271   7.555   1.677 -1.2658 -0.6193 -0.6478
  504MOL0     H66524   5.370   7.776   1.731  3.3493  3.2134 -0.5248
  504MOL0     H66525   5.464   7.630   1.704 -0.0930  0.5194 -0.0848
  504MOL0     H66526   5.570   7.946   1.421 -0.7029 -0.7509 -1.2104
  504MOL0     H66527   4.906   7.583   1.235 -0.0755  0.5044 -0.2022
  504MOL0     H66528   4.725   7.472   1.165  2.0951  0.6858 -1.9580
  505MOL0     O66529   3.291   6.245   3.583  0.2537  0.3540 -0.7873
  505MOL0     C66530   3.385   6.270   3.507  0.9511  0.0766  0.1254
  505MOL0     O66531   3.372   6.347   3.385  0.1848  0.0736 -0.1213
  505MOL0     C66532   3.253   6.401   3.345 -0.3937  0.1658  0.8697
  505MOL0     C66533   3.141   6.425   3.426 -0.0105 -0.7002  0.0652
  505MOL0     C66534   3.021   6.465   3.371  0.9465 -0.5556  0.5743
  505MOL0     C66535   3.010   6.511   3.235 -0.2476  0.0619  0.7077
  505MOL0     O66536   2.894   6.553   3.185  0.0419  0.0925 -0.9116
  505MOL0     C66537   2.876   6.610   3.054  0.2933 -0.5621  0.2739
  505MOL0     C66538   2.838   6.502   2.949 -0.1214 -0.5672 -0.2160
  505MOL0     C66539   2.707   6.440   2.988  0.7388 -0.3638  0.6378
  505MOL0     C66540   2.645   6.340   2.882  0.1421 -0.8952 -0.3886
  505MOL0     C66541   2.516   6.269   2.926 -0.2943 -0.2166 -0.3224
  505MOL0     C66542   2.385   6.346   2.928 -0.1330 -0.2069  0.0548
  505MOL0     C66543   2.275   6.249   2.945  0.0611  0.2252  0.1409
  505MOL0     C66544   2.143   6.332   2.976  0.8346 -0.2651 -0.5131
  505MOL0     N66545   2.032   6.233   2.988 -0.2885 -0.2412 -0.7539
  505MOL0     C66546   1.980   6.211   3.115 -0.1690  0.5998  0.1435
  505MOL0     C66547   1.860   6.151   3.095  0.4568 -0.0163  0.5086
  505MOL0     C66548   1.755   6.106   3.199  0.5639  0.6259  0.5909
  505MOL0     C66549   1.782   5.976   3.272 -0.0102  1.2399 -0.8299
  505MOL0     C66550   1.769   5.849   3.178 -0.0485 -0.7008  0.6804
  505MOL0     C66551   1.768   5.727   3.252 -0.0875 -0.1915 -0.1195
  505MOL0     O66552   1.901   5.709   3.306  0.1959 -0.4449 -1.0335
  505MOL0     C66553   1.917   5.693   3.447 -0.0548  0.1970  0.1893
  505MOL0     C66554   1.967   5.566   3.491  0.1208 -0.2769  0.0383
  505MOL0     C66555   1.963   5.540   3.630  0.2045 -0.7110  0.3437
  505MOL0     C66556   1.914   5.634   3.723 -0.3586 -0.4267 -0.2286
  505MOL0     C66557   1.880   5.597   3.868 -0.4063  0.5262  0.2989
  505MOL0     O66558   1.931   5.481   3.901 -0.2901 -0.5964 -0.6584
  505MOL0     C66559   1.897   5.400   4.010  0.4004  0.1541  0.0109
  505MOL0     C66560   1.762   5.390   4.054  0.4930  0.6474  0.1016
  505MOL0     C66561   1.727   5.313   4.167 -0.7945  0.3714 -0.0388
  505MOL0     C66562   1.831   5.229   4.228  0.3182 -0.3218 -0.1810
  505MOL0     O66563   1.819   5.142   4.337  0.1720 -0.5815  0.1015
  505MOL0     C66564   1.685   5.092   4.362  0.6869 -0.3169  0.0979
  505MOL0     C66565   1.614   5.190   4.466 -0.2301  0.3459 -0.2501
  505MOL0     C66566   1.465   5.156   4.495 -0.1690  0.3116 -0.6987
  505MOL0     C66567   1.374   5.112   4.388 -0.3613  0.0137  0.3898
  505MOL0     C66568   1.229   5.094   4.436 -0.0227  0.2526  0.8093
  505MOL0     C66569   1.137   5.092   4.320 -0.0221 -0.2029 -0.1883
  505MOL0     C66570   0.992   5.065   4.369  1.1188  0.5639 -0.6996
  505MOL0     C66571   0.902   4.984   4.284  0.0121  0.5798 -1.0048
  505MOL0    Cl66572   0.751   4.959   4.380  0.1632 -0.1565 -0.0457
  505MOL0     C66573   1.959   5.228   4.171 -0.2976 -0.8205  0.3622
  505MOL0     C66574   1.993   5.317   4.069 -0.2626  1.2069 -0.6102
  505MOL0     O66575   1.825   5.671   3.941  0.5626 -0.6527 -0.6457
  505MOL0     C66576   1.909   5.768   3.673  0.8596 -0.1234 -0.1088
  505MOL0     C66577   1.892   5.792   3.541  0.5056  0.2100  1.2981
  505MOL0     N66578   1.850   6.131   2.957  0.9965  0.3722 -0.1573
  505MOL0     N66579   1.953   6.175   2.893 -0.1149  0.5955  0.4411
  505MOL0     C66580   3.129   6.496   3.159 -0.2994  0.3978 -0.6295
  505MOL0     C66581   3.245   6.433   3.215 -1.0698 -0.4457 -0.7050
  505MOL0     C66582   3.510   6.201   3.544  0.5244 -0.5401 -1.0466
  505MOL0     C66583   3.627   6.205   3.464 -0.1790  0.4232  0.4014
  505MOL0     C66584   3.748   6.152   3.519 -0.3795  0.1799 -0.7290
  505MOL0     C66585   3.757   6.084   3.644  1.2275 -0.3077 -0.0561
  505MOL0     O66586   3.858   6.010   3.691  0.1877  0.4230 -0.3628
  505MOL0     C66587   3.973   5.999   3.612  0.3251  0.5576  0.5463
  505MOL0     C66588   4.064   5.911   3.678 -0.0034 -0.4671  0.2631
  505MOL0     C66589   4.127   5.981   3.798 -0.9502  0.4342 -0.6566
  505MOL0     C66590   4.223   5.895   3.886 -0.2000 -0.4220  0.1223
  505MOL0     C66591   4.272   5.964   4.008  0.0285 -0.6009 -0.0645
  505MOL0     C66592   4.299   6.031   4.104  0.3693 -0.4428  0.5069
  505MOL0     C66593   3.636   6.070   3.717  0.2329 -0.3232 -0.4347
  505MOL0     C66594   3.520   6.130   3.670 -0.9655  0.3944  0.1690
  505MOL0     H66595   3.139   6.408   3.534 -1.4437 -1.6603 -0.0870
  505MOL0     H66596   2.933   6.464   3.435  1.3254 -0.0337  1.1184
  505MOL0     H66597   2.959   6.670   3.016 -1.4278  1.5963 -0.2607
  505MOL0     H66598   2.794   6.682   3.064 -0.6261 -1.1833 -2.0672
  505MOL0     H66599   2.925   6.437   2.940  1.6129  1.5971  0.0041
  505MOL0     H66600   2.828   6.548   2.851  0.4718 -0.5499 -0.2722
  505MOL0     H66601   2.626   6.509   3.011  0.9760  0.2471 -0.2865
  505MOL0     H66602   2.718   6.377   3.077 -0.6203 -4.2005 -1.6512
  505MOL0     H66603   2.628   6.402   2.794 -1.5081  1.1222  1.2379
  505MOL0     H66604   2.725   6.272   2.852 -1.1821 -2.4181 -0.5364
  505MOL0     H66605   2.533   6.225   3.025 -3.6012 -0.6153  0.1870
  505MOL0     H66606   2.496   6.192   2.851 -0.5947 -1.4687  0.9888
  505MOL0     H66607   2.376   6.386   2.826  2.1437 -1.2972 -0.6358
  505MOL0     H66608   2.380   6.431   2.997 -0.3537 -1.6548  1.8854
  505MOL0     H66609   2.246   6.187   2.860  1.3259 -1.4674  0.8969
  505MOL0     H66610   2.289   6.183   3.031 -0.4884 -0.2362 -0.1161
  505MOL0     H66611   2.111   6.392   2.890 -0.8244  0.7645  0.7709
  505MOL0     H66612   2.160   6.395   3.064  1.1470  0.9318 -1.3986
  505MOL0     H66613   2.008   6.229   3.219 -0.0854  0.8756  0.0723
  505MOL0     H66614   1.658   6.092   3.150 -0.4405  5.7290  0.4895
  505MOL0     H66615   1.751   6.180   3.280  3.6295 -1.3208  2.7400
  505MOL0     H66616   1.706   5.969   3.350 -1.8857 -0.2204 -2.6521
  505MOL0     H66617   1.886   5.979   3.305 -0.5096 -0.9645  1.1996
  505MOL0     H66618   1.673   5.855   3.127  0.4001 -1.2703 -0.2483
  505MOL0     H66619   1.844   5.856   3.100 -0.5625 -1.8023  0.0546
  505MOL0     H66620   1.746   5.640   3.189 -0.7463  0.2924 -0.5687
  505MOL0     H66621   1.697   5.722   3.335  2.6974  0.0750  2.4508
  505MOL0     H66622   2.002   5.484   3.429  0.5786 -0.5101  0.5989
  505MOL0     H66623   1.999   5.441   3.657  0.8848 -0.3898  0.6236
  505MOL0     H66624   1.682   5.451   4.013  2.1404  0.8825 -3.0557
  505MOL0     H66625   1.624   5.323   4.200 -2.0408 -0.0479 -3.4673
  505MOL0     H66626   1.700   4.996   4.412  0.4578 -0.1404  0.5053
  505MOL0     H66627   1.632   5.073   4.268 -1.3518  2.4909  0.5626
  505MOL0     H66628   1.627   5.294   4.434  0.4165  0.1251 -0.7384
  505MOL0     H66629   1.665   5.189   4.563 -1.1688 -2.1570  0.2822
  505MOL0     H66630   1.428   5.250   4.538  2.2330  1.3932 -0.8060
  505MOL0     H66631   1.462   5.082   4.576 -1.9486 -0.1825 -1.1759
  505MOL0     H66632   1.382   5.189   4.310  2.1370 -1.4860 -0.9532
  505MOL0     H66633   1.398   5.019   4.337 -0.0385  0.6684 -0.6933
  505MOL0     H66634   1.200   5.167   4.513  2.3286  1.1860  0.8883
  505MOL0     H66635   1.228   4.995   4.481  0.6447  1.3457  3.4509
  505MOL0     H66636   1.169   5.021   4.243 -3.7232 -1.1270 -1.0980
  505MOL0     H66637   1.134   5.187   4.266  1.8504 -0.3522 -0.6307
  505MOL0     H66638   0.987   5.020   4.469 -0.0133 -0.7438 -1.3048
  505MOL0     H66639   0.933   5.157   4.373  1.2998  0.6525  2.5325
  505MOL0     H66640   0.958   4.891   4.274  2.5240  1.4833  2.7686
  505MOL0     H66641   0.886   5.030   4.186  0.0593 -1.6271 -2.1211
  505MOL0     H66642   2.039   5.176   4.222  1.5107  1.0062 -0.4966
  505MOL0     H66643   2.095   5.320   4.031 -0.1728  1.5454 -0.3425
  505MOL0     H66644   1.876   5.847   3.740 -0.5808  0.3112 -1.2720
  505MOL0     H66645   1.859   5.887   3.500 -1.3218 -0.3404  1.3985
  505MOL0     H66646   3.142   6.522   3.054  0.4814 -2.4542 -1.3063
  505MOL0     H66647   3.328   6.398   3.154  0.2164  0.0881  0.6680
  505MOL0     H66648   3.637   6.239   3.361 -1.5186  0.1108  0.1483
  505MOL0     H66649   3.833   6.155   3.451  1.8778  4.3971  1.8039
  505MOL0     H66650   4.019   6.096   3.588  1.5710 -0.3743 -1.0392
  505MOL0     H66651   3.945   5.958   3.515  1.8778  0.8095 -0.0429
  505MOL0     H66652   4.018   5.820   3.715  2.8340 -2.3944 -0.5896
  505MOL0     H66653   4.128   5.875   3.596  0.6279  1.2564 -0.0542
  505MOL0     H66654   4.044   6.025   3.855 -0.9087  1.3196 -1.2612
  505MOL0     H66655   4.180   6.068   3.758  2.9594 -0.3332  2.2750
  505MOL0     H66656   4.172   5.805   3.921 -1.8875  1.1657  2.0744
  505MOL0     H66657   4.315   5.867   3.835  0.8987  0.5678  1.4813
  505MOL0     H66658   4.329   6.093   4.187 -0.7008  1.0618 -0.1800
  505MOL0     H66659   3.636   6.019   3.813  1.8410 -0.5835 -0.5475
  505MOL0     H66660   3.425   6.126   3.723 -3.2149 -1.3328 -3.5344
  506MOL0     O66661   1.132   1.766  10.622 -0.3074 -0.2465 -0.9442
  506MOL0     C66662   1.201   1.845  10.565 -0.2918 -0.7508  0.1651
  506MOL0     O66663   1.152   1.930  10.469 -0.3765 -0.5239  0.4288
  506MOL0     C66664   1.015   1.916  10.447 -0.7617 -0.0290  0.6350
  506MOL0     C66665   0.929   1.996  10.517 -0.0815  0.3553 -0.2183
  506MOL0     C66666   0.789   1.983  10.500 -0.2926  0.4687 -0.7654
  506MOL0     C66667   0.730   1.885  10.417 -0.4719 -0.0065 -0.0466
  506MOL0     O66668   0.598   1.880  10.406 -0.3474  0.5298  0.0561
  506MOL0     C66669   0.527   1.847  10.525 -0.6214  0.1841  0.4553
  506MOL0     C66670   0.399   1.789  10.471 -0.0596 -0.0493 -0.1293
  506MOL0     C66671   0.315   1.732  10.582  0.5535 -0.1314  0.6179
  506MOL0     C66672   0.172   1.691  10.532  0.5749  0.3201  1.1080
  506MOL0     C66673   0.087   1.614  10.637  0.2312  0.5728  0.7020
  506MOL0     C66674  -0.048   1.689  10.660 -0.4147  0.4609 -0.8219
  506MOL0     C66675  -0.151   1.629  10.760 -0.7061 -0.0516 -0.4086
  506MOL0     C66676  -0.283   1.696  10.748 -0.2386 -0.0351 -0.2310
  506MOL0     N66677  -0.385   1.625  10.826  0.8569  0.0654  0.1902
  506MOL0     C66678  -0.432   1.504  10.789  0.5672  1.1165  0.6822
  506MOL0     C66679  -0.555   1.495  10.848 -0.4823 -0.1680 -1.1135
  506MOL0     C66680  -0.659   1.389  10.825  0.9554 -1.2528  0.3935
  506MOL0     C66681  -0.737   1.394  10.693 -0.0439  0.0558 -0.3692
  506MOL0     C66682  -0.830   1.505  10.698 -0.3270  0.1971  0.3843
  506MOL0     C66683  -0.886   1.528  10.547  0.8448 -0.4068 -0.2587
  506MOL0     O66684  -0.922   1.409  10.486 -0.1241 -0.1689  0.4193
  506MOL0     C66685  -1.055   1.396  10.490  0.0247 -0.1687 -0.7034
  506MOL0     C66686  -1.128   1.372  10.607 -0.3571 -0.2823  0.9466
  506MOL0     C66687  -1.262   1.342  10.590  0.8554 -0.3556  0.1632
  506MOL0     C66688  -1.331   1.370  10.473  0.1999 -0.1900 -0.4091
  506MOL0     C66689  -1.485   1.368  10.475  0.6238  0.2541 -0.5808
  506MOL0     O66690  -1.540   1.415  10.362  0.1339 -0.4454  0.5381
  506MOL0     C66691  -1.671   1.378  10.338  0.2026  0.0648  0.2856
  506MOL0     C66692  -1.692   1.271  10.251  0.1411 -0.4396 -0.5357
  506MOL0     C66693  -1.813   1.212  10.234 -0.6421 -0.4078  0.0425
  506MOL0     C66694  -1.927   1.268  10.293 -0.1754 -0.2484 -0.1465
  506MOL0     O66695  -2.040   1.205  10.252 -0.3747  0.8148 -0.3770
  506MOL0     C66696  -2.160   1.253  10.306  0.0566  0.4301  0.5677
  506MOL0     C66697  -2.270   1.170  10.229 -0.5053 -1.0782  0.8459
  506MOL0     C66698  -2.274   1.023  10.259 -0.2030  0.2662 -0.1459
  506MOL0     C66699  -2.400   0.972  10.184  0.3285 -0.2791 -0.3608
  506MOL0     C66700  -2.440   0.824  10.212 -0.7928 -0.8369 -0.3431
  506MOL0     C66701  -2.507   0.808  10.352  0.2901 -1.4787  1.1166
  506MOL0     C66702  -2.572   0.671  10.359  0.0857 -0.1281 -0.9740
  506MOL0     C66703  -2.697   0.657  10.449  0.3021  0.2986 -0.1671
  506MOL0    Cl66704  -2.845   0.717  10.351  0.0665  0.1170  0.1152
  506MOL0     C66705  -1.919   1.381  10.375 -0.5485  0.3573 -0.1895
  506MOL0     C66706  -1.784   1.438  10.395  0.0182 -0.3059 -0.6233
  506MOL0     O66707  -1.540   1.307  10.568  0.3536  0.4672 -0.1576
  506MOL0     C66708  -1.257   1.424  10.364 -0.6999 -0.3574 -0.7172
  506MOL0     C66709  -1.121   1.428  10.374 -0.2341  1.1197  0.8191
  506MOL0     N66710  -0.571   1.607  10.932 -0.5402  0.9941  0.3642
  506MOL0     N66711  -0.461   1.682  10.922  0.0071  0.1286 -1.2024
  506MOL0     C66712   0.822   1.819  10.330 -0.7172 -0.4808  0.6870
  506MOL0     C66713   0.960   1.837  10.349  0.5338  0.7537 -0.2244
  506MOL0     C66714   1.341   1.865  10.602  0.5290 -0.5176  0.6921
  506MOL0     C66715   1.406   1.757  10.660 -0.9316  0.6334  0.5184
  506MOL0     C66716   1.544   1.768  10.679 -0.6100 -0.5354 -0.1888
  506MOL0     C66717   1.617   1.882  10.665  0.2542 -0.4209  0.7400
  506MOL0     O66718   1.756   1.894  10.684  0.2413 -0.7362 -0.6256
  506MOL0     C66719   1.827   1.778  10.646 -0.6374  0.4378 -0.0742
  506MOL0     C66720   1.969   1.827  10.623 -0.5156  0.5056  0.0872
  506MOL0     C66721   2.042   1.849  10.762  0.2577  0.2851 -0.1525
  506MOL0     C66722   2.194   1.879  10.757  0.1083 -0.0925  0.0635
  506MOL0     C66723   2.277   1.767  10.720 -0.7325  0.2116 -0.3810
  506MOL0     C66724   2.353   1.684  10.668 -0.4525 -0.1755 -0.1926
  506MOL0     C66725   1.543   1.999  10.632 -0.0441 -0.0846 -0.7205
  506MOL0     C66726   1.406   1.988  10.591 -0.6490  0.0129 -0.6612
  506MOL0     H66727   0.965   2.066  10.593 -0.4008  0.4844 -0.1790
  506MOL0     H66728   0.727   2.058  10.548 -0.1070 -0.0819  0.3623
  506MOL0     H66729   0.508   1.934  10.588  2.3118  0.1178  1.5698
  506MOL0     H66730   0.574   1.776  10.594 -1.9092 -0.1162  1.0791
  506MOL0     H66731   0.416   1.705  10.402 -3.6721  0.0307 -1.3654
  506MOL0     H66732   0.343   1.860  10.410  2.2093  0.5414 -1.6619
  506MOL0     H66733   0.292   1.803  10.662  0.6735  0.8237 -0.1789
  506MOL0     H66734   0.367   1.651  10.634 -1.4626 -0.7838  1.7538
  506MOL0     H66735   0.117   1.777  10.491 -1.4682 -2.1815 -1.8490
  506MOL0     H66736   0.188   1.612  10.458  0.9631  0.1763  1.3423
  506MOL0     H66737   0.137   1.613  10.735  1.7507  0.1630 -0.0451
  506MOL0     H66738   0.075   1.509  10.607  0.3357  0.2462  1.7488
  506MOL0     H66739  -0.082   1.702  10.556 -0.9780 -2.3297 -1.0749
  506MOL0     H66740  -0.024   1.783  10.709 -0.5449  0.3829 -0.6099
  506MOL0     H66741  -0.149   1.527  10.722 -0.3363 -0.8604  1.6576
  506MOL0     H66742  -0.104   1.632  10.859  0.5585  2.9609 -0.9843
  506MOL0     H66743  -0.322   1.687  10.646 -2.9881  1.3486  0.5834
  506MOL0     H66744  -0.281   1.802  10.775 -0.3925 -0.1673  0.3061
  506MOL0     H66745  -0.389   1.428  10.724 -0.5514 -1.7830  3.1091
  506MOL0     H66746  -0.738   1.395  10.900 -0.6299  1.2965 -1.3271
  506MOL0     H66747  -0.620   1.287  10.832  0.7834 -1.4435 -1.1040
  506MOL0     H66748  -0.776   1.293  10.681  0.4837 -0.5740  2.4442
  506MOL0     H66749  -0.671   1.412  10.608 -2.0104  4.5504 -1.2469
  506MOL0     H66750  -0.915   1.477  10.761  0.2094 -0.6856  0.7347
  506MOL0     H66751  -0.781   1.596  10.736  1.4035 -1.4310  2.2893
  506MOL0     H66752  -0.814   1.574  10.479 -2.7812  0.3250 -4.0004
  506MOL0     H66753  -0.969   1.599  10.557  1.3224  0.0651  0.4476
  506MOL0     H66754  -1.082   1.348  10.703  0.8308  1.5807  0.8986
  506MOL0     H66755  -1.314   1.286  10.667 -0.7617 -2.3189 -2.1839
  506MOL0     H66756  -1.608   1.218  10.208 -0.0317 -0.1405 -1.2466
  506MOL0     H66757  -1.821   1.123  10.171 -0.7935 -0.4736  0.1544
  506MOL0     H66758  -2.180   1.359  10.285 -4.1214  0.3466  3.1407
  506MOL0     H66759  -2.165   1.237  10.414 -0.1252  0.3601  0.5494
  506MOL0     H66760  -2.251   1.180  10.122 -0.0233  0.9301  1.0680
  506MOL0     H66761  -2.361   1.229  10.240  0.6686  0.5570  2.6164
  506MOL0     H66762  -2.279   1.007  10.367 -2.2984 -0.5260 -0.3054
  506MOL0     H66763  -2.189   0.968  10.219 -1.3566  0.2005 -2.6928
  506MOL0     H66764  -2.480   1.040  10.216  1.0854  0.7519 -0.5896
  506MOL0     H66765  -2.372   0.985  10.079 -0.4173  1.1926 -0.4069
  506MOL0     H66766  -2.350   0.762  10.217 -0.4588 -0.4152 -0.9223
  506MOL0     H66767  -2.504   0.784  10.133  0.0345 -0.1482 -1.3927
  506MOL0     H66768  -2.582   0.885  10.371  2.4505  0.6113  1.6379
  506MOL0     H66769  -2.427   0.812  10.427  2.7311 -0.7385 -1.3848
  506MOL0     H66770  -2.596   0.636  10.258  0.6083 -2.0353 -0.4873
  506MOL0     H66771  -2.488   0.606  10.388 -1.4065 -2.2323 -1.1289
  506MOL0     H66772  -2.670   0.715  10.538 -1.0600  0.4393  0.1729
  506MOL0     H66773  -2.710   0.551  10.472  0.7943  0.5870  1.5229
  506MOL0     H66774  -2.008   1.433  10.409 -2.0254 -1.4560 -1.1381
  506MOL0     H66775  -1.765   1.527  10.454 -0.4776  1.3262 -2.8138
  506MOL0     H66776  -1.300   1.451  10.268  2.4957  1.4785 -1.7820
  506MOL0     H66777  -1.069   1.477  10.292 -2.8906  0.4593 -1.3900
  506MOL0     H66778   0.779   1.749  10.259  1.1249 -0.7357 -0.2441
  506MOL0     H66779   1.032   1.789  10.284 -0.8097 -0.1000 -1.1152
  506MOL0     H66780   1.357   1.666  10.692 -4.5142  1.4260 -2.0649
  506MOL0     H66781   1.592   1.679  10.718 -1.0495  0.8068  3.8110
  506MOL0     H66782   1.786   1.733  10.555  1.1105  0.2459 -0.7910
  506MOL0     H66783   1.826   1.694  10.716  1.9277  2.2312  2.3530
  506MOL0     H66784   2.031   1.756  10.567 -1.7902 -1.0529  0.5736
  506MOL0     H66785   1.962   1.915  10.559  1.4237 -0.3990 -1.4782
  506MOL0     H66786   2.048   1.752  10.813  3.5576 -0.7501 -2.1704
  506MOL0     H66787   1.989   1.923  10.822 -0.1341 -2.5868  3.3948
  506MOL0     H66788   2.216   1.948  10.675  1.0043 -0.4670 -0.0245
  506MOL0     H66789   2.223   1.911  10.858 -0.6922 -1.8985  0.9118
  506MOL0     H66790   2.422   1.613  10.626  1.3475  1.6075 -0.3914
  506MOL0     H66791   1.594   2.094  10.647 -0.6526  0.0341  0.8636
  506MOL0     H66792   1.350   2.076  10.560 -0.1781  1.2689  1.7887
  507MOL0     O66793   9.045   8.117  11.091  0.0485 -0.2076  0.0165
  507MOL0     C66794   8.971   8.175  11.169  1.2622  0.1903  0.7242
  507MOL0     O66795   8.988   8.297  11.232  0.4359  0.5285 -0.2752
  507MOL0     C66796   9.109   8.348  11.221 -0.2740 -0.6743  0.2891
  507MOL0     C66797   9.160   8.389  11.090  0.1416 -0.0730 -0.8387
  507MOL0     C66798   9.278   8.463  11.080  0.9313  0.4008 -0.0509
  507MOL0     C66799   9.345   8.508  11.197 -0.3196 -0.0617  0.8134
  507MOL0     O66800   9.460   8.577  11.200 -0.1203  0.2775  0.2868
  507MOL0     C66801   9.472   8.698  11.120 -1.0762 -0.0075  0.0939
  507MOL0     C66802   9.607   8.766  11.155  0.4775 -0.2275  1.2630
  507MOL0     C66803   9.616   8.897  11.070  0.5470  0.1540  0.0881
  507MOL0     C66804   9.726   8.989  11.122 -0.5292  0.4613  0.4111
  507MOL0     C66805   9.713   9.125  11.048 -0.1499 -0.7293  0.1647
  507MOL0     C66806   9.840   9.210  11.064 -0.3261  0.4432  0.2385
  507MOL0     C66807   9.969   9.153  11.013  0.3782 -1.3192  0.0080
  507MOL0     C66808   9.989   9.135  10.866 -0.0931 -0.4580  0.2304
  507MOL0     N66809   9.955   9.255  10.798  0.4285 -0.4584  0.0693
  507MOL0     C66810  10.011   9.381  10.801 -0.5161 -0.1106 -0.0708
  507MOL0     C66811   9.959   9.455  10.703 -0.5582 -0.2142  0.6756
  507MOL0     C66812   9.986   9.599  10.671  1.1647 -0.6651  0.1511
  507MOL0     C66813  10.100   9.612  10.571 -0.2627  1.1400  0.3244
  507MOL0     C66814  10.136   9.755  10.534 -0.5415 -0.2308  0.4000
  507MOL0     C66815  10.282   9.774  10.508 -0.1914  0.4676  0.3927
  507MOL0     O66816  10.290   9.913  10.498 -0.7602 -0.2589 -0.3542
  507MOL0     C66817  10.407   9.975  10.475  0.6623  0.1482  0.3315
  507MOL0     C66818  10.505   9.920  10.378  0.5329  0.2173 -0.5326
  507MOL0     C66819  10.612   9.999  10.339  0.4588  0.6132 -0.7559
  507MOL0     C66820  10.635  10.124  10.394 -0.3646  0.5908  0.4900
  507MOL0     C66821  10.750  10.203  10.369  0.5986  1.0597  0.0868
  507MOL0     O66822  10.860  10.139  10.313  0.5214  0.1752 -0.5411
  507MOL0     C66823  10.960  10.227  10.262  0.1081  0.8207 -0.5956
  507MOL0     C66824  10.971  10.246  10.129 -0.2036 -1.1719  0.2992
  507MOL0     C66825  11.091  10.310  10.082 -0.8290  1.3769  0.2258
  507MOL0     C66826  11.192  10.362  10.166  0.3210 -0.4824 -0.4505
  507MOL0     O66827  11.306  10.437  10.124  0.3986  0.5757 -0.2410
  507MOL0     C66828  11.331  10.456   9.990 -0.9145  0.8134 -0.3561
  507MOL0     C66829  11.467  10.526   9.977 -0.8146  0.4224  0.2673
  507MOL0     C66830  11.524  10.531   9.834  0.4587  0.0959 -0.7540
  507MOL0     C66831  11.660  10.598   9.833 -1.1216  0.9170 -0.2331
  507MOL0     C66832  11.780  10.521   9.889  0.1940  0.3466 -1.1107
  507MOL0     C66833  11.910  10.597   9.840  0.0625 -0.2212 -0.4830
  507MOL0     C66834  12.041  10.536   9.901  0.1795  0.2776  0.1490
  507MOL0     C66835  12.170  10.626   9.880  1.0012  0.2170  0.1775
  507MOL0    Cl66836  12.299  10.540   9.976  0.3525 -0.0179  0.0325
  507MOL0     C66837  11.161  10.340  10.301 -0.0581 -0.2294  0.1025
  507MOL0     C66838  11.057  10.269  10.354 -0.0989  0.1780  0.5953
  507MOL0     O66839  10.739  10.316  10.394 -0.1817  0.8241  0.1043
  507MOL0     C66840  10.547  10.161  10.490  1.0403  0.1684 -0.2018
  507MOL0     C66841  10.432  10.092  10.537  0.3482  0.6661 -0.0869
  507MOL0     N66842   9.870   9.370  10.632 -0.9365 -0.3497  0.1642
  507MOL0     N66843   9.868   9.256  10.693 -0.7703  0.4749  0.1584
  507MOL0     C66844   9.301   8.458  11.319 -0.8046  0.7311  0.5017
  507MOL0     C66845   9.191   8.381  11.334 -0.3190 -0.0986  0.8139
  507MOL0     C66846   8.836   8.119  11.193  0.5021  0.3154 -0.3848
  507MOL0     C66847   8.730   8.186  11.255 -0.2352 -0.0164  0.7779
  507MOL0     C66848   8.603   8.132  11.272  0.4705 -0.0870 -0.2329
  507MOL0     C66849   8.568   8.014  11.217 -0.3396  1.0475  0.0923
  507MOL0     O66850   8.442   7.966  11.235 -0.5614 -0.6480  0.4433
  507MOL0     C66851   8.392   7.873  11.142  0.3008 -0.0457  0.1951
  507MOL0     C66852   8.398   7.922  11.001  0.3795  0.0613  0.7737
  507MOL0     C66853   8.324   7.806  10.921  0.5683  0.3800 -0.0999
  507MOL0     C66854   8.342   7.840  10.769  1.6234  0.5715  0.0774
  507MOL0     C66855   8.464   7.806  10.705 -0.4800 -0.4044  0.3804
  507MOL0     C66856   8.576   7.805  10.666 -0.3985  0.0500  0.0960
  507MOL0     C66857   8.670   7.942  11.148  0.2272  0.7503 -0.1948
  507MOL0     C66858   8.800   7.995  11.134 -0.1254 -0.4854 -0.0859
  507MOL0     H66859   9.108   8.354  11.002  0.3544  0.9447 -1.3767
  507MOL0     H66860   9.333   8.471  10.987  1.9621 -1.2295  0.3844
  507MOL0     H66861   9.383   8.760  11.135 -1.3444 -0.1467 -0.8215
  507MOL0     H66862   9.482   8.672  11.014 -2.3389  1.4950 -0.4226
  507MOL0     H66863   9.690   8.701  11.127  0.5775  0.1907  0.5752
  507MOL0     H66864   9.602   8.785  11.263 -2.7169 -2.9528  1.7891
  507MOL0     H66865   9.521   8.952  11.059  0.5153  0.4962  1.7418
  507MOL0     H66866   9.647   8.869  10.969  2.0181  1.5447  0.1193
  507MOL0     H66867   9.725   8.993  11.231  0.9699 -1.2750  0.5293
  507MOL0     H66868   9.819   8.940  11.092  0.0666  2.3538 -1.0507
  507MOL0     H66869   9.632   9.183  11.093  1.3215  3.1355 -1.7216
  507MOL0     H66870   9.693   9.114  10.941  1.0492 -0.8945 -0.0530
  507MOL0     H66871   9.847   9.231  11.171 -2.1961  0.1284  0.4665
  507MOL0     H66872   9.826   9.309  11.022 -1.0574  0.8401  1.3662
  507MOL0     H66873  10.045   9.221  11.052 -0.0985  0.5629 -2.1866
  507MOL0     H66874   9.997   9.056  11.055  1.6019 -0.9431  0.0865
  507MOL0     H66875   9.918   9.057  10.835 -0.5768  0.7757 -1.9403
  507MOL0     H66876  10.094   9.124  10.840  0.9245  3.8245  1.6744
  507MOL0     H66877  10.078   9.416  10.878 -2.5222 -1.0057  2.2147
  507MOL0     H66878  10.013   9.656  10.760  0.4072  0.5901 -0.3945
  507MOL0     H66879   9.895   9.637  10.625  2.0690  2.4689  0.7296
  507MOL0     H66880  10.080   9.553  10.481 -1.7107 -0.1745  1.4444
  507MOL0     H66881  10.190   9.568  10.615  0.1765 -0.7693 -2.2249
  507MOL0     H66882  10.085   9.793  10.445 -0.3470 -0.3870  0.2210
  507MOL0     H66883  10.112   9.825  10.614 -2.0128  0.8326 -0.9154
  507MOL0     H66884  10.316   9.706  10.428  1.0317 -0.6587  1.8104
  507MOL0     H66885  10.343   9.741  10.592 -0.5371  1.7699  1.1806
  507MOL0     H66886  10.492   9.821  10.336  1.9151  0.6752 -2.1641
  507MOL0     H66887  10.682   9.958  10.267 -0.8440 -1.4676 -0.9294
  507MOL0     H66888  10.894  10.230  10.055  3.3365 -1.7123 -3.6566
  507MOL0     H66889  11.107  10.331   9.977  1.0414 -0.3291  0.1138
  507MOL0     H66890  11.257  10.525   9.949  0.3182  2.8001  0.5694
  507MOL0     H66891  11.338  10.364   9.932  1.4108  1.5529 -1.3646
  507MOL0     H66892  11.532  10.483  10.054 -2.3934 -2.1156  0.2906
  507MOL0     H66893  11.460  10.633  10.000 -0.8622  0.2155  1.2660
  507MOL0     H66894  11.452  10.589   9.775 -1.3608 -1.8464 -0.5787
  507MOL0     H66895  11.536  10.434   9.786 -0.6607  1.0915 -3.2629
  507MOL0     H66896  11.686  10.626   9.730 -1.0690 -0.0603 -0.4976
  507MOL0     H66897  11.650  10.691   9.889  0.6112  0.5703  0.7128
  507MOL0     H66898  11.780  10.416   9.861  1.1525 -0.4948  1.6674
  507MOL0     H66899  11.775  10.515   9.998 -1.0929 -1.9084 -1.2499
  507MOL0     H66900  11.895  10.699   9.875 -1.9496  0.1994 -2.3367
  507MOL0     H66901  11.923  10.599   9.731 -2.3869 -2.0528 -0.8998
  507MOL0     H66902  12.036  10.502  10.005  2.2399  2.1897  0.9470
  507MOL0     H66903  12.066  10.444   9.848  1.2914  0.6213  0.0445
  507MOL0     H66904  12.158  10.726   9.924 -3.0603  0.3830 -0.9546
  507MOL0     H66905  12.191  10.641   9.774 -3.0276  0.5940 -0.6922
  507MOL0     H66906  11.232  10.395  10.362 -0.7486  1.2190 -0.3644
  507MOL0     H66907  11.049  10.252  10.461  0.6348  1.1726  0.8290
  507MOL0     H66908  10.569  10.249  10.550 -0.8545 -0.7718  2.0377
  507MOL0     H66909  10.373  10.131  10.619 -0.4015 -1.8835  0.6515
  507MOL0     H66910   9.364   8.469  11.406  0.0594  2.0789 -0.2585
  507MOL0     H66911   9.173   8.345  11.435  1.1516 -1.4492  0.6334
  507MOL0     H66912   8.737   8.289  11.289 -1.3386  0.0038  0.9743
  507MOL0     H66913   8.518   8.180  11.318 -4.5228 -4.2672 -3.8418
  507MOL0     H66914   8.290   7.844  11.166 -0.6537  0.4686 -2.7732
  507MOL0     H66915   8.462   7.788  11.143  1.2252  0.6878  0.0291
  507MOL0     H66916   8.329   8.007  10.994 -0.0246 -0.2751  0.6630
  507MOL0     H66917   8.496   7.949  10.959 -1.6875  1.4428 -3.8590
  507MOL0     H66918   8.219   7.798  10.950 -0.1054  0.1264 -2.4515
  507MOL0     H66919   8.377   7.713  10.943  0.9703  1.2480  3.2644
  507MOL0     H66920   8.265   7.785  10.714  1.7549 -0.2951  0.7378
  507MOL0     H66921   8.324   7.947  10.776  2.3396  0.5975  2.8461
  507MOL0     H66922   8.679   7.805  10.635 -0.7803 -0.2630 -1.2346
  507MOL0     H66923   8.640   7.848  11.105 -0.9868  1.1115 -0.1804
  507MOL0     H66924   8.878   7.947  11.077 -0.4503  0.9812 -1.8946
  508MOL0     O66925  10.982   8.162   3.999 -0.3897 -0.0419  0.1077
  508MOL0     C66926  10.935   8.060   4.053  0.5979 -0.0501  0.3847
  508MOL0     O66927  11.003   7.957   4.117  0.1712 -0.6567 -0.1779
  508MOL0     C66928  11.139   7.944   4.132 -0.1985  0.6341 -0.4823
  508MOL0     C66929  11.198   7.899   4.255  0.7872  0.6209 -0.4363
  508MOL0     C66930  11.334   7.893   4.268  0.0442 -0.7920  0.3382
  508MOL0     C66931  11.419   7.926   4.163 -0.0117 -0.6497 -0.7151
  508MOL0     O66932  11.556   7.923   4.162 -0.2642  0.7761 -0.1879
  508MOL0     C66933  11.613   7.798   4.197  0.1755  0.2025  0.4634
  508MOL0     C66934  11.738   7.822   4.275  0.7242 -0.0492  0.3176
  508MOL0     C66935  11.837   7.707   4.266  0.4533 -0.4664  0.8615
  508MOL0     C66936  11.934   7.716   4.378  0.2990  0.5506  0.1560
  508MOL0     C66937  12.062   7.627   4.362 -0.0695  0.2198 -0.7106
  508MOL0     C66938  12.155   7.656   4.478 -0.1666  0.2721 -0.7800
  508MOL0     C66939  12.273   7.558   4.483 -0.2661 -0.9335 -0.2895
  508MOL0     C66940  12.392   7.603   4.579  0.0149 -0.2919  0.5308
  508MOL0     N66941  12.510   7.523   4.535 -0.2638  0.5206 -0.1353
  508MOL0     C66942  12.600   7.554   4.437  0.3884  0.7223 -0.3883
  508MOL0     C66943  12.691   7.452   4.437  0.2345 -0.1947 -0.0981
  508MOL0     C66944  12.823   7.448   4.355  0.3127  0.6694  0.1689
  508MOL0     C66945  12.852   7.302   4.296 -0.1320 -0.1719 -0.7558
  508MOL0     C66946  12.762   7.267   4.175  0.6789 -0.1671  0.4527
  508MOL0     C66947  12.735   7.115   4.158 -1.2116 -0.0392 -0.7343
  508MOL0     O66948  12.672   7.061   4.267  0.3000 -0.2997 -0.3958
  508MOL0     C66949  12.538   7.091   4.274 -0.3410  0.1789 -0.3163
  508MOL0     C66950  12.455   7.058   4.162 -0.7850  0.3616  0.3795
  508MOL0     C66951  12.320   7.081   4.180  0.5163 -0.4139  0.7464
  508MOL0     C66952  12.267   7.139   4.294 -0.7365 -0.7968  0.0364
  508MOL0     C66953  12.126   7.153   4.303  0.0841 -0.5904 -0.3462
  508MOL0     O66954  12.043   7.095   4.207 -0.0159 -0.2196  0.2036
  508MOL0     C66955  11.907   7.106   4.220  0.4818 -0.4706  0.4700
  508MOL0     C66956  11.839   6.976   4.234 -0.5101 -0.3176 -0.4057
  508MOL0     C66957  11.703   6.968   4.244  0.2692 -0.7826  0.1641
  508MOL0     C66958  11.627   7.081   4.234 -0.6366 -0.3282 -0.7324
  508MOL0     O66959  11.489   7.065   4.237 -0.0855 -0.1336 -0.0053
  508MOL0     C66960  11.419   6.948   4.186  0.5332  0.1419 -0.2988
  508MOL0     C66961  11.276   6.970   4.179 -0.2052  0.2753 -0.4830
  508MOL0     C66962  11.225   7.003   4.315  0.4303  0.6164  0.1516
  508MOL0     C66963  11.072   6.992   4.313  0.0637 -1.0622  0.6674
  508MOL0     C66964  10.991   7.105   4.241  0.7326 -0.2247 -0.3693
  508MOL0     C66965  10.838   7.082   4.245  0.0235  0.6855  0.2331
  508MOL0     C66966  10.777   7.069   4.388  0.0059  0.4321 -0.1736
  508MOL0     C66967  10.619   7.095   4.389  1.0939 -0.5280 -0.0038
  508MOL0    Cl66968  10.521   6.988   4.293 -0.2369  0.6288  0.5799
  508MOL0     C66969  11.688   7.210   4.235 -0.0387 -1.3541  0.5297
  508MOL0     C66970  11.834   7.222   4.231 -0.1714 -0.9116 -0.1270
  508MOL0     O66971  12.080   7.216   4.399  0.1816  0.4886 -0.3864
  508MOL0     C66972  12.350   7.175   4.400  0.5021  0.3593 -0.6660
  508MOL0     C66973  12.482   7.145   4.386 -0.1296 -0.1894 -0.2615
  508MOL0     N66974  12.654   7.360   4.538 -0.9776  0.3762  0.1663
  508MOL0     N66975  12.548   7.399   4.594 -0.0680 -0.5588  0.1108
  508MOL0     C66976  11.359   7.970   4.041  0.0142  0.5809 -0.1857
  508MOL0     C66977  11.219   7.982   4.024 -0.8564 -0.4322 -0.5084
  508MOL0     C66978  10.782   8.044   4.053 -0.0063 -0.0614 -0.5975
  508MOL0     C66979  10.696   8.130   3.985  0.6603 -0.3962  0.0713
  508MOL0     C66980  10.558   8.112   3.999 -0.0560  0.4002  0.1610
  508MOL0     C66981  10.500   7.996   4.056 -1.0939 -0.8756 -0.7218
  508MOL0     O66982  10.368   7.974   4.064  0.2812 -0.1950  0.3467
  508MOL0     C66983  10.311   7.885   4.166 -0.4536 -0.6476 -0.0906
  508MOL0     C66984  10.162   7.944   4.169 -0.2283 -0.5133  0.2685
  508MOL0     C66985  10.088   7.947   4.037  0.4688 -0.2536 -0.4402
  508MOL0     C66986   9.935   7.933   4.046  0.1396  0.0843 -0.8353
  508MOL0     C66987   9.908   7.791   4.088  0.0210 -0.6366  0.2894
  508MOL0     C66988   9.903   7.676   4.120  0.0279 -0.3763 -0.5753
  508MOL0     C66989  10.590   7.910   4.117 -0.9251  0.1500  1.6178
  508MOL0     C66990  10.728   7.931   4.109 -0.0861  0.3169 -0.1657
  508MOL0     H66991  11.126   7.871   4.331 -0.1298  0.8896 -1.1901
  508MOL0     H66992  11.374   7.869   4.367 -1.4017  0.1013  1.1812
  508MOL0     H66993  11.641   7.763   4.097 -1.1305  2.5739 -0.8325
  508MOL0     H66994  11.543   7.733   4.249 -0.8821  0.0147 -1.1301
  508MOL0     H66995  11.708   7.851   4.377  1.4131 -0.4301  0.6334
  508MOL0     H66996  11.786   7.908   4.227 -2.1415  0.3240 -2.2220
  508MOL0     H66997  11.892   7.724   4.173  1.6934  0.9053  1.8091
  508MOL0     H66998  11.786   7.610   4.261 -0.1973 -0.0591 -1.4903
  508MOL0     H66999  11.970   7.817   4.399  0.0693  0.4397  1.1469
  508MOL0     H67000  11.879   7.690   4.469  0.1616  4.5606  1.4035
  508MOL0     H67001  12.117   7.647   4.270 -1.7969  0.6730 -1.6973
  508MOL0     H67002  12.041   7.519   4.361 -0.6645  0.3382 -1.4485
  508MOL0     H67003  12.104   7.652   4.575  0.6750  2.9315 -0.1244
  508MOL0     H67004  12.183   7.760   4.459 -2.9972  0.7687 -2.9846
  508MOL0     H67005  12.229   7.467   4.524  0.7574 -1.7936 -1.0461
  508MOL0     H67006  12.314   7.551   4.382 -1.4954  0.3373 -0.9193
  508MOL0     H67007  12.367   7.582   4.683 -0.1221  0.6698  0.7084
  508MOL0     H67008  12.404   7.712   4.571 -0.8291 -0.3385 -2.1694
  508MOL0     H67009  12.593   7.650   4.386 -1.3943  0.1645 -1.3088
  508MOL0     H67010  12.910   7.483   4.412  0.0799  0.7044  0.5056
  508MOL0     H67011  12.826   7.524   4.276 -0.3900  0.5174 -0.0052
  508MOL0     H67012  12.852   7.226   4.376  2.4086 -2.4167 -2.7073
  508MOL0     H67013  12.952   7.300   4.253  0.9260  2.6553  1.2830
  508MOL0     H67014  12.668   7.315   4.206  1.5535  1.1573  1.1108
  508MOL0     H67015  12.800   7.304   4.080  3.1432 -0.8682  1.0988
  508MOL0     H67016  12.831   7.063   4.148 -2.9322 -3.1580 -2.7127
  508MOL0     H67017  12.671   7.099   4.071 -1.8586  4.7838 -1.3939
  508MOL0     H67018  12.487   7.007   4.072 -0.2793  0.2182  0.6334
  508MOL0     H67019  12.250   7.063   4.099 -0.2485  1.2485  0.9927
  508MOL0     H67020  11.884   6.878   4.223 -0.8622 -0.2562 -2.9660
  508MOL0     H67021  11.663   6.867   4.251  3.3518 -2.0662  0.8911
  508MOL0     H67022  11.451   6.863   4.248  1.3204 -2.3605 -3.7883
  508MOL0     H67023  11.454   6.929   4.084 -1.7358  0.2181 -1.1546
  508MOL0     H67024  11.230   6.884   4.129 -1.7974  1.4848 -1.2078
  508MOL0     H67025  11.259   7.061   4.120 -1.0787  2.0962  2.3533
  508MOL0     H67026  11.254   7.103   4.348  2.4561  0.2386 -0.3549
  508MOL0     H67027  11.266   6.936   4.390  2.9938 -0.4209 -1.9978
  508MOL0     H67028  11.027   6.899   4.276 -0.0254  0.0454 -2.1974
  508MOL0     H67029  11.053   7.005   4.420  0.1304  1.2385  0.4438
  508MOL0     H67030  11.018   7.114   4.135 -2.3546  3.5726 -1.0559
  508MOL0     H67031  11.023   7.200   4.285  3.0817 -0.4049 -1.4829
  508MOL0     H67032  10.806   6.999   4.181 -0.0222  0.4079  0.6165
  508MOL0     H67033  10.788   7.172   4.207  1.0286  0.2584 -2.3039
  508MOL0     H67034  10.794   6.969   4.428  2.9034  1.7085  2.1669
  508MOL0     H67035  10.823   7.139   4.459 -0.5919 -1.0747  1.7697
  508MOL0     H67036  10.574   7.190   4.360 -0.6563 -1.2856  0.1405
  508MOL0     H67037  10.593   7.082   4.495  2.0455 -1.3148  0.1517
  508MOL0     H67038  11.622   7.296   4.227  0.7714 -0.8576 -1.5508
  508MOL0     H67039  11.885   7.317   4.229  0.4041 -1.2201 -1.7083
  508MOL0     H67040  12.311   7.218   4.491 -1.5548 -1.5797 -0.5329
  508MOL0     H67041  12.552   7.157   4.468  0.2695 -1.0932 -0.4549
  508MOL0     H67042  11.426   8.002   3.962 -0.7733 -2.0197 -2.0668
  508MOL0     H67043  11.188   8.026   3.930  3.2537  2.0456 -0.9762
  508MOL0     H67044  10.735   8.215   3.930  0.1197  0.3853  0.8784
  508MOL0     H67045  10.488   8.175   3.944 -1.3666 -2.0961 -1.1879
  508MOL0     H67046  10.361   7.896   4.263 -2.1407 -0.4130  0.7814
  508MOL0     H67047  10.314   7.782   4.128  0.0679 -0.7699  0.2695
  508MOL0     H67048  10.103   7.890   4.244 -1.3603 -1.4750 -1.2693
  508MOL0     H67049  10.178   8.048   4.199 -0.7871 -0.6561  1.0994
  508MOL0     H67050  10.131   7.872   3.970 -1.7766  1.6620 -4.3119
  508MOL0     H67051  10.119   8.033   3.977 -2.8478  1.4234  0.0447
  508MOL0     H67052   9.884   8.011   4.104 -1.0197  0.0708 -1.8098
  508MOL0     H67053   9.891   7.953   3.948  0.0818  2.1351 -0.4226
  508MOL0     H67054   9.895   7.576   4.160  1.0394 -0.8301 -1.4561
  508MOL0     H67055  10.558   7.817   4.163 -0.9279 -1.2971 -1.1121
  508MOL0     H67056  10.791   7.858   4.158 -0.1546  0.5765  0.3141
  509MOL0     O67057   5.214   0.713   9.001 -0.0872 -0.5731 -0.4334
  509MOL0     C67058   5.210   0.816   9.070 -0.0574 -0.8214 -0.7420
  509MOL0     O67059   5.101   0.881   9.125 -0.3726  0.6865  0.4314
  509MOL0     C67060   4.977   0.844   9.079 -0.4703 -0.3703 -1.1695
  509MOL0     C67061   4.944   0.789   8.958 -0.3556  0.0266  0.0813
  509MOL0     C67062   4.817   0.759   8.914 -0.1407 -0.2847  0.0215
  509MOL0     C67063   4.712   0.784   9.011  0.6255 -0.0287 -0.0530
  509MOL0     O67064   4.575   0.776   8.978 -0.0319 -0.1474  0.0835
  509MOL0     C67065   4.537   0.709   8.856  0.6092 -0.0342  0.2243
  509MOL0     C67066   4.522   0.808   8.740  0.4728 -0.1030 -0.4241
  509MOL0     C67067   4.569   0.744   8.604 -0.0383 -0.1624 -0.0269
  509MOL0     C67068   4.529   0.598   8.584  0.6588  0.2587  0.1681
  509MOL0     C67069   4.556   0.551   8.434 -0.9287 -0.5429  0.1022
  509MOL0     C67070   4.714   0.559   8.401 -0.2817 -0.1434 -0.1227
  509MOL0     C67071   4.729   0.485   8.275  0.0704 -0.4879  0.3431
  509MOL0     C67072   4.878   0.460   8.239  0.4416 -0.4418 -0.1781
  509MOL0     N67073   4.956   0.578   8.245 -0.0935 -0.1961  0.7496
  509MOL0     C67074   4.958   0.673   8.148 -0.0609  0.6339 -0.2495
  509MOL0     C67075   5.017   0.777   8.205 -0.3320 -0.1071 -0.7892
  509MOL0     C67076   5.030   0.910   8.146  0.5540 -0.8588  0.5065
  509MOL0     C67077   4.900   0.979   8.165  1.3569 -0.3372  0.2693
  509MOL0     C67078   4.783   0.926   8.083  0.3187 -0.7529 -0.0750
  509MOL0     C67079   4.662   1.030   8.076 -0.3085 -0.2240 -0.1376
  509MOL0     O67080   4.629   1.045   8.219 -0.2961  0.2727 -0.3989
  509MOL0     C67081   4.510   1.100   8.254  0.1158  0.5735 -0.3642
  509MOL0     C67082   4.430   1.033   8.346  0.0362 -0.4747 -1.0947
  509MOL0     C67083   4.302   1.080   8.375  0.8454 -0.4043 -0.4015
  509MOL0     C67084   4.245   1.197   8.307  0.2694  0.8825  0.4587
  509MOL0     C67085   4.113   1.254   8.340  0.1886 -0.2819  0.3459
  509MOL0     O67086   4.053   1.338   8.252  0.1865 -0.2097 -0.0277
  509MOL0     C67087   3.939   1.402   8.299  0.3571  0.3922  1.0612
  509MOL0     C67088   3.834   1.422   8.200  0.7264 -0.1559 -0.1923
  509MOL0     C67089   3.707   1.481   8.234 -0.4051 -0.3140  0.2961
  509MOL0     C67090   3.680   1.517   8.368 -0.3305 -0.1596  0.1133
  509MOL0     O67091   3.556   1.558   8.398 -0.7604 -0.3994 -0.2082
  509MOL0     C67092   3.530   1.625   8.519  0.7517  0.1513 -0.0573
  509MOL0     C67093   3.400   1.706   8.512  0.2273  0.7579 -0.1410
  509MOL0     C67094   3.280   1.614   8.544 -1.1628  1.0592  0.5818
  509MOL0     C67095   3.162   1.713   8.550 -0.4000  0.4551  0.2351
  509MOL0     C67096   3.037   1.655   8.487  0.1197 -0.1824  0.0423
  509MOL0     C67097   2.936   1.767   8.483 -0.6810  0.0888 -1.0222
  509MOL0     C67098   2.802   1.702   8.437  0.6712  0.6875 -0.8473
  509MOL0     C67099   2.696   1.811   8.416 -0.0263  0.0680  0.1747
  509MOL0    Cl67100   2.556   1.725   8.356  0.4432  0.0092  0.0952
  509MOL0     C67101   3.795   1.513   8.462  0.6683  0.0848  0.5321
  509MOL0     C67102   3.914   1.457   8.428 -0.2936  0.0524  0.3722
  509MOL0     O67103   4.065   1.215   8.449 -0.0356 -0.8340  0.6108
  509MOL0     C67104   4.325   1.253   8.205  0.0416  0.2516  0.0990
  509MOL0     C67105   4.457   1.200   8.181 -0.5852  0.1765  0.4493
  509MOL0     N67106   5.055   0.740   8.341 -0.1155  0.3792  0.4021
  509MOL0     N67107   5.019   0.620   8.354 -0.0012 -0.8923 -0.0705
  509MOL0     C67108   4.740   0.845   9.131  0.0253 -0.0168 -0.1589
  509MOL0     C67109   4.873   0.869   9.167 -0.2254 -0.5917 -0.2006
  509MOL0     C67110   5.346   0.851   9.112 -1.1196 -0.9998  0.5457
  509MOL0     C67111   5.467   0.809   9.047  0.1928 -0.0027  0.2116
  509MOL0     C67112   5.592   0.836   9.105 -0.3547 -0.1409  0.3418
  509MOL0     C67113   5.611   0.914   9.219 -0.2346  0.1404 -0.6157
  509MOL0     O67114   5.738   0.929   9.255  1.2514 -0.0160  0.0941
  509MOL0     C67115   5.796   1.028   9.181 -0.2526 -0.2437  0.9353
  509MOL0     C67116   5.939   1.019   9.207  0.8357 -0.3876  0.3032
  509MOL0     C67117   5.999   0.878   9.176 -0.0099 -0.4459  0.2103
  509MOL0     C67118   6.151   0.870   9.214 -0.1181 -0.6617 -0.7501
  509MOL0     C67119   6.208   0.733   9.228  0.8658  0.0060 -0.0548
  509MOL0     C67120   6.244   0.619   9.246 -0.6897  0.5916  1.1220
  509MOL0     C67121   5.493   0.947   9.287 -0.3833  0.1214  0.0969
  509MOL0     C67122   5.372   0.924   9.231  1.8314 -0.1703  0.1236
  509MOL0     H67123   5.020   0.766   8.884 -0.2379 -1.7551  0.7031
  509MOL0     H67124   4.799   0.726   8.812 -1.5046  2.5323 -0.7573
  509MOL0     H67125   4.441   0.659   8.872 -0.7539  1.8831 -1.4055
  509MOL0     H67126   4.615   0.633   8.840  1.0098  0.5319 -0.6240
  509MOL0     H67127   4.578   0.902   8.747  0.1794  0.1536 -1.3926
  509MOL0     H67128   4.421   0.835   8.710  1.7078  4.1480 -1.5524
  509MOL0     H67129   4.678   0.740   8.608  0.1515  1.9193 -1.6171
  509MOL0     H67130   4.543   0.794   8.510 -0.4149 -2.1418 -1.0237
  509MOL0     H67131   4.588   0.536   8.653  2.2388  0.3737 -1.0248
  509MOL0     H67132   4.422   0.580   8.599  0.5905 -0.1122 -0.6585
  509MOL0     H67133   4.497   0.610   8.364 -2.2834  0.2945  1.8552
  509MOL0     H67134   4.522   0.448   8.427 -0.9202 -0.4615 -1.4310
  509MOL0     H67135   4.783   0.521   8.477  2.3785  1.0820 -1.7712
  509MOL0     H67136   4.728   0.667   8.389 -1.1564 -0.3139 -3.6436
  509MOL0     H67137   4.673   0.392   8.285 -0.9797 -0.1413 -1.8078
  509MOL0     H67138   4.684   0.548   8.198  1.7983 -0.0077 -0.3231
  509MOL0     H67139   4.888   0.414   8.140  2.3813 -0.8804  0.1897
  509MOL0     H67140   4.919   0.386   8.308  0.3718 -1.9895 -1.7317
  509MOL0     H67141   4.937   0.650   8.044  3.1165 -1.8616 -0.5100
  509MOL0     H67142   5.058   0.890   8.042  2.4360 -3.1486  1.3489
  509MOL0     H67143   5.104   0.973   8.196  1.2625  1.2610 -2.8737
  509MOL0     H67144   4.908   1.086   8.148  0.3349 -0.2275  0.4150
  509MOL0     H67145   4.877   0.973   8.272  1.0159  1.9234  0.3565
  509MOL0     H67146   4.820   0.911   7.981  0.8633 -0.3493  0.0601
  509MOL0     H67147   4.748   0.828   8.117 -1.4800 -0.0330  0.2600
  509MOL0     H67148   4.580   0.989   8.017  0.4552  0.1952 -1.5331
  509MOL0     H67149   4.697   1.125   8.034  0.9456 -0.8535 -0.5784
  509MOL0     H67150   4.470   0.942   8.390  2.6892  0.9333 -0.3112
  509MOL0     H67151   4.243   1.021   8.443  1.2666 -0.2546  0.1033
  509MOL0     H67152   3.856   1.382   8.102  0.7678 -0.5751 -0.0129
  509MOL0     H67153   3.627   1.497   8.162 -0.3502  1.7952  0.6574
  509MOL0     H67154   3.619   1.687   8.535  1.5739 -1.6007  2.9125
  509MOL0     H67155   3.521   1.550   8.598 -3.9978  1.9913  1.4764
  509MOL0     H67156   3.390   1.745   8.410 -1.3765 -0.0554 -0.3218
  509MOL0     H67157   3.395   1.778   8.594 -0.9467  0.5226  0.0167
  509MOL0     H67158   3.287   1.559   8.638  2.5095 -1.3574 -0.8956
  509MOL0     H67159   3.271   1.549   8.456 -1.1560  0.4016  1.0639
  509MOL0     H67160   3.147   1.734   8.657  1.6154  0.2813  0.6062
  509MOL0     H67161   3.188   1.811   8.509 -1.4525  0.5089 -0.3208
  509MOL0     H67162   3.002   1.571   8.548 -0.4979  1.5305  2.1853
  509MOL0     H67163   3.067   1.617   8.389  1.2758 -0.8704  0.6471
  509MOL0     H67164   2.971   1.847   8.417  0.2685  1.3435  0.9142
  509MOL0     H67165   2.923   1.815   8.580 -0.1305  0.2889 -1.0492
  509MOL0     H67166   2.810   1.637   8.350  1.6299 -1.8112  1.0125
  509MOL0     H67167   2.763   1.633   8.513 -0.1696  1.3938 -0.6119
  509MOL0     H67168   2.732   1.889   8.349  2.6500  0.2320  1.6450
  509MOL0     H67169   2.653   1.853   8.508 -5.8057  0.7356 -2.3685
  509MOL0     H67170   3.793   1.554   8.562 -0.6652 -1.8472  1.3613
  509MOL0     H67171   3.996   1.461   8.500 -1.5760  2.5193  1.8238
  509MOL0     H67172   4.286   1.332   8.141  2.2587 -0.6386 -2.5347
  509MOL0     H67173   4.521   1.257   8.114  0.6166  1.8167  2.8202
  509MOL0     H67174   4.655   0.860   9.196 -0.3912 -0.7601 -0.5152
  509MOL0     H67175   4.896   0.907   9.266 -0.2646  1.3807 -0.9112
  509MOL0     H67176   5.468   0.755   8.953  1.1237 -2.0225  1.2947
  509MOL0     H67177   5.677   0.806   9.045 -1.0640 -0.6800 -0.4243
  509MOL0     H67178   5.759   1.127   9.212  1.4129  0.1367  1.8449
  509MOL0     H67179   5.785   1.022   9.072  1.7008  0.1225  0.6709
  509MOL0     H67180   5.985   1.097   9.147  0.9665  0.0806  1.0066
  509MOL0     H67181   5.958   1.048   9.310 -0.5362  2.3913 -0.1253
  509MOL0     H67182   5.974   0.858   9.071 -2.0161 -0.5726  0.6683
  509MOL0     H67183   5.944   0.811   9.243 -0.3741 -2.5871 -2.0666
  509MOL0     H67184   6.207   0.915   9.131 -0.5603 -0.0430 -0.7252
  509MOL0     H67185   6.174   0.928   9.304 -0.1438 -0.3812 -0.9200
  509MOL0     H67186   6.296   0.527   9.261 -0.4655  0.3466 -0.8940
  509MOL0     H67187   5.507   0.990   9.385 -1.4200  0.3708  0.1443
  509MOL0     H67188   5.277   0.933   9.283  0.2547  1.4240 -2.8058
  510MOL0     O67189   2.373   4.889   7.314 -0.2950  0.9900  0.4545
  510MOL0     C67190   2.441   4.982   7.339  0.4793 -0.2532  0.2142
  510MOL0     O67191   2.397   5.092   7.387  0.0905  1.0991  0.7560
  510MOL0     C67192   2.268   5.110   7.437 -0.1683  0.1439 -0.0010
  510MOL0     C67193   2.258   5.225   7.514 -0.7015  0.6383 -0.4863
  510MOL0     C67194   2.135   5.264   7.573  0.0948  0.6642  0.3877
  510MOL0     C67195   2.020   5.187   7.560 -0.6146  0.7626 -0.6695
  510MOL0     O67196   1.909   5.240   7.625  0.0493  0.1024 -0.8375
  510MOL0     C67197   1.784   5.169   7.626 -0.0850  0.0514  0.4548
  510MOL0     C67198   1.664   5.254   7.668  0.5057  0.3354  0.1700
  510MOL0     C67199   1.665   5.274   7.812 -0.3603 -0.6551  0.2094
  510MOL0     C67200   1.564   5.387   7.867 -0.2541  0.2209  0.8008
  510MOL0     C67201   1.603   5.398   8.010 -0.3836  0.1150 -0.4621
  510MOL0     C67202   1.511   5.479   8.107 -0.3435 -0.1968  0.1696
  510MOL0     C67203   1.363   5.442   8.101  0.4252  0.5964 -0.3320
  510MOL0     C67204   1.351   5.296   8.155 -0.6326  1.2141 -0.3371
  510MOL0     N67205   1.212   5.261   8.165 -0.1343 -0.7585  0.1059
  510MOL0     C67206   1.131   5.280   8.274 -0.2894 -0.1723 -0.3967
  510MOL0     C67207   1.009   5.254   8.225 -0.2288  0.7553 -0.4453
  510MOL0     C67208   0.888   5.266   8.306  0.2044  0.4553  0.3227
  510MOL0     C67209   0.795   5.365   8.230 -0.9403 -0.1905 -0.6605
  510MOL0     C67210   0.658   5.376   8.305 -0.4408  0.2648  0.2139
  510MOL0     C67211   0.563   5.253   8.322 -0.1914 -0.7736  0.4057
  510MOL0     O67212   0.447   5.302   8.382 -0.4272 -0.1980 -0.0227
  510MOL0     C67213   0.327   5.238   8.365 -0.1159  0.1611  0.2722
  510MOL0     C67214   0.297   5.115   8.304  0.6938 -0.3976 -0.3240
  510MOL0     C67215   0.168   5.079   8.275 -0.1835 -0.1952 -0.6647
  510MOL0     C67216   0.062   5.161   8.314 -0.5323  0.0372 -0.6879
  510MOL0     C67217  -0.076   5.116   8.292 -0.0444 -0.3027  0.1936
  510MOL0     O67218  -0.089   4.988   8.229 -0.1238  0.2563 -0.8768
  510MOL0     C67219  -0.210   4.942   8.199 -0.1565  0.6226  0.5779
  510MOL0     C67220  -0.253   4.927   8.063 -0.2546  1.7853 -0.9902
  510MOL0     C67221  -0.382   4.891   8.032  0.3466  0.1913 -0.0317
  510MOL0     C67222  -0.484   4.883   8.130 -0.7935 -0.1951  1.0680
  510MOL0     O67223  -0.616   4.849   8.098 -0.0887  0.3978  0.0604
  510MOL0     C67224  -0.696   4.970   8.082  0.3006 -0.2821 -0.5542
  510MOL0     C67225  -0.824   4.940   8.007  0.3627 -0.4550  0.2303
  510MOL0     C67226  -0.869   5.063   7.928 -0.2427 -0.3114 -0.3871
  510MOL0     C67227  -0.781   5.088   7.804  0.7504  0.2082 -1.2429
  510MOL0     C67228  -0.851   5.196   7.714 -0.3675  0.5324  0.4648
  510MOL0     C67229  -0.862   5.337   7.777 -0.0663 -0.1770 -1.3024
  510MOL0     C67230  -0.915   5.433   7.671 -0.0573  0.1813  0.0610
  510MOL0     C67231  -0.952   5.568   7.718 -0.8978  0.0866  0.0003
  510MOL0    Cl67232  -1.059   5.558   7.852  0.2246  0.1517  0.1725
  510MOL0     C67233  -0.446   4.909   8.265  0.2303 -0.2061 -0.0690
  510MOL0     C67234  -0.310   4.935   8.294 -0.9319 -0.4989 -0.8240
  510MOL0     O67235  -0.176   5.192   8.317 -0.6909  0.1407 -0.1714
  510MOL0     C67236   0.092   5.285   8.368 -0.1662 -0.9527 -0.6110
  510MOL0     C67237   0.222   5.322   8.403 -0.5604 -0.3766  0.2665
  510MOL0     N67238   1.024   5.207   8.096  0.0897  0.7165  0.0501
  510MOL0     N67239   1.139   5.227   8.054  0.1027  0.9143  0.1006
  510MOL0     C67240   2.025   5.070   7.486 -1.1420 -0.4188  0.6479
  510MOL0     C67241   2.149   5.038   7.423 -0.5495  0.2817  0.0677
  510MOL0     C67242   2.583   4.973   7.312  0.4634 -0.6495  0.4409
  510MOL0     C67243   2.645   4.846   7.300 -0.4868 -0.1531 -0.4548
  510MOL0     C67244   2.787   4.841   7.286  0.0968 -0.5981  0.3474
  510MOL0     C67245   2.864   4.960   7.275 -0.0454 -0.2631  0.9135
  510MOL0     O67246   2.999   4.970   7.250 -0.4956 -0.1959 -0.7601
  510MOL0     C67247   3.081   4.863   7.283  0.2452 -0.5677  0.4389
  510MOL0     C67248   3.225   4.916   7.267  0.3965 -0.0700 -0.7416
  510MOL0     C67249   3.269   4.947   7.123 -0.0477 -0.9873 -0.2616
  510MOL0     C67250   3.246   5.102   7.092 -0.7535  0.1681 -1.0449
  510MOL0     C67251   3.260   5.135   6.956  0.1145  0.4897 -0.5349
  510MOL0     C67252   3.295   5.191   6.856 -0.3203  0.9547  0.3891
  510MOL0     C67253   2.799   5.086   7.272 -0.4715 -0.0127  0.9930
  510MOL0     C67254   2.661   5.089   7.303 -0.0024 -0.4733  0.5656
  510MOL0     H67255   2.343   5.291   7.526  0.5955 -0.8700 -1.1909
  510MOL0     H67256   2.126   5.364   7.615 -1.0468  0.6778  0.1427
  510MOL0     H67257   1.794   5.082   7.692 -2.3633 -1.1783 -0.6873
  510MOL0     H67258   1.766   5.133   7.525 -0.4340 -3.5839  1.6444
  510MOL0     H67259   1.569   5.203   7.652  0.3076  0.5716  0.5769
  510MOL0     H67260   1.669   5.349   7.615 -1.0541 -0.0441 -0.7171
  510MOL0     H67261   1.762   5.295   7.857 -0.6450  2.8587 -0.5703
  510MOL0     H67262   1.648   5.178   7.862 -1.7277 -1.3984 -1.5725
  510MOL0     H67263   1.589   5.482   7.819 -1.2358 -0.1163 -0.4329
  510MOL0     H67264   1.458   5.363   7.850 -0.5883  1.0755  1.5712
  510MOL0     H67265   1.703   5.442   8.022 -0.5828  0.1412  1.6133
  510MOL0     H67266   1.613   5.297   8.050  2.9459 -0.7259 -2.9894
  510MOL0     H67267   1.528   5.586   8.087 -0.8656  0.1448  1.4103
  510MOL0     H67268   1.545   5.460   8.209 -0.6140 -1.3159  0.0630
  510MOL0     H67269   1.306   5.511   8.163 -2.0910 -1.6015 -0.0208
  510MOL0     H67270   1.316   5.453   8.003 -3.1185  1.6861  1.3364
  510MOL0     H67271   1.396   5.288   8.254 -2.7515  0.0737  0.6035
  510MOL0     H67272   1.403   5.237   8.079  0.4199  4.3348 -2.2436
  510MOL0     H67273   1.167   5.318   8.369 -1.4003  0.8337 -0.3573
  510MOL0     H67274   0.908   5.309   8.405 -1.3474 -0.8973  1.2802
  510MOL0     H67275   0.833   5.174   8.330  0.2047 -0.0654 -1.5073
  510MOL0     H67276   0.774   5.329   8.129 -1.3269 -0.8063 -0.3693
  510MOL0     H67277   0.848   5.461   8.231 -0.8578 -0.2393 -0.1945
  510MOL0     H67278   0.663   5.441   8.392  0.5237  0.8608 -0.2691
  510MOL0     H67279   0.593   5.434   8.238  1.5884  0.1850 -1.9235
  510MOL0     H67280   0.613   5.176   8.380  0.1780 -0.7630  0.1033
  510MOL0     H67281   0.537   5.207   8.227 -3.9725  0.3125  0.7436
  510MOL0     H67282   0.367   5.036   8.280 -1.3967 -2.2741 -0.6442
  510MOL0     H67283   0.148   4.984   8.227 -1.6308 -1.5454  2.3192
  510MOL0     H67284  -0.182   4.944   7.983  0.2264 -0.2197 -1.0233
  510MOL0     H67285  -0.411   4.866   7.931 -3.0128 -4.4052  1.7025
  510MOL0     H67286  -0.640   5.043   8.022 -0.8262  1.9821  1.0172
  510MOL0     H67287  -0.724   5.027   8.171 -0.2668 -2.1425  0.5233
  510MOL0     H67288  -0.896   4.914   8.086  1.7927 -0.1553  1.6933
  510MOL0     H67289  -0.805   4.850   7.947  2.3275  1.2543 -1.8745
  510MOL0     H67290  -0.857   5.151   7.991  0.1470 -0.9328  0.4214
  510MOL0     H67291  -0.973   5.045   7.901 -1.0033  2.0693  0.7126
  510MOL0     H67292  -0.683   5.123   7.836 -0.6791  0.5342  3.3966
  510MOL0     H67293  -0.773   4.993   7.749  2.0736 -0.1933 -0.3987
  510MOL0     H67294  -0.950   5.157   7.688  0.1779 -0.2981 -0.4174
  510MOL0     H67295  -0.799   5.206   7.618  0.0444  0.2852  0.6598
  510MOL0     H67296  -0.762   5.373   7.801 -0.5132  3.0485 -3.4987
  510MOL0     H67297  -0.907   5.351   7.875  2.0884  2.4511 -0.5639
  510MOL0     H67298  -0.843   5.444   7.590  1.6370 -2.6522  1.0150
  510MOL0     H67299  -1.004   5.387   7.628  1.9207 -2.1289 -1.8627
  510MOL0     H67300  -1.004   5.611   7.632  0.5955 -0.3018 -1.1469
  510MOL0     H67301  -0.857   5.616   7.739  1.2980 -2.9544 -2.0033
  510MOL0     H67302  -0.531   4.905   8.332  0.1934 -3.5431 -0.1370
  510MOL0     H67303  -0.285   4.953   8.398 -0.9171  0.6619 -1.0203
  510MOL0     H67304   0.022   5.365   8.390  2.1389  1.1636 -0.5361
  510MOL0     H67305   0.240   5.416   8.454 -1.1405 -1.5761  2.8290
  510MOL0     H67306   1.939   5.008   7.467 -1.9760  1.1006 -0.7854
  510MOL0     H67307   2.152   4.951   7.359  1.5112  0.4249 -0.0886
  510MOL0     H67308   2.587   4.754   7.304  0.3887 -0.6662  1.0792
  510MOL0     H67309   2.839   4.747   7.276 -0.5240 -0.9199  0.1176
  510MOL0     H67310   3.063   4.786   7.208 -0.0859  1.2641 -1.4444
  510MOL0     H67311   3.070   4.819   7.383  1.6166  0.9856  1.3268
  510MOL0     H67312   3.241   4.999   7.336  2.8554  0.3280 -1.6772
  510MOL0     H67313   3.286   4.831   7.298 -1.0561 -1.0160 -0.3918
  510MOL0     H67314   3.213   4.888   7.050  2.4678 -1.2322 -2.1584
  510MOL0     H67315   3.376   4.931   7.110  1.2574  4.6837  0.8929
  510MOL0     H67316   3.143   5.131   7.116 -1.0397 -0.4832 -1.4583
  510MOL0     H67317   3.313   5.163   7.153  1.1119 -0.2536 -2.5709
  510MOL0     H67318   3.319   5.266   6.784  0.8217 -1.0711 -1.4470
  510MOL0     H67319   2.854   5.178   7.258 -2.4146  0.9630 -0.8994
  510MOL0     H67320   2.619   5.188   7.321 -1.5518 -0.5550 -2.0148
  511MOL0     O67321   3.467   8.188   5.903 -0.1225  0.5204 -0.0317
  511MOL0     C67322   3.559   8.109   5.896  0.0261  0.9892 -0.3536
  511MOL0     O67323   3.543   7.982   5.865  0.0051 -0.1140  0.8310
  511MOL0     C67324   3.414   7.942   5.824  0.4689  0.4991  1.4313
  511MOL0     C67325   3.298   7.947   5.895  0.2716  0.0231 -0.4822
  511MOL0     C67326   3.180   7.911   5.824  0.1043  0.4146 -0.3250
  511MOL0     C67327   3.179   7.854   5.700  0.2669 -0.1936  0.8826
  511MOL0     O67328   3.064   7.814   5.630 -0.0849  0.5488  0.6987
  511MOL0     C67329   3.071   7.689   5.547 -0.4740 -0.1911 -0.4226
  511MOL0     C67330   2.933   7.665   5.516  0.8012 -0.4594 -0.0014
  511MOL0     C67331   2.838   7.615   5.631  0.7840  0.4406 -0.1385
  511MOL0     C67332   2.691   7.648   5.578  0.1416  0.0982  0.2505
  511MOL0     C67333   2.594   7.548   5.628 -0.3573  0.0640 -0.3073
  511MOL0     C67334   2.607   7.498   5.772  0.1102  1.0871  0.2397
  511MOL0     C67335   2.482   7.414   5.792 -0.0500  0.2904  0.3660
  511MOL0     C67336   2.514   7.340   5.924  0.1871  0.8126 -0.0641
  511MOL0     N67337   2.417   7.236   5.962 -0.6113 -0.2032 -0.8000
  511MOL0     C67338   2.281   7.239   5.930  1.3260  0.2831  0.1328
  511MOL0     C67339   2.242   7.127   6.016  0.2193 -0.1569  0.2964
  511MOL0     C67340   2.100   7.074   6.040  0.5260  0.0014  0.5710
  511MOL0     C67341   2.047   7.165   6.152 -0.4845 -0.5371  0.3484
  511MOL0     C67342   1.938   7.096   6.229 -0.3540 -0.2613 -0.4607
  511MOL0     C67343   1.838   7.189   6.283 -0.0117  0.4078  0.5337
  511MOL0     O67344   1.889   7.251   6.396  0.3460 -0.5457  0.2208
  511MOL0     C67345   1.808   7.348   6.452  0.5241 -0.1337  0.2673
  511MOL0     C67346   1.868   7.458   6.519  0.3427 -0.5310  0.3694
  511MOL0     C67347   1.787   7.548   6.581  0.0053  0.3019  0.6858
  511MOL0     C67348   1.654   7.558   6.577 -0.2032 -0.4602  0.6865
  511MOL0     C67349   1.578   7.677   6.630 -0.1267  0.6949  0.5631
  511MOL0     O67350   1.446   7.676   6.589 -0.8997 -0.1836  0.2246
  511MOL0     C67351   1.365   7.773   6.647 -0.7739  0.7698 -0.0433
  511MOL0     C67352   1.381   7.903   6.653  0.1633  0.1045  0.5308
  511MOL0     C67353   1.307   7.989   6.734 -0.3825  0.0432  0.4592
  511MOL0     C67354   1.211   7.943   6.811  0.7679  0.1946 -0.7008
  511MOL0     O67355   1.146   8.035   6.893  0.7406  0.1166 -0.6551
  511MOL0     C67356   1.101   8.002   7.028  0.7428  0.1783  0.8825
  511MOL0     C67357   1.212   7.968   7.115  0.1221 -0.0615  0.1688
  511MOL0     C67358   1.156   7.905   7.243 -0.6947  0.3320 -1.1281
  511MOL0     C67359   1.263   7.822   7.310  0.3082  0.3552 -0.0794
  511MOL0     C67360   1.227   7.781   7.457 -0.3587 -0.4495 -0.0706
  511MOL0     C67361   1.306   7.661   7.518 -0.8593 -1.1310  0.3265
  511MOL0     C67362   1.453   7.699   7.560  0.3916  0.6914 -0.6013
  511MOL0     C67363   1.549   7.577   7.581 -0.5114  0.6209 -0.1261
  511MOL0    Cl67364   1.490   7.459   7.707  0.1436  0.3583  0.3372
  511MOL0     C67365   1.184   7.805   6.805 -0.1967 -0.4186  0.2036
  511MOL0     C67366   1.260   7.720   6.729 -0.6086 -0.6129 -1.4574
  511MOL0     O67367   1.634   7.753   6.706 -0.5498 -0.4338 -0.3908
  511MOL0     C67368   1.591   7.460   6.497  0.4188 -1.0251  0.2282
  511MOL0     C67369   1.667   7.355   6.442  0.2954 -0.2301  0.4375
  511MOL0     N67370   2.351   7.068   6.074  0.6076  0.0897  0.2034
  511MOL0     N67371   2.455   7.137   6.045  0.1755 -0.5432 -0.5280
  511MOL0     C67372   3.302   7.829   5.641  0.4371 -0.6092  0.1559
  511MOL0     C67373   3.416   7.880   5.697  1.1832 -0.5474 -0.2507
  511MOL0     C67374   3.702   8.151   5.908  0.0780 -0.2750 -0.0088
  511MOL0     C67375   3.741   8.290   5.875 -0.4619  0.2818  0.2975
  511MOL0     C67376   3.881   8.315   5.879  0.0593 -1.0639  0.1136
  511MOL0     C67377   3.982   8.223   5.928 -0.4722 -0.0983  0.3543
  511MOL0     O67378   4.107   8.277   5.945 -0.0232 -0.0534 -0.5815
  511MOL0     C67379   4.207   8.174   5.973 -0.3785  0.1768 -1.1185
  511MOL0     C67380   4.351   8.224   5.972  0.1905 -0.2405 -0.5241
  511MOL0     C67381   4.368   8.328   6.089  0.4816  0.5119 -0.1530
  511MOL0     C67382   4.510   8.391   6.090 -0.9296 -0.1356 -0.1060
  511MOL0     C67383   4.529   8.447   6.220  0.3608 -0.6721  0.0900
  511MOL0     C67384   4.524   8.517   6.321  0.6187 -0.2280 -0.1915
  511MOL0     C67385   3.929   8.097   5.974 -0.0274  0.3848 -0.2911
  511MOL0     C67386   3.792   8.063   5.960 -0.7176  0.6588 -0.5508
  511MOL0     H67387   3.284   7.977   5.998 -0.8335  0.1812 -0.6616
  511MOL0     H67388   3.085   7.936   5.871 -0.3917  3.4926 -2.6433
  511MOL0     H67389   3.111   7.612   5.615 -1.4501 -0.1902  0.1676
  511MOL0     H67390   3.122   7.703   5.452 -2.0058 -0.1559 -1.2646
  511MOL0     H67391   2.936   7.590   5.437  0.4847 -0.5436  0.0646
  511MOL0     H67392   2.889   7.754   5.469  3.0347  0.5234 -0.3529
  511MOL0     H67393   2.860   7.674   5.721  0.6122  0.2497  0.0296
  511MOL0     H67394   2.847   7.507   5.648 -0.0359  0.1692 -1.3419
  511MOL0     H67395   2.654   7.747   5.607  3.0302  1.3612 -0.0635
  511MOL0     H67396   2.678   7.642   5.470 -1.1335 -0.5848  0.4188
  511MOL0     H67397   2.605   7.458   5.567  0.2207 -0.1673  0.1210
  511MOL0     H67398   2.495   7.593   5.625  0.4087  2.2727  2.6843
  511MOL0     H67399   2.606   7.576   5.848 -1.5154  1.7424 -0.4270
  511MOL0     H67400   2.693   7.430   5.774 -0.3423  0.3501 -1.7869
  511MOL0     H67401   2.391   7.473   5.806 -0.5864 -0.1409 -1.0607
  511MOL0     H67402   2.464   7.339   5.714  0.3304 -0.0828  0.6319
  511MOL0     H67403   2.537   7.405   6.009  2.1736  2.3366 -1.6548
  511MOL0     H67404   2.609   7.286   5.912  1.6365  3.0231  0.8386
  511MOL0     H67405   2.219   7.299   5.866  0.5099 -0.9710 -0.2919
  511MOL0     H67406   2.102   6.966   6.059  0.7525 -0.6048 -2.4103
  511MOL0     H67407   2.039   7.081   5.950  0.1653  1.2414  0.8946
  511MOL0     H67408   2.035   7.268   6.116  4.0576 -0.5659 -1.9335
  511MOL0     H67409   2.124   7.179   6.228 -1.4545 -0.3067  1.3225
  511MOL0     H67410   1.878   7.034   6.162 -0.3237  1.1986 -1.9168
  511MOL0     H67411   1.976   7.040   6.315  0.7952 -3.1407 -2.6508
  511MOL0     H67412   1.740   7.146   6.304 -0.6959  2.1641  1.2042
  511MOL0     H67413   1.827   7.273   6.213  0.0545  0.8229  1.0126
  511MOL0     H67414   1.975   7.477   6.525  0.1579  1.1261 -0.8750
  511MOL0     H67415   1.847   7.632   6.614 -0.9817  1.9921 -1.5872
  511MOL0     H67416   1.469   7.945   6.605 -1.3968  0.7328 -2.0158
  511MOL0     H67417   1.331   8.094   6.739 -1.7040  0.4873 -1.5087
  511MOL0     H67418   1.029   7.920   7.018  2.1245 -0.9594 -0.3045
  511MOL0     H67419   1.045   8.081   7.078 -1.7960 -1.3760  0.6624
  511MOL0     H67420   1.269   8.061   7.129 -0.4733  0.8001 -2.5689
  511MOL0     H67421   1.274   7.891   7.066 -1.5180 -1.4950  0.2482
  511MOL0     H67422   1.074   7.837   7.220  0.6779 -1.9631  0.3680
  511MOL0     H67423   1.114   7.981   7.310  0.1008  0.9469 -1.3196
  511MOL0     H67424   1.266   7.733   7.246  3.5112 -1.5916  2.4341
  511MOL0     H67425   1.358   7.877   7.308  1.7065 -1.9139 -1.2653
  511MOL0     H67426   1.123   7.747   7.458 -0.5171 -0.0478 -1.4638
  511MOL0     H67427   1.232   7.860   7.533  2.7136 -1.3520  0.8112
  511MOL0     H67428   1.301   7.580   7.444 -3.3122  0.8712 -1.9075
  511MOL0     H67429   1.255   7.628   7.608 -3.4433 -1.8652 -1.3245
  511MOL0     H67430   1.498   7.759   7.480 -2.6782  0.8069 -2.4198
  511MOL0     H67431   1.436   7.759   7.650 -3.9229  3.1590 -2.7173
  511MOL0     H67432   1.651   7.609   7.602  1.0391 -0.4908 -4.7551
  511MOL0     H67433   1.543   7.518   7.488 -1.5556 -0.3099  0.4947
  511MOL0     H67434   1.096   7.767   6.857 -0.3237 -0.0724  0.2439
  511MOL0     H67435   1.244   7.613   6.737 -1.0458 -0.4130  3.6230
  511MOL0     H67436   1.484   7.474   6.488  0.7859  1.3424 -1.1079
  511MOL0     H67437   1.613   7.292   6.372  1.1967 -1.2172  0.6139
  511MOL0     H67438   3.313   7.768   5.553  2.5038 -0.0344 -0.0479
  511MOL0     H67439   3.507   7.871   5.639  1.4336 -0.2396  0.0875
  511MOL0     H67440   3.678   8.371   5.839  1.1009  0.9092 -1.1470
  511MOL0     H67441   3.921   8.414   5.862  2.3025 -1.9086  0.0279
  511MOL0     H67442   4.192   8.089   5.905  1.1288 -1.7798  0.8529
  511MOL0     H67443   4.195   8.143   6.077  4.0314  0.3751 -0.3795
  511MOL0     H67444   4.420   8.140   5.980 -0.3703 -0.8588 -1.8371
  511MOL0     H67445   4.373   8.282   5.882  0.7270  0.2435 -0.0860
  511MOL0     H67446   4.352   8.274   6.183  0.2575 -1.1539 -1.0918
  511MOL0     H67447   4.285   8.395   6.068 -1.1118 -1.8586 -2.0441
  511MOL0     H67448   4.582   8.309   6.092 -2.4274 -1.7182 -3.3969
  511MOL0     H67449   4.530   8.454   6.002  2.2856 -1.4488 -0.4733
  511MOL0     H67450   4.517   8.583   6.406 -0.2071 -1.6446  0.8907
  511MOL0     H67451   3.989   8.023   6.025 -2.1900 -3.5631 -2.9325
  511MOL0     H67452   3.767   7.962   5.990 -2.0118  1.7532  2.3387
  512MOL0     O67453   5.978   1.796   8.223 -0.3043  0.2469 -0.7234
  512MOL0     C67454   5.963   1.835   8.344 -0.4686  0.2987 -0.1220
  512MOL0     O67455   6.059   1.823   8.443  0.0134  0.1129  0.3921
  512MOL0     C67456   6.184   1.773   8.401  0.1912 -0.1576  0.1581
  512MOL0     C67457   6.288   1.861   8.368 -0.0634 -0.2862  0.2002
  512MOL0     C67458   6.408   1.818   8.308 -0.2779  0.0782 -1.0746
  512MOL0     C67459   6.433   1.677   8.303 -0.0971 -0.7779 -1.0125
  512MOL0     O67460   6.552   1.640   8.241  0.3360  0.5117 -0.0664
  512MOL0     C67461   6.599   1.503   8.271  0.8332 -0.4487  0.1883
  512MOL0     C67462   6.731   1.486   8.193 -0.1089  0.0949  0.1658
  512MOL0     C67463   6.730   1.562   8.059  0.9768 -0.4550 -0.2344
  512MOL0     C67464   6.830   1.495   7.963  0.0509  0.6077  0.1276
  512MOL0     C67465   6.978   1.518   7.995  0.7501  0.1324  0.5937
  512MOL0     C67466   7.015   1.668   8.003  0.4628 -0.1250 -0.1524
  512MOL0     C67467   7.163   1.689   7.969 -0.0701  0.4882 -0.2633
  512MOL0     C67468   7.256   1.599   8.045 -0.0882  0.9238  0.0455
  512MOL0     N67469   7.392   1.602   7.997  0.4775  0.2849  0.2656
  512MOL0     C67470   7.457   1.542   7.893  0.2421  0.2736  0.1254
  512MOL0     C67471   7.574   1.598   7.873 -0.6417 -0.3996  0.3619
  512MOL0     C67472   7.688   1.551   7.781  0.0207 -1.2516  0.3602
  512MOL0     C67473   7.778   1.670   7.745  0.0117 -0.1634  0.5250
  512MOL0     C67474   7.726   1.770   7.639 -0.0099  0.7669  0.0154
  512MOL0     C67475   7.830   1.874   7.626 -0.2234  0.0911  0.2802
  512MOL0     O67476   7.770   1.988   7.565 -0.3936 -0.4758  0.2289
  512MOL0     C67477   7.859   2.080   7.509  1.4314  0.6593 -0.1745
  512MOL0     C67478   7.994   2.093   7.533 -0.1099 -0.2724 -1.1878
  512MOL0     C67479   8.075   2.176   7.464 -0.4508 -0.0489 -0.7821
  512MOL0     C67480   8.026   2.254   7.358 -0.2629  0.2565  0.1336
  512MOL0     C67481   8.120   2.345   7.284  0.1787  0.5874  0.1519
  512MOL0     O67482   8.254   2.323   7.313 -0.1445 -0.6787 -0.4343
  512MOL0     C67483   8.344   2.421   7.265 -0.2376 -0.3768 -0.3844
  512MOL0     C67484   8.447   2.380   7.186  0.4002 -0.4179 -0.1720
  512MOL0     C67485   8.547   2.468   7.139  0.6326 -0.6673  0.0188
  512MOL0     C67486   8.553   2.596   7.195  0.6000  0.2298  0.7828
  512MOL0     O67487   8.650   2.682   7.140 -0.2317 -0.2744  0.2672
  512MOL0     C67488   8.639   2.823   7.176 -0.2403 -0.0739 -0.3473
  512MOL0     C67489   8.687   2.845   7.315 -0.1471  0.1570  0.2514
  512MOL0     C67490   8.664   2.994   7.359 -0.7317  0.5709  1.0415
  512MOL0     C67491   8.770   3.095   7.304  0.4550 -0.1323 -0.3293
  512MOL0     C67492   8.852   3.146   7.424  0.3296  0.2248  0.5392
  512MOL0     C67493   8.957   3.241   7.365 -0.7493 -0.4620 -0.8052
  512MOL0     C67494   9.047   3.300   7.478  0.7099 -0.7116 -0.4514
  512MOL0     C67495   9.161   3.376   7.409  0.0612 -0.4873  0.6587
  512MOL0    Cl67496   9.255   3.434   7.540 -0.6849  0.3334 -0.4819
  512MOL0     C67497   8.444   2.632   7.278 -0.2138 -0.4187  0.1321
  512MOL0     C67498   8.338   2.552   7.306 -0.4604  0.0942 -0.1100
  512MOL0     O67499   8.072   2.430   7.210 -0.3502 -0.7612  0.0983
  512MOL0     C67500   7.892   2.240   7.326 -0.2055  0.6703 -0.2604
  512MOL0     C67501   7.814   2.154   7.402  0.5495 -0.1189  0.0098
  512MOL0     N67502   7.586   1.688   7.984 -0.1194 -0.3705 -0.7540
  512MOL0     N67503   7.473   1.690   8.052  0.4057 -0.8157  0.3914
  512MOL0     C67504   6.338   1.595   8.364  0.4216 -0.0957  0.5562
  512MOL0     C67505   6.213   1.641   8.402 -0.4335  0.3337  0.0911
  512MOL0     C67506   5.833   1.862   8.394  0.0560  0.0596 -0.7191
  512MOL0     C67507   5.812   1.914   8.524 -0.1354 -0.0456 -0.8913
  512MOL0     C67508   5.683   1.930   8.576 -0.1752  0.3691  0.1883
  512MOL0     C67509   5.580   1.912   8.488 -0.3406  0.1385 -0.1105
  512MOL0     O67510   5.458   1.947   8.542  0.2628 -1.1397 -0.1207
  512MOL0     C67511   5.363   2.000   8.452 -0.0883 -0.1618  0.4790
  512MOL0     C67512   5.271   2.103   8.516  0.3168  0.4976  0.7419
  512MOL0     C67513   5.222   2.062   8.650 -0.8121 -0.1079 -0.0791
  512MOL0     C67514   5.090   2.133   8.685 -0.6931  0.4983 -0.9289
  512MOL0     C67515   5.067   2.140   8.827  0.1735  0.0425 -0.1161
  512MOL0     C67516   5.061   2.170   8.942  0.1207  0.3899 -1.3455
  512MOL0     C67517   5.597   1.871   8.358  0.4533  0.9661  0.7502
  512MOL0     C67518   5.722   1.844   8.314  1.2722 -0.4407 -0.0862
  512MOL0     H67519   6.282   1.968   8.385 -0.7118  0.0421 -1.8338
  512MOL0     H67520   6.480   1.889   8.270  1.0873 -2.9037 -4.5778
  512MOL0     H67521   6.524   1.432   8.238 -1.9896  1.6854  1.6046
  512MOL0     H67522   6.621   1.500   8.378  1.9635 -0.0350 -0.0192
  512MOL0     H67523   6.754   1.381   8.172  2.6614  0.0328  2.8150
  512MOL0     H67524   6.811   1.535   8.249 -0.2047  1.2546 -0.6818
  512MOL0     H67525   6.749   1.669   8.067  0.7785 -0.3596 -0.9697
  512MOL0     H67526   6.630   1.552   8.014  0.4431  1.2682  0.4788
  512MOL0     H67527   6.809   1.388   7.954 -2.1799  1.1880 -4.0150
  512MOL0     H67528   6.798   1.525   7.863 -0.0695 -1.9263 -0.6778
  512MOL0     H67529   7.045   1.472   7.922  0.8025  1.0532  0.0581
  512MOL0     H67530   7.006   1.464   8.087  1.4146 -0.9269 -0.2103
  512MOL0     H67531   7.002   1.698   8.107 -1.5640  0.2572 -0.4801
  512MOL0     H67532   6.949   1.725   7.937 -1.2846 -0.4027  1.2822
  512MOL0     H67533   7.179   1.661   7.865 -2.4666  2.6501 -1.3177
  512MOL0     H67534   7.189   1.791   7.998 -3.5187  0.6170  3.1675
  512MOL0     H67535   7.225   1.495   8.035 -0.4941  1.1600 -1.3536
  512MOL0     H67536   7.247   1.629   8.150 -0.4224  4.0171 -0.7617
  512MOL0     H67537   7.417   1.461   7.834  0.1384  1.2528 -1.2039
  512MOL0     H67538   7.639   1.515   7.690 -3.4767  1.2028  1.0600
  512MOL0     H67539   7.744   1.467   7.823  0.7114 -0.2334  1.5570
  512MOL0     H67540   7.875   1.630   7.714  1.2314  1.8374  1.5926
  512MOL0     H67541   7.807   1.737   7.827  1.2606  1.8011 -1.4263
  512MOL0     H67542   7.705   1.719   7.545  1.1425 -1.9118  1.0952
  512MOL0     H67543   7.635   1.825   7.665 -0.8315 -0.5363 -0.0208
  512MOL0     H67544   7.914   1.831   7.572 -0.3420 -1.0932  0.9962
  512MOL0     H67545   7.868   1.902   7.725 -0.4123  3.6786 -0.5433
  512MOL0     H67546   8.034   2.023   7.606 -0.3260  0.7442 -0.0462
  512MOL0     H67547   8.178   2.180   7.497 -0.1056  0.2323 -1.8367
  512MOL0     H67548   8.435   2.280   7.146 -0.0653 -1.0103  1.3798
  512MOL0     H67549   8.629   2.434   7.076  0.9369 -0.8654  0.5170
  512MOL0     H67550   8.539   2.858   7.150  0.2818  0.8127 -1.2608
  512MOL0     H67551   8.701   2.875   7.102 -0.0658  0.4279  0.1498
  512MOL0     H67552   8.794   2.826   7.326 -0.5285 -2.6025 -0.0030
  512MOL0     H67553   8.645   2.777   7.390  0.6348 -2.3787 -1.4803
  512MOL0     H67554   8.667   3.000   7.468  0.6920  0.9716  1.0007
  512MOL0     H67555   8.565   3.023   7.323 -1.8109 -2.2322  1.5085
  512MOL0     H67556   8.830   3.046   7.227 -0.0734 -0.1084 -0.7566
  512MOL0     H67557   8.715   3.177   7.257 -0.1087 -1.8083 -2.8065
  512MOL0     H67558   8.894   3.063   7.482  1.9490 -0.1917 -1.1483
  512MOL0     H67559   8.787   3.202   7.492 -1.6060 -0.3414 -0.7738
  512MOL0     H67560   8.902   3.320   7.314 -0.6114 -0.4041 -0.8659
  512MOL0     H67561   9.022   3.190   7.294  2.7667  1.2462  0.8965
  512MOL0     H67562   8.987   3.371   7.536 -0.5365 -2.0338 -0.0474
  512MOL0     H67563   9.094   3.222   7.539  0.8070 -0.9900 -0.8819
  512MOL0     H67564   9.121   3.466   7.361  0.2751 -1.6143 -1.7573
  512MOL0     H67565   9.211   3.310   7.337  0.7589  1.0590 -0.3238
  512MOL0     H67566   8.438   2.733   7.316  1.2558  0.7210 -2.4292
  512MOL0     H67567   8.246   2.579   7.356  0.2645 -0.6193  1.6698
  512MOL0     H67568   7.840   2.296   7.249 -0.4027 -0.5916 -1.0750
  512MOL0     H67569   7.707   2.145   7.388  0.5808 -2.9059  0.9914
  512MOL0     H67570   6.348   1.489   8.386 -3.6213 -0.7712  0.0466
  512MOL0     H67571   6.128   1.585   8.439 -4.5126  3.8168 -2.9335
  512MOL0     H67572   5.896   1.937   8.589 -1.8224  2.0412  0.7276
  512MOL0     H67573   5.672   1.958   8.681  2.1048  0.8306  0.3524
  512MOL0     H67574   5.299   1.919   8.413 -1.0129  1.4115 -1.4440
  512MOL0     H67575   5.405   2.049   8.364 -1.1719 -1.5642 -0.8954
  512MOL0     H67576   5.336   2.191   8.521  0.3170  0.7080 -1.8375
  512MOL0     H67577   5.189   2.124   8.447 -0.5160 -2.1798  0.8173
  512MOL0     H67578   5.298   2.071   8.728 -1.7971 -2.6504  1.3024
  512MOL0     H67579   5.199   1.955   8.638  1.1315 -0.3484 -2.5294
  512MOL0     H67580   5.086   2.236   8.649 -3.9142  0.8097 -0.0674
  512MOL0     H67581   5.004   2.082   8.639  0.2303 -1.7843 -0.2334
  512MOL0     H67582   5.062   2.186   9.048 -0.7780  0.0720 -1.2835
  512MOL0     H67583   5.514   1.869   8.288  0.2087 -0.3041  1.0584
  512MOL0     H67584   5.724   1.815   8.210 -0.2978 -1.7519  0.1932
  513MOL0     O67585   4.751   6.437   7.986  0.0053  0.0696 -0.5931
  513MOL0     C67586   4.731   6.357   8.073  0.6438  0.2360  0.3140
  513MOL0     O67587   4.630   6.275   8.087  0.2336 -0.0462  0.1638
  513MOL0     C67588   4.525   6.293   8.000  0.1273 -0.6341 -0.1668
  513MOL0     C67589   4.429   6.394   8.020 -0.6732 -0.8032 -0.0850
  513MOL0     C67590   4.303   6.393   7.951 -0.4581 -0.6904 -0.0950
  513MOL0     C67591   4.269   6.281   7.864 -0.5822  0.4983 -0.0502
  513MOL0     O67592   4.153   6.272   7.795  0.1201  0.6443  0.0915
  513MOL0     C67593   4.052   6.360   7.816  0.3354 -0.2598 -0.3477
  513MOL0     C67594   3.942   6.341   7.721 -0.6836  0.0401 -0.5945
  513MOL0     C67595   3.833   6.443   7.760  0.2240 -0.0084 -0.1203
  513MOL0     C67596   3.736   6.449   7.647  0.3461  0.0471 -0.3180
  513MOL0     C67597   3.634   6.563   7.671 -0.1983 -0.3360  1.0021
  513MOL0     C67598   3.548   6.578   7.538 -0.1629 -0.0578 -0.4533
  513MOL0     C67599   3.408   6.630   7.580 -1.0392  0.5998 -0.8001
  513MOL0     C67600   3.401   6.776   7.624  0.0554  0.8166  0.0255
  513MOL0     N67601   3.286   6.815   7.704 -0.3980  0.0252 -0.0899
  513MOL0     C67602   3.176   6.875   7.656 -0.0345  0.8551 -0.0132
  513MOL0     C67603   3.100   6.906   7.767  0.4058  0.1827 -0.7911
  513MOL0     C67604   2.976   6.986   7.750  0.1680  0.3482 -0.3680
  513MOL0     C67605   2.863   6.923   7.830 -0.1775 -0.5169 -0.2387
  513MOL0     C67606   2.724   6.998   7.808 -0.2040 -0.3671  0.1019
  513MOL0     C67607   2.615   6.934   7.888 -0.8689 -0.1116  0.7723
  513MOL0     O67608   2.493   7.004   7.876  0.1712  0.2891  0.1435
  513MOL0     C67609   2.394   6.969   7.960  0.1390 -0.8598 -0.1517
  513MOL0     C67610   2.390   6.867   8.055  0.4227 -0.5292 -0.2740
  513MOL0     C67611   2.285   6.844   8.138  1.2446 -0.2738  0.0584
  513MOL0     C67612   2.165   6.923   8.130  0.1447 -0.7622 -0.0959
  513MOL0     C67613   2.048   6.905   8.219 -0.0411 -0.6504  0.2311
  513MOL0     O67614   2.071   6.839   8.335  0.3442 -0.3987 -0.5218
  513MOL0     C67615   1.965   6.827   8.421  0.2295 -0.6178 -0.0547
  513MOL0     C67616   1.983   6.875   8.541  0.0027 -0.3920 -0.1706
  513MOL0     C67617   1.886   6.892   8.637 -0.7949  0.7302  0.5523
  513MOL0     C67618   1.768   6.826   8.611 -0.3796 -0.6791  0.0710
  513MOL0     O67619   1.667   6.838   8.701  0.9251  0.1195 -0.3159
  513MOL0     C67620   1.702   6.807   8.832 -0.9215 -0.5991 -0.1055
  513MOL0     C67621   1.571   6.815   8.908  0.2059  0.5398  0.9246
  513MOL0     C67622   1.468   6.705   8.860  0.1943 -0.6638 -0.1574
  513MOL0     C67623   1.327   6.744   8.894 -0.2924  0.1084  0.3991
  513MOL0     C67624   1.234   6.623   8.862  0.5812  0.0374  1.1739
  513MOL0     C67625   1.251   6.490   8.927 -0.2602  0.1083  0.3538
  513MOL0     C67626   1.140   6.395   8.886  0.0548 -0.3714  0.1245
  513MOL0     C67627   0.997   6.443   8.884 -0.1336 -0.5402 -0.0833
  513MOL0    Cl67628   0.891   6.308   8.844 -0.1642  0.2321 -0.0186
  513MOL0     C67629   1.744   6.753   8.496 -0.6013 -0.1356  0.3218
  513MOL0     C67630   1.844   6.760   8.395  0.0860  0.2013 -0.5865
  513MOL0     O67631   1.945   6.955   8.173  0.5897 -0.0373  0.0405
  513MOL0     C67632   2.168   7.022   8.033  0.7211 -0.2600 -0.0067
  513MOL0     C67633   2.279   7.049   7.949 -0.6044  0.6769 -0.1821
  513MOL0     N67634   3.172   6.864   7.878  0.0493  0.2174 -0.4403
  513MOL0     N67635   3.282   6.809   7.839 -1.6226 -0.1095 -0.1819
  513MOL0     C67636   4.368   6.188   7.845 -0.8159 -0.5475 -0.4859
  513MOL0     C67637   4.488   6.187   7.923  0.3316  0.7135  1.0752
  513MOL0     C67638   4.828   6.371   8.178  0.1041  0.9903 -0.6652
  513MOL0     C67639   4.956   6.416   8.163  0.0616  0.0887  0.7190
  513MOL0     C67640   5.032   6.426   8.275  0.7715 -0.6016 -0.1927
  513MOL0     C67641   4.991   6.406   8.406 -0.6828 -0.3341 -0.4387
  513MOL0     O67642   5.076   6.413   8.521 -1.0785 -0.6787  0.6767
  513MOL0     C67643   5.210   6.352   8.505  0.4411  0.1126  0.0756
  513MOL0     C67644   5.204   6.209   8.451  0.1935 -0.0837 -0.0408
  513MOL0     C67645   5.136   6.126   8.561  0.0892 -1.1650 -0.0715
  513MOL0     C67646   5.206   5.996   8.593  0.5738  0.4065 -0.1030
  513MOL0     C67647   5.252   5.916   8.477 -0.0273 -0.5973  0.3016
  513MOL0     C67648   5.302   5.864   8.381  0.2833 -0.6725  0.8739
  513MOL0     C67649   4.861   6.362   8.424 -0.0178 -0.7947  0.2234
  513MOL0     C67650   4.780   6.339   8.311  0.4342  0.2339 -0.3083
  513MOL0     H67651   4.443   6.477   8.089  1.3458 -1.0216 -0.1732
  513MOL0     H67652   4.244   6.482   7.971 -2.0029 -1.3932 -1.2687
  513MOL0     H67653   4.097   6.457   7.791  0.4913  0.5871  2.7867
  513MOL0     H67654   4.019   6.364   7.920  2.1696  1.7252  0.2229
  513MOL0     H67655   3.902   6.241   7.739 -0.8638  0.1078 -0.6263
  513MOL0     H67656   3.986   6.341   7.621 -0.3700  4.4736 -0.6452
  513MOL0     H67657   3.876   6.542   7.778 -0.8803  0.3730  0.5212
  513MOL0     H67658   3.790   6.410   7.855  0.0341 -2.1534 -0.8903
  513MOL0     H67659   3.780   6.451   7.547 -1.5574 -0.9771 -1.2262
  513MOL0     H67660   3.690   6.350   7.645  1.9174 -0.6983 -0.7057
  513MOL0     H67661   3.676   6.660   7.698 -0.7084  0.6903 -1.6066
  513MOL0     H67662   3.574   6.547   7.761  1.4083 -0.2580  2.1352
  513MOL0     H67663   3.525   6.478   7.500  0.4585 -0.3794  0.0069
  513MOL0     H67664   3.594   6.640   7.462  0.6726 -1.8240 -1.4397
  513MOL0     H67665   3.345   6.620   7.492  0.8731  0.8273 -2.2677
  513MOL0     H67666   3.365   6.565   7.656 -0.9145  0.8210 -0.5350
  513MOL0     H67667   3.402   6.839   7.535 -0.2105  0.3314 -0.3262
  513MOL0     H67668   3.486   6.804   7.687 -0.9917 -0.3926  2.0732
  513MOL0     H67669   3.145   6.895   7.554  0.3272 -1.3378 -0.6120
  513MOL0     H67670   2.934   6.997   7.649 -2.1934 -0.3801  0.4727
  513MOL0     H67671   2.996   7.090   7.776  0.1297 -0.1639  1.8759
  513MOL0     H67672   2.888   6.934   7.936 -1.7843 -1.4820  0.2768
  513MOL0     H67673   2.855   6.817   7.803 -0.5930 -0.8238  1.0092
  513MOL0     H67674   2.724   7.102   7.842 -0.0873 -0.3433  0.0285
  513MOL0     H67675   2.680   6.989   7.708  0.4951 -0.3951 -0.2072
  513MOL0     H67676   2.636   6.933   7.995 -0.0733  0.1380  0.6235
  513MOL0     H67677   2.605   6.828   7.862  3.2307  0.1246 -2.8748
  513MOL0     H67678   2.475   6.800   8.063  0.8105 -0.1990 -1.4270
  513MOL0     H67679   2.277   6.756   8.201 -0.9084 -0.5463 -0.4941
  513MOL0     H67680   2.079   6.926   8.550  0.4357 -1.1720 -0.2543
  513MOL0     H67681   1.894   6.957   8.724 -0.2771 -1.8094  2.5507
  513MOL0     H67682   1.772   6.879   8.875 -1.3073  0.0395 -0.5328
  513MOL0     H67683   1.747   6.709   8.853 -0.2362  0.3364  3.6553
  513MOL0     H67684   1.531   6.917   8.907  2.0414  1.3000 -0.0370
  513MOL0     H67685   1.597   6.799   9.013  3.6381 -2.8522 -0.1838
  513MOL0     H67686   1.495   6.612   8.910 -3.0359 -2.3576 -1.2204
  513MOL0     H67687   1.477   6.696   8.751  0.4706  0.6883 -0.2571
  513MOL0     H67688   1.321   6.763   9.001 -0.5378 -0.8088  0.5543
  513MOL0     H67689   1.298   6.836   8.842 -0.1195 -1.1066 -2.0154
  513MOL0     H67690   1.230   6.601   8.755 -3.1386 -2.9174  1.7207
  513MOL0     H67691   1.133   6.664   8.874  0.1151 -0.8027  0.2219
  513MOL0     H67692   1.260   6.496   9.036 -4.1011  0.2492  0.8133
  513MOL0     H67693   1.347   6.458   8.887  1.8811  1.0778  4.1468
  513MOL0     H67694   1.159   6.376   8.781  0.3585  0.7799 -0.0490
  513MOL0     H67695   1.145   6.303   8.945 -0.1253 -0.9663 -0.7707
  513MOL0     H67696   0.969   6.524   8.816  2.8642 -0.1094 -0.9268
  513MOL0     H67697   0.978   6.473   8.987  2.4795 -1.1948  0.6530
  513MOL0     H67698   1.656   6.690   8.484 -1.4007  1.3083 -2.0146
  513MOL0     H67699   1.815   6.708   8.304 -3.0204 -1.4264  1.1474
  513MOL0     H67700   2.072   7.071   8.021  1.3253  1.7064  2.3688
  513MOL0     H67701   2.270   7.105   7.857  0.8013 -0.5734 -1.1303
  513MOL0     H67702   4.349   6.096   7.790 -0.1560 -0.9697 -0.0152
  513MOL0     H67703   4.550   6.098   7.917  0.8424  0.9337  2.5779
  513MOL0     H67704   4.996   6.439   8.065  0.8161  1.0232  1.2251
  513MOL0     H67705   5.134   6.448   8.246  1.6652 -2.2789  1.4479
  513MOL0     H67706   5.276   6.352   8.593  0.0732 -0.3163  0.3560
  513MOL0     H67707   5.257   6.423   8.436 -2.3134  1.0679 -0.9206
  513MOL0     H67708   5.140   6.206   8.362  0.6517  1.5083 -0.4669
  513MOL0     H67709   5.306   6.183   8.423  1.9129  3.5233  2.0617
  513MOL0     H67710   5.036   6.111   8.522  1.1571 -0.7733 -3.2333
  513MOL0     H67711   5.127   6.183   8.654  1.0429 -0.8909 -0.1377
  513MOL0     H67712   5.288   6.022   8.660  0.7779  2.0185 -0.9126
  513MOL0     H67713   5.139   5.927   8.646  2.8076 -0.6686  1.4506
  513MOL0     H67714   5.363   5.845   8.295 -2.7241 -1.5759 -1.2559
  513MOL0     H67715   4.820   6.349   8.523 -2.1869  2.8005 -0.0267
  513MOL0     H67716   4.679   6.306   8.331  1.0692 -1.8822 -0.3843
  514MOL0     O67717  10.358   4.343  10.795 -0.7134  0.1814  0.2453
  514MOL0     C67718  10.315   4.426  10.875 -0.8947 -0.4741  0.0557
  514MOL0     O67719  10.191   4.437  10.915  0.2226  0.4543  0.1855
  514MOL0     C67720  10.089   4.356  10.872  0.6002  0.2939  0.9760
  514MOL0     C67721  10.097   4.211  10.863  0.1096  0.3345 -0.6620
  514MOL0     C67722   9.978   4.136  10.855 -0.2274 -0.1138  0.0996
  514MOL0     C67723   9.853   4.195  10.858  0.2748  0.7809 -0.0625
  514MOL0     O67724   9.734   4.125  10.856 -0.3084  0.3532 -0.5876
  514MOL0     C67725   9.747   3.992  10.871  1.2946  1.3089 -0.3150
  514MOL0     C67726   9.616   3.924  10.842  0.9238 -0.3353 -0.8506
  514MOL0     C67727   9.512   3.966  10.944 -0.5397 -0.0636  0.5544
  514MOL0     C67728   9.407   3.848  10.963 -0.3653 -0.1893  0.6303
  514MOL0     C67729   9.287   3.896  11.047 -0.6055  0.0725 -0.1247
  514MOL0     C67730   9.208   3.779  11.118 -0.2460 -0.1812  0.7192
  514MOL0     C67731   9.277   3.736  11.247  0.0711  0.6838 -0.6807
  514MOL0     C67732   9.207   3.604  11.294  0.1611  0.8649 -0.8377
  514MOL0     N67733   9.266   3.490  11.230 -0.2839  0.5668  0.3403
  514MOL0     C67734   9.383   3.421  11.271 -0.9750 -0.3634  0.7230
  514MOL0     C67735   9.388   3.311  11.190  1.2301 -0.0493 -0.1635
  514MOL0     C67736   9.471   3.187  11.228  1.4140  0.5844  0.1343
  514MOL0     C67737   9.408   3.097  11.348 -0.2143 -0.3088 -0.2091
  514MOL0     C67738   9.298   3.002  11.289 -0.2245 -0.2798  0.6380
  514MOL0     C67739   9.217   2.955  11.416 -0.5330  0.2920  0.2135
  514MOL0     O67740   9.146   2.835  11.382  0.9219  0.3251  0.8632
  514MOL0     C67741   9.037   2.804  11.459 -0.1025  0.6246  1.0629
  514MOL0     C67742   8.959   2.695  11.418  0.4888 -0.2678 -0.0114
  514MOL0     C67743   8.856   2.652  11.495  0.9792 -0.1896  0.4743
  514MOL0     C67744   8.821   2.712  11.616 -0.0115  0.3372  0.0962
  514MOL0     C67745   8.697   2.675  11.690 -0.2508 -0.0042  0.3285
  514MOL0     O67746   8.618   2.580  11.629 -0.2055 -0.0379 -0.0694
  514MOL0     C67747   8.505   2.532  11.700 -0.8115  0.0596  0.9960
  514MOL0     C67748   8.500   2.390  11.717  0.1973 -0.2491  0.5553
  514MOL0     C67749   8.407   2.343  11.809 -0.2466  0.3384 -0.2144
  514MOL0     C67750   8.319   2.421  11.875 -0.4975  0.2794 -0.2950
  514MOL0     O67751   8.227   2.379  11.968 -0.0126 -0.4487  0.6050
  514MOL0     C67752   8.278   2.285  12.070  0.2844 -0.6239 -0.9634
  514MOL0     C67753   8.194   2.317  12.197 -0.0259 -0.0541 -0.6526
  514MOL0     C67754   8.059   2.246  12.190  0.3598 -0.2384 -0.5882
  514MOL0     C67755   7.957   2.260  12.305  0.2212  0.3646 -0.4756
  514MOL0     C67756   7.820   2.190  12.289 -0.7435 -0.7328 -0.0665
  514MOL0     C67757   7.730   2.245  12.387  0.1399 -0.0488  0.3618
  514MOL0     C67758   7.608   2.141  12.408  1.0670 -0.8385  0.4657
  514MOL0     C67759   7.476   2.181  12.347 -0.2200 -0.0147 -0.2564
  514MOL0    Cl67760   7.479   2.175  12.169  0.2916 -0.2534  0.0832
  514MOL0     C67761   8.326   2.560  11.857 -0.7174 -0.2421 -1.1325
  514MOL0     C67762   8.417   2.621  11.766 -0.1736 -0.1755 -0.3019
  514MOL0     O67763   8.685   2.718  11.805 -0.2031  0.4300 -0.4589
  514MOL0     C67764   8.906   2.818  11.663  1.0553  0.0998  0.2230
  514MOL0     C67765   9.013   2.860  11.586  0.7674  0.8716  0.2470
  514MOL0     N67766   9.275   3.311  11.105 -0.2783 -1.3291 -0.6219
  514MOL0     N67767   9.214   3.431  11.125  1.3019 -0.1041 -0.4649
  514MOL0     C67768   9.844   4.337  10.873 -0.9279  0.8361 -1.0654
  514MOL0     C67769   9.958   4.412  10.876 -1.1196 -0.4372 -0.6360
  514MOL0     C67770  10.410   4.522  10.937 -0.5285 -0.6019  0.0025
  514MOL0     C67771  10.401   4.560  11.070 -0.5830 -0.6630  0.0487
  514MOL0     C67772  10.508   4.640  11.110 -0.8330 -0.1843  0.0199
  514MOL0     C67773  10.618   4.672  11.038  0.7210  0.5491  1.6395
  514MOL0     O67774  10.726   4.742  11.072 -0.0849  0.2301 -0.1169
  514MOL0     C67775  10.774   4.732  11.205 -0.7131  1.0068 -0.4564
  514MOL0     C67776  10.804   4.880  11.233 -0.2180 -0.8630 -0.0373
  514MOL0     C67777  10.675   4.963  11.261  0.0133 -0.0202 -0.1078
  514MOL0     C67778  10.679   5.061  11.381 -0.4964  0.1790  1.2979
  514MOL0     C67779  10.549   5.103  11.425  0.1511  0.1369  0.3746
  514MOL0     C67780  10.425   5.107  11.455  0.7282  0.5575  0.5722
  514MOL0     C67781  10.615   4.644  10.899 -1.1693 -0.3749 -0.3292
  514MOL0     C67782  10.506   4.572  10.846  0.3107  0.3956 -0.3036
  514MOL0     H67783  10.191   4.157  10.867 -0.9969 -1.6445 -0.1664
  514MOL0     H67784   9.980   4.031  10.829 -0.9078 -0.1820  0.2842
  514MOL0     H67785   9.779   3.966  10.972 -0.5811 -0.9385 -0.2125
  514MOL0     H67786   9.819   3.949  10.800  2.0665  3.2104 -0.7321
  514MOL0     H67787   9.629   3.816  10.835  0.0030 -0.3839 -2.1061
  514MOL0     H67788   9.580   3.953  10.743  0.7114  1.3481 -0.3207
  514MOL0     H67789   9.464   4.052  10.896 -2.4735 -1.8083 -0.7953
  514MOL0     H67790   9.574   3.997  11.029  0.9913  2.4911 -1.3473
  514MOL0     H67791   9.367   3.798  10.874  1.6328  1.3325 -1.2362
  514MOL0     H67792   9.455   3.762  11.010 -3.4744 -1.8879  0.9319
  514MOL0     H67793   9.226   3.955  10.979 -0.3242 -0.2629 -0.6740
  514MOL0     H67794   9.319   3.969  11.122  0.0006  0.5664 -0.8385
  514MOL0     H67795   9.205   3.700  11.043 -0.9864  2.0274 -1.7446
  514MOL0     H67796   9.105   3.812  11.136 -0.5161 -0.8499  0.4136
  514MOL0     H67797   9.384   3.719  11.234  0.3962  1.9453  0.2146
  514MOL0     H67798   9.262   3.817  11.318  1.0502  1.0432 -0.8723
  514MOL0     H67799   9.100   3.606  11.271  0.2638 -0.4785 -1.5344
  514MOL0     H67800   9.213   3.592  11.403  0.3555  2.3586 -0.6637
  514MOL0     H67801   9.435   3.440  11.364 -0.0878  0.9290 -0.0130
  514MOL0     H67802   9.562   3.224  11.276  0.8673 -0.7054  2.2708
  514MOL0     H67803   9.490   3.137  11.133  0.8151  0.0118  0.3059
  514MOL0     H67804   9.370   3.159  11.431  0.4646  1.3189 -1.0708
  514MOL0     H67805   9.487   3.042  11.400 -0.2039  0.1772  0.3023
  514MOL0     H67806   9.223   3.049  11.226  0.9515  0.5195 -0.2121
  514MOL0     H67807   9.332   2.916  11.230 -0.5211  0.1045 -0.1093
  514MOL0     H67808   9.145   3.034  11.440 -0.3498  0.6402 -0.3765
  514MOL0     H67809   9.281   2.928  11.501 -0.7736  0.3567  0.4175
  514MOL0     H67810   8.977   2.645  11.323 -3.0926 -1.0342 -0.4273
  514MOL0     H67811   8.787   2.576  11.458  0.6273  0.7201 -0.8205
  514MOL0     H67812   8.565   2.326  11.658 -1.5059  0.5038 -2.3652
  514MOL0     H67813   8.397   2.236  11.824  2.8308 -0.1979 -1.3563
  514MOL0     H67814   8.382   2.312  12.090 -0.5387  0.5556  2.5069
  514MOL0     H67815   8.254   2.187  12.030 -0.1748  0.1286 -2.6074
  514MOL0     H67816   8.185   2.425  12.181  1.0454 -0.1753 -2.3813
  514MOL0     H67817   8.238   2.288  12.293  1.6519 -1.8241 -1.8780
  514MOL0     H67818   8.083   2.142  12.166  1.4907  0.1156 -1.0635
  514MOL0     H67819   8.007   2.284  12.102 -0.3823 -0.1540 -0.1177
  514MOL0     H67820   7.997   2.244  12.405 -0.5665  1.3673  0.0149
  514MOL0     H67821   7.931   2.366  12.301  0.2991  0.3842 -0.4510
  514MOL0     H67822   7.839   2.083  12.299  1.4370 -0.4451 -0.4457
  514MOL0     H67823   7.794   2.196  12.183 -1.4396 -1.3623  0.0636
  514MOL0     H67824   7.695   2.347  12.368 -0.2846 -0.0391  1.1297
  514MOL0     H67825   7.783   2.256  12.482 -1.4182 -0.2580  1.2931
  514MOL0     H67826   7.640   2.037  12.400 -0.1122 -1.7072  4.7899
  514MOL0     H67827   7.584   2.156  12.513 -2.9897  0.8562 -0.5205
  514MOL0     H67828   7.481   2.288  12.366 -1.7755 -0.0308  0.3307
  514MOL0     H67829   7.391   2.130  12.392 -1.7950  0.3976 -2.5741
  514MOL0     H67830   8.257   2.620  11.916  0.1732  1.5721 -1.8456
  514MOL0     H67831   8.434   2.726  11.748 -4.2091  0.3918 -1.8494
  514MOL0     H67832   8.887   2.859  11.762  0.2913 -0.5201  0.3426
  514MOL0     H67833   9.067   2.949  11.617 -3.6617  4.3977 -1.1051
  514MOL0     H67834   9.746   4.382  10.885 -2.1323 -1.7284 -0.7175
  514MOL0     H67835   9.945   4.519  10.892  0.6376 -0.1284 -1.0619
  514MOL0     H67836  10.335   4.511  11.141 -4.1144  1.6084 -1.4107
  514MOL0     H67837  10.510   4.663  11.216 -0.9637 -0.2879  0.0441
  514MOL0     H67838  10.867   4.675  11.192  0.3603  3.0619 -2.6353
  514MOL0     H67839  10.702   4.685  11.273 -0.3874  1.2535  0.0604
  514MOL0     H67840  10.870   4.882  11.320  0.6631 -1.0250 -0.6901
  514MOL0     H67841  10.853   4.923  11.146 -0.4134 -1.0443 -0.2375
  514MOL0     H67842  10.604   4.882  11.278  3.4579 -3.0283  1.4122
  514MOL0     H67843  10.658   5.017  11.168 -0.3070 -0.6767 -0.4317
  514MOL0     H67844  10.711   5.008  11.471  1.6681 -2.9343 -1.0854
  514MOL0     H67845  10.742   5.147  11.358 -2.4309  1.3822  0.2367
  514MOL0     H67846  10.320   5.096  11.471  0.3628  0.0803 -1.7554
  514MOL0     H67847  10.701   4.673  10.839 -0.7031 -0.6015  0.2267
  514MOL0     H67848  10.495   4.560  10.739 -2.0463  1.5628 -0.2678
  515MOL0     O67849   5.879   3.206  10.743 -0.0801  0.3032 -0.0453
  515MOL0     C67850   5.851   3.168  10.855  0.1507 -0.0630  1.0796
  515MOL0     O67851   5.732   3.198  10.921  0.8136  0.5784 -0.3584
  515MOL0     C67852   5.640   3.285  10.870  0.4104  0.1907 -0.2517
  515MOL0     C67853   5.664   3.395  10.780  0.5483 -0.7994 -0.1431
  515MOL0     C67854   5.571   3.491  10.748  1.6009 -1.0837  0.5172
  515MOL0     C67855   5.453   3.499  10.826  0.7343  0.3042 -0.8553
  515MOL0     O67856   5.341   3.573  10.810 -0.2092 -0.6698  1.2630
  515MOL0     C67857   5.322   3.663  10.693 -0.1324  0.3368  0.4560
  515MOL0     C67858   5.173   3.675  10.666  0.2380  0.0522  0.8379
  515MOL0     C67859   5.142   3.738  10.533 -0.6116 -0.3415  0.1656
  515MOL0     C67860   4.996   3.731  10.499  0.9450 -0.3837 -0.9653
  515MOL0     C67861   4.943   3.859  10.411 -0.5831  0.0242 -0.3858
  515MOL0     C67862   4.828   3.814  10.311  0.8025 -0.0228  0.4722
  515MOL0     C67863   4.771   3.937  10.235 -0.0091  0.9145 -0.3798
  515MOL0     C67864   4.661   4.013  10.315 -0.1391 -0.2894  0.3211
  515MOL0     N67865   4.632   4.136  10.232 -0.8931  0.0321  0.1263
  515MOL0     C67866   4.715   4.248  10.229  0.0840 -0.8256  0.2567
  515MOL0     C67867   4.646   4.338  10.153  0.6848 -0.9365 -0.6487
  515MOL0     C67868   4.682   4.479  10.115 -0.4197  0.4629 -0.4969
  515MOL0     C67869   4.834   4.490  10.075 -0.6488 -0.1701 -0.3789
  515MOL0     C67870   4.913   4.561  10.185 -0.2421 -0.2625 -0.0462
  515MOL0     C67871   5.058   4.571  10.137  0.5462 -0.8762 -0.3908
  515MOL0     O67872   5.067   4.643  10.010 -0.3731  0.4949 -0.6798
  515MOL0     C67873   5.186   4.660   9.954  0.8649  0.1314  0.3396
  515MOL0     C67874   5.208   4.780   9.870  0.1611 -0.0792 -0.2273
  515MOL0     C67875   5.336   4.798   9.811  0.5279 -0.2457  0.0435
  515MOL0     C67876   5.439   4.708   9.828  0.0425  0.8502  0.1710
  515MOL0     C67877   5.562   4.722   9.755 -0.7297 -0.7385  0.4068
  515MOL0     O67878   5.652   4.624   9.764 -0.3026  0.4216  0.2558
  515MOL0     C67879   5.781   4.629   9.732  0.4326  0.6725 -1.0960
  515MOL0     C67880   5.844   4.504   9.750 -0.0567  0.9045 -0.4989
  515MOL0     C67881   5.977   4.485   9.720 -0.5151  0.3759 -0.8034
  515MOL0     C67882   6.072   4.591   9.700  0.7845 -0.8629  0.2284
  515MOL0     O67883   6.209   4.589   9.679 -0.3806  0.4161 -0.5800
  515MOL0     C67884   6.273   4.479   9.742 -0.5108  1.0036  0.5763
  515MOL0     C67885   6.422   4.505   9.756  0.1433 -0.2045  0.4659
  515MOL0     C67886   6.501   4.397   9.836 -0.0230 -0.7437 -0.7891
  515MOL0     C67887   6.656   4.435   9.849 -0.4536 -0.3531 -0.8352
  515MOL0     C67888   6.733   4.313   9.902  0.3996  0.3167  0.5922
  515MOL0     C67889   6.883   4.351   9.922  0.6652 -0.0911  0.1465
  515MOL0     C67890   6.973   4.223   9.913 -0.2959 -0.1440 -0.1693
  515MOL0     C67891   7.119   4.238   9.931 -0.3998 -0.1737  0.8774
  515MOL0    Cl67892   7.188   4.076   9.919  0.1756 -0.2933 -0.5637
  515MOL0     C67893   6.012   4.716   9.686 -0.7617 -0.4391 -0.3233
  515MOL0     C67894   5.867   4.725   9.686 -0.6781 -0.3724  0.3200
  515MOL0     O67895   5.582   4.828   9.695 -0.5872  0.7506 -0.5654
  515MOL0     C67896   5.411   4.594   9.906 -1.1547  0.9655 -0.1061
  515MOL0     C67897   5.283   4.562   9.952 -0.7612 -0.9018 -1.0139
  515MOL0     N67898   4.523   4.281  10.110  0.2533  1.1134 -0.5585
  515MOL0     N67899   4.514   4.159  10.161  0.5835 -0.9302  0.5415
  515MOL0     C67900   5.435   3.399  10.928  0.2942  0.3893  1.5704
  515MOL0     C67901   5.512   3.291  10.935 -1.3381  0.7697 -0.1950
  515MOL0     C67902   5.933   3.071  10.926 -0.6443 -0.2431 -0.2108
  515MOL0     C67903   5.888   2.989  11.030 -0.2356  0.2459 -0.5759
  515MOL0     C67904   5.976   2.885  11.087  0.8359 -0.5311  0.1058
  515MOL0     C67905   6.103   2.884  11.030  1.0063 -0.4120 -0.4013
  515MOL0     O67906   6.204   2.810  11.073 -0.1998  1.0561  0.0900
  515MOL0     C67907   6.197   2.757  11.208 -0.3897  0.2294 -0.8007
  515MOL0     C67908   6.330   2.692  11.246 -0.3477 -0.3020 -0.2459
  515MOL0     C67909   6.439   2.803  11.269 -0.0135  0.1181  0.2109
  515MOL0     C67910   6.565   2.730  11.331  0.0261  0.1983 -0.6123
  515MOL0     C67911   6.682   2.820  11.334 -0.1891 -0.6466 -0.1867
  515MOL0     C67912   6.771   2.907  11.333  0.0804  0.0280 -0.9472
  515MOL0     C67913   6.144   2.966  10.930  0.1879 -0.4142 -0.1421
  515MOL0     C67914   6.062   3.061  10.873 -0.0146  0.9676  0.4744
  515MOL0     H67915   5.761   3.401  10.731 -0.7030 -2.5413 -3.1220
  515MOL0     H67916   5.578   3.572  10.675  2.7512 -0.8980  0.8161
  515MOL0     H67917   5.366   3.614  10.605 -0.3060  0.9782  0.0092
  515MOL0     H67918   5.364   3.763  10.708  0.9083 -0.3979  3.2276
  515MOL0     H67919   5.129   3.746  10.737  0.1771  2.4580 -1.4582
  515MOL0     H67920   5.132   3.574  10.676  0.4660 -0.3422 -1.5165
  515MOL0     H67921   5.191   3.671  10.462 -0.0270  0.4851 -0.2288
  515MOL0     H67922   5.189   3.837  10.536 -0.8985 -0.1974 -0.0225
  515MOL0     H67923   4.972   3.641  10.443 -1.8117 -1.2549  1.3679
  515MOL0     H67924   4.943   3.717  10.594  1.4930 -0.0566 -0.6012
  515MOL0     H67925   5.023   3.906  10.354 -0.8197  0.2031 -0.5711
  515MOL0     H67926   4.910   3.935  10.482  1.0445 -1.8712  2.6518
  515MOL0     H67927   4.750   3.767  10.371  0.7423  0.1677  0.5430
  515MOL0     H67928   4.866   3.738  10.242 -0.8697 -0.0227 -0.4883
  515MOL0     H67929   4.850   4.005  10.201  0.7612  0.8177  1.1418
  515MOL0     H67930   4.727   3.883  10.151 -1.2919  1.7283 -0.2572
  515MOL0     H67931   4.709   4.041  10.409 -0.1785 -1.3646  0.6693
  515MOL0     H67932   4.565   3.966  10.335 -1.2846  1.6306 -0.3771
  515MOL0     H67933   4.805   4.277  10.282  1.4163 -2.2845 -1.1060
  515MOL0     H67934   4.669   4.540  10.205 -1.2942 -1.7775  0.9885
  515MOL0     H67935   4.617   4.519  10.036  0.4055  3.9314  0.3769
  515MOL0     H67936   4.836   4.551   9.984  0.5829  0.4033  0.0143
  515MOL0     H67937   4.880   4.392  10.055  3.0489  0.8895  1.9602
  515MOL0     H67938   4.880   4.662  10.209  1.5841  0.1012  1.1369
  515MOL0     H67939   4.909   4.488  10.266 -2.3619 -1.7542 -1.3919
  515MOL0     H67940   5.084   4.465  10.130  0.5116 -0.7902 -2.4316
  515MOL0     H67941   5.120   4.627  10.208  0.0199 -0.1021 -0.5292
  515MOL0     H67942   5.130   4.855   9.859  1.0032  0.6622 -1.2851
  515MOL0     H67943   5.341   4.888   9.751 -2.6671 -1.0110 -1.6011
  515MOL0     H67944   5.786   4.413   9.761 -0.8842  1.4884  0.1566
  515MOL0     H67945   6.011   4.382   9.717  1.4207  0.9112  0.7013
  515MOL0     H67946   6.261   4.390   9.680  0.7592  1.0650  0.2277
  515MOL0     H67947   6.237   4.469   9.845  1.4296  1.1775  1.3076
  515MOL0     H67948   6.436   4.603   9.803  0.9469 -1.7181  3.6616
  515MOL0     H67949   6.463   4.507   9.655  0.3881 -2.4019  0.4701
  515MOL0     H67950   6.503   4.301   9.784 -0.2971 -0.7732 -0.7477
  515MOL0     H67951   6.449   4.387   9.932 -1.4381  0.0531 -1.4362
  515MOL0     H67952   6.698   4.467   9.753  0.1396  0.9411 -0.1702
  515MOL0     H67953   6.687   4.513   9.918  1.8454 -2.1708  0.3446
  515MOL0     H67954   6.729   4.226   9.836  1.4802 -0.5225  1.6017
  515MOL0     H67955   6.707   4.285  10.005  0.9725 -3.9282 -0.2582
  515MOL0     H67956   6.906   4.397  10.018  1.5872 -1.5052  0.6309
  515MOL0     H67957   6.905   4.423   9.842  1.1628  0.4179  0.7323
  515MOL0     H67958   6.951   4.152   9.994  1.7541  1.3216  1.8129
  515MOL0     H67959   6.957   4.171   9.818  0.3034 -2.5498  0.9524
  515MOL0     H67960   7.149   4.288  10.024  1.6738 -1.1618  0.8041
  515MOL0     H67961   7.167   4.301   9.855 -1.6723 -0.4883 -0.2172
  515MOL0     H67962   6.070   4.805   9.661 -2.1014  0.6165  0.2141
  515MOL0     H67963   5.839   4.824   9.650 -1.8690 -1.3710 -1.7164
  515MOL0     H67964   5.494   4.527   9.924 -0.3397  2.2538  1.1451
  515MOL0     H67965   5.277   4.461   9.992  0.3022 -0.1473  1.1607
  515MOL0     H67966   5.344   3.400  10.987 -1.9200 -2.5845 -1.4251
  515MOL0     H67967   5.486   3.206  10.997 -2.4721 -0.0635 -1.7373
  515MOL0     H67968   5.793   2.995  11.083 -0.1811  0.4898 -0.5075
  515MOL0     H67969   5.945   2.823  11.170  0.8549 -1.0030 -0.2370
  515MOL0     H67970   6.111   2.690  11.210 -0.1137 -0.1168 -0.1645
  515MOL0     H67971   6.178   2.835  11.282 -3.0262 -1.1977  0.1675
  515MOL0     H67972   6.318   2.636  11.339  0.4000  1.0454  0.7034
  515MOL0     H67973   6.365   2.622  11.169 -0.6653  0.7344 -1.3634
  515MOL0     H67974   6.403   2.889  11.326 -1.3641 -1.1772  1.3950
  515MOL0     H67975   6.478   2.841  11.174  4.0746 -1.1793  1.1467
  515MOL0     H67976   6.545   2.696  11.433  0.0243  0.3258 -0.5693
  515MOL0     H67977   6.587   2.646  11.265  0.4764  0.2842 -0.5732
  515MOL0     H67978   6.833   2.993  11.343  0.1237 -0.0278 -0.7242
  515MOL0     H67979   6.248   2.969  10.899  1.0751  2.7137  2.5026
  515MOL0     H67980   6.092   3.126  10.793  0.0175  0.8327  0.3759
  516MOL0     O67981   1.540   7.308   0.751 -0.2757 -0.2539  0.2256
  516MOL0     C67982   1.603   7.353   0.848  0.1451  0.2599  0.7167
  516MOL0     O67983   1.555   7.340   0.976  0.0993  0.2449 -0.1168
  516MOL0     C67984   1.423   7.318   1.000  0.9198 -0.2878  0.0010
  516MOL0     C67985   1.358   7.192   0.973 -0.1196  0.4842 -0.4200
  516MOL0     C67986   1.219   7.181   0.987 -0.6898 -0.1515  0.2245
  516MOL0     C67987   1.137   7.288   1.023 -0.3444  0.7860 -0.2708
  516MOL0     O67988   1.003   7.258   1.028 -0.0339 -0.4497  1.1141
  516MOL0     C67989   0.910   7.360   1.054  0.5575 -0.2934  0.7920
  516MOL0     C67990   0.778   7.323   0.997  1.0544 -0.1748  0.3065
  516MOL0     C67991   0.676   7.434   1.029  0.4306 -0.0824  0.4903
  516MOL0     C67992   0.540   7.404   0.964  0.4136 -0.8650 -0.3050
  516MOL0     C67993   0.432   7.473   1.031 -0.2737 -0.9516 -0.4883
  516MOL0     C67994   0.305   7.381   1.057 -0.2596  0.3263  0.6942
  516MOL0     C67995   0.177   7.456   1.097 -0.8271 -0.0043  0.4462
  516MOL0     C67996   0.070   7.345   1.093 -1.1553 -0.5068  0.2287
  516MOL0     N67997  -0.056   7.409   1.124 -0.0865 -0.3572  0.1226
  516MOL0     C67998  -0.142   7.458   1.028 -0.7936 -0.4828  0.7678
  516MOL0     C67999  -0.235   7.530   1.098 -0.4816 -0.1835 -1.7490
  516MOL0     C68000  -0.349   7.606   1.035  0.2143 -0.7156  0.2676
  516MOL0     C68001  -0.484   7.571   1.113 -1.6052  0.2589  1.1125
  516MOL0     C68002  -0.593   7.671   1.082 -1.1237  0.1342  0.3464
  516MOL0     C68003  -0.715   7.601   1.127  0.3610 -0.2200 -0.5687
  516MOL0     O68004  -0.826   7.661   1.059 -0.1410 -0.0708 -0.0112
  516MOL0     C68005  -0.946   7.649   1.117 -0.3561  0.3709 -0.3512
  516MOL0     C68006  -1.031   7.744   1.080  0.1013 -0.3213 -1.1896
  516MOL0     C68007  -1.164   7.748   1.116  0.7995 -0.4682 -0.6636
  516MOL0     C68008  -1.214   7.645   1.188  0.4056  0.4646 -0.0543
  516MOL0     C68009  -1.363   7.626   1.228 -0.2714 -0.6287  0.4515
  516MOL0     O68010  -1.408   7.567   1.343  0.8544  0.6132  0.1214
  516MOL0     C68011  -1.536   7.514   1.351  0.6919 -0.8280 -0.4030
  516MOL0     C68012  -1.595   7.500   1.482 -0.7569  0.5841  0.8470
  516MOL0     C68013  -1.721   7.445   1.505  0.2213  0.4641  0.2066
  516MOL0     C68014  -1.792   7.387   1.401 -0.5716  0.0060  0.7026
  516MOL0     O68015  -1.902   7.313   1.405  0.1321  0.3793  0.1158
  516MOL0     C68016  -1.964   7.305   1.535 -0.7273  0.0769  0.1866
  516MOL0     C68017  -2.059   7.186   1.546  0.8230 -0.1181 -0.7880
  516MOL0     C68018  -2.108   7.175   1.688 -0.1767  0.2309  0.8192
  516MOL0     C68019  -2.246   7.119   1.720 -0.2583 -0.2080  0.0525
  516MOL0     C68020  -2.278   7.143   1.869 -0.3802 -0.3071  0.3976
  516MOL0     C68021  -2.411   7.076   1.924 -0.2583  0.0754  0.1364
  516MOL0     C68022  -2.438   7.130   2.063  0.7124 -0.2625  0.2542
  516MOL0     C68023  -2.568   7.083   2.129  0.1444  0.0990  0.0713
  516MOL0    Cl68024  -2.569   7.117   2.302  0.0451  0.2012 -0.2885
  516MOL0     C68025  -1.736   7.405   1.268  0.6046  0.7740 -0.8291
  516MOL0     C68026  -1.616   7.468   1.248 -0.3457 -0.0762 -0.8503
  516MOL0     O68027  -1.434   7.667   1.140 -0.1018  0.2929  0.1961
  516MOL0     C68028  -1.125   7.542   1.225 -0.2838  0.5631  0.5650
  516MOL0     C68029  -0.990   7.551   1.200  0.1610  0.7015 -0.7184
  516MOL0     N68030  -0.217   7.507   1.234 -0.2463  0.2789  0.0695
  516MOL0     N68031  -0.099   7.435   1.253 -0.7607  0.4455  0.1212
  516MOL0     C68032   1.204   7.408   1.053 -0.2180 -0.4627 -0.0638
  516MOL0     C68033   1.347   7.422   1.042 -0.3450  0.1434 -0.4575
  516MOL0     C68034   1.734   7.425   0.813  0.3730 -0.7297 -0.0424
  516MOL0     C68035   1.807   7.467   0.917 -0.6037  0.0612 -0.5805
  516MOL0     C68036   1.937   7.518   0.888 -0.1141 -0.9147 -0.6305
  516MOL0     C68037   1.986   7.545   0.755 -0.1457  0.1879 -0.8785
  516MOL0     O68038   2.109   7.593   0.722 -0.5511 -0.4616 -0.2311
  516MOL0     C68039   2.183   7.667   0.820  0.0368  1.1401  0.0601
  516MOL0     C68040   2.235   7.791   0.762 -0.2487  0.9180  0.2301
  516MOL0     C68041   2.119   7.886   0.729  0.8663 -0.1928 -0.1804
  516MOL0     C68042   2.160   8.019   0.666  0.0454  0.2526 -0.8120
  516MOL0     C68043   2.226   8.095   0.766  0.2292  0.1538 -0.1584
  516MOL0     C68044   2.280   8.161   0.854 -0.3768 -0.3855 -0.0227
  516MOL0     C68045   1.906   7.500   0.655  0.3451 -0.0127  0.0765
  516MOL0     C68046   1.787   7.434   0.683  0.9985  0.0461  0.2261
  516MOL0     H68047   1.420   7.109   0.940  2.2380  1.7712  0.5227
  516MOL0     H68048   1.171   7.089   0.957  0.7473 -0.6141 -0.7507
  516MOL0     H68049   0.937   7.452   1.002 -2.1312 -0.2328 -0.6826
  516MOL0     H68050   0.915   7.375   1.162  2.5296 -1.1603  0.8731
  516MOL0     H68051   0.741   7.229   1.039 -0.7559 -1.2147 -3.2067
  516MOL0     H68052   0.797   7.309   0.890 -0.1375 -2.8967  0.3513
  516MOL0     H68053   0.694   7.535   0.992  2.6165 -0.8896 -0.7887
  516MOL0     H68054   0.660   7.428   1.137 -1.6632 -1.8764  0.1417
  516MOL0     H68055   0.543   7.422   0.856  2.2537 -0.4599 -0.2215
  516MOL0     H68056   0.525   7.300   0.995  3.5542 -0.8299  1.8007
  516MOL0     H68057   0.395   7.557   0.973 -1.8622 -1.2560  0.0364
  516MOL0     H68058   0.465   7.519   1.125  0.0669  0.9314 -1.4974
  516MOL0     H68059   0.322   7.307   1.136 -0.6144 -2.9203 -2.0469
  516MOL0     H68060   0.293   7.324   0.964 -1.9214  2.2149 -0.3351
  516MOL0     H68061   0.173   7.498   1.198 -1.2498 -1.8576  1.2523
  516MOL0     H68062   0.161   7.537   1.026  0.3221  0.2213  0.4259
  516MOL0     H68063   0.097   7.272   1.169  1.0059 -1.0734 -0.9663
  516MOL0     H68064   0.074   7.294   0.996  0.1058  0.6895 -0.3988
  516MOL0     H68065  -0.132   7.441   0.921  0.2794  1.6122  0.4955
  516MOL0     H68066  -0.366   7.577   0.931 -2.0861  0.5678  0.2344
  516MOL0     H68067  -0.334   7.714   1.034  0.8408 -0.8010  0.1065
  516MOL0     H68068  -0.460   7.585   1.219 -1.1139 -0.8412  1.1642
  516MOL0     H68069  -0.507   7.466   1.090 -1.3379  0.6258 -1.0664
  516MOL0     H68070  -0.573   7.767   1.131 -0.2011  0.0547  0.1514
  516MOL0     H68071  -0.606   7.686   0.975  1.4768  1.2877  0.1085
  516MOL0     H68072  -0.737   7.623   1.232 -0.3380 -1.9581 -0.3134
  516MOL0     H68073  -0.718   7.491   1.120 -1.5823 -0.1327 -2.1131
  516MOL0     H68074  -0.988   7.806   1.003 -0.1048 -1.7076 -2.4694
  516MOL0     H68075  -1.222   7.836   1.089 -0.0040 -1.7073 -3.3787
  516MOL0     H68076  -1.542   7.541   1.567  1.7331 -1.2562  0.2865
  516MOL0     H68077  -1.762   7.445   1.606 -0.1755 -0.1263  0.0469
  516MOL0     H68078  -2.024   7.396   1.546 -2.9719 -1.1924 -0.8537
  516MOL0     H68079  -1.894   7.287   1.617 -2.8760 -2.1509  1.6546
  516MOL0     H68080  -2.024   7.091   1.506 -0.0682 -0.2625 -1.2428
  516MOL0     H68081  -2.150   7.221   1.496  0.4152 -1.1452 -0.7876
  516MOL0     H68082  -2.103   7.271   1.740  0.6573  2.1500 -2.5020
  516MOL0     H68083  -2.038   7.111   1.742  0.8538 -0.0684 -0.8003
  516MOL0     H68084  -2.321   7.173   1.662  1.3927  2.4364  0.2056
  516MOL0     H68085  -2.247   7.011   1.700  0.0962  0.2292 -2.7266
  516MOL0     H68086  -2.292   7.250   1.889 -2.9826 -0.4515 -0.1797
  516MOL0     H68087  -2.191   7.109   1.925  0.4865  1.6268  0.3154
  516MOL0     H68088  -2.386   6.971   1.941 -0.2056  0.0758  0.0611
  516MOL0     H68089  -2.491   7.096   1.852  1.7649  0.2882 -2.1549
  516MOL0     H68090  -2.356   7.104   2.131  1.4497  1.4495  0.0644
  516MOL0     H68091  -2.440   7.239   2.056  0.9700 -0.2693  0.0729
  516MOL0     H68092  -2.583   6.976   2.113 -2.3844  0.7841 -3.1725
  516MOL0     H68093  -2.653   7.137   2.086 -0.5532 -2.2002 -1.6421
  516MOL0     H68094  -1.773   7.354   1.180  1.2454 -0.6376 -0.3176
  516MOL0     H68095  -1.574   7.473   1.148  0.5119 -1.4212 -0.5772
  516MOL0     H68096  -1.145   7.453   1.283 -0.5494 -1.7946 -2.8175
  516MOL0     H68097  -0.931   7.475   1.250 -2.6723 -1.9267 -1.0838
  516MOL0     H68098   1.149   7.497   1.081  0.9716  0.4791 -0.6464
  516MOL0     H68099   1.392   7.520   1.049  0.1366  0.0043 -1.3981
  516MOL0     H68100   1.771   7.447   1.018  0.9439 -0.0221 -0.0076
  516MOL0     H68101   2.000   7.542   0.974 -0.4136  0.6759 -0.8194
  516MOL0     H68102   2.260   7.594   0.848  0.5180  0.7901 -2.0069
  516MOL0     H68103   2.124   7.701   0.905  1.1552  1.8040  0.5915
  516MOL0     H68104   2.318   7.827   0.824  0.8958 -2.1194  0.6305
  516MOL0     H68105   2.282   7.783   0.664 -2.1204  1.9410 -0.7999
  516MOL0     H68106   2.068   7.895   0.825  2.0716  0.7552  0.3976
  516MOL0     H68107   2.042   7.839   0.666 -0.1188  0.6226  0.3899
  516MOL0     H68108   2.230   8.004   0.584  1.6711  0.4324  0.4732
  516MOL0     H68109   2.074   8.078   0.632  0.4446  1.2496 -0.1589
  516MOL0     H68110   2.318   8.233   0.923  0.2919  0.6568 -1.4347
  516MOL0     H68111   1.951   7.497   0.556 -3.2371  1.5035 -1.7658
  516MOL0     H68112   1.727   7.388   0.604  0.0506  0.4411  0.6932
  517MOL0     O68113   3.415   3.349   4.771 -0.0438  0.5404 -0.0813
  517MOL0     C68114   3.526   3.297   4.778  0.1926  0.3632 -0.9583
  517MOL0     O68115   3.548   3.164   4.781 -0.0238  0.2702 -0.3644
  517MOL0     C68116   3.467   3.068   4.718 -0.3192 -0.1740 -0.4833
  517MOL0     C68117   3.412   3.094   4.595  0.0843  0.0630 -0.3305
  517MOL0     C68118   3.336   2.991   4.540 -0.1457 -0.5750  0.7945
  517MOL0     C68119   3.323   2.868   4.592 -0.2420  0.7362  0.4382
  517MOL0     O68120   3.268   2.760   4.531 -0.6196  0.1892 -0.3936
  517MOL0     C68121   3.140   2.761   4.459 -0.6505  1.0125 -0.1360
  517MOL0     C68122   3.027   2.836   4.534 -0.4646 -0.8250  0.2664
  517MOL0     C68123   2.914   2.841   4.443  0.3243 -0.2668 -0.2206
  517MOL0     C68124   2.819   2.958   4.490 -0.8208 -0.3720  0.0316
  517MOL0     C68125   2.693   2.951   4.405  0.2053  0.6288  0.6750
  517MOL0     C68126   2.622   3.074   4.462  1.1044  0.4206 -0.4100
  517MOL0     C68127   2.472   3.086   4.430  0.2596  0.6932  0.3097
  517MOL0     C68128   2.379   2.986   4.498 -0.1648 -0.2417  0.2107
  517MOL0     N68129   2.295   2.930   4.395 -0.1755  0.2175  0.3274
  517MOL0     C68130   2.154   2.957   4.380 -0.2191  0.2194  0.2470
  517MOL0     C68131   2.128   2.877   4.269 -0.5381  0.0818 -0.7418
  517MOL0     C68132   1.996   2.857   4.203 -0.0226  0.6306  0.3652
  517MOL0     C68133   1.877   2.817   4.292  0.3707  0.1432  0.6268
  517MOL0     C68134   1.742   2.822   4.216 -0.0122  0.1715 -0.1784
  517MOL0     C68135   1.675   2.959   4.200 -0.8839 -0.3645  0.3894
  517MOL0     O68136   1.632   2.987   4.063  0.7614  0.0518  0.5105
  517MOL0     C68137   1.504   2.967   4.019 -0.3123 -0.7366 -0.6702
  517MOL0     C68138   1.464   3.027   3.898 -0.3632  0.2607  0.2476
  517MOL0     C68139   1.337   3.037   3.855  0.2665 -0.0904  0.3718
  517MOL0     C68140   1.234   2.996   3.938  0.7388  0.0775 -0.4560
  517MOL0     C68141   1.097   3.026   3.906  0.0836 -0.1964  0.2400
  517MOL0     O68142   1.064   3.042   3.770  0.4490 -0.6534 -0.5924
  517MOL0     C68143   0.933   3.081   3.758  0.1505  0.0287  0.6996
  517MOL0     C68144   0.898   3.217   3.734  0.0387  0.4398 -0.1213
  517MOL0     C68145   0.762   3.239   3.720  0.2280  0.1496  0.0372
  517MOL0     C68146   0.667   3.138   3.720  0.0619 -0.7931 -0.1916
  517MOL0     O68147   0.535   3.159   3.690  0.0529  0.0818  0.3271
  517MOL0     C68148   0.474   3.268   3.764 -0.4295  0.2703 -0.8430
  517MOL0     C68149   0.325   3.259   3.727  0.0987 -0.1219  0.4130
  517MOL0     C68150   0.254   3.376   3.789  0.5099  0.6456 -0.0714
  517MOL0     C68151   0.114   3.394   3.738 -0.1435 -0.1226 -0.1738
  517MOL0     C68152   0.014   3.288   3.762 -0.6164 -0.3332  0.1699
  517MOL0     C68153  -0.123   3.290   3.694  1.0545 -0.1816 -0.6804
  517MOL0     C68154  -0.201   3.425   3.712  0.8122 -0.1751 -0.2960
  517MOL0     C68155  -0.230   3.466   3.854  0.7820 -0.0912 -0.2730
  517MOL0    Cl68156  -0.343   3.357   3.944  0.1656 -0.0831 -0.6953
  517MOL0     C68157   0.706   3.006   3.754 -0.1785  0.7249  0.8015
  517MOL0     C68158   0.837   2.982   3.768 -0.0790  0.5188 -0.3380
  517MOL0     O68159   1.020   3.004   4.002  0.1717  0.3352 -0.1779
  517MOL0     C68160   1.274   2.927   4.059  0.6358  0.3428  0.1614
  517MOL0     C68161   1.404   2.911   4.099 -0.3548 -0.1141 -0.1266
  517MOL0     N68162   2.239   2.807   4.222  0.6693  0.2530 -0.3577
  517MOL0     N68163   2.335   2.829   4.304  0.8863  0.5083 -0.4214
  517MOL0     C68164   3.399   2.836   4.701  0.5686  0.2897 -0.3370
  517MOL0     C68165   3.458   2.950   4.773 -1.0734  0.3690 -0.9017
  517MOL0     C68166   3.636   3.393   4.791 -0.8090  0.8604  0.5784
  517MOL0     C68167   3.610   3.523   4.760 -0.4794  0.1420 -0.2025
  517MOL0     C68168   3.709   3.616   4.778  0.6240  0.8056 -0.4815
  517MOL0     C68169   3.848   3.582   4.789 -0.1550  0.1730  0.4250
  517MOL0     O68170   3.947   3.667   4.796 -0.0750 -0.8021 -0.3164
  517MOL0     C68171   3.924   3.808   4.788  0.5444  0.6005 -0.2040
  517MOL0     C68172   4.057   3.883   4.814  0.0826 -0.1007  0.6031
  517MOL0     C68173   4.112   3.846   4.956  0.8572  0.2937  0.1618
  517MOL0     C68174   4.260   3.898   4.978  0.2682 -0.6446  0.5552
  517MOL0     C68175   4.362   3.831   4.903 -0.6187 -0.3753 -0.4883
  517MOL0     C68176   4.452   3.768   4.851  0.7865 -0.5452  0.1768
  517MOL0     C68177   3.875   3.447   4.798 -0.1247  1.2874  0.2208
  517MOL0     C68178   3.770   3.350   4.799 -0.4458 -0.2447  0.1497
  517MOL0     H68179   3.420   3.195   4.556  0.1526  0.7185  1.3155
  517MOL0     H68180   3.275   3.016   4.455 -0.0541 -3.6991 -0.3168
  517MOL0     H68181   3.097   2.664   4.431  0.1196  0.8848 -0.9113
  517MOL0     H68182   3.156   2.805   4.360 -2.8397  1.2549 -0.4345
  517MOL0     H68183   3.070   2.935   4.555  1.9137 -1.7751  0.1601
  517MOL0     H68184   3.002   2.782   4.625  1.5760 -1.1850  0.6725
  517MOL0     H68185   2.857   2.748   4.440 -0.1361  0.0184 -0.7983
  517MOL0     H68186   2.946   2.854   4.339 -1.0224  0.0810 -0.6159
  517MOL0     H68187   2.790   2.938   4.594  3.1687 -0.0370  1.3729
  517MOL0     H68188   2.868   3.053   4.469 -1.7599 -0.4565 -3.0628
  517MOL0     H68189   2.635   2.860   4.424 -0.6855  0.6699 -1.5552
  517MOL0     H68190   2.710   2.952   4.297  3.3415  0.8753  1.0706
  517MOL0     H68191   2.679   3.155   4.416  1.0213  0.5187 -0.3414
  517MOL0     H68192   2.627   3.072   4.571 -0.1432 -0.4178 -0.3458
  517MOL0     H68193   2.442   3.188   4.455 -1.7084  0.6003 -1.3413
  517MOL0     H68194   2.464   3.084   4.321 -0.1297 -1.3089  0.3525
  517MOL0     H68195   2.317   3.034   4.575  0.7259  1.1573  0.1116
  517MOL0     H68196   2.439   2.912   4.552  0.9016 -0.1344 -0.7863
  517MOL0     H68197   2.097   3.016   4.450  2.6553  0.2920  2.7255
  517MOL0     H68198   2.013   2.768   4.142 -1.8729 -0.8434  1.8711
  517MOL0     H68199   1.973   2.946   4.143 -0.2547  2.2971  2.7897
  517MOL0     H68200   1.870   2.899   4.363 -2.1495  0.7338 -0.1847
  517MOL0     H68201   1.890   2.723   4.346 -0.8746 -0.3254  0.1695
  517MOL0     H68202   1.751   2.757   4.129 -2.6239 -0.6332  0.0420
  517MOL0     H68203   1.669   2.762   4.272  1.5071  0.5166  2.3391
  517MOL0     H68204   1.738   3.041   4.237 -2.5386  0.5710  1.2588
  517MOL0     H68205   1.589   2.961   4.269  0.2450  0.1702  1.8318
  517MOL0     H68206   1.540   3.069   3.833  0.1128 -1.2162 -0.1916
  517MOL0     H68207   1.314   3.069   3.754 -0.1499 -2.4461 -0.3597
  517MOL0     H68208   0.961   3.305   3.732 -0.2211  0.6214 -0.7806
  517MOL0     H68209   0.731   3.341   3.702  0.0725  0.1037  0.0408
  517MOL0     H68210   0.513   3.366   3.737  1.1727 -0.3558 -0.8720
  517MOL0     H68211   0.475   3.262   3.873 -0.1090 -0.7621 -0.8941
  517MOL0     H68212   0.287   3.169   3.776 -0.8383  0.9378  1.6910
  517MOL0     H68213   0.308   3.250   3.619 -3.3350 -0.5736  0.8773
  517MOL0     H68214   0.307   3.467   3.758  1.8283  0.2196  0.8854
  517MOL0     H68215   0.244   3.366   3.897 -0.5837 -3.1483 -0.3937
  517MOL0     H68216   0.070   3.488   3.774 -1.7310 -1.9256  2.9948
  517MOL0     H68217   0.125   3.401   3.630  1.3398 -1.5201 -0.1506
  517MOL0     H68218   0.001   3.286   3.871 -0.5900  0.6302  0.1973
  517MOL0     H68219   0.048   3.189   3.728 -2.2066 -0.1459 -2.2052
  517MOL0     H68220  -0.189   3.214   3.737 -2.1868  2.1349 -1.1196
  517MOL0     H68221  -0.110   3.263   3.589 -0.0344  0.7462 -1.0910
  517MOL0     H68222  -0.147   3.508   3.665 -0.7721  0.4837 -1.0511
  517MOL0     H68223  -0.295   3.418   3.657  0.8105 -2.0320 -0.1112
  517MOL0     H68224  -0.277   3.564   3.866 -0.5095 -0.8624  1.3767
  517MOL0     H68225  -0.137   3.477   3.912  0.8995  0.4988 -0.5672
  517MOL0     H68226   0.635   2.925   3.762 -2.4461  2.5184 -0.0421
  517MOL0     H68227   0.872   2.881   3.787  1.3260  1.3383  1.8205
  517MOL0     H68228   1.192   2.886   4.116  0.2314  0.0411 -0.6256
  517MOL0     H68229   1.429   2.880   4.200 -0.3015  0.7688  0.1430
  517MOL0     H68230   3.405   2.739   4.750  2.4309  1.4965  2.0433
  517MOL0     H68231   3.494   2.925   4.872 -1.5622  0.1384 -0.7772
  517MOL0     H68232   3.511   3.566   4.745  0.4486  4.0875  2.9785
  517MOL0     H68233   3.676   3.720   4.777  1.3097  1.1373  2.3942
  517MOL0     H68234   3.839   3.840   4.850 -2.5718 -1.8548 -2.8144
  517MOL0     H68235   3.883   3.815   4.687 -3.2220 -0.2045  1.0844
  517MOL0     H68236   4.134   3.843   4.747  1.0654  5.1011 -1.9212
  517MOL0     H68237   4.063   3.989   4.785  2.8613 -0.5120 -0.6885
  517MOL0     H68238   4.112   3.736   4.961  0.1437  0.3322  1.1174
  517MOL0     H68239   4.046   3.892   5.030  0.7883  1.3182 -0.5152
  517MOL0     H68240   4.280   4.005   4.969  1.8351 -0.5862  3.6421
  517MOL0     H68241   4.276   3.875   5.084  1.0214  2.3797  1.1801
  517MOL0     H68242   4.523   3.712   4.793  0.9494  1.0188 -1.2132
  517MOL0     H68243   3.979   3.414   4.800 -1.2371 -3.2085 -1.9933
  517MOL0     H68244   3.804   3.247   4.800 -0.2128 -0.3401 -3.2394
  518MOL0     O68245   8.850   6.335   1.722  0.7662 -0.2011 -0.4846
  518MOL0     C68246   8.835   6.255   1.817 -0.2576  0.4410 -0.8767
  518MOL0     O68247   8.742   6.161   1.837 -0.0267  0.0569  0.6011
  518MOL0     C68248   8.629   6.155   1.748 -0.3814  0.0693  0.7576
  518MOL0     C68249   8.568   6.030   1.757 -0.2355 -0.3781 -0.4143
  518MOL0     C68250   8.455   5.996   1.677  0.3155  0.2272 -0.3315
  518MOL0     C68251   8.398   6.088   1.592 -0.1677  0.2412 -0.1370
  518MOL0     O68252   8.289   6.063   1.514 -0.2848 -0.2762  0.8317
  518MOL0     C68253   8.267   5.934   1.445 -0.4219  0.6268  0.3884
  518MOL0     C68254   8.130   5.866   1.473 -0.5429 -0.1762  0.7265
  518MOL0     C68255   8.066   5.898   1.607  0.0482  0.8522 -0.5695
  518MOL0     C68256   7.962   5.789   1.644  0.5505 -0.3303  0.2182
  518MOL0     C68257   7.824   5.807   1.572  0.1137 -0.2037  0.7491
  518MOL0     C68258   7.715   5.759   1.662  0.7107 -0.5567  0.7646
  518MOL0     C68259   7.570   5.788   1.615 -0.0234 -0.9623 -1.1672
  518MOL0     C68260   7.469   5.766   1.718 -0.6947  0.0811  1.0164
  518MOL0     N68261   7.449   5.619   1.753  0.4200 -0.5999 -0.2605
  518MOL0     C68262   7.374   5.538   1.675  0.6775  0.8808 -0.3701
  518MOL0     C68263   7.401   5.406   1.702  0.8151  0.0650  0.5393
  518MOL0     C68264   7.332   5.281   1.654 -0.3914 -0.4807  0.4158
  518MOL0     C68265   7.187   5.291   1.635 -0.7054 -0.6996 -0.5183
  518MOL0     C68266   7.134   5.147   1.658  0.8488 -0.1942  0.8152
  518MOL0     C68267   6.985   5.157   1.651 -0.1899 -0.6403  0.1712
  518MOL0     O68268   6.927   5.038   1.704  0.0180 -0.3449 -0.5811
  518MOL0     C68269   6.790   5.040   1.736 -0.0207  0.3222  0.3276
  518MOL0     C68270   6.709   5.150   1.704 -0.3477 -0.6542 -0.9146
  518MOL0     C68271   6.571   5.142   1.722 -0.0588  0.2126  0.8333
  518MOL0     C68272   6.511   5.030   1.777  1.1432  0.1102  0.3485
  518MOL0     C68273   6.359   5.022   1.803  0.4806 -0.6529  0.0629
  518MOL0     O68274   6.274   5.117   1.751 -0.4007 -0.5130 -0.2368
  518MOL0     C68275   6.141   5.089   1.768 -0.0575 -0.6020  0.2544
  518MOL0     C68276   6.080   4.981   1.699 -0.4609  1.0117 -0.9590
  518MOL0     C68277   5.945   4.947   1.723 -0.2106 -0.8559  1.1528
  518MOL0     C68278   5.873   5.028   1.804  0.3977  0.3836 -0.1675
  518MOL0     O68279   5.749   4.996   1.837 -0.1941 -0.2673 -0.6203
  518MOL0     C68280   5.644   5.057   1.760  0.1169  0.1978 -0.2955
  518MOL0     C68281   5.519   4.971   1.748 -0.2899 -0.4610  0.8354
  518MOL0     C68282   5.460   4.942   1.879  0.6367 -0.2299  0.0970
  518MOL0     C68283   5.336   4.844   1.868 -0.1898  0.2249  0.6273
  518MOL0     C68284   5.211   4.923   1.914 -0.2146  0.3771 -0.0565
  518MOL0     C68285   5.084   4.847   1.884  1.3104 -0.1062  1.5843
  518MOL0     C68286   4.963   4.947   1.842 -0.2283 -0.2349 -0.2448
  518MOL0     C68287   4.820   4.874   1.832  0.0450  0.0766  0.1018
  518MOL0    Cl68288   4.808   4.775   1.676  0.2487 -0.4897 -0.0378
  518MOL0     C68289   5.937   5.137   1.870 -0.1652 -1.0816 -0.1626
  518MOL0     C68290   6.071   5.175   1.848 -1.2035  0.0941 -0.1711
  518MOL0     O68291   6.327   4.937   1.879  0.2791 -0.1887  0.3588
  518MOL0     C68292   6.596   4.933   1.823  0.9307  0.3611  0.5723
  518MOL0     C68293   6.733   4.932   1.798  0.4518  0.6985  0.0925
  518MOL0     N68294   7.491   5.409   1.810 -0.0539  0.0979  0.1195
  518MOL0     N68295   7.521   5.540   1.832 -0.3372  0.0956  0.4441
  518MOL0     C68296   8.453   6.220   1.591 -0.0367  0.3669 -0.1668
  518MOL0     C68297   8.570   6.258   1.665  0.7315 -0.1552 -0.4627
  518MOL0     C68298   8.942   6.262   1.912 -0.1803  0.1154 -0.2120
  518MOL0     C68299   8.990   6.148   1.981 -0.2210  0.4704 -0.7942
  518MOL0     C68300   9.082   6.166   2.083  0.4573 -0.3822 -0.0967
  518MOL0     C68301   9.131   6.295   2.126  0.6189 -0.0514 -0.7314
  518MOL0     O68302   9.222   6.314   2.234  0.5631 -0.3409  0.1962
  518MOL0     C68303   9.276   6.194   2.293 -0.5882 -0.4356  0.7564
  518MOL0     C68304   9.403   6.231   2.369 -0.3301  0.7590 -0.0486
  518MOL0     C68305   9.517   6.285   2.280  1.3529 -0.1592 -0.3699
  518MOL0     C68306   9.646   6.326   2.358  0.8819  0.1278 -0.7429
  518MOL0     C68307   9.745   6.371   2.271 -0.1286 -0.5823 -0.5713
  518MOL0     C68308   9.838   6.405   2.197  0.3209  0.0392  0.3525
  518MOL0     C68309   9.089   6.407   2.044  0.1301  0.4257  0.1768
  518MOL0     C68310   8.992   6.386   1.946 -0.2971 -0.9122 -0.1172
  518MOL0     H68311   8.615   5.966   1.831  0.3637  2.0650  1.4154
  518MOL0     H68312   8.402   5.901   1.672 -0.8869  0.9185 -1.2270
  518MOL0     H68313   8.350   5.870   1.477  0.1248  2.6440  3.4521
  518MOL0     H68314   8.274   5.945   1.336 -0.6071  0.0468  0.3176
  518MOL0     H68315   8.137   5.756   1.471  1.3968 -0.1074  1.1592
  518MOL0     H68316   8.058   5.894   1.396 -0.7244  1.3001  1.4054
  518MOL0     H68317   8.020   5.997   1.610 -2.4385 -0.2019  3.1333
  518MOL0     H68318   8.146   5.886   1.681 -0.8862 -1.8787  0.1368
  518MOL0     H68319   7.994   5.685   1.642 -1.0306 -0.8333  0.3442
  518MOL0     H68320   7.938   5.807   1.749  1.6164 -1.3051  0.6514
  518MOL0     H68321   7.828   5.765   1.471  1.9813 -2.0142  1.5200
  518MOL0     H68322   7.794   5.912   1.563  1.2141  0.0739  0.1417
  518MOL0     H68323   7.717   5.812   1.758 -2.4090 -0.0498  0.6396
  518MOL0     H68324   7.722   5.652   1.684  1.9445 -0.7759 -0.5510
  518MOL0     H68325   7.571   5.896   1.599 -1.4654 -0.8275 -0.5003
  518MOL0     H68326   7.538   5.730   1.527  0.4745 -1.3790 -1.0805
  518MOL0     H68327   7.369   5.796   1.688 -1.4335 -4.0552 -1.5274
  518MOL0     H68328   7.497   5.812   1.813 -0.4785 -1.0123  1.5081
  518MOL0     H68329   7.312   5.572   1.592 -0.1736 -1.8307 -0.9313
  518MOL0     H68330   7.363   5.196   1.715  1.6929  0.1889  0.3734
  518MOL0     H68331   7.374   5.247   1.559 -0.4785  1.6441 -0.4549
  518MOL0     H68332   7.167   5.327   1.534 -1.4704 -0.0036 -0.1289
  518MOL0     H68333   7.152   5.368   1.704 -0.2096  2.2202 -3.3101
  518MOL0     H68334   7.166   5.097   1.566  1.5382  0.0191  0.9300
  518MOL0     H68335   7.161   5.096   1.751  0.3832  2.8951  2.8003
  518MOL0     H68336   6.952   5.184   1.550  1.3074  1.3155  0.1500
  518MOL0     H68337   6.966   5.242   1.716  2.6066 -0.2538  0.5913
  518MOL0     H68338   6.737   5.236   1.644 -3.5697  2.3602  1.4740
  518MOL0     H68339   6.509   5.223   1.687 -0.3646  0.4061  1.7971
  518MOL0     H68340   6.123   4.933   1.612 -2.0676 -0.9797 -0.7204
  518MOL0     H68341   5.904   4.862   1.669 -2.1691  0.2052  0.8404
  518MOL0     H68342   5.680   5.098   1.665  0.5889 -1.3367 -0.7947
  518MOL0     H68343   5.623   5.144   1.823  3.2810 -1.1588  2.9777
  518MOL0     H68344   5.544   4.877   1.698  3.0377  0.7754 -0.0403
  518MOL0     H68345   5.448   5.029   1.689  1.3700  0.2717 -0.4870
  518MOL0     H68346   5.421   5.034   1.922  1.2988  0.6485 -1.1111
  518MOL0     H68347   5.536   4.910   1.951  0.3363  0.6080  0.7906
  518MOL0     H68348   5.335   4.801   1.767  1.4622  0.9184  0.2887
  518MOL0     H68349   5.343   4.770   1.948  1.0462  0.0701  0.3905
  518MOL0     H68350   5.210   5.024   1.872 -1.1785 -0.7308 -2.9611
  518MOL0     H68351   5.209   4.936   2.023 -2.5182 -1.6850  0.2505
  518MOL0     H68352   5.059   4.784   1.970  2.0168 -1.3299  0.9166
  518MOL0     H68353   5.099   4.781   1.798 -0.5784  1.7918 -0.3100
  518MOL0     H68354   4.954   5.022   1.921 -2.4198 -0.3744 -0.3048
  518MOL0     H68355   4.977   4.995   1.745 -0.1366  1.6831  0.6649
  518MOL0     H68356   4.740   4.948   1.829 -1.3338 -1.3934 -1.9162
  518MOL0     H68357   4.800   4.806   1.915  0.1976  0.0433  0.1117
  518MOL0     H68358   5.894   5.203   1.945  1.8213 -0.8788  0.8659
  518MOL0     H68359   6.124   5.255   1.899 -0.4012  0.5434 -1.6412
  518MOL0     H68360   6.554   4.846   1.873  2.6997 -2.3565 -2.3267
  518MOL0     H68361   6.803   4.855   1.829  0.0898  1.1771  2.2953
  518MOL0     H68362   8.419   6.287   1.513  1.6116 -0.1034 -1.3293
  518MOL0     H68363   8.613   6.357   1.654  1.1297 -0.3258 -0.4682
  518MOL0     H68364   8.956   6.048   1.957 -3.2588  1.4047 -0.8121
  518MOL0     H68365   9.120   6.080   2.136 -3.0056 -2.1645 -0.2308
  518MOL0     H68366   9.306   6.127   2.212  0.7116  1.4012 -0.3910
  518MOL0     H68367   9.208   6.139   2.358 -1.1231 -1.6778 -0.7893
  518MOL0     H68368   9.372   6.296   2.451  0.6163  2.5376 -1.0526
  518MOL0     H68369   9.441   6.136   2.407 -2.7773 -0.0244  0.5821
  518MOL0     H68370   9.472   6.370   2.228 -0.6200 -0.7313  0.3225
  518MOL0     H68371   9.543   6.207   2.209  1.8952 -1.9176  1.6401
  518MOL0     H68372   9.625   6.400   2.436 -3.6788 -1.9850  0.4203
  518MOL0     H68373   9.692   6.248   2.420 -2.5261 -0.5761  1.2011
  518MOL0     H68374   9.917   6.448   2.138  0.8401  1.4609  2.0233
  518MOL0     H68375   9.111   6.513   2.054  2.6098  0.3397 -2.7546
  518MOL0     H68376   8.968   6.472   1.885 -0.6628 -0.3484  0.8116
  519MOL0     O68377   3.268   7.644   3.639 -0.2993 -0.4722  0.5872
  519MOL0     C68378   3.255   7.538   3.575 -0.3368 -0.7204  0.4030
  519MOL0     O68379   3.175   7.517   3.460  0.2303 -0.0140 -0.0806
  519MOL0     C68380   3.097   7.621   3.423 -0.2582  0.3514  0.5397
  519MOL0     C68381   3.144   7.714   3.334 -0.4801  0.2370  0.4213
  519MOL0     C68382   3.066   7.829   3.293  0.3909 -0.2213 -0.3534
  519MOL0     C68383   2.936   7.851   3.340 -0.3189  0.3178 -0.1348
  519MOL0     O68384   2.867   7.964   3.316  0.2967 -0.4779 -0.0847
  519MOL0     C68385   2.824   8.023   3.439  0.6140  1.1777  0.2247
  519MOL0     C68386   2.682   8.078   3.420 -0.7715  0.4170 -0.4492
  519MOL0     C68387   2.635   8.182   3.518 -0.3086  0.3458 -0.0375
  519MOL0     C68388   2.636   8.151   3.672  0.2426  0.3673  0.8920
  519MOL0     C68389   2.517   8.068   3.718  0.3020  0.0783  0.1948
  519MOL0     C68390   2.380   8.149   3.716 -0.2673  0.3359  0.6878
  519MOL0     C68391   2.265   8.053   3.704  0.6732  1.0345 -0.1550
  519MOL0     C68392   2.251   7.945   3.815 -0.4287 -1.2515  0.6959
  519MOL0     N68393   2.264   8.014   3.950  0.2734  0.8364  0.0637
  519MOL0     C68394   2.191   8.123   4.001 -0.2893 -0.2915 -0.8841
  519MOL0     C68395   2.251   8.152   4.119  0.1633 -0.1679  0.3970
  519MOL0     C68396   2.217   8.267   4.207 -0.5435 -0.6181 -0.1140
  519MOL0     C68397   2.226   8.224   4.352  0.2344  0.2138 -0.4163
  519MOL0     C68398   2.130   8.096   4.388 -0.0307  0.2077  0.6842
  519MOL0     C68399   2.098   8.068   4.534 -0.8969 -0.1612  0.0269
  519MOL0     O68400   2.021   7.945   4.532  0.3256 -0.5019  0.4104
  519MOL0     C68401   1.887   7.947   4.501 -0.5043 -1.1121 -0.1957
  519MOL0     C68402   1.815   8.062   4.472  0.4411 -0.8408  0.1308
  519MOL0     C68403   1.674   8.074   4.454  0.4265 -0.1968 -0.3250
  519MOL0     C68404   1.596   7.959   4.465  0.8210  0.4833  0.3123
  519MOL0     C68405   1.448   7.955   4.439  0.7858  0.4430  0.9669
  519MOL0     O68406   1.392   8.079   4.426 -0.5584 -0.0894 -0.4819
  519MOL0     C68407   1.264   8.114   4.408  1.0995  0.4843  0.4815
  519MOL0     C68408   1.162   8.047   4.476  0.7650 -0.0434 -0.0513
  519MOL0     C68409   1.028   8.087   4.479 -0.4334  0.5169 -0.0429
  519MOL0     C68410   1.007   8.222   4.431  0.3998  0.9953 -0.2412
  519MOL0     O68411   0.871   8.252   4.432  0.3245 -0.2311  0.2182
  519MOL0     C68412   0.827   8.390   4.424 -0.2326 -0.2422 -0.1175
  519MOL0     C68413   0.835   8.466   4.564 -0.2851  0.1471  0.1726
  519MOL0     C68414   0.720   8.409   4.654 -0.1914  0.2577 -0.6520
  519MOL0     C68415   0.704   8.493   4.779  0.6904 -0.0342 -0.3405
  519MOL0     C68416   0.609   8.429   4.875  0.0017 -0.0835 -0.7616
  519MOL0     C68417   0.467   8.395   4.824 -0.3290 -0.2186  0.1781
  519MOL0     C68418   0.372   8.520   4.779 -0.1132  0.0886  0.4178
  519MOL0     C68419   0.246   8.527   4.869 -0.0472  0.0150 -1.0344
  519MOL0    Cl68420   0.106   8.629   4.809  0.3748 -0.4089  0.3104
  519MOL0     C68421   1.114   8.296   4.368 -0.3439  0.1864 -0.5598
  519MOL0     C68422   1.238   8.237   4.357 -0.1792 -0.5145 -0.4170
  519MOL0     O68423   1.380   7.846   4.432 -0.4078  0.0181 -0.6036
  519MOL0     C68424   1.670   7.834   4.491 -0.7006 -0.1293 -0.2166
  519MOL0     C68425   1.813   7.830   4.512  0.3673  0.1892  0.4150
  519MOL0     N68426   2.359   8.067   4.137 -0.4226  0.0112  0.1788
  519MOL0     N68427   2.365   7.984   4.033 -1.0667  0.5665 -0.3238
  519MOL0     C68428   2.884   7.742   3.413 -0.0258 -0.3649  0.1759
  519MOL0     C68429   2.962   7.637   3.455  0.3958 -0.6774  0.0246
  519MOL0     C68430   3.350   7.438   3.598  0.1722  0.6610 -0.0545
  519MOL0     C68431   3.345   7.318   3.526 -0.2315 -0.1240  0.0201
  519MOL0     C68432   3.441   7.217   3.556 -0.2325 -0.0752  0.1348
  519MOL0     C68433   3.533   7.230   3.658 -0.8004 -0.1087  1.0175
  519MOL0     O68434   3.628   7.136   3.683 -0.0055 -0.0973  0.3022
  519MOL0     C68435   3.600   7.002   3.660 -0.0178 -0.1665 -0.1529
  519MOL0     C68436   3.732   6.926   3.686 -0.0076  0.2674  0.4021
  519MOL0     C68437   3.761   6.924   3.834  0.2596  0.3562 -0.2694
  519MOL0     C68438   3.883   6.836   3.878 -0.4406 -0.3617  0.3457
  519MOL0     C68439   4.008   6.903   3.840  0.3714 -0.7768 -0.7719
  519MOL0     C68440   4.100   6.975   3.817 -0.5358  0.5416 -0.9695
  519MOL0     C68441   3.538   7.344   3.728 -0.1029 -0.5291 -0.5440
  519MOL0     C68442   3.450   7.453   3.698  0.2993 -0.4637  0.0003
  519MOL0     H68443   3.242   7.696   3.290 -1.2525  0.3374 -1.4148
  519MOL0     H68444   3.115   7.893   3.219  0.4093  1.2569  0.8990
  519MOL0     H68445   2.892   8.107   3.460  0.3344  1.6241 -0.6081
  519MOL0     H68446   2.832   7.954   3.523  1.9095 -1.2621 -1.8017
  519MOL0     H68447   2.617   7.991   3.404  2.4078 -1.9598 -1.3242
  519MOL0     H68448   2.689   8.120   3.319  2.5241 -1.5340 -1.1591
  519MOL0     H68449   2.543   8.222   3.473 -1.6800 -0.4227  1.9364
  519MOL0     H68450   2.715   8.256   3.508  1.6079 -1.7426 -0.7635
  519MOL0     H68451   2.729   8.101   3.700  0.0593  1.6195  4.2121
  519MOL0     H68452   2.635   8.248   3.722  1.3716  1.1938 -0.6274
  519MOL0     H68453   2.537   8.030   3.818  4.8789 -4.2865 -1.9781
  519MOL0     H68454   2.519   7.981   3.652  2.0190 -0.2558  0.6361
  519MOL0     H68455   2.370   8.219   3.633 -2.7132  1.2110  1.6153
  519MOL0     H68456   2.380   8.204   3.811  3.3157 -1.9406  2.2141
  519MOL0     H68457   2.170   8.107   3.702  0.0465 -0.0551 -1.5896
  519MOL0     H68458   2.280   8.011   3.604  3.3637  0.9886  0.1989
  519MOL0     H68459   2.334   7.881   3.784  1.6155  1.3966  0.2922
  519MOL0     H68460   2.152   7.901   3.805 -1.4701  0.8093  1.4043
  519MOL0     H68461   2.113   8.183   3.955 -0.4443  0.5331  0.3931
  519MOL0     H68462   2.116   8.303   4.185  0.5211  1.1032 -2.6737
  519MOL0     H68463   2.284   8.353   4.195  0.8970 -1.6541  0.2612
  519MOL0     H68464   2.191   8.306   4.415  2.7128 -0.6662  2.3487
  519MOL0     H68465   2.326   8.194   4.384  0.2857 -1.8980 -2.2972
  519MOL0     H68466   2.043   8.107   4.323 -0.4752 -1.3250  0.9952
  519MOL0     H68467   2.184   8.008   4.352  0.2247 -0.2034  2.0284
  519MOL0     H68468   2.044   8.151   4.581  0.8486 -0.8516  3.5834
  519MOL0     H68469   2.190   8.055   4.591 -1.3296  0.6288  0.9351
  519MOL0     H68470   1.865   8.158   4.471  1.7139 -1.4789 -0.9862
  519MOL0     H68471   1.644   8.175   4.431 -1.9881 -1.2663 -2.2842
  519MOL0     H68472   1.179   7.957   4.535 -1.2921  0.5305  1.5656
  519MOL0     H68473   0.949   8.026   4.521  0.2260  0.2921  0.8914
  519MOL0     H68474   0.722   8.390   4.392 -1.1355  0.9518  2.5454
  519MOL0     H68475   0.888   8.442   4.349  1.8228 -0.3704  1.3843
  519MOL0     H68476   0.824   8.574   4.558  2.0057  0.3511 -3.2401
  519MOL0     H68477   0.937   8.448   4.599 -0.4643  1.7953  1.7113
  519MOL0     H68478   0.737   8.302   4.673 -1.9287  0.3691  2.1626
  519MOL0     H68479   0.630   8.411   4.592  0.4755 -2.3538 -1.8723
  519MOL0     H68480   0.797   8.515   4.832  1.0112 -0.1597 -0.8534
  519MOL0     H68481   0.662   8.590   4.750  1.9809  0.5721 -0.2647
  519MOL0     H68482   0.596   8.498   4.959  1.0396 -1.0859  0.2510
  519MOL0     H68483   0.649   8.334   4.910  2.2155  1.3325  0.8378
  519MOL0     H68484   0.425   8.338   4.907 -1.9883  1.1844  0.3848
  519MOL0     H68485   0.471   8.321   4.744  0.9232  1.1915 -1.1165
  519MOL0     H68486   0.414   8.621   4.777  2.5366 -0.7236  3.8004
  519MOL0     H68487   0.348   8.487   4.677 -1.7341  1.5146  0.3101
  519MOL0     H68488   0.265   8.569   4.968 -1.3628 -0.3598 -0.6144
  519MOL0     H68489   0.201   8.429   4.880  0.5014  0.0650  3.1508
  519MOL0     H68490   1.075   8.383   4.317 -0.1958 -0.0652 -1.1038
  519MOL0     H68491   1.315   8.288   4.300 -2.1519  1.4685 -1.4412
  519MOL0     H68492   1.612   7.743   4.498  1.2429 -1.8679 -3.9163
  519MOL0     H68493   1.856   7.735   4.541 -1.6659 -2.2380 -3.7047
  519MOL0     H68494   2.780   7.758   3.440  0.3865 -1.2051  2.5095
  519MOL0     H68495   2.924   7.552   3.511 -1.3170  0.7280  1.1152
  519MOL0     H68496   3.286   7.283   3.442 -2.2772 -3.2814  2.5412
  519MOL0     H68497   3.438   7.131   3.490  2.1106 -0.3334  0.2728
  519MOL0     H68498   3.575   6.978   3.557  1.2918  0.3622 -0.6138
  519MOL0     H68499   3.519   6.975   3.729  0.3042  3.0132  1.6600
  519MOL0     H68500   3.728   6.829   3.637  1.4705  0.6842 -0.6120
  519MOL0     H68501   3.811   6.981   3.634  1.5961  1.1243  3.4665
  519MOL0     H68502   3.673   6.871   3.871  0.0458  2.4686  2.6454
  519MOL0     H68503   3.763   7.025   3.875  0.5196  0.4961 -0.6225
  519MOL0     H68504   3.882   6.818   3.985 -0.0559  0.1764  0.4480
  519MOL0     H68505   3.878   6.738   3.831  0.5010 -0.3332  0.1694
  519MOL0     H68506   4.187   7.033   3.795  0.5403 -0.4635  0.4707
  519MOL0     H68507   3.607   7.340   3.811 -1.1254 -1.2803  0.2929
  519MOL0     H68508   3.462   7.539   3.764  1.1095  0.7656 -1.6687
  520MOL0     O68509  11.249   2.488   4.413 -0.1189 -0.8026  0.0136
  520MOL0     C68510  11.289   2.544   4.314 -0.8802 -0.8438  0.4606
  520MOL0     O68511  11.203   2.591   4.220 -0.1807 -0.0947 -0.3357
  520MOL0     C68512  11.076   2.627   4.258  0.4733  1.1137 -0.6209
  520MOL0     C68513  11.058   2.696   4.376  0.0870 -0.2154  0.2911
  520MOL0     C68514  10.932   2.743   4.414  0.8363 -0.7958  0.2688
  520MOL0     C68515  10.819   2.715   4.330 -0.4904 -0.4538 -0.2984
  520MOL0     O68516  10.691   2.735   4.381 -0.1602  0.0758 -0.0376
  520MOL0     C68517  10.663   2.877   4.420 -1.1905 -0.2755 -0.1274
  520MOL0     C68518  10.510   2.881   4.417 -0.1671 -0.3866  0.2638
  520MOL0     C68519  10.453   2.848   4.552  0.5895  0.0093  0.0559
  520MOL0     C68520  10.297   2.823   4.545  0.6067  0.3270 -0.0585
  520MOL0     C68521  10.238   2.792   4.678 -0.5741  0.0698  0.2825
  520MOL0     C68522  10.101   2.736   4.644 -0.5905  0.3491 -0.6255
  520MOL0     C68523  10.006   2.701   4.763 -0.4920  0.3723  0.0480
  520MOL0     C68524   9.871   2.642   4.709  0.2855 -0.5309  0.2244
  520MOL0     N68525   9.754   2.623   4.801  0.0402  0.0636  0.5643
  520MOL0     C68526   9.651   2.712   4.809  0.1162 -0.5275 -0.6436
  520MOL0     C68527   9.540   2.641   4.856 -0.1733  0.1265 -0.8008
  520MOL0     C68528   9.402   2.691   4.898 -0.2459  0.2363  0.8080
  520MOL0     C68529   9.285   2.677   4.793  0.0455  0.6713 -0.1961
  520MOL0     C68530   9.280   2.524   4.756 -0.6436 -0.4796 -0.1998
  520MOL0     C68531   9.146   2.512   4.687 -1.0062  0.0970  0.2694
  520MOL0     O68532   9.048   2.521   4.791 -0.8027  0.9705 -0.1204
  520MOL0     C68533   8.916   2.548   4.749 -0.9026  0.4858 -0.8474
  520MOL0     C68534   8.872   2.545   4.624  0.0530  0.0384 -0.2110
  520MOL0     C68535   8.743   2.571   4.587  0.3885  0.0283  0.5178
  520MOL0     C68536   8.646   2.593   4.684  0.9863  0.3128 -0.4238
  520MOL0     C68537   8.502   2.605   4.646  0.3035 -0.1266 -0.4732
  520MOL0     O68538   8.399   2.639   4.742  0.0951  0.9845  0.1556
  520MOL0     C68539   8.259   2.635   4.721 -0.0085  0.7478 -0.2609
  520MOL0     C68540   8.190   2.603   4.605 -0.1310  1.0878  0.4704
  520MOL0     C68541   8.053   2.602   4.592  0.6125 -0.0593  0.0443
  520MOL0     C68542   7.974   2.628   4.707 -0.0360  0.5853 -0.4774
  520MOL0     O68543   7.838   2.627   4.700 -0.4701 -0.2043 -0.4281
  520MOL0     C68544   7.780   2.505   4.654  0.5544 -0.4212  0.5177
  520MOL0     C68545   7.647   2.495   4.732  0.0090 -0.4212  0.0075
  520MOL0     C68546   7.556   2.386   4.661  0.0283 -0.5911  0.6536
  520MOL0     C68547   7.419   2.393   4.728 -0.0653  0.7967  0.0141
  520MOL0     C68548   7.309   2.374   4.624  0.1980 -0.6497 -0.6252
  520MOL0     C68549   7.166   2.366   4.682  1.3473 -0.2563  0.4211
  520MOL0     C68550   7.149   2.242   4.779 -0.2521 -0.5477  0.4174
  520MOL0     C68551   7.004   2.221   4.819 -0.1249  0.1511  0.4012
  520MOL0    Cl68552   6.930   2.366   4.901  0.1330 -0.0077  0.5017
  520MOL0     C68553   8.042   2.655   4.826  0.9436 -0.8588  1.2487
  520MOL0     C68554   8.181   2.656   4.830  0.1077  0.1572  0.1271
  520MOL0     O68555   8.479   2.587   4.530 -0.1071 -0.1876  0.4124
  520MOL0     C68556   8.686   2.598   4.817 -0.2688  0.3322 -0.9583
  520MOL0     C68557   8.822   2.587   4.847  0.3530 -0.4693  0.4783
  520MOL0     N68558   9.591   2.517   4.879  0.1390 -0.3024 -0.4059
  520MOL0     N68559   9.706   2.502   4.841 -0.8892 -0.2848 -0.0429
  520MOL0     C68560  10.835   2.650   4.205 -1.0170  0.1131 -0.4287
  520MOL0     C68561  10.963   2.604   4.179  1.1343  1.1724  0.3774
  520MOL0     C68562  11.438   2.563   4.288  0.9723 -0.8345  0.1562
  520MOL0     C68563  11.528   2.544   4.389  0.2904 -0.1422  1.0478
  520MOL0     C68564  11.660   2.549   4.364 -0.7994  1.1517 -0.7584
  520MOL0     C68565  11.713   2.580   4.239  0.7237  0.4983 -0.6486
  520MOL0     O68566  11.845   2.613   4.226 -0.2435  0.3814 -0.8396
  520MOL0     C68567  11.894   2.690   4.118 -0.9827  0.0163  0.2275
  520MOL0     C68568  12.038   2.734   4.140  0.9278 -0.0120 -0.2075
  520MOL0     C68569  12.141   2.625   4.154 -1.5306  0.0815 -0.4151
  520MOL0     C68570  12.277   2.682   4.185  0.1821  0.0760 -1.2470
  520MOL0     C68571  12.369   2.577   4.227  0.2624  0.0283 -0.4271
  520MOL0     C68572  12.464   2.505   4.257  0.2619  0.7619 -1.1294
  520MOL0     C68573  11.626   2.581   4.136  0.6981 -1.1179 -0.4394
  520MOL0     C68574  11.490   2.568   4.161  0.3105  0.3809 -0.2266
  520MOL0     H68575  11.152   2.721   4.424 -0.2379 -0.6693  1.1870
  520MOL0     H68576  10.910   2.790   4.509 -1.4042 -2.2547  0.5161
  520MOL0     H68577  10.709   2.936   4.341  0.6167 -1.0849  0.2703
  520MOL0     H68578  10.709   2.898   4.517 -0.2580 -3.4641  0.2254
  520MOL0     H68579  10.475   2.820   4.333 -2.0051  1.3201 -0.3150
  520MOL0     H68580  10.477   2.982   4.391 -0.8884 -0.8983 -0.9180
  520MOL0     H68581  10.478   2.923   4.628  2.7036 -0.4651 -0.1071
  520MOL0     H68582  10.488   2.754   4.596  2.1309  1.2024  1.5362
  520MOL0     H68583  10.243   2.908   4.505 -1.9915 -0.5250  1.3922
  520MOL0     H68584  10.275   2.754   4.463  3.3031 -0.0022 -0.5989
  520MOL0     H68585  10.235   2.883   4.739  2.3640 -0.2173  1.0272
  520MOL0     H68586  10.306   2.716   4.719  0.8727  0.7536 -0.7567
  520MOL0     H68587  10.111   2.645   4.583  0.5326  0.4298 -0.5963
  520MOL0     H68588  10.057   2.815   4.584 -1.6340  0.6727  0.5289
  520MOL0     H68589  10.047   2.619   4.823 -0.8145  0.2063  0.0403
  520MOL0     H68590  10.002   2.795   4.819  2.4980 -0.1984  1.4380
  520MOL0     H68591   9.883   2.551   4.649  1.1661  0.5811 -1.3408
  520MOL0     H68592   9.832   2.705   4.629 -1.0175 -1.1454  0.3420
  520MOL0     H68593   9.639   2.810   4.766 -0.3821 -0.3966 -0.2169
  520MOL0     H68594   9.410   2.796   4.928  1.5582  1.0950 -2.2026
  520MOL0     H68595   9.367   2.629   4.981 -0.9117 -0.3134  0.1336
  520MOL0     H68596   9.312   2.738   4.706 -0.6755  1.8055  0.3379
  520MOL0     H68597   9.192   2.711   4.839 -0.6376 -1.9026  0.4629
  520MOL0     H68598   9.356   2.489   4.685 -0.8722 -2.5341  0.5045
  520MOL0     H68599   9.275   2.459   4.844 -1.1444 -0.0738  0.0738
  520MOL0     H68600   9.139   2.410   4.647  1.1138  0.8012 -2.1477
  520MOL0     H68601   9.127   2.584   4.607 -4.9532  0.8888  1.6727
  520MOL0     H68602   8.934   2.519   4.538 -1.6806 -0.6370 -1.3070
  520MOL0     H68603   8.714   2.563   4.483 -0.4044 -3.4177  0.8569
  520MOL0     H68604   8.237   2.576   4.511  3.5125  5.1960  0.8065
  520MOL0     H68605   8.006   2.579   4.497  1.1295  0.7026 -0.4095
  520MOL0     H68606   7.846   2.419   4.672  0.2131 -0.7070  0.4097
  520MOL0     H68607   7.762   2.520   4.547  0.6450  2.0162  0.7969
  520MOL0     H68608   7.584   2.583   4.721 -3.4790 -2.9363 -2.4281
  520MOL0     H68609   7.659   2.480   4.840  3.1903 -0.6202 -0.2579
  520MOL0     H68610   7.593   2.284   4.676 -1.0821 -0.9641  0.9658
  520MOL0     H68611   7.546   2.399   4.552 -3.1587 -0.7782  0.8312
  520MOL0     H68612   7.418   2.317   4.807  2.7557  1.4667  0.7991
  520MOL0     H68613   7.394   2.485   4.781  1.5958  2.3654 -1.7930
  520MOL0     H68614   7.334   2.280   4.574 -0.5033 -0.8212 -0.6611
  520MOL0     H68615   7.325   2.454   4.551  2.0744  0.3100  0.7360
  520MOL0     H68616   7.102   2.337   4.598 -0.3188  1.8865  0.8580
  520MOL0     H68617   7.126   2.457   4.726 -1.6106 -0.2884 -1.8197
  520MOL0     H68618   7.184   2.157   4.719 -0.1816 -0.4703  0.3484
  520MOL0     H68619   7.213   2.255   4.867  1.0916  0.4693 -0.6541
  520MOL0     H68620   6.997   2.141   4.894 -0.2715  0.7664  1.0600
  520MOL0     H68621   6.939   2.184   4.740  0.4816 -1.8534  0.7592
  520MOL0     H68622   7.984   2.701   4.905  1.5398  1.3303  0.4865
  520MOL0     H68623   8.225   2.688   4.923 -0.0249 -0.7933  0.5286
  520MOL0     H68624   8.616   2.617   4.898  2.4667  0.3267  1.5723
  520MOL0     H68625   8.864   2.594   4.946  2.0973 -0.0332 -0.2468
  520MOL0     H68626  10.742   2.658   4.149 -1.5785  3.1067  0.7244
  520MOL0     H68627  10.992   2.551   4.089  3.7084  1.7367  0.8043
  520MOL0     H68628  11.502   2.532   4.494 -2.1933  4.7826  1.2922
  520MOL0     H68629  11.729   2.536   4.447 -1.9772  0.6162  0.1837
  520MOL0     H68630  11.829   2.776   4.101  3.1674  3.5380  0.2172
  520MOL0     H68631  11.896   2.625   4.031  1.1583 -0.2191  0.3815
  520MOL0     H68632  12.060   2.783   4.045  1.9565 -2.0015 -1.0407
  520MOL0     H68633  12.037   2.806   4.222  0.9385 -0.6339  0.3511
  520MOL0     H68634  12.152   2.576   4.057 -1.6107  3.9883 -2.6094
  520MOL0     H68635  12.104   2.553   4.228  2.1870 -1.5585  0.0471
  520MOL0     H68636  12.314   2.734   4.096 -1.3057 -0.1503 -2.0314
  520MOL0     H68637  12.261   2.754   4.266  0.8790  1.9757 -2.7232
  520MOL0     H68638  12.551   2.450   4.284 -1.2721 -0.1915  2.4601
  520MOL0     H68639  11.658   2.608   4.036 -1.5724 -0.8513 -1.1583
  520MOL0     H68640  11.415   2.560   4.084  1.7598 -1.6469 -1.5182
  521MOL0     O68641   1.191   2.123   1.751  0.0937  0.1597 -0.4231
  521MOL0     C68642   1.218   2.165   1.862  0.1216 -0.0693 -1.1612
  521MOL0     O68643   1.141   2.226   1.945  0.3065 -0.2611 -0.1799
  521MOL0     C68644   1.008   2.244   1.934 -1.4409 -0.9851  1.1672
  521MOL0     C68645   0.958   2.370   1.962 -0.3850  0.0428 -0.9369
  521MOL0     C68646   0.821   2.391   1.980  0.4827  0.3913  1.1560
  521MOL0     C68647   0.734   2.294   1.943  0.3930 -0.1143  0.1528
  521MOL0     O68648   0.593   2.303   1.959 -0.8702 -0.2111  1.0577
  521MOL0     C68649   0.525   2.426   1.949 -0.2176  0.0429 -0.1160
  521MOL0     C68650   0.388   2.411   2.004 -0.9250 -0.2822  0.0679
  521MOL0     C68651   0.305   2.314   1.930 -0.7302  0.1119 -1.0921
  521MOL0     C68652   0.148   2.313   1.988  0.3502  0.3140 -0.9734
  521MOL0     C68653   0.044   2.249   1.893  0.4232  0.6599 -0.3599
  521MOL0     C68654  -0.095   2.305   1.926 -0.5388  0.0849 -0.3384
  521MOL0     C68655  -0.217   2.245   1.848 -0.3932 -1.4085 -0.1329
  521MOL0     C68656  -0.335   2.339   1.847  0.1705  0.3129  0.5339
  521MOL0     N68657  -0.462   2.307   1.785  0.6320  0.0137 -0.0718
  521MOL0     C68658  -0.548   2.396   1.731  0.2235  0.7296  0.5137
  521MOL0     C68659  -0.643   2.320   1.671 -0.1349  0.2673  0.8233
  521MOL0     C68660  -0.757   2.369   1.586 -0.5020 -0.6883 -0.0721
  521MOL0     C68661  -0.889   2.384   1.665 -0.0357 -0.0074  0.5394
  521MOL0     C68662  -0.884   2.485   1.775  0.0826  0.5029 -0.5617
  521MOL0     C68663  -1.006   2.464   1.866  0.0016 -0.0005 -0.7564
  521MOL0     O68664  -0.998   2.336   1.930  0.2615  0.1285 -0.4459
  521MOL0     C68665  -1.109   2.301   2.005  0.5531 -0.0113 -0.3655
  521MOL0     C68666  -1.104   2.174   2.059 -0.1990  0.0515  0.8085
  521MOL0     C68667  -1.206   2.122   2.127 -0.4617  0.4705  0.0024
  521MOL0     C68668  -1.325   2.183   2.136  0.4405  0.2521 -0.0181
  521MOL0     C68669  -1.433   2.112   2.208 -0.0120  0.1545 -0.3019
  521MOL0     O68670  -1.399   2.062   2.328  0.2603  0.4684 -0.2472
  521MOL0     C68671  -1.501   2.005   2.399  0.3544 -0.1513 -0.0071
  521MOL0     C68672  -1.543   2.059   2.522  0.3977 -0.4173  0.1186
  521MOL0     C68673  -1.638   1.996   2.604 -0.6645  0.4779  0.2531
  521MOL0     C68674  -1.702   1.872   2.563 -0.8680  0.2117 -0.2520
  521MOL0     O68675  -1.802   1.814   2.638 -0.5686 -0.2774  0.2838
  521MOL0     C68676  -1.928   1.783   2.566  0.0164 -0.3941  0.3741
  521MOL0     C68677  -2.060   1.800   2.653 -0.0312  0.0061  0.0494
  521MOL0     C68678  -2.185   1.741   2.591  0.7312  0.0907 -0.2698
  521MOL0     C68679  -2.308   1.787   2.678 -0.2516 -0.1120  0.4308
  521MOL0     C68680  -2.433   1.705   2.657  0.0194 -0.0060 -0.0246
  521MOL0     C68681  -2.479   1.683   2.511  0.3707 -0.0466 -0.4339
  521MOL0     C68682  -2.615   1.604   2.520  0.1390  0.2132  0.5601
  521MOL0     C68683  -2.724   1.666   2.431 -0.0209 -0.2747  0.3411
  521MOL0    Cl68684  -2.670   1.662   2.256 -0.0477  0.4586  0.0121
  521MOL0     C68685  -1.662   1.819   2.439 -0.0864  0.6483  0.7991
  521MOL0     C68686  -1.555   1.879   2.365 -0.5419  0.1604  0.8146
  521MOL0     O68687  -1.548   2.129   2.158  0.1352  0.4488  0.1967
  521MOL0     C68688  -1.339   2.316   2.083 -0.4947 -0.2752  0.0931
  521MOL0     C68689  -1.230   2.379   2.011  0.5796 -0.2790 -0.1199
  521MOL0     N68690  -0.609   2.183   1.703  0.3123  0.2109 -0.4142
  521MOL0     N68691  -0.499   2.180   1.763 -1.2085 -0.7301  0.1189
  521MOL0     C68692   0.783   2.165   1.897 -0.5270 -0.2146  0.3731
  521MOL0     C68693   0.925   2.139   1.893 -0.2950 -0.0838  0.2417
  521MOL0     C68694   1.350   2.130   1.907 -0.9348  0.8793 -0.0793
  521MOL0     C68695   1.424   2.033   1.833 -0.2580  0.1027 -0.3392
  521MOL0     C68696   1.559   2.005   1.866  0.5745 -0.2932  0.6365
  521MOL0     C68697   1.621   2.075   1.973 -0.4182 -0.7681  0.0403
  521MOL0     O68698   1.755   2.040   1.999  0.2584 -0.6265 -0.3056
  521MOL0     C68699   1.824   2.140   2.075 -0.4570  0.5061 -0.2635
  521MOL0     C68700   1.815   2.104   2.224 -0.5584  0.1701 -0.2223
  521MOL0     C68701   1.935   2.171   2.299  0.3308 -1.3968 -0.3714
  521MOL0     C68702   1.957   2.094   2.439  1.0304  0.3255 -0.1250
  521MOL0     C68703   1.877   2.148   2.549 -0.4123  0.1694  0.6464
  521MOL0     C68704   1.810   2.187   2.646  1.2738  0.5082 -0.2491
  521MOL0     C68705   1.543   2.173   2.047 -0.1856  0.3352 -0.0710
  521MOL0     C68706   1.414   2.197   2.010 -0.6877 -0.1620 -0.2129
  521MOL0     H68707   1.039   2.439   1.983  0.8997 -1.4574 -0.7981
  521MOL0     H68708   0.775   2.480   2.023 -2.1504 -0.1810 -0.2773
  521MOL0     H68709   0.521   2.451   1.843  0.3790  1.2870  0.1419
  521MOL0     H68710   0.575   2.508   2.002 -2.4437  0.7060  1.1132
  521MOL0     H68711   0.339   2.508   2.014  0.2036  0.0953  2.8924
  521MOL0     H68712   0.394   2.362   2.102 -0.9389 -2.0569 -0.7760
  521MOL0     H68713   0.345   2.213   1.941 -2.8618 -0.5657  1.6009
  521MOL0     H68714   0.320   2.335   1.824 -0.3214 -2.5847 -1.6602
  521MOL0     H68715   0.140   2.264   2.085  1.4950  2.4207  0.2460
  521MOL0     H68716   0.121   2.418   1.992 -1.5952 -0.1882  0.6750
  521MOL0     H68717   0.055   2.142   1.914  1.6163  0.9700  0.7420
  521MOL0     H68718   0.077   2.278   1.793 -2.0275  4.2430 -0.3398
  521MOL0     H68719  -0.089   2.413   1.906  2.8155 -0.3352 -2.2608
  521MOL0     H68720  -0.111   2.294   2.034  0.9605  0.6839 -0.0402
  521MOL0     H68721  -0.190   2.240   1.742  1.1795 -1.4002  0.2516
  521MOL0     H68722  -0.232   2.144   1.886  4.0106 -2.8512 -1.6607
  521MOL0     H68723  -0.301   2.430   1.796  0.3968 -0.3385 -0.5129
  521MOL0     H68724  -0.353   2.359   1.953 -1.6053  0.5457  0.2251
  521MOL0     H68725  -0.543   2.504   1.729  0.4363  0.7154 -0.6175
  521MOL0     H68726  -0.775   2.305   1.498 -2.5718  1.5983 -1.4505
  521MOL0     H68727  -0.731   2.467   1.546 -1.9829  0.5467  1.7993
  521MOL0     H68728  -0.915   2.282   1.695 -2.0806  0.1941 -0.4147
  521MOL0     H68729  -0.962   2.424   1.594  1.7348  0.0446 -1.3695
  521MOL0     H68730  -0.793   2.458   1.831 -0.5233  0.2498  0.3180
  521MOL0     H68731  -0.876   2.587   1.735  4.4421 -0.0072 -1.5497
  521MOL0     H68732  -1.096   2.463   1.803 -0.5160  0.1790 -0.0365
  521MOL0     H68733  -1.020   2.555   1.925 -2.1789  1.2544 -3.0548
  521MOL0     H68734  -1.009   2.125   2.039  0.2552  1.9118 -2.2303
  521MOL0     H68735  -1.206   2.019   2.162 -1.2848  1.0372  1.8462
  521MOL0     H68736  -1.504   2.153   2.562  0.0028 -0.2675  0.1526
  521MOL0     H68737  -1.659   2.037   2.702 -2.4564  2.1840 -0.7708
  521MOL0     H68738  -1.935   1.689   2.511 -3.1853  0.6187 -1.2107
  521MOL0     H68739  -1.931   1.861   2.489 -0.6139 -0.7545  0.0267
  521MOL0     H68740  -2.072   1.909   2.652  0.2814  0.0665  1.4208
  521MOL0     H68741  -2.043   1.763   2.754  0.8544 -0.9763 -0.4401
  521MOL0     H68742  -2.177   1.632   2.603 -0.5423  0.0710  0.7141
  521MOL0     H68743  -2.197   1.764   2.485  0.3242  4.9856  0.6116
  521MOL0     H68744  -2.287   1.788   2.786 -1.8255 -0.2955  0.7653
  521MOL0     H68745  -2.336   1.887   2.644 -2.8998 -0.1857  2.0935
  521MOL0     H68746  -2.516   1.756   2.706  0.0121 -0.7577  0.7833
  521MOL0     H68747  -2.419   1.608   2.707  1.6265  1.3235  2.3011
  521MOL0     H68748  -2.396   1.620   2.479  2.0059  0.2612  2.8096
  521MOL0     H68749  -2.487   1.780   2.462 -0.6462  0.3186  0.4258
  521MOL0     H68750  -2.601   1.504   2.480 -1.8968  0.2252 -0.3131
  521MOL0     H68751  -2.663   1.594   2.619 -1.1651 -3.0384 -0.2694
  521MOL0     H68752  -2.745   1.766   2.471 -0.7308 -0.9382  1.6657
  521MOL0     H68753  -2.822   1.619   2.442  0.5978 -1.1724  2.6673
  521MOL0     H68754  -1.697   1.720   2.412  1.6767  0.5236 -1.4039
  521MOL0     H68755  -1.507   1.837   2.278  1.6328  0.2333  1.9172
  521MOL0     H68756  -1.428   2.377   2.089  0.5289  1.4494 -1.3502
  521MOL0     H68757  -1.248   2.477   1.970 -2.3659  0.8353  3.3225
  521MOL0     H68758   0.706   2.098   1.860 -0.6716  0.7749 -1.2261
  521MOL0     H68759   0.972   2.044   1.871  0.3545  0.3099 -0.0995
  521MOL0     H68760   1.396   1.972   1.747  1.1203  1.0124 -1.4852
  521MOL0     H68761   1.616   1.922   1.826  0.2575  0.4098 -1.3901
  521MOL0     H68762   1.789   2.243   2.066 -0.2361  0.5609 -0.5077
  521MOL0     H68763   1.931   2.130   2.052  0.3898 -1.6353  3.6504
  521MOL0     H68764   1.726   2.143   2.273 -0.6906  0.6832 -0.8533
  521MOL0     H68765   1.815   1.996   2.240 -1.2564  0.2296  0.1709
  521MOL0     H68766   1.930   2.280   2.302  0.5652 -1.3116 -1.9528
  521MOL0     H68767   2.025   2.155   2.237 -0.2728 -0.6901 -1.4590
  521MOL0     H68768   1.918   1.993   2.427  2.3925 -0.1725 -0.6617
  521MOL0     H68769   2.063   2.095   2.468  0.2372 -0.7791  3.2648
  521MOL0     H68770   1.739   2.201   2.725 -0.7811 -1.9333 -1.5523
  521MOL0     H68771   1.581   2.232   2.130  1.3060 -0.5459 -0.1017
  521MOL0     H68772   1.360   2.276   2.062 -0.6184 -1.0036  1.1903
  522MOL0     O68773   2.530   8.324  11.162  0.6438  0.0406  0.0909
  522MOL0     C68774   2.572   8.286  11.266 -1.1162 -0.8543 -1.6837
  522MOL0     O68775   2.517   8.298  11.392  0.3826 -0.2254  0.0723
  522MOL0     C68776   2.383   8.339  11.416 -0.4561 -0.6265  0.2600
  522MOL0     C68777   2.341   8.301  11.544 -0.5562 -0.5095 -0.2368
  522MOL0     C68778   2.212   8.339  11.585 -0.2702  0.2306 -0.8641
  522MOL0     C68779   2.117   8.405  11.502  0.7936  1.0894 -1.3112
  522MOL0     O68780   1.990   8.426  11.563  0.4173  0.2973  0.4577
  522MOL0     C68781   1.901   8.521  11.532  0.4248  0.1142  0.6811
  522MOL0     C68782   1.770   8.502  11.602  0.7397  1.1823 -0.7200
  522MOL0     C68783   1.765   8.529  11.751 -1.2232  0.9460  0.0978
  522MOL0     C68784   1.847   8.429  11.845 -0.1145  0.7736  0.7218
  522MOL0     C68785   1.795   8.428  11.991  0.1648  0.9239  0.4403
  522MOL0     C68786   1.880   8.345  12.080  0.2899 -0.0171 -0.0728
  522MOL0     C68787   1.853   8.369  12.233  0.1788  0.3103  0.2298
  522MOL0     C68788   1.949   8.289  12.313  0.4665 -0.1773 -0.4986
  522MOL0     N68789   1.920   8.147  12.324 -0.2139  0.3020  0.7157
  522MOL0     C68790   1.802   8.083  12.300  0.3473 -0.5171 -0.4744
  522MOL0     C68791   1.828   7.947  12.307  0.5271 -0.3313  0.4894
  522MOL0     C68792   1.737   7.832  12.277 -0.4647  0.7402  0.3696
  522MOL0     C68793   1.591   7.882  12.301  0.2137  0.8895  1.4452
  522MOL0     C68794   1.499   7.760  12.294 -0.3375 -0.7282 -0.5110
  522MOL0     C68795   1.466   7.710  12.150 -0.2880  0.2660 -0.0157
  522MOL0     O68796   1.436   7.798  12.040 -1.1396 -0.3881  0.3816
  522MOL0     C68797   1.320   7.876  12.039 -0.2693 -0.7146  0.1479
  522MOL0     C68798   1.301   7.945  11.917 -0.3976  0.7285 -0.4159
  522MOL0     C68799   1.187   8.028  11.902 -0.1292 -1.2069 -0.2471
  522MOL0     C68800   1.098   8.045  12.006  0.4529 -0.5526  0.2510
  522MOL0     C68801   0.975   8.133  11.993  0.4131 -0.2088 -0.2032
  522MOL0     O68802   0.899   8.150  12.104 -0.3305 -0.1676  0.2874
  522MOL0     C68803   0.780   8.216  12.105 -0.2908 -0.8216 -0.1306
  522MOL0     C68804   0.763   8.341  12.050 -0.4614 -0.0085 -0.4287
  522MOL0     C68805   0.634   8.401  12.060 -0.5274 -0.2230  0.2768
  522MOL0     C68806   0.533   8.342  12.140  0.1880 -0.2941 -0.0631
  522MOL0     O68807   0.403   8.391  12.151 -0.7318 -0.0624 -0.1792
  522MOL0     C68808   0.352   8.488  12.060 -0.2107  0.2863 -0.2084
  522MOL0     C68809   0.204   8.464  12.034  0.0900  0.6983  0.5431
  522MOL0     C68810   0.116   8.504  12.156  0.1661  0.3926  0.1812
  522MOL0     C68811  -0.026   8.447  12.148 -0.0952 -0.2726  0.8133
  522MOL0     C68812  -0.105   8.463  12.283  0.0720 -0.4632 -0.0307
  522MOL0     C68813  -0.167   8.607  12.303  0.3114  0.6786 -0.2234
  522MOL0     C68814  -0.252   8.605  12.431  0.2076 -0.6975  0.4823
  522MOL0     C68815  -0.344   8.728  12.428 -0.0890 -0.2951 -0.4759
  522MOL0    Cl68816  -0.449   8.698  12.566 -0.3655 -0.1450 -0.1920
  522MOL0     C68817   0.559   8.223  12.195 -0.5413  0.5038 -0.0572
  522MOL0     C68818   0.677   8.150  12.170  0.4034 -0.6810  0.1131
  522MOL0     O68819   0.960   8.189  11.888 -0.3632  0.0601 -0.4826
  522MOL0     C68820   1.120   7.980  12.128  0.5745  0.3791  0.9294
  522MOL0     C68821   1.223   7.890  12.141  0.3154 -0.1100 -0.3328
  522MOL0     N68822   1.966   7.941  12.345 -0.3245 -0.2218 -0.2699
  522MOL0     N68823   2.020   8.061  12.350 -0.1512 -0.4347 -0.0567
  522MOL0     C68824   2.162   8.440  11.372  0.6492  0.2768  0.6595
  522MOL0     C68825   2.291   8.401  11.334  0.4745 -1.1365  1.1896
  522MOL0     C68826   2.710   8.225  11.267  0.2921 -0.6237  0.3092
  522MOL0     C68827   2.750   8.130  11.368  0.4138 -0.0736  0.3757
  522MOL0     C68828   2.888   8.094  11.371  0.2670 -0.5102  0.6996
  522MOL0     C68829   2.982   8.148  11.275 -0.1886  0.4878 -0.4651
  522MOL0     O68830   3.115   8.103  11.289  0.6442 -0.5156  0.2113
  522MOL0     C68831   3.203   8.135  11.174 -0.6732  0.1420  0.3260
  522MOL0     C68832   3.340   8.090  11.222 -0.8386  0.4519 -0.1805
  522MOL0     C68833   3.357   7.935  11.201 -0.7092 -0.0331 -0.5918
  522MOL0     C68834   3.487   7.880  11.263  0.1125 -0.6306 -0.8034
  522MOL0     C68835   3.609   7.934  11.207 -0.7360  0.8732  0.0548
  522MOL0     C68836   3.721   7.966  11.159  1.4394  0.4300  0.0841
  522MOL0     C68837   2.933   8.216  11.168  0.4585  0.0185  0.0792
  522MOL0     C68838   2.799   8.251  11.159 -0.1483  0.0502 -0.5368
  522MOL0     H68839   2.398   8.241  11.614 -1.7893 -1.1004  0.2776
  522MOL0     H68840   2.163   8.306  11.676 -0.8565 -1.2442 -1.6850
  522MOL0     H68841   1.873   8.513  11.427  3.1097  3.8984 -0.5562
  522MOL0     H68842   1.940   8.622  11.551  0.8765  0.0876 -0.0762
  522MOL0     H68843   1.735   8.399  11.598  0.9568  0.9647  1.7196
  522MOL0     H68844   1.699   8.571  11.555  0.1025  1.2089  0.2605
  522MOL0     H68845   1.664   8.517  11.790 -1.8665 -1.9756 -2.1644
  522MOL0     H68846   1.801   8.631  11.771 -0.5565  0.9335 -0.9349
  522MOL0     H68847   1.844   8.332  11.794 -0.5574  0.7907  0.7077
  522MOL0     H68848   1.952   8.457  11.853 -0.2069  1.5816 -0.6772
  522MOL0     H68849   1.695   8.384  12.000 -0.4660  2.4265  1.2010
  522MOL0     H68850   1.792   8.532  12.026 -0.3331  1.9127 -2.3117
  522MOL0     H68851   1.982   8.373  12.051 -0.1407  1.8190  0.0689
  522MOL0     H68852   1.866   8.241  12.051 -0.7756 -0.1351  0.8292
  522MOL0     H68853   1.867   8.474  12.257 -1.9705  0.7227 -0.1147
  522MOL0     H68854   1.748   8.353  12.260 -0.1635  1.3815 -0.4373
  522MOL0     H68855   1.955   8.344  12.406 -1.8856 -1.5828  0.5958
  522MOL0     H68856   2.046   8.298  12.264  1.1025 -1.9333  0.3676
  522MOL0     H68857   1.713   8.129  12.257  0.0820 -0.2839  0.3076
  522MOL0     H68858   1.773   7.753  12.342 -2.4919  2.2674  3.5980
  522MOL0     H68859   1.749   7.803  12.172  3.9896 -0.8616  1.1013
  522MOL0     H68860   1.563   7.955  12.224 -0.3724 -0.5307  0.2678
  522MOL0     H68861   1.570   7.916  12.403 -1.7574 -0.2788  1.4733
  522MOL0     H68862   1.548   7.686  12.358 -3.4628 -1.5368  1.1245
  522MOL0     H68863   1.408   7.782  12.350  1.1468 -0.4744  1.9661
  522MOL0     H68864   1.376   7.648  12.155  0.3506 -0.7630 -1.0335
  522MOL0     H68865   1.540   7.638  12.113 -1.5030 -0.7806 -0.4742
  522MOL0     H68866   1.374   7.928  11.839  0.7209  2.3684  0.2304
  522MOL0     H68867   1.165   8.082  11.810 -1.2845  0.9050  1.1732
  522MOL0     H68868   0.843   8.391  11.996 -2.2712  3.8265  0.0929
  522MOL0     H68869   0.623   8.494  12.005  1.4767  0.3343  0.7346
  522MOL0     H68870   0.398   8.487  11.960 -3.4917  1.6073 -1.8730
  522MOL0     H68871   0.366   8.588  12.101 -0.3462  0.0147  0.5041
  522MOL0     H68872   0.185   8.358  12.013 -2.2256  0.8646  1.4357
  522MOL0     H68873   0.164   8.508  11.942 -2.0535 -2.5495 -0.2691
  522MOL0     H68874   0.119   8.613  12.160 -0.7443  0.5062 -1.4053
  522MOL0     H68875   0.156   8.463  12.249 -1.2598  0.9293  1.0592
  522MOL0     H68876  -0.081   8.495  12.066  1.3619 -2.5957 -1.7060
  522MOL0     H68877  -0.020   8.340  12.125 -0.5096 -0.3201  0.9197
  522MOL0     H68878  -0.040   8.439  12.367 -2.7972 -1.8871  1.9522
  522MOL0     H68879  -0.182   8.385  12.282 -1.1756  0.6803  1.3691
  522MOL0     H68880  -0.229   8.638  12.218 -1.5758 -1.5062  0.2464
  522MOL0     H68881  -0.085   8.679  12.309 -2.7938  4.4056  3.9699
  522MOL0     H68882  -0.314   8.515  12.435 -2.0099  0.7161  0.0224
  522MOL0     H68883  -0.180   8.608  12.514  1.5978  2.4318 -0.6816
  522MOL0     H68884  -0.395   8.726  12.331 -1.1896  1.5215  0.0107
  522MOL0     H68885  -0.282   8.817  12.441  0.5513 -1.0760  2.8996
  522MOL0     H68886   0.487   8.177  12.263 -1.2844  0.0366 -1.1425
  522MOL0     H68887   0.682   8.048  12.208 -3.8144 -1.4060 -0.7009
  522MOL0     H68888   1.047   8.003  12.205  0.8518  3.0405  0.4756
  522MOL0     H68889   1.225   7.833  12.233 -0.1370  0.6263  0.1424
  522MOL0     H68890   2.103   8.504  11.306  4.9256  2.1495 -1.7292
  522MOL0     H68891   2.327   8.432  11.237 -0.4114  0.1135  1.2499
  522MOL0     H68892   2.682   8.086  11.440  0.5779 -1.4659 -0.2967
  522MOL0     H68893   2.922   8.020  11.443 -0.3761 -0.0310  1.5157
  522MOL0     H68894   3.212   8.241  11.151 -0.5111 -0.2063 -1.3424
  522MOL0     H68895   3.171   8.096  11.077 -1.5941  2.9872 -0.5895
  522MOL0     H68896   3.421   8.140  11.169 -1.2341 -0.7444 -1.9979
  522MOL0     H68897   3.336   8.102  11.331 -2.7960 -1.9594  0.0973
  522MOL0     H68898   3.352   7.914  11.094 -2.6844  3.8239 -1.4364
  522MOL0     H68899   3.269   7.883  11.243 -0.5417 -1.3094 -1.7401
  522MOL0     H68900   3.477   7.891  11.371  1.8767 -0.7905 -0.5939
  522MOL0     H68901   3.472   7.773  11.247 -1.9894 -0.2517 -1.7265
  522MOL0     H68902   3.813   7.991  11.109  0.0992 -1.6236 -3.8959
  522MOL0     H68903   3.004   8.225  11.086  0.6383 -2.2740 -0.0802
  522MOL0     H68904   2.776   8.327  11.085 -0.2687  1.6774  1.1020
  523MOL0     O68905   9.196  10.824   6.372 -0.0751 -0.0732 -0.4669
  523MOL0     C68906   9.261  10.863   6.468 -0.6166  0.1474 -0.6559
  523MOL0     O68907   9.227  10.858   6.599  0.3295  0.3945  0.0625
  523MOL0     C68908   9.103  10.816   6.640  0.8234  0.4684  0.1060
  523MOL0     C68909   9.018  10.724   6.572  0.1426 -0.1083 -0.1955
  523MOL0     C68910   8.897  10.691   6.635 -0.1897  0.5079 -0.6319
  523MOL0     C68911   8.854  10.742   6.761  0.2008  1.0149 -0.9399
  523MOL0     O68912   8.734  10.718   6.804  0.2220 -0.1164 -0.4920
  523MOL0     C68913   8.642  10.809   6.869 -0.6760 -0.4007 -0.5194
  523MOL0     C68914   8.508  10.739   6.893  0.3304  0.7057 -0.0150
  523MOL0     C68915   8.416  10.846   6.934  0.0236 -0.2096 -0.1707
  523MOL0     C68916   8.269  10.794   6.958 -0.2829  0.5400  0.1320
  523MOL0     C68917   8.253  10.727   7.101  0.3454 -0.5159 -0.4311
  523MOL0     C68918   8.121  10.640   7.116  0.1037  0.2076  0.8673
  523MOL0     C68919   7.999  10.713   7.071  0.3741 -0.3078 -0.0188
  523MOL0     C68920   7.953  10.833   7.162 -0.2796 -0.5551  0.2181
  523MOL0     N68921   7.910  10.804   7.298  0.5024  0.0894 -0.1679
  523MOL0     C68922   7.780  10.827   7.347  0.7700  0.1804  0.2318
  523MOL0     C68923   7.791  10.809   7.482  0.6183 -0.6354 -0.0737
  523MOL0     C68924   7.687  10.830   7.585  0.2488 -0.1777  1.0513
  523MOL0     C68925   7.605  10.957   7.559 -0.4340 -0.1454  0.2353
  523MOL0     C68926   7.684  11.096   7.560 -0.1815  0.1523  0.4843
  523MOL0     C68927   7.608  11.225   7.550  0.3766 -0.2603  0.5873
  523MOL0     O68928   7.508  11.238   7.650  0.0116 -0.0822 -0.5992
  523MOL0     C68929   7.380  11.202   7.618  0.4247 -0.3205  0.5952
  523MOL0     C68930   7.305  11.114   7.687 -0.3484  0.1570 -1.1222
  523MOL0     C68931   7.177  11.094   7.657  0.2206  0.7444 -0.3773
  523MOL0     C68932   7.121  11.142   7.544 -0.6622  0.2882  0.7750
  523MOL0     C68933   6.984  11.092   7.493  0.1301 -0.3119 -0.0637
  523MOL0     O68934   6.941  11.151   7.382  0.6616  0.8093 -0.1336
  523MOL0     C68935   6.823  11.092   7.329 -0.7295  0.0111 -0.6799
  523MOL0     C68936   6.822  11.073   7.193  0.2933 -0.7073  0.1426
  523MOL0     C68937   6.712  11.004   7.134  0.1161 -0.8984 -0.5733
  523MOL0     C68938   6.591  10.975   7.208  0.4112 -0.0615  0.3629
  523MOL0     O68939   6.475  10.914   7.149  0.7421  0.0148 -0.8979
  523MOL0     C68940   6.496  10.815   7.050  0.6538 -0.2664  0.0507
  523MOL0     C68941   6.379  10.702   7.075 -0.7034  0.3211 -0.1457
  523MOL0     C68942   6.423  10.558   7.037  0.5168  0.0644  0.1381
  523MOL0     C68943   6.466  10.560   6.884  0.5768  0.0990 -0.2936
  523MOL0     C68944   6.509  10.422   6.827 -0.1611 -0.7459 -0.1273
  523MOL0     C68945   6.556  10.415   6.680 -0.7934  0.4744 -0.7695
  523MOL0     C68946   6.692  10.474   6.655 -0.3086 -0.2465  0.4870
  523MOL0     C68947   6.685  10.580   6.551 -0.3509 -0.7957  0.5003
  523MOL0    Cl68948   6.847  10.651   6.530  0.4564  0.1975  0.4961
  523MOL0     C68949   6.592  10.998   7.340  0.0709  0.0236  0.1443
  523MOL0     C68950   6.708  11.052   7.397  0.3849  0.5912  0.0720
  523MOL0     O68951   6.924  10.997   7.557  0.2277 -1.2872 -0.6689
  523MOL0     C68952   7.202  11.235   7.470  0.3950 -0.6952 -0.1253
  523MOL0     C68953   7.328  11.274   7.512  0.0123  0.3424 -0.4638
  523MOL0     N68954   7.926  10.769   7.515 -0.2496  0.0964  0.5846
  523MOL0     N68955   7.993  10.778   7.397 -0.2008 -0.3795 -0.0627
  523MOL0     C68956   8.939  10.828   6.824 -0.6065  0.9191 -0.1708
  523MOL0     C68957   9.061  10.864   6.767 -0.0413 -0.0554 -0.5755
  523MOL0     C68958   9.393  10.931   6.443 -1.3180 -1.0434 -0.0680
  523MOL0     C68959   9.451  10.927   6.312 -1.5436 -1.2282 -0.8020
  523MOL0     C68960   9.579  10.976   6.294  0.9809 -0.4397  0.1858
  523MOL0     C68961   9.643  11.036   6.402  1.0281  0.3501  0.2412
  523MOL0     O68962   9.771  11.083   6.404 -0.2249  0.2258  0.4257
  523MOL0     C68963   9.826  11.133   6.284 -0.9376 -0.4341 -0.6944
  523MOL0     C68964   9.966  11.194   6.295 -0.2656  0.2063  1.1783
  523MOL0     C68965  10.065  11.110   6.377 -0.0753 -0.3093  0.1597
  523MOL0     C68966  10.038  11.096   6.528 -0.1625 -0.5214 -0.0026
  523MOL0     C68967  10.171  11.072   6.599  0.2130  0.0621  0.1824
  523MOL0     C68968  10.291  11.046   6.638  0.0056 -0.4314  0.0337
  523MOL0     C68969   9.581  11.048   6.527  0.9723 -0.2906 -0.3057
  523MOL0     C68970   9.455  10.998   6.545 -0.6046  0.0046  0.0137
  523MOL0     H68971   9.021  10.690   6.469 -1.2143  1.8836 -0.9658
  523MOL0     H68972   8.821  10.629   6.589  0.5959 -1.1614  0.2587
  523MOL0     H68973   8.626  10.903   6.815 -1.8934 -1.5320 -2.1911
  523MOL0     H68974   8.678  10.841   6.968 -4.4017  1.6355  0.3758
  523MOL0     H68975   8.520  10.676   6.981 -3.6415 -1.8904 -1.0553
  523MOL0     H68976   8.465  10.680   6.811  0.2188 -0.3161  0.7633
  523MOL0     H68977   8.411  10.923   6.857 -1.4089 -2.2580 -2.2610
  523MOL0     H68978   8.453  10.888   7.028 -0.3127 -2.0915  0.8467
  523MOL0     H68979   8.195  10.869   6.927 -0.5358 -0.2620 -1.3574
  523MOL0     H68980   8.249  10.713   6.886 -0.4546  0.2504  0.5041
  523MOL0     H68981   8.273  10.808   7.173  0.2855  1.3398 -2.4011
  523MOL0     H68982   8.328  10.648   7.113 -0.8437 -1.4047  1.6969
  523MOL0     H68983   8.113  10.605   7.220  1.6090 -1.0664  0.5902
  523MOL0     H68984   8.128  10.550   7.055  0.1605 -0.5569  1.9597
  523MOL0     H68985   8.011  10.760   6.973  0.8867  2.2967  1.2084
  523MOL0     H68986   7.916  10.643   7.070  0.3324 -0.2828  0.8959
  523MOL0     H68987   7.876  10.890   7.107  0.6656  2.9203  2.1538
  523MOL0     H68988   8.023  10.916   7.154 -3.8164  2.6278 -1.1134
  523MOL0     H68989   7.689  10.849   7.292 -2.2280 -3.9854  2.9038
  523MOL0     H68990   7.731  10.834   7.685  0.1299  1.6949  1.0702
  523MOL0     H68991   7.626  10.739   7.586  0.7350 -0.5040  0.9934
  523MOL0     H68992   7.517  10.957   7.624 -0.5769 -2.4114  0.1304
  523MOL0     H68993   7.561  10.947   7.460 -0.1246 -0.5549  0.1342
  523MOL0     H68994   7.726  11.092   7.661  1.4121 -3.3959 -0.1744
  523MOL0     H68995   7.764  11.095   7.486  2.3024 -1.7491  2.9991
  523MOL0     H68996   7.565  11.222   7.450  4.2831 -1.3613 -1.2496
  523MOL0     H68997   7.682  11.306   7.542 -0.6306  0.7391  1.1276
  523MOL0     H68998   7.349  11.070   7.776 -0.8429  2.4654  0.3500
  523MOL0     H68999   7.127  11.026   7.724  3.5498 -0.3956  1.1981
  523MOL0     H69000   6.912  11.112   7.146  0.7329  0.3359  1.7817
  523MOL0     H69001   6.709  10.975   7.029 -4.3483 -1.8780 -0.3679
  523MOL0     H69002   6.598  10.776   7.060  1.2406  1.5451  1.6435
  523MOL0     H69003   6.479  10.848   6.947 -1.9609 -1.0309  0.1685
  523MOL0     H69004   6.279  10.724   7.038 -2.8943 -3.0128  3.0426
  523MOL0     H69005   6.355  10.692   7.181 -0.2223 -0.2828 -0.0847
  523MOL0     H69006   6.334  10.496   7.048  0.8798 -0.6790 -0.9764
  523MOL0     H69007   6.501  10.515   7.100  1.3775  0.5041 -0.6032
  523MOL0     H69008   6.383  10.597   6.823 -1.3670 -1.0325  1.4987
  523MOL0     H69009   6.551  10.629   6.878 -1.2146  2.9374  2.9142
  523MOL0     H69010   6.428  10.350   6.841 -0.6218 -0.3599 -0.7540
  523MOL0     H69011   6.582  10.375   6.894  0.0547 -0.0920  0.1129
  523MOL0     H69012   6.482  10.443   6.604  0.7291  0.0103 -2.5128
  523MOL0     H69013   6.573  10.307   6.667  1.6921  0.6410  0.4873
  523MOL0     H69014   6.737  10.514   6.746 -0.6241  0.3660  0.3763
  523MOL0     H69015   6.755  10.396   6.611  1.3988  0.6793  1.1987
  523MOL0     H69016   6.608  10.654   6.574 -1.3715 -1.9870  1.0517
  523MOL0     H69017   6.651  10.530   6.460 -0.9226  0.6045 -0.0725
  523MOL0     H69018   6.510  10.968   7.403  2.4054 -1.7254  2.5380
  523MOL0     H69019   6.697  11.075   7.503 -0.3344 -1.9744  0.6174
  523MOL0     H69020   7.159  11.279   7.381  2.7979 -1.7131 -1.8938
  523MOL0     H69021   7.386  11.348   7.458  1.7921 -0.9923 -0.4966
  523MOL0     H69022   8.916  10.872   6.921 -1.7028  1.4311 -0.6504
  523MOL0     H69023   9.122  10.917   6.839  2.2514 -0.8762 -1.8041
  523MOL0     H69024   9.400  10.881   6.228  1.7138 -1.4528 -2.8122
  523MOL0     H69025   9.625  10.963   6.196  1.8693 -0.9764  0.6558
  523MOL0     H69026   9.757  11.211   6.250  1.4206  0.6118 -3.4571
  523MOL0     H69027   9.828  11.050   6.213  1.9159  0.4625 -1.8102
  523MOL0     H69028  10.008  11.212   6.196  1.3868  2.3109  2.1863
  523MOL0     H69029   9.952  11.287   6.350  2.0458  1.2725  0.0778
  523MOL0     H69030  10.166  11.148   6.360  0.1946  0.6617  3.2231
  523MOL0     H69031  10.062  11.013   6.327 -3.7266 -0.9776  1.3083
  523MOL0     H69032   9.991  11.186   6.570 -0.3168 -0.2377 -0.7573
  523MOL0     H69033   9.972  11.013   6.552 -0.5733  0.5564  2.9775
  523MOL0     H69034  10.381  11.023   6.690 -2.1230  0.0966  4.3963
  523MOL0     H69035   9.637  11.100   6.603  3.6256 -1.4212 -1.3604
  523MOL0     H69036   9.430  10.995   6.650  2.9676  0.5508  1.0087
  524MOL0     O69037   4.188   6.983   4.935 -0.3999  0.3638  0.3997
  524MOL0     C69038   4.285   6.991   4.852 -1.7504 -0.4628 -1.0021
  524MOL0     O69039   4.399   6.909   4.855 -0.9413 -0.0697  0.5993
  524MOL0     C69040   4.391   6.784   4.912 -0.4516  0.8065  0.1813
  524MOL0     C69041   4.520   6.744   4.973  0.1199  0.2450  0.3773
  524MOL0     C69042   4.525   6.612   5.029  1.0114 -1.2917 -0.4117
  524MOL0     C69043   4.413   6.524   5.030 -0.5247  0.1153 -0.4603
  524MOL0     O69044   4.419   6.400   5.100  0.2668 -0.1979  0.6175
  524MOL0     C69045   4.485   6.400   5.222  0.2961 -0.5995 -0.3650
  524MOL0     C69046   4.379   6.413   5.334  0.7848 -0.2272  0.8631
  524MOL0     C69047   4.258   6.314   5.327  0.1901  0.0042 -0.2116
  524MOL0     C69048   4.131   6.395   5.283  1.2978  1.4350 -0.3515
  524MOL0     C69049   4.012   6.292   5.269 -0.8683  0.4659  0.4386
  524MOL0     C69050   4.031   6.208   5.136  0.0137 -0.6399 -0.9693
  524MOL0     C69051   4.002   6.279   5.001  0.8640  0.2498 -0.0918
  524MOL0     C69052   3.926   6.416   5.010  0.4020 -0.3344 -0.0555
  524MOL0     N69053   3.880   6.447   4.874 -0.0568 -0.2031 -0.4658
  524MOL0     C69054   3.762   6.443   4.816 -0.3974  0.0997  0.2917
  524MOL0     C69055   3.774   6.503   4.693  0.8497  0.7057  0.8862
  524MOL0     C69056   3.661   6.524   4.595  0.7677  1.0216  0.3897
  524MOL0     C69057   3.678   6.429   4.476 -0.0754 -0.0299  0.2443
  524MOL0     C69058   3.561   6.442   4.373 -0.0829  0.4383 -0.0225
  524MOL0     C69059   3.521   6.589   4.347  0.1030 -0.3170 -0.9391
  524MOL0     O69060   3.435   6.610   4.239  0.0695 -0.2069 -0.2208
  524MOL0     C69061   3.301   6.601   4.261 -0.6804 -0.4597  0.1211
  524MOL0     C69062   3.240   6.554   4.377  0.3727  0.1080 -0.5944
  524MOL0     C69063   3.101   6.573   4.407 -0.2157 -1.2649  0.1964
  524MOL0     C69064   3.026   6.640   4.317  1.4163  0.1726  0.6972
  524MOL0     C69065   2.874   6.666   4.344 -0.0211  0.1137  0.1011
  524MOL0     O69066   2.847   6.661   4.477  0.3413 -0.0097  0.4553
  524MOL0     C69067   2.732   6.709   4.534 -0.7388 -0.4819  0.0916
  524MOL0     C69068   2.673   6.826   4.493  0.1943 -0.1325  0.4641
  524MOL0     C69069   2.550   6.860   4.545  0.0073  0.1105 -0.3086
  524MOL0     C69070   2.496   6.801   4.660  0.0422 -0.4108  0.1287
  524MOL0     O69071   2.377   6.842   4.709 -0.8259 -0.3884  0.1330
  524MOL0     C69072   2.323   6.973   4.674 -0.4583 -0.3043  0.7723
  524MOL0     C69073   2.187   6.977   4.729 -0.3917  0.7051 -0.0617
  524MOL0     C69074   2.135   7.122   4.705 -0.1624  0.0198  1.3530
  524MOL0     C69075   2.001   7.150   4.775 -0.2178 -1.4915 -0.3872
  524MOL0     C69076   1.872   7.093   4.704  0.1460  0.4665 -0.5112
  524MOL0     C69077   1.731   7.122   4.774 -0.7112  1.2158 -0.6834
  524MOL0     C69078   1.628   7.015   4.761 -0.2246 -1.3770  0.2001
  524MOL0     C69079   1.525   7.048   4.651 -0.4109  0.2663  0.2959
  524MOL0    Cl69080   1.386   6.925   4.655 -0.2724 -0.6611  0.4225
  524MOL0     C69081   2.571   6.699   4.716  0.2503 -0.2627  0.0856
  524MOL0     C69082   2.688   6.648   4.646  0.5031  0.1464  0.0004
  524MOL0     O69083   2.799   6.709   4.255  0.4803 -0.7176  0.0051
  524MOL0     C69084   3.085   6.674   4.195  1.6906 -0.3767  0.3929
  524MOL0     C69085   3.213   6.654   4.161 -0.0542  0.1626  0.2354
  524MOL0     N69086   3.904   6.534   4.681  0.3197  0.0039  0.5919
  524MOL0     N69087   3.968   6.506   4.791  0.5477  0.0126  0.8908
  524MOL0     C69088   4.293   6.565   4.974  0.6512 -0.7508 -0.2599
  524MOL0     C69089   4.282   6.688   4.904  0.2118 -0.5114 -0.9297
  524MOL0     C69090   4.307   7.119   4.771  0.2298 -0.5147 -0.2635
  524MOL0     C69091   4.424   7.135   4.690  0.0149  0.6588  0.4642
  524MOL0     C69092   4.444   7.258   4.628 -0.2980  0.8383 -0.9271
  524MOL0     C69093   4.355   7.358   4.643  0.5205 -0.8446 -0.2243
  524MOL0     O69094   4.363   7.483   4.588  0.8258  0.1636 -0.1016
  524MOL0     C69095   4.443   7.506   4.476  0.2607 -0.5313  0.4626
  524MOL0     C69096   4.579   7.552   4.512  0.3113  0.0769 -0.0072
  524MOL0     C69097   4.644   7.627   4.400  0.2323  0.6020  0.3049
  524MOL0     C69098   4.707   7.542   4.286 -0.1461  0.3633  0.2564
  524MOL0     C69099   4.603   7.512   4.182  0.3685  0.4125  0.1543
  524MOL0     C69100   4.514   7.481   4.111 -1.1079  0.4647  0.5829
  524MOL0     C69101   4.230   7.341   4.715 -0.6094  0.0444 -0.1685
  524MOL0     C69102   4.206   7.219   4.780 -0.1694 -1.0472 -0.4550
  524MOL0     H69103   4.604   6.814   4.974  1.6001 -1.2092 -3.3477
  524MOL0     H69104   4.621   6.581   5.069 -0.0210 -3.3780  0.6327
  524MOL0     H69105   4.569   6.468   5.236  1.9815 -2.2949 -1.6929
  524MOL0     H69106   4.521   6.297   5.231 -1.2965 -1.1139  0.4530
  524MOL0     H69107   4.339   6.513   5.316 -1.3521 -1.2426 -0.3394
  524MOL0     H69108   4.428   6.402   5.431  1.1903  1.8050  0.9313
  524MOL0     H69109   4.242   6.272   5.426  1.1229  2.4715  1.0704
  524MOL0     H69110   4.282   6.223   5.271 -1.9462 -0.7328 -0.0141
  524MOL0     H69111   4.105   6.480   5.347 -2.9227  0.2319 -0.1803
  524MOL0     H69112   4.147   6.442   5.186 -1.7397 -1.0415 -2.2253
  524MOL0     H69113   3.920   6.349   5.286  0.1709  1.2232  4.9111
  524MOL0     H69114   4.003   6.227   5.356 -2.9210 -2.1039 -1.5471
  524MOL0     H69115   3.963   6.123   5.147 -0.4064 -0.2155 -0.1176
  524MOL0     H69116   4.134   6.170   5.139  0.1596 -0.2226  0.0020
  524MOL0     H69117   4.103   6.304   4.965  0.6413 -0.9106 -1.6257
  524MOL0     H69118   3.949   6.212   4.933  0.2259  2.3772 -1.8219
  524MOL0     H69119   4.005   6.487   5.035  1.2842 -1.0453 -0.7603
  524MOL0     H69120   3.838   6.436   5.072 -0.9237  2.6911 -2.5748
  524MOL0     H69121   3.674   6.398   4.861 -1.1468  2.5654  1.4565
  524MOL0     H69122   3.658   6.623   4.549 -1.9634 -0.3274 -2.8050
  524MOL0     H69123   3.560   6.516   4.636 -0.2390 -2.9316 -2.2167
  524MOL0     H69124   3.695   6.326   4.508  0.4103 -0.7239 -2.1084
  524MOL0     H69125   3.764   6.470   4.422 -2.1106 -0.4028 -3.6494
  524MOL0     H69126   3.593   6.390   4.283  1.6366  0.7730  0.3649
  524MOL0     H69127   3.477   6.386   4.416 -0.3340  0.7243 -0.1375
  524MOL0     H69128   3.612   6.650   4.346  0.0975  0.0866  3.4691
  524MOL0     H69129   3.473   6.631   4.436 -1.3737  0.7985 -2.1897
  524MOL0     H69130   3.299   6.498   4.449 -0.3521 -2.1176 -1.6442
  524MOL0     H69131   3.062   6.545   4.504 -1.5822  3.0163  1.0985
  524MOL0     H69132   2.722   6.887   4.418 -0.7006 -0.2454 -0.2302
  524MOL0     H69133   2.495   6.946   4.509 -0.7148 -0.0754  0.3322
  524MOL0     H69134   2.311   6.972   4.565 -0.1114 -0.3011  0.7327
  524MOL0     H69135   2.392   7.050   4.710  0.0061 -0.1180 -0.4703
  524MOL0     H69136   2.200   6.967   4.837  1.5393  2.0702 -0.1035
  524MOL0     H69137   2.125   6.898   4.687 -1.6199  1.5438  0.1277
  524MOL0     H69138   2.120   7.137   4.598  2.8528 -2.4748  0.4291
  524MOL0     H69139   2.209   7.193   4.741 -1.5235  0.9023  2.5125
  524MOL0     H69140   1.995   7.110   4.877 -1.3439  0.0172  0.1789
  524MOL0     H69141   1.981   7.257   4.778  3.3507 -0.7084 -0.0147
  524MOL0     H69142   1.885   6.987   4.681  2.1431  0.8174 -1.1418
  524MOL0     H69143   1.863   7.143   4.608  0.9670  0.1736 -0.7454
  524MOL0     H69144   1.701   7.221   4.736  0.4725  1.6939 -0.4177
  524MOL0     H69145   1.743   7.138   4.881 -0.9177 -0.5854 -0.3691
  524MOL0     H69146   1.663   6.912   4.750  1.2971 -0.9306  0.6680
  524MOL0     H69147   1.572   7.020   4.854 -2.0413 -2.2027 -0.7903
  524MOL0     H69148   1.582   7.058   4.558 -0.9559  0.1468 -0.0555
  524MOL0     H69149   1.475   7.144   4.668 -3.5479 -1.3038  0.8502
  524MOL0     H69150   2.546   6.646   4.808 -1.0287 -0.4972 -0.3697
  524MOL0     H69151   2.740   6.558   4.678 -0.2307 -1.4470 -2.9607
  524MOL0     H69152   3.033   6.719   4.111  2.1263  0.6487  0.6464
  524MOL0     H69153   3.262   6.694   4.073 -1.6602 -0.1724 -0.8476
  524MOL0     H69154   4.210   6.497   4.993 -0.0543  0.8208  2.9886
  524MOL0     H69155   4.190   6.724   4.860  1.4688  0.7609 -2.6835
  524MOL0     H69156   4.497   7.057   4.672  0.9239  1.1928  1.6739
  524MOL0     H69157   4.523   7.267   4.555  1.1833  0.4093  0.5577
  524MOL0     H69158   4.400   7.596   4.432  1.3803  0.5262  1.4502
  524MOL0     H69159   4.438   7.424   4.404 -0.6540 -1.0671  1.1218
  524MOL0     H69160   4.568   7.626   4.592 -1.0449  0.6778 -0.7137
  524MOL0     H69161   4.648   7.476   4.548  0.3090  0.7056  1.3955
  524MOL0     H69162   4.714   7.692   4.452  2.4622 -2.3966  1.3398
  524MOL0     H69163   4.573   7.691   4.346  0.8165 -0.5262 -1.9330
  524MOL0     H69164   4.781   7.611   4.245  2.2941 -0.9434  2.1426
  524MOL0     H69165   4.753   7.449   4.322  0.9352  1.5588  2.1338
  524MOL0     H69166   4.432   7.467   4.043  0.3851  1.4982 -1.5706
  524MOL0     H69167   4.165   7.425   4.736  0.0412 -0.1329  3.2067
  524MOL0     H69168   4.121   7.211   4.847  1.3625 -0.5239  1.6391
  525MOL0     O69169   9.466   5.782   7.103  0.4743  0.4413 -0.1044
  525MOL0     C69170   9.493   5.751   6.985 -0.1849 -0.3578 -0.2820
  525MOL0     O69171   9.407   5.751   6.879 -0.0026 -0.0301  0.9546
  525MOL0     C69172   9.281   5.808   6.889  0.2027 -0.7948 -0.5960
  525MOL0     C69173   9.241   5.915   6.975 -0.0119 -0.8835  0.3642
  525MOL0     C69174   9.111   5.955   6.979  0.2173 -0.0396  0.4714
  525MOL0     C69175   9.003   5.887   6.918 -0.2893  0.2999 -0.4350
  525MOL0     O69176   8.870   5.912   6.932 -0.0897  0.8754  0.2755
  525MOL0     C69177   8.838   5.979   7.051 -1.2195 -0.7823 -0.2438
  525MOL0     C69178   8.682   5.973   7.067  0.1932  0.0606  0.3850
  525MOL0     C69179   8.608   5.834   7.049 -0.2522 -1.0915  0.2159
  525MOL0     C69180   8.461   5.844   7.091  0.1459  0.3788  0.5660
  525MOL0     C69181   8.373   5.950   7.021 -0.0835 -0.1270 -0.5671
  525MOL0     C69182   8.223   5.930   7.044  0.8795  0.7174  0.2884
  525MOL0     C69183   8.183   5.934   7.198  0.1561 -0.2572 -0.0573
  525MOL0     C69184   8.042   5.877   7.235  0.0968  0.3944  0.8495
  525MOL0     N69185   7.920   5.916   7.166  0.3078 -0.5530 -0.3274
  525MOL0     C69186   7.871   6.046   7.143 -0.6596  0.1217 -0.0503
  525MOL0     C69187   7.761   6.032   7.073 -0.7877  0.3709  0.0573
  525MOL0     C69188   7.686   6.150   7.021  0.4441 -0.2608 -0.6835
  525MOL0     C69189   7.586   6.208   7.124 -0.8519  0.3516 -0.9356
  525MOL0     C69190   7.461   6.112   7.140  0.8992  0.6627  0.0178
  525MOL0     C69191   7.359   6.182   7.212  0.5151  0.3703  0.5434
  525MOL0     O69192   7.260   6.092   7.268 -0.3601  0.3653 -0.3843
  525MOL0     C69193   7.183   6.021   7.186  0.0027  0.1757  0.3093
  525MOL0     C69194   7.115   5.902   7.237  0.1004 -1.2892  0.0239
  525MOL0     C69195   7.029   5.834   7.161  0.5039  0.0937 -0.0626
  525MOL0     C69196   6.997   5.876   7.031 -1.1016 -0.1350 -0.6072
  525MOL0     C69197   6.906   5.800   6.942 -0.3006 -0.4010  0.1781
  525MOL0     O69198   6.844   5.686   6.991 -0.4519  0.6550  0.5510
  525MOL0     C69199   6.747   5.629   6.913 -0.0409  0.5325 -0.0437
  525MOL0     C69200   6.617   5.646   6.957 -0.5062 -0.6281 -0.5476
  525MOL0     C69201   6.499   5.597   6.897 -1.1160 -0.2121  0.8371
  525MOL0     C69202   6.524   5.509   6.798 -0.0992 -0.5971  0.6625
  525MOL0     O69203   6.410   5.449   6.742  0.0453  1.1110  0.1186
  525MOL0     C69204   6.410   5.413   6.609 -0.5935 -0.3759 -0.1949
  525MOL0     C69205   6.268   5.383   6.561 -0.1674 -0.5498 -0.1382
  525MOL0     C69206   6.186   5.509   6.563 -0.5354 -0.6674 -0.7028
  525MOL0     C69207   6.131   5.569   6.702 -0.8725  0.4971  0.3441
  525MOL0     C69208   6.065   5.708   6.691  0.1068 -0.7049 -0.8081
  525MOL0     C69209   6.175   5.821   6.685 -0.4608  0.4238 -0.5085
  525MOL0     C69210   6.099   5.952   6.695  0.7460 -0.5751 -0.7061
  525MOL0     C69211   6.036   6.010   6.568  0.3883  0.1781 -0.2571
  525MOL0    Cl69212   6.142   6.021   6.426  0.3787  0.4112  0.0909
  525MOL0     C69213   6.659   5.480   6.749  0.2330  0.1972 -0.2091
  525MOL0     C69214   6.768   5.535   6.808 -0.2328  0.2746  0.3408
  525MOL0     O69215   6.893   5.846   6.828  0.0768 -0.7751 -0.0812
  525MOL0     C69216   7.068   5.984   6.979  0.4888  0.5086  0.1501
  525MOL0     C69217   7.161   6.058   7.049  0.0647 -0.1077  0.2049
  525MOL0     N69218   7.749   5.903   7.028  0.0570 -0.5236 -0.5578
  525MOL0     N69219   7.837   5.837   7.091  0.2887 -0.0131  0.7309
  525MOL0     C69220   9.044   5.785   6.833  1.0833 -0.4814  0.1185
  525MOL0     C69221   9.182   5.754   6.811  0.9009  0.2410  1.0375
  525MOL0     C69222   9.634   5.703   6.949  0.7011  0.2443 -0.2416
  525MOL0     C69223   9.673   5.653   6.827 -0.7692  0.0828  0.1314
  525MOL0     C69224   9.803   5.600   6.810 -0.0803  0.5652  0.5260
  525MOL0     C69225   9.890   5.589   6.921  0.3207 -0.4464  0.2593
  525MOL0     O69226  10.015   5.524   6.924  0.5217  0.0791 -0.3396
  525MOL0     C69227  10.082   5.475   6.804  0.0081  0.0991  0.2872
  525MOL0     C69228  10.136   5.598   6.734  0.6162 -0.1366  0.0486
  525MOL0     C69229  10.265   5.654   6.778 -0.2289  0.2492  0.5362
  525MOL0     C69230  10.271   5.698   6.920 -0.1238  0.0323 -0.1947
  525MOL0     C69231  10.410   5.746   6.955  0.2425  0.1456  0.3927
  525MOL0     C69232  10.525   5.782   6.972  0.7373  0.6942 -0.9964
  525MOL0     C69233   9.860   5.657   7.040 -0.7585  0.3950  0.1130
  525MOL0     C69234   9.734   5.710   7.050 -0.3797 -0.5822 -0.0949
  525MOL0     H69235   9.305   5.980   7.034 -3.0302  2.7755 -0.0086
  525MOL0     H69236   9.094   6.043   7.040  1.5608  1.4300 -1.1568
  525MOL0     H69237   8.882   6.079   7.059  2.5376 -2.3392  0.8100
  525MOL0     H69238   8.889   5.936   7.137 -0.5404  0.2757 -0.0904
  525MOL0     H69239   8.639   6.051   7.004  2.3080 -0.2702 -1.5934
  525MOL0     H69240   8.667   6.007   7.170 -2.0362 -0.5659  0.3276
  525MOL0     H69241   8.664   5.759   7.106 -0.8642  0.0484  2.4526
  525MOL0     H69242   8.610   5.833   6.940 -2.6773  0.0593  0.0980
  525MOL0     H69243   8.414   5.747   7.075  1.9885 -0.2976 -1.1419
  525MOL0     H69244   8.469   5.867   7.198 -2.0661  1.3266  0.5781
  525MOL0     H69245   8.380   5.924   6.915 -1.5996  1.2172 -1.0267
  525MOL0     H69246   8.406   6.053   7.036 -0.4181  0.2687 -2.3444
  525MOL0     H69247   8.198   5.830   7.008 -1.0834  1.3813 -0.2938
  525MOL0     H69248   8.163   5.995   6.981  1.0504  1.2602  0.6737
  525MOL0     H69249   8.259   5.877   7.252 -0.6458 -0.5938  0.7325
  525MOL0     H69250   8.192   6.036   7.237 -0.0488 -1.5959  3.9753
  525MOL0     H69251   8.026   5.899   7.340 -1.5183  0.8586  0.5266
  525MOL0     H69252   8.049   5.768   7.233  0.9635  0.4187  1.9529
  525MOL0     H69253   7.904   6.137   7.191 -1.6572  1.2202 -1.3420
  525MOL0     H69254   7.635   6.125   6.928  1.6415  0.2578 -1.5032
  525MOL0     H69255   7.760   6.227   6.996 -0.6778  0.3438 -2.2913
  525MOL0     H69256   7.562   6.308   7.085  0.7991  0.0419 -2.9635
  525MOL0     H69257   7.637   6.220   7.220  1.0202  0.2074 -1.8541
  525MOL0     H69258   7.432   6.079   7.040 -1.7528  1.1098  0.5773
  525MOL0     H69259   7.490   6.025   7.200 -2.5515 -1.7740 -1.5213
  525MOL0     H69260   7.321   6.256   7.141  1.0726 -0.4682 -0.6701
  525MOL0     H69261   7.406   6.246   7.288  1.5778  3.8162 -2.6900
  525MOL0     H69262   7.117   5.885   7.344  0.7680  1.5883  0.5652
  525MOL0     H69263   6.975   5.746   7.194  1.4035 -1.3095 -2.0987
  525MOL0     H69264   6.600   5.727   7.027  0.5426  1.7262 -2.8470
  525MOL0     H69265   6.403   5.628   6.937 -0.4332  1.2872  1.3709
  525MOL0     H69266   6.467   5.320   6.598 -0.7927 -0.6946  1.2772
  525MOL0     H69267   6.446   5.484   6.534 -2.1064 -3.1525 -3.8802
  525MOL0     H69268   6.223   5.295   6.607 -1.9741 -0.1457 -1.0405
  525MOL0     H69269   6.288   5.353   6.458 -0.0027  1.1279 -0.6346
  525MOL0     H69270   6.105   5.508   6.489  0.4337  0.8738 -1.8655
  525MOL0     H69271   6.255   5.582   6.519  0.6357 -1.3481 -0.0571
  525MOL0     H69272   6.052   5.500   6.731  1.3758 -1.7856  1.5296
  525MOL0     H69273   6.206   5.576   6.782 -0.9022  2.2468  0.2613
  525MOL0     H69274   5.994   5.727   6.772  0.4259  0.9168 -0.8693
  525MOL0     H69275   5.996   5.715   6.607  0.1540  1.2792 -0.7424
  525MOL0     H69276   6.230   5.811   6.591 -0.7873 -0.1353 -0.6419
  525MOL0     H69277   6.245   5.810   6.768 -2.9301 -1.8536  1.4294
  525MOL0     H69278   6.018   5.946   6.768  1.7231 -1.5553  0.3547
  525MOL0     H69279   6.173   6.027   6.725  0.8305 -0.0997 -2.0240
  525MOL0     H69280   5.995   6.110   6.584 -0.9273 -0.2529 -0.7685
  525MOL0     H69281   5.944   5.955   6.544 -1.2691  1.1792  3.1868
  525MOL0     H69282   6.672   5.418   6.661  1.3682  1.7944 -1.2300
  525MOL0     H69283   6.863   5.517   6.758  0.5923  0.8723  1.6517
  525MOL0     H69284   7.065   6.011   6.874  0.7861  0.5590  0.1541
  525MOL0     H69285   7.223   6.127   6.994 -0.1478  0.8141  1.0902
  525MOL0     H69286   8.970   5.721   6.785 -0.5536  1.5840 -0.2423
  525MOL0     H69287   9.207   5.679   6.737 -1.7890 -0.3177  0.5966
  525MOL0     H69288   9.612   5.659   6.738 -1.2450  1.3272  0.5147
  525MOL0     H69289   9.828   5.544   6.721 -0.9467  3.2972 -1.5456
  525MOL0     H69290  10.007   5.423   6.744  1.2432 -4.3013  2.1915
  525MOL0     H69291  10.160   5.407   6.840  0.4781  0.3793 -0.1876
  525MOL0     H69292  10.146   5.561   6.631  1.7426 -0.0119  0.0932
  525MOL0     H69293  10.066   5.682   6.734 -1.2871 -1.6567  1.2121
  525MOL0     H69294  10.302   5.732   6.710 -0.1742 -0.5880 -0.4224
  525MOL0     H69295  10.330   5.569   6.752  1.5730  2.1232 -1.5324
  525MOL0     H69296  10.208   5.786   6.936  1.5578  1.0222  1.3212
  525MOL0     H69297  10.250   5.615   6.988 -3.4061  3.3065  3.3221
  525MOL0     H69298  10.627   5.814   6.980  1.8938 -2.0045 -3.1121
  525MOL0     H69299   9.932   5.650   7.121  0.2018  0.1528 -0.7331
  525MOL0     H69300   9.714   5.739   7.152 -0.7540 -3.4442  0.7336
  526MOL0     O69301   3.373   1.795   4.315  0.2381  0.1292 -0.4088
  526MOL0     C69302   3.421   1.906   4.331  0.2628 -0.6583  0.0335
  526MOL0     O69303   3.377   2.017   4.266  0.0083  0.2424  0.1524
  526MOL0     C69304   3.267   2.002   4.185  0.2402 -0.6595  0.1958
  526MOL0     C69305   3.142   1.979   4.246 -1.4834 -1.3354 -0.7106
  526MOL0     C69306   3.021   1.956   4.181 -0.4040  0.2984  0.2809
  526MOL0     C69307   3.032   1.970   4.043 -0.5216  0.2909  0.0236
  526MOL0     O69308   2.915   1.966   3.976  0.7419  0.0050  0.0369
  526MOL0     C69309   2.900   2.034   3.848  0.5607  0.1991  0.4859
  526MOL0     C69310   2.747   2.029   3.802  0.0116 -0.1552 -0.9176
  526MOL0     C69311   2.726   2.126   3.679  0.9235  0.3231 -0.5918
  526MOL0     C69312   2.818   2.114   3.559  0.2423  1.2442 -1.1836
  526MOL0     C69313   2.795   2.227   3.458 -0.1928  0.4204  0.0886
  526MOL0     C69314   2.906   2.239   3.354 -0.2637 -0.6759  0.8777
  526MOL0     C69315   2.929   2.120   3.260  0.2274  0.0792 -0.3342
  526MOL0     C69316   2.802   2.068   3.197 -0.0840 -0.5118 -0.5395
  526MOL0     N69317   2.741   1.949   3.266  0.2852  0.1441  1.1064
  526MOL0     C69318   2.612   1.929   3.305  0.3875  0.0722  0.8966
  526MOL0     C69319   2.590   1.794   3.285  0.5517  0.0129 -0.8437
  526MOL0     C69320   2.464   1.719   3.309  0.9701 -0.8858 -0.1010
  526MOL0     C69321   2.342   1.787   3.241  0.6785 -0.2472  0.7529
  526MOL0     C69322   2.202   1.719   3.252 -0.6444 -0.7536 -0.8373
  526MOL0     C69323   2.097   1.787   3.159 -0.1886  0.2885 -0.2479
  526MOL0     O69324   2.076   1.925   3.184  0.0718  0.6908 -0.5606
  526MOL0     C69325   1.971   1.987   3.132  0.0382 -1.0485 -0.9924
  526MOL0     C69326   1.920   2.096   3.199 -0.6006 -0.0189  0.4968
  526MOL0     C69327   1.791   2.143   3.150  0.6424  0.0920 -0.1160
  526MOL0     C69328   1.717   2.097   3.041  0.3843 -0.1929  0.6780
  526MOL0     C69329   1.583   2.146   2.992 -0.0373 -0.5394 -0.1268
  526MOL0     O69330   1.555   2.126   2.857 -0.7526 -0.5583  0.1158
  526MOL0     C69331   1.426   2.140   2.813  0.1120 -0.0814 -0.7886
  526MOL0     C69332   1.396   2.235   2.714 -0.7071  0.2021  0.3731
  526MOL0     C69333   1.265   2.246   2.659 -0.2029 -0.4668  0.5680
  526MOL0     C69334   1.173   2.150   2.689  0.5714  0.0420 -1.0724
  526MOL0     O69335   1.049   2.147   2.650  0.4820  0.2406  0.0381
  526MOL0     C69336   0.982   2.262   2.614 -0.3259 -0.0653  0.4922
  526MOL0     C69337   0.830   2.249   2.623  0.9172 -0.4323 -0.8665
  526MOL0     C69338   0.784   2.185   2.764 -0.8054  0.1198  0.1689
  526MOL0     C69339   0.625   2.182   2.779 -0.9907 -0.2485 -0.7235
  526MOL0     C69340   0.541   2.088   2.683 -0.0750 -0.2869 -0.3810
  526MOL0     C69341   0.393   2.066   2.728  0.7994 -0.2781  0.7233
  526MOL0     C69342   0.310   2.190   2.687 -0.1202  0.7294 -1.2050
  526MOL0     C69343   0.163   2.180   2.749 -0.0129 -0.2984  0.1156
  526MOL0    Cl69344   0.162   2.232   2.918  0.2602 -0.0167  0.5580
  526MOL0     C69345   1.204   2.049   2.784 -0.1776  0.4691 -0.8197
  526MOL0     C69346   1.329   2.040   2.845 -0.0501  0.9446  0.3399
  526MOL0     O69347   1.516   2.224   3.068 -0.3875  0.2435  0.4279
  526MOL0     C69348   1.782   1.978   2.977  0.3315 -0.8025 -0.2405
  526MOL0     C69349   1.903   1.932   3.025  0.5227  0.0741 -0.0863
  526MOL0     N69350   2.706   1.738   3.243  0.7302 -0.5025 -0.9270
  526MOL0     N69351   2.795   1.836   3.219  0.4916  0.6639 -0.4644
  526MOL0     C69352   3.158   1.984   3.981 -0.0412 -0.4135 -0.7461
  526MOL0     C69353   3.268   2.001   4.047  0.0619  0.8071  0.2995
  526MOL0     C69354   3.541   1.922   4.412 -0.0580  1.2275  0.0685
  526MOL0     C69355   3.581   2.050   4.458 -0.2276 -0.4399 -1.1180
  526MOL0     C69356   3.685   2.065   4.551 -0.9796 -0.1769  0.0743
  526MOL0     C69357   3.763   1.958   4.585 -0.1631 -0.3220 -0.8969
  526MOL0     O69358   3.874   1.966   4.658 -0.2478 -0.2869  0.4101
  526MOL0     C69359   3.997   1.958   4.581 -1.1258 -0.7096 -0.5085
  526MOL0     C69360   4.121   1.969   4.671  0.8225 -0.3879 -0.7064
  526MOL0     C69361   4.127   2.109   4.748 -0.2676  0.4319 -0.2544
  526MOL0     C69362   4.261   2.111   4.826 -0.0550  0.9606 -0.1822
  526MOL0     C69363   4.270   2.013   4.928  0.3835 -0.8216 -0.1765
  526MOL0     C69364   4.288   1.950   5.030  0.3163 -0.0126  0.0429
  526MOL0     C69365   3.716   1.834   4.543 -0.4867 -0.1501  0.3425
  526MOL0     C69366   3.614   1.811   4.456  0.8391 -0.1792  0.1925
  526MOL0     H69367   3.136   1.984   4.354 -2.3842 -0.7169 -0.7746
  526MOL0     H69368   2.936   1.933   4.243 -0.4833 -1.1910 -0.3370
  526MOL0     H69369   2.963   1.985   3.773  1.0294  0.3533  0.7768
  526MOL0     H69370   2.942   2.135   3.851  0.8557  0.2645 -2.6189
  526MOL0     H69371   2.681   2.060   3.883  2.1572  3.1882 -0.2502
  526MOL0     H69372   2.717   1.927   3.775  0.5195 -0.8387  0.9653
  526MOL0     H69373   2.739   2.230   3.712  1.3918 -0.1703  0.8282
  526MOL0     H69374   2.621   2.123   3.649  0.1449 -0.0797  1.9056
  526MOL0     H69375   2.922   2.116   3.592 -0.3472  0.7013  0.8242
  526MOL0     H69376   2.794   2.018   3.513 -1.6631  1.1429 -0.0957
  526MOL0     H69377   2.795   2.318   3.518 -1.4788 -1.1339  2.5961
  526MOL0     H69378   2.693   2.230   3.419 -1.1314 -2.5950  2.0115
  526MOL0     H69379   3.004   2.266   3.395  1.2305 -0.6502 -2.3890
  526MOL0     H69380   2.871   2.321   3.291  1.1784 -2.6063 -2.7506
  526MOL0     H69381   3.004   2.141   3.184  1.7675  0.6680  1.2625
  526MOL0     H69382   2.966   2.036   3.320 -2.5494 -0.0172  1.4496
  526MOL0     H69383   2.829   2.045   3.094  0.8194 -2.8009  0.1530
  526MOL0     H69384   2.722   2.143   3.195 -1.3120 -1.7623  0.2376
  526MOL0     H69385   2.545   2.008   3.338  0.1075  0.1099  0.2307
  526MOL0     H69386   2.439   1.715   3.415 -1.0157 -0.6421 -0.5149
  526MOL0     H69387   2.467   1.623   3.256  1.0270  0.0414 -1.8781
  526MOL0     H69388   2.360   1.799   3.133  3.0758  0.1853  1.1392
  526MOL0     H69389   2.329   1.886   3.284 -0.8698 -0.3118  0.4904
  526MOL0     H69390   2.203   1.610   3.241  1.9215 -1.1255  1.8446
  526MOL0     H69391   2.166   1.733   3.354 -0.0395 -2.2052 -0.4013
  526MOL0     H69392   2.006   1.728   3.173  0.8574 -1.2535  0.4663
  526MOL0     H69393   2.121   1.756   3.057  1.7238 -2.6066  0.9386
  526MOL0     H69394   1.972   2.153   3.276 -0.3455  0.3595  0.0508
  526MOL0     H69395   1.741   2.232   3.188  2.4993  1.6080 -1.0433
  526MOL0     H69396   1.469   2.309   2.683  1.6113 -2.4809 -1.0226
  526MOL0     H69397   1.232   2.323   2.590  2.3382 -0.6834 -1.0267
  526MOL0     H69398   1.005   2.277   2.508  0.0168 -0.8141  0.4491
  526MOL0     H69399   1.015   2.342   2.680 -1.1021 -0.4214  1.3389
  526MOL0     H69400   0.774   2.189   2.550 -1.7024 -0.0147  0.6621
  526MOL0     H69401   0.783   2.348   2.616  0.1422 -0.7949 -0.9608
  526MOL0     H69402   0.816   2.242   2.852 -1.6323  3.5383 -1.5493
  526MOL0     H69403   0.810   2.079   2.769 -1.2165  0.0697  2.7209
  526MOL0     H69404   0.601   2.149   2.881 -0.2569 -0.6390 -0.6646
  526MOL0     H69405   0.597   2.287   2.769 -0.5244 -0.2480 -2.3368
  526MOL0     H69406   0.579   1.985   2.684 -0.9504 -0.6223 -0.9419
  526MOL0     H69407   0.551   2.126   2.581  0.1396 -1.8057 -0.9602
  526MOL0     H69408   0.398   2.045   2.836  4.0114  1.2712  1.0037
  526MOL0     H69409   0.339   1.982   2.683 -0.2542  2.0593 -2.7734
  526MOL0     H69410   0.351   2.281   2.733 -1.4582  0.3723  0.8039
  526MOL0     H69411   0.307   2.198   2.578  0.8548 -2.7741 -1.5891
  526MOL0     H69412   0.135   2.074   2.741 -1.7247 -0.1652  2.9883
  526MOL0     H69413   0.098   2.240   2.684 -3.7468 -1.1152  2.7859
  526MOL0     H69414   1.124   1.994   2.832  0.2118  0.4880 -0.1345
  526MOL0     H69415   1.354   1.975   2.928 -0.7511  0.9523  0.5650
  526MOL0     H69416   1.728   1.930   2.896  1.9098 -3.3249  0.0557
  526MOL0     H69417   1.961   1.859   2.969 -1.4231 -0.6328 -1.2591
  526MOL0     H69418   3.160   2.004   3.874 -2.5360 -4.8786 -1.8472
  526MOL0     H69419   3.363   2.009   3.996  1.0450 -1.7418  1.5638
  526MOL0     H69420   3.536   2.138   4.413 -0.5709 -1.3366 -2.6011
  526MOL0     H69421   3.709   2.169   4.574  2.2951 -0.4974 -1.2531
  526MOL0     H69422   3.998   2.041   4.510  0.2918  1.0689  1.4558
  526MOL0     H69423   3.995   1.864   4.525 -0.0214 -0.3668 -1.1482
  526MOL0     H69424   4.114   1.897   4.752 -2.1832  1.1712  0.5691
  526MOL0     H69425   4.211   1.948   4.612 -0.7189 -3.8412 -2.0912
  526MOL0     H69426   4.042   2.125   4.815 -2.0930  1.6571 -2.6658
  526MOL0     H69427   4.122   2.185   4.669  1.0988  0.7571 -0.0478
  526MOL0     H69428   4.335   2.104   4.747 -2.0084 -2.9630 -1.9227
  526MOL0     H69429   4.255   2.211   4.869 -2.0384  0.4989  0.7557
  526MOL0     H69430   4.322   1.897   5.117 -2.5565 -3.5626 -0.7768
  526MOL0     H69431   3.761   1.745   4.588  2.6284  1.8458  1.4857
  526MOL0     H69432   3.593   1.705   4.446 -0.0004 -0.1701  1.6104
  527MOL0     O69433   8.603  11.157  10.833 -0.6065  0.4218 -0.4753
  527MOL0     C69434   8.659  11.088  10.753  0.0147 -0.1800  0.1714
  527MOL0     O69435   8.741  11.128  10.647  0.5672 -0.5062  0.3412
  527MOL0     C69436   8.796  11.261  10.669  0.2106 -0.9688  0.4262
  527MOL0     C69437   8.722  11.378  10.630 -0.1821 -0.1039 -0.6508
  527MOL0     C69438   8.774  11.508  10.654  0.1158  0.3024 -0.6077
  527MOL0     C69439   8.899  11.525  10.711 -0.6909  1.0890  0.8010
  527MOL0     O69440   8.949  11.648  10.749  0.1909 -0.2677  0.5811
  527MOL0     C69441   8.917  11.679  10.893 -0.4718  0.3810  0.7691
  527MOL0     C69442   8.919  11.825  10.929  0.4820  0.7159 -0.8608
  527MOL0     C69443   8.820  11.913  10.835 -0.1575 -0.1220  0.2442
  527MOL0     C69444   8.754  12.032  10.907 -0.5904  0.7837 -0.2738
  527MOL0     C69445   8.628  11.977  10.966  0.3205 -0.0210  0.8668
  527MOL0     C69446   8.558  12.088  11.047  1.3396  0.3567 -0.2143
  527MOL0     C69447   8.621  12.102  11.182  0.3497 -0.0031 -0.5970
  527MOL0     C69448   8.523  12.153  11.280  0.3904 -0.8757 -0.1462
  527MOL0     N69449   8.473  12.288  11.253  0.5533 -1.3375  0.2710
  527MOL0     C69450   8.543  12.402  11.277 -0.4673 -0.2243  0.3352
  527MOL0     C69451   8.464  12.489  11.217 -0.3971 -1.0316 -0.0493
  527MOL0     C69452   8.483  12.642  11.214  0.1221 -0.0112  0.3390
  527MOL0     C69453   8.612  12.684  11.141  0.2956 -0.0314 -0.6814
  527MOL0     C69454   8.604  12.674  10.986 -0.7966  1.3346  0.7770
  527MOL0     C69455   8.588  12.802  10.910 -0.1002 -0.3451 -0.5697
  527MOL0     O69456   8.446  12.839  10.916  0.1050  0.4674 -1.2007
  527MOL0     C69457   8.426  12.977  10.904 -0.8844  0.8070  0.2599
  527MOL0     C69458   8.315  13.025  10.967  0.0529 -0.7201 -0.8575
  527MOL0     C69459   8.270  13.163  10.943 -0.1589 -0.1145  0.1413
  527MOL0     C69460   8.347  13.246  10.866 -0.1645 -1.1038  0.6308
  527MOL0     C69461   8.307  13.388  10.829 -0.4880  0.4154 -0.9298
  527MOL0     O69462   8.200  13.442  10.885  0.8300  0.0913  0.4527
  527MOL0     C69463   8.172  13.572  10.872  0.8703  0.2746 -0.2545
  527MOL0     C69464   8.164  13.644  10.749  0.7918  0.6382 -0.7961
  527MOL0     C69465   8.118  13.776  10.754 -0.0652 -0.1758  0.1631
  527MOL0     C69466   8.079  13.845  10.867 -0.2618  0.1401  0.8223
  527MOL0     O69467   8.028  13.973  10.860 -0.4872 -0.1500 -0.2126
  527MOL0     C69468   8.096  14.081  10.933  0.7369  0.7799 -0.2739
  527MOL0     C69469   8.145  14.179  10.828  0.5253  0.4209  0.4659
  527MOL0     C69470   8.040  14.273  10.763 -1.0727 -0.0266 -0.6665
  527MOL0     C69471   8.115  14.386  10.680  0.3155 -0.6795  0.4451
  527MOL0     C69472   8.019  14.478  10.610  0.7739 -0.6089 -1.1794
  527MOL0     C69473   7.893  14.511  10.695 -0.0042 -0.0019 -0.1521
  527MOL0     C69474   7.788  14.597  10.612 -0.6029 -0.0711  0.1244
  527MOL0     C69475   7.664  14.635  10.702  0.8126  0.2184  0.3835
  527MOL0    Cl69476   7.505  14.623  10.614 -0.0887  0.3192 -0.2850
  527MOL0     C69477   8.082  13.767  10.987  0.3475 -0.4067  0.2084
  527MOL0     C69478   8.124  13.635  10.989 -1.8641  0.8111  0.0026
  527MOL0     O69479   8.381  13.450  10.755  0.5619  0.3238 -0.9572
  527MOL0     C69480   8.467  13.191  10.805  0.6617  0.7797  0.0958
  527MOL0     C69481   8.506  13.062  10.828  0.3912 -1.2229 -0.6320
  527MOL0     N69482   8.353  12.434  11.165  0.6832  0.4062 -0.1879
  527MOL0     N69483   8.361  12.307  11.182  0.1135  0.2266  0.1721
  527MOL0     C69484   8.979  11.408  10.721 -0.0548 -0.0110  1.0406
  527MOL0     C69485   8.923  11.280  10.711 -0.8410 -0.7790  0.1440
  527MOL0     C69486   8.652  10.949  10.764 -0.6895  0.9744  1.0491
  527MOL0     C69487   8.696  10.860  10.662  0.4530  0.1532  0.7692
  527MOL0     C69488   8.688  10.723  10.684  0.7692  0.0359 -0.7513
  527MOL0     C69489   8.632  10.667  10.803 -0.2979 -0.3032  0.9101
  527MOL0     O69490   8.629  10.537  10.820 -0.4676  0.0582 -0.1632
  527MOL0     C69491   8.572  10.478  10.941  0.0535  0.2903 -0.5886
  527MOL0     C69492   8.596  10.330  10.938 -0.2646  0.5226  0.7826
  527MOL0     C69493   8.541  10.261  11.068  0.0389  0.6715 -0.4208
  527MOL0     C69494   8.541  10.110  11.058 -0.5026 -1.0067 -0.5748
  527MOL0     C69495   8.679  10.053  11.034  0.4488  0.3557  0.0698
  527MOL0     C69496   8.792  10.013  11.010 -0.3033  0.5317 -0.5351
  527MOL0     C69497   8.582  10.751  10.902 -0.0952 -0.4001 -0.3534
  527MOL0     C69498   8.597  10.888  10.884 -0.9439 -0.0252  0.0161
  527MOL0     H69499   8.622  11.360  10.594 -1.1851  2.3935  0.6076
  527MOL0     H69500   8.709  11.592  10.629  1.0690  1.0132 -0.7582
  527MOL0     H69501   8.988  11.624  10.957 -3.0030 -3.1021  0.8820
  527MOL0     H69502   8.820  11.634  10.914  0.4692 -2.4687 -0.4521
  527MOL0     H69503   9.025  11.852  10.933  0.2914  1.3417  0.2009
  527MOL0     H69504   8.887  11.828  11.033 -1.6214  1.7651 -1.4773
  527MOL0     H69505   8.746  11.847  10.790 -0.6983  1.0841 -0.6728
  527MOL0     H69506   8.889  11.963  10.767  0.6150  0.6819  1.5653
  527MOL0     H69507   8.820  12.075  10.982 -0.9389  1.2901 -0.2511
  527MOL0     H69508   8.726  12.109  10.833 -0.6740 -0.0266 -1.1006
  527MOL0     H69509   8.655  11.890  11.027  0.3173 -1.5242 -1.1575
  527MOL0     H69510   8.563  11.945  10.884  0.1258 -0.3615  1.1457
  527MOL0     H69511   8.452  12.061  11.061  1.5245  0.3860  1.5541
  527MOL0     H69512   8.572  12.181  10.991  2.2938  0.9822  1.0026
  527MOL0     H69513   8.661  12.005  11.210  0.9046  0.8722  1.9903
  527MOL0     H69514   8.700  12.177  11.175 -0.7258  1.7594  3.3109
  527MOL0     H69515   8.571  12.167  11.378  2.5432 -2.5065 -0.8919
  527MOL0     H69516   8.436  12.088  11.273 -2.9058  3.2247 -1.2533
  527MOL0     H69517   8.637  12.400  11.331 -0.6799 -2.4073  0.7157
  527MOL0     H69518   8.497  12.684  11.314 -0.4392  0.3183  0.2817
  527MOL0     H69519   8.399  12.694  11.167  0.8432 -0.0646 -1.0637
  527MOL0     H69520   8.694  12.621  11.177  0.3776  2.2716  3.9046
  527MOL0     H69521   8.634  12.788  11.168 -1.3625  0.2579 -0.3324
  527MOL0     H69522   8.705  12.643  10.958 -0.0634  5.8373 -2.8108
  527MOL0     H69523   8.540  12.593  10.951 -1.7402  2.3258  0.1637
  527MOL0     H69524   8.621  12.788  10.807  0.7869  0.6824 -0.4354
  527MOL0     H69525   8.652  12.878  10.956 -0.4278 -0.7972  0.6718
  527MOL0     H69526   8.257  12.950  11.018  0.5211 -0.9112 -0.5983
  527MOL0     H69527   8.178  13.202  10.986 -0.1865  0.1886 -0.1892
  527MOL0     H69528   8.202  13.592  10.661  0.5131 -1.0329  0.0404
  527MOL0     H69529   8.102  13.832  10.662 -0.1743 -0.9786 -0.3178
  527MOL0     H69530   8.182  14.055  10.995  0.0637  2.6581  1.5555
  527MOL0     H69531   8.029  14.132  11.002 -3.1027 -0.6146 -2.6353
  527MOL0     H69532   8.202  14.131  10.748  1.6856  0.9016  0.9692
  527MOL0     H69533   8.214  14.247  10.879 -0.2415  1.6828 -0.1314
  527MOL0     H69534   7.977  14.310  10.845 -0.4394 -1.5849  0.5689
  527MOL0     H69535   7.977  14.220  10.691 -0.3199  0.3206 -1.6045
  527MOL0     H69536   8.160  14.452  10.755 -3.1148 -1.5218  3.5650
  527MOL0     H69537   8.181  14.349  10.602 -2.5066 -2.3143 -1.3310
  527MOL0     H69538   7.987  14.458  10.507  0.8836  1.2371 -1.6101
  527MOL0     H69539   8.070  14.575  10.610 -0.0284 -0.1493  0.2814
  527MOL0     H69540   7.925  14.566  10.784  2.4945 -3.2174  1.1456
  527MOL0     H69541   7.845  14.417  10.727 -1.1125 -0.9900 -4.0933
  527MOL0     H69542   7.833  14.689  10.574 -2.6063  1.1248  0.4921
  527MOL0     H69543   7.764  14.533  10.526 -0.6903  1.7687 -1.3031
  527MOL0     H69544   7.671  14.734  10.748  1.6880 -0.2512  1.2982
  527MOL0     H69545   7.659  14.562  10.783  0.2164  2.5860  2.6240
  527MOL0     H69546   8.048  13.822  11.074  0.8474 -2.0816  1.5031
  527MOL0     H69547   8.115  13.575  11.079 -0.9589 -1.9292 -1.5879
  527MOL0     H69548   8.525  13.241  10.728 -1.2473  0.7355 -1.4376
  527MOL0     H69549   8.595  13.035  10.770  0.4214 -0.5834 -0.8844
  527MOL0     H69550   9.083  11.414  10.750  0.0413  0.7017  0.5744
  527MOL0     H69551   8.987  11.193  10.728  2.9199  1.2439 -2.0933
  527MOL0     H69552   8.751  10.898  10.577 -0.1828  1.4126  0.9010
  527MOL0     H69553   8.734  10.652  10.616 -0.4585  0.0585 -1.6510
  527MOL0     H69554   8.463  10.486  10.943 -0.2577 -2.6004 -1.4782
  527MOL0     H69555   8.614  10.517  11.033  0.2676 -2.2567  0.4841
  527MOL0     H69556   8.551  10.286  10.849  1.9223  3.0385 -1.7665
  527MOL0     H69557   8.700  10.295  10.931 -0.4224  0.0048  0.9751
  527MOL0     H69558   8.438  10.294  11.083  0.1122  2.8221 -3.6150
  527MOL0     H69559   8.595  10.293  11.157 -0.4198 -3.0896  1.3858
  527MOL0     H69560   8.508  10.062  11.151 -0.8486 -0.5466 -0.4569
  527MOL0     H69561   8.463  10.072  10.992 -2.0067  1.2057 -0.1700
  527MOL0     H69562   8.893  10.003  10.976  0.6581  2.1187  1.5914
  527MOL0     H69563   8.520  10.723  10.987  0.2751 -1.4681 -0.4154
  527MOL0     H69564   8.545  10.951  10.956 -1.7468  0.4689 -0.9715
  528MOL0     O69565   8.734   6.581   4.040 -0.2538 -0.1000 -0.0895
  528MOL0     C69566   8.724   6.505   4.132 -0.1982 -0.3225 -0.4600
  528MOL0     O69567   8.619   6.411   4.144  0.7940  0.2305 -0.7311
  528MOL0     C69568   8.534   6.389   4.038 -0.7112 -0.3539  0.0439
  528MOL0     C69569   8.571   6.308   3.932 -0.0194 -0.4335 -0.0022
  528MOL0     C69570   8.491   6.293   3.823  0.1663  1.0196  0.4295
  528MOL0     C69571   8.360   6.346   3.818  0.5421  0.0498 -0.0974
  528MOL0     O69572   8.277   6.339   3.707  0.5749  1.0621  0.5511
  528MOL0     C69573   8.141   6.293   3.723 -0.7800  0.1223 -0.3833
  528MOL0     C69574   8.141   6.136   3.751 -0.5387  0.1307  0.6619
  528MOL0     C69575   8.004   6.085   3.720  0.3958  0.0899  0.1797
  528MOL0     C69576   7.903   6.123   3.833 -0.0927 -0.1715  0.0950
  528MOL0     C69577   7.754   6.139   3.789  0.5315  0.6528 -0.4673
  528MOL0     C69578   7.643   6.171   3.891  0.4911  0.0774 -0.0649
  528MOL0     C69579   7.505   6.175   3.838  0.3864 -0.0694 -0.4525
  528MOL0     C69580   7.397   6.168   3.949 -0.6054  0.4320 -1.2276
  528MOL0     N69581   7.270   6.130   3.909  0.1796  0.3441 -0.6952
  528MOL0     C69582   7.231   6.087   3.786 -1.0757 -0.2089 -0.2247
  528MOL0     C69583   7.093   6.075   3.783 -0.2546  0.4390 -0.1040
  528MOL0     C69584   7.009   6.010   3.667 -0.3062 -0.3422  1.1528
  528MOL0     C69585   6.881   6.083   3.630 -0.3566  0.2973  0.2093
  528MOL0     C69586   6.772   5.996   3.571  0.1133  0.3169 -0.4414
  528MOL0     C69587   6.827   5.925   3.445  0.2352  0.2331 -0.4593
  528MOL0     O69588   6.758   5.807   3.400 -0.0645 -0.9599 -0.8994
  528MOL0     C69589   6.631   5.827   3.363  0.3353 -0.6713 -0.3890
  528MOL0     C69590   6.583   5.955   3.316 -0.8582 -0.3059 -0.0584
  528MOL0     C69591   6.454   5.976   3.270  0.3880  0.5512 -0.3913
  528MOL0     C69592   6.358   5.870   3.276 -1.2652 -0.2923 -0.1231
  528MOL0     C69593   6.218   5.884   3.231 -1.2075 -0.0842  0.2247
  528MOL0     O69594   6.151   5.768   3.221 -0.1068  0.0182 -0.3370
  528MOL0     C69595   6.015   5.758   3.193  0.6627  0.0305 -0.9367
  528MOL0     C69596   5.939   5.838   3.104 -0.7285 -0.2519  0.8197
  528MOL0     C69597   5.807   5.811   3.077  0.0927  0.8172  0.0191
  528MOL0     C69598   5.739   5.714   3.153 -0.0671  0.4435 -0.5505
  528MOL0     O69599   5.604   5.699   3.154 -0.1667 -0.3897  0.0304
  528MOL0     C69600   5.557   5.581   3.098 -0.4449 -0.4238 -0.0942
  528MOL0     C69601   5.463   5.603   2.988  0.2224  0.0299  0.7348
  528MOL0     C69602   5.525   5.660   2.862 -0.7356 -0.2140 -0.5754
  528MOL0     C69603   5.413   5.681   2.755 -0.4158 -0.8313  0.5756
  528MOL0     C69604   5.468   5.765   2.640  0.3527 -0.1220 -1.0828
  528MOL0     C69605   5.386   5.766   2.506 -0.7800 -0.0105  0.5438
  528MOL0     C69606   5.253   5.831   2.535  0.0522  0.2198  0.2034
  528MOL0     C69607   5.165   5.836   2.408  0.7651 -0.1371 -0.5604
  528MOL0    Cl69608   5.239   5.929   2.277 -0.2834 -0.6256  0.6721
  528MOL0     C69609   5.808   5.642   3.248 -0.6992  0.6483  0.6629
  528MOL0     C69610   5.947   5.655   3.258  0.1033  0.1930 -0.8271
  528MOL0     O69611   6.172   5.991   3.210 -0.2540 -0.0074  0.1263
  528MOL0     C69612   6.403   5.747   3.338 -0.9499  0.0679 -0.3568
  528MOL0     C69613   6.541   5.725   3.382  0.5738 -0.0342  0.4554
  528MOL0     N69614   7.052   6.130   3.907  0.9388 -0.0977 -0.2459
  528MOL0     N69615   7.156   6.164   3.978 -0.5141 -0.0686  0.7845
  528MOL0     C69616   8.316   6.428   3.932  0.0710 -0.6055  0.5500
  528MOL0     C69617   8.407   6.449   4.035  0.4423 -0.3079 -1.1202
  528MOL0     C69618   8.809   6.526   4.251 -0.6398 -0.2241  0.9402
  528MOL0     C69619   8.887   6.650   4.268 -0.1030  1.1092  0.2339
  528MOL0     C69620   8.958   6.673   4.384 -1.2391 -0.9638 -0.0815
  528MOL0     C69621   8.972   6.576   4.487 -0.0215 -0.3627  0.2910
  528MOL0     O69622   9.039   6.593   4.605 -0.4939  0.6152  0.3954
  528MOL0     C69623   9.099   6.719   4.642 -0.7237  0.3506 -0.1953
  528MOL0     C69624   9.173   6.708   4.770  0.2668  0.0459  0.0369
  528MOL0     C69625   9.217   6.852   4.818 -0.3083  0.2059  0.6295
  528MOL0     C69626   9.191   6.879   4.972  0.1817 -0.2043  0.6155
  528MOL0     C69627   9.241   7.014   5.004  0.0960  0.1050 -0.7539
  528MOL0     C69628   9.303   7.103   5.056  0.1333 -0.1250 -0.9998
  528MOL0     C69629   8.902   6.454   4.473  0.0842 -0.4042 -0.0676
  528MOL0     C69630   8.830   6.433   4.354  0.5184  0.3628 -0.4490
  528MOL0     H69631   8.665   6.256   3.952  0.1033  0.4111  1.7609
  528MOL0     H69632   8.541   6.220   3.760 -1.6524 -2.1228  2.3799
  528MOL0     H69633   8.102   6.301   3.621 -1.4052 -0.6562 -0.2173
  528MOL0     H69634   8.078   6.339   3.800 -2.2350  0.3416 -1.6539
  528MOL0     H69635   8.173   6.102   3.849  1.7235 -1.3884 -0.5179
  528MOL0     H69636   8.203   6.088   3.675 -0.9292 -1.2527  1.1983
  528MOL0     H69637   8.006   5.976   3.717 -1.2853 -0.0582  2.1251
  528MOL0     H69638   7.972   6.116   3.620 -0.7234 -0.6788  0.2802
  528MOL0     H69639   7.916   6.039   3.903 -0.5633 -0.4700 -0.1715
  528MOL0     H69640   7.934   6.209   3.892  1.3427 -1.7916  1.8209
  528MOL0     H69641   7.725   6.040   3.751  4.5775 -0.3737 -1.4531
  528MOL0     H69642   7.758   6.206   3.703  2.9466 -0.4315 -1.3090
  528MOL0     H69643   7.662   6.268   3.936  0.3176  0.1791 -0.2110
  528MOL0     H69644   7.650   6.094   3.968 -1.6415  0.0143  0.1169
  528MOL0     H69645   7.488   6.262   3.775 -0.8445  0.7106  0.9144
  528MOL0     H69646   7.495   6.079   3.785 -0.3759 -1.6118  2.2744
  528MOL0     H69647   7.400   6.257   4.013 -1.7358 -1.0034  0.9477
  528MOL0     H69648   7.426   6.081   4.009 -1.2798 -0.2729 -1.9000
  528MOL0     H69649   7.299   6.076   3.702 -1.6997 -0.9039 -0.6619
  528MOL0     H69650   6.980   5.908   3.692  1.3561 -1.2416 -0.3262
  528MOL0     H69651   7.074   5.983   3.583 -1.3215  1.4408 -0.2642
  528MOL0     H69652   6.890   6.180   3.580 -1.2019  1.8048  2.7667
  528MOL0     H69653   6.836   6.118   3.723  0.5578  0.1067  0.7351
  528MOL0     H69654   6.736   5.922   3.643 -1.0974 -0.6306 -1.9580
  528MOL0     H69655   6.692   6.065   3.543 -0.7500 -0.7757 -0.7609
  528MOL0     H69656   6.926   5.879   3.457 -0.0455 -0.7516 -1.6554
  528MOL0     H69657   6.838   6.000   3.366  1.1451  0.4746 -0.1192
  528MOL0     H69658   6.644   6.043   3.298 -3.3892  1.2123 -1.8818
  528MOL0     H69659   6.435   6.074   3.227  3.9881  1.3269 -0.5165
  528MOL0     H69660   5.989   5.906   3.036  0.0120 -0.6524  0.9567
  528MOL0     H69661   5.763   5.877   3.003 -2.5927 -1.2522 -0.3650
  528MOL0     H69662   5.507   5.517   3.172 -0.4923  0.5900  0.7672
  528MOL0     H69663   5.637   5.521   3.053 -0.3467  0.8312 -1.6895
  528MOL0     H69664   5.385   5.674   3.019 -0.5550 -2.0373  3.9273
  528MOL0     H69665   5.414   5.510   2.961 -0.4108  0.8914 -1.2508
  528MOL0     H69666   5.597   5.591   2.817 -0.2178  1.9114 -3.2716
  528MOL0     H69667   5.578   5.752   2.888 -3.2353  1.8689 -2.3839
  528MOL0     H69668   5.385   5.581   2.721  0.5798 -1.5827  1.8197
  528MOL0     H69669   5.331   5.743   2.792 -1.1103 -2.1003  1.2541
  528MOL0     H69670   5.572   5.737   2.622  0.9134  0.9089  0.3345
  528MOL0     H69671   5.467   5.867   2.680  1.5572 -0.6857  0.5085
  528MOL0     H69672   5.374   5.662   2.475 -0.4663  0.3109 -0.7070
  528MOL0     H69673   5.443   5.821   2.431  0.8822 -1.2691  0.8214
  528MOL0     H69674   5.203   5.783   2.620  0.3555 -1.0340 -0.3044
  528MOL0     H69675   5.272   5.936   2.562  0.6336  0.1566  0.0499
  528MOL0     H69676   5.070   5.885   2.430  0.8583 -0.8936  1.7293
  528MOL0     H69677   5.137   5.738   2.370 -0.3430  0.1323 -0.4688
  528MOL0     H69678   5.756   5.570   3.309 -0.9038  0.9887  0.8948
  528MOL0     H69679   5.996   5.583   3.322 -1.4343  1.9317  2.5495
  528MOL0     H69680   6.327   5.673   3.361 -0.5932  0.3960  2.2254
  528MOL0     H69681   6.568   5.634   3.435  0.4634  0.0426  0.6460
  528MOL0     H69682   8.219   6.475   3.943  0.2270 -0.2569  0.4609
  528MOL0     H69683   8.392   6.518   4.118 -0.7035 -0.6054 -1.0668
  528MOL0     H69684   8.886   6.712   4.180  2.0535  1.6860  0.5548
  528MOL0     H69685   8.993   6.774   4.399  0.8079 -1.7354  0.7338
  528MOL0     H69686   9.027   6.801   4.640 -0.9296  0.2553  1.7624
  528MOL0     H69687   9.174   6.738   4.564 -0.4482  2.2383  0.4796
  528MOL0     H69688   9.103   6.666   4.843  0.2933 -0.4050 -0.1928
  528MOL0     H69689   9.266   6.651   4.766  1.0349  0.9961  2.5742
  528MOL0     H69690   9.159   6.925   4.761  0.5173  1.1651  0.9755
  528MOL0     H69691   9.319   6.865   4.779 -1.2594  1.1449 -1.7295
  528MOL0     H69692   9.086   6.863   5.000  0.5107  1.0934  2.8149
  528MOL0     H69693   9.244   6.802   5.028  3.0002  1.0386 -0.1494
  528MOL0     H69694   9.364   7.183   5.094  2.6929 -2.3990 -0.0435
  528MOL0     H69695   8.909   6.389   4.559 -2.0345 -0.1757  0.3468
  528MOL0     H69696   8.778   6.338   4.341 -0.3372  0.7947 -0.2503
  529MOL0     O69697   9.163   7.543   5.054  0.1174 -0.0082  0.1955
  529MOL0     C69698   9.124   7.632   5.130  0.6057 -0.2132  0.2597
  529MOL0     O69699   9.008   7.634   5.189 -0.2057 -0.4197  0.4026
  529MOL0     C69700   8.901   7.564   5.149  0.7696 -0.3877  0.8472
  529MOL0     C69701   8.863   7.555   5.011  0.0558  0.6722 -0.1685
  529MOL0     C69702   8.751   7.487   4.972 -0.4109 -0.5749  0.8453
  529MOL0     C69703   8.666   7.425   5.059  0.6413 -0.3769 -0.6429
  529MOL0     O69704   8.564   7.341   5.008 -0.3629  0.2889  0.2426
  529MOL0     C69705   8.438   7.389   5.056  0.3532  0.3236  0.7179
  529MOL0     C69706   8.329   7.280   5.021 -0.4791  0.3201  0.1522
  529MOL0     C69707   8.191   7.335   5.023 -0.1909 -0.8919 -0.0244
  529MOL0     C69708   8.148   7.399   4.893 -0.4643 -0.0556  0.1490
  529MOL0     C69709   8.027   7.484   4.895  0.1853 -0.2794  0.0090
  529MOL0     C69710   7.886   7.408   4.898  0.1571  0.3514 -0.8515
  529MOL0     C69711   7.773   7.516   4.895 -0.0388  0.6321  0.1516
  529MOL0     C69712   7.637   7.449   4.919 -0.4023 -0.1810  0.0169
  529MOL0     N69713   7.581   7.373   4.805  0.2176  0.0123 -0.1609
  529MOL0     C69714   7.451   7.351   4.779  0.3431 -0.3361  0.3398
  529MOL0     C69715   7.444   7.260   4.681  0.7098 -0.6771 -0.1006
  529MOL0     C69716   7.307   7.189   4.634  0.2350 -0.1030 -0.7997
  529MOL0     C69717   7.223   7.127   4.750 -0.6305 -0.4579 -0.4731
  529MOL0     C69718   7.109   7.034   4.714 -0.4110 -0.2258 -0.2288
  529MOL0     C69719   7.035   7.077   4.597  0.1007  0.4440  0.3888
  529MOL0     O69720   6.930   6.982   4.586  0.3876 -0.0752  0.6254
  529MOL0     C69721   6.837   6.996   4.483  0.2689  0.0191  0.7634
  529MOL0     C69722   6.720   6.930   4.502  0.7402 -0.5870  0.5605
  529MOL0     C69723   6.615   6.929   4.400 -0.3101 -0.1176 -0.7253
  529MOL0     C69724   6.641   7.004   4.282  0.4188  1.4949 -0.0251
  529MOL0     C69725   6.535   7.015   4.179  0.2139 -0.5016  0.4359
  529MOL0     O69726   6.492   6.887   4.132 -0.2473 -0.8109 -0.5148
  529MOL0     C69727   6.404   6.906   4.033 -1.1783  0.2445  0.4216
  529MOL0     C69728   6.443   6.956   3.903  0.9282  0.3227  0.3753
  529MOL0     C69729   6.363   6.955   3.794  0.0892  0.3679 -0.3306
  529MOL0     C69730   6.240   6.895   3.798 -0.0535 -0.5271  0.2740
  529MOL0     O69731   6.179   6.874   3.675  0.4560  0.2402 -0.7350
  529MOL0     C69732   6.048   6.805   3.688 -0.5561 -0.1666  0.2352
  529MOL0     C69733   5.984   6.795   3.552 -0.2538 -0.0700 -0.5462
  529MOL0     C69734   5.845   6.736   3.556  0.5081 -0.3541  0.2325
  529MOL0     C69735   5.801   6.721   3.409 -0.3545  0.0042  0.0539
  529MOL0     C69736   5.660   6.661   3.399 -0.1000  0.3592  0.1903
  529MOL0     C69737   5.622   6.624   3.252 -0.5228 -0.5921 -0.1602
  529MOL0     C69738   5.601   6.749   3.172  0.0478 -0.1033  0.7404
  529MOL0     C69739   5.581   6.734   3.026 -0.2624  0.1738 -0.3080
  529MOL0    Cl69740   5.606   6.897   2.950  0.3146  0.2022  0.0191
  529MOL0     C69741   6.197   6.846   3.924  0.5367  0.4398  0.4096
  529MOL0     C69742   6.275   6.863   4.039 -0.1213 -0.1281  0.3124
  529MOL0     O69743   6.503   7.128   4.141  0.1754 -0.6315 -0.3273
  529MOL0     C69744   6.756   7.080   4.271 -0.6581  0.5839  0.2526
  529MOL0     C69745   6.852   7.077   4.365 -0.3029  1.8275  0.1073
  529MOL0     N69746   7.575   7.221   4.637  0.1815 -1.0740 -0.0686
  529MOL0     N69747   7.649   7.297   4.704  0.0108  0.6127  0.1514
  529MOL0     C69748   8.702   7.419   5.197 -1.2372 -0.2623  0.0538
  529MOL0     C69749   8.823   7.488   5.238 -0.5417 -0.0154 -0.6472
  529MOL0     C69750   9.236   7.720   5.159  0.1996 -0.2328 -0.6736
  529MOL0     C69751   9.369   7.673   5.179  0.5780  0.3834  0.7965
  529MOL0     C69752   9.472   7.745   5.229 -0.1553 -0.2489  0.1337
  529MOL0     C69753   9.448   7.876   5.258 -0.5159  0.2035  0.9791
  529MOL0     O69754   9.536   7.962   5.306 -0.0809  0.7067 -0.2383
  529MOL0     C69755   9.670   7.928   5.274 -0.2039  0.2867 -0.3229
  529MOL0     C69756   9.777   8.030   5.299  0.4897 -0.0437 -0.3750
  529MOL0     C69757   9.734   8.149   5.207 -0.6905  0.0662 -0.1207
  529MOL0     C69758   9.859   8.246   5.190  0.7873 -0.2657 -0.6549
  529MOL0     C69759   9.940   8.220   5.072  0.6490 -0.4337  0.4599
  529MOL0     C69760  10.002   8.205   4.968 -0.2145 -0.5876 -0.3732
  529MOL0     C69761   9.322   7.934   5.246 -0.2883  0.1452  0.2470
  529MOL0     C69762   9.213   7.861   5.201 -0.0860  0.0134 -0.1917
  529MOL0     H69763   8.928   7.597   4.935 -2.9146  1.7157 -2.3009
  529MOL0     H69764   8.720   7.463   4.871 -0.3242 -1.2023  0.9627
  529MOL0     H69765   8.412   7.488   5.018 -0.1307 -0.6457 -1.6311
  529MOL0     H69766   8.427   7.404   5.164 -0.9052 -0.3183  0.6976
  529MOL0     H69767   8.331   7.191   5.084  2.4263 -0.2543 -0.6189
  529MOL0     H69768   8.346   7.242   4.920  0.1270  2.4416 -0.6046
  529MOL0     H69769   8.189   7.412   5.101 -0.6187 -2.0026  1.1059
  529MOL0     H69770   8.119   7.260   5.057 -1.4067  0.3082  0.1273
  529MOL0     H69771   8.236   7.455   4.860  1.7418 -1.6783  2.7217
  529MOL0     H69772   8.133   7.314   4.826  1.4345 -0.0727 -0.3143
  529MOL0     H69773   8.032   7.532   4.797  2.8267 -1.9911 -0.8138
  529MOL0     H69774   8.031   7.558   4.975  1.2407  0.5861 -0.8043
  529MOL0     H69775   7.880   7.350   4.991 -2.4616  0.7861 -0.7028
  529MOL0     H69776   7.883   7.336   4.816 -0.8337  0.6995 -1.1272
  529MOL0     H69777   7.798   7.599   4.962 -0.9892  0.8424  0.2518
  529MOL0     H69778   7.760   7.558   4.795 -2.4441  1.8640  0.9050
  529MOL0     H69779   7.565   7.526   4.946 -0.2326 -0.4543  1.2803
  529MOL0     H69780   7.650   7.382   5.004 -0.9601  1.0732  1.1170
  529MOL0     H69781   7.365   7.395   4.829  1.9077  1.3319  1.6669
  529MOL0     H69782   7.327   7.119   4.552 -2.7366  1.0159 -2.6079
  529MOL0     H69783   7.240   7.259   4.584 -1.7288 -1.9820 -0.9437
  529MOL0     H69784   7.191   7.211   4.812 -0.0222 -1.0965  0.7447
  529MOL0     H69785   7.286   7.063   4.813 -1.5486  1.0319  2.1552
  529MOL0     H69786   7.146   6.933   4.695  0.7454  0.2148 -0.4512
  529MOL0     H69787   7.046   7.018   4.802 -0.0476  0.2784  0.1310
  529MOL0     H69788   7.100   7.064   4.510 -1.0888  0.9610 -0.6007
  529MOL0     H69789   6.991   7.177   4.601 -1.5902 -0.1480 -1.4809
  529MOL0     H69790   6.707   6.872   4.593  0.2581  1.0147  1.5622
  529MOL0     H69791   6.523   6.872   4.409 -0.9650  1.2605  2.9558
  529MOL0     H69792   6.548   6.981   3.891  0.5791  1.7337  0.1640
  529MOL0     H69793   6.396   6.989   3.696  0.1761  1.5307  0.0887
  529MOL0     H69794   5.983   6.870   3.748 -1.5162 -0.6496 -0.2532
  529MOL0     H69795   6.061   6.709   3.739  0.7232 -0.9268 -1.4150
  529MOL0     H69796   6.048   6.727   3.495 -2.3264 -2.2166 -0.5118
  529MOL0     H69797   5.986   6.898   3.515  3.5076  0.6927  1.3091
  529MOL0     H69798   5.774   6.797   3.613  0.7709 -1.3311  1.6710
  529MOL0     H69799   5.844   6.633   3.595 -1.5269 -0.0213  1.2096
  529MOL0     H69800   5.789   6.818   3.360 -4.5436  0.2152  1.1280
  529MOL0     H69801   5.873   6.665   3.349  0.7596 -0.8326  2.0838
  529MOL0     H69802   5.587   6.727   3.445  0.7018  2.4375 -1.3578
  529MOL0     H69803   5.667   6.565   3.451 -2.0084 -0.3666 -0.7937
  529MOL0     H69804   5.525   6.575   3.260 -0.3584 -0.8671  0.1480
  529MOL0     H69805   5.692   6.545   3.222 -2.6574 -2.5752 -0.2034
  529MOL0     H69806   5.515   6.803   3.211  0.4978  1.0165  0.2432
  529MOL0     H69807   5.687   6.817   3.180  2.7926 -2.5827 -3.4498
  529MOL0     H69808   5.486   6.697   2.986  0.0928  2.8242 -4.1854
  529MOL0     H69809   5.660   6.669   2.987  0.3341  0.7597 -0.0948
  529MOL0     H69810   6.110   6.784   3.946 -0.7198  1.6811 -0.8464
  529MOL0     H69811   6.255   6.833   4.141  1.8872 -0.4113  0.6643
  529MOL0     H69812   6.776   7.134   4.179  2.2971  1.0399  1.0733
  529MOL0     H69813   6.940   7.137   4.347  1.0759  0.7024  2.5477
  529MOL0     H69814   8.642   7.364   5.269  0.9766 -1.1132  1.3551
  529MOL0     H69815   8.852   7.489   5.343 -0.2222 -0.6918 -0.7261
  529MOL0     H69816   9.380   7.568   5.153 -0.2995  0.5681 -0.4140
  529MOL0     H69817   9.565   7.691   5.246  0.7448  1.4265  0.6784
  529MOL0     H69818   9.685   7.895   5.171  1.4548 -3.5406  0.9694
  529MOL0     H69819   9.710   7.841   5.327  0.1942 -0.1456 -1.3205
  529MOL0     H69820   9.776   8.055   5.405 -1.7030 -1.8087  0.1084
  529MOL0     H69821   9.878   7.997   5.270  0.7277  1.8050 -1.8438
  529MOL0     H69822   9.653   8.207   5.252 -4.0984 -2.2220 -2.8241
  529MOL0     H69823   9.699   8.102   5.115 -0.7982  1.2483 -0.6951
  529MOL0     H69824   9.813   8.343   5.172 -0.4514 -0.4891  1.0429
  529MOL0     H69825   9.922   8.236   5.278 -1.9714  1.9779  1.7879
  529MOL0     H69826  10.053   8.179   4.878  2.4993 -1.5010  1.3083
  529MOL0     H69827   9.302   8.039   5.266 -1.2836 -0.2520  1.4452
  529MOL0     H69828   9.116   7.911   5.200  0.2841  0.8839  1.8180
  530MOL0     O69829   7.471   5.225   5.180  0.4243 -0.1578  0.5978
  530MOL0     C69830   7.407   5.313   5.124  0.1369  1.2901  0.7346
  530MOL0     O69831   7.461   5.429   5.097  0.5557 -0.3543  0.0700
  530MOL0     C69832   7.580   5.473   5.139  0.3603 -0.1439 -0.4982
  530MOL0     C69833   7.609   5.592   5.077 -0.1664  0.0105  0.0150
  530MOL0     C69834   7.724   5.667   5.107  0.2433  0.4402  0.5586
  530MOL0     C69835   7.810   5.633   5.216 -0.8263  0.2798  0.3730
  530MOL0     O69836   7.936   5.684   5.252  0.2395  0.1260  0.1592
  530MOL0     C69837   7.941   5.815   5.285 -0.0275 -0.0783 -0.8698
  530MOL0     C69838   8.042   5.882   5.193  0.4542 -0.2274 -0.5860
  530MOL0     C69839   8.099   6.018   5.240  0.1151  1.1311 -0.3081
  530MOL0     C69840   8.005   6.134   5.243  0.7001 -0.4417 -0.3270
  530MOL0     C69841   8.031   6.244   5.341 -0.3163 -0.7743 -0.2001
  530MOL0     C69842   7.942   6.370   5.341  0.9848  0.4459  0.6065
  530MOL0     C69843   7.791   6.338   5.337 -0.0456 -0.7083  0.0770
  530MOL0     C69844   7.703   6.456   5.364  0.0588 -0.2320  0.4157
  530MOL0     N69845   7.562   6.428   5.362 -0.0469  0.7192  0.6716
  530MOL0     C69846   7.507   6.362   5.257  0.6201  0.1261  0.2782
  530MOL0     C69847   7.381   6.350   5.290 -0.3401  0.6546  0.8586
  530MOL0     C69848   7.287   6.268   5.199  0.5022  0.0463 -0.4366
  530MOL0     C69849   7.250   6.134   5.254 -0.3121 -0.3673  0.5400
  530MOL0     C69850   7.157   6.131   5.381 -0.5590  0.1324  0.2886
  530MOL0     C69851   7.013   6.180   5.367  0.2299 -0.3613  0.6764
  530MOL0     O69852   6.950   6.112   5.263 -0.4410  0.4845 -0.6647
  530MOL0     C69853   6.843   6.160   5.192  0.2291  0.3343 -0.5089
  530MOL0     C69854   6.799   6.297   5.178 -0.4912  0.3967  0.1300
  530MOL0     C69855   6.679   6.326   5.103 -0.8811  0.1009  0.8730
  530MOL0     C69856   6.606   6.219   5.046  0.2667 -0.7739  0.0659
  530MOL0     C69857   6.473   6.251   4.983  0.3764  0.1812 -0.0334
  530MOL0     O69858   6.435   6.381   4.978  0.3443  0.1842 -0.2958
  530MOL0     C69859   6.328   6.417   4.894 -0.9727 -0.6916  0.2198
  530MOL0     C69860   6.262   6.526   4.942 -0.7900 -0.0345 -0.1613
  530MOL0     C69861   6.150   6.587   4.885 -0.5744 -0.1636  0.8610
  530MOL0     C69862   6.099   6.532   4.776 -0.1729  0.2565  0.1589
  530MOL0     O69863   5.989   6.588   4.718  0.0808  0.7349  0.4343
  530MOL0     C69864   5.929   6.532   4.597 -0.0077 -0.2242 -0.3290
  530MOL0     C69865   5.797   6.615   4.585  0.6650 -0.1305 -0.2418
  530MOL0     C69866   5.734   6.595   4.445  0.1995 -0.2096  0.2725
  530MOL0     C69867   5.591   6.643   4.440 -0.0349 -0.1453  0.3803
  530MOL0     C69868   5.506   6.594   4.316  0.6535 -0.1008  0.2871
  530MOL0     C69869   5.361   6.668   4.340 -1.2732  0.2925 -0.1025
  530MOL0     C69870   5.283   6.654   4.213  0.6026 -0.1446  0.1760
  530MOL0     C69871   5.161   6.752   4.211 -0.2130 -0.7448  0.0812
  530MOL0    Cl69872   5.040   6.713   4.075  0.0421 -0.2477  0.3043
  530MOL0     C69873   6.153   6.410   4.729 -0.7435  1.5476 -0.4044
  530MOL0     C69874   6.271   6.361   4.778 -0.3015  0.9277 -0.0785
  530MOL0     O69875   6.406   6.159   4.933 -0.1519 -0.4104 -0.3394
  530MOL0     C69876   6.652   6.087   5.053  0.9301  0.6620  0.3601
  530MOL0     C69877   6.770   6.061   5.127 -0.0161 -0.2973 -0.4756
  530MOL0     N69878   7.366   6.388   5.427  0.1402  0.1125 -0.1701
  530MOL0     N69879   7.472   6.444   5.463  0.3274  0.1888 -0.2255
  530MOL0     C69880   7.780   5.515   5.287  0.2912  0.3365 -0.4278
  530MOL0     C69881   7.672   5.425   5.243 -0.2554 -0.3389 -0.2246
  530MOL0     C69882   7.284   5.272   5.058 -0.8839  0.3168 -0.0442
  530MOL0     C69883   7.206   5.373   4.999  0.3245  0.0936  0.1897
  530MOL0     C69884   7.078   5.342   4.954 -0.1197  0.2616  0.3258
  530MOL0     C69885   7.011   5.218   4.974 -0.5449 -0.3661 -0.3584
  530MOL0     O69886   6.875   5.197   4.953 -0.2162  0.0180  0.1563
  530MOL0     C69887   6.813   5.286   4.863 -0.8880  0.2716  0.4285
  530MOL0     C69888   6.679   5.223   4.866  0.4523 -0.8733  0.4126
  530MOL0     C69889   6.598   5.293   4.747  0.5603  0.1998 -0.0771
  530MOL0     C69890   6.475   5.213   4.707  0.8220 -0.2940 -0.5495
  530MOL0     C69891   6.347   5.292   4.720  0.2785 -1.3034  0.4861
  530MOL0     C69892   6.233   5.333   4.716  0.5121 -0.9934  0.1410
  530MOL0     C69893   7.093   5.119   5.029  0.7273  0.0438  0.2262
  530MOL0     C69894   7.233   5.145   5.059  0.1260  1.0479  0.4351
  530MOL0     H69895   7.532   5.630   5.010  0.2763  1.1106  0.1173
  530MOL0     H69896   7.737   5.763   5.058 -1.1766  0.8279  0.8915
  530MOL0     H69897   7.978   5.830   5.387 -0.0076  0.8140 -1.0038
  530MOL0     H69898   7.844   5.863   5.278  0.7261  1.6380 -0.1779
  530MOL0     H69899   8.002   5.907   5.094  1.0837 -1.3474 -1.1558
  530MOL0     H69900   8.123   5.810   5.177  0.1797 -2.3101  5.2594
  530MOL0     H69901   8.181   6.028   5.169 -0.4118 -2.5851 -1.6842
  530MOL0     H69902   8.146   6.003   5.338  0.1880 -0.8807 -0.6169
  530MOL0     H69903   8.003   6.182   5.145 -1.3062  0.6866  0.2038
  530MOL0     H69904   7.906   6.094   5.266  1.1377 -0.9931  0.6485
  530MOL0     H69905   8.136   6.275   5.347  0.0712 -2.0911  0.1714
  530MOL0     H69906   8.024   6.205   5.443  1.3263  2.5245  1.3379
  530MOL0     H69907   7.967   6.409   5.242  2.2685 -1.4349  0.1221
  530MOL0     H69908   7.961   6.425   5.434 -2.0426  1.9100  0.4658
  530MOL0     H69909   7.764   6.292   5.241 -0.6174 -0.1828 -0.0199
  530MOL0     H69910   7.764   6.266   5.416 -0.7528  1.0914  1.5474
  530MOL0     H69911   7.726   6.536   5.292  2.6982  1.0528  2.4751
  530MOL0     H69912   7.736   6.493   5.462  0.2511  1.4491 -0.2399
  530MOL0     H69913   7.553   6.324   5.166  0.4482 -3.2777  1.4692
  530MOL0     H69914   7.335   6.262   5.101 -1.8039  2.4547 -1.8597
  530MOL0     H69915   7.207   6.340   5.178  2.8277  3.3875  1.2273
  530MOL0     H69916   7.343   6.100   5.301 -0.2275 -0.6215  0.1930
  530MOL0     H69917   7.222   6.062   5.176  1.7214  0.8827 -1.4893
  530MOL0     H69918   7.155   6.026   5.412 -1.6171  0.9313  3.2207
  530MOL0     H69919   7.200   6.180   5.469 -0.7056  0.9480 -0.0816
  530MOL0     H69920   7.014   6.286   5.339  1.5766 -0.7656 -0.9613
  530MOL0     H69921   6.978   6.168   5.470 -2.7150  0.1073 -0.1872
  530MOL0     H69922   6.848   6.381   5.228  2.9068 -3.0967  3.3687
  530MOL0     H69923   6.644   6.428   5.097  0.1092  0.3904 -1.0211
  530MOL0     H69924   6.321   6.572   5.021 -1.9725 -0.7549  1.1920
  530MOL0     H69925   6.092   6.671   4.922  2.1842  2.3198 -0.0070
  530MOL0     H69926   5.910   6.424   4.601 -0.9623 -0.2471 -3.2735
  530MOL0     H69927   5.998   6.546   4.513  0.8009 -0.5253  0.2653
  530MOL0     H69928   5.814   6.721   4.608  2.2883 -0.9936  3.1998
  530MOL0     H69929   5.738   6.578   4.669  0.6977  0.5281  0.0819
  530MOL0     H69930   5.744   6.487   4.426  1.3413 -0.0339 -0.2101
  530MOL0     H69931   5.786   6.645   4.363  0.6023 -1.2489 -0.1324
  530MOL0     H69932   5.530   6.607   4.524 -2.6096 -1.0640 -1.7377
  530MOL0     H69933   5.601   6.751   4.432  0.7296 -0.3346 -1.7857
  530MOL0     H69934   5.502   6.485   4.302  0.4686 -0.4162  2.4376
  530MOL0     H69935   5.553   6.630   4.224 -0.3870  1.5660  0.3686
  530MOL0     H69936   5.396   6.768   4.364  0.6862 -0.4154  0.1638
  530MOL0     H69937   5.308   6.626   4.426  0.2460 -1.0927  0.2099
  530MOL0     H69938   5.342   6.659   4.121  1.3102  0.0093  0.6314
  530MOL0     H69939   5.233   6.557   4.223 -0.6658  0.6354  2.2027
  530MOL0     H69940   5.209   6.849   4.195 -0.0075 -0.2730  2.9594
  530MOL0     H69941   5.118   6.747   4.311  4.0611 -2.5205  2.0835
  530MOL0     H69942   6.115   6.358   4.641  0.7517 -1.0055  0.3346
  530MOL0     H69943   6.312   6.269   4.739  0.4361  0.4873  1.6540
  530MOL0     H69944   6.597   6.005   5.008 -0.4322  0.7824  1.7542
  530MOL0     H69945   6.812   5.961   5.128 -0.4328 -0.4909 -1.3053
  530MOL0     H69946   7.844   5.483   5.369 -3.3350 -1.1865  2.0672
  530MOL0     H69947   7.657   5.337   5.304  0.2881  0.7744  1.5758
  530MOL0     H69948   7.241   5.476   5.000  1.7871 -0.3173 -1.9401
  530MOL0     H69949   7.024   5.426   4.911 -1.0094 -0.3651  0.1944
  530MOL0     H69950   6.864   5.293   4.767  2.3614 -0.7548  1.9102
  530MOL0     H69951   6.801   5.380   4.918 -1.4634  0.0291  0.7221
  530MOL0     H69952   6.682   5.115   4.852  3.1086 -0.7544 -0.4697
  530MOL0     H69953   6.628   5.241   4.962 -1.9022  1.0860 -1.0774
  530MOL0     H69954   6.651   5.306   4.652  0.8236  3.5845  0.3967
  530MOL0     H69955   6.571   5.397   4.769 -1.7116  0.0196 -1.6189
  530MOL0     H69956   6.468   5.191   4.600 -0.9988  2.4670 -1.1227
  530MOL0     H69957   6.464   5.128   4.774  1.8742  0.7179  0.9538
  530MOL0     H69958   6.134   5.375   4.716  0.2223 -1.6302  1.2448
  530MOL0     H69959   7.052   5.019   5.033  2.4516 -0.6889  4.2344
  530MOL0     H69960   7.300   5.065   5.089 -0.6531 -0.3957 -1.4964
  531MOL0     O69961   5.345   8.079   6.965 -0.1583  0.0198 -0.6422
  531MOL0     C69962   5.358   8.012   6.857  0.4383 -0.0554 -1.2983
  531MOL0     O69963   5.264   7.967   6.772 -0.3581  0.1303 -0.1573
  531MOL0     C69964   5.139   7.993   6.822  0.8914 -0.4728 -0.2238
  531MOL0     C69965   5.083   7.878   6.879  0.0857 -0.5197  0.2318
  531MOL0     C69966   4.961   7.890   6.947  0.6040  0.0256 -0.0703
  531MOL0     C69967   4.888   8.015   6.963 -0.4758 -0.6629 -0.6787
  531MOL0     O69968   4.765   8.022   7.032  0.1286 -0.6420  0.0538
  531MOL0     C69969   4.706   8.149   7.057  0.0605 -0.8659  1.1739
  531MOL0     C69970   4.634   8.228   6.942 -0.2128  1.0351 -0.1267
  531MOL0     C69971   4.487   8.186   6.925  0.7438  0.3087 -0.2813
  531MOL0     C69972   4.442   8.244   6.792  0.4929 -0.1209  0.3552
  531MOL0     C69973   4.311   8.192   6.747  0.9869 -0.2930 -0.1785
  531MOL0     C69974   4.193   8.258   6.824 -0.0317  0.0997  0.0104
  531MOL0     C69975   4.051   8.228   6.764 -0.1730  0.7769  0.3095
  531MOL0     C69976   3.990   8.088   6.804 -0.2395 -0.1864  0.4927
  531MOL0     N69977   3.843   8.074   6.775  0.7849  0.6926  0.6866
  531MOL0     C69978   3.746   8.088   6.871 -0.5566  0.3178  0.6636
  531MOL0     C69979   3.630   8.058   6.800  1.0191  0.0053  0.9036
  531MOL0     C69980   3.496   8.065   6.874  0.1718  0.1917 -0.4731
  531MOL0     C69981   3.395   7.956   6.836  0.4489 -0.0395  0.8041
  531MOL0     C69982   3.324   7.978   6.706 -0.3316  0.1126 -0.2061
  531MOL0     C69983   3.228   8.097   6.690 -0.0901 -1.0423 -0.4557
  531MOL0     O69984   3.117   8.091   6.785 -0.8303  0.0195 -0.1624
  531MOL0     C69985   2.995   8.048   6.742  0.0031 -0.8997  0.8361
  531MOL0     C69986   2.971   7.932   6.670 -0.3780  0.2211  0.4964
  531MOL0     C69987   2.832   7.907   6.620 -1.1201 -0.3284  0.3204
  531MOL0     C69988   2.736   8.006   6.630 -0.6520 -0.2917  0.0944
  531MOL0     C69989   2.595   7.980   6.588 -0.4944 -0.7315  1.0237
  531MOL0     O69990   2.502   8.042   6.657  0.4981  0.3663 -0.0111
  531MOL0     C69991   2.368   8.042   6.616  0.4035  0.1864  0.5690
  531MOL0     C69992   2.296   7.925   6.577 -0.3586  0.7602 -0.1430
  531MOL0     C69993   2.157   7.935   6.562  0.5773 -0.3962  0.1015
  531MOL0     C69994   2.088   8.053   6.593 -1.1746  0.2541 -0.0486
  531MOL0     O69995   1.957   8.071   6.559 -0.2692  0.3236 -0.3136
  531MOL0     C69996   1.866   7.963   6.572 -0.3307 -0.5908 -0.0989
  531MOL0     C69997   1.816   7.922   6.443  0.2024 -0.0920  0.0145
  531MOL0     C69998   1.682   7.974   6.395  0.1847  0.1454 -0.9303
  531MOL0     C69999   1.673   7.942   6.241 -0.3428  0.3484 -0.2339
  531MOL0     C70000   1.537   7.970   6.181  0.0782 -0.0289  0.6172
  531MOL0     C70001   1.422   7.901   6.245  0.8876 -0.2189 -0.9270
  531MOL0     C70002   1.432   7.745   6.219 -0.0939 -0.5172 -0.1887
  531MOL0     C70003   1.306   7.666   6.259 -0.6990 -0.8290 -0.2624
  531MOL0    Cl70004   1.163   7.737   6.176 -0.3095 -0.5459 -0.0987
  531MOL0     C70005   2.158   8.165   6.635  1.2074  0.2968 -0.3041
  531MOL0     C70006   2.301   8.162   6.640  0.6583  0.3099 -0.2402
  531MOL0     O70007   2.577   7.908   6.488  0.2125 -0.5311 -0.4177
  531MOL0     C70008   2.764   8.132   6.699  0.0334  0.7169  0.4132
  531MOL0     C70009   2.893   8.139   6.758  0.1223  0.2531 -0.0954
  531MOL0     N70010   3.666   8.051   6.660  0.0578  0.7253 -0.1834
  531MOL0     N70011   3.792   8.059   6.647  0.7053 -0.5410 -0.0363
  531MOL0     C70012   4.953   8.129   6.911 -0.6350 -0.3601  0.3854
  531MOL0     C70013   5.074   8.119   6.846  0.0031  0.1877  0.6542
  531MOL0     C70014   5.501   7.992   6.816 -0.1921  0.1203 -0.0364
  531MOL0     C70015   5.546   7.892   6.724  1.0312 -0.0433  0.9812
  531MOL0     C70016   5.671   7.884   6.685  0.6640  0.0175  0.1381
  531MOL0     C70017   5.772   7.970   6.733 -0.2921  0.3339  0.6192
  531MOL0     O70018   5.892   7.946   6.675  0.1036 -0.3620  0.3160
  531MOL0     C70019   6.016   8.023   6.701  0.4022 -0.6845  0.5052
  531MOL0     C70020   6.035   8.127   6.589 -0.1181  0.6410 -0.8599
  531MOL0     C70021   6.106   8.065   6.467  0.2297 -1.0840  0.6724
  531MOL0     C70022   6.105   8.149   6.334  0.4740 -0.3068  0.3256
  531MOL0     C70023   6.203   8.250   6.357  0.6148  0.1332  1.5697
  531MOL0     C70024   6.293   8.330   6.355  0.2605 -0.3739 -0.0792
  531MOL0     C70025   5.738   8.067   6.823 -0.3491 -0.2185  0.3560
  531MOL0     C70026   5.605   8.075   6.869 -0.1583  1.1104 -0.2056
  531MOL0     H70027   5.129   7.780   6.875  0.8748 -0.2344  1.5146
  531MOL0     H70028   4.914   7.799   6.982  0.2157  0.7068  1.2291
  531MOL0     H70029   4.784   8.213   7.098  2.1883 -1.6455 -1.3546
  531MOL0     H70030   4.639   8.129   7.141 -0.6617  1.2375  1.1604
  531MOL0     H70031   4.693   8.210   6.851 -1.8573 -2.9707 -0.5837
  531MOL0     H70032   4.633   8.336   6.960  1.0461  0.7788  1.6815
  531MOL0     H70033   4.420   8.227   7.001 -0.3120  0.4550 -1.2579
  531MOL0     H70034   4.469   8.079   6.933 -0.9774  0.6493  0.9600
  531MOL0     H70035   4.445   8.353   6.786  3.5214 -0.1447 -0.2567
  531MOL0     H70036   4.520   8.225   6.718  0.4396  2.6239 -0.5322
  531MOL0     H70037   4.300   8.083   6.748 -1.1923 -0.1224  0.4496
  531MOL0     H70038   4.301   8.231   6.645 -0.0734 -1.5608 -0.6024
  531MOL0     H70039   4.212   8.366   6.819  0.1840 -0.0161 -2.3959
  531MOL0     H70040   4.209   8.228   6.928 -1.7631  1.9859  0.9214
  531MOL0     H70041   3.975   8.296   6.803 -0.7046  0.4397 -0.1266
  531MOL0     H70042   4.054   8.246   6.656  2.8007  0.7113  0.2821
  531MOL0     H70043   4.007   8.064   6.909 -1.9840 -1.8927  0.4523
  531MOL0     H70044   4.058   8.019   6.754  1.6034  0.4533  2.0316
  531MOL0     H70045   3.764   8.108   6.977 -0.2085  1.4602  0.4082
  531MOL0     H70046   3.451   8.162   6.849 -5.0491 -2.6074 -3.9644
  531MOL0     H70047   3.516   8.063   6.981 -1.9147 -0.4742 -0.0404
  531MOL0     H70048   3.315   7.958   6.911  0.7584  2.3357  1.1453
  531MOL0     H70049   3.443   7.857   6.834  1.3074  0.3655  0.9472
  531MOL0     H70050   3.393   8.008   6.627 -1.2366  9.1247  1.3879
  531MOL0     H70051   3.274   7.884   6.680  2.4591 -1.9786  1.4591
  531MOL0     H70052   3.189   8.099   6.588 -1.5626 -0.6995  0.0995
  531MOL0     H70053   3.285   8.189   6.704  0.8208 -1.1416 -3.0483
  531MOL0     H70054   3.047   7.855   6.657  0.2261  0.5289  2.0595
  531MOL0     H70055   2.807   7.815   6.568  2.5345 -2.1666  1.4968
  531MOL0     H70056   2.345   7.829   6.561 -0.4034  0.1970  2.6272
  531MOL0     H70057   2.094   7.857   6.520 -0.2948  0.0253  0.6288
  531MOL0     H70058   1.786   7.998   6.638 -0.6554  0.1144 -0.8566
  531MOL0     H70059   1.912   7.886   6.635 -2.2539  0.8923  3.4445
  531MOL0     H70060   1.812   7.813   6.445 -1.1771 -0.1976 -2.7698
  531MOL0     H70061   1.884   7.941   6.359 -0.3710 -0.3911 -0.5270
  531MOL0     H70062   1.670   8.083   6.391 -0.9326  0.2722  2.5934
  531MOL0     H70063   1.604   7.928   6.456 -0.5516  0.0901 -1.8836
  531MOL0     H70064   1.746   8.007   6.192 -2.1794  1.7418 -1.2381
  531MOL0     H70065   1.702   7.840   6.217 -0.8748  0.2018 -0.2761
  531MOL0     H70066   1.529   7.946   6.075  1.2445  1.1389  0.2393
  531MOL0     H70067   1.509   8.074   6.196 -3.4391 -0.9105  0.9413
  531MOL0     H70068   1.348   7.954   6.184  1.7542 -2.3292 -4.1012
  531MOL0     H70069   1.407   7.927   6.350  0.1828 -3.0062 -0.2565
  531MOL0     H70070   1.444   7.723   6.113 -0.6892 -2.5587  0.1257
  531MOL0     H70071   1.523   7.710   6.269  0.4879 -0.1717 -0.9933
  531MOL0     H70072   1.288   7.671   6.367  0.4740  1.0670 -0.0966
  531MOL0     H70073   1.311   7.562   6.227 -1.7468 -1.5333  1.7334
  531MOL0     H70074   2.107   8.256   6.664  0.1120  0.2920 -2.1275
  531MOL0     H70075   2.367   8.243   6.671  2.5352 -1.5433  0.8286
  531MOL0     H70076   2.704   8.221   6.687 -0.1884  0.4243 -0.7540
  531MOL0     H70077   2.917   8.233   6.807  1.7277 -0.0506 -0.2526
  531MOL0     H70078   4.922   8.232   6.926  4.0894  1.4494 -0.4925
  531MOL0     H70079   5.114   8.210   6.803 -1.1338 -0.7110 -2.5788
  531MOL0     H70080   5.473   7.826   6.678  1.9990  0.7508 -1.8982
  531MOL0     H70081   5.689   7.804   6.615  1.9437  1.1039 -0.8387
  531MOL0     H70082   6.101   7.957   6.716  1.7063  1.5408  4.1044
  531MOL0     H70083   6.019   8.073   6.798 -0.6561  0.1330  0.1438
  531MOL0     H70084   5.935   8.161   6.563 -1.1012  0.5606  2.3673
  531MOL0     H70085   6.106   8.202   6.625  1.6612 -1.7739  1.1238
  531MOL0     H70086   6.062   7.968   6.440  0.2103 -0.6376 -1.0300
  531MOL0     H70087   6.207   8.037   6.496  0.3763 -1.3079 -0.0254
  531MOL0     H70088   6.130   8.099   6.240  0.4143  0.9301 -0.3763
  531MOL0     H70089   6.010   8.201   6.316  0.1185 -1.1992 -0.4597
  531MOL0     H70090   6.376   8.398   6.346  0.1867 -0.1686  0.7755
  531MOL0     H70091   5.819   8.137   6.843  1.4424 -2.3060  0.7527
  531MOL0     H70092   5.565   8.144   6.943 -4.3507 -1.9664  0.7615
  532MOL0     O70093  10.792   9.042   9.356 -0.3635 -0.5689  0.6304
  532MOL0     C70094  10.830   8.957   9.286 -0.4045  0.5996  0.2863
  532MOL0     O70095  10.771   8.916   9.169 -0.4256  0.0401  0.4161
  532MOL0     C70096  10.645   8.962   9.149 -0.4101 -0.9481 -0.2147
  532MOL0     C70097  10.611   9.070   9.064  0.5722  0.4676  0.5311
  532MOL0     C70098  10.476   9.116   9.054 -0.5138  0.5026  0.1241
  532MOL0     C70099  10.377   9.054   9.132 -0.2054 -0.5423 -0.2783
  532MOL0     O70100  10.245   9.074   9.107  0.0016  0.5159 -0.3187
  532MOL0     C70101  10.197   9.207   9.111  0.4329 -0.1783  0.3039
  532MOL0     C70102  10.077   9.225   9.012 -0.4727 -0.6243  0.6162
  532MOL0     C70103   9.960   9.125   9.021 -0.0496  0.1198 -0.3080
  532MOL0     C70104   9.829   9.170   8.963 -0.9410  0.1218 -0.3657
  532MOL0     C70105   9.732   9.067   8.922 -0.1377  0.0275 -0.6195
  532MOL0     C70106   9.591   9.119   8.880  0.2362  0.4738  0.0370
  532MOL0     C70107   9.515   9.206   8.985 -0.1566  0.4339  0.0975
  532MOL0     C70108   9.365   9.222   8.946  1.2700  0.1504 -0.3851
  532MOL0     N70109   9.300   9.301   9.057 -0.3023  0.0391 -0.6936
  532MOL0     C70110   9.261   9.254   9.180  0.0336 -0.1929 -0.5313
  532MOL0     C70111   9.228   9.365   9.244 -0.2260  0.3835 -0.6310
  532MOL0     C70112   9.181   9.372   9.387 -0.4522 -0.0180  0.1420
  532MOL0     C70113   9.075   9.481   9.409  0.5368  0.0080  0.3748
  532MOL0     C70114   8.959   9.470   9.322 -0.6748  0.5718 -0.0831
  532MOL0     C70115   8.838   9.554   9.368  1.6771 -0.9456  0.0301
  532MOL0     O70116   8.716   9.519   9.289 -0.1179 -0.4609  0.9054
  532MOL0     C70117   8.603   9.575   9.332 -0.0080 -0.3481  0.3452
  532MOL0     C70118   8.509   9.501   9.402 -0.8878 -0.4341  0.7094
  532MOL0     C70119   8.378   9.547   9.429 -0.4927 -0.5893  0.7522
  532MOL0     C70120   8.342   9.680   9.401  0.8864 -0.4346 -0.1512
  532MOL0     C70121   8.220   9.739   9.450  0.7767  0.6155 -0.7681
  532MOL0     O70122   8.177   9.708   9.575  0.0482 -0.3533 -0.4924
  532MOL0     C70123   8.052   9.748   9.636  0.6313 -0.1887  0.4080
  532MOL0     C70124   7.935   9.781   9.567 -0.0410 -0.0633  0.9149
  532MOL0     C70125   7.817   9.802   9.636 -0.2160  0.8530  0.2298
  532MOL0     C70126   7.809   9.813   9.779  0.0973 -0.9978  0.0508
  532MOL0     O70127   7.701   9.841   9.854  0.9083 -0.6181  0.8973
  532MOL0     C70128   7.562   9.819   9.822 -0.3359  1.2022 -0.2357
  532MOL0     C70129   7.474   9.884   9.929  0.5228 -0.9341 -0.5388
  532MOL0     C70130   7.323   9.885   9.900  0.6082  0.5043  0.0464
  532MOL0     C70131   7.266   9.736   9.900 -0.3783 -0.2038  0.2636
  532MOL0     C70132   7.113   9.733   9.918 -0.1880  0.0177 -0.3305
  532MOL0     C70133   7.039   9.759   9.792  0.2516  0.2643  0.4320
  532MOL0     C70134   6.902   9.812   9.847  0.5149 -0.7443  0.7823
  532MOL0     C70135   6.831   9.869   9.729 -0.8528  0.3389 -0.7849
  532MOL0    Cl70136   6.656   9.860   9.768  0.0875  0.0095 -0.1392
  532MOL0     C70137   7.927   9.793   9.847 -0.0954 -0.2890  0.4415
  532MOL0     C70138   8.042   9.749   9.775  0.5187  0.2541  0.0089
  532MOL0     O70139   8.166   9.826   9.381  0.2157 -1.3703  1.1078
  532MOL0     C70140   8.438   9.749   9.323 -0.1170  0.2703 -0.6976
  532MOL0     C70141   8.567   9.696   9.289  0.8073  0.4747  0.5131
  532MOL0     N70142   9.243   9.477   9.167  0.0648 -0.4795  0.2100
  532MOL0     N70143   9.275   9.435   9.047 -0.1511  0.6709 -0.4851
  532MOL0     C70144  10.413   8.938   9.209 -0.0942  0.6557 -0.6972
  532MOL0     C70145  10.546   8.903   9.220 -0.1698  0.2660 -0.7310
  532MOL0     C70146  10.960   8.902   9.337 -0.6503  0.0258 -0.0314
  532MOL0     C70147  11.023   8.788   9.281  0.6885 -0.3763  0.3613
  532MOL0     C70148  11.145   8.752   9.317 -0.1622  0.5809 -0.1508
  532MOL0     C70149  11.209   8.813   9.424  0.5242 -0.9139 -0.7453
  532MOL0     O70150  11.341   8.765   9.444 -0.1821 -0.3271  0.3087
  532MOL0     C70151  11.422   8.835   9.551  0.2012  0.8692  0.1955
  532MOL0     C70152  11.551   8.768   9.565 -0.2075 -0.1207 -0.0813
  532MOL0     C70153  11.640   8.785   9.449  0.5422  0.2766 -0.3153
  532MOL0     C70154  11.776   8.709   9.468 -0.0691 -0.4679  0.0404
  532MOL0     C70155  11.896   8.755   9.394  0.1160 -0.7436  0.1692
  532MOL0     C70156  11.997   8.785   9.333  0.5549 -1.0110 -0.0892
  532MOL0     C70157  11.147   8.918   9.488  0.1980 -0.0636 -0.0512
  532MOL0     C70158  11.021   8.960   9.448 -0.4008  0.3474 -0.5657
  532MOL0     H70159  10.690   9.101   8.996  0.4657 -1.4313 -0.5425
  532MOL0     H70160  10.439   9.178   8.973  0.7480  0.5263 -0.4688
  532MOL0     H70161  10.276   9.281   9.091  1.7675 -1.1748  1.6852
  532MOL0     H70162  10.145   9.239   9.202 -0.4432  3.7153 -1.3297
  532MOL0     H70163  10.113   9.209   8.910  1.6640 -2.2992  1.5475
  532MOL0     H70164  10.042   9.328   9.018 -1.6025 -0.6489 -3.0386
  532MOL0     H70165   9.952   9.089   9.124  0.0108  0.5692 -0.1460
  532MOL0     H70166   9.993   9.042   8.956  0.5157  0.5989 -0.6479
  532MOL0     H70167   9.779   9.224   9.045 -1.7373 -0.7087 -0.2899
  532MOL0     H70168   9.845   9.232   8.874 -0.8974  1.8466  0.7909
  532MOL0     H70169   9.715   9.007   9.012  1.4408  0.8539  0.2506
  532MOL0     H70170   9.791   9.012   8.849  1.5600  0.3642  0.4441
  532MOL0     H70171   9.530   9.030   8.858 -0.6982  0.8722  0.9525
  532MOL0     H70172   9.604   9.174   8.786 -0.5500  2.1234  0.8528
  532MOL0     H70173   9.530   9.163   9.084 -0.5204 -0.4032 -0.2023
  532MOL0     H70174   9.550   9.310   8.981 -1.9845  1.0876  0.1244
  532MOL0     H70175   9.331   9.118   8.952 -1.6580  1.1051  3.3344
  532MOL0     H70176   9.356   9.256   8.842 -1.0426 -1.4852 -0.7888
  532MOL0     H70177   9.274   9.155   9.223  0.7578  1.0970  2.5228
  532MOL0     H70178   9.264   9.406   9.449 -0.6914  1.8767 -0.5133
  532MOL0     H70179   9.161   9.274   9.432  2.4070 -0.2620  1.0316
  532MOL0     H70180   9.117   9.577   9.376 -0.0333  0.0183 -0.3436
  532MOL0     H70181   9.047   9.478   9.514 -1.9823  0.7157 -0.2208
  532MOL0     H70182   8.995   9.511   9.226  2.3470  1.3529  1.2661
  532MOL0     H70183   8.925   9.367   9.315 -1.8179  0.7708  1.8854
  532MOL0     H70184   8.865   9.660   9.363  3.9262 -1.4328  0.6535
  532MOL0     H70185   8.812   9.533   9.472  3.3889 -0.7396  0.5240
  532MOL0     H70186   8.531   9.401   9.436 -0.1231 -0.7055 -0.5237
  532MOL0     H70187   8.312   9.489   9.493  0.0074 -1.3253  0.6087
  532MOL0     H70188   7.935   9.789   9.459 -0.3103  2.0996  1.0319
  532MOL0     H70189   7.724   9.822   9.584 -1.7543  0.4060  2.6586
  532MOL0     H70190   7.539   9.712   9.823 -2.1468  1.5711 -0.2122
  532MOL0     H70191   7.528   9.850   9.723 -1.2258  3.3081  0.6834
  532MOL0     H70192   7.504   9.989   9.928 -3.1629  0.2937  0.2650
  532MOL0     H70193   7.486   9.830  10.024 -1.7696  0.1771  0.4777
  532MOL0     H70194   7.307   9.944   9.809  4.4277 -0.4223 -1.4305
  532MOL0     H70195   7.283   9.941   9.985  3.7044  0.6930  1.5253
  532MOL0     H70196   7.304   9.692   9.807  0.7762  2.5104 -0.6605
  532MOL0     H70197   7.309   9.680   9.984  1.4588  1.6624  0.6594
  532MOL0     H70198   7.092   9.799  10.003  2.2664 -0.4327  0.7156
  532MOL0     H70199   7.076   9.635   9.952  2.6976 -0.5191  1.6096
  532MOL0     H70200   7.024   9.664   9.740 -2.9349 -0.4000  2.2472
  532MOL0     H70201   7.091   9.835   9.735  1.3853 -0.0903  0.9719
  532MOL0     H70202   6.841   9.730   9.888  2.9156 -0.9984  4.2522
  532MOL0     H70203   6.895   9.885   9.928 -1.2010 -2.7204  2.5656
  532MOL0     H70204   6.855   9.804   9.645  1.3721  2.1752 -1.6717
  532MOL0     H70205   6.876   9.968   9.714  2.6048 -0.1386  4.0172
  532MOL0     H70206   7.930   9.805   9.955  4.5122  0.5088  0.4206
  532MOL0     H70207   8.121   9.705   9.834  0.1859 -0.7379 -0.2613
  532MOL0     H70208   8.413   9.852   9.298  3.0827  1.4520  0.4986
  532MOL0     H70209   8.639   9.750   9.227  2.7396 -1.8482  0.6093
  532MOL0     H70210  10.332   8.891   9.264  1.7205  3.1113  4.7000
  532MOL0     H70211  10.579   8.816   9.276 -1.3305  0.0421 -0.3807
  532MOL0     H70212  10.963   8.753   9.198 -0.2314  2.8822 -0.5260
  532MOL0     H70213  11.210   8.680   9.268  2.4781  2.5613  0.1776
  532MOL0     H70214  11.362   8.812   9.639  0.8345 -3.1064 -0.2258
  532MOL0     H70215  11.431   8.943   9.536 -0.4122  0.9667  0.4714
  532MOL0     H70216  11.599   8.815   9.651 -1.8798  2.4295 -0.4234
  532MOL0     H70217  11.538   8.661   9.579  1.5029 -0.4631 -0.8808
  532MOL0     H70218  11.654   8.892   9.428 -0.4621  0.2606 -1.1598
  532MOL0     H70219  11.587   8.748   9.361 -0.8705  1.6264 -0.0771
  532MOL0     H70220  11.794   8.715   9.575 -2.2118  0.5565  0.3856
  532MOL0     H70221  11.764   8.602   9.445  1.2486 -1.1269  2.1340
  532MOL0     H70222  12.086   8.827   9.290  0.6628 -1.7834 -0.6644
  532MOL0     H70223  11.187   8.970   9.574 -4.4751 -1.2452  3.2618
  532MOL0     H70224  10.995   9.059   9.486  2.3418  0.3411  1.7206
  533MOL0     O70225   1.195   6.576  10.692 -0.3287 -0.2341  1.2834
  533MOL0     C70226   1.230   6.469  10.746  0.3106 -0.6520 -0.1924
  533MOL0     O70227   1.153   6.383  10.810 -0.1232  0.7341  0.1902
  533MOL0     C70228   1.019   6.411  10.795 -0.3730 -0.0258  0.0013
  533MOL0     C70229   0.944   6.437  10.674 -0.1702 -1.0628 -0.1046
  533MOL0     C70230   0.807   6.463  10.677  0.5954  0.5523 -0.1589
  533MOL0     C70231   0.735   6.455  10.797 -0.2483 -0.2364 -0.5374
  533MOL0     O70232   0.603   6.479  10.785 -0.5694  0.5378  0.1554
  533MOL0     C70233   0.524   6.423  10.883  0.1598 -0.3649  0.4848
  533MOL0     C70234   0.378   6.459  10.843  0.4233 -0.6892  0.3937
  533MOL0     C70235   0.269   6.371  10.911 -0.4439 -0.3545  0.6340
  533MOL0     C70236   0.123   6.430  10.892 -0.7097 -0.3586  0.4039
  533MOL0     C70237   0.012   6.348  10.962 -0.7209  0.0118  0.5349
  533MOL0     C70238  -0.130   6.412  10.949 -0.5598 -0.3473  0.4725
  533MOL0     C70239  -0.234   6.323  11.012 -0.3994 -0.0417 -0.9351
  533MOL0     C70240  -0.375   6.356  10.971 -0.2081  0.3937  1.0674
  533MOL0     N70241  -0.461   6.249  11.026  0.1001  0.2139  0.3004
  533MOL0     C70242  -0.486   6.231  11.158  0.0251  0.3143 -0.4038
  533MOL0     C70243  -0.557   6.118  11.160  0.3685  0.3844 -0.0312
  533MOL0     C70244  -0.620   6.057  11.281  0.5071  0.5024 -0.1658
  533MOL0     C70245  -0.641   6.162  11.385 -0.6360 -0.2379  0.9776
  533MOL0     C70246  -0.698   6.108  11.513  0.3929 -0.6837  0.0678
  533MOL0     C70247  -0.833   6.037  11.496 -0.8063 -0.3773 -0.5914
  533MOL0     O70248  -0.901   6.025  11.625  0.6668 -0.3205 -0.1179
  533MOL0     C70249  -1.042   6.018  11.624 -0.5985 -1.0179 -0.8358
  533MOL0     C70250  -1.113   6.090  11.722  0.8115 -0.1759 -0.0187
  533MOL0     C70251  -1.254   6.073  11.724  0.6817 -0.2105 -0.9480
  533MOL0     C70252  -1.332   5.982  11.636  0.1957  0.1585  0.4455
  533MOL0     C70253  -1.473   5.960  11.638 -0.2851 -0.9290 -0.6395
  533MOL0     O70254  -1.537   6.034  11.736  0.1345 -0.4407 -0.3410
  533MOL0     C70255  -1.677   6.052  11.735 -0.2602 -0.3368  0.0608
  533MOL0     C70256  -1.764   6.071  11.623  0.1285 -0.7366 -0.7137
  533MOL0     C70257  -1.902   6.103  11.654 -0.2533  0.6768 -0.4500
  533MOL0     C70258  -1.954   6.099  11.785 -0.3209  0.1979 -0.1707
  533MOL0     O70259  -2.086   6.092  11.808 -0.4623 -0.8304 -0.5292
  533MOL0     C70260  -2.141   5.968  11.840  0.3667 -0.3745 -0.4381
  533MOL0     C70261  -2.251   5.986  11.953  0.6894 -0.8507  0.6927
  533MOL0     C70262  -2.183   6.001  12.083 -0.1628  0.4146  0.8518
  533MOL0     C70263  -2.273   6.055  12.198  0.8586 -0.2995 -0.3987
  533MOL0     C70264  -2.411   5.982  12.215 -0.6615  0.9123  0.7510
  533MOL0     C70265  -2.482   6.001  12.351  0.8126 -0.8401  0.5899
  533MOL0     C70266  -2.605   5.909  12.350 -0.1391 -0.3565 -0.1463
  533MOL0     C70267  -2.676   5.909  12.481 -0.9876  0.6146  0.0166
  533MOL0    Cl70268  -2.825   5.819  12.465 -0.0000 -0.4947 -0.3834
  533MOL0     C70269  -1.865   6.083  11.888 -0.5206 -0.6674  0.0151
  533MOL0     C70270  -1.728   6.065  11.866  0.0420  0.0222 -0.1758
  533MOL0     O70271  -1.527   5.893  11.546  0.7696 -0.1299  0.7832
  533MOL0     C70272  -1.247   5.906  11.549  0.5669  0.4724 -0.5021
  533MOL0     C70273  -1.107   5.933  11.539 -0.0867 -0.1906 -0.4364
  533MOL0     N70274  -0.580   6.063  11.036 -1.1271  0.0587 -0.6645
  533MOL0     N70275  -0.510   6.137  10.961 -0.1899  0.3304 -0.3813
  533MOL0     C70276   0.802   6.428  10.917  1.0257  0.9783 -0.6272
  533MOL0     C70277   0.938   6.405  10.910 -0.0884  0.9642 -0.6549
  533MOL0     C70278   1.378   6.438  10.744  0.6974  0.4022 -0.3236
  533MOL0     C70279   1.423   6.350  10.840  0.5366 -0.2026 -0.8103
  533MOL0     C70280   1.560   6.329  10.851 -0.7154 -0.6313 -0.7693
  533MOL0     C70281   1.644   6.387  10.753 -0.3879  0.7053  1.1212
  533MOL0     O70282   1.784   6.377  10.759  0.3437  0.0164 -0.4557
  533MOL0     C70283   1.847   6.299  10.860 -0.0580 -0.3603 -0.0125
  533MOL0     C70284   1.978   6.359  10.871 -1.0543 -0.0787  0.0325
  533MOL0     C70285   2.073   6.285  10.973  0.6473  0.3822 -0.1666
  533MOL0     C70286   2.081   6.134  10.987 -0.7303 -0.1554  0.0278
  533MOL0     C70287   2.179   6.084  11.092 -0.4489  0.8388 -0.0666
  533MOL0     C70288   2.249   6.038  11.176 -0.3479  0.4633  0.6353
  533MOL0     C70289   1.593   6.468  10.658  0.5965  0.4502 -0.0290
  533MOL0     C70290   1.459   6.498  10.647 -0.7202  0.5865 -0.7671
  533MOL0     H70291   0.995   6.451  10.580  0.2136  0.2974  0.2777
  533MOL0     H70292   0.764   6.503  10.587  0.5406  0.4258 -0.1886
  533MOL0     H70293   0.540   6.456  10.986 -2.3024  2.1793  0.1593
  533MOL0     H70294   0.529   6.313  10.884 -2.1452 -0.5335 -0.5319
  533MOL0     H70295   0.372   6.444  10.734 -0.9819 -0.6846  0.4473
  533MOL0     H70296   0.354   6.564  10.860 -3.7092 -1.2024 -1.1166
  533MOL0     H70297   0.289   6.349  11.016  0.4010  1.1844  0.8349
  533MOL0     H70298   0.277   6.278  10.855 -1.9396 -0.6803  0.9047
  533MOL0     H70299   0.118   6.534  10.925 -1.4915 -0.8515  1.8942
  533MOL0     H70300   0.083   6.428  10.790  1.2979  1.9037 -0.5245
  533MOL0     H70301   0.038   6.345  11.068  2.5029 -2.0481 -0.1644
  533MOL0     H70302   0.016   6.247  10.921 -2.1125 -0.7470  2.1028
  533MOL0     H70303  -0.159   6.430  10.845  2.2837  1.1815 -0.1410
  533MOL0     H70304  -0.140   6.508  10.999 -1.6918 -0.2457  0.0729
  533MOL0     H70305  -0.210   6.219  10.992 -0.3506 -0.0692 -0.7397
  533MOL0     H70306  -0.229   6.324  11.121 -2.6536 -1.8350 -0.7419
  533MOL0     H70307  -0.378   6.360  10.861  1.4378  0.6377  0.9995
  533MOL0     H70308  -0.414   6.448  11.013 -2.7965 -0.8463  1.5965
  533MOL0     H70309  -0.459   6.304  11.235 -0.6306  0.1786 -0.0393
  533MOL0     H70310  -0.551   5.980  11.316  0.7742  1.6655  2.0125
  533MOL0     H70311  -0.713   6.007  11.251  0.8491 -0.0932 -0.2370
  533MOL0     H70312  -0.697   6.249  11.348  0.7607  0.4587  0.4491
  533MOL0     H70313  -0.546   6.206  11.415  0.8173 -1.3553 -1.6664
  533MOL0     H70314  -0.631   6.035  11.558  2.5152  0.6754 -0.7370
  533MOL0     H70315  -0.721   6.193  11.578 -0.5635  2.0883 -3.5728
  533MOL0     H70316  -0.815   5.938  11.453  2.4442 -2.0636  3.9004
  533MOL0     H70317  -0.889   6.091  11.419 -0.1126 -0.6520 -1.3027
  533MOL0     H70318  -1.065   6.163  11.787  0.9728  0.3780 -0.7480
  533MOL0     H70319  -1.300   6.120  11.810 -1.7786 -0.9292 -1.7974
  533MOL0     H70320  -1.717   6.071  11.525  2.2633 -2.6862  0.2114
  533MOL0     H70321  -1.970   6.130  11.574 -2.0856  1.2149  1.2173
  533MOL0     H70322  -2.069   5.889  11.865  1.6098  0.4773 -1.1852
  533MOL0     H70323  -2.175   5.937  11.741  2.8415  0.2431 -1.5845
  533MOL0     H70324  -2.307   5.892  11.951 -0.5604 -0.1230 -1.9085
  533MOL0     H70325  -2.322   6.067  11.941  0.4186 -1.0702  0.8132
  533MOL0     H70326  -2.095   6.065  12.072  1.5005 -1.6857  1.3147
  533MOL0     H70327  -2.144   5.903  12.113  0.4770  1.0009  2.0035
  533MOL0     H70328  -2.221   6.052  12.294 -0.4216  1.4423  0.4074
  533MOL0     H70329  -2.299   6.157  12.168  2.2550 -0.6119 -2.9721
  533MOL0     H70330  -2.387   5.875  12.202 -0.8020  1.1793 -3.0004
  533MOL0     H70331  -2.480   6.004  12.133  0.0868  0.4889 -0.0111
  533MOL0     H70332  -2.501   6.108  12.367  0.1674 -0.0976 -3.7169
  533MOL0     H70333  -2.416   5.979  12.435  0.5354 -0.5662  0.8819
  533MOL0     H70334  -2.674   5.953  12.276 -0.9548 -1.7152 -0.2187
  533MOL0     H70335  -2.575   5.808  12.321  1.5851  0.3650 -1.0727
  533MOL0     H70336  -2.696   6.011  12.516 -1.2522  0.6466 -0.2184
  533MOL0     H70337  -2.620   5.858  12.559 -2.1177  0.8795  1.0327
  533MOL0     H70338  -1.903   6.077  11.989 -2.9115  3.5513 -0.4234
  533MOL0     H70339  -1.669   6.045  11.955  0.6819 -1.8340 -0.9869
  533MOL0     H70340  -1.282   5.825  11.487  0.9172 -0.4137  0.4316
  533MOL0     H70341  -1.048   5.864  11.479  0.0409 -3.2843  2.8907
  533MOL0     H70342   0.744   6.416  11.008  2.4942 -0.5509  0.1659
  533MOL0     H70343   0.999   6.370  10.993 -2.0903 -4.5803 -1.1091
  533MOL0     H70344   1.361   6.301  10.915  1.7573 -2.6610 -1.2915
  533MOL0     H70345   1.593   6.266  10.933  0.3377  0.2258 -0.5145
  533MOL0     H70346   1.854   6.191  10.847  0.4429 -0.2089 -1.0737
  533MOL0     H70347   1.804   6.320  10.959  1.3924  0.3763  0.4936
  533MOL0     H70348   2.023   6.379  10.774 -2.0251 -0.5593 -0.5361
  533MOL0     H70349   1.977   6.464  10.901  3.5665  0.8005 -2.0829
  533MOL0     H70350   2.035   6.318  11.070 -0.8286 -3.1539  0.6220
  533MOL0     H70351   2.168   6.335  10.949 -1.1220  2.7984 -2.8979
  533MOL0     H70352   1.984   6.094  11.020 -0.7837 -0.3110 -0.3127
  533MOL0     H70353   2.099   6.082  10.893  0.7164 -2.8585  1.6768
  533MOL0     H70354   2.311   6.001  11.254 -1.1174 -1.8728  0.2239
  533MOL0     H70355   1.665   6.493  10.580  1.8063 -1.8461  0.2867
  533MOL0     H70356   1.429   6.562  10.565  0.5863  0.2012 -1.5678
  534MOL0     O70357  11.014   0.828   0.802 -0.3137 -0.2009  0.1254
  534MOL0     C70358  11.002   0.922   0.731  0.4790  0.1102  0.2636
  534MOL0     O70359  10.891   0.948   0.660  0.5343  0.1782 -0.0689
  534MOL0     C70360  10.783   0.856   0.658  0.3791 -1.0572 -0.4487
  534MOL0     C70361  10.800   0.721   0.612  0.0625 -0.0294 -0.3515
  534MOL0     C70362  10.700   0.628   0.634 -0.9309 -0.1919  0.5773
  534MOL0     C70363  10.581   0.659   0.697 -0.5469 -0.1410 -0.0465
  534MOL0     O70364  10.500   0.552   0.720  0.0785 -0.1119  0.0529
  534MOL0     C70365  10.366   0.584   0.769 -0.2976 -0.0579  1.0179
  534MOL0     C70366  10.281   0.461   0.782 -0.0857  0.0703 -0.3843
  534MOL0     C70367  10.261   0.378   0.654  0.2606  0.1189 -1.3882
  534MOL0     C70368  10.177   0.257   0.683 -0.4285 -0.1148  0.3592
  534MOL0     C70369  10.150   0.175   0.560  0.2746  0.2120  0.9074
  534MOL0     C70370  10.064   0.052   0.596 -0.9429  0.1608  0.0620
  534MOL0     C70371  10.054  -0.060   0.490  0.5394  0.4006  0.5456
  534MOL0     C70372  10.012  -0.005   0.353 -0.5294  0.4058  0.2131
  534MOL0     N70373   9.988  -0.116   0.258  0.7692 -0.3678  0.0545
  534MOL0     C70374  10.090  -0.204   0.219  0.5050  0.8135 -0.6723
  534MOL0     C70375  10.038  -0.285   0.128 -0.3259 -0.5645 -0.0307
  534MOL0     C70376  10.108  -0.400   0.062 -0.2749  0.7566 -0.0406
  534MOL0     C70377  10.200  -0.365  -0.047 -0.7619  0.2820 -0.4802
  534MOL0     C70378  10.340  -0.314   0.004  0.3428  0.5680 -0.3547
  534MOL0     C70379  10.448  -0.285  -0.106 -1.0619 -0.3355  0.5146
  534MOL0     O70380  10.562  -0.226  -0.037 -0.2369 -0.2020 -0.1750
  534MOL0     C70381  10.670  -0.164  -0.099 -0.6894 -0.0263 -0.3261
  534MOL0     C70382  10.773  -0.123  -0.016 -0.8676 -1.3724 -0.8267
  534MOL0     C70383  10.891  -0.062  -0.068  0.0798  0.3687 -1.0110
  534MOL0     C70384  10.909  -0.044  -0.211  0.0146 -0.0695 -0.6154
  534MOL0     C70385  11.038   0.018  -0.259 -0.3068 -1.2834  1.3749
  534MOL0     O70386  11.056   0.151  -0.229  0.1405 -0.1446  0.4500
  534MOL0     C70387  11.178   0.202  -0.218  0.1222 -0.5925 -0.0156
  534MOL0     C70388  11.190   0.338  -0.240  0.2338 -0.4172 -0.1595
  534MOL0     C70389  11.312   0.415  -0.219  0.7028  1.1482 -0.1573
  534MOL0     C70390  11.422   0.345  -0.179 -0.1095 -0.6851  0.2405
  534MOL0     O70391  11.542   0.414  -0.182 -0.0278 -0.8544  0.3245
  534MOL0     C70392  11.663   0.345  -0.155  0.2145  0.2973  0.4010
  534MOL0     C70393  11.766   0.453  -0.141  0.0205 -1.1168  1.1728
  534MOL0     C70394  11.889   0.389  -0.062  0.2209 -0.0404 -0.0026
  534MOL0     C70395  12.011   0.485  -0.079 -0.4348  0.1472  0.4382
  534MOL0     C70396  12.133   0.435   0.000 -0.0368 -0.1224  0.4103
  534MOL0     C70397  12.193   0.318  -0.066  0.0737 -0.7545  0.0970
  534MOL0     C70398  12.303   0.351  -0.177  0.4063 -0.9199 -0.6147
  534MOL0     C70399  12.433   0.408  -0.137  0.9340 -0.1105 -0.1851
  534MOL0    Cl70400  12.516   0.296  -0.024 -0.4434  0.5162 -0.0490
  534MOL0     C70401  11.407   0.211  -0.148  0.0759 -0.4295  0.1679
  534MOL0     C70402  11.290   0.141  -0.156  0.0298 -0.3512  0.5888
  534MOL0     O70403  11.125  -0.055  -0.310 -0.0276  0.4051 -0.3071
  534MOL0     C70404  10.806  -0.101  -0.293  0.0310 -0.1851  0.5301
  534MOL0     C70405  10.694  -0.156  -0.237  0.2661 -0.4031  0.0500
  534MOL0     N70406   9.902  -0.238   0.118 -0.0193 -0.4762 -0.2469
  534MOL0     N70407   9.872  -0.145   0.196 -0.4389 -0.1537 -0.2320
  534MOL0     C70408  10.556   0.794   0.734  0.8025 -0.3308  0.0993
  534MOL0     C70409  10.660   0.890   0.716 -0.1711  0.3116 -0.4380
  534MOL0     C70410  11.111   1.028   0.727 -0.0112 -0.4122  0.1067
  534MOL0     C70411  11.093   1.157   0.674 -0.7014 -0.0001  0.3627
  534MOL0     C70412  11.198   1.249   0.685  0.1614  0.8727 -0.2327
  534MOL0     C70413  11.321   1.215   0.739 -1.2204 -1.0158 -0.2752
  534MOL0     O70414  11.413   1.325   0.757  0.5901 -0.4687  0.1502
  534MOL0     C70415  11.539   1.309   0.825  0.2835 -0.2767 -0.4562
  534MOL0     C70416  11.651   1.261   0.734 -0.5138  0.1660  0.1049
  534MOL0     C70417  11.782   1.285   0.809  0.1278 -0.2022  0.0721
  534MOL0     C70418  11.899   1.247   0.729 -0.3646 -0.2497  0.3523
  534MOL0     C70419  12.012   1.283   0.810  0.2750 -0.6619 -1.0950
  534MOL0     C70420  12.100   1.307   0.899 -0.0105  0.6887  0.0739
  534MOL0     C70421  11.338   1.091   0.790 -1.0003 -0.6387 -0.3397
  534MOL0     C70422  11.241   0.992   0.779 -0.4800 -0.0973 -0.0997
  534MOL0     H70423  10.889   0.689   0.558 -0.6088 -2.1648 -0.2474
  534MOL0     H70424  10.727   0.527   0.604 -4.0546 -0.3877 -2.1849
  534MOL0     H70425  10.307   0.646   0.701 -1.9061 -1.0171  1.4857
  534MOL0     H70426  10.374   0.641   0.863  3.1696  0.3807  0.5813
  534MOL0     H70427  10.186   0.497   0.823  0.6246  3.0449 -1.0837
  534MOL0     H70428  10.342   0.415   0.860  0.3491 -1.9829 -1.8464
  534MOL0     H70429  10.360   0.335   0.634 -0.1505 -1.8469  0.4820
  534MOL0     H70430  10.228   0.438   0.568  1.1100  2.6642 -0.0335
  534MOL0     H70431  10.222   0.184   0.751 -2.9414 -2.9300 -0.7282
  534MOL0     H70432  10.088   0.292   0.736  1.1485 -0.6354  3.5770
  534MOL0     H70433  10.248   0.137   0.530 -0.0107  1.3907 -1.7226
  534MOL0     H70434  10.100   0.238   0.486 -0.7388  0.8007  2.0453
  534MOL0     H70435   9.965   0.091   0.621 -0.0593  0.0433  4.4772
  534MOL0     H70436  10.096   0.012   0.692  3.9341  4.2628  0.5784
  534MOL0     H70437  10.154  -0.102   0.479  1.5830  2.7260  0.6345
  534MOL0     H70438   9.979  -0.134   0.522  2.3956 -1.3434  1.0871
  534MOL0     H70439  10.088   0.061   0.310  3.0519 -2.3088  1.8406
  534MOL0     H70440   9.918   0.051   0.359 -0.2018  1.1247 -0.9766
  534MOL0     H70441  10.186  -0.197   0.267  0.7599 -0.2731 -1.0098
  534MOL0     H70442  10.030  -0.464   0.020  3.2384 -4.3619  0.2367
  534MOL0     H70443  10.164  -0.458   0.137  1.9777  1.0310 -1.4206
  534MOL0     H70444  10.158  -0.281  -0.104 -0.9971  2.0197  2.0815
  534MOL0     H70445  10.218  -0.457  -0.104 -0.2854 -2.5841  3.8743
  534MOL0     H70446  10.331  -0.233   0.077  1.2502  0.9222 -0.6220
  534MOL0     H70447  10.383  -0.395   0.064 -0.2610  1.4656  1.3601
  534MOL0     H70448  10.421  -0.217  -0.187  0.8131  0.3561  0.4146
  534MOL0     H70449  10.467  -0.378  -0.161 -1.2891  0.7865 -1.5586
  534MOL0     H70450  10.776  -0.155   0.088  4.2563 -0.0589 -0.2861
  534MOL0     H70451  10.957  -0.019   0.007 -0.3960 -1.9648  0.8726
  534MOL0     H70452  11.102   0.395  -0.268  1.1682  0.5842 -1.1369
  534MOL0     H70453  11.331   0.515  -0.255  2.1261  0.0811 -2.5809
  534MOL0     H70454  11.680   0.269  -0.232 -1.4457  0.3221 -0.0265
  534MOL0     H70455  11.663   0.295  -0.057 -0.5014 -1.7978 -0.6028
  534MOL0     H70456  11.725   0.533  -0.077 -0.3210 -0.5733  0.2920
  534MOL0     H70457  11.791   0.492  -0.240  0.0558 -0.2152  1.5246
  534MOL0     H70458  11.916   0.299  -0.120  0.0860 -1.4504  2.0099
  534MOL0     H70459  11.868   0.358   0.041  0.9480  1.4991  0.6405
  534MOL0     H70460  12.031   0.495  -0.186 -0.4689  2.3005  0.5884
  534MOL0     H70461  11.986   0.582  -0.035  0.0004 -0.8989  3.2191
  534MOL0     H70462  12.102   0.419   0.104 -1.3316 -2.3073 -0.2479
  534MOL0     H70463  12.206   0.516  -0.001  1.5626 -1.5037 -1.1213
  534MOL0     H70464  12.120   0.248  -0.105 -0.1933  0.3159 -1.4143
  534MOL0     H70465  12.241   0.257   0.011 -1.2448  1.1552  2.5664
  534MOL0     H70466  12.335   0.256  -0.222  0.4368 -1.4981  0.5786
  534MOL0     H70467  12.254   0.410  -0.255 -2.4734  0.6139  2.1690
  534MOL0     H70468  12.425   0.501  -0.080  2.2950 -0.2880  0.3133
  534MOL0     H70469  12.507   0.407  -0.218  1.2918 -1.7611  0.1293
  534MOL0     H70470  11.485   0.150  -0.103  2.3347  2.7519  0.9256
  534MOL0     H70471  11.281   0.041  -0.115 -3.8038  0.7668  2.8949
  534MOL0     H70472  10.826  -0.093  -0.399 -0.2738  4.2067  0.6130
  534MOL0     H70473  10.611  -0.187  -0.300  0.0921  0.0242  0.0617
  534MOL0     H70474  10.462   0.822   0.779 -0.8716 -3.8188 -0.9145
  534MOL0     H70475  10.652   0.982   0.773  0.0695 -0.4671  0.8961
  534MOL0     H70476  11.004   1.190   0.621 -1.2192 -0.1419  1.1091
  534MOL0     H70477  11.173   1.351   0.657 -1.2355  0.1999 -1.6045
  534MOL0     H70478  11.543   1.247   0.915  4.2536  1.8405  1.0699
  534MOL0     H70479  11.562   1.412   0.851 -0.3764  0.1701 -1.5811
  534MOL0     H70480  11.620   1.163   0.696  0.1196 -0.5338  1.3157
  534MOL0     H70481  11.651   1.329   0.649  1.8671  0.3191  0.1358
  534MOL0     H70482  11.780   1.226   0.901  2.0976  0.5409  0.6290
  534MOL0     H70483  11.776   1.392   0.829  1.7430 -0.6045  3.3532
  534MOL0     H70484  11.893   1.137   0.731 -3.5553 -0.1762  2.9182
  534MOL0     H70485  11.901   1.305   0.637 -3.0192  1.5986  1.3470
  534MOL0     H70486  12.191   1.320   0.955  0.9543 -0.7916 -1.0609
  534MOL0     H70487  11.431   1.059   0.837 -0.0111  2.1320 -0.2224
  534MOL0     H70488  11.246   0.895   0.826  0.5250  0.6073  1.3046
  535MOL0     O70489   5.764   2.265   4.583 -0.1143 -0.0671 -0.5506
  535MOL0     C70490   5.871   2.216   4.570  0.2475 -0.5846 -0.5200
  535MOL0     O70491   5.895   2.081   4.542  0.7950 -0.1371  0.8680
  535MOL0     C70492   5.787   1.993   4.556  0.7714 -0.3625  0.5106
  535MOL0     C70493   5.776   1.907   4.668  0.3730 -0.7906 -0.0247
  535MOL0     C70494   5.661   1.829   4.680 -0.2576  0.8528 -0.4596
  535MOL0     C70495   5.555   1.842   4.591 -0.3268 -0.3990 -0.3122
  535MOL0     O70496   5.430   1.784   4.604  0.6388 -0.1517 -0.7289
  535MOL0     C70497   5.408   1.645   4.610 -0.3729 -0.6253 -0.3018
  535MOL0     C70498   5.289   1.606   4.534 -0.8474 -0.1127  0.5508
  535MOL0     C70499   5.266   1.457   4.533  0.1719  0.6256 -0.4142
  535MOL0     C70500   5.193   1.407   4.414 -0.0315  1.0370 -0.0460
  535MOL0     C70501   5.186   1.256   4.431  0.3519  0.0050  0.3626
  535MOL0     C70502   5.074   1.203   4.335  0.1748  0.6276  0.8245
  535MOL0     C70503   5.092   1.058   4.271 -0.9086 -0.3912 -0.2717
  535MOL0     C70504   5.100   0.962   4.386  0.7601  0.0613  0.1305
  535MOL0     N70505   4.972   0.932   4.452 -0.1822  0.2052  0.0106
  535MOL0     C70506   4.859   0.888   4.395 -0.6786 -0.1507 -0.6363
  535MOL0     C70507   4.759   0.873   4.489 -0.4052 -0.0918 -0.3287
  535MOL0     C70508   4.614   0.843   4.481  0.5295  0.0643  0.7443
  535MOL0     C70509   4.573   0.687   4.461 -0.3016 -0.5052 -0.1335
  535MOL0     C70510   4.415   0.675   4.440 -0.7285  0.0306  0.5586
  535MOL0     C70511   4.338   0.687   4.573 -0.3422  0.4283  0.1966
  535MOL0     O70512   4.214   0.630   4.562 -0.1356  0.1568  0.3472
  535MOL0     C70513   4.111   0.662   4.642 -0.2345 -0.2298  0.1027
  535MOL0     C70514   3.982   0.637   4.595 -0.3545 -0.4577  0.0374
  535MOL0     C70515   3.867   0.648   4.675  0.7662 -0.3701  1.0051
  535MOL0     C70516   3.877   0.717   4.803  0.6755 -0.2118  0.4774
  535MOL0     C70517   3.763   0.786   4.871  0.2356 -0.6311 -0.1814
  535MOL0     O70518   3.655   0.733   4.827  0.5941 -0.5302  0.0449
  535MOL0     C70519   3.528   0.768   4.880  0.6263 -0.1422  0.6670
  535MOL0     C70520   3.490   0.870   4.966 -0.5058  0.2151  0.0023
  535MOL0     C70521   3.361   0.884   5.011  0.1392 -0.8580 -0.0768
  535MOL0     C70522   3.262   0.790   4.981  0.1543 -0.0473  0.3905
  535MOL0     O70523   3.130   0.818   5.001  0.1966 -0.0608 -0.6578
  535MOL0     C70524   3.029   0.764   4.908 -0.8192 -0.5368  0.4652
  535MOL0     C70525   2.912   0.850   4.877 -0.1412 -0.3370  0.5574
  535MOL0     C70526   2.810   0.857   4.993  0.5264  0.6103  0.0983
  535MOL0     C70527   2.761   1.001   5.015  0.4801  0.7016  0.1415
  535MOL0     C70528   2.688   1.069   4.898 -0.3720 -0.3523 -0.7409
  535MOL0     C70529   2.689   1.227   4.918 -0.6299  0.0222 -0.4248
  535MOL0     C70530   2.622   1.293   4.802  0.4947 -0.3701 -0.0674
  535MOL0     C70531   2.476   1.250   4.772  0.8503 -0.6412 -0.5704
  535MOL0    Cl70532   2.424   1.323   4.613  0.0424  0.1173  0.1177
  535MOL0     C70533   3.305   0.672   4.909  0.2208  0.1965  0.0435
  535MOL0     C70534   3.440   0.663   4.874 -1.0228  0.0166 -0.6059
  535MOL0     O70535   3.775   0.853   4.975 -0.2418  0.1800 -0.7788
  535MOL0     C70536   4.010   0.731   4.853  0.3733 -0.9462 -0.8015
  535MOL0     C70537   4.118   0.698   4.774  0.6516 -0.3019 -0.4761
  535MOL0     N70538   4.827   0.897   4.611 -0.5637 -0.0494 -0.8742
  535MOL0     N70539   4.959   0.912   4.590  0.6544  1.2773  0.0482
  535MOL0     C70540   5.571   1.920   4.477  0.3827  0.5431 -0.8495
  535MOL0     C70541   5.686   1.999   4.467  0.2559  0.1904 -0.9606
  535MOL0     C70542   5.989   2.301   4.566  0.9820 -0.3069  0.2679
  535MOL0     C70543   5.964   2.443   4.552 -0.4760  0.7488 -0.0011
  535MOL0     C70544   6.069   2.523   4.529  0.3946  1.1822  0.5639
  535MOL0     C70545   6.203   2.469   4.518  0.6973  0.3818 -0.4106
  535MOL0     O70546   6.323   2.541   4.483  0.3348  0.9576 -0.1732
  535MOL0     C70547   6.290   2.663   4.416 -0.1937 -0.1751 -0.2456
  535MOL0     C70548   6.417   2.724   4.360 -0.2261 -0.0869 -0.3180
  535MOL0     C70549   6.479   2.662   4.234  1.2273  0.0415 -0.2026
  535MOL0     C70550   6.558   2.757   4.148  0.1228  0.1747 -0.4161
  535MOL0     C70551   6.669   2.818   4.230 -0.2035  0.5390 -0.5757
  535MOL0     C70552   6.755   2.864   4.308 -0.8162  0.5291 -0.8896
  535MOL0     C70553   6.224   2.332   4.536 -0.3038  0.4256 -0.0771
  535MOL0     C70554   6.120   2.253   4.566 -0.7126  0.2014 -0.8855
  535MOL0     H70555   5.860   1.886   4.734 -0.0173  1.2556  1.2234
  535MOL0     H70556   5.633   1.753   4.753 -1.1341 -1.6910 -3.2290
  535MOL0     H70557   5.394   1.612   4.714 -1.8214 -1.4823 -0.7513
  535MOL0     H70558   5.498   1.589   4.583 -0.0678 -0.1190 -0.3494
  535MOL0     H70559   5.317   1.632   4.431 -1.4094  0.1161  0.4530
  535MOL0     H70560   5.198   1.659   4.564 -1.3673  0.7680 -2.2462
  535MOL0     H70561   5.206   1.433   4.622  2.1012 -1.0151  0.5248
  535MOL0     H70562   5.360   1.401   4.545 -0.0229  0.2167 -0.7924
  535MOL0     H70563   5.091   1.446   4.416 -0.2934  0.6121 -2.5997
  535MOL0     H70564   5.244   1.424   4.319 -0.4411 -3.2636 -1.2568
  535MOL0     H70565   5.158   1.233   4.535 -0.5867  2.3216  0.6709
  535MOL0     H70566   5.279   1.204   4.406  0.1274 -2.2961  3.5559
  535MOL0     H70567   5.045   1.269   4.253 -1.5406  2.2884  2.6712
  535MOL0     H70568   4.981   1.204   4.391 -2.0112  2.2255 -2.5262
  535MOL0     H70569   5.011   1.034   4.201 -1.9027  2.5111 -0.2772
  535MOL0     H70570   5.189   1.059   4.220 -0.8357 -0.3603 -0.1323
  535MOL0     H70571   5.164   1.004   4.464 -1.6049  0.9399  1.7298
  535MOL0     H70572   5.135   0.860   4.371 -1.9959 -1.5309  3.0849
  535MOL0     H70573   4.832   0.884   4.290 -1.3998  1.3356 -0.5392
  535MOL0     H70574   4.583   0.887   4.386 -3.3169  1.7611  2.5442
  535MOL0     H70575   4.556   0.888   4.562  1.4241  2.0036  0.3680
  535MOL0     H70576   4.604   0.617   4.539 -1.2845  0.3516  1.0773
  535MOL0     H70577   4.610   0.657   4.363 -0.4033 -0.2745 -0.2431
  535MOL0     H70578   4.372   0.751   4.375  0.6708  1.6811  1.4798
  535MOL0     H70579   4.395   0.575   4.399  1.0297 -0.3992  0.6877
  535MOL0     H70580   4.325   0.790   4.606  0.2970  1.0912 -1.4978
  535MOL0     H70581   4.393   0.634   4.651 -2.2453 -2.1111 -0.0641
  535MOL0     H70582   3.960   0.608   4.493 -2.2310  0.1922  0.2089
  535MOL0     H70583   3.766   0.635   4.639  0.7284  0.6827  0.7138
  535MOL0     H70584   3.558   0.952   4.987 -0.5254  0.0515  0.7176
  535MOL0     H70585   3.316   0.974   5.052  0.4231 -0.3107 -0.9480
  535MOL0     H70586   2.985   0.674   4.952  0.6616  0.7460  5.1019
  535MOL0     H70587   3.079   0.743   4.813 -0.1913  1.5133  0.3005
  535MOL0     H70588   2.881   0.827   4.775  3.5647  1.4781 -1.1797
  535MOL0     H70589   2.956   0.950   4.866 -0.4893 -0.4101 -2.3878
  535MOL0     H70590   2.857   0.836   5.090  3.6140 -1.4972 -1.6505
  535MOL0     H70591   2.727   0.789   4.972 -0.5947  1.6890  0.9256
  535MOL0     H70592   2.699   0.998   5.106  0.7839 -1.1318  0.3236
  535MOL0     H70593   2.843   1.071   5.030 -0.9627  3.6280 -3.9973
  535MOL0     H70594   2.586   1.031   4.891  0.6153 -2.9044 -3.0334
  535MOL0     H70595   2.734   1.039   4.804  1.4705 -2.1109  0.6264
  535MOL0     H70596   2.791   1.267   4.923 -0.5722 -0.2658  1.9263
  535MOL0     H70597   2.640   1.241   5.014  1.8604  0.8429  0.8188
  535MOL0     H70598   2.620   1.401   4.815 -0.0912 -0.3680 -0.1194
  535MOL0     H70599   2.682   1.272   4.713  1.9425 -1.5003  1.1240
  535MOL0     H70600   2.405   1.269   4.854 -0.5797 -1.0826 -1.6523
  535MOL0     H70601   2.463   1.142   4.760 -2.7195 -0.2806 -1.2460
  535MOL0     H70602   3.246   0.589   4.872  1.2265  0.1806 -1.6288
  535MOL0     H70603   3.470   0.561   4.852 -2.9449 -1.1577  1.6892
  535MOL0     H70604   4.017   0.789   4.945 -0.7185  0.3284 -1.4915
  535MOL0     H70605   4.212   0.706   4.828 -0.4010 -1.0450  1.5719
  535MOL0     H70606   5.501   1.916   4.394  1.6253  0.9177 -1.9653
  535MOL0     H70607   5.692   2.073   4.388  1.0608  0.0785 -1.0135
  535MOL0     H70608   5.868   2.492   4.535 -1.6143 -1.8038 -1.6938
  535MOL0     H70609   6.043   2.627   4.514 -1.2870  0.4328 -2.5801
  535MOL0     H70610   6.248   2.729   4.492 -1.1514  2.1349 -2.6237
  535MOL0     H70611   6.218   2.641   4.336  0.8225 -0.2276 -1.1807
  535MOL0     H70612   6.394   2.828   4.334 -1.3368 -1.1825 -4.4579
  535MOL0     H70613   6.490   2.730   4.442 -0.3184  0.0922 -0.2482
  535MOL0     H70614   6.399   2.629   4.167  1.1087 -0.0190 -0.0332
  535MOL0     H70615   6.534   2.575   4.270  1.1445  0.1690  0.2411
  535MOL0     H70616   6.601   2.712   4.058 -3.2678 -3.1339 -0.6431
  535MOL0     H70617   6.492   2.837   4.113 -1.4192 -0.1213  1.6329
  535MOL0     H70618   6.839   2.878   4.373 -2.3554 -1.7683  1.7832
  535MOL0     H70619   6.319   2.283   4.520 -1.4790 -2.0133  0.0318
  535MOL0     H70620   6.127   2.147   4.589  1.4765  0.6447  0.7877
  536MOL0     O70621   4.278   5.024   3.834 -0.4393  0.1190  0.1519
  536MOL0     C70622   4.382   5.081   3.872  0.4307 -0.1621  0.4479
  536MOL0     O70623   4.399   5.211   3.866 -0.7234 -0.0371 -0.2355
  536MOL0     C70624   4.310   5.286   3.796  0.4616 -0.9733  0.3264
  536MOL0     C70625   4.294   5.280   3.662 -0.5135  0.9306 -0.3135
  536MOL0     C70626   4.211   5.366   3.585 -1.0307 -0.6846  0.8249
  536MOL0     C70627   4.131   5.455   3.657  0.6024 -0.5874 -0.0018
  536MOL0     O70628   4.040   5.536   3.586  0.1175 -0.2736  0.5634
  536MOL0     C70629   3.905   5.534   3.638  0.0441 -0.3250  0.2772
  536MOL0     C70630   3.805   5.606   3.540  0.5189  0.2289 -0.7245
  536MOL0     C70631   3.687   5.656   3.624 -0.4171  0.3380 -0.5045
  536MOL0     C70632   3.569   5.710   3.534  0.2399  0.4901 -0.2966
  536MOL0     C70633   3.455   5.764   3.615  0.0330  0.4501  0.1812
  536MOL0     C70634   3.362   5.854   3.538 -0.1106  0.6490  0.5580
  536MOL0     C70635   3.225   5.893   3.599 -0.2313 -0.2790 -0.0560
  536MOL0     C70636   3.147   5.780   3.669 -1.0069 -0.2285 -0.5613
  536MOL0     N70637   3.019   5.822   3.681  1.1085 -0.5500  0.0602
  536MOL0     C70638   2.974   5.929   3.754  0.0705  0.3950 -0.4695
  536MOL0     C70639   2.850   5.957   3.706 -0.0221  0.1236 -0.1246
  536MOL0     C70640   2.761   6.067   3.762  1.3046  0.4260  0.4321
  536MOL0     C70641   2.743   6.069   3.912 -0.1422  0.6670  0.4123
  536MOL0     C70642   2.620   6.139   3.946 -0.0642  0.2139  0.0696
  536MOL0     C70643   2.574   6.103   4.089  0.1692 -1.0294 -0.5716
  536MOL0     O70644   2.433   6.155   4.094 -0.2433 -0.5507 -0.0732
  536MOL0     C70645   2.325   6.084   4.137  0.3050  0.2123 -0.1667
  536MOL0     C70646   2.307   5.949   4.153 -0.8037  0.1034 -0.0025
  536MOL0     C70647   2.187   5.895   4.206  0.2527 -0.4936  0.5334
  536MOL0     C70648   2.075   5.984   4.222  0.1515 -0.4201 -0.9048
  536MOL0     C70649   1.936   5.939   4.272  0.3359  0.8200 -0.0578
  536MOL0     O70650   1.930   5.807   4.314  0.3767 -0.5095 -0.4489
  536MOL0     C70651   1.805   5.759   4.357 -0.1651  0.1570 -0.0333
  536MOL0     C70652   1.728   5.680   4.271 -1.1195  0.8583  0.2834
  536MOL0     C70653   1.611   5.625   4.311  0.3884 -0.2585  0.4135
  536MOL0     C70654   1.557   5.650   4.441 -0.1611  0.3247 -0.1023
  536MOL0     O70655   1.449   5.583   4.481  0.1507 -0.5136  0.0712
  536MOL0     C70656   1.358   5.538   4.380 -0.8073  0.1407  0.8152
  536MOL0     C70657   1.240   5.459   4.434  0.0591  0.3239 -0.5469
  536MOL0     C70658   1.117   5.543   4.432  0.2962 -0.5465  0.2457
  536MOL0     C70659   0.995   5.461   4.485 -0.2294 -0.2688 -0.3325
  536MOL0     C70660   0.856   5.538   4.477  0.0319  1.3058  0.4431
  536MOL0     C70661   0.743   5.476   4.561  0.5612 -0.4576 -0.1502
  536MOL0     C70662   0.727   5.325   4.528  1.0252  0.0911 -0.1472
  536MOL0     C70663   0.609   5.258   4.593 -0.1776 -1.0430  0.1685
  536MOL0    Cl70664   0.468   5.306   4.514 -0.2659  0.0524  0.1211
  536MOL0     C70665   1.632   5.731   4.527 -0.0775 -0.3083 -0.3576
  536MOL0     C70666   1.755   5.783   4.487  0.0831  0.3046 -0.2210
  536MOL0     O70667   1.846   6.019   4.264  0.6946 -0.2433  0.3154
  536MOL0     C70668   2.093   6.118   4.205  0.4017  0.3123 -0.5698
  536MOL0     C70669   2.216   6.169   4.151  0.0488  0.5807 -0.7321
  536MOL0     N70670   2.813   5.859   3.620  0.5088 -0.4034  0.1661
  536MOL0     N70671   2.912   5.777   3.606  0.2626 -0.4599  0.3074
  536MOL0     C70672   4.132   5.458   3.797 -0.5533  0.4576  0.1886
  536MOL0     C70673   4.227   5.374   3.868  0.9650  0.0211  0.4107
  536MOL0     C70674   4.502   4.993   3.901  0.5296  0.5650 -0.0166
  536MOL0     C70675   4.595   5.037   3.989 -0.5890 -0.8364 -0.2616
  536MOL0     C70676   4.716   4.963   4.007 -0.2907 -0.1343  0.4284
  536MOL0     C70677   4.721   4.840   3.943  0.5145 -0.3029 -0.7084
  536MOL0     O70678   4.822   4.762   3.997  0.7383 -0.1269 -0.2215
  536MOL0     C70679   4.938   4.763   3.906 -0.0033 -0.1465 -0.1838
  536MOL0     C70680   5.066   4.771   3.977 -0.4865 -0.3115 -0.4237
  536MOL0     C70681   5.116   4.631   4.048  0.1773 -0.6280 -0.6546
  536MOL0     C70682   5.234   4.568   3.972  0.1792 -0.5373 -0.2271
  536MOL0     C70683   5.285   4.441   4.015 -0.4566  0.1361 -0.9118
  536MOL0     C70684   5.343   4.338   4.056  0.4211 -0.4556 -0.0534
  536MOL0     C70685   4.635   4.797   3.850  0.3262 -0.1429  0.3264
  536MOL0     C70686   4.513   4.872   3.841  0.4274 -0.9721  0.7205
  536MOL0     H70687   4.350   5.208   3.603 -0.9526  0.3062  0.0193
  536MOL0     H70688   4.196   5.353   3.478 -1.2212  2.4037  0.3736
  536MOL0     H70689   3.897   5.584   3.735 -2.0339  1.6145 -0.7736
  536MOL0     H70690   3.876   5.429   3.643 -0.4720 -0.1670  0.6983
  536MOL0     H70691   3.772   5.530   3.468 -0.4133 -1.8248  1.7345
  536MOL0     H70692   3.848   5.681   3.472  0.3186 -0.0798 -1.1939
  536MOL0     H70693   3.732   5.743   3.673  0.3679 -0.5340  0.3587
  536MOL0     H70694   3.647   5.587   3.699  1.2695  0.4254  0.5129
  536MOL0     H70695   3.598   5.793   3.469 -0.6948 -0.4536 -1.9752
  536MOL0     H70696   3.549   5.633   3.459  0.5418 -1.3629  1.4293
  536MOL0     H70697   3.485   5.816   3.707  0.4686 -0.8110  0.7759
  536MOL0     H70698   3.399   5.678   3.653  0.3868  0.1944  0.1354
  536MOL0     H70699   3.333   5.791   3.454 -0.0434  1.6768 -0.2547
  536MOL0     H70700   3.415   5.938   3.492  0.2475 -0.8361 -1.9465
  536MOL0     H70701   3.234   5.973   3.673  1.0306  2.2683 -2.7339
  536MOL0     H70702   3.158   5.928   3.520 -0.3801 -0.8406 -0.1814
  536MOL0     H70703   3.187   5.764   3.770 -1.2015 -0.3345 -0.5003
  536MOL0     H70704   3.159   5.685   3.615  0.0728  0.1662 -1.0513
  536MOL0     H70705   3.015   5.987   3.836 -3.0735 -1.8177  3.0464
  536MOL0     H70706   2.670   6.048   3.704  1.7250 -4.3384  0.9242
  536MOL0     H70707   2.793   6.169   3.736 -2.0242  1.3371 -0.5254
  536MOL0     H70708   2.839   6.106   3.951  0.6555 -3.1244  2.5793
  536MOL0     H70709   2.719   5.967   3.943 -1.4199  1.2435  1.4092
  536MOL0     H70710   2.624   6.248   3.939 -0.7975  0.2290 -0.1407
  536MOL0     H70711   2.540   6.106   3.879 -0.9458  2.9279 -0.3393
  536MOL0     H70712   2.630   6.154   4.168  3.0252 -0.2424 -2.8877
  536MOL0     H70713   2.590   5.997   4.112  3.7321  0.2173  4.5606
  536MOL0     H70714   2.396   5.895   4.121 -1.3021 -0.0801 -1.1239
  536MOL0     H70715   2.176   5.787   4.202 -0.0617 -0.4236 -1.2570
  536MOL0     H70716   1.759   5.664   4.169 -1.7092  0.2954  0.1937
  536MOL0     H70717   1.562   5.572   4.231  0.7978 -2.6091  1.6176
  536MOL0     H70718   1.414   5.466   4.320  0.3015  2.5057 -1.1776
  536MOL0     H70719   1.324   5.618   4.313  0.7340 -0.5419 -0.8752
  536MOL0     H70720   1.268   5.409   4.527 -1.8499 -2.6898 -1.4549
  536MOL0     H70721   1.220   5.376   4.366  2.8316 -0.2226 -0.8432
  536MOL0     H70722   1.098   5.569   4.328 -3.3519  3.2121  1.5539
  536MOL0     H70723   1.125   5.634   4.493  0.3756  2.3799 -3.7403
  536MOL0     H70724   0.981   5.362   4.439 -0.8378 -0.6708  0.6832
  536MOL0     H70725   1.020   5.430   4.587  0.8408 -0.2790 -0.5852
  536MOL0     H70726   0.825   5.539   4.372 -3.1763 -1.3226  1.1870
  536MOL0     H70727   0.873   5.641   4.509  2.5389  0.7641  1.0269
  536MOL0     H70728   0.645   5.518   4.540 -0.2413 -1.0635  2.0847
  536MOL0     H70729   0.768   5.485   4.667  2.0410 -2.2618 -0.2883
  536MOL0     H70730   0.726   5.309   4.420 -0.3354  0.7207 -0.2440
  536MOL0     H70731   0.817   5.272   4.562  0.9167 -0.8854 -1.3013
  536MOL0     H70732   0.594   5.283   4.699 -0.3993  0.5745 -0.2298
  536MOL0     H70733   0.615   5.150   4.575  0.4276 -0.8368 -0.9405
  536MOL0     H70734   1.602   5.744   4.630  2.9034 -1.0622  0.7197
  536MOL0     H70735   1.814   5.852   4.547  0.2796  1.5439 -1.7719
  536MOL0     H70736   2.007   6.183   4.211  0.7286  0.9062 -2.0718
  536MOL0     H70737   2.213   6.274   4.125  0.1459  0.5855 -0.7246
  536MOL0     H70738   4.065   5.518   3.857  1.2946  2.8682 -0.0266
  536MOL0     H70739   4.239   5.373   3.976  1.4029 -1.8754  0.3812
  536MOL0     H70740   4.593   5.133   4.040  0.1065  0.1996 -2.1196
  536MOL0     H70741   4.796   4.983   4.078  1.4602 -3.5327 -0.3440
  536MOL0     H70742   4.936   4.841   3.829  1.1062  1.1169  1.0225
  536MOL0     H70743   4.949   4.666   3.856  0.6790  0.2486 -0.8068
  536MOL0     H70744   5.148   4.811   3.917  0.8008  0.7260  1.8830
  536MOL0     H70745   5.046   4.846   4.054 -0.3004  2.4168 -2.8945
  536MOL0     H70746   5.044   4.549   4.037  0.0075 -0.3446 -1.6748
  536MOL0     H70747   5.141   4.645   4.154  2.8191 -1.8754 -1.0419
  536MOL0     H70748   5.224   4.547   3.865  2.0784 -2.0475 -0.1532
  536MOL0     H70749   5.314   4.643   3.977 -1.4835  1.2996 -0.0109
  536MOL0     H70750   5.384   4.261   4.118 -1.2419  0.0729  1.8180
  536MOL0     H70751   4.644   4.696   3.813 -0.1829  0.0566 -0.3523
  536MOL0     H70752   4.421   4.839   3.795 -0.3574  0.5365  1.1306
  537MOL0     O70753   8.669   2.284   5.171 -0.3886  0.1117  0.1494
  537MOL0     C70754   8.742   2.209   5.232 -0.4087  0.1768 -0.6325
  537MOL0     O70755   8.702   2.122   5.329 -0.0945  0.3078  0.0960
  537MOL0     C70756   8.569   2.081   5.356 -0.4167  0.2646  0.1119
  537MOL0     C70757   8.525   2.077   5.498  0.4330 -0.5222 -0.6850
  537MOL0     C70758   8.402   2.041   5.530 -0.2284  0.4501  0.0762
  537MOL0     C70759   8.306   2.010   5.428  0.0657 -0.1642  0.3199
  537MOL0     O70760   8.187   1.972   5.480 -0.1237  0.3783 -0.1393
  537MOL0     C70761   8.071   1.980   5.395  0.0211 -0.6029  0.6327
  537MOL0     C70762   7.936   1.988   5.470 -0.1752  0.2939  0.7894
  537MOL0     C70763   7.830   2.033   5.372 -0.2932 -1.0485 -0.3263
  537MOL0     C70764   7.692   2.036   5.443 -1.0364 -0.1699  0.7085
  537MOL0     C70765   7.590   2.017   5.331  0.4128 -0.0708  0.5415
  537MOL0     C70766   7.446   2.035   5.374 -0.5812 -0.5197  0.2959
  537MOL0     C70767   7.342   2.038   5.262 -0.1293  1.1605 -0.4949
  537MOL0     C70768   7.200   2.053   5.310 -0.1416 -1.3288 -0.3638
  537MOL0     N70769   7.168   2.193   5.356  0.1623  0.8692 -0.1302
  537MOL0     C70770   7.191   2.253   5.478 -0.4624 -0.5555  0.1172
  537MOL0     C70771   7.159   2.387   5.464  0.2554  0.4897  0.5115
  537MOL0     C70772   7.163   2.492   5.574 -0.2587 -0.3091  0.5619
  537MOL0     C70773   7.022   2.532   5.616  0.2134  0.6400 -1.1214
  537MOL0     C70774   7.016   2.630   5.729 -0.7366  0.1949  0.0510
  537MOL0     C70775   6.868   2.669   5.765  0.4197 -0.5570  0.1330
  537MOL0     O70776   6.785   2.552   5.798  0.2325  0.2760  0.2815
  537MOL0     C70777   6.652   2.565   5.820 -0.7118  0.5174  0.0178
  537MOL0     C70778   6.585   2.692   5.830  0.3423  0.2834  0.2411
  537MOL0     C70779   6.443   2.691   5.840  0.5326 -0.5115  0.2265
  537MOL0     C70780   6.367   2.578   5.850  0.0707  0.0811  0.2544
  537MOL0     C70781   6.216   2.584   5.865 -0.9733 -0.1222  0.2903
  537MOL0     O70782   6.146   2.475   5.817  0.1473  0.1199  0.8057
  537MOL0     C70783   6.018   2.462   5.856  0.6025 -0.2726  0.3181
  537MOL0     C70784   5.991   2.369   5.942  0.2020  0.8742  0.0930
  537MOL0     C70785   5.868   2.361   6.001  0.0485 -0.2326  1.2031
  537MOL0     C70786   5.759   2.452   5.973 -0.4117  1.0359  0.9751
  537MOL0     O70787   5.637   2.435   6.021  0.2738 -0.4077  0.0485
  537MOL0     C70788   5.627   2.407   6.164 -0.4913  0.4443  0.4331
  537MOL0     C70789   5.489   2.427   6.232  0.6388  1.0208 -0.2322
  537MOL0     C70790   5.380   2.320   6.198  0.0979 -0.5546 -0.1375
  537MOL0     C70791   5.243   2.368   6.242  0.4716  0.7143 -0.3880
  537MOL0     C70792   5.133   2.286   6.174 -0.0870  0.6731  0.7045
  537MOL0     C70793   4.997   2.303   6.234  0.4481 -1.2861 -1.0952
  537MOL0     C70794   4.885   2.245   6.151  0.2478 -0.1791  0.4448
  537MOL0     C70795   4.747   2.299   6.189  0.0791  0.7519 -0.4019
  537MOL0    Cl70796   4.618   2.256   6.073  0.4167 -0.3546 -0.2072
  537MOL0     C70797   5.786   2.553   5.881  0.1644  0.0333  0.0156
  537MOL0     C70798   5.919   2.561   5.827  0.0064 -0.3465  0.7725
  537MOL0     O70799   6.167   2.679   5.926  0.3286 -0.0174 -0.2650
  537MOL0     C70800   6.436   2.456   5.859 -0.3386  0.9307  0.8623
  537MOL0     C70801   6.580   2.445   5.839 -0.1146 -0.1829 -0.2252
  537MOL0     N70802   7.115   2.398   5.334  0.6194 -0.4004  0.4388
  537MOL0     N70803   7.118   2.286   5.270 -0.9301  0.1679 -0.3911
  537MOL0     C70804   8.341   2.017   5.292 -0.3777 -1.2165  1.1054
  537MOL0     C70805   8.475   2.059   5.251 -0.2571 -0.6987 -0.5285
  537MOL0     C70806   8.885   2.210   5.207 -0.3910 -0.6249 -0.2985
  537MOL0     C70807   8.944   2.328   5.154 -0.5521  0.5725  0.0368
  537MOL0     C70808   9.082   2.340   5.131 -0.4530  1.4275  0.0345
  537MOL0     C70809   9.166   2.239   5.174  0.7279  0.0617 -0.4319
  537MOL0     O70810   9.303   2.227   5.177 -0.5491  0.4908 -0.4893
  537MOL0     C70811   9.374   2.349   5.143 -0.0625  0.5735  0.1733
  537MOL0     C70812   9.523   2.317   5.153 -0.1672  0.1607  0.2889
  537MOL0     C70813   9.600   2.401   5.261 -0.5995 -0.1068  0.4594
  537MOL0     C70814   9.746   2.354   5.252 -0.0086 -0.0945 -0.2298
  537MOL0     C70815   9.833   2.429   5.346 -0.1179 -1.0888 -0.1579
  537MOL0     C70816   9.928   2.479   5.412  0.5015  0.5721  0.1248
  537MOL0     C70817   9.104   2.119   5.226 -0.5679 -0.0251  0.2719
  537MOL0     C70818   8.971   2.107   5.243  0.4632  0.4416  0.2631
  537MOL0     H70819   8.602   2.097   5.572  0.1487 -1.9952  0.0467
  537MOL0     H70820   8.372   2.022   5.633  1.5565 -2.2371  0.1852
  537MOL0     H70821   8.085   1.895   5.327 -1.3464 -1.9993  1.9917
  537MOL0     H70822   8.078   2.071   5.336  0.4785 -1.3794 -0.5540
  537MOL0     H70823   7.944   2.046   5.562  0.0710  1.1941  0.2190
  537MOL0     H70824   7.911   1.886   5.502  0.5458  0.4845  2.0049
  537MOL0     H70825   7.822   1.961   5.290 -3.5797 -1.1642 -0.0530
  537MOL0     H70826   7.849   2.132   5.330 -1.6137 -0.0141  1.3505
  537MOL0     H70827   7.681   1.952   5.511 -0.1075 -0.8175  0.0829
  537MOL0     H70828   7.685   2.133   5.493  0.5882  1.0110 -1.2101
  537MOL0     H70829   7.596   1.919   5.284 -3.0345 -1.6449  2.9693
  537MOL0     H70830   7.598   2.097   5.256 -0.9291 -0.9351 -0.5654
  537MOL0     H70831   7.438   2.130   5.429  1.0818  0.5676 -1.2338
  537MOL0     H70832   7.422   1.963   5.453 -0.7138  0.1242  0.8549
  537MOL0     H70833   7.367   2.113   5.187 -0.3564  0.6395 -1.1033
  537MOL0     H70834   7.353   1.940   5.215 -2.1687  0.4156  0.4343
  537MOL0     H70835   7.188   1.976   5.388  1.0157 -0.6185  0.5506
  537MOL0     H70836   7.131   2.026   5.229 -0.4443 -4.3128  0.7444
  537MOL0     H70837   7.222   2.203   5.569  1.8700  1.0479  0.2994
  537MOL0     H70838   7.199   2.584   5.527 -2.4275 -0.3941 -1.4157
  537MOL0     H70839   7.227   2.476   5.662  0.8693  0.2316 -0.1385
  537MOL0     H70840   6.971   2.440   5.643  0.9385  0.3001 -0.8861
  537MOL0     H70841   6.963   2.587   5.541 -5.3571  4.1085  4.7871
  537MOL0     H70842   7.058   2.592   5.822 -1.7392 -1.4360 -0.1322
  537MOL0     H70843   7.067   2.722   5.697 -1.4129 -0.0763 -1.9348
  537MOL0     H70844   6.814   2.709   5.679 -0.4570 -2.9993 -0.5575
  537MOL0     H70845   6.862   2.746   5.843 -3.1628 -0.2803 -0.2336
  537MOL0     H70846   6.640   2.785   5.821  1.2972 -0.4494 -2.6065
  537MOL0     H70847   6.384   2.782   5.840  0.4718 -0.5092 -1.8870
  537MOL0     H70848   6.071   2.299   5.968  0.2675  1.2533  0.9370
  537MOL0     H70849   5.839   2.285   6.074 -1.6350 -0.1556  0.6451
  537MOL0     H70850   5.700   2.466   6.221  1.6075  0.0464 -1.6489
  537MOL0     H70851   5.634   2.299   6.181 -4.4908 -0.2850 -1.5084
  537MOL0     H70852   5.455   2.530   6.216  1.8150  1.6349  0.9957
  537MOL0     H70853   5.494   2.429   6.341  0.1582  3.6112 -0.1872
  537MOL0     H70854   5.396   2.223   6.247  1.2465  0.0080  0.6287
  537MOL0     H70855   5.382   2.303   6.090  0.6979  0.1026 -0.2314
  537MOL0     H70856   5.243   2.355   6.351 -0.1181 -2.7852 -0.7111
  537MOL0     H70857   5.220   2.475   6.231  0.0819  0.6016 -0.6850
  537MOL0     H70858   5.148   2.178   6.174 -3.2947 -0.1089 -4.1113
  537MOL0     H70859   5.137   2.315   6.068  2.3336 -1.7961 -0.0055
  537MOL0     H70860   4.974   2.409   6.250 -0.8891 -2.0925  4.0351
  537MOL0     H70861   5.006   2.258   6.333 -0.4781  1.7151  0.4816
  537MOL0     H70862   4.902   2.276   6.047 -2.4435 -4.9044 -1.7217
  537MOL0     H70863   4.895   2.136   6.152  0.7552 -0.1527 -0.6002
  537MOL0     H70864   4.755   2.408   6.194  0.9844  0.6664  0.3234
  537MOL0     H70865   4.726   2.268   6.292  3.2576 -0.4165  0.0200
  537MOL0     H70866   5.707   2.610   5.833 -1.6360 -0.3767  2.3212
  537MOL0     H70867   5.944   2.626   5.744 -2.7539 -0.2988 -0.1259
  537MOL0     H70868   6.377   2.366   5.867 -0.0159  0.6798  0.4538
  537MOL0     H70869   6.627   2.351   5.814  2.1567  0.9511 -0.5255
  537MOL0     H70870   8.285   1.983   5.206  0.9783 -0.0781 -0.2782
  537MOL0     H70871   8.503   2.058   5.147  0.9875  1.2174 -0.2718
  537MOL0     H70872   8.883   2.413   5.126  0.2143  0.6252 -1.6065
  537MOL0     H70873   9.122   2.430   5.083 -0.8312  0.6217 -1.9119
  537MOL0     H70874   9.348   2.434   5.207 -1.4792 -0.6119  1.2473
  537MOL0     H70875   9.347   2.391   5.045  0.7195 -2.2310 -1.3483
  537MOL0     H70876   9.530   2.213   5.188  0.3393 -0.4705 -1.5781
  537MOL0     H70877   9.568   2.317   5.054 -1.3969 -0.6101 -0.2921
  537MOL0     H70878   9.564   2.363   5.357  0.0192 -1.3462  0.2270
  537MOL0     H70879   9.593   2.509   5.251 -0.4715 -0.1987 -0.6949
  537MOL0     H70880   9.762   2.248   5.273  3.2994  0.1214 -1.0997
  537MOL0     H70881   9.780   2.373   5.150  1.9211  3.0168  0.8345
  537MOL0     H70882  10.009   2.521   5.468  1.3593 -1.1500  0.2481
  537MOL0     H70883   9.169   2.042   5.264 -0.7358  0.2764  1.1781
  537MOL0     H70884   8.929   2.017   5.287  0.9616  0.8214  1.5804
  538MOL0     O70885   6.495   1.703   3.412 -0.0390 -0.8000 -0.6138
  538MOL0     C70886   6.541   1.594   3.437  0.5847 -0.0355 -0.8220
  538MOL0     O70887   6.464   1.485   3.473  0.0027 -0.0823 -0.2075
  538MOL0     C70888   6.329   1.472   3.491 -0.1391 -0.8054 -0.5262
  538MOL0     C70889   6.251   1.363   3.449 -0.3354  0.1423  0.7484
  538MOL0     C70890   6.114   1.371   3.454 -0.2031 -0.2766 -0.5331
  538MOL0     C70891   6.040   1.467   3.517  0.2510 -0.0797  0.6108
  538MOL0     O70892   5.897   1.476   3.522 -0.3758 -0.0533 -0.2281
  538MOL0     C70893   5.843   1.491   3.660  0.2050 -0.0825  0.0637
  538MOL0     C70894   5.705   1.560   3.661 -0.5717  1.0640 -0.4083
  538MOL0     C70895   5.595   1.493   3.577 -0.1276 -0.3489  0.2448
  538MOL0     C70896   5.474   1.585   3.574 -0.1371  0.2809  0.7264
  538MOL0     C70897   5.345   1.507   3.547 -0.3834 -0.7499  0.3842
  538MOL0     C70898   5.218   1.589   3.548 -0.9905  0.4362 -0.3230
  538MOL0     C70899   5.093   1.495   3.561  0.0641 -0.7070  0.5013
  538MOL0     C70900   4.971   1.571   3.506 -0.0182 -0.1599 -0.2435
  538MOL0     N70901   4.842   1.498   3.493 -0.5107  0.4385 -0.0399
  538MOL0     C70902   4.810   1.403   3.397  0.8104 -0.5520  0.4343
  538MOL0     C70903   4.688   1.368   3.437  0.2194  0.6437  0.0672
  538MOL0     C70904   4.592   1.279   3.360  0.3962 -0.2433 -0.1088
  538MOL0     C70905   4.483   1.215   3.446 -0.5902 -0.3227  1.1754
  538MOL0     C70906   4.359   1.296   3.448 -0.0447 -0.0153  0.6250
  538MOL0     C70907   4.271   1.278   3.324 -0.8124 -0.3001  0.2845
  538MOL0     O70908   4.236   1.139   3.296 -0.0485 -0.3186 -0.1964
  538MOL0     C70909   4.114   1.108   3.250  0.2958 -0.5387  0.5972
  538MOL0     C70910   4.032   1.033   3.325 -0.3000 -0.1870  0.9439
  538MOL0     C70911   3.910   1.001   3.279  0.3855 -0.6572 -0.5800
  538MOL0     C70912   3.857   1.044   3.158  0.1115  0.1438  0.8257
  538MOL0     C70913   3.719   1.006   3.121  0.0579 -0.4019  0.5731
  538MOL0     O70914   3.632   0.976   3.223  0.4217  0.3072 -0.4078
  538MOL0     C70915   3.504   0.946   3.183 -0.2021  0.1880 -0.3432
  538MOL0     C70916   3.448   0.818   3.200  0.3287 -1.0746 -0.8369
  538MOL0     C70917   3.311   0.787   3.167  0.5436  0.2036  0.0056
  538MOL0     C70918   3.237   0.893   3.119 -0.4476  0.1311  0.8604
  538MOL0     O70919   3.109   0.881   3.071  0.7564 -0.0851  0.1679
  538MOL0     C70920   3.037   0.772   3.138  0.5564  0.7095 -0.1034
  538MOL0     C70921   2.893   0.766   3.115 -0.1889 -0.3714  0.1798
  538MOL0     C70922   2.889   0.778   2.968 -0.4686  0.0329  0.3565
  538MOL0     C70923   2.750   0.744   2.909  0.4988  0.2910 -0.1950
  538MOL0     C70924   2.727   0.787   2.752  0.8975  0.6207 -1.1153
  538MOL0     C70925   2.606   0.704   2.709  0.5115  0.1848 -0.5968
  538MOL0     C70926   2.508   0.779   2.617  0.7166  0.6447 -0.9906
  538MOL0     C70927   2.370   0.787   2.679 -0.2948 -0.1788  0.0876
  538MOL0    Cl70928   2.290   0.619   2.706 -0.0746 -0.2649 -0.1263
  538MOL0     C70929   3.290   1.020   3.105  0.3382  0.0488  0.9253
  538MOL0     C70930   3.425   1.053   3.131 -0.1443 -0.2055  0.9940
  538MOL0     O70931   3.681   1.013   3.002 -0.3122 -0.6271  0.0804
  538MOL0     C70932   3.935   1.132   3.082 -0.8174  0.1325  0.1625
  538MOL0     C70933   4.067   1.167   3.133 -0.3707  0.1738  0.2878
  538MOL0     N70934   4.653   1.439   3.549 -0.5711 -0.1718 -0.6897
  538MOL0     N70935   4.747   1.517   3.582  0.6109  0.7852  0.3046
  538MOL0     C70936   6.118   1.572   3.565  0.4391 -0.2883 -0.3291
  538MOL0     C70937   6.257   1.579   3.549  0.4984 -0.0666  0.3894
  538MOL0     C70938   6.690   1.572   3.426  0.5733 -0.1895 -0.3306
  538MOL0     C70939   6.748   1.446   3.448 -0.3154 -0.4038  0.5347
  538MOL0     C70940   6.890   1.434   3.449  0.2363 -0.2560 -0.3935
  538MOL0     C70941   6.972   1.544   3.418 -0.8377 -0.5005  0.8143
  538MOL0     O70942   7.107   1.518   3.388  0.3706 -0.2436 -0.0150
  538MOL0     C70943   7.200   1.627   3.374  0.0798  1.0586 -0.0590
  538MOL0     C70944   7.344   1.582   3.344 -1.4227 -0.2388 -0.2268
  538MOL0     C70945   7.433   1.709   3.370 -0.5495  1.5635  0.0913
  538MOL0     C70946   7.556   1.710   3.278  0.3299  0.7344  0.2237
  538MOL0     C70947   7.639   1.592   3.308 -0.0894  0.0202 -0.0440
  538MOL0     C70948   7.713   1.500   3.335  1.4881  0.4316  0.7664
  538MOL0     C70949   6.912   1.672   3.388  0.7821  0.1873  0.0596
  538MOL0     C70950   6.772   1.685   3.395  1.0286  0.1085 -0.5430
  538MOL0     H70951   6.313   1.282   3.414 -2.3793 -0.6110 -1.4138
  538MOL0     H70952   6.065   1.284   3.413  0.4612 -0.3281 -1.2282
  538MOL0     H70953   5.911   1.546   3.726  5.5576 -3.9403 -1.5226
  538MOL0     H70954   5.831   1.394   3.709 -2.2653  0.5151  0.7544
  538MOL0     H70955   5.723   1.664   3.632  0.0508  1.2774  0.6786
  538MOL0     H70956   5.667   1.571   3.763  2.1547  0.1781  0.8199
  538MOL0     H70957   5.574   1.396   3.623  3.1514 -0.5375  1.7099
  538MOL0     H70958   5.631   1.488   3.474  3.3357  0.5143  1.2556
  538MOL0     H70959   5.466   1.643   3.666 -0.7461  1.0088  0.2263
  538MOL0     H70960   5.497   1.640   3.482  1.5873 -2.5264 -0.6878
  538MOL0     H70961   5.329   1.434   3.627 -0.2326  0.4459  1.5249
  538MOL0     H70962   5.351   1.452   3.453 -3.9177 -0.8615  0.0874
  538MOL0     H70963   5.225   1.651   3.458 -0.1536  0.8521  0.0132
  538MOL0     H70964   5.218   1.663   3.629 -1.4798 -1.1206  1.1702
  538MOL0     H70965   5.099   1.402   3.503  0.5766  0.3548 -1.2275
  538MOL0     H70966   5.077   1.480   3.668 -0.0020 -0.1712  0.5685
  538MOL0     H70967   5.003   1.616   3.412  1.2154 -1.9766 -0.7689
  538MOL0     H70968   4.954   1.644   3.585 -2.0430 -3.0715  2.2630
  538MOL0     H70969   4.863   1.384   3.303 -1.3596 -2.7024 -0.4574
  538MOL0     H70970   4.638   1.197   3.303 -0.8571  0.1756 -1.8276
  538MOL0     H70971   4.546   1.335   3.278 -0.4123 -0.5568  0.1221
  538MOL0     H70972   4.541   1.201   3.538  0.2314 -2.2512  0.4376
  538MOL0     H70973   4.461   1.113   3.411 -2.4616  0.1995  0.7506
  538MOL0     H70974   4.306   1.247   3.531  0.9555 -4.2906 -0.9869
  538MOL0     H70975   4.381   1.402   3.462 -0.0631  0.1807 -0.6974
  538MOL0     H70976   4.314   1.317   3.231  0.3265  1.7156  1.5740
  538MOL0     H70977   4.181   1.339   3.335  0.3812  1.7601 -0.6207
  538MOL0     H70978   4.066   1.004   3.423  0.6504 -4.2405 -0.3850
  538MOL0     H70979   3.848   0.948   3.350  1.2970  0.6925  1.3047
  538MOL0     H70980   3.504   0.734   3.239 -0.6082 -0.7800  1.2462
  538MOL0     H70981   3.273   0.688   3.189 -0.8086  0.7399  0.1684
  538MOL0     H70982   3.051   0.791   3.244 -0.5179  0.5653  0.0664
  538MOL0     H70983   3.081   0.673   3.123  0.2635  0.2872  1.6279
  538MOL0     H70984   2.838   0.851   3.156  1.0071 -1.1940  3.8748
  538MOL0     H70985   2.845   0.674   3.149 -0.8952 -0.4375 -0.9533
  538MOL0     H70986   2.955   0.709   2.915  0.7453  1.9389 -0.7361
  538MOL0     H70987   2.914   0.879   2.935 -2.8557  0.7045  0.4345
  538MOL0     H70988   2.740   0.635   2.909 -2.2282  0.4542 -1.6219
  538MOL0     H70989   2.670   0.797   2.963  0.6272  2.6487 -2.1371
  538MOL0     H70990   2.808   0.748   2.690  1.1494 -1.9969  0.6741
  538MOL0     H70991   2.713   0.892   2.724 -0.7227  0.0162 -2.7396
  538MOL0     H70992   2.550   0.659   2.792  0.1943  2.2989  0.4234
  538MOL0     H70993   2.642   0.620   2.649 -1.0052  0.4246 -1.8936
  538MOL0     H70994   2.555   0.871   2.582  3.8138  0.1970  1.5569
  538MOL0     H70995   2.483   0.713   2.534  2.8538  0.6193 -1.6609
  538MOL0     H70996   2.308   0.837   2.604 -1.1663 -0.4158  0.6357
  538MOL0     H70997   2.378   0.839   2.775  0.1466 -0.4504  0.2044
  538MOL0     H70998   3.229   1.097   3.060 -2.3932 -1.3977  1.8722
  538MOL0     H70999   3.452   1.156   3.113 -0.4145 -0.4321 -0.9879
  538MOL0     H71000   3.902   1.166   2.984 -0.3103  0.2967  0.0450
  538MOL0     H71001   4.143   1.233   3.092  1.9909 -1.9111  1.0781
  538MOL0     H71002   6.060   1.653   3.609  1.6751  2.1739 -2.8659
  538MOL0     H71003   6.304   1.667   3.593  3.7740 -1.0061 -0.9760
  538MOL0     H71004   6.695   1.354   3.468  0.0241 -0.5648  0.6941
  538MOL0     H71005   6.942   1.342   3.473  1.3171  0.5243  0.3629
  538MOL0     H71006   7.201   1.680   3.470 -0.2783 -1.2109  1.2782
  538MOL0     H71007   7.163   1.695   3.297  2.0549  1.4458 -0.7005
  538MOL0     H71008   7.372   1.505   3.416  0.6888 -1.9813 -2.7183
  538MOL0     H71009   7.353   1.549   3.240  1.7733 -0.3527 -0.0136
  538MOL0     H71010   7.462   1.715   3.476  0.3471  3.1596 -0.2150
  538MOL0     H71011   7.377   1.800   3.344  1.6687  2.5088 -1.7662
  538MOL0     H71012   7.542   1.724   3.171  4.0739 -1.7822 -0.7850
  538MOL0     H71013   7.609   1.800   3.311  0.4452  0.5858  0.4465
  538MOL0     H71014   7.778   1.416   3.348  0.2943 -0.7475 -0.6295
  538MOL0     H71015   6.974   1.756   3.360  0.1477  0.0981 -1.7621
  538MOL0     H71016   6.740   1.786   3.373  0.2457 -0.3521 -1.5679
  539MOL0     O71017   8.492   7.034   0.516  0.4573 -0.1145 -1.2184
  539MOL0     C71018   8.542   7.051   0.627  0.4444 -0.4815 -0.9434
  539MOL0     O71019   8.476   7.064   0.742 -0.5753  0.4766  0.0070
  539MOL0     C71020   8.340   7.057   0.739 -0.7718  0.0981 -0.7299
  539MOL0     C71021   8.258   7.150   0.681 -0.5131  0.4657  0.6938
  539MOL0     C71022   8.118   7.131   0.683  0.3351  0.4208 -0.0434
  539MOL0     C71023   8.058   7.032   0.758  0.5367  1.3443 -0.7505
  539MOL0     O71024   7.921   7.027   0.759 -0.5898  0.0476 -0.1218
  539MOL0     C71025   7.852   7.008   0.881  0.3378 -0.5800  0.5653
  539MOL0     C71026   7.705   6.994   0.838 -0.2034  0.5881 -0.0212
  539MOL0     C71027   7.681   6.834   0.814 -0.6099 -0.2052 -0.5572
  539MOL0     C71028   7.548   6.807   0.738  0.4164 -0.1428 -0.6290
  539MOL0     C71029   7.427   6.794   0.834 -0.1530 -0.4222 -0.0569
  539MOL0     C71030   7.293   6.791   0.759  0.0479 -0.2516 -0.3683
  539MOL0     C71031   7.187   6.746   0.861  0.6292 -0.0280 -0.1867
  539MOL0     C71032   7.044   6.763   0.795 -0.2591 -0.5036 -0.3823
  539MOL0     N71033   6.985   6.644   0.734 -0.7381 -0.2683 -0.9447
  539MOL0     C71034   6.880   6.574   0.785 -0.2789 -0.0432 -0.4720
  539MOL0     C71035   6.851   6.483   0.689 -0.1266  0.1120  0.3176
  539MOL0     C71036   6.767   6.355   0.701 -0.1687  0.8632  0.0963
  539MOL0     C71037   6.657   6.360   0.596 -0.5680  0.6158 -0.2225
  539MOL0     C71038   6.692   6.284   0.466 -0.7060  0.2425 -0.3054
  539MOL0     C71039   6.594   6.294   0.348  0.4489  0.1819  0.6370
  539MOL0     O71040   6.486   6.206   0.382  0.2784 -0.2572  0.3334
  539MOL0     C71041   6.372   6.198   0.303  0.1365  0.1887 -0.1847
  539MOL0     C71042   6.371   6.242   0.175  0.1515 -0.7554 -0.0283
  539MOL0     C71043   6.247   6.242   0.108  0.2535  0.1479 -0.3003
  539MOL0     C71044   6.129   6.196   0.163 -0.0598 -0.6166  0.4691
  539MOL0     C71045   5.996   6.196   0.097 -0.3184  0.4654 -0.2624
  539MOL0     O71046   5.881   6.193   0.170 -0.4338 -0.1768 -0.0372
  539MOL0     C71047   5.770   6.131   0.133  0.5165 -0.1138  0.0725
  539MOL0     C71048   5.776   6.012   0.048  0.7292 -0.7405  0.2706
  539MOL0     C71049   5.659   5.932   0.022 -0.3295 -0.4349 -0.3668
  539MOL0     C71050   5.534   5.987   0.058 -0.3115 -0.3315 -0.0761
  539MOL0     O71051   5.421   5.908   0.029  0.1808  0.4169  0.2371
  539MOL0     C71052   5.348   5.858   0.139 -0.6993 -0.3617 -0.1359
  539MOL0     C71053   5.192   5.855   0.115 -0.4239  0.5317  0.8522
  539MOL0     C71054   5.122   5.955   0.200 -0.1483 -0.1003  0.3313
  539MOL0     C71055   4.980   5.959   0.156 -0.6070 -0.1144 -0.6071
  539MOL0     C71056   4.884   6.035   0.256  0.9854  0.1069 -0.2295
  539MOL0     C71057   4.750   6.023   0.186 -0.1059 -0.3671 -0.2932
  539MOL0     C71058   4.646   6.097   0.262 -0.6654  1.2278  0.2154
  539MOL0     C71059   4.632   6.237   0.213 -0.3326 -0.0933  0.5106
  539MOL0    Cl71060   4.518   6.334   0.309  0.2408 -0.2290 -0.0474
  539MOL0     C71061   5.528   6.108   0.132  0.4571 -0.6853  0.4634
  539MOL0     C71062   5.643   6.181   0.162  0.4053 -0.4977 -0.1599
  539MOL0     O71063   5.999   6.201  -0.027  0.4691 -0.3879 -0.1115
  539MOL0     C71064   6.138   6.154   0.292  0.1393  0.1248  0.2063
  539MOL0     C71065   6.255   6.158   0.365 -0.0048  0.7684  0.4657
  539MOL0     N71066   6.950   6.499   0.594  0.0979  0.6007 -0.6919
  539MOL0     N71067   7.027   6.599   0.621  0.2804 -0.1694  0.5361
  539MOL0     C71068   8.140   6.930   0.812 -0.4063 -0.1757  0.2700
  539MOL0     C71069   8.275   6.950   0.803  0.1658  0.3761  0.3713
  539MOL0     C71070   8.693   7.069   0.622  0.6727  0.9327 -0.1721
  539MOL0     C71071   8.764   7.061   0.496 -0.7889  0.0839 -0.9318
  539MOL0     C71072   8.901   7.068   0.497 -0.1438 -0.1960  0.1490
  539MOL0     C71073   8.981   7.075   0.613  0.4803 -1.3071 -1.0859
  539MOL0     O71074   9.121   7.088   0.611  0.4394  0.3787  0.5181
  539MOL0     C71075   9.192   7.051   0.491 -0.0685  0.8524  0.4435
  539MOL0     C71076   9.339   7.066   0.522  0.3410  0.0231 -0.2460
  539MOL0     C71077   9.384   7.206   0.554  0.5965 -0.7505 -0.2203
  539MOL0     C71078   9.535   7.230   0.552 -0.1459 -0.0728 -0.6553
  539MOL0     C71079   9.600   7.175   0.674 -0.0894  0.1928  0.3147
  539MOL0     C71080   9.637   7.132   0.778  0.7027  0.6262  0.1171
  539MOL0     C71081   8.913   7.082   0.738  0.0453  0.1329 -0.8039
  539MOL0     C71082   8.772   7.079   0.737 -0.3751  0.4000 -0.0378
  539MOL0     H71083   8.297   7.234   0.625  0.0095 -0.1479  0.1237
  539MOL0     H71084   8.055   7.204   0.632  0.0030 -0.0240 -0.2727
  539MOL0     H71085   7.875   7.086   0.953 -0.8880  2.4245 -2.0239
  539MOL0     H71086   7.888   6.916   0.927  1.8483 -0.6901 -0.7428
  539MOL0     H71087   7.683   7.067   0.760 -1.4630  0.7762  0.5033
  539MOL0     H71088   7.643   7.020   0.924 -0.7233 -1.7720  0.3862
  539MOL0     H71089   7.673   6.781   0.909 -0.7529  0.4634 -0.1851
  539MOL0     H71090   7.764   6.794   0.756  0.5619  1.7129 -0.3149
  539MOL0     H71091   7.519   6.898   0.684  0.2640  0.0891 -0.1630
  539MOL0     H71092   7.554   6.727   0.665  2.7516 -1.8022  1.2171
  539MOL0     H71093   7.427   6.875   0.907 -1.3016 -2.4306  2.3304
  539MOL0     H71094   7.445   6.700   0.887  0.2442  0.4810  1.4800
  539MOL0     H71095   7.296   6.718   0.678 -3.5973 -0.2467 -0.7010
  539MOL0     H71096   7.272   6.891   0.719  2.2314  0.6317  0.5315
  539MOL0     H71097   7.206   6.645   0.898 -0.4428  0.9665  3.5068
  539MOL0     H71098   7.186   6.820   0.942 -1.0102  0.6831 -0.8120
  539MOL0     H71099   7.052   6.840   0.718 -0.5555 -1.6339 -1.5855
  539MOL0     H71100   6.967   6.800   0.863 -0.7179 -2.0343 -0.0156
  539MOL0     H71101   6.837   6.600   0.882  1.5635  0.6700  0.2002
  539MOL0     H71102   6.724   6.348   0.802  2.6036  1.1110  1.4011
  539MOL0     H71103   6.830   6.268   0.680  0.1722  0.0011  3.9099
  539MOL0     H71104   6.620   6.462   0.583  0.8999  1.5881  2.4329
  539MOL0     H71105   6.565   6.315   0.635 -1.1605  0.8842 -1.2788
  539MOL0     H71106   6.790   6.331   0.453  0.5669 -2.3320 -0.5530
  539MOL0     H71107   6.698   6.178   0.491 -2.1965  0.3986  0.8799
  539MOL0     H71108   6.653   6.263   0.262 -2.4431 -0.4745 -1.2421
  539MOL0     H71109   6.561   6.396   0.325 -1.6101 -0.9515 -1.9962
  539MOL0     H71110   6.460   6.280   0.127 -0.4184  2.7056  1.3146
  539MOL0     H71111   6.253   6.275   0.005 -0.9177 -0.3018 -0.5341
  539MOL0     H71112   5.874   5.976   0.017  1.0862  2.0057 -2.1969
  539MOL0     H71113   5.671   5.838  -0.031 -3.4822 -1.6936  0.9510
  539MOL0     H71114   5.368   5.909   0.234  1.2425 -0.8619 -0.2313
  539MOL0     H71115   5.393   5.759   0.145 -0.9649 -0.4939 -0.2997
  539MOL0     H71116   5.152   5.754   0.132  1.8361 -0.5300  0.3635
  539MOL0     H71117   5.181   5.871   0.007  1.8844 -1.3230  0.2279
  539MOL0     H71118   5.167   6.054   0.191 -1.5053  0.5111  0.0744
  539MOL0     H71119   5.133   5.911   0.300 -0.9129  1.0627  0.9521
  539MOL0     H71120   4.966   6.000   0.056 -0.7269 -0.0809 -0.5770
  539MOL0     H71121   4.941   5.858   0.145 -2.6979  0.7009 -1.2634
  539MOL0     H71122   4.919   6.138   0.263  2.7682 -0.5648  2.1566
  539MOL0     H71123   4.891   6.003   0.360  1.5090  1.8265  0.2938
  539MOL0     H71124   4.724   5.918   0.168  1.3430 -1.0888  1.5501
  539MOL0     H71125   4.755   6.069   0.087 -1.5132 -2.3440 -1.3596
  539MOL0     H71126   4.547   6.055   0.243 -0.8984  2.3819 -1.2623
  539MOL0     H71127   4.672   6.094   0.368  2.4416 -0.9287 -0.4592
  539MOL0     H71128   4.608   6.242   0.106  2.9272  1.5053 -0.2901
  539MOL0     H71129   4.732   6.282   0.213 -0.9058  1.4342  3.6453
  539MOL0     H71130   5.433   6.146   0.169  1.4362 -0.3644  2.7944
  539MOL0     H71131   5.639   6.265   0.230  2.6289 -2.7564  3.0531
  539MOL0     H71132   6.046   6.113   0.332  0.4473 -0.4806  0.3164
  539MOL0     H71133   6.270   6.124   0.467  0.6750 -0.9345 -0.1746
  539MOL0     H71134   8.096   6.848   0.867  3.3105 -1.8223  1.0684
  539MOL0     H71135   8.337   6.874   0.848  0.9039  0.2875 -0.7618
  539MOL0     H71136   8.707   7.049   0.404  1.3872 -1.1031 -2.2052
  539MOL0     H71137   8.944   7.063   0.397  0.1352 -0.8972  0.2938
  539MOL0     H71138   9.160   7.115   0.408 -0.5855  1.0239  0.7689
  539MOL0     H71139   9.179   6.945   0.469 -0.6945  1.2838 -1.4445
  539MOL0     H71140   9.362   6.997   0.605  0.3769  0.5682  0.2043
  539MOL0     H71141   9.386   7.031   0.430  0.3432  1.8291 -0.9771
  539MOL0     H71142   9.339   7.234   0.650 -0.1729 -3.0607  0.1502
  539MOL0     H71143   9.346   7.266   0.470 -0.7206 -0.4473  0.5522
  539MOL0     H71144   9.584   7.181   0.467  1.8933 -1.1625  1.0401
  539MOL0     H71145   9.550   7.338   0.544  2.3875 -0.3919 -1.0883
  539MOL0     H71146   9.686   7.097   0.866  1.2660 -0.9408 -0.7641
  539MOL0     H71147   8.977   7.071   0.824  1.3256 -0.1639 -1.7562
  539MOL0     H71148   8.724   7.078   0.834 -0.5118  0.3839 -0.1042
  540MOL0     O71149   1.520   9.301   7.971 -0.0093 -0.0093 -0.6059
  540MOL0     C71150   1.564   9.413   7.931 -0.1958  0.1897  0.2398
  540MOL0     O71151   1.489   9.530   7.919 -0.2674 -0.1671  0.4645
  540MOL0     C71152   1.355   9.517   7.878 -0.1762 -0.1700 -0.5458
  540MOL0     C71153   1.254   9.453   7.955  0.6546  0.1712  0.3606
  540MOL0     C71154   1.125   9.445   7.913  0.3312 -0.9004 -0.2093
  540MOL0     C71155   1.079   9.510   7.794  0.0291  0.3464  0.1191
  540MOL0     O71156   0.950   9.504   7.760  1.1468  0.0736 -0.0952
  540MOL0     C71157   0.870   9.619   7.737 -0.0947  0.2220 -0.5951
  540MOL0     C71158   0.733   9.574   7.680 -0.6148  0.1653  0.3599
  540MOL0     C71159   0.642   9.694   7.637  0.3871  0.1343 -0.4184
  540MOL0     C71160   0.499   9.645   7.614  0.5009  0.2333 -0.3772
  540MOL0     C71161   0.387   9.742   7.638 -0.1609 -0.3721 -0.8430
  540MOL0     C71162   0.254   9.674   7.598  0.2613 -0.3137 -0.4167
  540MOL0     C71163   0.136   9.765   7.598 -0.1573 -0.4145  0.0270
  540MOL0     C71164   0.014   9.677   7.554  0.0273  0.3714  0.2795
  540MOL0     N71165  -0.115   9.754   7.538  0.1165 -0.0201 -0.7260
  540MOL0     C71166  -0.151   9.835   7.437  0.9307  0.0815  0.5634
  540MOL0     C71167  -0.263   9.894   7.479 -1.4722  0.1647 -0.1267
  540MOL0     C71168  -0.347  10.001   7.418 -0.1272 -0.2434  0.6222
  540MOL0     C71169  -0.485   9.937   7.377  0.0504 -0.8280  0.4218
  540MOL0     C71170  -0.571   9.937   7.508  0.2083  1.1723 -0.0482
  540MOL0     C71171  -0.719   9.895   7.489 -0.3472  0.2230 -0.4969
  540MOL0     O71172  -0.810   9.986   7.426 -0.5628  0.1283 -0.2199
  540MOL0     C71173  -0.900  10.056   7.502 -1.2444  0.7863  0.4530
  540MOL0     C71174  -1.011   9.995   7.538  1.2849  0.0919 -1.2630
  540MOL0     C71175  -1.114  10.076   7.603 -0.7856  0.3969  0.3669
  540MOL0     C71176  -1.105  10.214   7.634 -0.6702  0.2970  0.3108
  540MOL0     C71177  -1.210  10.294   7.699 -1.6606  0.5612  0.5694
  540MOL0     O71178  -1.193  10.430   7.726 -0.4153  0.4804  0.0287
  540MOL0     C71179  -1.290  10.490   7.812  0.0082  0.4596 -0.0717
  540MOL0     C71180  -1.424  10.519   7.778 -0.1543 -0.4306 -0.5462
  540MOL0     C71181  -1.511  10.591   7.856  0.3202  0.6573 -0.8296
  540MOL0     C71182  -1.462  10.647   7.978 -0.8220  0.5543  0.2049
  540MOL0     O71183  -1.548  10.713   8.050 -0.4245 -0.9558  0.0064
  540MOL0     C71184  -1.582  10.676   8.186 -0.4184 -0.3239  0.1610
  540MOL0     C71185  -1.727  10.716   8.220 -0.2111  0.2612  0.4835
  540MOL0     C71186  -1.745  10.870   8.216  0.7353 -0.6742  0.3269
  540MOL0     C71187  -1.881  10.907   8.282 -0.4902  0.9802  0.3736
  540MOL0     C71188  -2.008  10.823   8.236 -0.7005  0.1696  0.2159
  540MOL0     C71189  -2.036  10.831   8.080  0.4769 -0.6344  0.3131
  540MOL0     C71190  -2.151  10.745   8.031  0.1141  0.8424 -1.2773
  540MOL0     C71191  -2.144  10.713   7.878 -0.3798  0.0104 -0.3397
  540MOL0    Cl71192  -1.994  10.640   7.838 -0.1384  0.4022 -0.1311
  540MOL0     C71193  -1.324  10.626   8.015  0.6701  0.3483 -0.2845
  540MOL0     C71194  -1.247  10.556   7.928 -0.6771  0.3013 -0.1503
  540MOL0     O71195  -1.312  10.235   7.726  0.3528  0.0789  0.1998
  540MOL0     C71196  -0.981  10.265   7.607  0.2403  0.2543  0.1183
  540MOL0     C71197  -0.878  10.188   7.540  0.1291  0.0725 -0.0461
  540MOL0     N71198  -0.290   9.848   7.609 -0.2811  0.5102  0.0923
  540MOL0     N71199  -0.199   9.768   7.645 -0.2001  0.4879 -0.6384
  540MOL0     C71200   1.176   9.586   7.722  0.4063 -1.2038  0.5936
  540MOL0     C71201   1.312   9.581   7.761  1.2190  0.0859 -0.3246
  540MOL0     C71202   1.708   9.420   7.931  0.1745  0.2589 -0.6213
  540MOL0     C71203   1.789   9.307   7.910  0.4045 -0.4231  0.5997
  540MOL0     C71204   1.925   9.317   7.885  1.1359 -0.9299  0.0046
  540MOL0     C71205   1.991   9.435   7.868 -1.1236 -0.6407 -0.6079
  540MOL0     O71206   2.123   9.435   7.833  0.1134 -0.7888 -0.4194
  540MOL0     C71207   2.212   9.547   7.871  0.5205  0.9943  0.4016
  540MOL0     C71208   2.357   9.506   7.858 -0.4758 -0.8855  0.2656
  540MOL0     C71209   2.450   9.617   7.898 -0.3063 -0.1584  0.3259
  540MOL0     C71210   2.594   9.574   7.945 -0.0604 -0.0715 -0.1328
  540MOL0     C71211   2.700   9.648   7.876  0.5610  0.4980 -0.0889
  540MOL0     C71212   2.791   9.726   7.857  0.1876  0.2126  1.0750
  540MOL0     C71213   1.906   9.545   7.886 -0.5612 -0.9924 -0.1239
  540MOL0     C71214   1.768   9.542   7.915  0.8180  1.3901  0.0156
  540MOL0     H71215   1.283   9.407   8.049  1.6584 -1.5839 -0.7664
  540MOL0     H71216   1.048   9.394   7.972  0.4376  0.1546  0.8816
  540MOL0     H71217   0.919   9.673   7.655 -1.5929  0.3649 -1.4308
  540MOL0     H71218   0.861   9.692   7.817 -1.6554  1.6930 -2.0293
  540MOL0     H71219   0.677   9.501   7.739  2.3613 -0.8690  2.0949
  540MOL0     H71220   0.745   9.513   7.590  2.5571  1.7016 -0.4132
  540MOL0     H71221   0.676   9.744   7.545  0.3729  0.1675 -0.4057
  540MOL0     H71222   0.643   9.765   7.720  0.5001 -0.0628 -0.2506
  540MOL0     H71223   0.488   9.596   7.517 -0.6457  3.3685 -1.9573
  540MOL0     H71224   0.482   9.567   7.690  1.2443 -1.0498 -1.4876
  540MOL0     H71225   0.411   9.841   7.599  1.6030 -0.9995 -1.4258
  540MOL0     H71226   0.375   9.756   7.746  0.3405  0.6390 -0.9131
  540MOL0     H71227   0.252   9.590   7.668  0.8085 -1.6294 -1.9268
  540MOL0     H71228   0.257   9.631   7.498 -2.5525 -4.4258  1.0087
  540MOL0     H71229   0.120   9.806   7.698 -0.0198 -2.1099  0.7760
  540MOL0     H71230   0.137   9.843   7.521 -1.4384 -0.8390 -0.4577
  540MOL0     H71231   0.008   9.591   7.621  0.2356 -0.2858 -0.5378
  540MOL0     H71232   0.044   9.629   7.461  0.8418  0.3552  0.5448
  540MOL0     H71233  -0.105   9.863   7.343  0.6881  2.5985  1.0983
  540MOL0     H71234  -0.294  10.033   7.328  1.0313 -0.3623  1.2376
  540MOL0     H71235  -0.346  10.090   7.481 -0.6380 -0.4551  0.9362
  540MOL0     H71236  -0.470   9.837   7.336 -3.2504 -1.4129  0.4037
  540MOL0     H71237  -0.523   9.995   7.293  0.2179 -0.9418  0.2645
  540MOL0     H71238  -0.528   9.858   7.570 -1.5152  0.8689  0.8345
  540MOL0     H71239  -0.571  10.033   7.560  0.6659  0.2574  1.7366
  540MOL0     H71240  -0.767   9.868   7.583 -2.7647  1.9516 -1.1324
  540MOL0     H71241  -0.712   9.797   7.440  1.6064  1.1350 -2.2514
  540MOL0     H71242  -1.027   9.888   7.527 -0.0784 -0.1156  1.7826
  540MOL0     H71243  -1.202  10.023   7.636  0.3766 -1.2803  0.9422
  540MOL0     H71244  -1.449  10.489   7.676  2.3839  1.6690 -1.9317
  540MOL0     H71245  -1.613  10.611   7.825  0.2284 -0.6945 -1.4672
  540MOL0     H71246  -1.527  10.742   8.254 -1.0460  2.2900 -1.7353
  540MOL0     H71247  -1.570  10.569   8.205 -0.0339 -0.3674 -0.3144
  540MOL0     H71248  -1.742  10.679   8.321 -0.4573 -2.5115 -0.4859
  540MOL0     H71249  -1.805  10.667   8.161 -2.0149  1.6028  1.6121
  540MOL0     H71250  -1.734  10.911   8.116  0.1085 -0.4374  0.3501
  540MOL0     H71251  -1.669  10.922   8.275  0.0277  2.3401 -1.2331
  540MOL0     H71252  -1.859  10.882   8.386  1.8559  2.6223  0.3415
  540MOL0     H71253  -1.903  11.014   8.288 -2.9519  0.5623  0.0516
  540MOL0     H71254  -2.088  10.872   8.293  1.5391 -0.1877  4.0239
  540MOL0     H71255  -2.015  10.718   8.267  2.3099  0.0865  0.9207
  540MOL0     H71256  -1.941  10.797   8.040  0.3360  1.4568 -2.0540
  540MOL0     H71257  -2.048  10.933   8.042  2.6064 -0.6516 -0.5170
  540MOL0     H71258  -2.151  10.650   8.085  2.6572  0.2690 -2.1200
  540MOL0     H71259  -2.242  10.798   8.059 -0.0667 -0.0365 -0.1510
  540MOL0     H71260  -2.158  10.806   7.822  0.3759 -0.3114 -1.0901
  540MOL0     H71261  -2.227  10.646   7.855  0.4370 -1.6114  1.2054
  540MOL0     H71262  -1.287  10.657   8.112 -0.3605  0.4897  0.0758
  540MOL0     H71263  -1.147  10.540   7.966 -1.2742 -1.3260  0.9066
  540MOL0     H71264  -0.960  10.369   7.629 -2.9955  0.3694  3.4919
  540MOL0     H71265  -0.789  10.241   7.507 -1.7276  3.7405  0.4253
  540MOL0     H71266   1.158   9.628   7.623  1.1296 -0.3141  0.8208
  540MOL0     H71267   1.383   9.630   7.695 -0.4108 -1.6492 -3.6199
  540MOL0     H71268   1.748   9.206   7.911  2.3476 -1.2955 -1.0303
  540MOL0     H71269   1.990   9.235   7.854 -0.1302 -1.8442 -0.3382
  540MOL0     H71270   2.201   9.552   7.980  0.7490 -4.1887  0.9113
  540MOL0     H71271   2.201   9.647   7.828  2.2253  0.9505 -0.2383
  540MOL0     H71272   2.365   9.422   7.928  0.4229 -0.9532  0.0948
  540MOL0     H71273   2.378   9.479   7.754 -3.7032 -2.2774 -0.1419
  540MOL0     H71274   2.408   9.673   7.982  1.9386  1.4717  0.4578
  540MOL0     H71275   2.460   9.674   7.805 -1.2451  0.6264  0.6865
  540MOL0     H71276   2.598   9.595   8.052 -1.7555 -0.3445  0.0125
  540MOL0     H71277   2.605   9.466   7.931  0.5556 -0.1341  0.8361
  540MOL0     H71278   2.869   9.799   7.856 -0.9859  1.5222  1.7968
  540MOL0     H71279   1.946   9.644   7.867 -0.8880 -1.0552 -1.2025
  540MOL0     H71280   1.715   9.637   7.906 -1.0103  0.6677  2.2285
  541MOL0     O71281   5.511   5.321   3.383  0.4845  0.2610  0.6977
  541MOL0     C71282   5.494   5.405   3.475  1.1220  0.9638  0.2860
  541MOL0     O71283   5.376   5.470   3.510 -0.1231  0.4013  0.3071
  541MOL0     C71284   5.300   5.508   3.405 -0.4304  0.7724  0.2054
  541MOL0     C71285   5.215   5.410   3.335 -0.0477 -1.3297 -0.5477
  541MOL0     C71286   5.154   5.453   3.213  0.7117  0.5279 -0.4376
  541MOL0     C71287   5.163   5.586   3.172  0.3974  0.5054  0.8154
  541MOL0     O71288   5.109   5.628   3.053  0.0582  0.4576 -0.2329
  541MOL0     C71289   4.969   5.602   3.038  0.8022 -0.1678  0.6148
  541MOL0     C71290   4.934   5.684   2.916  0.3280  0.0064 -0.2708
  541MOL0     C71291   4.960   5.602   2.785  0.0152  0.0733 -0.2018
  541MOL0     C71292   4.903   5.684   2.663  0.0870  1.1025  0.1350
  541MOL0     C71293   4.915   5.599   2.527  0.3084  0.1300  1.2460
  541MOL0     C71294   4.846   5.675   2.416 -0.6769  0.3622 -0.0956
  541MOL0     C71295   4.873   5.593   2.282  0.1624  0.2058  0.1238
  541MOL0     C71296   4.783   5.632   2.164  0.3489  0.7387 -0.7504
  541MOL0     N71297   4.639   5.595   2.194 -0.3579 -0.1037  0.5685
  541MOL0     C71298   4.598   5.480   2.264 -0.6955 -0.4085 -0.2081
  541MOL0     C71299   4.460   5.503   2.269  1.0042 -0.2449  0.8775
  541MOL0     C71300   4.366   5.419   2.355  1.0502  0.3974 -0.7763
  541MOL0     C71301   4.242   5.495   2.399 -0.2356  0.2368 -0.6525
  541MOL0     C71302   4.161   5.387   2.479 -0.6127 -0.6600 -0.7439
  541MOL0     C71303   4.011   5.434   2.490 -0.4306  0.4544  0.5877
  541MOL0     O71304   3.952   5.345   2.588 -0.7910  0.2841 -0.6370
  541MOL0     C71305   3.830   5.354   2.648  0.4475 -0.6992 -0.2381
  541MOL0     C71306   3.807   5.280   2.763 -0.2839 -0.2685  0.6058
  541MOL0     C71307   3.690   5.281   2.831 -0.1615  0.0466  0.1060
  541MOL0     C71308   3.584   5.366   2.787 -0.3933  0.8399  0.2644
  541MOL0     C71309   3.457   5.373   2.860  0.5318  0.3405 -0.7032
  541MOL0     O71310   3.367   5.458   2.815 -0.0886  0.5424  1.0267
  541MOL0     C71311   3.239   5.433   2.866  0.1423 -0.9176  0.8503
  541MOL0     C71312   3.134   5.396   2.771  0.4783 -0.2871  0.4574
  541MOL0     C71313   3.004   5.385   2.816  0.0748  1.1298  0.7675
  541MOL0     C71314   2.963   5.415   2.942 -0.1642 -0.0414  0.3222
  541MOL0     O71315   2.827   5.420   2.972 -0.3224  0.5219 -0.1724
  541MOL0     C71316   2.786   5.521   3.062 -0.0466 -0.6666  0.3269
  541MOL0     C71317   2.632   5.534   3.051 -0.8460  0.0176 -0.0501
  541MOL0     C71318   2.549   5.401   3.060  0.4660 -0.1164  0.3242
  541MOL0     C71319   2.405   5.456   3.091  0.9911 -0.6891 -0.1185
  541MOL0     C71320   2.297   5.365   3.057  0.9989  0.2052  0.4113
  541MOL0     C71321   2.156   5.425   3.077  0.0903  0.1178 -0.2353
  541MOL0     C71322   2.049   5.323   3.038 -0.3887 -0.0132  0.3089
  541MOL0     C71323   1.900   5.377   3.040  0.4254  0.9773  0.8499
  541MOL0    Cl71324   1.845   5.401   3.209 -0.2105  0.3571 -0.1626
  541MOL0     C71325   3.066   5.460   3.031  0.9968  0.1529  0.2733
  541MOL0     C71326   3.200   5.467   2.995 -0.6816  0.7972 -0.2223
  541MOL0     O71327   3.440   5.296   2.952 -0.0178 -0.3255  0.2336
  541MOL0     C71328   3.613   5.443   2.673  0.2309 -0.0305  0.7933
  541MOL0     C71329   3.730   5.444   2.603  0.2106  0.3081 -1.0206
  541MOL0     N71330   4.423   5.624   2.208 -0.5927 -0.1112  0.0398
  541MOL0     N71331   4.534   5.674   2.163  0.2492 -0.3593 -0.3141
  541MOL0     C71332   5.245   5.670   3.245  0.0933  0.3621 -0.0986
  541MOL0     C71333   5.313   5.641   3.361  0.0329  0.5427  0.1140
  541MOL0     C71334   5.622   5.450   3.545 -0.0234  0.1485 -0.6219
  541MOL0     C71335   5.617   5.573   3.608  0.4425  0.1406  0.2273
  541MOL0     C71336   5.728   5.620   3.668 -0.2397  0.4958  0.1950
  541MOL0     C71337   5.856   5.561   3.647 -0.1482 -0.1363  0.0642
  541MOL0     O71338   5.964   5.629   3.715  0.6287  1.0421 -0.1144
  541MOL0     C71339   6.088   5.575   3.682 -0.7725  0.9341  0.9639
  541MOL0     C71340   6.206   5.664   3.729  0.4070 -0.0297  0.6752
  541MOL0     C71341   6.204   5.797   3.656 -0.5427  0.3544 -0.2033
  541MOL0     C71342   6.331   5.873   3.697  0.0882  0.1058 -0.1913
  541MOL0     C71343   6.310   6.004   3.644 -1.0747  0.0939  0.7324
  541MOL0     C71344   6.306   6.119   3.603 -0.0714 -0.0185  0.3717
  541MOL0     C71345   5.868   5.439   3.581  0.2581 -0.3152  0.3104
  541MOL0     C71346   5.750   5.383   3.531  1.1211  0.0925  0.0469
  541MOL0     H71347   5.216   5.310   3.375 -1.1645 -0.8876  0.6543
  541MOL0     H71348   5.102   5.367   3.172  0.3757 -0.6788  2.3026
  541MOL0     H71349   4.913   5.645   3.122 -0.7405  3.2857 -1.9457
  541MOL0     H71350   4.957   5.495   3.021  0.6137  0.1632 -1.5685
  541MOL0     H71351   4.992   5.776   2.924 -1.6458  1.2798  0.3229
  541MOL0     H71352   4.830   5.717   2.910  0.2474 -0.5299 -2.9469
  541MOL0     H71353   4.896   5.515   2.800 -0.2266 -0.1031 -2.1013
  541MOL0     H71354   5.067   5.583   2.771  0.0594 -1.9289  2.0683
  541MOL0     H71355   4.801   5.712   2.689  1.1240  2.8767  2.6492
  541MOL0     H71356   4.943   5.786   2.657 -1.7315  1.8916  0.6966
  541MOL0     H71357   4.869   5.502   2.544 -2.5436  1.6834  3.2073
  541MOL0     H71358   5.019   5.573   2.503 -0.1819 -1.0670  0.3069
  541MOL0     H71359   4.876   5.781   2.415  1.5745 -0.2241  0.6274
  541MOL0     H71360   4.739   5.666   2.434 -1.1455 -0.6422 -2.8268
  541MOL0     H71361   4.968   5.608   2.230 -0.4436  0.3136 -0.9918
  541MOL0     H71362   4.866   5.485   2.297 -1.9126 -0.3367 -3.5359
  541MOL0     H71363   4.806   5.573   2.075 -1.0036 -3.5515  1.4785
  541MOL0     H71364   4.788   5.737   2.133  0.6643  0.0515 -3.2697
  541MOL0     H71365   4.648   5.384   2.277  1.5733  1.0065  2.7495
  541MOL0     H71366   4.419   5.382   2.443 -2.2376  1.3025  1.7868
  541MOL0     H71367   4.326   5.340   2.291  1.3771 -2.0928  1.9019
  541MOL0     H71368   4.180   5.539   2.320 -0.4931  5.6627  2.1068
  541MOL0     H71369   4.274   5.584   2.455 -0.8140 -0.7359  1.3317
  541MOL0     H71370   4.157   5.299   2.414 -1.0970  1.0458 -3.1995
  541MOL0     H71371   4.193   5.364   2.581 -2.3544  0.1335  0.0343
  541MOL0     H71372   3.961   5.429   2.393 -2.7778 -1.1509  1.7920
  541MOL0     H71373   4.000   5.536   2.528 -2.2551  1.2598 -1.8149
  541MOL0     H71374   3.884   5.211   2.796  1.7168  0.4945 -2.0546
  541MOL0     H71375   3.675   5.215   2.916 -1.2664 -0.2680 -0.3142
  541MOL0     H71376   3.158   5.387   2.666 -0.7407 -1.8333  0.2855
  541MOL0     H71377   2.927   5.361   2.744  2.1293  1.2177 -1.5573
  541MOL0     H71378   2.840   5.612   3.035 -1.6378 -0.0849 -1.1050
  541MOL0     H71379   2.821   5.484   3.159 -0.0391 -0.9883  0.2033
  541MOL0     H71380   2.600   5.585   2.960 -4.4093 -1.8367  0.0136
  541MOL0     H71381   2.609   5.601   3.135  1.4831  0.9019 -0.0268
  541MOL0     H71382   2.578   5.342   3.147  1.8419  1.7844  1.2264
  541MOL0     H71383   2.552   5.334   2.973  0.7034 -0.2716  0.4510
  541MOL0     H71384   2.398   5.472   3.199 -0.5132 -2.9251  0.1960
  541MOL0     H71385   2.390   5.556   3.051  2.1213 -0.0861  0.8904
  541MOL0     H71386   2.298   5.270   3.111 -0.0769 -0.1003 -0.0755
  541MOL0     H71387   2.313   5.331   2.954  1.6328 -0.4785  0.7289
  541MOL0     H71388   2.150   5.515   3.014 -1.9131  0.0486 -0.1983
  541MOL0     H71389   2.134   5.455   3.180 -2.9126  2.0948 -1.3121
  541MOL0     H71390   2.070   5.291   2.935  1.6003  0.2908  0.5776
  541MOL0     H71391   2.058   5.234   3.100  1.1503 -2.0560 -2.6038
  541MOL0     H71392   1.839   5.299   2.995  2.2129  0.6665 -1.2166
  541MOL0     H71393   1.890   5.470   2.983  0.3132 -0.6776 -1.9763
  541MOL0     H71394   3.031   5.491   3.129  0.7884  1.9002 -0.3394
  541MOL0     H71395   3.271   5.514   3.062  1.4536  1.6848 -2.9441
  541MOL0     H71396   3.537   5.515   2.643  2.6396  1.9178 -1.0717
  541MOL0     H71397   3.747   5.504   2.513  0.9352 -1.0122 -1.7965
  541MOL0     H71398   5.260   5.768   3.200  1.9526  0.5274  0.7907
  541MOL0     H71399   5.366   5.712   3.423  0.3837 -0.3521  0.8772
  541MOL0     H71400   5.529   5.636   3.596  1.0413  0.4363 -4.4618
  541MOL0     H71401   5.727   5.709   3.731 -0.3836  0.0086  0.8974
  541MOL0     H71402   6.097   5.563   3.574 -0.3330  1.7456  0.8972
  541MOL0     H71403   6.102   5.475   3.722  2.0465  1.6392  2.0307
  541MOL0     H71404   6.192   5.688   3.834  1.2799  0.4303  0.6936
  541MOL0     H71405   6.300   5.612   3.710 -0.0765 -0.3704 -0.9480
  541MOL0     H71406   6.111   5.846   3.687 -0.9206 -0.2625 -0.3344
  541MOL0     H71407   6.194   5.787   3.548 -0.2025 -0.8214 -0.1442
  541MOL0     H71408   6.340   5.874   3.806  1.4570  0.0131 -0.2798
  541MOL0     H71409   6.422   5.831   3.651  1.0570  0.2660  1.4765
  541MOL0     H71410   6.317   6.218   3.562  0.0667  0.4818  1.5588
  541MOL0     H71411   5.967   5.401   3.555  1.1602  1.4461  1.0086
  541MOL0     H71412   5.764   5.291   3.475  3.0190  0.2828  0.1354
  542MOL0     O71413   2.941   7.283   7.577  0.2468  0.7447 -0.6403
  542MOL0     C71414   2.926   7.201   7.488 -0.8031  0.3850 -0.6470
  542MOL0     O71415   2.816   7.172   7.424 -0.2949  0.0371  0.0501
  542MOL0     C71416   2.686   7.214   7.457  0.2909  1.1927  0.2536
  542MOL0     C71417   2.592   7.198   7.349  1.1549  0.7829 -0.1620
  542MOL0     C71418   2.464   7.255   7.365 -0.4174  0.0432  0.7024
  542MOL0     C71419   2.426   7.323   7.481 -0.7382 -0.8419  0.0518
  542MOL0     O71420   2.297   7.369   7.489 -0.8946 -0.2148 -0.3252
  542MOL0     C71421   2.231   7.356   7.626 -0.2461  0.8362  0.3603
  542MOL0     C71422   2.080   7.392   7.614  0.2513  0.0513  0.9970
  542MOL0     C71423   2.006   7.296   7.514 -0.1288 -0.9369  1.0029
  542MOL0     C71424   1.861   7.359   7.502  0.3907 -0.5955  0.4616
  542MOL0     C71425   1.758   7.269   7.420 -0.7420  0.0797  0.0377
  542MOL0     C71426   1.739   7.133   7.498  0.2090  0.3507 -0.2567
  542MOL0     C71427   1.605   7.073   7.453  0.4409  0.5423  0.1367
  542MOL0     C71428   1.596   6.922   7.475 -0.4139  0.1699  0.5413
  542MOL0     N71429   1.697   6.856   7.393 -0.6305 -0.2242 -0.5601
  542MOL0     C71430   1.707   6.861   7.259  1.0127 -0.1739 -0.6688
  542MOL0     C71431   1.808   6.781   7.224 -0.1962 -1.1648 -0.7192
  542MOL0     C71432   1.846   6.732   7.094  0.3231 -0.2220  0.3530
  542MOL0     C71433   1.966   6.643   7.090  1.0736 -0.3935  0.0717
  542MOL0     C71434   1.986   6.602   6.946  0.7616  0.3447  1.1149
  542MOL0     C71435   2.121   6.539   6.918  0.3791 -0.7004  0.0564
  542MOL0     O71436   2.158   6.448   7.026 -0.7062 -0.2931 -0.3556
  542MOL0     C71437   2.287   6.412   7.014 -0.1249  0.3306 -0.1150
  542MOL0     C71438   2.371   6.453   7.122 -0.2539  0.2243 -0.2829
  542MOL0     C71439   2.507   6.432   7.113 -0.3006  0.4207 -0.5228
  542MOL0     C71440   2.559   6.368   7.001  0.0016 -0.5096 -0.2672
  542MOL0     C71441   2.702   6.365   6.988 -0.5726  0.8475  0.5658
  542MOL0     O71442   2.756   6.308   6.874  0.7466  0.5708 -0.5777
  542MOL0     C71443   2.871   6.243   6.903 -0.1879  0.2380  0.1384
  542MOL0     C71444   3.006   6.291   6.892  0.4764  0.1865 -0.1481
  542MOL0     C71445   3.117   6.201   6.923 -0.4983 -0.6252 -0.1901
  542MOL0     C71446   3.096   6.067   6.963  0.4836  0.0158  0.2925
  542MOL0     O71447   3.194   5.982   6.990 -0.0403  0.1743  0.4807
  542MOL0     C71448   3.265   6.029   7.105 -0.5270  0.0000 -0.7371
  542MOL0     C71449   3.344   5.917   7.176  0.0326 -0.0324 -0.0601
  542MOL0     C71450   3.250   5.835   7.276  0.3413  0.3456  0.0995
  542MOL0     C71451   3.218   5.918   7.397  0.4039  0.0795  0.3550
  542MOL0     C71452   3.080   5.882   7.451  0.2342  0.5290 -0.4132
  542MOL0     C71453   3.063   5.913   7.599  0.1947  0.0868 -0.2290
  542MOL0     C71454   2.958   5.817   7.656  0.6943  0.0976 -0.6320
  542MOL0     C71455   2.925   5.869   7.786  0.3020 -0.0326 -0.2442
  542MOL0    Cl71456   2.781   5.775   7.852  0.3419  0.1672 -0.1913
  542MOL0     C71457   2.964   6.030   6.971  0.4001  0.9310 -0.8358
  542MOL0     C71458   2.851   6.108   6.947 -0.1548 -0.8880 -0.2109
  542MOL0     O71459   2.767   6.393   7.087 -0.6059 -0.0779 -0.1107
  542MOL0     C71460   2.472   6.322   6.901 -0.2177  0.1862 -0.3683
  542MOL0     C71461   2.335   6.340   6.906 -0.4803 -0.1398  0.1401
  542MOL0     N71462   1.848   6.717   7.343  0.0704 -0.2683 -0.4949
  542MOL0     N71463   1.787   6.774   7.442  0.1028  0.1806 -0.5510
  542MOL0     C71464   2.525   7.338   7.583  0.5334  0.0049 -0.3005
  542MOL0     C71465   2.647   7.278   7.572 -0.1138 -0.1026  0.1820
  542MOL0     C71466   3.048   7.127   7.440 -0.2307  0.0876  0.1122
  542MOL0     C71467   3.176   7.163   7.482 -0.1718 -0.3032  0.4501
  542MOL0     C71468   3.291   7.098   7.437  0.3784  0.6088  0.3030
  542MOL0     C71469   3.289   7.001   7.333  0.5343 -0.3412  0.0611
  542MOL0     O71470   3.397   6.944   7.259 -0.6397  0.3162  0.3893
  542MOL0     C71471   3.522   7.018   7.272  0.2825 -0.1806  0.3311
  542MOL0     C71472   3.623   6.960   7.174  0.1908  0.3863  0.1793
  542MOL0     C71473   3.682   6.825   7.219  0.5016 -0.5276 -0.1849
  542MOL0     C71474   3.799   6.770   7.122  0.1303  0.5199  0.2733
  542MOL0     C71475   3.873   6.670   7.192  0.6082 -0.3781 -0.2336
  542MOL0     C71476   3.929   6.572   7.246  0.4537  0.1776  0.2094
  542MOL0     C71477   3.163   6.970   7.289 -0.1348  0.0037  1.0168
  542MOL0     C71478   3.047   7.032   7.334 -0.2941 -0.1716  0.8435
  542MOL0     H71479   2.618   7.144   7.258  2.3959 -0.9324  1.1444
  542MOL0     H71480   2.401   7.233   7.281  1.5452  0.1523 -0.8726
  542MOL0     H71481   2.278   7.425   7.696 -0.6837 -0.7698  2.3230
  542MOL0     H71482   2.255   7.264   7.679 -0.7047  0.4234 -0.1385
  542MOL0     H71483   2.076   7.499   7.590 -0.2863  0.0441  1.0444
  542MOL0     H71484   2.031   7.385   7.711  0.1484 -0.1691  0.9303
  542MOL0     H71485   2.016   7.199   7.563  2.7487 -3.0178 -3.1374
  542MOL0     H71486   2.046   7.281   7.413 -2.3455 -2.6583  0.3034
  542MOL0     H71487   1.820   7.381   7.601 -3.0798 -0.3521 -0.8751
  542MOL0     H71488   1.874   7.453   7.447 -1.7377 -1.0210 -0.8774
  542MOL0     H71489   1.808   7.235   7.329  3.4906 -2.5527  3.0031
  542MOL0     H71490   1.661   7.318   7.406 -0.1953  0.9177 -0.9175
  542MOL0     H71491   1.736   7.147   7.606 -0.5572 -0.3136 -0.1862
  542MOL0     H71492   1.819   7.058   7.486 -1.1428 -1.2922  0.5695
  542MOL0     H71493   1.527   7.137   7.495  1.7963  3.3877 -1.4387
  542MOL0     H71494   1.593   7.100   7.348 -1.7331 -0.5410  0.0437
  542MOL0     H71495   1.504   6.870   7.446  0.2833 -0.7776 -0.0561
  542MOL0     H71496   1.617   6.900   7.580  1.3458 -0.1675  0.1661
  542MOL0     H71497   1.650   6.916   7.185  0.6403 -0.8710 -0.9064
  542MOL0     H71498   1.846   6.822   7.031 -2.5764  0.5356  1.3052
  542MOL0     H71499   1.761   6.672   7.060 -0.9869  2.3701 -1.3475
  542MOL0     H71500   1.950   6.558   7.156 -1.8965  2.4380  3.4723
  542MOL0     H71501   2.056   6.695   7.125  1.8595 -2.9285  2.1647
  542MOL0     H71502   1.911   6.529   6.913  1.2408  0.4223 -0.2011
  542MOL0     H71503   1.971   6.683   6.875 -0.1052 -2.5104 -2.2557
  542MOL0     H71504   2.175   6.634   6.926 -3.1012  1.4816 -0.3878
  542MOL0     H71505   2.135   6.494   6.820  1.2468 -2.1719  0.8204
  542MOL0     H71506   2.338   6.506   7.211  2.2208 -0.9912  1.5012
  542MOL0     H71507   2.578   6.476   7.183 -1.1059 -1.8062  1.8332
  542MOL0     H71508   3.030   6.394   6.869  0.8988  0.5651  1.8503
  542MOL0     H71509   3.216   6.244   6.910 -1.0327  0.6451 -0.1557
  542MOL0     H71510   3.204   6.077   7.182  2.0397  0.8359  0.9309
  542MOL0     H71511   3.343   6.103   7.081 -0.0667 -0.2497 -0.0458
  542MOL0     H71512   3.424   5.962   7.235  2.1768 -2.6919 -0.7292
  542MOL0     H71513   3.386   5.843   7.107  1.6094 -1.3414  2.1564
  542MOL0     H71514   3.291   5.739   7.311 -2.3217 -1.8597 -2.3185
  542MOL0     H71515   3.161   5.808   7.219  1.1753 -1.2865 -0.4969
  542MOL0     H71516   3.292   5.902   7.476 -1.5864 -6.1024  1.5365
  542MOL0     H71517   3.211   6.024   7.371  2.3647  0.6259  1.8738
  542MOL0     H71518   3.063   5.774   7.444  5.2153 -0.6152  1.0324
  542MOL0     H71519   3.003   5.929   7.389 -0.7179  0.3831  0.6183
  542MOL0     H71520   3.039   6.019   7.610  0.3594  0.0777  0.2515
  542MOL0     H71521   3.158   5.892   7.649 -0.2220 -2.1392 -0.2628
  542MOL0     H71522   2.866   5.826   7.598 -0.2073  0.9122  0.8810
  542MOL0     H71523   2.997   5.715   7.649  3.4572  1.1748 -4.1605
  542MOL0     H71524   2.892   5.974   7.784 -3.2182 -1.0390 -0.0931
  542MOL0     H71525   3.006   5.859   7.859  0.1667 -0.0234 -0.0936
  542MOL0     H71526   2.944   5.925   6.986 -0.4006  1.3087  1.1933
  542MOL0     H71527   2.753   6.063   6.948  0.9396 -3.5001 -0.6802
  542MOL0     H71528   2.504   6.274   6.809 -2.0073  0.7501 -1.3221
  542MOL0     H71529   2.281   6.292   6.825 -0.0801 -3.2230  1.5337
  542MOL0     H71530   2.515   7.403   7.669 -0.6515  0.2467 -0.6034
  542MOL0     H71531   2.719   7.305   7.648  0.1437  3.3830 -1.1190
  542MOL0     H71532   3.189   7.240   7.557 -1.4257  0.6521 -0.2598
  542MOL0     H71533   3.384   7.126   7.485 -0.2842  1.0257  1.3779
  542MOL0     H71534   3.559   7.005   7.374 -0.6562  0.2870  0.7414
  542MOL0     H71535   3.520   7.121   7.238  1.6444 -0.6871 -1.4555
  542MOL0     H71536   3.582   6.945   7.074  0.1894  0.6938  0.1354
  542MOL0     H71537   3.711   7.025   7.171 -1.8452  3.3435  0.2882
  542MOL0     H71538   3.600   6.753   7.218  0.9406 -1.0373 -0.6294
  542MOL0     H71539   3.720   6.834   7.321  0.2858 -0.0847 -0.1427
  542MOL0     H71540   3.755   6.739   7.027 -1.6247  2.1760  0.4929
  542MOL0     H71541   3.868   6.853   7.101 -0.9378  1.1481 -0.8538
  542MOL0     H71542   3.975   6.485   7.290 -0.2758  0.1869  1.0193
  542MOL0     H71543   3.159   6.897   7.209  0.5146  1.6525 -0.5894
  542MOL0     H71544   2.951   7.010   7.287 -0.0183 -1.9996  1.0560
  543MOL0     O71545   5.224  10.147   4.888  0.0914  0.6987 -0.6918
  543MOL0     C71546   5.211  10.050   4.812 -0.2699  0.0297  0.2824
  543MOL0     O71547   5.309  10.000   4.732  0.9588 -0.6104  0.0645
  543MOL0     C71548   5.397  10.090   4.672 -0.0257 -0.0380 -0.5045
  543MOL0     C71549   5.416  10.232   4.689 -0.2038  0.0986 -0.2116
  543MOL0     C71550   5.504  10.304   4.613  0.6502 -0.2183  0.3670
  543MOL0     C71551   5.575  10.233   4.515  0.8521 -0.3702 -0.2873
  543MOL0     O71552   5.643  10.314   4.430  0.0113  0.1233  0.7844
  543MOL0     C71553   5.745  10.261   4.343  0.4265 -0.1913 -1.0478
  543MOL0     C71554   5.854  10.373   4.336 -0.8426  0.4533  0.0979
  543MOL0     C71555   5.972  10.326   4.247  0.2023 -0.3621 -0.3479
  543MOL0     C71556   6.065  10.439   4.205  1.5128  0.6233 -0.4921
  543MOL0     C71557   6.165  10.384   4.119  0.5954  0.1807 -0.0685
  543MOL0     C71558   6.274  10.481   4.070  0.3385  0.5031 -0.9616
  543MOL0     C71559   6.356  10.412   3.971  0.0190  0.1515  0.3369
  543MOL0     C71560   6.483  10.485   3.923 -0.1857  0.0137 -0.0967
  543MOL0     N71561   6.560  10.418   3.815 -0.4323 -0.0961 -0.1819
  543MOL0     C71562   6.582  10.290   3.805  0.9697  0.2270  0.7981
  543MOL0     C71563   6.685  10.276   3.710  0.7623  0.3333  0.6728
  543MOL0     C71564   6.748  10.148   3.671 -0.3825 -0.2864  0.6379
  543MOL0     C71565   6.647  10.057   3.605  0.0373 -0.3373 -0.4314
  543MOL0     C71566   6.658   9.911   3.658 -0.2422 -0.1336 -0.1348
  543MOL0     C71567   6.619   9.906   3.804 -0.1678  0.7739 -0.1455
  543MOL0     O71568   6.483   9.966   3.826 -0.6696 -0.0622  0.2047
  543MOL0     C71569   6.421   9.960   3.951 -0.3016  0.7463 -0.9779
  543MOL0     C71570   6.469   9.877   4.056 -0.3337  0.3683  1.3664
  543MOL0     C71571   6.400   9.867   4.176  0.4551  0.6404 -0.4304
  543MOL0     C71572   6.269   9.922   4.192 -0.9483 -0.0567 -1.5515
  543MOL0     C71573   6.189   9.907   4.316  0.0747 -0.1391  0.9723
  543MOL0     O71574   6.075   9.984   4.317  0.3561  0.0764 -0.2156
  543MOL0     C71575   6.001   9.949   4.429  0.2226 -0.6946  0.2294
  543MOL0     C71576   5.911   9.837   4.427 -0.2740 -0.5222  0.1883
  543MOL0     C71577   5.822   9.819   4.538 -0.6818 -0.7334  0.1771
  543MOL0     C71578   5.829   9.914   4.644  0.9048  0.9576 -0.5976
  543MOL0     O71579   5.739   9.894   4.737 -0.0800  0.1675 -0.0295
  543MOL0     C71580   5.689   9.985   4.834 -0.5863  0.3162 -0.4956
  543MOL0     C71581   5.588   9.916   4.923  0.7570  0.1102  0.1669
  543MOL0     C71582   5.527  10.010   5.026 -0.6504 -0.3424 -0.2257
  543MOL0     C71583   5.417   9.938   5.101  0.4898 -0.5606 -0.0812
  543MOL0     C71584   5.333  10.033   5.189 -0.1035 -0.0975  0.6087
  543MOL0     C71585   5.394  10.095   5.317  0.2251  0.8531  0.6309
  543MOL0     C71586   5.301  10.188   5.390 -0.7727 -0.2510  0.7314
  543MOL0     C71587   5.171  10.128   5.434 -0.7534 -0.6826  0.4426
  543MOL0    Cl71588   5.063  10.157   5.291 -0.0038 -0.2203 -0.1766
  543MOL0     C71589   5.927  10.013   4.654 -0.4544 -0.0664 -0.5256
  543MOL0     C71590   6.006  10.028   4.544 -0.7795 -0.3156  0.2095
  543MOL0     O71591   6.229   9.828   4.402  0.4698  0.1776 -0.4843
  543MOL0     C71592   6.221   9.996   4.086 -0.2140 -0.3233 -0.7311
  543MOL0     C71593   6.300  10.020   3.973 -0.3686  0.5778  0.0575
  543MOL0     N71594   6.698  10.396   3.655 -0.4295 -1.1342 -0.3659
  543MOL0     N71595   6.635  10.483   3.730  0.0077 -0.2733  0.0467
  543MOL0     C71596   5.562  10.096   4.498 -0.2646 -0.1412 -0.1917
  543MOL0     C71597   5.476  10.021   4.578  0.6107  0.7125  0.3968
  543MOL0     C71598   5.099   9.961   4.851  0.3255  0.2501 -0.7478
  543MOL0     C71599   5.092   9.826   4.796  1.4914  0.0052 -0.6756
  543MOL0     C71600   4.983   9.747   4.818  0.2620 -0.5058 -0.6946
  543MOL0     C71601   4.875   9.788   4.906 -0.6716  0.5707 -0.3811
  543MOL0     O71602   4.758   9.713   4.926 -0.2125  0.1079  0.1203
  543MOL0     C71603   4.719   9.609   4.836 -0.5205  0.0717  0.5067
  543MOL0     C71604   4.685   9.661   4.695 -0.3678  0.0652 -0.1852
  543MOL0     C71605   4.546   9.725   4.680  0.2660  0.0296 -0.4410
  543MOL0     C71606   4.504   9.768   4.542  0.5574 -0.3366  0.2154
  543MOL0     C71607   4.490   9.666   4.439 -0.4455  0.1809  0.2272
  543MOL0     C71608   4.462   9.587   4.350 -0.9050 -0.5708  0.3030
  543MOL0     C71609   4.891   9.913   4.976  0.3660  0.1242  0.1991
  543MOL0     C71610   4.990   9.996   4.934 -0.7019  0.4470 -0.0859
  543MOL0     H71611   5.352  10.293   4.753  1.0080  0.2873  0.8674
  543MOL0     H71612   5.516  10.410   4.630  2.0367 -0.5468  1.6497
  543MOL0     H71613   5.708  10.253   4.240  1.7574 -0.8960 -1.4930
  543MOL0     H71614   5.801  10.170   4.369 -1.9764 -0.7470  3.1539
  543MOL0     H71615   5.911  10.391   4.427  2.9335  0.4580 -2.0519
  543MOL0     H71616   5.811  10.465   4.297 -1.7276  0.0053 -0.0152
  543MOL0     H71617   5.937  10.281   4.153 -0.1233  1.4496 -1.1361
  543MOL0     H71618   6.023  10.245   4.300 -1.4026 -2.2242 -1.4706
  543MOL0     H71619   6.007  10.512   4.147  1.9021  2.4003  1.2592
  543MOL0     H71620   6.101  10.488   4.296 -0.5392 -2.1351  1.9771
  543MOL0     H71621   6.112  10.341   4.034  1.3271 -0.8526 -0.0207
  543MOL0     H71622   6.223  10.301   4.161 -0.8895  0.1976  2.1627
  543MOL0     H71623   6.335  10.501   4.159  0.4609  0.7512 -1.1016
  543MOL0     H71624   6.231  10.577   4.040  0.4708  1.0347  0.4523
  543MOL0     H71625   6.398  10.322   4.018  0.9542  1.1125  1.3946
  543MOL0     H71626   6.295  10.388   3.883  1.0710 -0.8686 -0.1444
  543MOL0     H71627   6.547  10.504   4.009 -0.5538 -0.4335  0.2782
  543MOL0     H71628   6.446  10.579   3.879 -1.1074 -0.8288 -1.1851
  543MOL0     H71629   6.549  10.207   3.867 -1.2194  0.0773 -0.4834
  543MOL0     H71630   6.798  10.106   3.758 -3.4467 -2.4419  1.5388
  543MOL0     H71631   6.829  10.154   3.597 -0.1949 -3.4957  0.4629
  543MOL0     H71632   6.654  10.059   3.496  0.6171  0.6550 -0.3819
  543MOL0     H71633   6.546  10.090   3.633  1.1951  3.0696  0.2339
  543MOL0     H71634   6.588   9.857   3.594 -1.3660  2.6589 -1.4071
  543MOL0     H71635   6.757   9.871   3.637  0.2806  0.5925  0.8785
  543MOL0     H71636   6.688   9.956   3.872  0.5712  3.1354 -2.4729
  543MOL0     H71637   6.601   9.799   3.823 -2.0561  0.6449 -2.2489
  543MOL0     H71638   6.562   9.823   4.041 -0.0207  1.2190  0.1495
  543MOL0     H71639   6.455   9.820   4.257  1.4144  1.4582 -0.5838
  543MOL0     H71640   5.907   9.778   4.336 -2.3791  0.1118 -0.1872
  543MOL0     H71641   5.755   9.734   4.545 -2.9957  0.8289 -1.4903
  543MOL0     H71642   5.640  10.070   4.786 -2.2982 -0.5367 -0.3238
  543MOL0     H71643   5.772  10.021   4.895 -1.5243 -1.1044  1.7479
  543MOL0     H71644   5.625   9.833   4.982 -0.9940 -0.6202  0.3073
  543MOL0     H71645   5.511   9.865   4.864  0.3669  0.1644  0.6268
  543MOL0     H71646   5.482  10.091   4.968  0.8819  1.4178  0.9158
  543MOL0     H71647   5.606  10.056   5.086 -2.6835 -1.5818  3.7421
  543MOL0     H71648   5.365   9.890   5.018  4.1384  0.3347 -3.1386
  543MOL0     H71649   5.456   9.850   5.153  0.3490 -0.6656 -0.1485
  543MOL0     H71650   5.252   9.971   5.229 -1.5032  1.1937 -0.1473
  543MOL0     H71651   5.297  10.115   5.127  3.0089  0.4764 -0.5793
  543MOL0     H71652   5.486  10.146   5.286  0.5798 -0.4051 -0.4707
  543MOL0     H71653   5.417  10.014   5.387 -2.3110 -1.6533 -1.2120
  543MOL0     H71654   5.348  10.215   5.486  1.0687 -1.3075  0.1740
  543MOL0     H71655   5.295  10.283   5.337 -0.0811 -0.3492  0.4681
  543MOL0     H71656   5.136  10.168   5.530 -2.9257  3.6119 -1.7978
  543MOL0     H71657   5.185  10.021   5.450  0.6247 -0.5443  0.2465
  543MOL0     H71658   5.932  10.079   4.740  1.1203  1.5525 -1.7642
  543MOL0     H71659   6.069  10.116   4.533 -0.9513 -0.1169  0.7593
  543MOL0     H71660   6.123  10.042   4.099 -0.2764  0.3437 -3.0367
  543MOL0     H71661   6.267  10.076   3.886  1.7098 -0.4993 -1.5149
  543MOL0     H71662   5.613  10.047   4.416  0.8625  1.2100 -0.3537
  543MOL0     H71663   5.460   9.915   4.567 -0.1630  1.0506 -2.6280
  543MOL0     H71664   5.169   9.784   4.732 -0.0230  0.7867 -3.1538
  543MOL0     H71665   4.981   9.652   4.765  0.6421  0.4862 -2.6080
  543MOL0     H71666   4.635   9.571   4.893 -0.1783 -0.2261  0.8167
  543MOL0     H71667   4.790   9.526   4.842 -0.5308  0.0010 -0.2512
  543MOL0     H71668   4.752   9.728   4.641  0.9213 -0.2514  0.9806
  543MOL0     H71669   4.691   9.574   4.628  0.5702 -0.0230  0.0054
  543MOL0     H71670   4.553   9.813   4.745 -0.0298 -1.9029  2.3749
  543MOL0     H71671   4.471   9.662   4.728 -1.0352  3.0976  1.9042
  543MOL0     H71672   4.402   9.806   4.552 -0.1052 -1.8818 -0.4049
  543MOL0     H71673   4.562   9.852   4.502  1.7866 -1.2364  0.0803
  543MOL0     H71674   4.447   9.521   4.267  0.0191 -1.3803  0.7576
  543MOL0     H71675   4.820   9.935   5.054  0.7982  1.3501  0.2717
  543MOL0     H71676   4.997  10.093   4.984 -0.1396  0.2755  0.1858
  544MOL0     O71677   0.285   2.102   2.284 -0.5960 -0.4334  0.0113
  544MOL0     C71678   0.376   2.176   2.305 -0.3078  0.1318  0.4029
  544MOL0     O71679   0.363   2.305   2.360 -0.6284  0.1454 -0.0075
  544MOL0     C71680   0.241   2.362   2.350  0.4204 -0.5011 -0.9602
  544MOL0     C71681   0.119   2.304   2.396  0.5562 -0.1076  0.8316
  544MOL0     C71682  -0.001   2.375   2.385  0.0923 -0.1610 -0.1978
  544MOL0     C71683  -0.004   2.504   2.331 -0.0549  1.1018  0.2606
  544MOL0     O71684  -0.115   2.580   2.313  0.2795 -0.1427  1.1946
  544MOL0     C71685  -0.226   2.517   2.244 -0.2732 -1.2859 -0.4098
  544MOL0     C71686  -0.340   2.621   2.247 -0.2828 -0.0843 -0.5390
  544MOL0     C71687  -0.466   2.579   2.179  0.0464  0.0154  0.1884
  544MOL0     C71688  -0.571   2.687   2.157 -0.1659 -0.0828 -0.4243
  544MOL0     C71689  -0.650   2.718   2.283  0.2703  0.1742 -0.8911
  544MOL0     C71690  -0.766   2.812   2.254 -1.0069 -0.2343 -0.2824
  544MOL0     C71691  -0.806   2.876   2.387 -0.5230  0.1660 -0.3313
  544MOL0     C71692  -0.916   2.983   2.360 -0.5120  0.1198 -0.2122
  544MOL0     N71693  -1.041   2.929   2.301  0.2664 -0.2676  0.0817
  544MOL0     C71694  -1.113   2.820   2.344  0.1375  0.1995 -0.5278
  544MOL0     C71695  -1.220   2.820   2.268 -1.0618  0.1299  0.8000
  544MOL0     C71696  -1.325   2.715   2.259  0.2763  0.0001  0.4607
  544MOL0     C71697  -1.438   2.759   2.349 -0.0385 -0.2495  0.5579
  544MOL0     C71698  -1.560   2.662   2.354 -0.6905  0.0974 -0.2017
  544MOL0     C71699  -1.650   2.704   2.472  0.6153  0.3517 -0.0514
  544MOL0     O71700  -1.697   2.835   2.448 -0.0425  0.2768  0.1258
  544MOL0     C71701  -1.789   2.885   2.543  0.1934  0.5932 -0.1515
  544MOL0     C71702  -1.858   2.805   2.634 -0.3983 -1.0126  0.8407
  544MOL0     C71703  -1.935   2.863   2.732  0.7034 -0.8988  0.0206
  544MOL0     C71704  -1.946   3.000   2.750 -0.0960  0.2705 -1.0208
  544MOL0     C71705  -2.028   3.065   2.857 -0.5501  0.1730 -0.1186
  544MOL0     O71706  -2.072   2.978   2.958 -0.2871  0.2238 -0.7013
  544MOL0     C71707  -2.118   3.033   3.080 -0.7983  0.7280 -0.8921
  544MOL0     C71708  -2.253   3.014   3.127  0.1058 -0.3551 -0.0877
  544MOL0     C71709  -2.297   3.080   3.247  0.0403 -0.2327 -0.2530
  544MOL0     C71710  -2.205   3.166   3.318  0.6152 -0.5264 -0.6388
  544MOL0     O71711  -2.241   3.242   3.429  0.4256  0.6470 -0.1203
  544MOL0     C71712  -2.355   3.327   3.412  0.2973  0.0813  1.0703
  544MOL0     C71713  -2.333   3.430   3.301 -0.1488 -0.0160 -0.3748
  544MOL0     C71714  -2.411   3.567   3.324  0.1067  0.0582 -0.3276
  544MOL0     C71715  -2.562   3.561   3.287 -0.8133 -0.2151  0.1593
  544MOL0     C71716  -2.608   3.703   3.261  0.5722 -0.0451 -0.8612
  544MOL0     C71717  -2.751   3.698   3.205  0.6651  0.0206  0.2253
  544MOL0     C71718  -2.810   3.846   3.197 -1.3837  0.4733 -1.1202
  544MOL0     C71719  -2.955   3.852   3.156 -0.7040 -0.1026  0.4068
  544MOL0    Cl71720  -2.996   3.749   3.017 -0.5353 -0.2359 -0.2313
  544MOL0     C71721  -2.069   3.180   3.271 -0.7427  1.1545  0.3725
  544MOL0     C71722  -2.025   3.111   3.160  0.0200 -0.4892 -0.3074
  544MOL0     O71723  -2.044   3.185   2.863  0.4080  0.3650  0.1768
  544MOL0     C71724  -1.883   3.081   2.654 -0.0316  0.6628 -0.2374
  544MOL0     C71725  -1.805   3.028   2.549  0.6934  0.0080  1.1484
  544MOL0     N71726  -1.187   2.906   2.161  1.5196  0.1597  0.4404
  544MOL0     N71727  -1.091   2.984   2.188 -0.2575 -0.1926 -0.4002
  544MOL0     C71728   0.122   2.568   2.307  0.7608 -0.1740 -0.5087
  544MOL0     C71729   0.238   2.501   2.318  0.2978 -0.9260  0.3752
  544MOL0     C71730   0.504   2.125   2.281  0.6117  0.9155 -0.1464
  544MOL0     C71731   0.523   1.978   2.276  0.2910 -0.6484 -0.1059
  544MOL0     C71732   0.653   1.920   2.272  0.1312 -1.0160 -0.0624
  544MOL0     C71733   0.762   2.003   2.258  0.5306 -0.3960 -0.6980
  544MOL0     O71734   0.886   1.950   2.234 -1.0164  0.5588  0.0633
  544MOL0     C71735   0.990   2.025   2.293  0.6982 -0.1706 -0.6396
  544MOL0     C71736   1.112   1.930   2.296  0.0002  0.1435 -0.3748
  544MOL0     C71737   1.225   2.019   2.364  0.6537  1.0255 -0.6518
  544MOL0     C71738   1.356   1.938   2.364  0.4862 -0.5404  0.0012
  544MOL0     C71739   1.452   1.969   2.469  0.3982 -0.4687  0.3552
  544MOL0     C71740   1.539   1.971   2.555 -0.0514  0.3129 -0.3026
  544MOL0     C71741   0.740   2.144   2.261 -0.8038 -0.0848 -0.1873
  544MOL0     C71742   0.618   2.200   2.262  0.9032  0.5445 -0.2415
  544MOL0     H71743   0.119   2.201   2.431 -0.3773  0.5458  2.9166
  544MOL0     H71744  -0.089   2.316   2.410 -0.3585  0.0955 -1.1353
  544MOL0     H71745  -0.255   2.426   2.298 -0.6983 -1.6407 -1.2193
  544MOL0     H71746  -0.192   2.507   2.140  0.1518 -1.0537 -0.2961
  544MOL0     H71747  -0.313   2.712   2.193 -1.9460  1.3581  0.9548
  544MOL0     H71748  -0.367   2.640   2.351  0.6028 -1.4547 -0.0207
  544MOL0     H71749  -0.514   2.498   2.235  0.6210 -0.0948  0.5264
  544MOL0     H71750  -0.437   2.547   2.078 -0.7989  2.1793 -0.8172
  544MOL0     H71751  -0.523   2.780   2.124 -1.5180  0.8318  0.0919
  544MOL0     H71752  -0.634   2.663   2.070 -0.1925 -4.6676  0.6108
  544MOL0     H71753  -0.580   2.754   2.359  0.0902  1.2039 -1.1940
  544MOL0     H71754  -0.697   2.627   2.321 -1.0022  0.3918 -1.8520
  544MOL0     H71755  -0.850   2.753   2.216 -1.2687 -2.5444  3.3527
  544MOL0     H71756  -0.747   2.894   2.184 -0.9501 -0.0008  0.0016
  544MOL0     H71757  -0.850   2.795   2.444  1.0490  0.8787  2.0271
  544MOL0     H71758  -0.725   2.926   2.441 -2.3204  1.0258  1.7199
  544MOL0     H71759  -0.881   3.065   2.297 -2.3931  1.6968  0.7157
  544MOL0     H71760  -0.940   3.037   2.452 -0.0937  2.7311 -1.5370
  544MOL0     H71761  -1.092   2.758   2.431  0.9134  0.6380 -0.4013
  544MOL0     H71762  -1.294   2.616   2.294  1.5284  0.0436 -0.4371
  544MOL0     H71763  -1.355   2.703   2.154  2.1323  3.0609 -0.5444
  544MOL0     H71764  -1.478   2.855   2.314 -1.9496 -0.1188  2.8162
  544MOL0     H71765  -1.398   2.765   2.450  1.2895 -0.7499  0.0869
  544MOL0     H71766  -1.617   2.669   2.261 -1.3943  1.5044  0.2954
  544MOL0     H71767  -1.535   2.556   2.359  2.2362  0.2859 -4.7780
  544MOL0     H71768  -1.589   2.708   2.562 -1.9921 -0.4224  1.8377
  544MOL0     H71769  -1.727   2.628   2.482 -0.9666  1.8383 -0.4898
  544MOL0     H71770  -1.849   2.698   2.644 -0.8751 -1.3105 -1.3679
  544MOL0     H71771  -1.990   2.800   2.800 -0.3478 -0.3800 -0.3305
  544MOL0     H71772  -2.328   2.957   3.072  0.2925 -0.3668 -0.3353
  544MOL0     H71773  -2.399   3.061   3.280  0.7681 -2.5646  0.8294
  544MOL0     H71774  -2.371   3.370   3.511 -0.0239  1.0808  0.5915
  544MOL0     H71775  -2.440   3.264   3.382  1.4734 -0.9740 -0.1885
  544MOL0     H71776  -2.370   3.382   3.210 -0.9665 -0.9951  0.4477
  544MOL0     H71777  -2.226   3.452   3.287 -0.2274  1.5804  1.0693
  544MOL0     H71778  -2.354   3.639   3.265 -0.8578  2.0923  1.0861
  544MOL0     H71779  -2.406   3.613   3.423  0.8222 -1.4691  0.3665
  544MOL0     H71780  -2.563   3.514   3.188 -0.7265 -1.2800  0.6540
  544MOL0     H71781  -2.616   3.515   3.370  0.6056  1.3205  2.0250
  544MOL0     H71782  -2.532   3.753   3.201  1.4015  1.1432  1.0752
  544MOL0     H71783  -2.604   3.761   3.354  2.9311  1.8294 -2.0253
  544MOL0     H71784  -2.817   3.639   3.269 -0.2113 -1.2906 -1.7754
  544MOL0     H71785  -2.733   3.650   3.108  1.5737  0.8773 -0.0527
  544MOL0     H71786  -2.808   3.889   3.297  0.8604  0.4511 -1.1149
  544MOL0     H71787  -2.744   3.902   3.130 -1.4669 -1.3488 -2.8159
  544MOL0     H71788  -2.982   3.953   3.124 -1.3820 -0.8519 -1.4760
  544MOL0     H71789  -3.017   3.831   3.244  1.0195 -1.5984  1.3348
  544MOL0     H71790  -2.010   3.241   3.339 -0.3408  2.1304 -0.8272
  544MOL0     H71791  -1.921   3.126   3.133  0.9900 -1.8178  2.3164
  544MOL0     H71792  -1.903   3.187   2.643 -3.1349  0.1865 -0.2208
  544MOL0     H71793  -1.768   3.091   2.469 -1.6148 -0.2915 -0.2496
  544MOL0     H71794   0.109   2.668   2.267  1.0572  0.1841  0.2696
  544MOL0     H71795   0.329   2.556   2.297 -0.4266  1.2143  2.3896
  544MOL0     H71796   0.448   1.901   2.289  0.5173 -0.7211  0.8787
  544MOL0     H71797   0.681   1.816   2.278  3.5982 -0.2004  0.5174
  544MOL0     H71798   0.963   2.042   2.397  1.5529 -1.6798 -0.1508
  544MOL0     H71799   1.009   2.121   2.242  2.0280 -0.1266 -0.0854
  544MOL0     H71800   1.087   1.845   2.360 -0.4095  0.4167 -0.1627
  544MOL0     H71801   1.122   1.900   2.192 -2.2866  0.6382 -0.8054
  544MOL0     H71802   1.191   2.050   2.464  0.5180  1.5924 -0.8733
  544MOL0     H71803   1.250   2.105   2.302 -3.1095  1.3954 -1.9227
  544MOL0     H71804   1.340   1.831   2.379 -1.3745 -0.3164 -0.1456
  544MOL0     H71805   1.395   1.943   2.262  2.4858 -0.2239  0.7271
  544MOL0     H71806   1.630   1.982   2.611  0.2676  3.7990 -1.2448
  544MOL0     H71807   0.824   2.213   2.254 -0.7462 -0.2727 -1.6680
  544MOL0     H71808   0.613   2.308   2.274 -3.8490  0.8896 -2.6771
  545MOL0     O71809   6.928   8.289   3.801 -0.2395  0.8059 -0.1162
  545MOL0     C71810   6.973   8.221   3.706  0.8012 -0.4697  0.1173
  545MOL0     O71811   6.898   8.186   3.601  0.8788 -0.5529 -0.1880
  545MOL0     C71812   6.774   8.248   3.595  0.5335  0.0331 -0.2150
  545MOL0     C71813   6.665   8.163   3.562 -0.8384  0.4612 -0.3109
  545MOL0     C71814   6.546   8.220   3.536 -0.0278  0.1762  0.3618
  545MOL0     C71815   6.523   8.357   3.534 -0.1866 -0.0031 -0.7736
  545MOL0     O71816   6.395   8.403   3.502  0.1214 -0.6061  0.4374
  545MOL0     C71817   6.349   8.539   3.504 -0.0408  0.0316  0.2868
  545MOL0     C71818   6.266   8.592   3.380  0.1613 -0.2678 -0.7592
  545MOL0     C71819   6.345   8.576   3.254 -0.4995 -0.2950  0.2893
  545MOL0     C71820   6.474   8.665   3.269  0.1095 -0.6211 -0.1277
  545MOL0     C71821   6.528   8.698   3.130  0.7783  0.6157  1.0280
  545MOL0     C71822   6.681   8.728   3.131  0.2170 -0.3284  1.4403
  545MOL0     C71823   6.723   8.748   2.987 -0.4967  0.3792  0.2687
  545MOL0     C71824   6.669   8.872   2.913  0.9522 -0.0393  0.3852
  545MOL0     N71825   6.709   8.991   2.972  0.0986 -0.4295  0.1741
  545MOL0     C71826   6.833   9.042   2.955  0.1728 -0.5257 -0.3479
  545MOL0     C71827   6.828   9.159   3.029 -0.1123  1.0829  0.3198
  545MOL0     C71828   6.944   9.251   3.024 -0.1719 -0.0377 -0.3291
  545MOL0     C71829   7.010   9.255   3.160  0.3877 -0.1369 -0.2435
  545MOL0     C71830   7.147   9.325   3.168  0.0515 -0.1279  0.7182
  545MOL0     C71831   7.182   9.363   3.320  0.0435 -0.1374  0.8677
  545MOL0     O71832   7.210   9.242   3.381  0.8467 -0.3522 -0.0239
  545MOL0     C71833   7.332   9.185   3.370  0.0531 -0.3452 -1.0297
  545MOL0     C71834   7.443   9.244   3.301  0.2089 -0.0691  0.7848
  545MOL0     C71835   7.573   9.199   3.305  0.4432  0.1775  0.3493
  545MOL0     C71836   7.600   9.071   3.373  0.5540  0.6819  0.4204
  545MOL0     C71837   7.733   9.008   3.380 -0.1507 -0.5583  0.5389
  545MOL0     O71838   7.846   9.092   3.369 -0.2657 -0.3521  0.3822
  545MOL0     C71839   7.969   9.041   3.387 -0.6562  0.5576  0.3894
  545MOL0     C71840   8.064   9.098   3.471  0.5172  0.3576 -0.3703
  545MOL0     C71841   8.191   9.040   3.486  0.4719 -0.1142 -0.1193
  545MOL0     C71842   8.228   8.925   3.408  0.4693  0.4246  0.4469
  545MOL0     O71843   8.347   8.855   3.417  0.5922 -0.3847 -0.1766
  545MOL0     C71844   8.471   8.909   3.447 -0.6221  0.5256 -0.0736
  545MOL0     C71845   8.505   9.012   3.340  0.0335  0.3308  0.7045
  545MOL0     C71846   8.544   8.949   3.202 -0.2824 -0.3239  0.7630
  545MOL0     C71847   8.640   9.044   3.126  0.3744  0.2724  0.0503
  545MOL0     C71848   8.713   8.978   3.016 -0.1487 -0.2822  0.2409
  545MOL0     C71849   8.818   9.063   2.968 -0.5792 -0.6245 -1.0752
  545MOL0     C71850   8.887   9.023   2.843  0.6271 -0.4440  0.0484
  545MOL0     C71851   9.009   9.108   2.821  0.3084 -0.7435  0.1539
  545MOL0    Cl71852   9.132   9.075   2.946 -0.0190 -0.6669  0.3504
  545MOL0     C71853   8.134   8.865   3.319  0.3097 -0.0081  0.3415
  545MOL0     C71854   8.003   8.925   3.304 -0.1235 -0.3075 -0.3697
  545MOL0     O71855   7.736   8.891   3.412 -0.9903 -0.0948 -0.3618
  545MOL0     C71856   7.483   9.007   3.433  0.2875 -0.0885  0.1251
  545MOL0     C71857   7.359   9.068   3.443  0.1754  1.0975 -0.4852
  545MOL0     N71858   6.699   9.177   3.081  0.1418  0.4448 -0.0156
  545MOL0     N71859   6.635   9.071   3.048  0.1951 -0.5342  0.3637
  545MOL0     C71860   6.628   8.441   3.564 -0.3239  0.0117 -1.0612
  545MOL0     C71861   6.751   8.388   3.591 -0.2900  0.4449  0.1557
  545MOL0     C71862   7.112   8.165   3.701  0.0393  0.2586 -1.0337
  545MOL0     C71863   7.191   8.172   3.805 -0.0970 -0.0193  0.3834
  545MOL0     C71864   7.317   8.124   3.802  0.0338 -0.0963 -0.4903
  545MOL0     C71865   7.384   8.073   3.693 -0.7866 -0.4529  0.9789
  545MOL0     O71866   7.517   8.025   3.699 -0.2908 -0.4040 -0.1677
  545MOL0     C71867   7.622   8.117   3.692 -0.2888  0.4583  0.1600
  545MOL0     C71868   7.657   8.160   3.825 -0.1988  0.7088  1.2096
  545MOL0     C71869   7.784   8.236   3.822  0.9188 -0.3680  0.0247
  545MOL0     C71870   7.798   8.303   3.957 -0.2554  0.5430  0.0260
  545MOL0     C71871   7.938   8.345   3.976 -0.0452 -0.5881  0.1898
  545MOL0     C71872   8.055   8.376   3.983  0.3545 -0.0437 -0.6128
  545MOL0     C71873   7.298   8.060   3.580  0.6699 -0.1118  0.5047
  545MOL0     C71874   7.172   8.105   3.583 -0.2203 -1.0387  0.4144
  545MOL0     H71875   6.674   8.055   3.569 -1.4944  0.4702  0.7608
  545MOL0     H71876   6.464   8.156   3.503 -1.0696  3.4881 -4.4210
  545MOL0     H71877   6.430   8.611   3.521 -0.4062  0.1800  1.4906
  545MOL0     H71878   6.284   8.542   3.592 -0.3805 -1.9647  0.1364
  545MOL0     H71879   6.253   8.701   3.385  0.1237 -0.3167  0.4357
  545MOL0     H71880   6.170   8.543   3.360 -2.3837  3.1803  1.7539
  545MOL0     H71881   6.291   8.599   3.162  1.1583 -0.1940 -0.7032
  545MOL0     H71882   6.382   8.473   3.251 -1.4017 -0.6139 -1.0458
  545MOL0     H71883   6.451   8.763   3.312  0.6054 -0.5860  0.0726
  545MOL0     H71884   6.548   8.613   3.332  2.7313 -1.0213 -3.3006
  545MOL0     H71885   6.462   8.775   3.090 -3.9376 -2.8208  1.3574
  545MOL0     H71886   6.522   8.613   3.062  0.6535  1.4285  0.0134
  545MOL0     H71887   6.734   8.643   3.174 -0.6718 -0.3929  2.4322
  545MOL0     H71888   6.706   8.821   3.183  2.7900  1.2072 -2.0987
  545MOL0     H71889   6.832   8.752   2.989 -0.3085 -2.0371 -1.0436
  545MOL0     H71890   6.699   8.658   2.929  0.9685  0.0624  0.1140
  545MOL0     H71891   6.560   8.861   2.921  0.5129  3.6525  1.6076
  545MOL0     H71892   6.705   8.870   2.810  1.1702  5.1613  0.1006
  545MOL0     H71893   6.912   9.002   2.893  0.4020 -1.4351  0.5001
  545MOL0     H71894   6.915   9.350   2.989 -0.9232 -1.3544 -3.8532
  545MOL0     H71895   7.020   9.221   2.951 -2.0333 -2.0051 -1.5737
  545MOL0     H71896   7.023   9.157   3.206  0.1530 -0.4316 -0.7901
  545MOL0     H71897   6.940   9.314   3.219  0.9796  1.9240 -1.4922
  545MOL0     H71898   7.226   9.266   3.121  2.5234  3.8524 -0.5913
  545MOL0     H71899   7.146   9.424   3.121 -0.5147 -0.3153  0.3287
  545MOL0     H71900   7.095   9.405   3.371 -1.3394  0.2760 -1.6353
  545MOL0     H71901   7.265   9.435   3.319 -2.2622  2.7087 -0.3298
  545MOL0     H71902   7.420   9.333   3.243  0.8144 -0.7557 -0.5538
  545MOL0     H71903   7.651   9.251   3.250 -1.5020  2.0346 -0.8150
  545MOL0     H71904   8.040   9.192   3.520 -2.6720 -0.7895  0.5013
  545MOL0     H71905   8.265   9.079   3.556  0.4587  2.3623 -1.3982
  545MOL0     H71906   8.544   8.831   3.470 -1.1932  0.2665  0.9017
  545MOL0     H71907   8.467   8.960   3.544 -3.6678 -0.8953  0.6544
  545MOL0     H71908   8.589   9.065   3.386  1.1180 -0.8440  0.1366
  545MOL0     H71909   8.425   9.085   3.330 -0.0568  0.0315 -0.9514
  545MOL0     H71910   8.459   8.934   3.134  0.5142 -0.9280 -0.1246
  545MOL0     H71911   8.606   8.860   3.212  0.3165  0.1444  1.2440
  545MOL0     H71912   8.585   9.130   3.085  2.1818  1.7181  0.5483
  545MOL0     H71913   8.710   9.079   3.202  1.6265 -1.0665 -0.4536
  545MOL0     H71914   8.645   8.944   2.937  1.7531  1.5607 -2.3785
  545MOL0     H71915   8.765   8.888   3.049 -2.4193 -3.5394 -4.0247
  545MOL0     H71916   8.889   9.066   3.051 -1.4090  0.4352 -0.3812
  545MOL0     H71917   8.774   9.158   2.938  1.4888  0.5009 -0.6957
  545MOL0     H71918   8.919   8.919   2.855  2.1842  0.0608  0.4889
  545MOL0     H71919   8.815   9.018   2.762  0.4403  0.5773  0.1387
  545MOL0     H71920   8.984   9.214   2.821  2.7224 -0.0962  1.0959
  545MOL0     H71921   9.054   9.086   2.723 -0.0313 -2.1662  0.3022
  545MOL0     H71922   8.167   8.777   3.265  1.9073  1.5656 -1.3788
  545MOL0     H71923   7.928   8.886   3.236 -1.2608  1.4643 -0.1990
  545MOL0     H71924   7.487   8.909   3.480  2.6801  0.2127  0.6360
  545MOL0     H71925   7.292   9.018   3.511  0.5902  1.2605  0.0524
  545MOL0     H71926   6.621   8.547   3.587 -1.6148 -0.1680 -0.5338
  545MOL0     H71927   6.841   8.445   3.612  0.7419 -1.3728  0.9325
  545MOL0     H71928   7.150   8.202   3.901 -1.5801 -2.9167  0.7734
  545MOL0     H71929   7.372   8.108   3.894 -0.3838 -2.4493 -0.5961
  545MOL0     H71930   7.588   8.193   3.621 -0.8448  0.1920  0.1391
  545MOL0     H71931   7.712   8.069   3.653 -1.5320 -1.2672 -0.7621
  545MOL0     H71932   7.573   8.222   3.857  1.3821  4.5409 -1.3073
  545MOL0     H71933   7.673   8.067   3.881  0.5488 -1.8772 -2.8177
  545MOL0     H71934   7.788   8.306   3.738 -4.0017  0.5822  0.3019
  545MOL0     H71935   7.858   8.157   3.807  1.9667  0.9402 -2.2171
  545MOL0     H71936   7.737   8.394   3.963  1.3802  1.6311  0.8437
  545MOL0     H71937   7.769   8.238   4.040  0.0514  1.8345  1.1832
  545MOL0     H71938   8.155   8.410   3.966  0.6662  0.2389  1.4872
  545MOL0     H71939   7.340   7.999   3.501 -2.5169 -0.1877 -1.2781
  545MOL0     H71940   7.118   8.108   3.489  2.3853 -0.5624 -1.1640
  546MOL0     O71941   7.038   5.877  10.562  0.1230 -0.5376  1.1200
  546MOL0     C71942   7.100   5.773  10.535  0.0188 -0.3120  0.3144
  546MOL0     O71943   7.062   5.645  10.584  0.2052 -0.1501 -0.4367
  546MOL0     C71944   6.974   5.656  10.686 -0.4549  0.2344  0.4720
  546MOL0     C71945   6.839   5.652  10.660  0.0952 -0.3511 -0.7358
  546MOL0     C71946   6.747   5.637  10.759  0.0201  0.0691 -0.7136
  546MOL0     C71947   6.784   5.640  10.894 -0.5288  0.1952 -0.4694
  546MOL0     O71948   6.696   5.637  10.999 -0.2337  0.9254  1.1392
  546MOL0     C71949   6.551   5.652  10.967 -0.2132  0.1420 -0.6756
  546MOL0     C71950   6.479   5.519  10.921  0.1052  0.7787  0.3132
  546MOL0     C71951   6.332   5.555  10.879  0.0139  0.9867  0.7242
  546MOL0     C71952   6.307   5.641  10.756  0.3481 -1.0512  0.7757
  546MOL0     C71953   6.154   5.638  10.741 -0.6782 -1.1511  0.0599
  546MOL0     C71954   6.100   5.718  10.620  0.0044  0.2460 -0.1326
  546MOL0     C71955   5.951   5.681  10.596  0.7641  0.3733  0.1622
  546MOL0     C71956   5.882   5.768  10.489  0.3654  0.0288  0.0423
  546MOL0     N71957   5.736   5.743  10.482 -0.0909  0.5561  0.2933
  546MOL0     C71958   5.653   5.765  10.583  0.1961 -0.0905 -0.5377
  546MOL0     C71959   5.540   5.787  10.516  0.5433  0.2317  1.2874
  546MOL0     C71960   5.407   5.803  10.587  0.3168  0.3253  0.6696
  546MOL0     C71961   5.295   5.877  10.501  0.5147  0.4832 -0.5622
  546MOL0     C71962   5.150   5.896  10.569 -0.4104 -0.0635 -0.3982
  546MOL0     C71963   5.060   5.774  10.538  0.3574  0.1463  0.0149
  546MOL0     O71964   4.937   5.793  10.613  0.4682  0.7107  0.4068
  546MOL0     C71965   4.826   5.847  10.544 -0.0915  1.1981 -0.1171
  546MOL0     C71966   4.820   5.911  10.417 -0.4187 -0.8176  0.9328
  546MOL0     C71967   4.702   5.958  10.357  0.5028  0.8495  0.3577
  546MOL0     C71968   4.586   5.946  10.424  0.5821 -0.2186  0.3985
  546MOL0     C71969   4.447   5.979  10.362 -0.3043  0.1393 -0.2005
  546MOL0     O71970   4.333   5.941  10.431  0.1103  0.6226 -0.0633
  546MOL0     C71971   4.209   5.991  10.401  0.5345 -0.4021 -0.3145
  546MOL0     C71972   4.159   6.044  10.275 -0.5353  0.1545 -0.3370
  546MOL0     C71973   4.017   6.068  10.256 -0.4802 -0.6128  0.7427
  546MOL0     C71974   3.932   6.053  10.359  0.1729  0.1665  0.4608
  546MOL0     O71975   3.801   6.078  10.330  0.0916  0.2800 -0.4656
  546MOL0     C71976   3.703   5.976  10.368  0.2574  0.4982 -0.0980
  546MOL0     C71977   3.562   6.047  10.365  0.4458 -0.0265  0.1786
  546MOL0     C71978   3.459   5.954  10.301 -0.9035 -0.8073 -0.0778
  546MOL0     C71979   3.324   6.024  10.272  0.0829 -1.2154 -0.1837
  546MOL0     C71980   3.220   5.926  10.224  0.3136  0.3108  1.1671
  546MOL0     C71981   3.082   5.998  10.214  0.6212  1.1075 -0.3166
  546MOL0     C71982   2.956   5.905  10.195 -0.2667 -0.2575  0.2159
  546MOL0     C71983   2.957   5.826  10.064  0.4728  0.0081  0.1948
  546MOL0    Cl71984   2.791   5.753  10.020  0.2250 -0.4430 -0.3160
  546MOL0     C71985   3.982   6.010  10.483  0.0823  0.4051  0.0820
  546MOL0     C71986   4.114   5.974  10.505 -0.0899 -0.0406  0.9621
  546MOL0     O71987   4.447   6.042  10.263 -0.0610  0.4384 -0.5343
  546MOL0     C71988   4.580   5.890  10.557  0.0726 -1.1005  0.9420
  546MOL0     C71989   4.701   5.842  10.604 -0.3471  0.1688 -1.2802
  546MOL0     N71990   5.550   5.749  10.376 -0.3734  0.7788 -0.2096
  546MOL0     N71991   5.679   5.740  10.360  0.4936 -0.0436  0.6198
  546MOL0     C71992   6.915   5.649  10.922 -0.3054 -0.3154 -0.7625
  546MOL0     C71993   7.014   5.658  10.821  0.6486 -0.1643  0.1197
  546MOL0     C71994   7.222   5.784  10.453  0.4660 -0.0761  0.5783
  546MOL0     C71995   7.320   5.678  10.434 -0.3871  0.2693 -0.2471
  546MOL0     C71996   7.436   5.688  10.353  0.3608  0.4417 -0.5233
  546MOL0     C71997   7.460   5.807  10.289  1.0592 -0.2973  0.2390
  546MOL0     O71998   7.570   5.828  10.212  0.9057 -0.0197  0.4985
  546MOL0     C71999   7.584   5.716  10.124  0.7342 -0.2997  0.6458
  546MOL0     C72000   7.672   5.767  10.005  0.7080  0.5798  0.4186
  546MOL0     C72001   7.720   5.665   9.912  0.2599 -0.0596  1.0182
  546MOL0     C72002   7.769   5.716   9.772  0.2409 -0.4639 -0.0891
  546MOL0     C72003   7.759   5.601   9.676  0.2930  0.2482  1.5687
  546MOL0     C72004   7.768   5.516   9.583 -0.1685  0.5199  0.1879
  546MOL0     C72005   7.371   5.916  10.312 -0.0168 -0.0112  1.0156
  546MOL0     C72006   7.255   5.907  10.393 -0.5155 -0.2036  0.0916
  546MOL0     H72007   6.790   5.654  10.563 -3.3319  0.9029  0.8558
  546MOL0     H72008   6.642   5.645  10.733 -0.3932  0.8495  1.0042
  546MOL0     H72009   6.535   5.739  10.903 -2.5862 -0.1114 -0.5105
  546MOL0     H72010   6.502   5.688  11.057  0.9954  1.9684 -0.7072
  546MOL0     H72011   6.480   5.444  11.000 -0.9871 -1.3062 -1.5350
  546MOL0     H72012   6.525   5.478  10.830  0.4741  0.7785  0.5002
  546MOL0     H72013   6.282   5.598  10.967 -1.2390 -0.0111  0.5263
  546MOL0     H72014   6.274   5.462  10.881 -1.6074  1.9656  1.8383
  546MOL0     H72015   6.355   5.739  10.763  3.7628 -2.2934 -2.1791
  546MOL0     H72016   6.356   5.587  10.675  0.1823 -0.7915  0.5016
  546MOL0     H72017   6.107   5.686  10.828 -1.2483 -0.3688 -0.6602
  546MOL0     H72018   6.119   5.535  10.735 -1.5982 -0.7654 -2.1837
  546MOL0     H72019   6.159   5.692  10.531 -0.7436 -0.0202 -0.5610
  546MOL0     H72020   6.126   5.823  10.631  0.2059 -0.0052  2.3550
  546MOL0     H72021   5.944   5.575  10.570  0.8886  0.9572 -2.6070
  546MOL0     H72022   5.909   5.685  10.696 -0.1224  3.5564 -0.2467
  546MOL0     H72023   5.931   5.734  10.398  4.6351 -0.3180  2.1778
  546MOL0     H72024   5.905   5.873  10.514  3.8166  0.7167 -4.7386
  546MOL0     H72025   5.657   5.778  10.690  1.1010 -0.2754 -0.5451
  546MOL0     H72026   5.428   5.845  10.686 -1.7149  1.6488  0.5911
  546MOL0     H72027   5.381   5.698  10.603  3.4795 -0.3871  1.7555
  546MOL0     H72028   5.289   5.821  10.407 -1.4577  1.6297 -1.1758
  546MOL0     H72029   5.333   5.977  10.480  3.0165 -0.0809  0.8498
  546MOL0     H72030   5.166   5.910  10.677  0.3652  1.6655 -0.7019
  546MOL0     H72031   5.121   5.994  10.529  0.1876 -0.2455 -1.2950
  546MOL0     H72032   5.118   5.686  10.568 -0.4552 -0.5166 -0.3317
  546MOL0     H72033   5.042   5.764  10.431  0.9947 -0.8465 -0.0212
  546MOL0     H72034   4.918   5.927  10.372 -0.8066  2.0483  0.9322
  546MOL0     H72035   4.707   5.992  10.254 -0.6512 -0.7932 -0.2899
  546MOL0     H72036   4.220   6.049  10.186 -0.5836  2.2313 -0.3032
  546MOL0     H72037   3.989   6.104  10.158  1.6572 -1.1456 -0.1178
  546MOL0     H72038   3.723   5.933  10.467  0.2375  1.7416  0.4525
  546MOL0     H72039   3.707   5.901  10.288  0.6676  0.9053 -0.4620
  546MOL0     H72040   3.566   6.141  10.311 -0.7456  1.3066  2.2488
  546MOL0     H72041   3.537   6.066  10.470  2.1116 -0.1332  0.6109
  546MOL0     H72042   3.442   5.868  10.366 -0.4921  1.7259  3.7515
  546MOL0     H72043   3.491   5.911  10.206 -0.0362 -1.7114  0.6035
  546MOL0     H72044   3.293   6.085  10.357  1.5425 -1.2945  0.4328
  546MOL0     H72045   3.347   6.103  10.200  0.5868 -1.3109 -0.1321
  546MOL0     H72046   3.209   5.845  10.297  3.2883 -0.0574  1.3046
  546MOL0     H72047   3.245   5.890  10.124 -1.1127 -0.0340  0.9040
  546MOL0     H72048   3.088   6.059  10.123 -0.8470 -2.0188 -2.7311
  546MOL0     H72049   3.066   6.063  10.300 -3.1049  1.6321 -1.2309
  546MOL0     H72050   2.932   5.844  10.282 -2.2816  2.2253  1.5563
  546MOL0     H72051   2.871   5.974  10.183  0.1872  0.1808 -0.6512
  546MOL0     H72052   3.025   5.740  10.077 -0.9828 -1.4470 -1.3745
  546MOL0     H72053   2.992   5.887   9.980 -0.8239 -2.6358 -2.4527
  546MOL0     H72054   3.913   6.004  10.567  0.3987 -1.9194  0.2216
  546MOL0     H72055   4.150   5.929  10.597  0.7074  0.3364  0.8432
  546MOL0     H72056   4.486   5.887  10.611 -1.5897  0.2762 -1.6198
  546MOL0     H72057   4.699   5.802  10.704  0.2783  2.6904 -0.1816
  546MOL0     H72058   6.958   5.634  11.020  0.0134  0.6718 -0.7335
  546MOL0     H72059   7.117   5.664  10.856  0.6628 -0.7037  0.1866
  546MOL0     H72060   7.315   5.590  10.497  0.0096  0.6387  0.3046
  546MOL0     H72061   7.512   5.611  10.348  0.5222  0.3922  1.6657
  546MOL0     H72062   7.492   5.668  10.089  3.5069 -3.4407 -3.4093
  546MOL0     H72063   7.642   5.637  10.173 -0.5274 -1.3490  0.5179
  546MOL0     H72064   7.604   5.834   9.951 -2.0258 -1.7560  0.7314
  546MOL0     H72065   7.760   5.815  10.048  1.0850 -0.7492  1.1859
  546MOL0     H72066   7.638   5.596   9.888  0.8587  0.0968 -1.8809
  546MOL0     H72067   7.805   5.621   9.965 -0.7074  0.5707  3.1748
  546MOL0     H72068   7.716   5.804   9.734  3.1128  0.3435 -2.6412
  546MOL0     H72069   7.874   5.737   9.794  0.1268  0.4808 -0.3853
  546MOL0     H72070   7.785   5.431   9.521  0.3521  1.0313 -0.3850
  546MOL0     H72071   7.396   6.014  10.272 -2.9067  0.2271 -0.4745
  546MOL0     H72072   7.184   5.988  10.406  0.5485  0.5809  1.2630
  547MOL0     O72073   6.744   0.700   9.001  0.0624 -0.2296 -0.3303
  547MOL0     C72074   6.786   0.583   9.006 -0.5316 -0.1885 -0.2899
  547MOL0     O72075   6.719   0.466   8.966 -0.0186  0.5583  0.0633
  547MOL0     C72076   6.589   0.458   8.939 -0.3873 -0.7709 -0.7151
  547MOL0     C72077   6.518   0.359   9.014  0.2329  0.1037  0.8503
  547MOL0     C72078   6.380   0.360   8.997  0.2419 -0.1426 -0.9071
  547MOL0     C72079   6.317   0.449   8.912 -0.7308  0.8988  0.1438
  547MOL0     O72080   6.180   0.441   8.903  0.3132  0.4376  0.1300
  547MOL0     C72081   6.111   0.556   8.860 -0.0763 -0.1875 -1.1758
  547MOL0     C72082   5.967   0.555   8.917  0.0158  0.0416  0.0057
  547MOL0     C72083   5.869   0.439   8.881 -0.3554  0.8376  0.5897
  547MOL0     C72084   5.732   0.498   8.846 -0.3101 -1.1226  0.2679
  547MOL0     C72085   5.608   0.402   8.838  0.1268 -0.3967  0.8335
  547MOL0     C72086   5.492   0.474   8.761  0.4768  0.0402 -0.3825
  547MOL0     C72087   5.361   0.409   8.806  0.3385 -0.1598  0.6270
  547MOL0     C72088   5.230   0.463   8.730 -0.4876  0.1313  0.0855
  547MOL0     N72089   5.105   0.415   8.797 -0.2574 -0.2751  0.2085
  547MOL0     C72090   5.088   0.374   8.936 -0.7155  0.4527  0.5054
  547MOL0     C72091   4.964   0.324   8.940  0.7622 -0.3600 -0.3990
  547MOL0     C72092   4.887   0.288   9.062  1.3410  1.1222 -0.1487
  547MOL0     C72093   4.745   0.343   9.055  0.3874 -0.5193 -0.4513
  547MOL0     C72094   4.637   0.252   9.007  0.0744 -0.3520  0.3955
  547MOL0     C72095   4.618   0.124   9.085 -1.2976  0.6273 -0.4039
  547MOL0     O72096   4.487   0.067   9.070 -0.1414  0.0786 -0.2829
  547MOL0     C72097   4.380   0.118   9.137  0.9026 -0.0426 -0.6544
  547MOL0     C72098   4.263   0.048   9.115 -0.7057 -0.1958 -0.1521
  547MOL0     C72099   4.142   0.089   9.159  0.7533 -1.3042 -0.9826
  547MOL0     C72100   4.139   0.220   9.222  0.1955 -0.0192 -0.2396
  547MOL0     C72101   4.015   0.273   9.280  1.3034 -0.0710 -0.8568
  547MOL0     O72102   4.024   0.393   9.346  0.4442  0.1124  0.2220
  547MOL0     C72103   3.923   0.462   9.394 -0.4934  1.0238  0.0178
  547MOL0     C72104   3.911   0.474   9.535  0.0360 -0.2099  0.3770
  547MOL0     C72105   3.808   0.545   9.597 -0.0410  0.0234 -0.0635
  547MOL0     C72106   3.707   0.613   9.512 -0.3225 -0.4816  0.5698
  547MOL0     O72107   3.610   0.691   9.575  0.2348  0.0884  0.6118
  547MOL0     C72108   3.513   0.760   9.492  0.6464 -0.2093  0.7439
  547MOL0     C72109   3.439   0.852   9.585 -0.8231 -0.7943  0.1466
  547MOL0     C72110   3.307   0.905   9.520 -0.3545  0.0296 -0.2068
  547MOL0     C72111   3.221   0.996   9.603 -0.1600  0.8147 -0.5466
  547MOL0     C72112   3.121   1.058   9.518 -0.0621 -0.7301  0.5471
  547MOL0     C72113   3.001   1.102   9.604 -0.3308  0.9169 -0.1584
  547MOL0     C72114   2.901   1.185   9.534 -0.2773 -0.1516 -0.5773
  547MOL0     C72115   2.751   1.156   9.565 -0.8138  0.1484  0.3918
  547MOL0    Cl72116   2.727   1.168   9.738 -0.2954  0.2312 -0.1600
  547MOL0     C72117   3.731   0.603   9.370  0.6660 -0.7861  0.3561
  547MOL0     C72118   3.834   0.531   9.313 -0.6674 -0.1223 -0.5688
  547MOL0     O72119   3.911   0.211   9.268 -0.6713  0.4893  0.5710
  547MOL0     C72120   4.257   0.291   9.247  0.4465 -0.3619 -0.0547
  547MOL0     C72121   4.375   0.230   9.215 -0.3356 -1.1681  0.6402
  547MOL0     N72122   4.901   0.351   8.813  0.9131  0.2129 -1.0751
  547MOL0     N72123   4.990   0.407   8.734  0.6098 -0.2901  0.1328
  547MOL0     C72124   6.387   0.552   8.847  0.5639 -0.1885 -1.1150
  547MOL0     C72125   6.522   0.554   8.857  0.5938 -0.1938 -0.1569
  547MOL0     C72126   6.934   0.572   9.032  0.1754 -0.4901 -0.2039
  547MOL0     C72127   7.022   0.683   9.038  0.0196 -0.0485 -0.6924
  547MOL0     C72128   7.152   0.658   9.057 -0.1167  0.2596 -0.6463
  547MOL0     C72129   7.206   0.532   9.075  0.2486 -0.7687 -0.1405
  547MOL0     O72130   7.338   0.517   9.103 -0.2165  0.2185 -0.1108
  547MOL0     C72131   7.426   0.484   8.991 -0.4003  0.1866 -0.4197
  547MOL0     C72132   7.566   0.463   9.041 -0.7657  0.7106  0.0333
  547MOL0     C72133   7.661   0.450   8.928 -0.5127 -0.1213  0.3979
  547MOL0     C72134   7.811   0.441   8.963 -0.5947 -0.2826 -0.2821
  547MOL0     C72135   7.868   0.563   9.028  0.3518 -0.5966  0.4242
  547MOL0     C72136   7.931   0.649   9.087  0.0776  0.6282 -1.1110
  547MOL0     C72137   7.117   0.421   9.071 -0.1265 -0.5395  0.3609
  547MOL0     C72138   6.983   0.445   9.056 -0.0412  0.4184 -0.0591
  547MOL0     H72139   6.567   0.293   9.085  2.1771 -0.4218 -0.8626
  547MOL0     H72140   6.312   0.290   9.045  0.0814  0.1588 -0.6881
  547MOL0     H72141   6.115   0.549   8.751 -0.0545 -0.0510 -1.1836
  547MOL0     H72142   6.157   0.649   8.894  1.3351 -1.6614  1.2748
  547MOL0     H72143   5.921   0.642   8.868  1.9019  0.2984 -1.3942
  547MOL0     H72144   5.977   0.567   9.026  0.8360 -1.3830  0.1060
  547MOL0     H72145   5.866   0.353   8.949  0.4809  0.7360  0.5105
  547MOL0     H72146   5.909   0.389   8.792 -0.5183  1.0442  0.3984
  547MOL0     H72147   5.726   0.582   8.915  2.9421 -1.1585  0.7642
  547MOL0     H72148   5.734   0.556   8.753  1.2728  2.3876  2.2931
  547MOL0     H72149   5.586   0.371   8.941  1.2986  0.0967  1.2400
  547MOL0     H72150   5.636   0.308   8.790 -2.8937  0.3935 -2.9344
  547MOL0     H72151   5.513   0.468   8.654  1.8076 -0.7427 -0.0925
  547MOL0     H72152   5.489   0.578   8.797 -0.0893 -0.0232 -0.2370
  547MOL0     H72153   5.375   0.313   8.755 -0.1545 -0.0014  0.1870
  547MOL0     H72154   5.349   0.393   8.913  0.5728 -0.5760  0.5949
  547MOL0     H72155   5.219   0.421   8.629  1.1766  0.5581 -0.3013
  547MOL0     H72156   5.232   0.572   8.723 -0.4800  0.0566 -1.5113
  547MOL0     H72157   5.165   0.377   9.013 -0.2780  0.6026  0.0677
  547MOL0     H72158   4.924   0.328   9.157  0.1496 -1.2708  1.4200
  547MOL0     H72159   4.883   0.179   9.072  0.4503  1.2397  0.8706
  547MOL0     H72160   4.742   0.442   9.008  1.8363  0.0115  0.5163
  547MOL0     H72161   4.726   0.362   9.161 -1.0693 -3.7830 -0.0045
  547MOL0     H72162   4.543   0.308   9.005 -0.1547 -0.7375  0.1548
  547MOL0     H72163   4.671   0.229   8.905  0.9436 -0.1549  0.6315
  547MOL0     H72164   4.637   0.132   9.193 -1.1520  0.3149 -0.4030
  547MOL0     H72165   4.695   0.062   9.037 -0.9449  0.7322  0.0203
  547MOL0     H72166   4.263  -0.036   9.046 -1.5594  0.0672 -0.4951
  547MOL0     H72167   4.063   0.017   9.141 -1.5354  0.4416  1.3343
  547MOL0     H72168   3.997   0.422   9.574  0.0099 -1.1627 -0.7603
  547MOL0     H72169   3.805   0.550   9.705  4.1529  0.6834  0.2028
  547MOL0     H72170   3.441   0.684   9.462 -0.0964  0.7279  0.0547
  547MOL0     H72171   3.563   0.808   9.406  0.3255 -1.2385 -0.0324
  547MOL0     H72172   3.493   0.942   9.618 -2.4086 -0.0199  0.7107
  547MOL0     H72173   3.413   0.785   9.668 -0.4575 -1.9761 -0.6577
  547MOL0     H72174   3.239   0.822   9.497 -2.5482  1.5925  0.2726
  547MOL0     H72175   3.342   0.959   9.431 -2.2925  1.0520 -0.4119
  547MOL0     H72176   3.179   0.927   9.676 -0.9794 -0.5958 -2.2716
  547MOL0     H72177   3.278   1.071   9.659  1.1126 -0.6630  0.2359
  547MOL0     H72178   3.084   0.990   9.442  1.7191 -0.5522 -0.5326
  547MOL0     H72179   3.163   1.147   9.470  1.5716 -2.4129 -1.3041
  547MOL0     H72180   3.035   1.169   9.684 -0.7950 -0.0604  0.8803
  547MOL0     H72181   2.968   1.009   9.650  2.2943 -0.6620 -1.2134
  547MOL0     H72182   2.929   1.288   9.553 -0.1462  0.2134 -2.5079
  547MOL0     H72183   2.924   1.179   9.427  1.1836  1.9653 -0.4292
  547MOL0     H72184   2.729   1.054   9.532 -0.8244  0.7185 -1.4818
  547MOL0     H72185   2.680   1.223   9.517 -0.2081  0.9502  0.5899
  547MOL0     H72186   3.653   0.645   9.307  1.6712  0.4186 -0.1227
  547MOL0     H72187   3.844   0.522   9.205  2.5392  0.8680 -0.4505
  547MOL0     H72188   4.260   0.369   9.322 -0.7679 -1.0222  0.7215
  547MOL0     H72189   4.472   0.270   9.242 -0.5410  2.4297 -2.9243
  547MOL0     H72190   6.328   0.621   8.787 -0.5866 -3.0165 -3.4519
  547MOL0     H72191   6.581   0.635   8.814  0.5668 -0.1075 -0.0334
  547MOL0     H72192   6.997   0.787   9.023  0.6361  0.0734 -0.9063
  547MOL0     H72193   7.230   0.731   9.075 -0.5710  0.6530 -0.2216
  547MOL0     H72194   7.418   0.566   8.919  2.0285  0.2533 -0.7031
  547MOL0     H72195   7.397   0.392   8.940 -1.5654 -0.2667  1.0065
  547MOL0     H72196   7.602   0.544   9.104  2.0203 -1.2673  1.1867
  547MOL0     H72197   7.580   0.367   9.093  2.2091 -0.5865 -2.8184
  547MOL0     H72198   7.647   0.535   8.861  0.1578  0.6826  1.2676
  547MOL0     H72199   7.639   0.357   8.873  1.7594  1.0123 -2.7826
  547MOL0     H72200   7.828   0.366   9.041  3.5125  0.2253 -0.4583
  547MOL0     H72201   7.868   0.399   8.880 -2.1585 -3.6907  0.1686
  547MOL0     H72202   7.980   0.734   9.131 -1.7063  0.4343  1.4150
  547MOL0     H72203   7.144   0.318   9.093 -2.3322 -0.4407  4.4002
  547MOL0     H72204   6.915   0.360   9.058  0.9695 -0.4268 -0.0004
  548MOL0     O72205   0.928  10.749  10.213  0.1328  0.1827 -0.3171
  548MOL0     C72206   0.939  10.869  10.204 -0.2684 -0.7209 -0.1877
  548MOL0     O72207   0.843  10.957  10.241  0.3552 -0.4545  0.4573
  548MOL0     C72208   0.716  10.910  10.266  0.3135  1.0249 -0.2957
  548MOL0     C72209   0.664  10.932  10.399  0.0939 -0.7272  0.5133
  548MOL0     C72210   0.530  10.908  10.417 -0.0683  0.2081  0.1644
  548MOL0     C72211   0.455  10.829  10.344  0.2904  0.7438  0.9556
  548MOL0     O72212   0.335  10.790  10.395 -0.1048 -0.6462  0.2779
  548MOL0     C72213   0.224  10.765  10.305  0.1624 -0.4921 -0.8831
  548MOL0     C72214   0.088  10.745  10.392  0.1567 -0.5605  0.1932
  548MOL0     C72215  -0.029  10.710  10.298 -0.5688  0.1139  0.3094
  548MOL0     C72216  -0.174  10.733  10.354  0.1134  0.1333  0.7109
  548MOL0     C72217  -0.275  10.688  10.248  0.0204  0.2537  0.5468
  548MOL0     C72218  -0.405  10.656  10.317  0.3945 -0.7109 -0.1864
  548MOL0     C72219  -0.535  10.646  10.246 -0.0991  0.7594  0.5032
  548MOL0     C72220  -0.527  10.552  10.128  0.5315 -0.0187 -0.0791
  548MOL0     N72221  -0.661  10.510  10.072 -0.2728  0.1609 -0.0360
  548MOL0     C72222  -0.750  10.424  10.127  0.3450  0.4416 -0.1641
  548MOL0     C72223  -0.841  10.406  10.030  0.8501 -0.3159 -0.4437
  548MOL0     C72224  -0.964  10.317  10.053  0.5084 -0.0027  0.6154
  548MOL0     C72225  -1.063  10.320   9.938  0.1837  0.1346 -0.6162
  548MOL0     C72226  -1.127  10.458   9.934  0.5041  0.6559 -0.3394
  548MOL0     C72227  -1.243  10.475   9.839  0.4182  0.7877  0.1847
  548MOL0     O72228  -1.304  10.602   9.860  0.0230 -0.5897 -0.8662
  548MOL0     C72229  -1.403  10.626   9.772  0.1158 -0.5299  0.8616
  548MOL0     C72230  -1.400  10.744   9.708 -0.1592  0.4734 -0.0045
  548MOL0     C72231  -1.506  10.793   9.629 -0.6769  0.2438 -0.4091
  548MOL0     C72232  -1.623  10.711   9.613  0.4364  1.3604  0.3023
  548MOL0     C72233  -1.744  10.745   9.528  0.4544 -0.1519  0.4663
  548MOL0     O72234  -1.727  10.832   9.422  0.3976 -0.5922  0.2267
  548MOL0     C72235  -1.838  10.870   9.353 -0.2679  0.1433  0.2818
  548MOL0     C72236  -1.818  10.908   9.222  0.2891  0.7857  0.5983
  548MOL0     C72237  -1.921  10.961   9.140  0.3624 -0.3251  0.3548
  548MOL0     C72238  -2.051  10.983   9.194 -0.7045  1.2196  0.5758
  548MOL0     O72239  -2.135  11.046   9.112 -0.0098  0.9249 -0.6416
  548MOL0     C72240  -2.270  11.069   9.157  0.6831  0.2717  0.9197
  548MOL0     C72241  -2.344  11.067   9.030 -0.1764 -0.1121 -0.1226
  548MOL0     C72242  -2.492  11.079   9.065 -0.4204 -0.0511 -0.4945
  548MOL0     C72243  -2.564  11.054   8.939  0.1124 -0.0537  0.2972
  548MOL0     C72244  -2.717  11.055   8.954 -0.9801  0.6820 -0.1999
  548MOL0     C72245  -2.764  11.190   9.020  0.4313 -0.9229 -0.0123
  548MOL0     C72246  -2.917  11.212   9.002  0.7400  0.5793 -0.0971
  548MOL0     C72247  -2.987  11.176   9.137  0.7779 -0.1989  0.1036
  548MOL0    Cl72248  -3.162  11.181   9.112  0.5082  0.1813 -0.1827
  548MOL0     C72249  -2.062  10.958   9.329 -0.2882 -0.3364  0.4808
  548MOL0     C72250  -1.960  10.905   9.407  0.6481 -0.5200  0.7311
  548MOL0     O72251  -1.846  10.692   9.567 -0.5238 -0.0679  0.4026
  548MOL0     C72252  -1.627  10.584   9.680  0.1300 -0.3817  0.0487
  548MOL0     C72253  -1.522  10.550   9.764  1.0420 -0.1628  0.7771
  548MOL0     N72254  -0.794  10.458   9.915 -0.2868 -0.2286  0.0766
  548MOL0     N72255  -0.686  10.528   9.940  0.9242  0.4319  0.7198
  548MOL0     C72256   0.505  10.793  10.221 -1.0803  1.5329 -0.0552
  548MOL0     C72257   0.629  10.835  10.174 -0.3234 -0.0363  0.3660
  548MOL0     C72258   1.068  10.928  10.167 -0.5513 -0.3011 -0.5648
  548MOL0     C72259   1.167  10.850  10.109  0.5988  0.2964  0.0790
  548MOL0     C72260   1.280  10.909  10.064 -0.6400 -0.0326  0.3062
  548MOL0     C72261   1.311  11.045  10.071  0.1875 -0.5383 -0.3731
  548MOL0     O72262   1.432  11.090  10.018 -0.7190 -0.0093 -0.1148
  548MOL0     C72263   1.467  11.231  10.023  0.3729  0.3870 -1.6562
  548MOL0     C72264   1.601  11.261   9.958 -0.1953  0.1256  1.0593
  548MOL0     C72265   1.616  11.184   9.828  0.7544  0.0476  0.3262
  548MOL0     C72266   1.728  11.229   9.739 -0.2026 -0.2492 -0.1452
  548MOL0     C72267   1.710  11.369   9.684 -0.0605 -0.1851  0.1690
  548MOL0     C72268   1.693  11.478   9.648 -0.0158 -0.9166 -0.5063
  548MOL0     C72269   1.217  11.130  10.140  0.7931  0.0988 -0.2048
  548MOL0     C72270   1.095  11.072  10.181 -0.0154 -0.0392  0.6383
  548MOL0     H72271   0.724  11.007  10.450  1.7824  0.5068 -2.9519
  548MOL0     H72272   0.496  10.950  10.511  0.0574 -0.5095  0.5327
  548MOL0     H72273   0.238  10.671  10.251 -2.0039 -1.0746 -0.5320
  548MOL0     H72274   0.218  10.848  10.233  2.7478  0.2157 -0.3647
  548MOL0     H72275   0.068  10.839  10.445 -0.2230 -0.4513 -0.1401
  548MOL0     H72276   0.094  10.660  10.460  1.6795 -1.1780 -0.6548
  548MOL0     H72277  -0.022  10.603  10.277  1.2545  0.6890 -2.7522
  548MOL0     H72278  -0.020  10.768  10.205 -0.0764  2.0054  1.4831
  548MOL0     H72279  -0.188  10.673  10.444  0.9123 -1.8079 -0.3954
  548MOL0     H72280  -0.186  10.839  10.378 -0.5316  0.6221 -1.4828
  548MOL0     H72281  -0.244  10.610  10.179  1.2966 -0.6635  2.0753
  548MOL0     H72282  -0.280  10.777  10.185 -3.0112  0.9549  1.6032
  548MOL0     H72283  -0.412  10.744  10.382  3.8683 -0.3403 -0.1302
  548MOL0     H72284  -0.389  10.563  10.373 -1.3342  1.1619  3.7866
  548MOL0     H72285  -0.611  10.606  10.313 -1.6566 -0.0905 -1.6449
  548MOL0     H72286  -0.572  10.742  10.209  0.1134  1.6072  2.3727
  548MOL0     H72287  -0.487  10.455  10.158 -0.0265 -0.4291 -0.6376
  548MOL0     H72288  -0.461  10.589  10.049  0.7675 -1.7556 -0.7261
  548MOL0     H72289  -0.751  10.383  10.227  3.9653  1.3977  0.4032
  548MOL0     H72290  -1.021  10.352  10.140 -0.6204  1.2235 -0.5736
  548MOL0     H72291  -0.933  10.212  10.062 -1.4230 -0.8623 -1.7042
  548MOL0     H72292  -1.139  10.245   9.959  1.1221 -0.8527 -0.6435
  548MOL0     H72293  -1.018  10.291   9.842 -2.3268 -4.8048 -0.6291
  548MOL0     H72294  -1.169  10.478  10.033  0.4419 -0.4132 -0.1409
  548MOL0     H72295  -1.055  10.538   9.917  3.3121 -1.9952 -2.1063
  548MOL0     H72296  -1.315  10.395   9.858  0.7785 -0.0622 -1.8773
  548MOL0     H72297  -1.216  10.474   9.734 -3.0288  0.7578 -0.8453
  548MOL0     H72298  -1.306  10.798   9.711 -1.4773  2.9656 -0.5311
  548MOL0     H72299  -1.490  10.889   9.582 -1.0486  0.0320 -0.9756
  548MOL0     H72300  -1.725  10.878   9.173 -1.4798 -2.3996 -1.1326
  548MOL0     H72301  -1.910  10.990   9.036  0.4531  0.3092  0.5413
  548MOL0     H72302  -2.287  11.159   9.218 -0.2721 -1.0744  2.7471
  548MOL0     H72303  -2.315  10.988   9.215 -1.1465  2.0833  2.1947
  548MOL0     H72304  -2.331  10.972   8.976  1.3790 -0.4884  0.8304
  548MOL0     H72305  -2.307  11.150   8.969 -0.3056  0.6056  0.7528
  548MOL0     H72306  -2.518  11.175   9.109  0.8321 -0.2010  0.6448
  548MOL0     H72307  -2.506  11.002   9.142  2.2231  0.9272  1.1106
  548MOL0     H72308  -2.535  11.113   8.852 -0.5472  0.1604  0.2189
  548MOL0     H72309  -2.546  10.955   8.894 -1.8029  0.2417 -1.2753
  548MOL0     H72310  -2.751  10.975   9.021  0.5521 -1.0588 -1.4133
  548MOL0     H72311  -2.777  11.040   8.864  1.8761 -0.4782 -2.0649
  548MOL0     H72312  -2.726  11.271   8.957 -1.4609 -2.1417 -2.9819
  548MOL0     H72313  -2.727  11.210   9.121 -2.2530  0.5958  0.7936
  548MOL0     H72314  -2.932  11.319   8.990  1.3709  0.9118  1.6790
  548MOL0     H72315  -2.960  11.155   8.919 -1.5679  1.2120  0.5763
  548MOL0     H72316  -2.948  11.232   9.222  5.4793 -0.3839 -1.6483
  548MOL0     H72317  -2.976  11.068   9.154 -2.2404 -0.4208  1.2856
  548MOL0     H72318  -2.151  10.968   9.391  0.3011  0.9530  1.1772
  548MOL0     H72319  -1.979  10.904   9.514 -1.3609  2.1314  0.5030
  548MOL0     H72320  -1.715  10.522   9.664  0.3994 -0.5228 -0.9800
  548MOL0     H72321  -1.529  10.464   9.829  1.4776 -1.9563 -1.4089
  548MOL0     H72322   0.457  10.722  10.154  1.3034 -1.4020  1.1336
  548MOL0     H72323   0.666  10.802  10.078  1.1026 -1.1819  1.2703
  548MOL0     H72324   1.148  10.748  10.075  1.7533 -0.1759  0.8119
  548MOL0     H72325   1.355  10.844  10.021 -0.3789 -0.1698  0.9675
  548MOL0     H72326   1.477  11.255  10.130 -3.4333 -1.8237 -0.6330
  548MOL0     H72327   1.385  11.290   9.981  0.5823  0.7620 -1.5447
  548MOL0     H72328   1.602  11.368   9.937  1.7464 -0.4489 -2.6810
  548MOL0     H72329   1.685  11.238  10.024  1.1094 -0.5676 -0.7432
  548MOL0     H72330   1.523  11.189   9.771  0.5721 -1.0276  0.5122
  548MOL0     H72331   1.639  11.080   9.855  2.0724  0.5261  1.1680
  548MOL0     H72332   1.824  11.223   9.790 -0.0111 -1.7190 -0.6224
  548MOL0     H72333   1.735  11.161   9.653  0.4725  2.1072 -2.0411
  548MOL0     H72334   1.675  11.582   9.628  0.1847 -0.6315  0.6765
  548MOL0     H72335   1.232  11.238  10.143  0.9503  0.1352  3.8833
  548MOL0     H72336   1.025  11.144  10.222  0.0302 -0.7316  2.0137
  549MOL0     O72337  10.387   4.804   4.631  0.5544 -1.1234  0.4764
  549MOL0     C72338  10.441   4.780   4.739  1.0494 -0.7923 -0.7010
  549MOL0     O72339  10.382   4.758   4.855  0.3214  0.4644 -0.1186
  549MOL0     C72340  10.248   4.747   4.873 -0.1398  0.4516 -0.5271
  549MOL0     C72341  10.221   4.724   5.010 -0.0665  0.4256 -0.2385
  549MOL0     C72342  10.090   4.707   5.054  0.0429 -0.0963  0.1282
  549MOL0     C72343   9.984   4.706   4.964  0.2730  0.7536 -0.1027
  549MOL0     O72344   9.849   4.682   4.992 -0.0320  0.4385  0.0756
  549MOL0     C72345   9.806   4.716   5.130 -0.4960  1.0073 -0.1785
  549MOL0     C72346   9.659   4.738   5.126  0.6582 -1.0520  0.4896
  549MOL0     C72347   9.605   4.784   5.260 -0.7943 -1.1866  1.8637
  549MOL0     C72348   9.461   4.738   5.272 -0.0663 -0.3399 -0.4161
  549MOL0     C72349   9.375   4.810   5.170  0.4930  0.1797 -0.3450
  549MOL0     C72350   9.229   4.787   5.185 -0.0303  0.7688  0.3806
  549MOL0     C72351   9.175   4.850   5.317  1.0556 -0.7202 -0.0127
  549MOL0     C72352   9.025   4.831   5.321  0.4937  0.4160 -0.2442
  549MOL0     N72353   8.929   4.900   5.237 -0.1123 -0.3909 -0.6682
  549MOL0     C72354   8.926   5.033   5.216 -0.0498  0.1075 -0.0897
  549MOL0     C72355   8.843   5.051   5.120  0.3983 -0.1091  0.5628
  549MOL0     C72356   8.801   5.178   5.060 -0.0253  0.3948  0.3533
  549MOL0     C72357   8.757   5.295   5.155 -0.6876 -0.3062 -0.3759
  549MOL0     C72358   8.621   5.279   5.226  0.1883 -0.4246 -0.9203
  549MOL0     C72359   8.538   5.410   5.208 -0.1821  0.0433 -0.5732
  549MOL0     O72360   8.397   5.431   5.236 -0.0435  0.4589  0.0291
  549MOL0     C72361   8.342   5.459   5.360 -0.3382 -0.3153  1.0957
  549MOL0     C72362   8.422   5.467   5.475 -0.0373 -0.5596  0.1909
  549MOL0     C72363   8.360   5.495   5.598  0.4195  0.3367 -0.5715
  549MOL0     C72364   8.221   5.534   5.601  0.8912 -1.0377  0.2532
  549MOL0     C72365   8.168   5.564   5.732 -0.5019  0.5657  0.0738
  549MOL0     O72366   8.041   5.589   5.737  0.3909  0.3989  0.9576
  549MOL0     C72367   7.981   5.630   5.858  0.9717  0.3948  0.0110
  549MOL0     C72368   7.996   5.567   5.982  0.0461 -0.3291  0.4778
  549MOL0     C72369   7.915   5.604   6.090 -0.0632 -0.0925 -0.0078
  549MOL0     C72370   7.818   5.698   6.075  0.4188 -1.3484 -0.6141
  549MOL0     O72371   7.719   5.732   6.166  0.6446 -0.4408  0.2685
  549MOL0     C72372   7.731   5.689   6.304  0.6430 -0.3014 -0.1233
  549MOL0     C72373   7.610   5.749   6.379  0.4220  0.1176  0.0868
  549MOL0     C72374   7.485   5.654   6.396  1.0466  0.9670 -0.3912
  549MOL0     C72375   7.363   5.743   6.448 -0.2423  0.1208  0.4438
  549MOL0     C72376   7.222   5.667   6.448 -0.5715 -0.2465 -0.3906
  549MOL0     C72377   7.110   5.745   6.520 -0.4635  0.7217  0.2131
  549MOL0     C72378   7.087   5.887   6.455  0.4362  0.7106 -0.2905
  549MOL0     C72379   6.969   5.959   6.520  0.5636 -0.4007  0.1388
  549MOL0    Cl72380   6.956   6.124   6.472  0.1410 -0.0995 -0.1171
  549MOL0     C72381   7.811   5.774   5.957 -0.3716  0.4048  0.4010
  549MOL0     C72382   7.883   5.728   5.840 -0.0480 -0.2294 -0.3336
  549MOL0     O72383   8.244   5.578   5.827  0.1769  0.2685  0.4887
  549MOL0     C72384   8.151   5.552   5.485 -0.0901 -0.5871 -0.4689
  549MOL0     C72385   8.209   5.505   5.361 -0.2647 -1.0958  0.8768
  549MOL0     N72386   8.801   4.924   5.072 -0.3827  0.0732  0.7050
  549MOL0     N72387   8.850   4.838   5.157 -0.2087 -0.2864  0.4212
  549MOL0     C72388  10.015   4.715   4.829 -0.2260  0.1964  0.7547
  549MOL0     C72389  10.145   4.736   4.779  0.5282 -0.5810 -0.3954
  549MOL0     C72390  10.591   4.765   4.748  0.5645 -0.1254  0.0949
  549MOL0     C72391  10.661   4.755   4.621 -0.5264  0.0578  0.1110
  549MOL0     C72392  10.798   4.733   4.618  0.3739 -0.5445  0.8570
  549MOL0     C72393  10.870   4.708   4.734  0.0395 -0.4151 -0.1186
  549MOL0     O72394  11.004   4.680   4.731 -0.2548  0.3536 -0.1932
  549MOL0     C72395  11.087   4.670   4.841 -0.6765 -0.2703 -0.4154
  549MOL0     C72396  11.232   4.651   4.789 -0.0412 -0.0257  0.3654
  549MOL0     C72397  11.328   4.649   4.906  0.1253 -0.0055 -0.5378
  549MOL0     C72398  11.469   4.695   4.873 -0.0176  0.1540 -0.0046
  549MOL0     C72399  11.545   4.744   4.991  0.4387 -0.2974  0.9595
  549MOL0     C72400  11.619   4.787   5.076 -0.0482  0.3887  0.1658
  549MOL0     C72401  10.804   4.705   4.855  0.4023 -0.6156 -0.7965
  549MOL0     C72402  10.667   4.738   4.863 -0.5735 -0.6072  0.4028
  549MOL0     H72403  10.315   4.732   5.064  0.2421  0.6864 -0.8079
  549MOL0     H72404  10.074   4.676   5.157  3.0013 -0.4226  0.5908
  549MOL0     H72405   9.860   4.807   5.159  2.5279 -1.0874  1.2430
  549MOL0     H72406   9.832   4.637   5.201 -0.6898  0.1494 -1.0444
  549MOL0     H72407   9.609   4.647   5.093  0.0601 -1.1205  1.5660
  549MOL0     H72408   9.644   4.814   5.048  2.4680  0.2271  1.3064
  549MOL0     H72409   9.623   4.891   5.266  0.1652 -1.3655  2.4430
  549MOL0     H72410   9.659   4.733   5.340 -0.5254 -1.5388  1.4640
  549MOL0     H72411   9.453   4.631   5.254 -1.6365 -0.6770  1.9104
  549MOL0     H72412   9.438   4.757   5.377 -0.3058 -0.1949 -0.4930
  549MOL0     H72413   9.408   4.764   5.076  1.1083  2.1043 -1.1217
  549MOL0     H72414   9.395   4.917   5.180 -2.4132  0.5710  3.1848
  549MOL0     H72415   9.215   4.679   5.174 -0.5118  0.8005  0.6501
  549MOL0     H72416   9.180   4.833   5.098  0.3759  0.5469  0.0306
  549MOL0     H72417   9.221   4.810   5.408 -1.9977  1.3033  2.6498
  549MOL0     H72418   9.190   4.958   5.323 -3.3337  0.2514 -2.2122
  549MOL0     H72419   8.986   4.854   5.420  0.5007 -1.4969  0.2364
  549MOL0     H72420   9.021   4.722   5.321  3.6727  0.2246 -0.2009
  549MOL0     H72421   8.994   5.108   5.255  1.1249 -0.4026 -1.0605
  549MOL0     H72422   8.719   5.151   4.993 -0.1966  1.0752  0.2783
  549MOL0     H72423   8.880   5.197   4.987 -0.6733  0.7606 -0.2643
  549MOL0     H72424   8.753   5.380   5.087 -0.0266  1.1602  1.3244
  549MOL0     H72425   8.833   5.325   5.228 -1.9351  0.7986  0.5029
  549MOL0     H72426   8.568   5.189   5.192 -3.0166  1.1195 -0.4347
  549MOL0     H72427   8.640   5.266   5.333 -0.6758  1.1565 -0.5378
  549MOL0     H72428   8.525   5.441   5.104  0.6111  1.1811 -0.3465
  549MOL0     H72429   8.593   5.488   5.261  1.7931 -0.5039 -1.7249
  549MOL0     H72430   8.528   5.444   5.479  0.1508  0.3243  0.4974
  549MOL0     H72431   8.414   5.480   5.691  0.3339 -1.6605 -0.8014
  549MOL0     H72432   8.061   5.484   6.005 -0.0256 -0.8077 -0.9528
  549MOL0     H72433   7.930   5.545   6.180 -0.0259 -0.7423 -0.4330
  549MOL0     H72434   7.826   5.731   6.338  0.8403  0.6766 -1.7636
  549MOL0     H72435   7.731   5.580   6.310  1.0038 -0.3209 -0.4431
  549MOL0     H72436   7.580   5.845   6.334 -0.9609  0.3094  1.3242
  549MOL0     H72437   7.636   5.780   6.481 -1.2673  1.1033  0.2630
  549MOL0     H72438   7.502   5.562   6.454 -0.4521 -0.3397 -1.9307
  549MOL0     H72439   7.457   5.613   6.299 -1.0143 -0.8949  0.8863
  549MOL0     H72440   7.386   5.785   6.546  0.5659 -0.4069  0.4872
  549MOL0     H72441   7.357   5.823   6.373  1.4778  2.4624  2.6165
  549MOL0     H72442   7.227   5.574   6.506 -4.6401 -1.5243 -1.7697
  549MOL0     H72443   7.188   5.632   6.350  0.4925 -0.1670 -0.8089
  549MOL0     H72444   7.147   5.762   6.621 -0.4359  0.2645  0.2788
  549MOL0     H72445   7.018   5.686   6.528  0.9904 -1.4725  1.8265
  549MOL0     H72446   7.185   5.928   6.479  1.2924 -2.7189  2.9223
  549MOL0     H72447   7.089   5.882   6.345  1.1529  0.6407 -0.2796
  549MOL0     H72448   6.992   5.956   6.627  1.2768  2.1922  0.1334
  549MOL0     H72449   6.876   5.908   6.495 -0.1505  1.6049 -1.6370
  549MOL0     H72450   7.743   5.858   5.942 -0.3520  0.5948  1.3029
  549MOL0     H72451   7.879   5.762   5.737  2.8411  0.5356 -0.2922
  549MOL0     H72452   8.048   5.586   5.489  0.1846  0.1755  1.2851
  549MOL0     H72453   8.161   5.520   5.265  2.2929  0.4078 -0.2932
  549MOL0     H72454   9.938   4.701   4.754  2.2924  1.7680 -2.3478
  549MOL0     H72455  10.146   4.742   4.671 -2.0261 -1.6513 -0.5448
  549MOL0     H72456  10.608   4.774   4.528  0.7699  0.5884 -0.5374
  549MOL0     H72457  10.842   4.735   4.519 -2.4619 -0.8605 -0.5238
  549MOL0     H72458  11.073   4.586   4.909  3.1071 -1.3518 -0.7234
  549MOL0     H72459  11.075   4.762   4.900  0.3767 -0.9780  0.9605
  549MOL0     H72460  11.231   4.561   4.727  1.0882  0.0066  0.2820
  549MOL0     H72461  11.252   4.724   4.710 -1.5448 -1.1184 -1.0846
  549MOL0     H72462  11.342   4.545   4.939 -4.3077 -0.7519 -0.4997
  549MOL0     H72463  11.285   4.708   4.987 -0.0811  2.3504 -2.2711
  549MOL0     H72464  11.527   4.617   4.823 -0.4991  0.6719 -1.4008
  549MOL0     H72465  11.467   4.781   4.806  4.3245  1.7867  1.5726
  549MOL0     H72466  11.676   4.816   5.162 -0.1217  1.8653 -0.2536
  549MOL0     H72467  10.846   4.691   4.954  1.7029  1.6187 -0.9570
  549MOL0     H72468  10.631   4.715   4.963  0.9564 -0.0881  1.1026
  550MOL0     O72469   5.808   0.761   0.645  0.5093 -0.1674 -0.5587
  550MOL0     C72470   5.813   0.872   0.584 -0.7442  0.0114 -0.0656
  550MOL0     O72471   5.908   0.960   0.599 -0.0186 -0.5993 -0.4028
  550MOL0     C72472   6.030   0.921   0.641  1.0241 -0.2538 -0.2073
  550MOL0     C72473   6.144   0.923   0.561 -0.5449 -0.5056 -0.5054
  550MOL0     C72474   6.270   0.885   0.615  0.5348 -0.5111 -0.2709
  550MOL0     C72475   6.286   0.864   0.753 -0.0152  0.9635 -0.4934
  550MOL0     O72476   6.403   0.848   0.810 -0.2062 -0.2790 -0.5214
  550MOL0     C72477   6.523   0.837   0.731 -0.8284  0.0002  0.1154
  550MOL0     C72478   6.646   0.819   0.827 -0.2434 -0.4093 -0.0036
  550MOL0     C72479   6.675   0.951   0.889  0.3630  0.0575 -0.9004
  550MOL0     C72480   6.809   0.972   0.972  0.0215 -0.5660 -0.1765
  550MOL0     C72481   6.942   0.980   0.893  0.3495  0.5021 -0.0640
  550MOL0     C72482   7.062   1.029   0.969 -0.3984 -0.1593  0.6504
  550MOL0     C72483   7.107   0.931   1.077 -0.9886  0.2481 -0.1583
  550MOL0     C72484   7.168   0.809   1.001  0.3665  0.9843  0.3340
  550MOL0     N72485   7.237   0.725   1.102 -0.0994  0.1102 -0.2434
  550MOL0     C72486   7.165   0.641   1.192 -0.8775 -0.4289 -0.5441
  550MOL0     C72487   7.254   0.540   1.217  0.6448  0.0768 -0.0264
  550MOL0     C72488   7.220   0.415   1.301 -0.0712 -0.2802 -0.4495
  550MOL0     C72489   7.093   0.435   1.391  0.1168  1.0979  0.2827
  550MOL0     C72490   7.068   0.313   1.478 -0.3142 -0.3824  0.3118
  550MOL0     C72491   6.946   0.335   1.574  0.3186 -0.2096 -0.6863
  550MOL0     O72492   6.819   0.358   1.514  0.2017  0.7467 -0.6052
  550MOL0     C72493   6.704   0.359   1.588 -0.5027  0.5111  0.7864
  550MOL0     C72494   6.694   0.298   1.719  0.7297  0.4162 -0.2279
  550MOL0     C72495   6.565   0.297   1.783 -0.9294 -0.6029  0.0579
  550MOL0     C72496   6.449   0.347   1.720 -0.1829 -0.4725 -0.0905
  550MOL0     C72497   6.319   0.344   1.788 -0.3651 -0.6391  0.1141
  550MOL0     O72498   6.211   0.413   1.723 -0.2453 -0.0984  0.4820
  550MOL0     C72499   6.096   0.451   1.791 -0.5215  0.3270 -0.2108
  550MOL0     C72500   5.991   0.463   1.703 -0.7638 -0.1063  0.2334
  550MOL0     C72501   5.867   0.505   1.759  0.6271  0.7151 -0.6545
  550MOL0     C72502   5.853   0.524   1.896 -0.7084  0.1735 -0.4468
  550MOL0     O72503   5.729   0.567   1.937 -0.6958 -0.1211 -0.1173
  550MOL0     C72504   5.674   0.492   2.049 -0.6315 -0.6683  0.5158
  550MOL0     C72505   5.521   0.486   2.034 -0.2651  1.3163 -0.7279
  550MOL0     C72506   5.456   0.438   2.168  0.4015 -0.6525  0.4009
  550MOL0     C72507   5.461   0.287   2.187  0.1094  0.2811 -0.0424
  550MOL0     C72508   5.393   0.245   2.321 -0.0936 -0.0502  0.2154
  550MOL0     C72509   5.236   0.230   2.301 -0.7558  0.1678 -0.2247
  550MOL0     C72510   5.168   0.129   2.394 -0.0281  0.3995 -0.5478
  550MOL0     C72511   5.208  -0.019   2.350 -0.5795  0.2332  0.6123
  550MOL0    Cl72512   5.100  -0.146   2.420  0.0222 -0.0161 -0.3635
  550MOL0     C72513   5.966   0.516   1.978 -0.3829 -0.5508  0.2733
  550MOL0     C72514   6.090   0.484   1.927 -0.4361 -1.0107  0.0322
  550MOL0     O72515   6.304   0.280   1.897 -0.6091 -0.7673  0.4283
  550MOL0     C72516   6.467   0.412   1.589  0.5174  0.3064  0.8315
  550MOL0     C72517   6.586   0.410   1.522  0.1220 -0.4923 -0.0526
  550MOL0     N72518   7.365   0.564   1.142  0.0993  0.2243 -0.3947
  550MOL0     N72519   7.355   0.674   1.078  0.3692 -0.0441  0.8262
  550MOL0     C72520   6.173   0.863   0.840 -0.1401 -0.7470 -0.0325
  550MOL0     C72521   6.046   0.889   0.779 -0.6318  0.7374 -0.2302
  550MOL0     C72522   5.701   0.912   0.509 -0.3386 -0.7033  0.5486
  550MOL0     C72523   5.696   1.044   0.450  0.3473 -0.5288 -0.7795
  550MOL0     C72524   5.570   1.089   0.397  0.9556  0.1852  0.4860
  550MOL0     C72525   5.451   1.010   0.393  1.0803 -0.1088 -1.0169
  550MOL0     O72526   5.338   1.066   0.333  0.3747  0.3429  0.5478
  550MOL0     C72527   5.214   0.997   0.329  0.2449 -0.3392 -0.7138
  550MOL0     C72528   5.113   1.060   0.225  0.5085  0.3323  0.4638
  550MOL0     C72529   5.172   1.052   0.086 -0.2123 -0.1907  0.4413
  550MOL0     C72530   5.085   1.112  -0.022  0.0745 -0.2318 -0.1030
  550MOL0     C72531   4.955   1.048  -0.024  0.5882  0.0935 -0.2362
  550MOL0     C72532   4.846   0.986  -0.041  0.6060 -0.4165 -0.1949
  550MOL0     C72533   5.459   0.887   0.448 -0.5102 -0.0178  0.4620
  550MOL0     C72534   5.582   0.836   0.503  0.6677  0.0141 -0.2722
  550MOL0     H72535   6.143   0.957   0.458  1.1908  0.1231 -0.3516
  550MOL0     H72536   6.358   0.901   0.555  1.7443  1.6884  1.9016
  550MOL0     H72537   6.546   0.932   0.683  0.4415 -0.5695 -0.4769
  550MOL0     H72538   6.511   0.756   0.658 -3.0773 -1.2574  1.7633
  550MOL0     H72539   6.729   0.778   0.769  1.5799  0.9169  1.5747
  550MOL0     H72540   6.608   0.754   0.906  0.4785 -1.3269 -0.3985
  550MOL0     H72541   6.591   0.986   0.950  2.0067  2.4292  0.1506
  550MOL0     H72542   6.689   1.015   0.801  3.1586 -1.8828 -1.9865
  550MOL0     H72543   6.799   1.060   1.037 -0.4046  0.1646 -1.1981
  550MOL0     H72544   6.809   0.886   1.039 -1.1938 -3.5007 -3.6591
  550MOL0     H72545   6.932   1.052   0.811  2.8967  0.8885 -0.1152
  550MOL0     H72546   6.947   0.883   0.841 -0.1005  0.9126 -0.8824
  550MOL0     H72547   7.021   1.121   1.012 -2.0827 -1.0157  0.9607
  550MOL0     H72548   7.147   1.047   0.902 -0.7586 -0.1363  0.1981
  550MOL0     H72549   7.179   0.978   1.145 -1.3371 -1.0767  1.1588
  550MOL0     H72550   7.024   0.899   1.139 -1.0564 -0.8515 -0.7964
  550MOL0     H72551   7.238   0.850   0.927 -0.4094  1.2993 -0.2455
  550MOL0     H72552   7.091   0.753   0.948  0.0170  1.4045  0.3901
  550MOL0     H72553   7.065   0.659   1.231 -1.6098 -1.8412 -1.7148
  550MOL0     H72554   7.307   0.394   1.364  1.4549  1.6795 -1.7706
  550MOL0     H72555   7.197   0.325   1.243  1.2330 -1.7701  1.2494
  550MOL0     H72556   7.019   0.450   1.312 -0.5043 -3.3342 -0.2506
  550MOL0     H72557   7.101   0.529   1.446 -5.0156  2.1605 -0.2897
  550MOL0     H72558   7.025   0.243   1.406  2.8038 -0.0801 -2.0775
  550MOL0     H72559   7.159   0.283   1.531 -0.0678 -0.3852 -0.1117
  550MOL0     H72560   6.966   0.425   1.633 -2.0192 -0.5048  0.6904
  550MOL0     H72561   6.945   0.252   1.645  2.5010  1.3833  1.3521
  550MOL0     H72562   6.775   0.255   1.778  0.1161 -1.0861 -0.4382
  550MOL0     H72563   6.555   0.243   1.877  1.5663 -1.2018  0.0325
  550MOL0     H72564   6.012   0.439   1.599  1.4759 -0.8317  0.7906
  550MOL0     H72565   5.779   0.525   1.699 -0.3435  3.7528  1.5691
  550MOL0     H72566   5.698   0.549   2.139 -1.9211 -0.1237  0.5405
  550MOL0     H72567   5.729   0.398   2.064  0.5876 -0.1554 -0.5407
  550MOL0     H72568   5.487   0.430   1.947  1.0881  0.8176 -0.9623
  550MOL0     H72569   5.486   0.588   2.017 -0.2068  1.2687 -1.1554
  550MOL0     H72570   5.350   0.467   2.164  0.1014 -1.6666  0.5811
  550MOL0     H72571   5.501   0.488   2.255 -0.6068  0.7289  0.1611
  550MOL0     H72572   5.419   0.232   2.101 -1.4543  1.7203 -0.2620
  550MOL0     H72573   5.566   0.271   2.211  0.9794 -0.4393 -3.6385
  550MOL0     H72574   5.414   0.308   2.408 -1.0253  2.8001 -1.4857
  550MOL0     H72575   5.429   0.143   2.338  0.2324  0.0416  0.0667
  550MOL0     H72576   5.212   0.192   2.201 -1.3655 -1.9181  0.6451
  550MOL0     H72577   5.186   0.325   2.321 -2.6492 -0.9553  0.7674
  550MOL0     H72578   5.199   0.152   2.496  0.5047 -0.1514 -0.5834
  550MOL0     H72579   5.060   0.132   2.375 -1.4220  1.0145  5.4947
  550MOL0     H72580   5.309  -0.036   2.390 -0.5668 -2.0250 -0.2324
  550MOL0     H72581   5.209  -0.034   2.241 -1.4980 -2.5871  0.9118
  550MOL0     H72582   5.964   0.535   2.085  1.5492 -0.2806  0.2956
  550MOL0     H72583   6.184   0.488   1.981  0.3009 -2.6917 -1.0558
  550MOL0     H72584   6.383   0.451   1.532 -0.1501 -0.9549  0.9251
  550MOL0     H72585   6.591   0.462   1.426  3.9397 -1.0667 -0.3375
  550MOL0     H72586   6.181   0.848   0.947 -3.6732 -1.8304  0.1870
  550MOL0     H72587   5.961   0.892   0.847 -1.1683  0.8716 -0.8915
  550MOL0     H72588   5.781   1.111   0.456 -0.9941  1.3382 -1.6191
  550MOL0     H72589   5.550   1.190   0.363 -0.2811  0.3499  1.5998
  550MOL0     H72590   5.176   1.002   0.431  0.9961 -0.1390 -0.4378
  550MOL0     H72591   5.237   0.896   0.293  1.8150 -0.2269 -0.0783
  550MOL0     H72592   5.023   0.998   0.227  0.7794 -0.0877 -0.2471
  550MOL0     H72593   5.091   1.165   0.246  0.1194 -0.0955  2.4662
  550MOL0     H72594   5.198   0.950   0.057  3.2414  0.9299 -0.9490
  550MOL0     H72595   5.271   1.098   0.075  0.7233 -2.4176 -1.5753
  550MOL0     H72596   5.069   1.219  -0.000 -0.6377 -0.8670  2.9838
  550MOL0     H72597   5.129   1.097  -0.120 -1.3794 -1.4519 -0.6107
  550MOL0     H72598   4.766   0.914  -0.043  2.3861 -2.5541  0.8205
  550MOL0     H72599   5.380   0.813   0.434  0.0188 -0.0799 -3.0866
  550MOL0     H72600   5.579   0.742   0.557 -1.9531 -0.4040 -0.9879
  551MOL0     O72601   7.217   2.188  10.990  0.6094  0.0519  0.5939
  551MOL0     C72602   7.197   2.278  11.069 -0.4394  0.5238 -1.3181
  551MOL0     O72603   7.278   2.316  11.172  0.5453 -0.1370 -0.2722
  551MOL0     C72604   7.399   2.262  11.193 -0.0223 -0.3756 -0.1416
  551MOL0     C72605   7.497   2.348  11.230  0.0348 -0.1227 -0.2727
  551MOL0     C72606   7.619   2.304  11.269  0.6084  0.2415 -0.5385
  551MOL0     C72607   7.646   2.161  11.274 -0.3053  0.9470  0.4605
  551MOL0     O72608   7.780   2.125  11.317  0.0010 -0.0568 -0.1901
  551MOL0     C72609   7.832   1.990  11.290  0.0362 -0.8930  0.0637
  551MOL0     C72610   7.792   1.898  11.405 -0.3732  0.5559 -0.1391
  551MOL0     C72611   7.879   1.771  11.394 -0.2200  0.7328  0.1876
  551MOL0     C72612   7.797   1.650  11.420 -0.0463 -0.1163 -0.2536
  551MOL0     C72613   7.873   1.519  11.448 -0.7660  0.2140 -0.4509
  551MOL0     C72614   7.978   1.468  11.350  1.4445  0.3095  0.3250
  551MOL0     C72615   7.929   1.465  11.198  0.1474 -0.1492  1.3632
  551MOL0     C72616   8.039   1.393  11.123 -0.3706 -0.2388  0.8035
  551MOL0     N72617   8.020   1.372  10.980 -1.0970  0.1505  0.2375
  551MOL0     C72618   8.120   1.365  10.877 -0.2638 -0.2228  0.7360
  551MOL0     C72619   8.053   1.335  10.766 -0.3740 -0.7928  0.6665
  551MOL0     C72620   8.117   1.298  10.625 -0.4211 -0.2534 -0.3000
  551MOL0     C72621   8.169   1.416  10.555  0.1861 -0.2727 -0.4843
  551MOL0     C72622   8.077   1.550  10.567  0.8852  0.1118  0.0818
  551MOL0     C72623   8.145   1.677  10.507  1.0088 -0.3027  0.1729
  551MOL0     O72624   8.051   1.787  10.539 -0.7807  0.1103 -0.4719
  551MOL0     C72625   8.075   1.913  10.494 -1.2581 -0.1064  0.1592
  551MOL0     C72626   8.194   1.949  10.418  0.7708  0.8455  0.0840
  551MOL0     C72627   8.207   2.083  10.387 -1.0389 -0.1059 -0.2224
  551MOL0     C72628   8.117   2.182  10.419 -0.4676 -0.4713 -0.4107
  551MOL0     C72629   8.141   2.324  10.385 -0.7705 -0.2191  0.1153
  551MOL0     O72630   8.262   2.359  10.314  1.0858 -0.0256 -0.1651
  551MOL0     C72631   8.317   2.490  10.312 -0.5916 -0.4775 -0.3602
  551MOL0     C72632   8.391   2.526  10.201  0.1826 -0.5307  0.2392
  551MOL0     C72633   8.452   2.658  10.192  0.7708  0.5570  0.5023
  551MOL0     C72634   8.442   2.743  10.296 -0.3911  0.1961 -0.9668
  551MOL0     O72635   8.512   2.864  10.305 -0.4918 -0.2866 -0.2161
  551MOL0     C72636   8.625   2.899  10.221 -0.4170  0.3456  0.3139
  551MOL0     C72637   8.722   2.970  10.312  0.4959 -1.0419  0.3280
  551MOL0     C72638   8.660   3.099  10.364  0.3019 -0.2229  0.1428
  551MOL0     C72639   8.624   3.190  10.250 -0.6863 -0.1030  0.5821
  551MOL0     C72640   8.605   3.339  10.286 -0.7854  0.5888  0.2900
  551MOL0     C72641   8.507   3.365  10.399  0.0818  0.4312  0.1344
  551MOL0     C72642   8.490   3.515  10.414 -0.7435 -0.0512 -0.1453
  551MOL0     C72643   8.424   3.567  10.544 -0.4432 -0.2234 -0.3219
  551MOL0    Cl72644   8.274   3.480  10.589  0.2466 -0.0950  0.1926
  551MOL0     C72645   8.369   2.708  10.409  1.5190  0.0466 -0.4351
  551MOL0     C72646   8.311   2.584  10.416  0.4302  0.0086 -1.8439
  551MOL0     O72647   8.054   2.404  10.415  0.2999 -0.4387  0.6567
  551MOL0     C72648   8.004   2.141  10.493 -0.1015 -0.3494  0.6476
  551MOL0     C72649   7.989   2.011  10.533  0.0850 -0.5492 -0.4517
  551MOL0     N72650   7.913   1.327  10.793 -0.1954  0.0669  0.5925
  551MOL0     N72651   7.901   1.344  10.918 -0.2275 -0.6654  0.2965
  551MOL0     C72652   7.551   2.075  11.222 -1.0532  0.2466 -0.1517
  551MOL0     C72653   7.421   2.121  11.194  0.0362 -0.2375  0.2524
  551MOL0     C72654   7.069   2.356  11.051  0.0547 -0.0193 -0.6939
  551MOL0     C72655   7.011   2.373  10.926  0.0008  0.4305  0.5293
  551MOL0     C72656   6.886   2.444  10.911 -0.3706 -0.8222  0.0727
  551MOL0     C72657   6.824   2.489  11.026  0.8152  0.4881  0.1103
  551MOL0     O72658   6.698   2.552  11.036 -0.5599  0.4353  0.4547
  551MOL0     C72659   6.584   2.489  10.996 -0.9624  0.2291 -0.2999
  551MOL0     C72660   6.534   2.543  10.857 -0.6601 -0.1944  0.7513
  551MOL0     C72661   6.460   2.680  10.881  1.0830 -1.2786 -0.0073
  551MOL0     C72662   6.422   2.745  10.741 -0.4063 -0.2718  0.3821
  551MOL0     C72663   6.276   2.717  10.720 -0.4166 -0.0542  0.3508
  551MOL0     C72664   6.157   2.700  10.716  0.6439  0.3300 -0.6581
  551MOL0     C72665   6.882   2.475  11.150 -0.5062 -0.0408 -1.1832
  551MOL0     C72666   7.004   2.404  11.168  0.0590  0.4650  0.8041
  551MOL0     H72667   7.475   2.454  11.234  0.3719 -0.0839  1.1867
  551MOL0     H72668   7.700   2.366  11.305  1.2526 -1.3606  0.8588
  551MOL0     H72669   7.941   1.982  11.276  0.2400 -0.6592  1.4466
  551MOL0     H72670   7.790   1.965  11.192 -0.2232 -0.2725  0.0156
  551MOL0     H72671   7.686   1.882  11.385 -0.1075  1.5170 -2.5618
  551MOL0     H72672   7.806   1.953  11.500  0.9050  0.2033 -0.0973
  551MOL0     H72673   7.957   1.780  11.470  1.8568 -3.4107 -1.1134
  551MOL0     H72674   7.915   1.760  11.291 -0.4242  1.1031  0.0740
  551MOL0     H72675   7.732   1.670  11.506  0.2088 -1.7257  0.3513
  551MOL0     H72676   7.728   1.635  11.337  0.4063  0.0784 -0.6659
  551MOL0     H72677   7.803   1.435  11.456  2.2639 -2.4578  0.2410
  551MOL0     H72678   7.912   1.539  11.548 -3.2316  2.1671  0.1894
  551MOL0     H72679   7.996   1.367  11.388  0.9812  1.6329  4.7033
  551MOL0     H72680   8.072   1.522  11.361  1.5981  0.1324 -0.0978
  551MOL0     H72681   7.836   1.411  11.180 -0.2560  0.7109  0.8308
  551MOL0     H72682   7.908   1.564  11.157 -2.8732 -1.0188  0.5502
  551MOL0     H72683   8.067   1.295  11.162 -1.0253  0.1143  2.2466
  551MOL0     H72684   8.125   1.461  11.133 -0.4534  0.1197 -0.7179
  551MOL0     H72685   8.226   1.368  10.898  0.0484  1.6570 -0.8303
  551MOL0     H72686   8.039   1.253  10.564 -2.3648  0.3094  1.6437
  551MOL0     H72687   8.194   1.220  10.631 -0.5025 -0.6461 -3.0782
  551MOL0     H72688   8.193   1.398  10.449  1.9260  1.6840 -0.4844
  551MOL0     H72689   8.263   1.428  10.609 -0.8395  0.1997  1.2500
  551MOL0     H72690   7.992   1.512  10.510  1.4567 -0.5732 -0.3301
  551MOL0     H72691   8.047   1.570  10.671 -2.0283 -2.7041 -0.0633
  551MOL0     H72692   8.149   1.653  10.400 -3.0039 -1.6820  0.1698
  551MOL0     H72693   8.241   1.698  10.556 -0.6026 -0.0061  3.4588
  551MOL0     H72694   8.264   1.876  10.378 -0.4061  0.3149 -1.1261
  551MOL0     H72695   8.295   2.104  10.327 -0.8566 -2.5039 -0.8981
  551MOL0     H72696   8.395   2.454  10.120 -3.3315 -0.7139  0.0740
  551MOL0     H72697   8.512   2.689  10.107  1.4881 -3.2893 -0.6044
  551MOL0     H72698   8.593   2.947  10.128  2.1131 -0.9248 -1.3478
  551MOL0     H72699   8.679   2.811  10.184 -0.0184  0.4235  0.7015
  551MOL0     H72700   8.808   2.994  10.248  2.6060 -4.5845  1.5653
  551MOL0     H72701   8.749   2.898  10.389 -5.1820 -1.5130  2.3468
  551MOL0     H72702   8.728   3.147  10.435  0.9622 -3.1530  1.6484
  551MOL0     H72703   8.564   3.082  10.413 -0.7371  2.2375 -0.8818
  551MOL0     H72704   8.700   3.173  10.172  0.7882  0.0142  1.9315
  551MOL0     H72705   8.527   3.155  10.214 -1.7869  1.3263  2.0481
  551MOL0     H72706   8.556   3.372  10.194 -0.7262  0.6465  0.2797
  551MOL0     H72707   8.701   3.389  10.303  0.5083 -0.1421 -3.7131
  551MOL0     H72708   8.537   3.324  10.496 -1.2157 -2.5412 -0.5788
  551MOL0     H72709   8.408   3.340  10.359  0.6203 -0.6009 -0.6029
  551MOL0     H72710   8.589   3.560  10.405 -0.8771  0.7756  1.9033
  551MOL0     H72711   8.431   3.544  10.326  1.2332 -0.2448 -1.6020
  551MOL0     H72712   8.406   3.674  10.528 -0.6843 -0.1696  0.3099
  551MOL0     H72713   8.491   3.563  10.630  0.4082  3.6310 -0.5918
  551MOL0     H72714   8.363   2.776  10.493 -0.4954 -0.6787  0.0699
  551MOL0     H72715   8.265   2.557  10.511  0.6848  1.5751 -1.2474
  551MOL0     H72716   7.925   2.209  10.524  2.4000  2.5280  1.0722
  551MOL0     H72717   7.905   1.985  10.598 -0.1411 -1.2830 -1.0312
  551MOL0     H72718   7.572   1.968  11.213 -1.2905  0.2128 -0.2954
  551MOL0     H72719   7.349   2.049  11.156  0.4359 -0.5656  0.1045
  551MOL0     H72720   7.066   2.368  10.833  1.6373  1.7991  1.3614
  551MOL0     H72721   6.848   2.460  10.811  3.0896 -0.9869 -1.4021
  551MOL0     H72722   6.504   2.485  11.070  0.5606 -1.2901  1.3683
  551MOL0     H72723   6.618   2.386  10.980  2.3029  1.5154 -2.6642
  551MOL0     H72724   6.615   2.552  10.784 -3.5377 -0.6037 -2.7979
  551MOL0     H72725   6.465   2.474  10.807  2.6141 -1.7277 -2.0198
  551MOL0     H72726   6.526   2.754  10.928 -0.7457  0.5435 -0.1872
  551MOL0     H72727   6.367   2.658  10.934 -1.0048 -0.0772 -2.9257
  551MOL0     H72728   6.432   2.852  10.723 -0.7227 -0.0556  1.4121
  551MOL0     H72729   6.471   2.687  10.662 -0.9242 -1.8593  1.1707
  551MOL0     H72730   6.051   2.701  10.700  0.8062  1.8378 -1.7938
  551MOL0     H72731   6.835   2.521  11.236 -0.3747 -0.7601 -0.7179
  551MOL0     H72732   7.042   2.400  11.269 -1.2043  2.9027  1.4733
  552MOL0     O72733  10.341   2.207   2.905  0.3054  0.5184  0.0359
  552MOL0     C72734  10.302   2.114   2.833  0.4263 -0.0121  0.5282
  552MOL0     O72735  10.171   2.078   2.821  0.2436 -0.3803  0.0154
  552MOL0     C72736  10.073   2.111   2.917 -0.8582 -0.5930  0.2042
  552MOL0     C72737  10.096   2.168   3.049 -0.8020 -0.4160  0.4235
  552MOL0     C72738   9.992   2.197   3.136 -0.0825  0.4142 -0.1844
  552MOL0     C72739   9.863   2.182   3.099  0.2025  0.0853  0.2352
  552MOL0     O72740   9.765   2.227   3.186 -0.1409 -0.8422  0.6166
  552MOL0     C72741   9.626   2.204   3.158  0.0512  0.1922 -0.2520
  552MOL0     C72742   9.549   2.290   3.256  0.6757  0.1326 -0.7428
  552MOL0     C72743   9.413   2.225   3.266  0.7187  1.1433 -0.4050
  552MOL0     C72744   9.309   2.259   3.381 -0.1710 -0.3259  1.9632
  552MOL0     C72745   9.180   2.176   3.369 -0.1213 -0.2492 -0.0590
  552MOL0     C72746   9.081   2.182   3.489 -0.6265  0.0831 -0.1439
  552MOL0     C72747   8.941   2.130   3.465  0.6817  0.8676 -0.4015
  552MOL0     C72748   8.862   2.126   3.604  0.7223 -0.2532  0.1333
  552MOL0     N72749   8.729   2.064   3.602 -0.1577  0.1155  0.0828
  552MOL0     C72750   8.612   2.098   3.535 -0.9185 -0.8594 -0.5997
  552MOL0     C72751   8.531   1.987   3.539 -0.0975 -1.0860  0.7673
  552MOL0     C72752   8.401   1.966   3.474  0.3086 -0.6038 -0.2424
  552MOL0     C72753   8.298   2.069   3.529  0.5357 -0.4932  0.2742
  552MOL0     C72754   8.161   2.025   3.502  0.2551  0.4648 -0.3187
  552MOL0     C72755   8.047   2.116   3.548  0.5896 -0.6129  0.7086
  552MOL0     O72756   7.927   2.033   3.548 -0.4068  0.1834 -0.0059
  552MOL0     C72757   7.808   2.094   3.542  0.0302  0.2957  0.5507
  552MOL0     C72758   7.702   2.003   3.524  0.5611 -0.5446  0.1954
  552MOL0     C72759   7.571   2.045   3.481 -0.0471  0.3413 -0.2524
  552MOL0     C72760   7.546   2.177   3.457  0.1816  0.7259 -0.0659
  552MOL0     C72761   7.403   2.221   3.430 -0.3383 -0.8639  0.5101
  552MOL0     O72762   7.306   2.129   3.406 -1.0391  0.6128  0.4306
  552MOL0     C72763   7.169   2.146   3.373 -1.7081 -0.0125  0.0598
  552MOL0     C72764   7.120   2.083   3.261  1.4995 -0.2861 -0.3895
  552MOL0     C72765   6.981   2.092   3.240 -0.2484 -0.1592 -0.5374
  552MOL0     C72766   6.899   2.179   3.319  0.2067 -0.4533 -0.2837
  552MOL0     O72767   6.766   2.197   3.309 -0.5339  0.8026  0.2525
  552MOL0     C72768   6.689   2.099   3.254 -0.3597 -0.5508  0.0650
  552MOL0     C72769   6.542   2.126   3.292 -0.8948 -0.6313 -0.4746
  552MOL0     C72770   6.453   2.018   3.231 -0.3759  0.2083  1.0794
  552MOL0     C72771   6.302   2.027   3.254  0.9996  1.1120  0.0529
  552MOL0     C72772   6.230   2.140   3.176  1.4118  0.1196  0.3102
  552MOL0     C72773   6.082   2.129   3.208  0.4283 -0.4119  0.1561
  552MOL0     C72774   5.987   2.182   3.091 -0.4792 -0.4201 -0.2743
  552MOL0     C72775   5.848   2.227   3.148  0.7588 -0.8470  0.2919
  552MOL0    Cl72776   5.747   2.277   3.013 -0.1435 -0.1243 -0.3506
  552MOL0     C72777   6.957   2.259   3.420  0.5768  0.6575  1.2268
  552MOL0     C72778   7.097   2.246   3.441 -0.3655 -1.3103  0.2191
  552MOL0     O72779   7.389   2.338   3.442  0.9096 -0.1240  0.1019
  552MOL0     C72780   7.653   2.264   3.480 -0.1096  0.0253  0.0475
  552MOL0     C72781   7.781   2.231   3.531 -0.3424 -0.0429 -0.4630
  552MOL0     N72782   8.594   1.893   3.615  0.4301  0.2720 -0.4522
  552MOL0     N72783   8.709   1.936   3.649  0.4554 -0.8713  0.1771
  552MOL0     C72784   9.830   2.130   2.975 -0.3405  0.5880  0.8128
  552MOL0     C72785   9.937   2.091   2.888 -0.0856  0.0653  1.6764
  552MOL0     C72786  10.406   2.059   2.742  0.2514 -0.5502 -0.6447
  552MOL0     C72787  10.376   1.940   2.664 -0.3471  0.0823  0.3083
  552MOL0     C72788  10.464   1.897   2.564 -0.2201  1.0579  0.2597
  552MOL0     C72789  10.596   1.944   2.562 -0.4170  0.4965  0.1193
  552MOL0     O72790  10.697   1.872   2.501  0.0987  0.5521 -0.3453
  552MOL0     C72791  10.688   1.889   2.360  0.3812  0.0960  0.8070
  552MOL0     C72792  10.712   1.758   2.282 -0.1248  0.1926 -0.1723
  552MOL0     C72793  10.614   1.647   2.326  0.2380  0.1414  0.2402
  552MOL0     C72794  10.606   1.527   2.232  0.4142  0.2390 -0.0461
  552MOL0     C72795  10.723   1.461   2.183  0.0938  0.7238  1.2098
  552MOL0     C72796  10.816   1.406   2.129 -0.0226 -0.5467  0.1502
  552MOL0     C72797  10.629   2.052   2.646  0.8964 -0.8163  0.2844
  552MOL0     C72798  10.533   2.113   2.729  0.6494 -0.4110  0.5183
  552MOL0     H72799  10.196   2.179   3.088 -1.0793 -2.2593  1.8313
  552MOL0     H72800  10.021   2.253   3.225 -0.5373 -0.1695  0.3462
  552MOL0     H72801   9.614   2.096   3.172  1.1884  0.4442  4.5950
  552MOL0     H72802   9.603   2.234   3.056 -0.2769 -3.4624 -1.4111
  552MOL0     H72803   9.548   2.396   3.225  0.7428  0.2316 -0.4068
  552MOL0     H72804   9.597   2.288   3.354 -1.4968 -2.9355  0.4166
  552MOL0     H72805   9.427   2.117   3.279 -1.0565  0.7780 -1.1405
  552MOL0     H72806   9.374   2.237   3.164 -0.7627  0.3220  0.0460
  552MOL0     H72807   9.351   2.216   3.472 -0.5059 -3.9855  0.5451
  552MOL0     H72808   9.282   2.365   3.385 -1.2638 -0.5064  0.2548
  552MOL0     H72809   9.205   2.070   3.366  0.5209 -0.0804 -0.8583
  552MOL0     H72810   9.136   2.203   3.273  1.2777  1.0444 -0.3815
  552MOL0     H72811   9.056   2.287   3.508 -2.8295 -0.2460 -0.9314
  552MOL0     H72812   9.115   2.122   3.573 -0.0828 -0.1838 -0.5516
  552MOL0     H72813   8.887   2.196   3.397  0.3313  1.6530  0.6097
  552MOL0     H72814   8.938   2.025   3.435  0.7252  0.5297  0.7255
  552MOL0     H72815   8.842   2.229   3.634 -1.4170 -1.4073  3.0606
  552MOL0     H72816   8.932   2.092   3.681  0.9676  0.1906  0.1125
  552MOL0     H72817   8.598   2.194   3.486 -2.1791  0.6938  2.4742
  552MOL0     H72818   8.367   1.863   3.485 -3.6091  0.2061 -2.7282
  552MOL0     H72819   8.400   1.983   3.366  1.9678 -1.8822 -0.4969
  552MOL0     H72820   8.310   2.172   3.492  1.2026  0.2916  2.5270
  552MOL0     H72821   8.311   2.081   3.637  0.8237  1.2632  0.0798
  552MOL0     H72822   8.149   2.028   3.394 -0.4374  1.5758 -0.2267
  552MOL0     H72823   8.141   1.933   3.558 -0.1240  1.6636  1.6054
  552MOL0     H72824   8.033   2.202   3.481  3.7877  0.3737  1.1249
  552MOL0     H72825   8.069   2.173   3.639  0.2940  1.1726 -0.2895
  552MOL0     H72826   7.714   1.896   3.538  0.1797 -0.8318 -1.4453
  552MOL0     H72827   7.497   1.972   3.450 -1.0773  2.7762 -4.2072
  552MOL0     H72828   7.179   2.015   3.200  0.6714 -3.6677  2.2260
  552MOL0     H72829   6.926   2.043   3.160 -1.2469 -1.1648  0.7242
  552MOL0     H72830   6.721   2.007   3.303  0.7605 -1.0735 -1.5416
  552MOL0     H72831   6.695   2.087   3.145 -0.6361 -0.7845  0.0736
  552MOL0     H72832   6.515   2.221   3.246 -3.6063 -1.7503 -1.3802
  552MOL0     H72833   6.530   2.131   3.400 -0.0882  0.8501 -0.4396
  552MOL0     H72834   6.473   1.918   3.270 -1.3619 -0.1272  0.7617
  552MOL0     H72835   6.471   2.011   3.123 -2.3863 -1.9492  0.7991
  552MOL0     H72836   6.256   1.931   3.227 -1.4128  1.6654  1.7805
  552MOL0     H72837   6.290   2.046   3.361 -0.8059  2.1803 -0.2928
  552MOL0     H72838   6.226   2.110   3.071 -1.9736 -1.1176  0.6506
  552MOL0     H72839   6.274   2.240   3.184  0.9555  0.4530 -1.0449
  552MOL0     H72840   6.059   2.185   3.300 -1.9656 -1.3692  0.2228
  552MOL0     H72841   6.059   2.024   3.224  0.5593 -0.5151 -0.3359
  552MOL0     H72842   6.034   2.267   3.041  0.6642 -0.3211  0.9095
  552MOL0     H72843   5.978   2.099   3.020 -2.4356  0.2847 -0.9065
  552MOL0     H72844   5.862   2.309   3.219 -1.5379 -1.1884  1.2506
  552MOL0     H72845   5.795   2.145   3.199 -4.6737  1.4719 -0.9269
  552MOL0     H72846   6.892   2.326   3.474  2.3585  3.1340  0.5088
  552MOL0     H72847   7.137   2.298   3.527  1.1210  1.9421 -2.2208
  552MOL0     H72848   7.642   2.372   3.478 -0.4620  0.2084  4.1324
  552MOL0     H72849   7.856   2.307   3.551 -1.6069  0.7081  1.7139
  552MOL0     H72850   9.732   2.126   2.929 -0.4581 -0.7132  1.1430
  552MOL0     H72851   9.918   2.061   2.786  2.1277  3.3633  0.1064
  552MOL0     H72852  10.275   1.902   2.672 -1.3631  2.6928  0.8130
  552MOL0     H72853  10.447   1.800   2.517 -0.7000  0.7676  1.0118
  552MOL0     H72854  10.765   1.958   2.325  3.5006 -2.4375  2.1689
  552MOL0     H72855  10.594   1.933   2.327  0.8357  0.0215 -0.6300
  552MOL0     H72856  10.698   1.774   2.175  0.8316 -0.2367 -0.3775
  552MOL0     H72857  10.814   1.724   2.305  0.0144  1.6371  1.5377
  552MOL0     H72858  10.512   1.688   2.325  0.2485  0.2135 -1.4569
  552MOL0     H72859  10.629   1.615   2.429 -2.1270 -2.0329  0.0182
  552MOL0     H72860  10.530   1.456   2.267 -1.5257  2.3173  0.1633
  552MOL0     H72861  10.575   1.566   2.135  1.4939  1.1417 -0.0548
  552MOL0     H72862  10.895   1.351   2.081  0.0132 -0.9146  0.6262
  552MOL0     H72863  10.736   2.072   2.649  0.4001  2.4208 -0.4965
  552MOL0     H72864  10.562   2.196   2.792  5.0249 -1.0627 -0.3029
  553MOL0     O72865   5.668   0.063   5.209 -0.3069 -0.2272 -0.4068
  553MOL0     C72866   5.626   0.158   5.279  0.3555  1.3862  0.1351
  553MOL0     O72867   5.698   0.275   5.313 -0.0740  0.7838  0.0490
  553MOL0     C72868   5.832   0.277   5.277 -0.4714  0.1937 -0.4591
  553MOL0     C72869   5.926   0.302   5.378  0.8406 -1.0233  0.1062
  553MOL0     C72870   6.067   0.324   5.345  0.4055 -0.4139  0.4222
  553MOL0     C72871   6.099   0.317   5.207  0.4688  0.4580 -0.8332
  553MOL0     O72872   6.230   0.318   5.184 -0.2445 -0.3776  0.7016
  553MOL0     C72873   6.271   0.352   5.049  0.6379  0.5398 -0.2140
  553MOL0     C72874   6.414   0.409   5.069 -0.8325 -0.2593 -0.2470
  553MOL0     C72875   6.463   0.478   4.935  0.5858  0.1392 -0.4382
  553MOL0     C72876   6.606   0.535   4.946  0.0093  0.0587  0.0294
  553MOL0     C72877   6.617   0.633   5.076  0.1074  0.9800  0.2833
  553MOL0     C72878   6.761   0.694   5.088 -0.0878 -0.6367 -1.1437
  553MOL0     C72879   6.791   0.808   4.991 -0.4541 -0.1486 -0.5278
  553MOL0     C72880   6.938   0.851   5.005 -0.0065 -1.2749  0.5913
  553MOL0     N72881   6.975   0.926   5.124  0.2839  0.1487  0.5638
  553MOL0     C72882   6.922   1.048   5.163  0.3523 -0.1853  0.3832
  553MOL0     C72883   6.964   1.058   5.292  0.5380 -0.1049  0.2292
  553MOL0     C72884   6.957   1.179   5.386  1.0148  0.3922  0.5756
  553MOL0     C72885   6.821   1.225   5.419  0.0861 -0.3506 -0.3145
  553MOL0     C72886   6.762   1.139   5.536  0.1477  0.3392 -0.6003
  553MOL0     C72887   6.623   1.089   5.499 -0.1638  0.6717  0.2800
  553MOL0     O72888   6.553   1.203   5.472  0.5401 -0.3597 -0.8465
  553MOL0     C72889   6.434   1.202   5.398  0.2585  0.5605  0.1529
  553MOL0     C72890   6.360   1.084   5.383  0.4120  0.1769  0.2011
  553MOL0     C72891   6.240   1.079   5.320  0.4341  0.3726  1.1030
  553MOL0     C72892   6.197   1.196   5.258 -0.1696  1.0367 -0.8881
  553MOL0     C72893   6.070   1.200   5.190  0.0586 -0.4555  0.0545
  553MOL0     O72894   6.010   1.078   5.170 -0.2764 -0.1002  0.0241
  553MOL0     C72895   5.904   1.081   5.085  0.2864 -0.4935  0.4992
  553MOL0     C72896   5.924   1.096   4.942  0.1836 -0.2796  0.6342
  553MOL0     C72897   5.821   1.093   4.851  0.3334  0.6161 -0.5004
  553MOL0     C72898   5.693   1.062   4.903  0.0137 -0.4741 -0.2491
  553MOL0     O72899   5.597   1.056   4.809  0.0273 -0.1692 -0.3897
  553MOL0     C72900   5.476   0.989   4.847 -0.2528  0.9728  0.1508
  553MOL0     C72901   5.403   0.956   4.716  0.6458  1.1556 -0.6512
  553MOL0     C72902   5.475   0.864   4.620  0.8765  0.1000  0.4324
  553MOL0     C72903   5.486   0.723   4.665 -0.5004 -0.0451  0.5755
  553MOL0     C72904   5.364   0.637   4.678 -0.5693 -0.1571  0.3795
  553MOL0     C72905   5.263   0.636   4.556 -0.4013  0.3681 -0.0152
  553MOL0     C72906   5.149   0.533   4.547 -1.0783  0.3776 -0.2126
  553MOL0     C72907   5.056   0.565   4.425  1.0289  0.7005  0.0688
  553MOL0    Cl72908   5.139   0.601   4.270  0.0442  0.3771 -0.1484
  553MOL0     C72909   5.674   1.050   5.036  0.0717 -0.5646 -0.6980
  553MOL0     C72910   5.774   1.062   5.129 -1.3561 -0.6102  0.1826
  553MOL0     O72911   6.027   1.308   5.152 -0.8274  0.0220 -0.3709
  553MOL0     C72912   6.275   1.312   5.261 -0.3816  0.4877  0.0963
  553MOL0     C72913   6.396   1.312   5.332  0.4322 -1.0422 -0.3276
  553MOL0     N72914   7.046   0.941   5.320 -0.0354 -0.5119  0.5550
  553MOL0     N72915   7.054   0.870   5.221 -1.1116  0.8501  0.2437
  553MOL0     C72916   5.997   0.291   5.109 -0.7285 -0.1887 -0.4288
  553MOL0     C72917   5.868   0.278   5.146 -0.0701 -0.3103  0.5372
  553MOL0     C72918   5.482   0.157   5.304  0.3578  0.3143 -0.2674
  553MOL0     C72919   5.437   0.269   5.377  0.3221 -1.0699  0.3515
  553MOL0     C72920   5.303   0.287   5.398 -0.4749 -0.8021 -0.2979
  553MOL0     C72921   5.210   0.184   5.382  0.3336  0.0789  0.5012
  553MOL0     O72922   5.073   0.186   5.386  0.8470 -0.2804 -0.5897
  553MOL0     C72923   5.017   0.310   5.447  0.6955 -0.3590 -0.1569
  553MOL0     C72924   4.868   0.314   5.449  0.3523 -0.1971 -1.0981
  553MOL0     C72925   4.809   0.229   5.552 -0.1142 -0.7573  0.7311
  553MOL0     C72926   4.660   0.256   5.578  0.1492 -0.1498 -0.3686
  553MOL0     C72927   4.562   0.211   5.474 -0.3277 -0.6988  0.5323
  553MOL0     C72928   4.479   0.188   5.389  0.0706 -0.8608 -0.0078
  553MOL0     C72929   5.263   0.061   5.334  0.6408 -0.5657  0.6528
  553MOL0     C72930   5.392   0.049   5.278 -0.0718  0.3994 -0.5113
  553MOL0     H72931   5.888   0.306   5.480  0.2749 -0.6500 -0.1206
  553MOL0     H72932   6.137   0.350   5.424  1.0818  1.3716 -0.7044
  553MOL0     H72933   6.216   0.433   5.001  2.3057  0.6521 -2.0853
  553MOL0     H72934   6.258   0.263   4.987 -1.9642 -0.4726  1.6157
  553MOL0     H72935   6.482   0.325   5.086 -1.6712 -0.8265  0.4233
  553MOL0     H72936   6.417   0.476   5.155 -0.1090 -1.7261  0.9158
  553MOL0     H72937   6.404   0.569   4.920 -1.3010 -0.6833  1.4812
  553MOL0     H72938   6.457   0.410   4.850  1.6870 -0.3618 -0.1259
  553MOL0     H72939   6.666   0.445   4.961 -1.2860 -0.7903  0.2681
  553MOL0     H72940   6.631   0.588   4.854  0.3069  0.1233  0.1477
  553MOL0     H72941   6.589   0.582   5.169  1.5189  1.3083  0.9213
  553MOL0     H72942   6.551   0.720   5.076 -2.9025 -1.1599  0.2105
  553MOL0     H72943   6.837   0.615   5.080  0.4586 -0.4779  1.4915
  553MOL0     H72944   6.755   0.733   5.190  0.0558 -1.2726 -0.8889
  553MOL0     H72945   6.774   0.773   4.889  2.0632 -0.4739 -0.9052
  553MOL0     H72946   6.733   0.898   5.008  0.4117  0.0203  2.0594
  553MOL0     H72947   6.973   0.904   4.916  2.3162 -0.8720  1.6494
  553MOL0     H72948   6.998   0.760   5.014  2.2726 -0.3553 -3.1459
  553MOL0     H72949   6.870   1.133   5.121  1.9112  0.8733  0.4778
  553MOL0     H72950   7.009   1.258   5.333  2.0652  2.3100  4.1479
  553MOL0     H72951   7.010   1.168   5.481  3.4550  0.8014 -0.6585
  553MOL0     H72952   6.755   1.225   5.332  1.7234 -1.4426 -1.6329
  553MOL0     H72953   6.828   1.331   5.447 -1.6973 -0.1060 -0.6876
  553MOL0     H72954   6.822   1.054   5.572 -1.7853  0.6470  4.0111
  553MOL0     H72955   6.753   1.215   5.614 -0.1182  1.7766 -1.9621
  553MOL0     H72956   6.578   1.039   5.585  0.9322  1.7246  1.5127
  553MOL0     H72957   6.632   1.025   5.410  0.4165  1.6376 -0.3808
  553MOL0     H72958   6.388   0.995   5.439  2.1804  1.3748  1.3249
  553MOL0     H72959   6.181   0.990   5.304 -2.0002  2.0888 -0.1473
  553MOL0     H72960   6.026   1.116   4.912  0.6233 -1.7819  1.0289
  553MOL0     H72961   5.840   1.103   4.745  2.4721  0.8519 -0.1492
  553MOL0     H72962   5.416   1.047   4.918 -0.4076  2.6633 -1.2864
  553MOL0     H72963   5.498   0.892   4.893 -0.7049  0.8976  0.2118
  553MOL0     H72964   5.390   1.053   4.666  0.7739  1.0354 -0.9209
  553MOL0     H72965   5.301   0.922   4.733  0.5569  0.2540 -2.6341
  553MOL0     H72966   5.577   0.896   4.601 -0.1325  1.5363 -3.3625
  553MOL0     H72967   5.421   0.866   4.525  1.7775  1.6075 -0.0699
  553MOL0     H72968   5.562   0.677   4.600 -2.2598  0.7703 -2.1893
  553MOL0     H72969   5.529   0.737   4.765  1.0031 -0.6269  0.0375
  553MOL0     H72970   5.324   0.657   4.777  0.9454  0.4369  0.9081
  553MOL0     H72971   5.401   0.534   4.692 -0.8876 -0.2187  0.7890
  553MOL0     H72972   5.325   0.629   4.466  3.0826  0.3165  2.1950
  553MOL0     H72973   5.215   0.733   4.571  0.3069  0.7433 -0.1295
  553MOL0     H72974   5.187   0.431   4.540 -0.8525  0.5428 -1.7306
  553MOL0     H72975   5.089   0.546   4.638  2.2826 -1.5721  2.5091
  553MOL0     H72976   4.990   0.646   4.457  0.8317  0.6363 -0.1754
  553MOL0     H72977   5.001   0.473   4.408 -0.0579  0.9903  1.7712
  553MOL0     H72978   5.577   1.042   5.084 -0.4795 -0.2553 -1.7346
  553MOL0     H72979   5.757   1.052   5.236  0.6097  0.4920  0.6511
  553MOL0     H72980   6.241   1.404   5.215 -1.7111  0.1367  0.3496
  553MOL0     H72981   6.461   1.399   5.341  1.3349 -1.5679 -1.4211
  553MOL0     H72982   6.030   0.279   5.006  0.4371  0.4348 -0.1507
  553MOL0     H72983   5.802   0.259   5.062 -0.2216  0.1043  0.5615
  553MOL0     H72984   5.506   0.351   5.396  1.1402 -1.4970 -0.6424
  553MOL0     H72985   5.253   0.378   5.431 -1.6865 -1.3493 -0.5710
  553MOL0     H72986   5.063   0.392   5.391  1.0377 -2.2206 -2.8379
  553MOL0     H72987   5.054   0.316   5.549  1.2262 -0.0327 -0.3669
  553MOL0     H72988   4.821   0.411   5.466 -1.5443 -1.2181 -0.2993
  553MOL0     H72989   4.823   0.287   5.353 -0.6474 -0.4681 -0.5615
  553MOL0     H72990   4.863   0.254   5.643 -1.8235  6.0116  0.4405
  553MOL0     H72991   4.822   0.127   5.513 -0.0866  0.5076 -3.0354
  553MOL0     H72992   4.619   0.220   5.673 -2.1044  0.3612 -1.0778
  553MOL0     H72993   4.652   0.364   5.590  0.5741 -0.2135  0.5076
  553MOL0     H72994   4.403   0.178   5.314 -0.4567  0.5918  0.3044
  553MOL0     H72995   5.187  -0.013   5.313 -0.5426  0.7913 -0.0797
  553MOL0     H72996   5.414  -0.044   5.226  0.0351 -0.0219  0.2788
  554MOL0     O72997   2.980   7.684  11.050  0.2495  0.3035  0.5652
  554MOL0     C72998   3.005   7.781  10.984  0.5188 -1.0169 -0.4352
  554MOL0     O72999   2.930   7.892  10.980 -0.4553 -0.2155  0.3265
  554MOL0     C73000   2.805   7.908  11.024  0.1091  0.3423 -0.1458
  554MOL0     C73001   2.774   7.870  11.159  0.2022  0.6427  0.0405
  554MOL0     C73002   2.649   7.891  11.205  0.3299  0.2781 -0.6016
  554MOL0     C73003   2.558   7.974  11.141  0.8698  1.2056 -0.0662
  554MOL0     O73004   2.437   7.987  11.186  0.0918 -0.5788 -0.7416
  554MOL0     C73005   2.396   7.946  11.318  0.1456  0.3158  0.0361
  554MOL0     C73006   2.248   7.990  11.351  0.4361  0.3809  0.3792
  554MOL0     C73007   2.204   7.964  11.495 -0.3442  0.0307 -0.2743
  554MOL0     C73008   2.059   8.018  11.505 -1.0961 -0.0672 -0.1112
  554MOL0     C73009   2.001   8.010  11.644  0.4494  1.2168  0.8230
  554MOL0     C73010   1.846   8.006  11.638 -0.4813 -0.8373 -0.2414
  554MOL0     C73011   1.794   7.993  11.780 -0.3082 -0.5894 -0.4444
  554MOL0     C73012   1.647   7.986  11.801  0.9007  0.1786 -0.7674
  554MOL0     N73013   1.583   8.100  11.870 -0.6367 -0.3786 -0.2215
  554MOL0     C73014   1.491   8.189  11.824 -0.1372  0.2390  0.5895
  554MOL0     C73015   1.442   8.252  11.940 -0.9776  0.9808 -0.0416
  554MOL0     C73016   1.317   8.338  11.947  1.2496  0.9716 -0.3010
  554MOL0     C73017   1.254   8.349  12.094 -0.0243 -0.1243  0.4132
  554MOL0     C73018   1.142   8.459  12.103 -0.6557  1.2290 -0.0643
  554MOL0     C73019   1.061   8.455  12.227  0.7126  0.7864 -0.0180
  554MOL0     O73020   0.972   8.563  12.218  0.1228 -0.4436 -0.3648
  554MOL0     C73021   0.850   8.558  12.283  0.5149 -0.0953  0.8600
  554MOL0     C73022   0.772   8.671  12.269  0.1072 -1.0505 -0.1336
  554MOL0     C73023   0.636   8.679  12.305 -0.6004  0.3597  0.2216
  554MOL0     C73024   0.578   8.570  12.378 -0.2922  0.0527  0.9744
  554MOL0     C73025   0.438   8.570  12.428  0.1753  0.0034  0.3486
  554MOL0     O73026   0.401   8.481  12.528 -0.2439  0.3427  0.5955
  554MOL0     C73027   0.270   8.469  12.586  0.6509 -0.3304  0.3169
  554MOL0     C73028   0.216   8.340  12.595 -0.0471  0.6105 -1.0810
  554MOL0     C73029   0.090   8.312  12.648 -0.7895  0.6365 -0.3769
  554MOL0     C73030   0.012   8.425  12.686  0.7842  0.2459 -0.0076
  554MOL0     O73031  -0.124   8.423  12.725 -0.2100  0.1161 -0.6726
  554MOL0     C73032  -0.179   8.299  12.781 -0.0923  0.3391  0.1826
  554MOL0     C73033  -0.304   8.335  12.857 -0.1726  0.5280 -0.1464
  554MOL0     C73034  -0.416   8.402  12.780  0.0044 -0.5730  0.6226
  554MOL0     C73035  -0.505   8.487  12.868  0.5869  0.3989  0.6087
  554MOL0     C73036  -0.635   8.504  12.804 -0.2207  0.0512  0.3965
  554MOL0     C73037  -0.720   8.616  12.869  0.1814 -0.3488  0.8739
  554MOL0     C73038  -0.852   8.622  12.795 -0.2664 -0.0195  0.2282
  554MOL0     C73039  -0.966   8.683  12.882  0.2963 -0.1913 -0.8195
  554MOL0    Cl73040  -0.911   8.839  12.962  0.1893  0.3593 -0.4143
  554MOL0     C73041   0.063   8.550  12.667 -0.3183  0.1426  0.1771
  554MOL0     C73042   0.190   8.575  12.617  0.4074 -0.0230  0.6166
  554MOL0     O73043   0.360   8.655  12.388 -0.2042 -0.1406 -0.0012
  554MOL0     C73044   0.671   8.467  12.418 -0.5751 -0.5373 -0.1047
  554MOL0     C73045   0.803   8.462  12.366 -0.5943 -0.5140  0.4190
  554MOL0     N73046   1.518   8.208  12.050 -0.1338  0.3236  0.3542
  554MOL0     N73047   1.593   8.111  12.008 -0.8965 -0.0089  0.2741
  554MOL0     C73048   2.589   8.025  11.020 -1.1100  0.7365  0.0681
  554MOL0     C73049   2.718   7.991  10.961 -0.3483  0.2095 -0.2624
  554MOL0     C73050   3.139   7.798  10.926 -0.3496  0.0735  0.1888
  554MOL0     C73051   3.188   7.914  10.870 -0.4722  0.1450  0.6169
  554MOL0     C73052   3.314   7.910  10.806  0.8083  0.1842  0.1312
  554MOL0     C73053   3.385   7.788  10.788  0.7367 -1.1872  0.4663
  554MOL0     O73054   3.508   7.798  10.729 -0.2196  0.4859 -0.2385
  554MOL0     C73055   3.621   7.765  10.812 -0.5907 -0.1711  0.4478
  554MOL0     C73056   3.751   7.800  10.748 -0.1358  0.4278  0.1177
  554MOL0     C73057   3.864   7.782  10.839 -0.6083  0.7643  0.4684
  554MOL0     C73058   4.001   7.812  10.766  0.6547 -0.2458 -0.1486
  554MOL0     C73059   4.118   7.789  10.853  0.3099 -0.6422 -0.2275
  554MOL0     C73060   4.217   7.777  10.920 -0.1245  0.4581  0.5701
  554MOL0     C73061   3.339   7.677  10.838 -0.1221  0.1357 -0.6780
  554MOL0     C73062   3.221   7.678  10.913  0.6905 -0.7814  0.2264
  554MOL0     H73063   2.849   7.810  11.210  0.4506 -0.1793 -1.2389
  554MOL0     H73064   2.613   7.847  11.297  0.4357 -0.4232 -0.8830
  554MOL0     H73065   2.460   7.991  11.394 -1.2649  1.0617  0.8166
  554MOL0     H73066   2.409   7.838  11.328  2.9106  0.5278 -0.3958
  554MOL0     H73067   2.196   7.922  11.283  1.1597 -0.1560  0.3535
  554MOL0     H73068   2.245   8.097  11.332 -1.6771 -0.0486 -2.2777
  554MOL0     H73069   2.280   8.002  11.565 -1.7436 -0.6372  1.7029
  554MOL0     H73070   2.212   7.856  11.512  4.5324 -0.0260 -1.3719
  554MOL0     H73071   2.059   8.127  11.490  1.1719  0.1183  0.8389
  554MOL0     H73072   1.991   7.969  11.435 -0.5878 -0.8161 -0.0856
  554MOL0     H73073   2.036   8.089  11.711  1.8993  2.0118 -0.7835
  554MOL0     H73074   2.032   7.914  11.688 -2.6614  1.3510  3.6720
  554MOL0     H73075   1.807   7.921  11.582  1.1526 -1.3734 -0.6297
  554MOL0     H73076   1.807   8.101  11.600 -0.8564  0.6543  3.4435
  554MOL0     H73077   1.840   7.904  11.824  0.3098 -0.1941 -0.2769
  554MOL0     H73078   1.837   8.082  11.827 -1.3123 -0.5494  0.4365
  554MOL0     H73079   1.632   7.907  11.874  1.0154 -0.1735 -1.1242
  554MOL0     H73080   1.594   7.955  11.711  0.4377 -1.3186 -0.0046
  554MOL0     H73081   1.464   8.190  11.719  3.0066 -0.5733 -0.3592
  554MOL0     H73082   1.233   8.297  11.891  2.3631 -0.5695 -0.9199
  554MOL0     H73083   1.332   8.441  11.914 -1.4447  1.2221 -0.9551
  554MOL0     H73084   1.328   8.378  12.169 -0.3128 -3.8796  2.4125
  554MOL0     H73085   1.216   8.256  12.138  0.2311 -0.2416  0.3867
  554MOL0     H73086   1.194   8.555  12.091 -3.7285  3.0789  0.5112
  554MOL0     H73087   1.066   8.448  12.025 -2.4463  1.9397  1.5080
  554MOL0     H73088   1.124   8.452  12.317 -0.8209 -0.1949  1.0702
  554MOL0     H73089   1.009   8.359  12.227  0.9034  0.5587  3.4862
  554MOL0     H73090   0.811   8.745  12.200 -0.6830 -1.9303 -1.5868
  554MOL0     H73091   0.567   8.759  12.278 -0.7537  1.2767  3.0266
  554MOL0     H73092   0.272   8.254  12.558  1.3738  0.9662  0.1503
  554MOL0     H73093   0.058   8.209  12.661  0.7892 -0.0643 -1.7058
  554MOL0     H73094  -0.108   8.250  12.850 -0.3101 -1.3162 -0.6988
  554MOL0     H73095  -0.200   8.212  12.718  2.6473 -2.2793  2.5423
  554MOL0     H73096  -0.277   8.404  12.937 -0.7443  0.8356 -0.2138
  554MOL0     H73097  -0.342   8.241  12.898 -3.5856  2.3060  1.1894
  554MOL0     H73098  -0.473   8.320  12.736 -1.9974 -0.1639  2.3007
  554MOL0     H73099  -0.373   8.468  12.704  2.3271  1.7080  3.6604
  554MOL0     H73100  -0.515   8.441  12.967  1.0694  0.0150  0.4861
  554MOL0     H73101  -0.463   8.586  12.889 -0.1587  0.8312  0.0909
  554MOL0     H73102  -0.689   8.414  12.834 -0.2178  1.0877  4.0124
  554MOL0     H73103  -0.628   8.528  12.697  0.4556 -0.0571  0.4144
  554MOL0     H73104  -0.672   8.711  12.844 -1.7831  0.8559  1.4664
  554MOL0     H73105  -0.735   8.600  12.976  0.7825  0.9579  1.1648
  554MOL0     H73106  -0.839   8.683  12.705  0.4866  2.2958  1.8137
  554MOL0     H73107  -0.890   8.527  12.756 -1.1301  0.5676 -0.3847
  554MOL0     H73108  -0.992   8.610  12.958  2.5949  1.5781  1.8574
  554MOL0     H73109  -1.057   8.709  12.826 -0.9228 -0.3702  1.0061
  554MOL0     H73110  -0.001   8.633  12.692  1.0433  1.3319 -0.1792
  554MOL0     H73111   0.211   8.682  12.617  2.0975 -0.2092  3.5899
  554MOL0     H73112   0.640   8.384  12.481  0.0421 -2.0450 -1.6886
  554MOL0     H73113   0.860   8.376  12.400  0.7287  1.2194  2.9730
  554MOL0     H73114   2.518   8.077  10.957 -1.4775 -0.7958 -0.8495
  554MOL0     H73115   2.731   8.019  10.857 -2.1978 -0.1674 -0.6341
  554MOL0     H73116   3.129   8.005  10.864 -1.3424 -0.4584 -0.4334
  554MOL0     H73117   3.356   8.003  10.768 -0.7596 -0.3716 -3.3196
  554MOL0     H73118   3.624   7.661  10.847  3.2753 -1.8497 -3.8382
  554MOL0     H73119   3.613   7.815  10.909  0.2569 -0.4688  0.6836
  554MOL0     H73120   3.774   7.739  10.660 -0.6683  2.3830 -1.4464
  554MOL0     H73121   3.752   7.903  10.712  0.6469  0.3649 -0.0553
  554MOL0     H73122   3.870   7.679  10.875  0.8064 -0.0673 -1.8619
  554MOL0     H73123   3.862   7.846  10.927  1.8183  0.8578  0.5276
  554MOL0     H73124   3.999   7.742  10.682 -3.3814 -1.0604  0.4074
  554MOL0     H73125   3.998   7.914  10.728 -1.7930  0.3283  1.3800
  554MOL0     H73126   4.316   7.758  10.958  0.7885 -1.1394 -2.2991
  554MOL0     H73127   3.381   7.577  10.849 -1.3473 -0.2651  0.7122
  554MOL0     H73128   3.194   7.585  10.961 -0.4452 -0.3834  0.3877
  555MOL0     O73129   1.716   3.739   8.326  0.2953 -0.7822  0.4006
  555MOL0     C73130   1.730   3.726   8.204  0.2484  0.2785  0.1454
  555MOL0     O73131   1.638   3.768   8.110  0.5874  0.0337  0.4520
  555MOL0     C73132   1.520   3.829   8.143 -0.9114  0.5148 -0.2049
  555MOL0     C73133   1.506   3.968   8.177 -0.0124 -0.6603 -0.1893
  555MOL0     C73134   1.366   4.015   8.190 -0.2582 -0.7043 -0.6941
  555MOL0     C73135   1.259   3.930   8.174  0.9990 -0.7276 -0.3131
  555MOL0     O73136   1.135   3.997   8.182 -0.7670 -0.3246  0.4071
  555MOL0     C73137   1.009   3.931   8.144  1.1298 -0.5225 -0.5586
  555MOL0     C73138   0.887   4.014   8.117 -0.1999  0.0788  0.0991
  555MOL0     C73139   0.756   3.938   8.137  0.6116  0.4654 -0.2532
  555MOL0     C73140   0.639   4.030   8.114 -0.2278  0.0005  0.0222
  555MOL0     C73141   0.497   3.977   8.143 -0.0596 -0.6414  0.1354
  555MOL0     C73142   0.395   4.080   8.139  0.0272  0.0752  0.9232
  555MOL0     C73143   0.247   4.021   8.157  0.3401 -0.3808 -0.7003
  555MOL0     C73144   0.154   4.145   8.169  0.9536  0.3854  0.9208
  555MOL0     N73145   0.015   4.101   8.187  0.4181  0.2788 -0.0885
  555MOL0     C73146  -0.081   4.147   8.275  0.2743  0.5421 -0.1061
  555MOL0     C73147  -0.202   4.095   8.242  0.1593  0.8998  0.0242
  555MOL0     C73148  -0.338   4.117   8.305  0.2616 -0.4449 -1.0789
  555MOL0     C73149  -0.374   3.993   8.390  0.3823  0.4810 -0.2007
  555MOL0     C73150  -0.498   4.017   8.470 -0.8095 -0.4606 -0.2880
  555MOL0     C73151  -0.611   4.094   8.404 -0.0682 -0.4135 -0.4898
  555MOL0     O73152  -0.700   4.149   8.501  0.2585 -0.0083  0.2848
  555MOL0     C73153  -0.828   4.187   8.471  0.3142  0.2169 -0.0248
  555MOL0     C73154  -0.859   4.261   8.349 -0.0609  0.5117 -0.6838
  555MOL0     C73155  -0.996   4.290   8.329 -0.5228  0.0062  0.3643
  555MOL0     C73156  -1.095   4.255   8.416 -0.2102 -0.8334  0.1456
  555MOL0     C73157  -1.239   4.283   8.383  0.2409  0.1368  0.4690
  555MOL0     O73158  -1.339   4.200   8.435  0.0375  0.6748  0.0113
  555MOL0     C73159  -1.469   4.219   8.388  0.1947  0.2542 -0.0182
  555MOL0     C73160  -1.493   4.167   8.261  0.1026  0.0232  0.4656
  555MOL0     C73161  -1.624   4.159   8.207 -0.1612  0.2896  0.1640
  555MOL0     C73162  -1.735   4.195   8.289 -1.2979  1.2483 -0.0957
  555MOL0     O73163  -1.859   4.158   8.251 -0.4159  0.2162  0.6271
  555MOL0     C73164  -1.967   4.244   8.269  0.4259 -0.0385 -0.2492
  555MOL0     C73165  -2.098   4.164   8.239 -1.0653 -0.5888  0.1471
  555MOL0     C73166  -2.218   4.251   8.231  0.0654  0.2221  0.2284
  555MOL0     C73167  -2.335   4.164   8.203  0.9708  0.2204  0.2192
  555MOL0     C73168  -2.460   4.250   8.180 -0.6737  0.4120 -0.3474
  555MOL0     C73169  -2.577   4.156   8.171 -0.1747  0.3215  1.0163
  555MOL0     C73170  -2.710   4.242   8.166 -0.2627  1.4454  0.1007
  555MOL0     C73171  -2.826   4.147   8.132 -0.2786  1.4598  0.4116
  555MOL0    Cl73172  -2.944   4.149   8.264 -0.1916  0.3349  0.0324
  555MOL0     C73173  -1.704   4.249   8.414  0.7465 -0.8824 -0.5547
  555MOL0     C73174  -1.575   4.259   8.467 -0.0540 -0.2218 -0.1674
  555MOL0     O73175  -1.270   4.379   8.315  0.1502  0.6294 -0.0510
  555MOL0     C73176  -1.066   4.191   8.530  0.5251  0.2442  0.8047
  555MOL0     C73177  -0.931   4.164   8.558 -0.2950 -0.0115  0.7022
  555MOL0     N73178  -0.179   4.012   8.127 -0.7966 -0.0090 -0.8503
  555MOL0     N73179  -0.048   4.023   8.097  0.7832  0.6524  0.4279
  555MOL0     C73180   1.275   3.800   8.145 -0.2328  0.0797 -0.8666
  555MOL0     C73181   1.406   3.751   8.131 -0.3446 -0.4741 -0.2283
  555MOL0     C73182   1.858   3.663   8.172 -1.1806 -0.8510 -0.1878
  555MOL0     C73183   1.892   3.651   8.043  0.3288 -0.0643  0.4984
  555MOL0     C73184   2.027   3.623   8.001 -0.1478 -0.5903  0.3193
  555MOL0     C73185   2.122   3.606   8.094 -0.2739  0.5615 -0.6355
  555MOL0     O73186   2.246   3.595   8.035 -0.9772 -0.3738  0.0807
  555MOL0     C73187   2.359   3.603   8.118 -0.3933 -0.2198 -0.5438
  555MOL0     C73188   2.492   3.572   8.047  0.6230  0.5858  0.2481
  555MOL0     C73189   2.512   3.670   7.932 -0.2640  0.6230  0.5597
  555MOL0     C73190   2.640   3.640   7.841 -0.0979 -0.2510  0.4087
  555MOL0     C73191   2.777   3.627   7.895 -0.3719  0.5262  0.0465
  555MOL0     C73192   2.893   3.625   7.928 -0.3043  0.6658 -0.4247
  555MOL0     C73193   2.083   3.599   8.226  0.2548  0.1149 -0.4424
  555MOL0     C73194   1.951   3.630   8.263 -0.6877 -0.8314 -0.0017
  555MOL0     H73195   1.595   4.027   8.199 -0.2441 -0.0699 -0.8019
  555MOL0     H73196   1.343   4.121   8.194 -0.3866 -0.7417 -0.4501
  555MOL0     H73197   0.976   3.856   8.217 -1.3141 -1.4636 -2.4969
  555MOL0     H73198   1.018   3.877   8.049  1.3852 -1.3961 -0.0499
  555MOL0     H73199   0.889   4.050   8.014  0.0810 -1.4806 -0.4778
  555MOL0     H73200   0.885   4.092   8.193 -4.0613 -1.0612  1.3844
  555MOL0     H73201   0.750   3.879   8.229  0.1821  2.0228  0.7626
  555MOL0     H73202   0.742   3.857   8.065 -2.0343  0.8238 -0.2354
  555MOL0     H73203   0.645   4.113   8.185 -3.1745  0.6039 -0.3014
  555MOL0     H73204   0.639   4.071   8.012 -0.5335 -0.4138 -0.1470
  555MOL0     H73205   0.492   3.936   8.244 -0.2170 -2.1440 -0.4597
  555MOL0     H73206   0.480   3.891   8.078  1.0009 -1.2595  0.6397
  555MOL0     H73207   0.388   4.143   8.050 -4.2142  2.7373  2.7989
  555MOL0     H73208   0.410   4.143   8.227 -1.0018  0.5688  0.7648
  555MOL0     H73209   0.223   3.968   8.064  2.0766  0.7716 -1.8669
  555MOL0     H73210   0.232   3.968   8.252 -4.0650 -2.4628 -2.2964
  555MOL0     H73211   0.148   4.209   8.081  1.4292 -0.1640  0.4764
  555MOL0     H73212   0.190   4.219   8.242  2.9700 -1.5497  2.0226
  555MOL0     H73213  -0.051   4.218   8.351 -1.0013 -0.6923  1.6281
  555MOL0     H73214  -0.409   4.122   8.222 -1.4568 -1.9794  0.2147
  555MOL0     H73215  -0.337   4.211   8.363  2.3922 -0.7653 -0.4999
  555MOL0     H73216  -0.285   3.940   8.427 -0.8957 -1.5768  0.1127
  555MOL0     H73217  -0.406   3.923   8.312 -0.0540  1.1725 -0.6502
  555MOL0     H73218  -0.547   3.924   8.498 -0.2574 -1.5781 -2.7968
  555MOL0     H73219  -0.471   4.072   8.561 -2.2223  1.9381 -1.2271
  555MOL0     H73220  -0.670   4.024   8.344 -1.1769  0.9090 -0.9937
  555MOL0     H73221  -0.578   4.178   8.342  3.7961 -1.0761  0.4064
  555MOL0     H73222  -0.789   4.293   8.272 -3.5031  1.1215 -3.8643
  555MOL0     H73223  -1.028   4.343   8.239  1.3874 -3.4449 -2.6202
  555MOL0     H73224  -1.408   4.121   8.212 -1.0541 -2.2116  0.4335
  555MOL0     H73225  -1.644   4.114   8.110  0.9159  2.1058 -0.9696
  555MOL0     H73226  -1.957   4.318   8.189  0.0042 -0.8917 -1.1112
  555MOL0     H73227  -1.976   4.278   8.373 -1.0405 -1.3609  0.0916
  555MOL0     H73228  -2.102   4.082   8.311  4.0521 -0.5329  0.8815
  555MOL0     H73229  -2.077   4.117   8.142  1.7805 -3.5125  1.9804
  555MOL0     H73230  -2.218   4.331   8.157 -0.6937 -0.1265 -0.1558
  555MOL0     H73231  -2.226   4.295   8.331  0.8578 -1.9412  1.3057
  555MOL0     H73232  -2.327   4.107   8.110  0.8016 -3.0305  2.0796
  555MOL0     H73233  -2.348   4.092   8.284  1.0260 -0.1188 -0.0740
  555MOL0     H73234  -2.447   4.305   8.087 -0.2711  0.1811 -0.4349
  555MOL0     H73235  -2.460   4.329   8.256  0.9813  2.5060 -2.3686
  555MOL0     H73236  -2.584   4.076   8.246 -1.2059 -0.8599 -0.2952
  555MOL0     H73237  -2.570   4.096   8.081  1.1172 -3.5375  3.4410
  555MOL0     H73238  -2.732   4.291   8.261 -1.2804 -2.7481  2.2826
  555MOL0     H73239  -2.691   4.317   8.089  0.2260  1.3642  0.1385
  555MOL0     H73240  -2.786   4.047   8.116 -0.7230  1.5823 -1.7450
  555MOL0     H73241  -2.879   4.185   8.044  1.3283 -1.7454 -2.1253
  555MOL0     H73242  -1.786   4.281   8.478  0.5102  0.7916 -1.6393
  555MOL0     H73243  -1.553   4.302   8.565  1.7765 -0.2945 -0.4993
  555MOL0     H73244  -1.138   4.154   8.603  0.5507  0.6054  1.0153
  555MOL0     H73245  -0.904   4.120   8.653  0.6029 -2.2786 -0.5395
  555MOL0     H73246   1.186   3.738   8.152 -0.5538  0.3052 -2.5645
  555MOL0     H73247   1.425   3.645   8.116 -1.2793 -0.6115 -0.4778
  555MOL0     H73248   1.807   3.665   7.977 -1.6171 -2.9353  2.1966
  555MOL0     H73249   2.063   3.612   7.899  0.8221 -1.8245  0.7712
  555MOL0     H73250   2.346   3.537   8.205 -1.6039 -0.2551 -0.7301
  555MOL0     H73251   2.360   3.707   8.154  1.3123  0.3774 -2.1617
  555MOL0     H73252   2.579   3.570   8.113  1.8802 -1.2337 -1.3859
  555MOL0     H73253   2.488   3.472   8.003 -1.5456 -0.1157  1.8210
  555MOL0     H73254   2.522   3.775   7.961  3.2252  0.5768 -0.0181
  555MOL0     H73255   2.418   3.658   7.878 -0.7237 -0.4433  1.5638
  555MOL0     H73256   2.611   3.552   7.782  0.0514  0.9778 -1.6189
  555MOL0     H73257   2.643   3.729   7.776 -1.1238 -0.0585  0.6156
  555MOL0     H73258   2.989   3.632   7.974 -0.4699  0.2111  0.0003
  555MOL0     H73259   2.151   3.585   8.309  0.3562  0.1817 -0.5142
  555MOL0     H73260   1.918   3.634   8.367 -1.4964  0.2354 -0.2888
  556MOL0     O73261   1.014   2.353   0.530 -0.0030 -0.6569  0.5454
  556MOL0     C73262   1.034   2.383   0.646 -0.4074 -0.6530  0.3082
  556MOL0     O73263   0.938   2.429   0.737 -0.2979  0.6560  0.1200
  556MOL0     C73264   0.812   2.462   0.713 -0.3741 -0.3717  0.5598
  556MOL0     C73265   0.754   2.466   0.583 -0.0411  0.3246 -0.2539
  556MOL0     C73266   0.616   2.498   0.576 -0.2235 -0.1911  1.4414
  556MOL0     C73267   0.534   2.527   0.686 -0.0096 -0.8064 -0.8799
  556MOL0     O73268   0.406   2.556   0.681 -0.1651  0.1996  0.1611
  556MOL0     C73269   0.343   2.577   0.554  0.6541  0.2197 -0.9860
  556MOL0     C73270   0.195   2.607   0.592 -0.3700 -0.5097 -1.4216
  556MOL0     C73271   0.095   2.492   0.616  0.2668 -0.9411  0.3623
  556MOL0     C73272  -0.049   2.533   0.610  0.4347  0.1326  0.1049
  556MOL0     C73273  -0.147   2.414   0.632  1.8933 -0.7779 -0.0477
  556MOL0     C73274  -0.181   2.376   0.776 -1.6051 -0.2913  0.2113
  556MOL0     C73275  -0.317   2.301   0.786 -0.3999  0.6563 -0.0897
  556MOL0     C73276  -0.438   2.392   0.830 -0.0608 -0.6994 -1.0560
  556MOL0     N73277  -0.478   2.360   0.975  0.1755  0.8522  0.2946
  556MOL0     C73278  -0.397   2.382   1.089 -0.3103  1.2791  0.4568
  556MOL0     C73279  -0.484   2.400   1.189  0.3631  0.3107  0.0304
  556MOL0     C73280  -0.442   2.438   1.327 -0.0179 -0.2154  0.1953
  556MOL0     C73281  -0.286   2.442   1.350 -0.6749 -0.1259  0.2052
  556MOL0     C73282  -0.254   2.494   1.491  0.0820  0.2877  0.5960
  556MOL0     C73283  -0.113   2.543   1.500  0.0893  0.6535  0.3008
  556MOL0     O73284  -0.037   2.419   1.517 -0.0669 -0.2204  0.6734
  556MOL0     C73285   0.100   2.422   1.513  0.4595  0.5483 -1.2552
  556MOL0     C73286   0.164   2.335   1.428 -0.7680  0.6681  0.1683
  556MOL0     C73287   0.308   2.329   1.427 -0.1415 -0.3392 -0.5080
  556MOL0     C73288   0.382   2.422   1.502  0.1584 -0.0239  0.4842
  556MOL0     C73289   0.530   2.429   1.502  0.2201  0.6511 -0.6551
  556MOL0     O73290   0.596   2.529   1.573  0.3380  0.1207 -0.0699
  556MOL0     C73291   0.733   2.529   1.567  0.1489 -1.0408  0.3418
  556MOL0     C73292   0.811   2.432   1.632  0.7696 -0.0892  0.0352
  556MOL0     C73293   0.952   2.437   1.625 -0.5420 -0.2302  1.0723
  556MOL0     C73294   1.017   2.541   1.558 -0.1587  0.8458 -0.0151
  556MOL0     O73295   1.156   2.556   1.559 -0.1996 -0.0820 -0.4181
  556MOL0     C73296   1.229   2.452   1.623  0.0166  0.2096  1.1558
  556MOL0     C73297   1.370   2.484   1.594 -0.3574  0.2678 -0.0013
  556MOL0     C73298   1.470   2.386   1.666  0.2330  0.1529  0.3355
  556MOL0     C73299   1.614   2.447   1.640  1.0918 -0.1243  0.4621
  556MOL0     C73300   1.713   2.373   1.724 -0.4489 -1.6270 -1.0282
  556MOL0     C73301   1.850   2.437   1.700 -0.3482  0.2107  0.7491
  556MOL0     C73302   1.967   2.348   1.758 -0.4740  0.4629  0.6885
  556MOL0     C73303   2.090   2.439   1.771 -0.4259 -0.8891 -0.1411
  556MOL0    Cl73304   2.241   2.341   1.810  0.1690  0.0946  0.7963
  556MOL0     C73305   0.936   2.642   1.495  0.0082  0.4193  0.1798
  556MOL0     C73306   0.798   2.632   1.494  0.2288  0.6382 -0.9804
  556MOL0     O73307   0.587   2.347   1.422  0.0208 -0.1574 -0.7176
  556MOL0     C73308   0.305   2.497   1.590 -1.2162 -0.7152  0.0906
  556MOL0     C73309   0.170   2.498   1.599  0.4191 -1.1406 -0.2519
  556MOL0     N73310  -0.604   2.363   1.145  0.3667 -0.0218  0.6118
  556MOL0     N73311  -0.607   2.350   1.013  0.1600  0.0847 -0.3185
  556MOL0     C73312   0.599   2.529   0.810 -0.3041  0.4359  0.1788
  556MOL0     C73313   0.740   2.494   0.824 -0.2052  0.0465 -0.0047
  556MOL0     C73314   1.171   2.380   0.700 -0.1221 -0.1924 -0.7504
  556MOL0     C73315   1.279   2.320   0.623 -0.2465 -0.1472 -0.1224
  556MOL0     C73316   1.413   2.337   0.664 -0.3018 -0.2460  0.7668
  556MOL0     C73317   1.441   2.410   0.781 -0.4934  0.2736  0.4261
  556MOL0     O73318   1.566   2.426   0.830  0.2393 -0.3089  0.0132
  556MOL0     C73319   1.665   2.326   0.805 -0.0530  0.2584 -0.1404
  556MOL0     C73320   1.750   2.344   0.673  0.3484  0.6854  0.3170
  556MOL0     C73321   1.862   2.236   0.673 -0.4875  0.3461  0.2471
  556MOL0     C73322   1.982   2.284   0.758 -0.0976 -0.4396 -1.0714
  556MOL0     C73323   2.109   2.202   0.752  0.0758  0.1889 -0.3334
  556MOL0     C73324   2.219   2.149   0.751 -0.8349  0.5036  0.0406
  556MOL0     C73325   1.336   2.476   0.843 -1.1305 -0.4903  0.1434
  556MOL0     C73326   1.206   2.461   0.808  0.2550 -0.1194  0.0585
  556MOL0     H73327   0.806   2.440   0.491  0.1705 -1.6456  0.3977
  556MOL0     H73328   0.570   2.482   0.480  1.5607  0.5436  0.4098
  556MOL0     H73329   0.355   2.491   0.487  1.7928 -0.3436 -0.1005
  556MOL0     H73330   0.382   2.667   0.506 -0.8042  1.4865  0.0992
  556MOL0     H73331   0.160   2.660   0.503 -0.3114  3.6547  0.7926
  556MOL0     H73332   0.194   2.680   0.673 -0.0707 -2.4083  0.3843
  556MOL0     H73333   0.117   2.463   0.719 -2.2424  2.2125  1.9706
  556MOL0     H73334   0.103   2.407   0.547  1.8001  0.2818 -1.0156
  556MOL0     H73335  -0.075   2.613   0.681  2.4141 -3.0223  4.9392
  556MOL0     H73336  -0.071   2.552   0.505 -1.0614  0.1131  0.3896
  556MOL0     H73337  -0.113   2.323   0.581 -0.3687 -0.6274 -1.9851
  556MOL0     H73338  -0.241   2.446   0.587  2.0240 -2.6809 -1.8426
  556MOL0     H73339  -0.177   2.464   0.841 -3.0770  0.5079 -0.7271
  556MOL0     H73340  -0.106   2.300   0.800 -2.1912 -1.4102 -1.3468
  556MOL0     H73341  -0.333   2.252   0.690  1.2212 -1.8697  0.8123
  556MOL0     H73342  -0.313   2.211   0.848 -0.1243  1.3219  0.8930
  556MOL0     H73343  -0.516   2.372   0.755 -0.3221 -1.6371 -0.5368
  556MOL0     H73344  -0.422   2.501   0.834  0.4785 -0.8225  1.2429
  556MOL0     H73345  -0.289   2.381   1.080 -0.4666  0.0894 -1.8173
  556MOL0     H73346  -0.492   2.373   1.400 -2.5944  0.1579 -1.1274
  556MOL0     H73347  -0.492   2.535   1.338  0.2688 -0.1566  1.0491
  556MOL0     H73348  -0.228   2.491   1.271  0.7157 -1.0547  0.6041
  556MOL0     H73349  -0.249   2.339   1.345  0.1091  0.1857 -3.2628
  556MOL0     H73350  -0.340   2.561   1.504 -1.3513 -1.0522 -1.3124
  556MOL0     H73351  -0.276   2.404   1.549  0.2235 -0.4468 -0.4546
  556MOL0     H73352  -0.104   2.607   1.589 -2.0886  0.1649  0.9343
  556MOL0     H73353  -0.080   2.603   1.415  1.7587  2.7860  2.3158
  556MOL0     H73354   0.101   2.274   1.364 -1.9336 -0.4765  2.2994
  556MOL0     H73355   0.365   2.258   1.369  2.2187  1.2692 -0.2918
  556MOL0     H73356   0.772   2.356   1.699  0.6468 -1.5664 -1.6337
  556MOL0     H73357   1.003   2.365   1.688  2.0362 -0.1416 -0.7308
  556MOL0     H73358   1.195   2.361   1.573  1.3125 -2.1323  4.2589
  556MOL0     H73359   1.208   2.446   1.730  0.5030  1.2044  1.3223
  556MOL0     H73360   1.391   2.585   1.631 -3.0818  1.4273 -1.3738
  556MOL0     H73361   1.391   2.481   1.486 -4.0078 -0.0420 -0.8257
  556MOL0     H73362   1.462   2.286   1.622  5.1060 -0.2034 -0.2686
  556MOL0     H73363   1.450   2.397   1.773  0.1520 -1.6113  0.5304
  556MOL0     H73364   1.643   2.428   1.536  3.8632  0.5118  1.0381
  556MOL0     H73365   1.612   2.554   1.660  1.2255 -0.1598  0.6665
  556MOL0     H73366   1.721   2.268   1.694  3.4830 -1.0092 -2.7991
  556MOL0     H73367   1.692   2.377   1.831 -2.7581  1.3818 -1.4471
  556MOL0     H73368   1.862   2.532   1.753 -1.3286  0.6550  0.2043
  556MOL0     H73369   1.853   2.458   1.592 -0.4735 -1.0804  0.4753
  556MOL0     H73370   1.928   2.314   1.854  0.5230 -1.8014  0.3431
  556MOL0     H73371   1.992   2.264   1.693  1.1420  2.4454 -1.4339
  556MOL0     H73372   2.083   2.506   1.858  1.1468  0.1223 -0.7459
  556MOL0     H73373   2.091   2.500   1.680  0.8853 -1.7353 -0.7193
  556MOL0     H73374   0.977   2.724   1.435 -2.8183  2.3889  0.7460
  556MOL0     H73375   0.742   2.714   1.450  1.2863  1.3765 -0.9935
  556MOL0     H73376   0.351   2.563   1.662 -2.5711 -0.8866  1.1685
  556MOL0     H73377   0.119   2.557   1.675  0.6099 -0.0738 -0.9296
  556MOL0     H73378   0.526   2.545   0.888  1.0047  0.7075  1.3824
  556MOL0     H73379   0.784   2.478   0.922  0.6300  0.1671 -0.3496
  556MOL0     H73380   1.255   2.242   0.551  0.8557 -1.7625  1.1783
  556MOL0     H73381   1.489   2.284   0.607  0.4809  2.0463 -0.4062
  556MOL0     H73382   1.624   2.225   0.802 -4.6109  1.9011 -2.0213
  556MOL0     H73383   1.722   2.330   0.898 -3.6907  2.4622  2.2026
  556MOL0     H73384   1.693   2.323   0.582  1.3784 -2.1887  0.2263
  556MOL0     H73385   1.772   2.450   0.661  0.3518  0.6949  0.4037
  556MOL0     H73386   1.887   2.215   0.568 -1.6022  0.4114 -0.0466
  556MOL0     H73387   1.825   2.138   0.704  0.4271  0.3007  1.2471
  556MOL0     H73388   2.020   2.380   0.720 -0.7776  1.4835  2.6272
  556MOL0     H73389   1.951   2.311   0.859  1.2950  2.0431 -1.2021
  556MOL0     H73390   2.307   2.088   0.750  1.1223  3.1164 -0.8895
  556MOL0     H73391   1.367   2.537   0.928 -2.7687  2.5343 -1.2852
  556MOL0     H73392   1.125   2.499   0.870 -0.0859  2.3543 -1.7630
  557MOL0     O73393   4.627   8.684   6.798 -0.2620 -0.6043 -0.1171
  557MOL0     C73394   4.664   8.804   6.768 -0.1835  0.5526 -0.0129
  557MOL0     O73395   4.574   8.914   6.762 -0.6911 -0.0517  0.1578
  557MOL0     C73396   4.447   8.868   6.775 -0.0743 -0.7952  0.5285
  557MOL0     C73397   4.382   8.851   6.898  0.3213  0.8659  0.9306
  557MOL0     C73398   4.246   8.805   6.902  0.4005  0.5906 -0.2718
  557MOL0     C73399   4.178   8.777   6.785  0.1406  0.3617  1.1955
  557MOL0     O73400   4.049   8.730   6.800  0.2487  0.2642 -0.7697
  557MOL0     C73401   3.976   8.674   6.683 -0.7312  0.3737 -0.5386
  557MOL0     C73402   3.832   8.627   6.699 -0.1819  0.4891 -0.0425
  557MOL0     C73403   3.748   8.739   6.764  0.3202  1.0154  0.5073
  557MOL0     C73404   3.756   8.731   6.920  0.5549 -0.2215  0.0801
  557MOL0     C73405   3.792   8.869   6.984  0.2183 -0.2625  0.2375
  557MOL0     C73406   3.669   8.955   6.986  0.0958  0.0802  1.0226
  557MOL0     C73407   3.695   9.089   7.059  0.2141  0.2137 -0.3530
  557MOL0     C73408   3.569   9.179   7.046  0.4471 -0.6462  0.8558
  557MOL0     N73409   3.518   9.201   6.907 -0.6805 -0.5057  0.2292
  557MOL0     C73410   3.585   9.245   6.802 -0.6591 -0.3791  0.0958
  557MOL0     C73411   3.491   9.256   6.702  1.0872 -0.2327 -1.3127
  557MOL0     C73412   3.521   9.284   6.556 -0.9518  0.7772  1.1910
  557MOL0     C73413   3.624   9.398   6.540  0.6682  0.2593 -0.3052
  557MOL0     C73414   3.571   9.517   6.608 -0.0621 -0.2863 -0.4396
  557MOL0     C73415   3.690   9.619   6.631  0.0167 -0.1283  0.6941
  557MOL0     O73416   3.721   9.673   6.504  0.3962  0.2535 -0.2714
  557MOL0     C73417   3.840   9.732   6.480 -0.5942 -0.3629  0.8511
  557MOL0     C73418   3.920   9.678   6.384 -0.6370  0.8590 -0.2647
  557MOL0     C73419   4.046   9.734   6.347  0.5617  0.6156  0.6039
  557MOL0     C73420   4.084   9.855   6.411 -0.8523  0.2117  0.1004
  557MOL0     C73421   4.220   9.907   6.398 -0.1463  1.5162 -0.5670
  557MOL0     O73422   4.227  10.036   6.452 -0.3899  0.5331 -0.2713
  557MOL0     C73423   4.353  10.087   6.451 -0.4496  0.1673  0.6894
  557MOL0     C73424   4.384  10.159   6.339  0.2894  0.2528 -0.0339
  557MOL0     C73425   4.507  10.214   6.313  0.2165 -0.6699 -0.3308
  557MOL0     C73426   4.614  10.185   6.398 -0.4828  0.3287 -0.3796
  557MOL0     O73427   4.742  10.227   6.363  0.1522 -0.7153 -0.2520
  557MOL0     C73428   4.836  10.231   6.468  0.9512 -0.2561 -0.7519
  557MOL0     C73429   4.957  10.297   6.420  0.0663 -0.1348  0.6210
  557MOL0     C73430   5.043  10.186   6.353  0.7404 -1.0028  0.6462
  557MOL0     C73431   5.176  10.223   6.278  0.2305  0.1682 -0.6036
  557MOL0     C73432   5.284  10.275   6.372 -1.0567 -0.5039  0.6384
  557MOL0     C73433   5.415  10.284   6.299 -0.2054  0.6894 -0.3168
  557MOL0     C73434   5.419  10.395   6.190  0.7340  0.8089  0.1258
  557MOL0     C73435   5.555  10.430   6.152  0.4704  0.1417  0.3094
  557MOL0    Cl73436   5.637  10.293   6.088  0.0310  0.3963  0.1705
  557MOL0     C73437   4.575  10.108   6.518 -0.3559 -0.9818  0.1704
  557MOL0     C73438   4.442  10.062   6.542 -0.6261 -0.2305 -0.4733
  557MOL0     O73439   4.311   9.848   6.341  0.4201 -0.4184 -0.1463
  557MOL0     C73440   3.987   9.927   6.495 -1.0216  0.9514 -0.4237
  557MOL0     C73441   3.873   9.849   6.536  0.2164 -0.5423 -0.1341
  557MOL0     N73442   3.362   9.246   6.759 -0.4833  0.7233 -0.2673
  557MOL0     N73443   3.384   9.226   6.880  0.0633 -0.7508 -0.2232
  557MOL0     C73444   4.231   8.799   6.658  0.4768  0.0292 -0.0201
  557MOL0     C73445   4.366   8.841   6.653  0.2489 -0.3069  0.2526
  557MOL0     C73446   4.794   8.827   6.708  0.1601  0.1805 -0.4721
  557MOL0     C73447   4.873   8.715   6.667 -0.0459  0.6977 -0.7086
  557MOL0     C73448   5.002   8.731   6.610  1.6126  1.4105  0.1553
  557MOL0     C73449   5.059   8.859   6.608  0.3774  0.2568  0.1930
  557MOL0     O73450   5.179   8.871   6.541  0.4961 -0.1593 -0.0097
  557MOL0     C73451   5.273   8.958   6.590 -0.0518 -0.5592  0.1419
  557MOL0     C73452   5.369   9.004   6.482  0.2831 -0.0887  1.1791
  557MOL0     C73453   5.453   8.880   6.441  0.2990 -0.0639 -0.0047
  557MOL0     C73454   5.554   8.923   6.326  0.1640  0.5173 -1.2229
  557MOL0     C73455   5.679   8.982   6.389  0.2118  0.3721 -0.1662
  557MOL0     C73456   5.767   9.040   6.442  0.2590  0.9790  0.1258
  557MOL0     C73457   4.982   8.965   6.637  1.0550  0.0480  0.5427
  557MOL0     C73458   4.846   8.956   6.679 -0.3178 -0.4299 -0.1965
  557MOL0     H73459   4.446   8.882   6.980  2.1773  3.1630 -1.2164
  557MOL0     H73460   4.194   8.795   6.997  1.4635 -0.7400  0.2084
  557MOL0     H73461   4.029   8.591   6.636 -3.0342  0.3041 -3.2864
  557MOL0     H73462   3.977   8.752   6.607  2.9636 -0.0727 -1.1164
  557MOL0     H73463   3.835   8.538   6.763  1.3939  1.1171  0.7961
  557MOL0     H73464   3.796   8.601   6.598 -2.1520 -1.7578  1.1253
  557MOL0     H73465   3.644   8.734   6.730  0.1513  2.1994  0.8324
  557MOL0     H73466   3.773   8.838   6.725 -3.1542  2.1050  0.6732
  557MOL0     H73467   3.665   8.689   6.964 -1.0895  2.5792 -0.4541
  557MOL0     H73468   3.834   8.664   6.958  1.5332  0.3226 -0.9178
  557MOL0     H73469   3.871   8.918   6.927 -1.8591  0.2602 -2.3963
  557MOL0     H73470   3.822   8.862   7.088 -0.6002  1.5543  0.6332
  557MOL0     H73471   3.586   8.893   7.022  0.1611  1.0703  3.0400
  557MOL0     H73472   3.655   8.982   6.881  2.2871 -0.6416  0.5028
  557MOL0     H73473   3.720   9.080   7.165  1.7327 -1.1975 -0.7776
  557MOL0     H73474   3.782   9.131   7.007  1.6174 -1.6315  0.3835
  557MOL0     H73475   3.594   9.279   7.081 -1.1031  1.6522 -3.7874
  557MOL0     H73476   3.490   9.136   7.108 -0.6346  1.0029  0.6987
  557MOL0     H73477   3.693   9.253   6.801 -0.7680  1.4751  0.4147
  557MOL0     H73478   3.432   9.315   6.501 -0.1227 -0.3780 -0.9607
  557MOL0     H73479   3.558   9.192   6.509 -2.8162  1.4097 -1.8142
  557MOL0     H73480   3.639   9.412   6.432 -3.5560  0.5154 -1.0105
  557MOL0     H73481   3.724   9.377   6.580  0.7171 -1.5292 -1.2650
  557MOL0     H73482   3.492   9.556   6.544 -0.4203  0.2411  0.3061
  557MOL0     H73483   3.528   9.494   6.706  1.6734 -2.8602 -0.1798
  557MOL0     H73484   3.770   9.564   6.682  0.3334  1.0400  1.4960
  557MOL0     H73485   3.645   9.691   6.699 -2.6872 -0.4051 -0.6508
  557MOL0     H73486   3.893   9.580   6.346 -3.6573  0.7126  1.8844
  557MOL0     H73487   4.118   9.681   6.285  0.5276  0.3209  0.8152
  557MOL0     H73488   4.308  10.173   6.262  1.3566  0.2108 -1.1282
  557MOL0     H73489   4.505  10.278   6.225 -0.3907 -0.2491 -0.0192
  557MOL0     H73490   4.862  10.133   6.510  1.5123  1.2945  2.8768
  557MOL0     H73491   4.797  10.288   6.553 -1.0394 -0.2697 -1.5968
  557MOL0     H73492   5.012  10.357   6.493 -0.0989  0.6269  0.1228
  557MOL0     H73493   4.928  10.364   6.339  0.4469  4.7846  4.1268
  557MOL0     H73494   4.976  10.134   6.283  1.5976 -0.9427 -0.2480
  557MOL0     H73495   5.078  10.112   6.426  1.3834 -2.3565 -0.9619
  557MOL0     H73496   5.212  10.130   6.233 -0.8073  0.1143 -1.3609
  557MOL0     H73497   5.164  10.291   6.193  1.7034  2.3988  0.8486
  557MOL0     H73498   5.288  10.202   6.453 -1.9649  1.2182  2.3359
  557MOL0     H73499   5.250  10.373   6.406  0.1239 -0.3963  1.5746
  557MOL0     H73500   5.446  10.185   6.264 -1.9961 -0.2797  0.7049
  557MOL0     H73501   5.490  10.300   6.377 -1.5829  0.6535  1.0819
  557MOL0     H73502   5.375  10.352   6.099  3.0931  0.8583 -1.1080
  557MOL0     H73503   5.371  10.488   6.223 -0.1196  0.7760 -0.9539
  557MOL0     H73504   5.615  10.433   6.243 -0.0378 -4.1272  1.0186
  557MOL0     H73505   5.570  10.512   6.081  2.1573 -0.9571 -0.6725
  557MOL0     H73506   4.642  10.094   6.602  0.2448  1.6801  0.2266
  557MOL0     H73507   4.426  10.005   6.633  0.4044  0.3278  0.0825
  557MOL0     H73508   4.011  10.025   6.534 -2.1385  1.7574 -1.6666
  557MOL0     H73509   3.800   9.902   6.596 -3.0007 -3.9507 -0.6558
  557MOL0     H73510   4.188   8.769   6.562 -0.2364  0.1919  0.2404
  557MOL0     H73511   4.420   8.836   6.559 -0.9353 -1.1562 -0.4057
  557MOL0     H73512   4.841   8.611   6.674  0.5014  0.5302 -0.6501
  557MOL0     H73513   5.059   8.643   6.583 -0.6291 -0.1784  0.3212
  557MOL0     H73514   5.330   8.916   6.673  1.3605  0.8397 -0.0801
  557MOL0     H73515   5.224   9.049   6.629  1.1582 -0.1767  0.8161
  557MOL0     H73516   5.303   9.021   6.397 -1.8393 -1.8331  2.3522
  557MOL0     H73517   5.427   9.092   6.507  1.5083 -1.2105  2.4412
  557MOL0     H73518   5.388   8.809   6.391  0.4261  0.2155 -0.5740
  557MOL0     H73519   5.501   8.826   6.524 -0.8997 -1.4415 -0.1729
  557MOL0     H73520   5.581   8.840   6.261 -2.6477 -0.1189 -1.7083
  557MOL0     H73521   5.499   9.000   6.271  0.2123  2.4373  1.2109
  557MOL0     H73522   5.856   9.092   6.474 -0.0056  1.2019  0.5070
  557MOL0     H73523   5.011   9.065   6.608  1.5013  0.0153  0.8679
  557MOL0     H73524   4.776   9.038   6.689 -0.3130 -0.5221  0.6646
  558MOL0     O73525   9.101   5.577   2.354  0.0252  0.2108 -0.1219
  558MOL0     C73526   9.104   5.454   2.355  0.3068  0.3874 -0.5626
  558MOL0     O73527   9.217   5.386   2.377  0.7100 -0.0132 -0.2996
  558MOL0     C73528   9.335   5.458   2.405  0.0327  0.2006  0.1244
  558MOL0     C73529   9.441   5.467   2.315 -1.3908 -0.3157  0.2557
  558MOL0     C73530   9.564   5.536   2.351 -0.0634 -0.1385 -0.2494
  558MOL0     C73531   9.584   5.605   2.473  0.2574  0.5889 -0.1144
  558MOL0     O73532   9.706   5.650   2.522  0.4965  0.0230  0.3887
  558MOL0     C73533   9.805   5.686   2.419 -1.3967  0.2001 -0.0770
  558MOL0     C73534   9.922   5.765   2.482 -0.4038  0.8030  0.0237
  558MOL0     C73535   9.987   5.682   2.604 -0.2252 -0.1510 -0.2641
  558MOL0     C73536  10.078   5.782   2.684 -0.7493 -0.6326 -0.0430
  558MOL0     C73537  10.198   5.835   2.611 -0.9117 -0.4237  1.0474
  558MOL0     C73538  10.295   5.915   2.700  0.8837  0.9479 -0.1696
  558MOL0     C73539  10.378   6.032   2.632  0.5563 -0.0015  1.0597
  558MOL0     C73540  10.475   6.088   2.736 -0.2649 -0.4257  0.6910
  558MOL0     N73541  10.580   5.990   2.774  0.0568 -0.2491  0.2486
  558MOL0     C73542  10.607   5.952   2.901 -0.3099  1.2189 -0.0905
  558MOL0     C73543  10.711   5.868   2.882  0.0476 -0.2480 -0.1312
  558MOL0     C73544  10.789   5.801   2.996  0.0814  0.0241  0.6365
  558MOL0     C73545  10.826   5.658   2.976 -0.4149 -0.3175  0.5333
  558MOL0     C73546  10.969   5.627   2.932  0.2372  0.1191 -0.0905
  558MOL0     C73547  11.014   5.484   2.980 -0.0796 -0.6299 -0.3364
  558MOL0     O73548  11.099   5.427   2.884 -0.6993  0.1954 -0.2305
  558MOL0     C73549  11.234   5.451   2.888  0.0775 -0.5527  0.2341
  558MOL0     C73550  11.306   5.381   2.784  0.2122  0.0699  0.3270
  558MOL0     C73551  11.446   5.384   2.794 -0.3894  0.2066 -0.0270
  558MOL0     C73552  11.519   5.460   2.890 -0.7103 -0.4729  0.0270
  558MOL0     C73553  11.666   5.451   2.909 -0.6569 -0.5220 -0.8390
  558MOL0     O73554  11.751   5.372   2.834  0.4892  0.1530 -0.1163
  558MOL0     C73555  11.878   5.370   2.873 -0.3537 -0.1937  0.1218
  558MOL0     C73556  11.917   5.287   2.984  0.3908 -0.6581 -0.0473
  558MOL0     C73557  12.047   5.303   3.039 -0.0910 -0.2051  0.2474
  558MOL0     C73558  12.136   5.403   2.984 -0.1220  0.1484  0.2285
  558MOL0     O73559  12.261   5.430   3.029  0.8145  0.5031 -0.1404
  558MOL0     C73560  12.311   5.345   3.132  0.7453  0.1123 -0.1736
  558MOL0     C73561  12.447   5.403   3.183  0.4522 -0.1004 -0.0193
  558MOL0     C73562  12.507   5.336   3.296 -0.5515  0.0337 -0.9122
  558MOL0     C73563  12.638   5.415   3.334 -0.6063  0.2252 -0.3980
  558MOL0     C73564  12.726   5.347   3.439 -0.4229  0.4811 -0.8216
  558MOL0     C73565  12.830   5.241   3.386  0.9325 -0.1521 -0.3520
  558MOL0     C73566  12.943   5.194   3.488 -0.0238  0.9995  1.3500
  558MOL0     C73567  13.008   5.063   3.424  0.5792  1.1452 -0.5061
  558MOL0    Cl73568  13.067   5.072   3.246  0.1563  0.2720  0.1126
  558MOL0     C73569  12.103   5.474   2.870 -0.4008 -0.2193  0.4410
  558MOL0     C73570  11.966   5.469   2.827 -0.7445  0.5528 -0.4486
  558MOL0     O73571  11.704   5.507   3.013  1.0018 -0.2245  0.8464
  558MOL0     C73572  11.442   5.539   2.986 -0.3843  0.0634 -0.2298
  558MOL0     C73573  11.301   5.529   2.989 -0.4129 -0.0807 -0.0825
  558MOL0     N73574  10.744   5.873   2.753 -0.2147  0.4021  0.6376
  558MOL0     N73575  10.671   5.948   2.686  0.6021 -0.2833 -0.2631
  558MOL0     C73576   9.470   5.602   2.553  1.3504 -0.0862  0.4265
  558MOL0     C73577   9.353   5.532   2.521  0.0065 -0.2339 -0.6450
  558MOL0     C73578   8.976   5.391   2.340  0.0605 -0.7455 -0.7633
  558MOL0     C73579   8.975   5.252   2.357  0.9557 -0.3074 -0.7339
  558MOL0     C73580   8.856   5.183   2.345  0.6044 -0.5259  0.1432
  558MOL0     C73581   8.737   5.258   2.327  0.2542 -0.4461 -0.2714
  558MOL0     O73582   8.618   5.187   2.326 -0.9401 -0.1004  0.0596
  558MOL0     C73583   8.496   5.253   2.300  0.8754  0.6416 -0.3512
  558MOL0     C73584   8.364   5.157   2.319 -0.7081 -0.4341 -0.3606
  558MOL0     C73585   8.252   5.204   2.227  0.1699 -0.2187 -0.1433
  558MOL0     C73586   8.132   5.106   2.222  0.3752  0.8379 -0.8232
  558MOL0     C73587   8.085   5.049   2.348 -0.1013  0.0417 -0.2944
  558MOL0     C73588   8.052   5.009   2.462 -0.0385 -0.0675 -0.3940
  558MOL0     C73589   8.736   5.389   2.317 -0.5753 -0.7401 -0.3372
  558MOL0     C73590   8.856   5.457   2.316 -0.3882  0.0628  0.7197
  558MOL0     H73591   9.427   5.422   2.217 -2.0534 -1.8278  1.0032
  558MOL0     H73592   9.652   5.521   2.290 -0.5248  1.8791 -1.5380
  558MOL0     H73593   9.777   5.757   2.340  1.2482  1.2082 -0.2220
  558MOL0     H73594   9.848   5.597   2.372  1.5856  0.4220  1.9394
  558MOL0     H73595   9.889   5.862   2.522 -2.2337  1.3963 -2.6994
  558MOL0     H73596  10.002   5.786   2.411 -0.9041  1.4589 -0.3537
  558MOL0     H73597  10.026   5.592   2.555  0.0918 -0.7929  1.1237
  558MOL0     H73598   9.912   5.645   2.674 -1.6075  0.6076 -1.2946
  558MOL0     H73599  10.014   5.864   2.717  1.7988  1.9528 -1.0450
  558MOL0     H73600  10.113   5.741   2.779 -0.8012  0.9804  0.7192
  558MOL0     H73601  10.174   5.898   2.526 -3.6146 -2.5993  0.0592
  558MOL0     H73602  10.252   5.745   2.579 -0.9447 -0.1067  0.0674
  558MOL0     H73603  10.363   5.845   2.750 -0.3924  0.2387  0.6014
  558MOL0     H73604  10.225   5.956   2.773  0.0482 -2.1680  0.9193
  558MOL0     H73605  10.430   5.992   2.545 -1.2587 -2.9351  1.1820
  558MOL0     H73606  10.307   6.109   2.603  3.1406  1.4498 -2.0062
  558MOL0     H73607  10.424   6.113   2.829  1.1959 -1.3875  1.8022
  558MOL0     H73608  10.526   6.177   2.696 -1.2085  0.0287  0.4724
  558MOL0     H73609  10.570   5.981   2.999  1.5914  1.1153  0.6884
  558MOL0     H73610  10.736   5.805   3.092  0.6056  0.7855  0.9076
  558MOL0     H73611  10.878   5.862   3.010  1.0607 -0.1774 -3.4830
  558MOL0     H73612  10.758   5.618   2.900 -1.1157 -1.9850  1.9572
  558MOL0     H73613  10.801   5.606   3.069 -1.4361 -2.0390 -0.6262
  558MOL0     H73614  10.960   5.620   2.823 -0.4462 -1.6867  0.0576
  558MOL0     H73615  11.035   5.704   2.974 -1.5561  1.0537  1.1442
  558MOL0     H73616  10.928   5.417   2.982 -0.8978  0.3842 -0.7292
  558MOL0     H73617  11.055   5.482   3.081  1.8086  3.6971 -0.7876
  558MOL0     H73618  11.245   5.327   2.712  1.4154  0.8266 -1.3269
  558MOL0     H73619  11.505   5.314   2.736  3.3381  1.4630  1.9391
  558MOL0     H73620  11.849   5.212   3.024  0.1653  0.4992  1.8806
  558MOL0     H73621  12.067   5.230   3.118  0.7377 -1.8766 -1.4047
  558MOL0     H73622  12.318   5.244   3.092 -0.7760 -0.3823  0.7192
  558MOL0     H73623  12.245   5.349   3.219 -1.9509 -2.4234 -1.9048
  558MOL0     H73624  12.440   5.510   3.207 -1.8805 -0.5734  1.7275
  558MOL0     H73625  12.516   5.394   3.099  2.2829 -0.7803  1.5053
  558MOL0     H73626  12.536   5.235   3.269  1.9959  0.3007  0.4884
  558MOL0     H73627  12.440   5.330   3.382  1.0609 -1.2963  0.3166
  558MOL0     H73628  12.707   5.441   3.253  0.0093 -1.5551 -0.4878
  558MOL0     H73629  12.607   5.514   3.368 -0.4252  1.0468 -2.5125
  558MOL0     H73630  12.671   5.309   3.526  1.9509  0.4510  0.7425
  558MOL0     H73631  12.799   5.422   3.470  3.0558 -1.2541 -4.0967
  558MOL0     H73632  12.876   5.264   3.290 -0.2991 -2.5861 -1.6467
  558MOL0     H73633  12.763   5.161   3.352  2.5934 -0.7879 -2.2977
  558MOL0     H73634  13.021   5.270   3.485  0.0675  0.8925  1.0009
  558MOL0     H73635  12.898   5.177   3.587 -0.6940 -2.5356  0.5533
  558MOL0     H73636  12.933   4.984   3.434 -0.6119  2.3256  0.1388
  558MOL0     H73637  13.099   5.046   3.482  1.4484  2.0443 -1.5455
  558MOL0     H73638  12.176   5.535   2.817  1.6202 -4.3845 -2.1055
  558MOL0     H73639  11.931   5.533   2.747  0.2808 -1.2936 -2.4554
  558MOL0     H73640  11.488   5.600   3.063  0.1836  2.2047 -2.1506
  558MOL0     H73641  11.243   5.596   3.051 -1.1663  0.6975 -1.5706
  558MOL0     H73642   9.473   5.650   2.650  0.7315  2.5148 -0.7568
  558MOL0     H73643   9.271   5.534   2.592 -1.6780  1.6293 -2.4870
  558MOL0     H73644   9.065   5.193   2.369  0.7586 -0.8077 -1.6594
  558MOL0     H73645   8.840   5.078   2.367 -0.1429 -0.2864  0.7730
  558MOL0     H73646   8.501   5.289   2.196 -1.6055 -3.4261 -2.1223
  558MOL0     H73647   8.482   5.343   2.360  2.4513  2.8303 -3.0068
  558MOL0     H73648   8.385   5.052   2.295  0.5715 -0.2155 -0.2844
  558MOL0     H73649   8.339   5.176   2.423 -0.9711  1.2435 -0.6994
  558MOL0     H73650   8.286   5.237   2.128  0.9951  0.5086  0.3701
  558MOL0     H73651   8.207   5.297   2.263 -0.1688 -0.5753  0.3695
  558MOL0     H73652   8.041   5.144   2.177 -0.5642 -0.8511 -0.4337
  558MOL0     H73653   8.156   5.023   2.154 -2.5354  0.7726 -1.8887
  558MOL0     H73654   8.012   4.964   2.551 -0.4052  1.9797  0.5290
  558MOL0     H73655   8.646   5.444   2.292 -1.0666 -1.7750 -0.9466
  558MOL0     H73656   8.860   5.565   2.308 -0.0031 -0.0314 -0.7262
  559MOL0     O73657  10.993   4.512   9.667  0.4395  0.1270  0.5099
  559MOL0     C73658  11.040   4.424   9.592 -0.3391 -0.6198 -0.1597
  559MOL0     O73659  10.987   4.301   9.563  0.1841 -0.2041 -0.0434
  559MOL0     C73660  10.853   4.292   9.565  1.0806 -0.0383  0.3981
  559MOL0     C73661  10.776   4.238   9.668 -0.2649  0.2889  0.3133
  559MOL0     C73662  10.636   4.224   9.656  0.2067  0.3748 -0.3697
  559MOL0     C73663  10.573   4.255   9.535  0.2650  0.3366  0.2628
  559MOL0     O73664  10.432   4.267   9.522 -0.4752  0.1224  0.4327
  559MOL0     C73665  10.337   4.200   9.611 -0.2595 -0.2929  0.4235
  559MOL0     C73666  10.197   4.261   9.582  0.3190 -0.1034  0.5356
  559MOL0     C73667  10.075   4.196   9.652  0.5731  0.2278  0.0603
  559MOL0     C73668   9.964   4.294   9.666 -0.1534  0.0729  0.9491
  559MOL0     C73669   9.849   4.246   9.743 -0.6609  0.1107 -0.1174
  559MOL0     C73670   9.719   4.334   9.726  0.1995 -0.5715  0.5581
  559MOL0     C73671   9.610   4.293   9.824  0.3724 -0.9317 -0.2635
  559MOL0     C73672   9.640   4.313   9.979 -0.7847 -0.0356 -0.3142
  559MOL0     N73673   9.521   4.301  10.072  0.0494  0.0310  0.5011
  559MOL0     C73674   9.450   4.407  10.115 -0.3260 -0.2880  0.4014
  559MOL0     C73675   9.376   4.367  10.215  0.2002 -0.3242 -1.0486
  559MOL0     C73676   9.290   4.436  10.314 -0.6502 -0.4136  0.1908
  559MOL0     C73677   9.157   4.474  10.275  0.3013 -0.3949  0.5622
  559MOL0     C73678   9.054   4.360  10.271  0.0506  0.1024  0.6901
  559MOL0     C73679   8.954   4.367  10.387  0.4800  1.0016 -0.0022
  559MOL0     O73680   8.885   4.246  10.420  0.2049  0.7440 -0.7046
  559MOL0     C73681   8.778   4.254  10.514 -0.1803  0.3415 -0.0406
  559MOL0     C73682   8.673   4.159  10.513  0.2372  0.4098 -0.2651
  559MOL0     C73683   8.551   4.168  10.592 -0.1264 -0.3165  0.0353
  559MOL0     C73684   8.534   4.279  10.677  0.4977  0.5258  0.4273
  559MOL0     C73685   8.406   4.295  10.755 -0.5953  0.2440  0.6415
  559MOL0     O73686   8.301   4.219  10.711 -0.2506  0.2870 -0.6750
  559MOL0     C73687   8.186   4.209  10.785  0.4346 -0.0141 -0.1993
  559MOL0     C73688   8.174   4.215  10.931  0.4359 -0.6253 -0.0570
  559MOL0     C73689   8.044   4.200  10.990 -0.2065  0.2875 -0.9023
  559MOL0     C73690   7.931   4.170  10.917  0.1308  0.2848 -0.2838
  559MOL0     O73691   7.809   4.165  10.986  0.0941  0.0533 -0.2663
  559MOL0     C73692   7.712   4.064  10.937  0.0511 -0.6632  0.1580
  559MOL0     C73693   7.567   4.105  10.971  0.1520  0.2309  0.3401
  559MOL0     C73694   7.472   4.000  10.910  0.0408  0.5511 -0.2618
  559MOL0     C73695   7.326   4.013  10.964  0.5285  0.0141 -0.3097
  559MOL0     C73696   7.230   3.928  10.867 -0.8180 -0.3649  0.4440
  559MOL0     C73697   7.087   3.917  10.919 -0.5419 -0.1360  0.6157
  559MOL0     C73698   7.009   3.822  10.819  0.3790 -0.0378 -0.5540
  559MOL0     C73699   6.861   3.823  10.863 -0.0129 -0.4995 -1.0005
  559MOL0    Cl73700   6.846   3.759  11.028 -0.0717  0.1547  0.3331
  559MOL0     C73701   7.945   4.169  10.778  0.5364  0.0450 -0.0175
  559MOL0     C73702   8.072   4.182  10.721  0.7543 -0.3418 -0.6948
  559MOL0     O73703   8.412   4.359  10.855 -1.2760  0.6021 -0.2449
  559MOL0     C73704   8.640   4.372  10.681 -0.4697  0.0631  0.5734
  559MOL0     C73705   8.762   4.358  10.608 -0.1948 -0.4903  0.3040
  559MOL0     N73706   9.415   4.234  10.238 -0.2055  0.1571  0.4675
  559MOL0     N73707   9.498   4.192  10.149 -0.0423 -0.3287  0.4475
  559MOL0     C73708  10.655   4.286   9.425 -0.1456 -0.2786  0.6237
  559MOL0     C73709  10.793   4.311   9.444 -0.1907 -0.0102 -0.0173
  559MOL0     C73710  11.179   4.452   9.545 -0.2294  0.0083 -0.8880
  559MOL0     C73711  11.245   4.358   9.456 -0.9430  0.1429  0.5970
  559MOL0     C73712  11.373   4.379   9.415 -0.2873  0.4952 -1.2116
  559MOL0     C73713  11.447   4.493   9.456  0.5273  0.6841  0.4054
  559MOL0     O73714  11.582   4.502   9.402  0.7268 -0.0115 -0.0834
  559MOL0     C73715  11.670   4.567   9.495 -0.1913 -0.2599  0.2871
  559MOL0     C73716  11.806   4.529   9.442 -0.4926  0.2817 -0.9781
  559MOL0     C73717  11.831   4.379   9.446 -0.2300  1.2364  0.6032
  559MOL0     C73718  11.978   4.346   9.409  0.4205  0.0485 -0.3696
  559MOL0     C73719  11.989   4.196   9.418  0.4450  0.6114  0.6380
  559MOL0     C73720  11.974   4.073   9.411 -0.5491  0.7741  0.4239
  559MOL0     C73721  11.389   4.585   9.539 -0.5578 -0.5747 -0.9649
  559MOL0     C73722  11.251   4.582   9.573  0.5380  0.8118  0.6225
  559MOL0     H73723  10.829   4.227   9.761  0.4255  0.1223 -0.0934
  559MOL0     H73724  10.584   4.202   9.749  1.4216  0.1439  0.2725
  559MOL0     H73725  10.359   4.217   9.717 -2.5220 -0.0108  0.8938
  559MOL0     H73726  10.330   4.093   9.590 -1.4369 -0.1210 -0.1223
  559MOL0     H73727  10.180   4.270   9.474 -2.4887  0.1956  0.9359
  559MOL0     H73728  10.206   4.367   9.609 -1.2625  0.4214 -0.8117
  559MOL0     H73729  10.117   4.171   9.750 -0.1185  0.3443  0.3957
  559MOL0     H73730  10.050   4.105   9.596  4.5457 -0.1291 -1.4320
  559MOL0     H73731   9.998   4.387   9.712 -3.2636  0.6772  2.2679
  559MOL0     H73732   9.933   4.319   9.565 -1.1933 -1.9143  0.7163
  559MOL0     H73733   9.886   4.247   9.846  2.1096 -0.6220 -1.0186
  559MOL0     H73734   9.830   4.140   9.724 -0.3291 -0.2778  1.5429
  559MOL0     H73735   9.680   4.329   9.624 -1.6428 -2.3834  1.2893
  559MOL0     H73736   9.745   4.439   9.742  0.5714 -0.5780  0.0311
  559MOL0     H73737   9.511   4.330   9.793 -0.8100 -3.7397 -0.1297
  559MOL0     H73738   9.609   4.184   9.818  1.2253 -1.0107  0.6500
  559MOL0     H73739   9.697   4.402  10.006  1.7801 -1.4462 -0.7606
  559MOL0     H73740   9.707   4.228   9.996 -0.1127  0.7793  1.3515
  559MOL0     H73741   9.455   4.512  10.088 -0.3817  0.1109  1.8615
  559MOL0     H73742   9.330   4.535  10.338 -1.2383 -0.6941  2.5809
  559MOL0     H73743   9.278   4.378  10.406 -1.1148 -2.5249 -1.1389
  559MOL0     H73744   9.157   4.513  10.173  3.3726 -1.7603 -0.0761
  559MOL0     H73745   9.120   4.551  10.343 -0.2207 -0.6203  0.5391
  559MOL0     H73746   9.001   4.339  10.177 -1.2122 -2.4619  1.8615
  559MOL0     H73747   9.123   4.276  10.282  2.2760  1.8921  1.2184
  559MOL0     H73748   8.883   4.450  10.380  0.0448  0.6312 -0.0596
  559MOL0     H73749   9.005   4.383  10.482 -2.0197 -0.0863  1.6486
  559MOL0     H73750   8.684   4.074  10.447 -2.1289 -1.7556  1.9347
  559MOL0     H73751   8.475   4.091  10.580 -0.3362  0.1547 -1.9793
  559MOL0     H73752   8.267   4.220  10.986  1.7676  0.0669 -2.2073
  559MOL0     H73753   8.040   4.212  11.098  1.6573 -2.8768 -0.3238
  559MOL0     H73754   7.735   3.971  10.989  0.2473 -0.1029  1.0959
  559MOL0     H73755   7.730   4.069  10.829  0.5338 -0.2335  0.2522
  559MOL0     H73756   7.537   4.202  10.929 -1.2686 -1.0190 -1.7548
  559MOL0     H73757   7.568   4.097  11.080  2.6018  0.6194  0.3996
  559MOL0     H73758   7.504   3.899  10.940  1.6780  1.5551  1.6296
  559MOL0     H73759   7.470   4.014  10.802 -0.3559 -0.9792 -0.4806
  559MOL0     H73760   7.318   3.975  11.066 -1.2506 -0.8816 -0.7444
  559MOL0     H73761   7.306   4.120  10.952  2.9829  0.7620  1.5007
  559MOL0     H73762   7.272   3.827  10.859 -1.6048 -0.6352 -0.5107
  559MOL0     H73763   7.222   3.968  10.765 -1.7321  0.8497  0.9745
  559MOL0     H73764   7.051   4.020  10.921  0.3424  0.1835  0.6442
  559MOL0     H73765   7.085   3.888  11.024 -1.7683  2.2223  1.3063
  559MOL0     H73766   7.017   3.873  10.723  2.7044 -1.1426 -1.0158
  559MOL0     H73767   7.039   3.718  10.809  2.5199  0.7647 -3.7827
  559MOL0     H73768   6.811   3.746  10.805 -3.3721 -0.6848  1.7894
  559MOL0     H73769   6.820   3.925  10.866 -0.0436 -0.5134  1.2520
  559MOL0     H73770   7.857   4.160  10.714 -1.5794  1.0558  2.5688
  559MOL0     H73771   8.063   4.187  10.613 -0.1788  0.5128 -0.5937
  559MOL0     H73772   8.651   4.464  10.737  1.5923 -0.8839  1.8459
  559MOL0     H73773   8.829   4.441  10.631 -0.3001 -0.6183  1.1300
  559MOL0     H73774  10.616   4.299   9.324  3.3800  2.8925 -0.5924
  559MOL0     H73775  10.857   4.327   9.357  0.4045 -1.5795  0.0850
  559MOL0     H73776  11.186   4.277   9.413  0.2946  0.2190 -1.3688
  559MOL0     H73777  11.429   4.304   9.360 -2.5007 -0.0776 -2.7973
  559MOL0     H73778  11.655   4.525   9.595 -0.2937 -2.9159 -0.7838
  559MOL0     H73779  11.663   4.675   9.477  0.9282 -0.0548  1.0237
  559MOL0     H73780  11.814   4.571   9.342  0.0081  1.0336 -0.6316
  559MOL0     H73781  11.884   4.575   9.503 -0.5698 -0.4196 -0.3298
  559MOL0     H73782  11.763   4.327   9.378 -0.1173  0.4009  1.1165
  559MOL0     H73783  11.808   4.334   9.543 -0.1525  0.6098  0.3325
  559MOL0     H73784  11.999   4.387   9.310  2.1031 -0.4852 -0.2537
  559MOL0     H73785  12.052   4.395   9.472 -0.9941 -0.4701  1.8408
  559MOL0     H73786  11.921   3.981   9.423 -1.2887  1.3978  2.3856
  559MOL0     H73787  11.430   4.674   9.585 -3.0277 -0.0470  0.3863
  559MOL0     H73788  11.201   4.657   9.632  0.6707  0.5710  1.0419
  560MOL0     O73789   3.235  10.916   8.536 -0.0699 -0.0120  0.2075
  560MOL0     C73790   3.266  10.849   8.638 -0.7345  0.1649 -0.3365
  560MOL0     O73791   3.178  10.784   8.717 -0.0783 -0.2774 -1.5549
  560MOL0     C73792   3.047  10.828   8.694 -0.5394 -0.1187 -0.7934
  560MOL0     C73793   2.988  10.944   8.740 -0.5138 -0.3454 -0.4357
  560MOL0     C73794   2.859  10.989   8.693 -0.3028  0.0377 -0.2038
  560MOL0     C73795   2.783  10.898   8.615 -0.1756  0.4628 -0.5513
  560MOL0     O73796   2.653  10.916   8.576 -0.3679  0.5873  0.1346
  560MOL0     C73797   2.582  11.035   8.612  0.5826  0.3111 -0.3888
  560MOL0     C73798   2.439  11.027   8.556  0.0006 -0.4531  0.2756
  560MOL0     C73799   2.343  11.087   8.652 -0.0977  0.0492 -0.5725
  560MOL0     C73800   2.199  11.086   8.583 -1.0094  0.6186 -0.3236
  560MOL0     C73801   2.095  11.152   8.682 -0.1042  0.9705  0.2638
  560MOL0     C73802   1.962  11.131   8.622  0.8847 -0.1411 -0.5182
  560MOL0     C73803   1.851  11.184   8.710 -0.9278  0.5839 -0.0018
  560MOL0     C73804   1.726  11.182   8.618  0.4308 -0.5818  0.0222
  560MOL0     N73805   1.613  11.250   8.686  0.7586  0.3218  0.3150
  560MOL0     C73806   1.572  11.243   8.814  0.8721 -0.0766  0.0890
  560MOL0     C73807   1.460  11.316   8.826  0.4199 -0.7156  0.2064
  560MOL0     C73808   1.395  11.368   8.949  0.6730  0.3681 -0.4694
  560MOL0     C73809   1.240  11.365   8.953  0.0952  0.6114 -0.2066
  560MOL0     C73810   1.187  11.384   9.095  0.1889 -0.2567 -0.5794
  560MOL0     C73811   1.220  11.523   9.159 -0.1973 -0.4693  0.6259
  560MOL0     O73812   1.193  11.523   9.300 -0.1258  0.4517 -0.1701
  560MOL0     C73813   1.064  11.538   9.342 -1.0550  0.1024 -0.6405
  560MOL0     C73814   1.044  11.518   9.481 -0.3131  0.0916 -0.4025
  560MOL0     C73815   0.923  11.537   9.543  0.8522 -0.1687 -0.0705
  560MOL0     C73816   0.817  11.567   9.461  0.3147  0.3254 -0.3482
  560MOL0     C73817   0.678  11.585   9.521  0.7170 -0.0357 -0.3043
  560MOL0     O73818   0.659  11.520   9.636  0.1145  0.5290  0.1887
  560MOL0     C73819   0.531  11.517   9.683  0.8353  0.1375  0.0951
  560MOL0     C73820   0.462  11.628   9.740 -1.1261  0.4336 -0.4149
  560MOL0     C73821   0.347  11.604   9.799 -0.6844 -0.1444  0.1526
  560MOL0     C73822   0.288  11.479   9.798  0.8349 -0.2889  0.0058
  560MOL0     O73823   0.171  11.468   9.867  0.9571  0.3167 -0.5000
  560MOL0     C73824   0.144  11.356   9.956 -0.2463 -0.4029 -0.5967
  560MOL0     C73825   0.023  11.382  10.047 -0.7170 -0.7314  0.1732
  560MOL0     C73826  -0.029  11.280  10.144 -0.6077  0.9501 -0.1067
  560MOL0     C73827   0.072  11.241  10.253  0.4336 -0.6894  0.7970
  560MOL0     C73828   0.028  11.132  10.344  0.2180  0.4885  1.1955
  560MOL0     C73829  -0.077  11.176  10.450  0.1520 -0.8961 -0.4227
  560MOL0     C73830  -0.016  11.284  10.545  0.0522  0.1566  0.4170
  560MOL0     C73831  -0.084  11.289  10.679  0.8541  0.5384 -0.4443
  560MOL0    Cl73832  -0.250  11.354  10.661  0.7235  0.0939 -0.1738
  560MOL0     C73833   0.349  11.371   9.736  0.6368 -0.7440 -0.2777
  560MOL0     C73834   0.469  11.396   9.679  0.1866  0.5123 -0.3559
  560MOL0     O73835   0.593  11.648   9.463  1.0000 -0.5500 -0.3868
  560MOL0     C73836   0.835  11.594   9.332 -0.3784  0.3401 -0.1194
  560MOL0     C73837   0.955  11.577   9.272  0.2789 -0.2610  0.3717
  560MOL0     N73838   1.422  11.353   8.705 -0.2458  0.4327 -0.4243
  560MOL0     N73839   1.516  11.315   8.619 -0.6538 -0.0894  0.8558
  560MOL0     C73840   2.840  10.776   8.583 -0.3236  0.3489  0.2090
  560MOL0     C73841   2.968  10.745   8.616  0.0723 -0.1393 -0.6581
  560MOL0     C73842   3.405  10.856   8.706  0.1103  0.8727  0.2506
  560MOL0     C73843   3.445  10.783   8.829 -0.2889  0.3223  0.3530
  560MOL0     C73844   3.572  10.782   8.873 -0.0167 -0.7125 -0.2069
  560MOL0     C73845   3.660  10.876   8.815  0.6815  0.7472 -0.1127
  560MOL0     O73846   3.793  10.891   8.858  0.2917  0.0344  0.1321
  560MOL0     C73847   3.846  10.819   8.974 -0.9972  0.3284  0.7012
  560MOL0     C73848   3.887  10.675   8.938 -0.2977 -0.2346  0.6771
  560MOL0     C73849   4.007  10.649   8.850  0.0663  0.3020 -0.6423
  560MOL0     C73850   3.983  10.648   8.696  0.5214 -0.6278  0.6414
  560MOL0     C73851   4.107  10.627   8.626 -0.9976  0.2149  0.1598
  560MOL0     C73852   4.222  10.605   8.591  0.1539 -0.1141 -0.3194
  560MOL0     C73853   3.625  10.959   8.710  0.4730  0.2481  0.3592
  560MOL0     C73854   3.499  10.946   8.650  0.3011  0.0961  0.1291
  560MOL0     H73855   3.039  11.018   8.801  0.3028  0.7320 -2.3197
  560MOL0     H73856   2.822  11.090   8.705 -1.2509 -0.0648 -1.9465
  560MOL0     H73857   2.629  11.117   8.556 -3.8302  0.8756 -3.8586
  560MOL0     H73858   2.580  11.058   8.719  0.6020  1.4999 -0.6262
  560MOL0     H73859   2.421  10.922   8.533 -1.5687 -0.3166  0.7364
  560MOL0     H73860   2.436  11.082   8.461 -0.8005 -0.0824  0.5054
  560MOL0     H73861   2.359  11.194   8.670 -1.0921  0.4831 -2.0237
  560MOL0     H73862   2.342  11.023   8.740 -2.1681 -1.3901 -1.5660
  560MOL0     H73863   2.214  11.139   8.489 -0.4487  0.2901 -0.4213
  560MOL0     H73864   2.172  10.983   8.561 -0.1192  0.3501 -0.2092
  560MOL0     H73865   2.116  11.259   8.688 -0.6649  1.0338  1.2424
  560MOL0     H73866   2.100  11.104   8.780  0.8392 -1.1179 -0.7185
  560MOL0     H73867   1.934  11.033   8.581 -0.0203  0.6608 -1.8970
  560MOL0     H73868   1.969  11.193   8.533  3.2522  1.1228  0.4656
  560MOL0     H73869   1.838  11.122   8.799  2.1588  1.7191  1.3803
  560MOL0     H73870   1.874  11.282   8.752 -2.9124  1.4728 -0.8390
  560MOL0     H73871   1.699  11.080   8.591  0.2506 -1.0689  1.8932
  560MOL0     H73872   1.731  11.238   8.524  0.4874 -2.1657 -0.9399
  560MOL0     H73873   1.627  11.189   8.891 -0.8115 -1.0245  0.7006
  560MOL0     H73874   1.437  11.469   8.958  0.4527  0.6286 -2.1173
  560MOL0     H73875   1.438  11.311   9.032  0.1446  0.3153 -0.2278
  560MOL0     H73876   1.209  11.266   8.919 -0.2721  0.9876 -0.9724
  560MOL0     H73877   1.213  11.438   8.876  0.7245  0.6757 -0.3721
  560MOL0     H73878   1.082  11.358   9.104  0.1009  0.7902  2.5273
  560MOL0     H73879   1.247  11.311   9.149 -0.4389 -0.8671 -0.6936
  560MOL0     H73880   1.161  11.598   9.106 -1.1504 -2.1398 -0.8103
  560MOL0     H73881   1.326  11.541   9.140 -0.1041 -1.3395  0.2343
  560MOL0     H73882   1.131  11.506   9.545  0.5499  0.0898 -1.5271
  560MOL0     H73883   0.910  11.543   9.651  0.8684  3.1243 -0.1557
  560MOL0     H73884   0.516  11.721   9.750 -0.2760 -0.0749 -0.2065
  560MOL0     H73885   0.308  11.689   9.854 -1.6165 -1.3126  1.3610
  560MOL0     H73886   0.222  11.344  10.031  0.9714 -1.1089 -1.9301
  560MOL0     H73887   0.143  11.258   9.908 -0.8643 -0.6685 -0.0628
  560MOL0     H73888  -0.063  11.415   9.988  0.9936  0.0253 -2.0620
  560MOL0     H73889   0.058  11.470  10.101  0.3802  1.1115 -3.2052
  560MOL0     H73890  -0.057  11.187  10.093 -0.8310  1.1202 -0.2904
  560MOL0     H73891  -0.117  11.309  10.201 -1.3656 -1.6668  0.2157
  560MOL0     H73892   0.169  11.206  10.217  0.2077 -0.0056 -0.5648
  560MOL0     H73893   0.089  11.334  10.310  1.3462 -0.6268  0.4483
  560MOL0     H73894   0.111  11.100  10.408 -0.5863 -0.2783  1.8756
  560MOL0     H73895  -0.000  11.044  10.286  2.4865  1.4246 -1.5751
  560MOL0     H73896  -0.103  11.087  10.509  2.9726 -1.2641  0.4019
  560MOL0     H73897  -0.167  11.225  10.413  1.2996  2.5308  0.9921
  560MOL0     H73898   0.088  11.255  10.562 -0.7423 -2.6197  1.0214
  560MOL0     H73899  -0.013  11.382  10.498  0.1986 -0.2807 -0.5073
  560MOL0     H73900  -0.031  11.354  10.750 -0.9112  2.3415 -0.6847
  560MOL0     H73901  -0.084  11.185  10.714  1.3408  0.0558 -1.8261
  560MOL0     H73902   0.317  11.267   9.741 -1.0173 -0.2133  0.7711
  560MOL0     H73903   0.525  11.319   9.627  1.7204  0.3728  1.4362
  560MOL0     H73904   0.757  11.618   9.261 -0.7892  0.7749  0.4759
  560MOL0     H73905   0.943  11.615   9.171 -3.1204  4.1999  2.1280
  560MOL0     H73906   2.783  10.714   8.515 -0.0016  0.1181  0.1449
  560MOL0     H73907   3.006  10.645   8.597 -2.9540 -1.6052  0.3356
  560MOL0     H73908   3.378  10.710   8.875 -0.7957 -0.5881 -1.7136
  560MOL0     H73909   3.588  10.707   8.950  1.1242 -0.8179 -0.5202
  560MOL0     H73910   3.773  10.827   9.055 -1.9126  2.9650 -0.2692
  560MOL0     H73911   3.933  10.874   9.013  1.8108 -1.7073 -2.1182
  560MOL0     H73912   3.890  10.623   9.034 -0.1099  1.5263  1.6690
  560MOL0     H73913   3.805  10.627   8.883 -1.5530 -0.8680  2.9908
  560MOL0     H73914   4.048  10.555   8.890 -0.2538  0.8223  0.9809
  560MOL0     H73915   4.075  10.728   8.881 -1.0705  1.5418 -1.2148
  560MOL0     H73916   3.909  10.572   8.666  0.2131  1.0441 -3.4346
  560MOL0     H73917   3.937  10.742   8.664  1.1787 -0.2499  0.8097
  560MOL0     H73918   4.320  10.602   8.547  0.6682 -0.6082  0.8053
  560MOL0     H73919   3.696  11.028   8.667  0.0394  1.1942  1.1383
  560MOL0     H73920   3.475  10.997   8.557  0.5119 -1.3355 -0.7527
  561MOL0     O73921   6.257   6.986   7.386  0.2537 -0.5125 -0.6208
  561MOL0     C73922   6.269   6.928   7.500  0.9904 -0.1612 -0.5327
  561MOL0     O73923   6.222   6.800   7.538 -0.0468  0.4982 -0.4744
  561MOL0     C73924   6.136   6.740   7.454 -0.5032 -0.8984  0.1736
  561MOL0     C73925   6.003   6.777   7.457  0.8679 -0.3176  0.1465
  561MOL0     C73926   5.910   6.706   7.374  0.1061  0.2731 -0.1105
  561MOL0     C73927   5.953   6.607   7.279 -0.2520  0.8300  0.4547
  561MOL0     O73928   5.871   6.528   7.203 -0.4036 -0.0068 -0.0169
  561MOL0     C73929   5.739   6.570   7.192  0.3223  0.1729  0.0472
  561MOL0     C73930   5.685   6.508   7.057  0.0789 -0.8105 -0.0711
  561MOL0     C73931   5.531   6.512   7.067 -0.8238  0.1813 -0.5088
  561MOL0     C73932   5.464   6.484   6.933 -0.1352 -1.2351 -0.2665
  561MOL0     C73933   5.315   6.475   6.940  0.2817  0.0865 -0.0829
  561MOL0     C73934   5.248   6.442   6.803  0.7109 -0.0310  0.3282
  561MOL0     C73935   5.089   6.474   6.800  0.0152 -0.2287 -0.4799
  561MOL0     C73936   5.005   6.359   6.878 -0.2616  0.4195 -0.0057
  561MOL0     N73937   4.862   6.367   6.846  0.3277 -0.2255  0.1803
  561MOL0     C73938   4.766   6.439   6.911  0.3880  0.1948 -0.4536
  561MOL0     C73939   4.648   6.417   6.844  0.0792 -1.1075 -0.2661
  561MOL0     C73940   4.522   6.506   6.867  0.7293 -1.7418 -0.5186
  561MOL0     C73941   4.529   6.648   6.809 -0.0113  0.6213  0.8788
  561MOL0     C73942   4.517   6.663   6.659  0.3428 -0.0403  0.2588
  561MOL0     C73943   4.366   6.651   6.615 -0.2965  0.8691  0.1683
  561MOL0     O73944   4.362   6.684   6.479  0.2099  0.7844  0.5287
  561MOL0     C73945   4.243   6.711   6.422 -0.0827 -0.9796  0.1579
  561MOL0     C73946   4.250   6.738   6.286 -0.8151  0.0221  0.1412
  561MOL0     C73947   4.138   6.754   6.213  0.5603 -0.0591  0.0903
  561MOL0     C73948   4.014   6.749   6.271 -0.0501 -0.7325  0.5315
  561MOL0     C73949   3.891   6.762   6.193 -0.1911  0.8964 -0.1496
  561MOL0     O73950   3.772   6.716   6.256 -0.3850  0.2270  0.6986
  561MOL0     C73951   3.667   6.718   6.173 -0.4550  0.0043  0.3536
  561MOL0     C73952   3.591   6.607   6.160 -0.2866 -0.3361 -0.7506
  561MOL0     C73953   3.470   6.610   6.087  0.2024  0.1479 -0.6978
  561MOL0     C73954   3.436   6.722   6.010 -0.0445 -0.2713  0.0217
  561MOL0     O73955   3.320   6.722   5.935 -0.2537  0.1367  0.3172
  561MOL0     C73956   3.299   6.626   5.828  0.1352  0.2716  0.2079
  561MOL0     C73957   3.171   6.662   5.756  0.7399 -0.2172  0.1470
  561MOL0     C73958   3.046   6.658   5.840  0.2134 -0.0642 -0.6831
  561MOL0     C73959   2.923   6.663   5.756  0.9129 -0.0221  0.0841
  561MOL0     C73960   2.802   6.654   5.847 -0.8162 -1.0227  0.4973
  561MOL0     C73961   2.672   6.615   5.771 -0.5340 -0.6011 -0.1960
  561MOL0     C73962   2.684   6.460   5.728  0.4956  0.9908 -0.4267
  561MOL0     C73963   2.556   6.385   5.751  0.7285  0.4717  0.8419
  561MOL0    Cl73964   2.415   6.467   5.660 -0.2604 -0.3015 -0.5175
  561MOL0     C73965   3.514   6.835   6.020  0.4465  0.3691  0.4204
  561MOL0     C73966   3.627   6.834   6.103 -0.1298  0.7993  1.6800
  561MOL0     O73967   3.902   6.805   6.076 -0.1314  0.5187  0.3193
  561MOL0     C73968   4.006   6.719   6.412  0.3843 -1.2805 -0.1022
  561MOL0     C73969   4.119   6.702   6.484  0.1656  0.4999  0.3032
  561MOL0     N73970   4.682   6.342   6.728  0.7835 -1.0163  0.4865
  561MOL0     N73971   4.808   6.304   6.738 -0.0223  0.0063  0.5837
  561MOL0     C73972   6.090   6.569   7.278 -0.1357 -0.2345  0.3209
  561MOL0     C73973   6.178   6.630   7.364 -0.9923  0.0520 -0.1822
  561MOL0     C73974   6.351   7.005   7.599 -0.6092 -0.2020 -0.5781
  561MOL0     C73975   6.437   7.119   7.567 -0.1594  0.8477  0.2073
  561MOL0     C73976   6.495   7.189   7.672  0.3903 -0.3549 -0.1366
  561MOL0     C73977   6.471   7.160   7.804 -0.0393  0.8550 -0.3175
  561MOL0     O73978   6.530   7.231   7.905  0.5596 -0.2404 -0.3930
  561MOL0     C73979   6.512   7.378   7.899 -0.0904  0.6248 -0.4410
  561MOL0     C73980   6.645   7.445   7.926 -0.0509 -0.4944  0.4948
  561MOL0     C73981   6.637   7.599   7.936 -0.7424  0.6903  1.0777
  561MOL0     C73982   6.779   7.661   7.942  0.1323 -0.5028 -0.3271
  561MOL0     C73983   6.784   7.802   7.995 -0.0396 -0.1300  0.2110
  561MOL0     C73984   6.791   7.912   8.046 -0.2632  0.1527 -0.0971
  561MOL0     C73985   6.391   7.049   7.840 -0.5711 -1.4499  0.0953
  561MOL0     C73986   6.339   6.979   7.740  0.1103 -0.4166  0.1848
  561MOL0     H73987   5.968   6.843   7.536 -0.7628  1.8632 -2.2322
  561MOL0     H73988   5.807   6.723   7.402  0.2392 -0.7116  1.0672
  561MOL0     H73989   5.727   6.678   7.182 -1.3055 -0.0202 -0.4918
  561MOL0     H73990   5.679   6.524   7.271  1.3884 -3.5947 -1.1224
  561MOL0     H73991   5.726   6.408   7.041  1.0980 -0.3904 -0.1883
  561MOL0     H73992   5.722   6.568   6.973  0.9325  0.1106  0.9235
  561MOL0     H73993   5.508   6.616   7.091 -1.9322 -0.6118  2.2589
  561MOL0     H73994   5.507   6.443   7.149  1.4031 -1.8140 -1.4081
  561MOL0     H73995   5.480   6.567   6.864 -0.0686  1.0798  2.3463
  561MOL0     H73996   5.501   6.393   6.887 -1.6711 -1.0953 -1.8615
  561MOL0     H73997   5.286   6.573   6.979  2.3553  2.3352 -3.6265
  561MOL0     H73998   5.288   6.397   7.012 -2.1540  2.8719  2.3656
  561MOL0     H73999   5.272   6.335   6.795  0.7432 -0.0761  1.0238
  561MOL0     H74000   5.293   6.504   6.725 -0.6645 -0.4771 -0.8729
  561MOL0     H74001   5.058   6.562   6.858 -1.6390  0.6948 -2.6180
  561MOL0     H74002   5.056   6.483   6.696  3.3745 -1.3967 -1.7818
  561MOL0     H74003   5.014   6.363   6.987  2.2163 -3.3668  0.1314
  561MOL0     H74004   5.038   6.259   6.846 -0.2529  0.7518 -1.0805
  561MOL0     H74005   4.767   6.494   7.005  0.8165 -0.4346 -0.0811
  561MOL0     H74006   4.498   6.499   6.974 -2.0318 -1.6828 -1.0630
  561MOL0     H74007   4.441   6.448   6.821  1.3305 -4.1353  1.2169
  561MOL0     H74008   4.634   6.673   6.826  0.5492 -1.6858  1.0628
  561MOL0     H74009   4.457   6.713   6.860 -0.0779  1.6272 -0.4420
  561MOL0     H74010   4.545   6.769   6.648 -2.1990  0.8347  1.3610
  561MOL0     H74011   4.577   6.590   6.605 -0.4342 -1.5547  1.3864
  561MOL0     H74012   4.303   6.707   6.685 -0.6706 -0.0564  0.5787
  561MOL0     H74013   4.337   6.547   6.627 -0.4264  0.5621 -2.2096
  561MOL0     H74014   4.353   6.748   6.253 -0.1881 -0.7131  1.7789
  561MOL0     H74015   4.144   6.783   6.109  1.0460  0.1601  0.1767
  561MOL0     H74016   3.627   6.516   6.206  3.0440  1.8281  1.2911
  561MOL0     H74017   3.411   6.519   6.085 -0.3704  0.4817 -3.6572
  561MOL0     H74018   3.303   6.526   5.872  1.2730  0.1928 -0.0452
  561MOL0     H74019   3.379   6.634   5.754  0.3760 -1.7802  0.1740
  561MOL0     H74020   3.159   6.602   5.666 -2.3117  0.9599 -0.3489
  561MOL0     H74021   3.183   6.767   5.730  1.5219  0.5297  3.1637
  561MOL0     H74022   3.054   6.728   5.923  2.2029  0.1496 -0.9950
  561MOL0     H74023   3.032   6.555   5.876 -1.2622  0.1269 -0.6489
  561MOL0     H74024   2.907   6.745   5.685  0.6745 -0.2939 -0.1771
  561MOL0     H74025   2.920   6.578   5.688 -0.7400 -3.5974  4.1266
  561MOL0     H74026   2.792   6.750   5.897 -1.0949 -1.0468  0.4883
  561MOL0     H74027   2.815   6.583   5.929  2.1827 -0.3904  0.6842
  561MOL0     H74028   2.655   6.673   5.680  0.7999 -1.0145 -0.7355
  561MOL0     H74029   2.592   6.632   5.843  1.2311 -1.1151  2.0221
  561MOL0     H74030   2.711   6.452   5.622 -1.1911  2.1450 -0.9817
  561MOL0     H74031   2.766   6.413   5.783  1.7082  3.3733 -0.0900
  561MOL0     H74032   2.522   6.377   5.854 -1.3529  1.5504  0.3122
  561MOL0     H74033   2.554   6.283   5.711  1.1805  2.1969 -4.4328
  561MOL0     H74034   3.475   6.929   5.981  0.8636  0.1027 -0.6510
  561MOL0     H74035   3.684   6.927   6.108  2.5272 -0.3767 -2.0735
  561MOL0     H74036   3.907   6.709   6.456  0.9331  1.6280  2.1384
  561MOL0     H74037   4.097   6.664   6.584 -0.0298  0.2353  0.1604
  561MOL0     H74038   6.126   6.501   7.201 -2.6038 -1.5564  0.2089
  561MOL0     H74039   6.281   6.603   7.381 -0.0948  2.5394 -1.1848
  561MOL0     H74040   6.445   7.134   7.460 -2.4715 -2.6794 -0.6202
  561MOL0     H74041   6.545   7.284   7.655 -1.3762  0.5111 -0.7987
  561MOL0     H74042   6.446   7.414   7.978 -1.3326  0.5865 -1.4186
  561MOL0     H74043   6.469   7.402   7.801 -1.2097  1.3262  0.2000
  561MOL0     H74044   6.698   7.402   8.011  2.6378  2.5017  0.5327
  561MOL0     H74045   6.706   7.417   7.839 -2.2432 -1.6275 -0.7847
  561MOL0     H74046   6.569   7.629   8.016 -3.0481 -1.2014 -0.0612
  561MOL0     H74047   6.591   7.642   7.846 -0.9133  0.0580  0.8513
  561MOL0     H74048   6.842   7.614   8.018  0.0692 -1.8833 -1.0917
  561MOL0     H74049   6.827   7.658   7.844  1.9012 -0.3208  0.4912
  561MOL0     H74050   6.802   8.010   8.088 -1.0212 -0.3933  1.4394
  561MOL0     H74051   6.372   7.020   7.943  1.3709  0.2262  1.0095
  561MOL0     H74052   6.265   6.910   7.779  1.8937 -1.3134  2.1737
  562MOL0     O74053   1.442   5.910   8.889 -0.4134 -0.0355 -0.3020
  562MOL0     C74054   1.479   5.975   8.992  0.6268  0.3620  1.4267
  562MOL0     O74055   1.394   6.008   9.091  0.1905  1.0186  0.2553
  562MOL0     C74056   1.260   5.974   9.077 -0.2881 -0.4275  0.0852
  562MOL0     C74057   1.209   5.912   9.184 -0.2843 -0.5508 -0.2255
  562MOL0     C74058   1.073   5.871   9.179  0.3749 -0.3556 -0.1475
  562MOL0     C74059   0.989   5.900   9.061 -0.2787 -0.7785  0.2223
  562MOL0     O74060   0.864   5.846   9.058 -0.2116 -0.6437  0.0738
  562MOL0     C74061   0.771   5.878   8.950  0.8960  0.4838 -0.2861
  562MOL0     C74062   0.633   5.877   9.007 -0.4911 -0.8651  0.3964
  562MOL0     C74063   0.558   5.742   9.029 -0.4562  0.3780 -0.7587
  562MOL0     C74064   0.439   5.772   9.108 -0.5451  0.7162  0.7164
  562MOL0     C74065   0.360   5.640   9.132  0.2629  0.3518 -0.7188
  562MOL0     C74066   0.218   5.663   9.174  0.6718  0.1838  0.6636
  562MOL0     C74067   0.124   5.711   9.069 -0.6955 -0.1212 -0.4527
  562MOL0     C74068  -0.018   5.723   9.124 -0.7781 -0.6710 -0.1462
  562MOL0     N74069  -0.085   5.593   9.133 -1.0585  0.1661 -0.3137
  562MOL0     C74070  -0.127   5.527   9.021 -0.3015  0.0543 -0.3587
  562MOL0     C74071  -0.156   5.410   9.075  0.3642 -0.3981 -0.2015
  562MOL0     C74072  -0.209   5.291   8.994 -0.4086  0.2840 -0.0375
  562MOL0     C74073  -0.360   5.289   9.008 -0.0202 -0.3064  0.4460
  562MOL0     C74074  -0.426   5.159   8.969 -0.1032  0.6708 -0.2933
  562MOL0     C74075  -0.570   5.147   9.021 -0.1880 -0.3922 -0.4591
  562MOL0     O74076  -0.628   5.025   8.999 -0.4985  0.4516  0.1544
  562MOL0     C74077  -0.759   4.997   9.019  0.6405  0.2655 -0.0875
  562MOL0     C74078  -0.798   4.865   8.981 -0.1487 -0.5921 -0.2891
  562MOL0     C74079  -0.937   4.843   8.989  0.7070 -0.1420  0.3367
  562MOL0     C74080  -1.030   4.940   9.036  0.0224  0.3923  0.5585
  562MOL0     C74081  -1.174   4.911   9.043 -0.9912  0.0087 -0.9173
  562MOL0     O74082  -1.255   5.006   9.096 -0.6005  0.1738 -0.2082
  562MOL0     C74083  -1.396   5.005   9.097 -0.7209  0.0833 -0.5297
  562MOL0     C74084  -1.472   4.904   9.153 -0.3320  0.1019  1.2064
  562MOL0     C74085  -1.613   4.904   9.136 -0.7927 -0.1141  0.0550
  562MOL0     C74086  -1.677   5.010   9.065 -0.2051 -0.8005  0.0531
  562MOL0     O74087  -1.811   5.002   9.038  0.0970 -0.0930 -0.3626
  562MOL0     C74088  -1.878   5.071   8.938 -0.0630  0.2306  0.7562
  562MOL0     C74089  -1.979   5.167   9.016 -0.1329 -0.8690 -0.0680
  562MOL0     C74090  -2.099   5.085   9.081  0.8941 -0.3115 -1.3572
  562MOL0     C74091  -2.193   5.029   8.977  0.3982  0.2889  0.2499
  562MOL0     C74092  -2.329   4.985   9.038 -0.4086  0.4563 -0.2967
  562MOL0     C74093  -2.422   4.932   8.931 -0.0744  0.8514 -0.6362
  562MOL0     C74094  -2.551   4.886   9.011 -0.1896 -0.4070  0.0946
  562MOL0     C74095  -2.652   4.830   8.908 -0.5993 -0.1156 -0.0669
  562MOL0    Cl74096  -2.716   4.948   8.792 -0.0250  0.1707  0.1473
  562MOL0     C74097  -1.595   5.120   9.022 -0.2753  0.1092 -0.9394
  562MOL0     C74098  -1.458   5.119   9.048  0.6552 -0.0734  0.1686
  562MOL0     O74099  -1.214   4.809   8.992  0.3935 -0.4083  1.0256
  562MOL0     C74100  -0.982   5.066   9.070 -0.4996  0.3928 -0.6530
  562MOL0     C74101  -0.849   5.091   9.065  0.2262 -0.7978 -0.9471
  562MOL0     N74102  -0.126   5.404   9.213 -0.7134  0.0766 -0.7681
  562MOL0     N74103  -0.090   5.522   9.249 -0.3099 -0.5388  0.4087
  562MOL0     C74104   1.049   5.964   8.949 -0.3699 -0.0900  0.1602
  562MOL0     C74105   1.188   6.000   8.958  0.9395 -0.1821  0.8180
  562MOL0     C74106   1.625   6.011   9.004  0.3284  0.1656 -1.0107
  562MOL0     C74107   1.708   6.025   8.892 -0.1669 -0.6125  0.1907
  562MOL0     C74108   1.846   6.038   8.902 -0.0600  0.5081 -0.9220
  562MOL0     C74109   1.905   6.040   9.028  0.4411  0.4035  0.6809
  562MOL0     O74110   2.034   6.073   9.040  0.9181 -0.0062  0.8243
  562MOL0     C74111   2.116   5.973   8.987 -0.6028  0.2553 -0.3835
  562MOL0     C74112   2.231   6.032   8.899  0.4099 -0.6763  0.3249
  562MOL0     C74113   2.188   6.144   8.800  0.4924  0.0686  0.7566
  562MOL0     C74114   2.316   6.207   8.743  0.5692  0.7488  0.0372
  562MOL0     C74115   2.403   6.122   8.650 -0.2990 -0.0616  0.1720
  562MOL0     C74116   2.451   6.043   8.571 -0.2180 -0.2802  0.2958
  562MOL0     C74117   1.824   6.024   9.140 -0.2898  0.1263 -0.8813
  562MOL0     C74118   1.687   6.017   9.132 -0.4434  1.3991  0.1411
  562MOL0     H74119   1.290   5.883   9.250 -1.2944  1.7554  2.2129
  562MOL0     H74120   1.039   5.809   9.261 -0.2856  1.1147  0.7331
  562MOL0     H74121   0.775   5.802   8.871 -4.2512 -0.0646 -0.3669
  562MOL0     H74122   0.794   5.978   8.912 -1.2130  1.5518  1.0338
  562MOL0     H74123   0.577   5.951   8.949  0.0266 -0.9343 -0.2126
  562MOL0     H74124   0.648   5.906   9.111  5.2353 -0.1578 -0.3249
  562MOL0     H74125   0.626   5.680   9.087 -3.2146 -0.2914  2.0238
  562MOL0     H74126   0.548   5.698   8.929 -0.3330 -0.2940 -0.4799
  562MOL0     H74127   0.478   5.804   9.205  0.3481  1.4302  0.1472
  562MOL0     H74128   0.380   5.852   9.063 -0.1038  1.4135  1.3494
  562MOL0     H74129   0.416   5.575   9.199  1.3520  0.6152 -1.3443
  562MOL0     H74130   0.344   5.580   9.042 -1.0850 -1.5159  0.6874
  562MOL0     H74131   0.225   5.741   9.250 -0.7602  1.0789 -0.0899
  562MOL0     H74132   0.187   5.568   9.220 -2.0695 -0.2950 -1.8417
  562MOL0     H74133   0.161   5.811   9.046 -1.4388 -0.0004 -1.1736
  562MOL0     H74134   0.135   5.641   8.986  2.1624  0.0692 -0.3240
  562MOL0     H74135  -0.075   5.785   9.054  2.7504 -1.1463 -3.7999
  562MOL0     H74136  -0.004   5.770   9.222  2.1531 -2.0980  0.2268
  562MOL0     H74137  -0.142   5.559   8.918 -0.8014 -1.3970 -0.7598
  562MOL0     H74138  -0.173   5.195   9.031 -1.9233 -0.2465  0.1292
  562MOL0     H74139  -0.187   5.308   8.888 -3.0639  1.9098 -0.4245
  562MOL0     H74140  -0.406   5.370   8.951  2.4617 -1.4086 -3.5253
  562MOL0     H74141  -0.386   5.311   9.112 -0.4762 -0.3338  0.3415
  562MOL0     H74142  -0.420   5.124   8.866 -1.8414 -3.4762  0.7890
  562MOL0     H74143  -0.370   5.076   9.014  2.2032  1.2778 -1.8836
  562MOL0     H74144  -0.624   5.225   8.965  0.7572  0.0102 -0.8291
  562MOL0     H74145  -0.563   5.171   9.127 -1.0153  0.4884 -0.5874
  562MOL0     H74146  -0.719   4.798   8.949 -0.2985  0.4498 -3.2294
  562MOL0     H74147  -0.985   4.754   8.948  0.6436 -1.1189  2.4111
  562MOL0     H74148  -1.426   4.816   9.196  0.6350  0.8875  1.8253
  562MOL0     H74149  -1.674   4.819   9.166  0.1420 -0.3838  1.2765
  562MOL0     H74150  -1.931   4.994   8.881  2.2343 -1.8011  1.2002
  562MOL0     H74151  -1.807   5.124   8.874 -1.5503  1.7498  0.2977
  562MOL0     H74152  -2.024   5.235   8.943  0.7079 -1.7769 -1.4868
  562MOL0     H74153  -1.923   5.228   9.088 -1.0543 -1.1319  0.8925
  562MOL0     H74154  -2.160   5.152   9.141  3.5210 -0.2823  1.5229
  562MOL0     H74155  -2.060   5.009   9.149 -0.2437  0.7566  0.5661
  562MOL0     H74156  -2.200   5.105   8.898 -0.0942  0.2719  0.2727
  562MOL0     H74157  -2.155   4.943   8.921  1.5005  0.9023  0.0144
  562MOL0     H74158  -2.364   5.068   9.100 -1.1442 -1.2591  1.6991
  562MOL0     H74159  -2.309   4.906   9.111 -0.2525  2.2984  1.7711
  562MOL0     H74160  -2.374   4.852   8.874  0.6431  0.7237  0.1453
  562MOL0     H74161  -2.444   5.009   8.856 -2.9819  0.1772 -0.6233
  562MOL0     H74162  -2.524   4.814   9.089 -0.0603 -0.9320 -0.4298
  562MOL0     H74163  -2.587   4.978   9.058 -1.1025 -1.0787  0.7743
  562MOL0     H74164  -2.741   4.799   8.963 -0.3512  1.8224  1.5163
  562MOL0     H74165  -2.622   4.739   8.855  0.5348  0.9680 -1.3673
  562MOL0     H74166  -1.641   5.204   8.970  0.9957 -0.3668 -2.9287
  562MOL0     H74167  -1.388   5.196   9.017 -0.7598  1.0037 -0.4988
  562MOL0     H74168  -1.043   5.148   9.107 -0.2986  0.3192 -0.1530
  562MOL0     H74169  -0.817   5.190   9.094  0.2734 -0.4445 -2.1659
  562MOL0     H74170   0.996   5.997   8.860  0.9127  0.1603 -0.5330
  562MOL0     H74171   1.226   6.061   8.877 -0.5901 -3.3499 -2.6053
  562MOL0     H74172   1.669   6.034   8.791  3.2825 -2.6980 -1.5333
  562MOL0     H74173   1.900   6.046   8.808 -0.4935  5.8233 -1.0401
  562MOL0     H74174   2.059   5.893   8.939 -2.6359  2.3352 -1.6357
  562MOL0     H74175   2.172   5.933   9.072  0.2583 -1.5316 -1.7064
  562MOL0     H74176   2.300   6.080   8.968  0.1212  1.5876 -0.8575
  562MOL0     H74177   2.291   5.956   8.848 -1.0181 -3.2716  2.2605
  562MOL0     H74178   2.143   6.231   8.848  2.0458 -0.7477  3.9711
  562MOL0     H74179   2.131   6.105   8.715  1.4148 -2.1620  1.1059
  562MOL0     H74180   2.293   6.295   8.682 -0.9189 -0.1985 -0.8322
  562MOL0     H74181   2.379   6.244   8.825 -0.7981  3.3299  0.0351
  562MOL0     H74182   2.492   5.965   8.510 -0.0078  1.5201 -1.9726
  562MOL0     H74183   1.871   6.031   9.238 -0.2626 -1.6713 -0.7337
  562MOL0     H74184   1.629   6.003   9.223  1.6219 -2.0296  1.1405
  563MOL0     O74185   4.723   7.162   9.746  0.7175 -0.6075 -0.0505
  563MOL0     C74186   4.642   7.115   9.662  0.0239  0.2344  0.1729
  563MOL0     O74187   4.628   7.156   9.536 -0.6326 -0.0566  0.5682
  563MOL0     C74188   4.682   7.276   9.495 -0.6451 -0.1433 -0.4015
  563MOL0     C74189   4.666   7.400   9.570  0.1213 -0.2333 -0.5132
  563MOL0     C74190   4.710   7.522   9.535  0.1706  0.1821 -1.0837
  563MOL0     C74191   4.775   7.526   9.416 -0.4736 -0.9402 -0.1837
  563MOL0     O74192   4.794   7.649   9.355  0.7875  0.3442  0.3490
  563MOL0     C74193   4.736   7.655   9.218 -0.4413 -0.3359  0.3735
  563MOL0     C74194   4.582   7.655   9.214 -0.0886 -0.3361  0.4284
  563MOL0     C74195   4.523   7.515   9.210 -0.0592  0.2855 -0.1112
  563MOL0     C74196   4.381   7.531   9.154 -0.1993  0.5469  0.3763
  563MOL0     C74197   4.312   7.399   9.165 -0.0389 -0.1756 -1.0385
  563MOL0     C74198   4.170   7.398   9.104  0.0251  0.4083  0.0397
  563MOL0     C74199   4.091   7.269   9.127 -1.2320  0.6246  0.4781
  563MOL0     C74200   3.943   7.291   9.109  0.1275 -0.4757 -1.2087
  563MOL0     N74201   3.879   7.310   9.243 -0.8260 -0.5405 -0.1225
  563MOL0     C74202   3.866   7.432   9.307 -0.3828  0.5676 -0.9794
  563MOL0     C74203   3.790   7.409   9.420  0.1036 -0.2671  0.5730
  563MOL0     C74204   3.762   7.516   9.527  0.7036  0.3346  0.2754
  563MOL0     C74205   3.646   7.466   9.616  0.4345 -0.0288  0.8610
  563MOL0     C74206   3.684   7.350   9.715  0.2288 -1.2200  0.3221
  563MOL0     C74207   3.552   7.279   9.743 -0.7429 -0.5124  0.3030
  563MOL0     O74208   3.500   7.363   9.840  0.2910 -0.6320  0.0463
  563MOL0     C74209   3.363   7.375   9.849  0.2906 -0.0613 -0.0681
  563MOL0     C74210   3.303   7.472   9.924 -0.4854 -0.5745 -0.0750
  563MOL0     C74211   3.166   7.473   9.958 -0.5457 -0.4416 -0.3461
  563MOL0     C74212   3.078   7.376   9.907 -0.0925 -0.0132  0.7514
  563MOL0     C74213   2.930   7.383   9.941  0.5137 -0.4035 -0.0304
  563MOL0     O74214   2.881   7.471  10.032  0.3439 -0.5921  0.1606
  563MOL0     C74215   2.742   7.469  10.043  0.0564 -0.5603  0.0832
  563MOL0     C74216   2.690   7.432  10.165 -0.7923  0.2780 -0.0329
  563MOL0     C74217   2.548   7.435  10.188 -0.2269 -0.7373  0.4320
  563MOL0     C74218   2.466   7.489  10.095  0.3975  0.3703  0.5642
  563MOL0     O74219   2.332   7.507  10.097  0.2596  0.0358  0.6051
  563MOL0     C74220   2.294   7.585  10.212  0.0348  0.5920  0.0293
  563MOL0     C74221   2.158   7.658  10.166  0.0746  0.5262  0.4228
  563MOL0     C74222   2.100   7.734  10.284  0.6214 -0.2390  0.4337
  563MOL0     C74223   1.970   7.819  10.262  1.0025  0.0697  0.3804
  563MOL0     C74224   1.924   7.883  10.385  0.0850 -0.6224 -0.1554
  563MOL0     C74225   1.844   7.788  10.478  1.1612 -0.6208 -1.0749
  563MOL0     C74226   1.793   7.862  10.607  0.1080 -0.2186  0.2673
  563MOL0     C74227   1.697   7.796  10.705 -0.5851 -0.3567 -0.8108
  563MOL0    Cl74228   1.652   7.908  10.839  0.2049  0.3225 -0.3406
  563MOL0     C74229   2.517   7.521   9.972  0.5684  0.4780  0.2835
  563MOL0     C74230   2.662   7.503   9.943  0.3955  0.4749  0.6707
  563MOL0     O74231   2.865   7.288   9.888  0.2622 -0.3484  0.9599
  563MOL0     C74232   3.133   7.287   9.811 -0.2555 -1.0426 -0.5680
  563MOL0     C74233   3.278   7.283   9.790  0.3408 -0.1112  0.3721
  563MOL0     N74234   3.759   7.277   9.411 -0.2688  0.0498  0.5820
  563MOL0     N74235   3.817   7.217   9.314 -0.1460 -0.4975 -0.0300
  563MOL0     C74236   4.810   7.412   9.343  0.8171  0.4565 -1.1728
  563MOL0     C74237   4.747   7.290   9.374 -0.3322  0.3970 -0.8437
  563MOL0     C74238   4.554   7.008   9.700  0.3139  0.3915  0.3489
  563MOL0     C74239   4.490   7.023   9.823 -0.2729  0.8566 -0.6747
  563MOL0     C74240   4.403   6.922   9.871 -0.5652  0.4174  0.3528
  563MOL0     C74241   4.375   6.814   9.795 -0.0199 -0.1139  0.0566
  563MOL0     O74242   4.283   6.730   9.854  0.0377  0.1790 -0.4993
  563MOL0     C74243   4.285   6.596   9.807  0.5152 -1.6634 -1.6527
  563MOL0     C74244   4.187   6.533   9.893 -0.9024 -0.0641  0.1611
  563MOL0     C74245   4.166   6.383   9.864  0.5109  0.3528  0.1876
  563MOL0     C74246   4.266   6.293   9.934  0.4825  0.0418 -0.3121
  563MOL0     C74247   4.272   6.324  10.083  0.1286  1.2166  1.6968
  563MOL0     C74248   4.280   6.358  10.200 -0.2176 -0.1046  0.2829
  563MOL0     C74249   4.435   6.792   9.667  0.6957 -0.4715  0.1685
  563MOL0     C74250   4.526   6.888   9.622 -0.1823  0.9351 -0.3225
  563MOL0     H74251   4.603   7.381   9.656  2.2516 -1.6494  0.8564
  563MOL0     H74252   4.680   7.610   9.590  0.2150  0.6172 -1.7464
  563MOL0     H74253   4.761   7.573   9.150 -3.1049 -0.8254 -0.1010
  563MOL0     H74254   4.784   7.748   9.186 -1.4514  0.3522  0.8312
  563MOL0     H74255   4.542   7.718   9.134 -1.8838  1.8994  2.8922
  563MOL0     H74256   4.552   7.711   9.303  0.0099 -2.0854  1.6082
  563MOL0     H74257   4.517   7.465   9.308 -0.8021  0.1734 -0.2090
  563MOL0     H74258   4.580   7.454   9.139 -1.7518 -2.3873  0.6512
  563MOL0     H74259   4.324   7.605   9.211 -0.3183  0.4525  0.3775
  563MOL0     H74260   4.382   7.566   9.050 -4.1102  3.4172  1.0747
  563MOL0     H74261   4.295   7.374   9.270  1.8132 -0.9359 -0.8691
  563MOL0     H74262   4.373   7.320   9.119 -0.0497 -0.7524 -0.0854
  563MOL0     H74263   4.172   7.431   9.000 -2.7572  0.4154 -0.0851
  563MOL0     H74264   4.109   7.467   9.163 -0.0205  0.6384 -0.2708
  563MOL0     H74265   4.124   7.201   9.048 -2.4517  2.1514 -1.4630
  563MOL0     H74266   4.106   7.228   9.227  2.1446  1.9326  0.6453
  563MOL0     H74267   3.906   7.198   9.065  0.4004 -0.3340 -1.7500
  563MOL0     H74268   3.922   7.381   9.050 -2.2001 -0.4719 -0.4833
  563MOL0     H74269   3.912   7.527   9.284  2.3440 -0.1195  1.1062
  563MOL0     H74270   3.735   7.609   9.477 -1.6776 -0.5704 -0.2600
  563MOL0     H74271   3.853   7.533   9.586  1.2065  1.4582 -0.7793
  563MOL0     H74272   3.578   7.425   9.541 -0.4778 -0.5088  1.9196
  563MOL0     H74273   3.591   7.545   9.668  0.4386  0.5836 -0.0382
  563MOL0     H74274   3.754   7.282   9.666  1.8062 -0.1067  0.9208
  563MOL0     H74275   3.729   7.390   9.806  1.7318 -0.9846 -0.4880
  563MOL0     H74276   3.579   7.179   9.781 -2.7821 -0.5038  1.8952
  563MOL0     H74277   3.497   7.270   9.649  0.9209  0.8734 -0.8774
  563MOL0     H74278   3.369   7.549   9.964  0.2282  0.4895 -3.0140
  563MOL0     H74279   3.112   7.546  10.017 -0.3479  1.6407 -2.6056
  563MOL0     H74280   2.767   7.395  10.233 -1.3744 -0.9342 -0.0081
  563MOL0     H74281   2.515   7.399  10.284  0.4178 -0.0841  0.9060
  563MOL0     H74282   2.378   7.654  10.226  0.1146  1.1546 -2.6652
  563MOL0     H74283   2.267   7.518  10.295  0.1773 -3.0508 -2.6406
  563MOL0     H74284   2.082   7.589  10.126  0.2390  1.7068 -2.1315
  563MOL0     H74285   2.173   7.723  10.079  2.0205  0.7615  0.9079
  563MOL0     H74286   2.183   7.795  10.318  2.2464 -1.8876 -0.3954
  563MOL0     H74287   2.088   7.654  10.357  0.0625 -0.3357  0.2421
  563MOL0     H74288   1.981   7.890  10.180 -4.2144 -1.3949 -1.9920
  563MOL0     H74289   1.892   7.751  10.226  1.9652 -1.2858  0.7821
  563MOL0     H74290   1.861   7.968  10.358 -0.4647 -1.2649 -0.9192
  563MOL0     H74291   2.010   7.928  10.435 -2.5367  2.9794  1.5593
  563MOL0     H74292   1.895   7.696  10.507 -0.5111 -1.7919 -1.7386
  563MOL0     H74293   1.759   7.749  10.421  0.9173  1.9519 -2.6799
  563MOL0     H74294   1.884   7.893  10.659  1.0836 -0.1901 -1.3967
  563MOL0     H74295   1.758   7.961  10.576 -1.1965 -1.4813 -2.5886
  563MOL0     H74296   1.751   7.708  10.740 -0.9934 -0.0713  0.5932
  563MOL0     H74297   1.607   7.773  10.646 -1.6918 -0.6471  0.9271
  563MOL0     H74298   2.449   7.552   9.893 -1.0634  1.3670  1.9672
  563MOL0     H74299   2.706   7.515   9.845 -1.7325 -2.8911 -0.8659
  563MOL0     H74300   3.068   7.213   9.766 -1.0293 -0.7720  0.0781
  563MOL0     H74301   3.324   7.196   9.745  0.1603  1.3793 -2.9988
  563MOL0     H74302   4.867   7.427   9.251  1.1749  1.9123 -0.7481
  563MOL0     H74303   4.767   7.206   9.309  2.8840  0.9855 -0.8077
  563MOL0     H74304   4.519   7.108   9.883 -1.4403 -1.3181  3.2992
  563MOL0     H74305   4.356   6.925   9.969  0.1543  0.3147  0.7096
  563MOL0     H74306   4.388   6.557   9.813  0.4559 -1.7767 -1.3937
  563MOL0     H74307   4.252   6.583   9.703  2.3719 -3.0011 -2.1484
  563MOL0     H74308   4.212   6.554   9.997 -2.0123  0.3149  0.3583
  563MOL0     H74309   4.097   6.590   9.869  0.2679  0.4967 -3.4537
  563MOL0     H74310   4.169   6.384   9.754 -1.1758  2.0430  0.1032
  563MOL0     H74311   4.065   6.358   9.899  0.5086 -0.2020 -0.1877
  563MOL0     H74312   4.228   6.193   9.913 -2.0651  0.9018 -0.1779
  563MOL0     H74313   4.363   6.288   9.883 -0.3228  0.4697 -1.9671
  563MOL0     H74314   4.293   6.403  10.296 -2.4104  1.9565 -0.2721
  563MOL0     H74315   4.401   6.715   9.599 -2.8287  0.0204  1.1624
  563MOL0     H74316   4.586   6.878   9.531 -1.0284 -0.0118 -0.7958
  564MOL0     O74317   9.143   5.222   1.488  0.4346 -0.7400  0.2610
  564MOL0     C74318   9.200   5.118   1.455  0.5201  0.4514  0.1095
  564MOL0     O74319   9.141   5.014   1.400  0.3773 -0.8676  1.0700
  564MOL0     C74320   9.012   5.024   1.374 -0.2501  0.0642 -0.4364
  564MOL0     C74321   8.921   5.025   1.479 -0.3090 -0.1725 -1.1887
  564MOL0     C74322   8.782   5.039   1.460 -1.0132  0.4692  0.9059
  564MOL0     C74323   8.731   5.034   1.325 -0.6634 -0.0262 -0.6422
  564MOL0     O74324   8.595   5.032   1.296 -0.0945 -0.3380 -0.1950
  564MOL0     C74325   8.511   4.945   1.376  0.1821 -0.8982 -0.4661
  564MOL0     C74326   8.388   4.913   1.283  0.8022 -0.2542 -0.0016
  564MOL0     C74327   8.292   5.035   1.238 -0.7808  1.3064 -0.5505
  564MOL0     C74328   8.183   4.972   1.161 -0.1685  0.3780 -0.4902
  564MOL0     C74329   8.086   5.081   1.104  0.5677 -0.8005 -0.4999
  564MOL0     C74330   7.993   5.023   0.999 -0.2043 -0.0786 -0.7450
  564MOL0     C74331   7.899   5.133   0.952  0.4562 -0.6483 -0.0646
  564MOL0     C74332   7.769   5.071   0.882 -0.5399  0.4506 -0.4016
  564MOL0     N74333   7.666   5.011   0.973  0.0213 -0.0867  1.1512
  564MOL0     C74334   7.575   5.077   1.048  0.9512  0.6485 -0.0108
  564MOL0     C74335   7.494   4.979   1.096  0.7086  0.0571  0.1486
  564MOL0     C74336   7.380   4.993   1.200  0.0593  0.4836 -0.0891
  564MOL0     C74337   7.236   5.031   1.138 -0.6475 -0.2149 -0.6911
  564MOL0     C74338   7.133   4.999   1.252 -0.2549 -0.2744  1.1066
  564MOL0     C74339   6.993   5.053   1.220  0.1738  0.4782 -0.2678
  564MOL0     O74340   6.918   5.038   1.343  0.3028 -0.3421 -0.2869
  564MOL0     C74341   6.783   5.051   1.344 -0.1492  0.2854  0.6717
  564MOL0     C74342   6.716   5.146   1.266 -0.2811 -0.0490 -1.8245
  564MOL0     C74343   6.580   5.151   1.255  0.6117  0.0903 -0.1294
  564MOL0     C74344   6.496   5.073   1.337 -1.0999 -0.2141  0.0785
  564MOL0     C74345   6.350   5.104   1.352 -0.5551 -0.4037 -0.8372
  564MOL0     O74346   6.297   5.223   1.318  0.1614 -0.4313  0.1018
  564MOL0     C74347   6.159   5.243   1.340 -0.2273  0.3556  0.4100
  564MOL0     C74348   6.085   5.274   1.228  0.2709  0.2714  0.2569
  564MOL0     C74349   5.945   5.280   1.228 -0.6589 -0.2400 -0.1195
  564MOL0     C74350   5.873   5.274   1.345 -0.2454 -0.2511 -0.1063
  564MOL0     O74351   5.736   5.289   1.367 -0.4072 -0.0370 -0.3158
  564MOL0     C74352   5.644   5.275   1.261 -0.2337 -0.5504 -0.4075
  564MOL0     C74353   5.508   5.330   1.311 -0.7359 -0.4087  0.8661
  564MOL0     C74354   5.421   5.214   1.352 -0.0649  0.0259  0.1870
  564MOL0     C74355   5.285   5.256   1.402  0.0841 -0.1603  0.4665
  564MOL0     C74356   5.213   5.147   1.477  0.2578 -0.4276  0.7970
  564MOL0     C74357   5.166   5.029   1.383 -0.2034  0.0736  0.3673
  564MOL0     C74358   5.090   4.915   1.456 -0.0740 -0.4308 -0.4598
  564MOL0     C74359   5.018   4.827   1.360  0.3499 -0.4988 -0.1821
  564MOL0    Cl74360   4.873   4.898   1.282 -0.2322 -0.1274 -0.2007
  564MOL0     C74361   5.948   5.241   1.455 -0.0425  0.4889 -1.5769
  564MOL0     C74362   6.083   5.228   1.460 -0.9192  0.0741 -0.4482
  564MOL0     O74363   6.285   5.003   1.378  0.3517  0.1164 -1.0313
  564MOL0     C74364   6.562   4.974   1.414 -0.9257 -0.1312  0.9593
  564MOL0     C74365   6.698   4.959   1.408  0.5153 -0.6442  0.2519
  564MOL0     N74366   7.536   4.857   1.048 -0.1352 -0.3479  0.1871
  564MOL0     N74367   7.641   4.878   0.963 -0.1715  0.3391 -0.5954
  564MOL0     C74368   8.827   5.019   1.220 -0.1774 -0.2487 -0.2300
  564MOL0     C74369   8.962   5.016   1.246 -0.1630  0.0898 -0.8363
  564MOL0     C74370   9.335   5.100   1.500 -0.0030 -1.7549  0.9079
  564MOL0     C74371   9.400   5.218   1.539 -0.0832 -0.9421 -0.2235
  564MOL0     C74372   9.530   5.211   1.580 -0.6001 -0.0968  0.1197
  564MOL0     C74373   9.595   5.088   1.596 -0.1045  0.5778 -0.1311
  564MOL0     O74374   9.709   5.064   1.664 -0.3507 -0.6459 -0.2060
  564MOL0     C74375   9.756   5.173   1.737 -0.7284  0.2080 -0.2611
  564MOL0     C74376   9.877   5.124   1.820 -0.3859 -0.3525  0.5621
  564MOL0     C74377   9.981   5.048   1.739 -0.2179 -0.1558 -0.3481
  564MOL0     C74378  10.113   5.018   1.815  0.1257 -0.0213  0.1300
  564MOL0     C74379  10.205   5.136   1.809  0.0841 -0.5675 -0.6577
  564MOL0     C74380  10.279   5.223   1.790 -0.0784  0.2045 -0.3309
  564MOL0     C74381   9.529   4.977   1.549  0.3890 -0.9460  0.2053
  564MOL0     C74382   9.404   4.987   1.500  0.5273 -0.0224 -0.0511
  564MOL0     H74383   8.967   5.014   1.577  0.5250  0.7439 -1.4671
  564MOL0     H74384   8.711   5.049   1.541 -3.6183 -1.7560 -0.9414
  564MOL0     H74385   8.473   4.998   1.464 -3.3616  0.0847 -2.3788
  564MOL0     H74386   8.562   4.852   1.402  1.1340 -1.3308 -3.4443
  564MOL0     H74387   8.323   4.846   1.341 -1.5474  1.6397 -0.3073
  564MOL0     H74388   8.417   4.864   1.189  2.6814  2.3308 -0.8670
  564MOL0     H74389   8.353   5.110   1.187 -0.3675  2.6091  1.6849
  564MOL0     H74390   8.268   5.089   1.330  2.4358  0.2754  1.0635
  564MOL0     H74391   8.210   4.901   1.082  0.9274 -2.1497  1.9667
  564MOL0     H74392   8.137   4.909   1.238  0.7450 -2.6160 -2.2122
  564MOL0     H74393   8.132   5.175   1.070 -0.2743  0.0397  0.5761
  564MOL0     H74394   8.020   5.117   1.183  0.2509  1.5977 -1.7490
  564MOL0     H74395   7.939   4.934   1.033 -0.6892  0.7412  0.6904
  564MOL0     H74396   8.042   4.986   0.908 -1.3923 -0.8309 -1.0973
  564MOL0     H74397   7.877   5.194   1.041 -0.2514 -1.5971  0.4332
  564MOL0     H74398   7.938   5.199   0.875  0.3678  1.8173  1.8621
  564MOL0     H74399   7.814   5.002   0.809  0.9405  0.9460  0.0146
  564MOL0     H74400   7.714   5.144   0.822  0.8902  0.8006 -1.3442
  564MOL0     H74401   7.574   5.178   1.088  1.3451  0.3743  0.7172
  564MOL0     H74402   7.402   5.061   1.283 -2.7987  1.1035  0.2480
  564MOL0     H74403   7.364   4.899   1.255 -0.9544  0.9122  0.3635
  564MOL0     H74404   7.205   4.974   1.051 -0.1121 -0.9355 -0.4237
  564MOL0     H74405   7.246   5.138   1.119  0.2297 -0.1684 -0.0524
  564MOL0     H74406   7.136   4.890   1.262  2.8299 -0.6495 -1.8216
  564MOL0     H74407   7.172   5.042   1.345  1.9526  1.5947 -0.5457
  564MOL0     H74408   6.951   5.002   1.133 -0.5398  1.2041 -0.3607
  564MOL0     H74409   6.986   5.159   1.193 -0.5074  0.5660  0.2293
  564MOL0     H74410   6.776   5.227   1.226  0.6503 -0.2874 -0.9478
  564MOL0     H74411   6.524   5.222   1.196  1.0974  0.7440  0.1821
  564MOL0     H74412   6.142   5.296   1.138  2.1646  1.2147  1.6036
  564MOL0     H74413   5.888   5.284   1.136 -2.6487 -2.1857  0.9441
  564MOL0     H74414   5.640   5.172   1.227  1.6893 -1.6104  2.2499
  564MOL0     H74415   5.677   5.348   1.187 -0.4692  1.4314  1.3318
  564MOL0     H74416   5.463   5.387   1.229  3.9472  0.2175 -1.6197
  564MOL0     H74417   5.530   5.384   1.403  0.6984 -3.7826  2.6749
  564MOL0     H74418   5.477   5.152   1.423 -0.1099 -1.4388 -0.9843
  564MOL0     H74419   5.411   5.139   1.272 -0.1517  1.5751 -1.3089
  564MOL0     H74420   5.305   5.333   1.476  1.5204  0.1809 -0.2410
  564MOL0     H74421   5.223   5.282   1.315 -0.2835 -3.3651 -0.3804
  564MOL0     H74422   5.125   5.192   1.524  0.7911 -0.2717  1.6630
  564MOL0     H74423   5.277   5.108   1.556  1.0062 -0.2837  0.2765
  564MOL0     H74424   5.244   4.988   1.318 -2.3233  1.2219 -3.1599
  564MOL0     H74425   5.091   5.061   1.311 -0.9528 -1.6279  0.3455
  564MOL0     H74426   5.154   4.848   1.513  0.5652 -1.1617 -1.9840
  564MOL0     H74427   5.017   4.959   1.524  0.3018 -1.1063  0.3936
  564MOL0     H74428   4.985   4.738   1.415  2.2428 -1.6299 -0.8162
  564MOL0     H74429   5.086   4.785   1.286 -2.8080  0.2111 -3.7927
  564MOL0     H74430   5.894   5.218   1.546  0.9437 -3.5991 -1.8175
  564MOL0     H74431   6.141   5.213   1.551  0.4808  0.1517 -1.2834
  564MOL0     H74432   6.501   4.902   1.469 -1.2985 -0.8168 -0.3019
  564MOL0     H74433   6.743   4.877   1.462 -2.0681 -2.0978  0.3204
  564MOL0     H74434   8.788   5.000   1.121  0.6941 -0.2231 -0.5871
  564MOL0     H74435   9.031   5.011   1.162  1.2751  2.1090  0.1431
  564MOL0     H74436   9.348   5.313   1.547 -0.6188 -1.0268 -2.2090
  564MOL0     H74437   9.578   5.298   1.624  2.0181 -2.9309  3.5255
  564MOL0     H74438   9.679   5.210   1.806 -0.4765 -1.3891  0.9314
  564MOL0     H74439   9.795   5.241   1.661  1.1788 -0.2456  0.2473
  564MOL0     H74440   9.920   5.214   1.865 -2.4448  1.3513 -0.6490
  564MOL0     H74441   9.845   5.059   1.902  3.3627 -0.0468  2.4846
  564MOL0     H74442  10.004   5.083   1.638  2.2435 -0.7730 -0.0618
  564MOL0     H74443   9.950   4.947   1.710 -0.1432 -0.4771  0.6761
  564MOL0     H74444  10.087   4.982   1.915 -2.2935 -1.2677 -0.8639
  564MOL0     H74445  10.178   4.950   1.757 -0.0630  0.7409 -1.0021
  564MOL0     H74446  10.343   5.309   1.797 -1.5877  1.6070 -2.5084
  564MOL0     H74447   9.588   4.886   1.548 -2.4205 -2.9204  1.2975
  564MOL0     H74448   9.350   4.898   1.472 -2.1760  0.8775  1.9383
  565MOL0     O74449  10.069   3.468   6.790  0.8211  0.3783  0.4158
  565MOL0     C74450  10.108   3.358   6.746  0.4538 -0.7614 -0.1378
  565MOL0     O74451  10.021   3.280   6.676 -0.0074 -0.0765  0.2419
  565MOL0     C74452   9.893   3.321   6.650 -0.4997 -0.3606 -0.7765
  565MOL0     C74453   9.806   3.327   6.758  0.4598  0.3585 -0.3408
  565MOL0     C74454   9.672   3.365   6.751 -0.1601  0.2399 -0.4521
  565MOL0     C74455   9.618   3.397   6.629 -0.2839 -0.4339 -0.1260
  565MOL0     O74456   9.488   3.434   6.628 -0.0437 -0.5229  0.6137
  565MOL0     C74457   9.429   3.491   6.509 -0.8350  0.1136 -0.1471
  565MOL0     C74458   9.279   3.526   6.547 -0.2308 -0.0135 -0.1272
  565MOL0     C74459   9.224   3.584   6.413 -0.4299 -0.3254 -1.0754
  565MOL0     C74460   9.093   3.646   6.436  0.3261  0.7113  0.1654
  565MOL0     C74461   9.027   3.681   6.301  0.2153  0.3042 -0.5644
  565MOL0     C74462   8.883   3.734   6.311 -0.3823 -0.6664  0.3298
  565MOL0     C74463   8.831   3.763   6.169 -1.2392  0.0253  0.2599
  565MOL0     C74464   8.717   3.864   6.167 -0.1445 -0.2424  0.3843
  565MOL0     N74465   8.676   3.870   6.026  0.7241  0.9118  0.6184
  565MOL0     C74466   8.556   3.822   5.983  0.5263 -0.7000 -0.3905
  565MOL0     C74467   8.551   3.855   5.855 -0.8029  0.5357  0.7019
  565MOL0     C74468   8.436   3.832   5.770  0.0316  0.6627  0.1855
  565MOL0     C74469   8.306   3.891   5.819  0.1833  0.2283 -0.6426
  565MOL0     C74470   8.314   4.046   5.846  0.6343 -1.2479 -0.7785
  565MOL0     C74471   8.178   4.089   5.906  0.0917  0.6471  0.8127
  565MOL0     O74472   8.206   4.221   5.954  0.0208 -0.0205  0.1131
  565MOL0     C74473   8.090   4.286   5.983 -0.1452 -0.0369 -1.3695
  565MOL0     C74474   7.978   4.298   5.909  0.4217 -0.0865  0.7358
  565MOL0     C74475   7.863   4.370   5.944  0.1455  0.2300  0.2726
  565MOL0     C74476   7.871   4.446   6.063  0.4503 -0.6431 -0.2320
  565MOL0     C74477   7.747   4.515   6.106 -0.0459  0.3283  0.9331
  565MOL0     O74478   7.657   4.563   6.014  0.7385  0.1496  0.0855
  565MOL0     C74479   7.531   4.615   6.056 -0.2845  0.6620  0.2873
  565MOL0     C74480   7.515   4.700   6.170  0.3485 -0.5166  0.1766
  565MOL0     C74481   7.389   4.745   6.191 -0.7989 -0.0346 -0.2055
  565MOL0     C74482   7.277   4.717   6.121  0.1929 -0.0029  0.0234
  565MOL0     O74483   7.155   4.769   6.147  0.3321 -0.3522 -0.6289
  565MOL0     C74484   7.127   4.858   6.264 -1.1813 -0.6896 -0.4399
  565MOL0     C74485   6.982   4.892   6.275 -1.3393  0.4011 -0.2290
  565MOL0     C74486   6.889   4.773   6.276  1.2597  0.4845  0.2269
  565MOL0     C74487   6.745   4.831   6.302  0.1872  0.8536 -0.6600
  565MOL0     C74488   6.640   4.715   6.316 -0.2514 -0.0650  0.6704
  565MOL0     C74489   6.596   4.674   6.178 -0.0077 -0.4151 -0.2627
  565MOL0     C74490   6.478   4.593   6.173  0.2234 -0.5978 -0.5053
  565MOL0     C74491   6.466   4.507   6.059 -0.3345  0.5527 -0.0359
  565MOL0    Cl74492   6.593   4.374   6.072  0.5603 -0.2427 -0.3089
  565MOL0     C74493   7.294   4.638   6.007 -0.0444  0.5470  0.1166
  565MOL0     C74494   7.421   4.591   5.972  0.2980 -0.1002 -0.6835
  565MOL0     O74495   7.738   4.506   6.226  0.4975 -0.2562  0.1803
  565MOL0     C74496   7.988   4.442   6.139  0.3150 -0.0923  0.4273
  565MOL0     C74497   8.096   4.367   6.099 -0.5070 -0.5819  0.8871
  565MOL0     N74498   8.666   3.920   5.822 -0.9987  0.4253  0.4422
  565MOL0     N74499   8.746   3.922   5.925 -0.2168 -1.0823  0.3887
  565MOL0     C74500   9.702   3.395   6.517 -0.5383  0.4250 -0.3225
  565MOL0     C74501   9.840   3.354   6.526 -0.0255  0.3717  0.6471
  565MOL0     C74502  10.243   3.324   6.765 -0.2433 -0.3636 -0.1916
  565MOL0     C74503  10.355   3.416   6.766 -0.6910  0.6231  0.8099
  565MOL0     C74504  10.484   3.362   6.767 -0.0175 -0.4318  0.2312
  565MOL0     C74505  10.511   3.224   6.771  0.2213  0.1792  0.1843
  565MOL0     O74506  10.643   3.191   6.770  0.0468 -0.1626  0.7312
  565MOL0     C74507  10.681   3.056   6.794  0.1856  0.6183 -0.8623
  565MOL0     C74508  10.824   3.068   6.834 -0.4418 -0.3455 -0.3857
  565MOL0     C74509  10.916   3.120   6.723  0.3595 -0.3127  0.1520
  565MOL0     C74510  11.059   3.160   6.773 -0.0331  0.6476 -0.4623
  565MOL0     C74511  11.156   3.226   6.680 -0.5873 -0.2381  0.4498
  565MOL0     C74512  11.239   3.275   6.616  0.1290  0.2199  1.0284
  565MOL0     C74513  10.402   3.140   6.773 -0.4391 -0.2342  0.6098
  565MOL0     C74514  10.272   3.186   6.765  0.1750 -0.7895 -0.3429
  565MOL0     H74515   9.853   3.303   6.852  0.6141 -2.2482 -1.0125
  565MOL0     H74516   9.614   3.377   6.842 -0.5317 -0.9132 -0.5246
  565MOL0     H74517   9.431   3.413   6.433 -1.9049 -3.9368  3.5509
  565MOL0     H74518   9.489   3.574   6.470  3.0176 -1.8981  1.0298
  565MOL0     H74519   9.286   3.601   6.626  1.0022 -0.2003 -0.0369
  565MOL0     H74520   9.220   3.440   6.579 -0.4964  0.6505  1.2321
  565MOL0     H74521   9.225   3.500   6.343  1.5888  0.8915 -2.6243
  565MOL0     H74522   9.289   3.660   6.369  0.4012 -0.4716 -0.1470
  565MOL0     H74523   9.019   3.577   6.478 -0.9589  0.2234 -2.6517
  565MOL0     H74524   9.095   3.740   6.493 -2.7467  0.6763  0.5230
  565MOL0     H74525   9.003   3.589   6.247 -3.6240  0.4198  0.6391
  565MOL0     H74526   9.086   3.740   6.230  1.3117  1.3994  1.1586
  565MOL0     H74527   8.875   3.823   6.374 -3.6723 -1.5857  1.4197
  565MOL0     H74528   8.812   3.665   6.358  1.1714 -1.4940  1.5685
  565MOL0     H74529   8.907   3.807   6.104  0.5465 -1.6452  1.1243
  565MOL0     H74530   8.802   3.664   6.132 -0.3404  0.9706 -3.3811
  565MOL0     H74531   8.749   3.959   6.210 -0.7762 -1.0152  2.7505
  565MOL0     H74532   8.640   3.822   6.233 -0.6132  1.8986  1.2816
  565MOL0     H74533   8.477   3.779   6.045 -0.4845  0.6230 -0.7069
  565MOL0     H74534   8.416   3.724   5.769 -1.7264  0.9649  0.5537
  565MOL0     H74535   8.444   3.878   5.672  2.6939 -1.4553 -0.7246
  565MOL0     H74536   8.277   3.844   5.914  2.0550 -0.9551 -0.6228
  565MOL0     H74537   8.229   3.875   5.743 -0.5460 -2.3320  0.4987
  565MOL0     H74538   8.394   4.075   5.915 -1.2730  1.1206  0.5946
  565MOL0     H74539   8.339   4.100   5.754  1.0754  1.4271  0.8029
  565MOL0     H74540   8.139   4.037   5.994  2.8138 -3.2518 -0.0078
  565MOL0     H74541   8.106   4.067   5.826  1.2910 -1.0412  0.1446
  565MOL0     H74542   7.968   4.232   5.823  0.7056 -0.4048  0.9478
  565MOL0     H74543   7.773   4.371   5.884  0.8189 -3.1762 -1.0229
  565MOL0     H74544   7.587   4.716   6.250 -1.8213  2.7337  1.7043
  565MOL0     H74545   7.369   4.798   6.283 -1.9157  0.3016 -0.6201
  565MOL0     H74546   7.196   4.942   6.265 -1.6549 -0.2952 -0.8144
  565MOL0     H74547   7.156   4.787   6.342 -0.7288 -0.9716 -0.8603
  565MOL0     H74548   6.972   4.969   6.198  0.6936  0.7434 -0.2149
  565MOL0     H74549   6.989   4.935   6.376  0.8577  0.6327 -0.4283
  565MOL0     H74550   6.917   4.705   6.357  0.3199  1.6379  1.5565
  565MOL0     H74551   6.890   4.725   6.177  3.4720  0.5192  0.1793
  565MOL0     H74552   6.745   4.894   6.392  1.7018  0.9136 -0.6685
  565MOL0     H74553   6.716   4.904   6.226  0.5652  0.8958 -0.7679
  565MOL0     H74554   6.555   4.756   6.370  1.6370  2.8234  1.7368
  565MOL0     H74555   6.679   4.630   6.373 -1.1529 -0.7966  0.2121
  565MOL0     H74556   6.683   4.621   6.140 -0.9506 -1.3557 -1.1975
  565MOL0     H74557   6.586   4.761   6.112  0.2846 -0.4954 -0.4107
  565MOL0     H74558   6.463   4.543   6.269  2.0114  2.4329  1.4913
  565MOL0     H74559   6.396   4.664   6.168  1.5232  1.1634  1.4942
  565MOL0     H74560   6.475   4.566   5.968 -0.3222  0.4690 -0.0890
  565MOL0     H74561   6.368   4.459   6.050 -1.7360  3.5352 -5.5132
  565MOL0     H74562   7.214   4.623   5.935 -0.2364  0.9199  0.2501
  565MOL0     H74563   7.424   4.525   5.886 -3.0050  2.3629 -2.9313
  565MOL0     H74564   7.995   4.511   6.223 -1.6666  3.6246 -2.1549
  565MOL0     H74565   8.193   4.375   6.147 -0.5940  1.6298  0.7835
  565MOL0     H74566   9.669   3.420   6.416  1.9819 -0.4344 -1.4639
  565MOL0     H74567   9.904   3.351   6.439  1.4046  2.4357  1.5516
  565MOL0     H74568  10.325   3.520   6.758  0.2899  0.7955 -1.4246
  565MOL0     H74569  10.570   3.428   6.756 -0.4289  0.3684  1.6031
  565MOL0     H74570  10.672   3.001   6.700  1.5298  1.7950 -1.7290
  565MOL0     H74571  10.621   3.003   6.868  0.1482  2.1657  0.2711
  565MOL0     H74572  10.838   3.132   6.922  0.1021 -0.7540 -0.1697
  565MOL0     H74573  10.877   2.977   6.862  1.8398  0.9330 -0.3342
  565MOL0     H74574  10.878   3.209   6.673  2.6239 -0.2845 -1.6714
  565MOL0     H74575  10.931   3.050   6.640  3.3103 -2.2827  2.1573
  565MOL0     H74576  11.043   3.229   6.856 -0.0267  0.1069 -0.0055
  565MOL0     H74577  11.107   3.072   6.816  0.0220 -0.1320 -2.0707
  565MOL0     H74578  11.307   3.309   6.540 -0.7013 -2.4568 -1.0520
  565MOL0     H74579  10.415   3.034   6.789  0.4685 -0.2324  0.0004
  565MOL0     H74580  10.190   3.117   6.785 -0.5513 -0.7955 -3.0069
  566MOL0     O74581   7.381   4.149   8.677  0.4179 -0.6145  0.1557
  566MOL0     C74582   7.445   4.255   8.668  1.2493 -0.6180 -0.2765
  566MOL0     O74583   7.423   4.350   8.568  0.2121 -0.0467 -0.0697
  566MOL0     C74584   7.324   4.323   8.476  0.0693 -0.4035 -0.6926
  566MOL0     C74585   7.358   4.313   8.336 -0.0772  0.3293  0.4887
  566MOL0     C74586   7.260   4.280   8.244 -0.1314  1.5600  0.0343
  566MOL0     C74587   7.126   4.251   8.285  0.3072  0.2416  0.0991
  566MOL0     O74588   7.042   4.225   8.177 -0.3912 -0.2215 -0.6350
  566MOL0     C74589   6.904   4.266   8.184 -0.0920  0.9386  0.0116
  566MOL0     C74590   6.824   4.185   8.081 -0.7319 -0.1179  0.4107
  566MOL0     C74591   6.679   4.243   8.089  0.0587 -1.6385  0.3703
  566MOL0     C74592   6.593   4.207   7.974  1.7655 -0.8901 -0.0025
  566MOL0     C74593   6.445   4.230   8.014  1.1754 -0.5877  0.1609
  566MOL0     C74594   6.367   4.181   7.894 -1.2125  0.4250  0.1536
  566MOL0     C74595   6.227   4.234   7.916  0.2556  0.1036 -0.1578
  566MOL0     C74596   6.128   4.214   7.798  0.1284  0.0745  0.6979
  566MOL0     N74597   6.004   4.286   7.829  0.5817 -0.0204 -0.0525
  566MOL0     C74598   5.960   4.420   7.826 -1.4273  0.3266  0.2261
  566MOL0     C74599   5.831   4.414   7.858  1.0579  0.1823 -0.2548
  566MOL0     C74600   5.735   4.519   7.893 -0.1768  0.9871  0.4500
  566MOL0     C74601   5.643   4.538   7.779 -0.9099  0.1714  0.7942
  566MOL0     C74602   5.530   4.444   7.740  0.0735  0.4858 -0.4329
  566MOL0     C74603   5.420   4.491   7.644 -0.0875 -0.3904 -0.4845
  566MOL0     O74604   5.476   4.601   7.578 -0.0953 -0.4419 -0.4653
  566MOL0     C74605   5.388   4.685   7.512 -0.7993  0.7282  0.6158
  566MOL0     C74606   5.269   4.631   7.449  0.3970 -0.3632  0.2412
  566MOL0     C74607   5.181   4.723   7.393  0.1995  0.3233 -0.0868
  566MOL0     C74608   5.208   4.868   7.406 -0.1972  1.0121  0.8188
  566MOL0     C74609   5.108   4.963   7.365  0.1531 -0.1765  0.9560
  566MOL0     O74610   4.983   4.911   7.354  0.0156  0.0652  0.3615
  566MOL0     C74611   4.886   4.988   7.295  0.7035 -0.0173 -0.0932
  566MOL0     C74612   4.854   5.120   7.326  0.7627  0.1424 -0.7300
  566MOL0     C74613   4.736   5.167   7.281  0.3584  0.0065  0.7875
  566MOL0     C74614   4.640   5.107   7.193  0.0100 -0.0473  0.1183
  566MOL0     O74615   4.528   5.175   7.151  0.4509  0.3557 -0.2253
  566MOL0     C74616   4.447   5.116   7.057 -0.1852 -0.0460  0.2320
  566MOL0     C74617   4.366   5.229   6.989  0.4127  0.1613  0.7984
  566MOL0     C74618   4.245   5.300   7.047 -0.1531 -0.0433  0.2268
  566MOL0     C74619   4.130   5.208   7.056  0.2251  0.9422  0.2728
  566MOL0     C74620   4.018   5.259   7.141 -0.2832  0.2494  0.2909
  566MOL0     C74621   3.887   5.212   7.073  0.2104 -0.2605  0.8869
  566MOL0     C74622   3.757   5.245   7.138  0.4727  0.3693 -0.2657
  566MOL0     C74623   3.638   5.181   7.079  0.5912  0.5748  0.2080
  566MOL0    Cl74624   3.603   5.256   6.920  0.0959 -0.1636 -0.0466
  566MOL0     C74625   4.677   4.977   7.159 -0.1849 -0.3064  0.1646
  566MOL0     C74626   4.796   4.911   7.212 -0.1274 -0.3014 -0.8520
  566MOL0     O74627   5.135   5.082   7.364 -0.3026  0.0506 -0.3380
  566MOL0     C74628   5.328   4.913   7.466  0.1453 -0.6590  1.2014
  566MOL0     C74629   5.414   4.822   7.515 -0.1401 -0.1384 -0.4649
  566MOL0     N74630   5.794   4.281   7.862  0.6293 -0.1570 -0.1306
  566MOL0     N74631   5.890   4.203   7.845 -0.4154 -0.4404  0.2964
  566MOL0     C74632   7.089   4.267   8.415 -0.1784 -0.1852 -0.6311
  566MOL0     C74633   7.186   4.306   8.510  0.1357 -0.4483  0.9637
  566MOL0     C74634   7.559   4.281   8.754 -0.3661  1.5755  0.1305
  566MOL0     C74635   7.618   4.410   8.762  0.0553  0.6490 -0.5963
  566MOL0     C74636   7.730   4.430   8.847 -0.4354  0.0159 -1.7976
  566MOL0     C74637   7.786   4.324   8.918  0.3967 -0.3648 -0.2724
  566MOL0     O74638   7.894   4.325   9.002  0.4834 -0.0561 -0.8469
  566MOL0     C74639   7.966   4.440   9.030 -0.9458 -0.8250 -0.2916
  566MOL0     C74640   8.110   4.431   8.959  0.5413  0.6640  0.4482
  566MOL0     C74641   8.184   4.320   9.042 -0.5819  0.7273  0.5685
  566MOL0     C74642   8.325   4.280   8.993 -0.3474 -0.3239 -0.0201
  566MOL0     C74643   8.413   4.391   9.036 -0.2753 -0.0459 -0.1406
  566MOL0     C74644   8.485   4.468   9.098 -0.0940 -0.3793 -1.0474
  566MOL0     C74645   7.710   4.205   8.923 -0.3977 -1.0841  0.1691
  566MOL0     C74646   7.596   4.182   8.845 -0.9676 -0.1601 -0.4607
  566MOL0     H74647   7.462   4.318   8.308  0.5620 -0.5136  2.5077
  566MOL0     H74648   7.292   4.244   8.147  1.5677  0.6652  0.8731
  566MOL0     H74649   6.911   4.373   8.166 -0.4576  1.0485  0.4976
  566MOL0     H74650   6.862   4.250   8.284 -0.2494  2.5193  0.2309
  566MOL0     H74651   6.832   4.078   8.102  2.5081 -0.2028 -0.7912
  566MOL0     H74652   6.856   4.202   7.978  0.8031 -1.5478  0.6085
  566MOL0     H74653   6.681   4.353   8.093 -0.5659 -1.6305  0.6088
  566MOL0     H74654   6.641   4.207   8.185 -2.3351 -1.1236 -0.3121
  566MOL0     H74655   6.599   4.278   7.891 -3.5776  2.4591  1.9470
  566MOL0     H74656   6.625   4.105   7.948  2.0260 -0.8899  0.3182
  566MOL0     H74657   6.427   4.336   8.030 -1.1682 -0.8210 -0.5465
  566MOL0     H74658   6.416   4.179   8.106  3.0603  2.9565  2.9489
  566MOL0     H74659   6.371   4.072   7.882  0.1681  0.1084  2.7624
  566MOL0     H74660   6.403   4.226   7.801  1.2703 -0.9346  0.3664
  566MOL0     H74661   6.177   4.193   8.004  0.3835  2.3377  1.0317
  566MOL0     H74662   6.236   4.342   7.934 -1.6892  0.0435  1.5581
  566MOL0     H74663   6.113   4.108   7.777 -1.2562  0.3191  0.3315
  566MOL0     H74664   6.170   4.246   7.702  1.5034 -2.5615  0.3267
  566MOL0     H74665   6.024   4.501   7.792  0.1566 -1.4636 -1.2801
  566MOL0     H74666   5.790   4.609   7.920 -0.4755  0.9855  1.0828
  566MOL0     H74667   5.678   4.498   7.984  0.1286  1.3591  0.7306
  566MOL0     H74668   5.703   4.561   7.691 -4.5038  1.7903 -1.4484
  566MOL0     H74669   5.597   4.634   7.803 -0.1805  0.5351  0.7712
  566MOL0     H74670   5.579   4.356   7.698 -1.7293 -0.6004 -0.3630
  566MOL0     H74671   5.488   4.409   7.835 -0.4387 -0.6264 -1.0499
  566MOL0     H74672   5.333   4.519   7.704 -0.7982 -0.8277 -1.2903
  566MOL0     H74673   5.387   4.421   7.567 -0.2450  1.4586 -2.1465
  566MOL0     H74674   5.243   4.526   7.442 -0.4371 -0.0388 -3.6780
  566MOL0     H74675   5.093   4.685   7.342 -0.3214 -1.8521  2.2232
  566MOL0     H74676   4.929   5.175   7.382  0.0823  0.9695 -0.5946
  566MOL0     H74677   4.698   5.265   7.307 -1.0233  0.2006 -1.6556
  566MOL0     H74678   4.394   5.029   7.097 -1.0515 -0.4429 -1.6650
  566MOL0     H74679   4.497   5.062   6.976 -1.6367 -1.4540  0.2270
  566MOL0     H74680   4.330   5.184   6.896  1.5035  1.8684 -0.5145
  566MOL0     H74681   4.434   5.312   6.966  2.7383 -0.8423  3.4844
  566MOL0     H74682   4.220   5.387   6.985 -1.6465  1.9278  3.3133
  566MOL0     H74683   4.271   5.342   7.145 -1.4533 -0.7899  0.9253
  566MOL0     H74684   4.103   5.168   6.957  2.3160 -0.7261  0.2954
  566MOL0     H74685   4.158   5.112   7.101 -0.0861 -0.0467 -1.5413
  566MOL0     H74686   4.009   5.368   7.141 -2.1844  0.1363  1.5087
  566MOL0     H74687   4.026   5.221   7.243 -1.3414 -0.8323 -0.0063
  566MOL0     H74688   3.901   5.104   7.070  1.4781 -0.1112  0.9462
  566MOL0     H74689   3.887   5.262   6.975  0.3446 -1.6972  0.1359
  566MOL0     H74690   3.758   5.193   7.234  1.9302 -0.6662 -0.8002
  566MOL0     H74691   3.743   5.352   7.154  1.6946  0.2291  2.1542
  566MOL0     H74692   3.545   5.192   7.135  0.3872  0.8227 -0.1725
  566MOL0     H74693   3.661   5.075   7.063  1.0560  0.6172  0.5639
  566MOL0     H74694   4.611   4.916   7.098 -0.4838  0.0777  0.1036
  566MOL0     H74695   4.825   4.812   7.181 -0.2123 -1.5675  2.6597
  566MOL0     H74696   5.357   5.017   7.456  1.6617 -1.0865  0.8743
  566MOL0     H74697   5.508   4.860   7.554 -0.1319  0.7237 -1.3024
  566MOL0     H74698   6.988   4.261   8.455 -1.0761 -2.1183 -2.9836
  566MOL0     H74699   7.158   4.313   8.615  1.4290 -1.1101  1.3688
  566MOL0     H74700   7.586   4.480   8.686 -0.2941  2.5346  1.2158
  566MOL0     H74701   7.781   4.526   8.843  1.8493 -1.1157 -5.8906
  566MOL0     H74702   7.976   4.434   9.139 -0.5460 -0.8571 -0.3280
  566MOL0     H74703   7.916   4.535   9.011  0.6548  0.1385  0.1210
  566MOL0     H74704   8.101   4.412   8.851  0.9931 -1.1268  0.6851
  566MOL0     H74705   8.158   4.529   8.969 -0.4062  1.5657 -2.5951
  566MOL0     H74706   8.127   4.228   9.059  3.6171 -2.4918 -1.1456
  566MOL0     H74707   8.186   4.369   9.140 -1.4350  0.4487  0.7294
  566MOL0     H74708   8.380   4.192   9.028  0.6083  1.1722  2.5070
  566MOL0     H74709   8.325   4.280   8.884  1.5647  2.4038 -0.1218
  566MOL0     H74710   8.549   4.544   9.139 -1.3603  1.8360 -2.9230
  566MOL0     H74711   7.752   4.129   8.988  2.8991  0.8394  0.5230
  566MOL0     H74712   7.549   4.084   8.844 -1.8654  0.0926 -5.1610
  567MOL0     O74713   4.436   2.610   5.692 -0.2045 -0.5560  0.1694
  567MOL0     C74714   4.425   2.487   5.689  0.5242 -0.8239  0.0659
  567MOL0     O74715   4.317   2.419   5.721  0.2223 -0.5656  0.0416
  567MOL0     C74716   4.217   2.476   5.782  0.4824 -0.7533  0.1083
  567MOL0     C74717   4.089   2.417   5.749 -0.3875 -0.2807 -0.5795
  567MOL0     C74718   3.977   2.459   5.824  0.0455  0.5654  0.6321
  567MOL0     C74719   3.980   2.558   5.918 -0.1559  0.1781 -0.2566
  567MOL0     O74720   3.869   2.592   5.991 -0.4835  0.2673 -0.4318
  567MOL0     C74721   3.757   2.616   5.908  0.7953  0.0438 -0.0143
  567MOL0     C74722   3.646   2.684   5.986 -0.2710 -0.1550  0.1059
  567MOL0     C74723   3.521   2.720   5.910  0.1690  0.2807  0.2921
  567MOL0     C74724   3.430   2.812   5.988 -0.9569  0.3375 -0.2601
  567MOL0     C74725   3.306   2.852   5.907 -0.9007 -0.2507 -0.2653
  567MOL0     C74726   3.224   2.751   5.821 -0.0007 -0.4873 -0.1001
  567MOL0     C74727   3.166   2.628   5.902  0.2220 -0.5105 -0.2758
  567MOL0     C74728   3.072   2.534   5.828 -0.0658 -0.6507 -0.3327
  567MOL0     N74729   3.011   2.431   5.914 -0.9493 -0.0856 -0.4168
  567MOL0     C74730   2.920   2.449   6.019 -0.1449 -0.4064  0.2137
  567MOL0     C74731   2.895   2.324   6.067  0.2890  0.7844  1.0588
  567MOL0     C74732   2.831   2.269   6.195 -0.1489 -0.1437  0.5954
  567MOL0     C74733   2.920   2.184   6.287 -0.2782 -0.6099  0.4911
  567MOL0     C74734   2.843   2.115   6.397 -0.7828 -0.5167  0.4580
  567MOL0     C74735   2.794   2.213   6.511  0.4551  0.5172 -0.5406
  567MOL0     O74736   2.715   2.146   6.612  0.6596 -0.7579 -0.5903
  567MOL0     C74737   2.576   2.145   6.597 -0.0500  0.2894  0.5618
  567MOL0     C74738   2.500   2.164   6.477 -0.7546 -0.0638 -0.2240
  567MOL0     C74739   2.364   2.159   6.475  0.0666  0.5512  0.4715
  567MOL0     C74740   2.286   2.145   6.595 -0.3065  1.3729 -0.0875
  567MOL0     C74741   2.144   2.121   6.583 -0.0925  0.1443 -0.6103
  567MOL0     O74742   2.082   2.120   6.707 -0.1371  0.1164  0.2991
  567MOL0     C74743   1.947   2.122   6.720 -0.2952  0.6972 -0.2631
  567MOL0     C74744   1.896   2.076   6.844  0.4417  0.4078  0.9509
  567MOL0     C74745   1.762   2.074   6.870 -0.2221  0.3385  0.0230
  567MOL0     C74746   1.671   2.117   6.768  0.1020  0.2865 -0.3152
  567MOL0     O74747   1.541   2.119   6.805  0.5435 -0.3142 -0.0161
  567MOL0     C74748   1.458   2.229   6.758  0.5257 -0.4569 -0.8489
  567MOL0     C74749   1.321   2.199   6.830 -0.4401  0.3352  0.0276
  567MOL0     C74750   1.253   2.079   6.759  0.3496  0.1109 -0.0688
  567MOL0     C74751   1.118   2.046   6.835  0.1171  0.0273  0.3813
  567MOL0     C74752   1.035   1.933   6.755  0.8111  0.1786  0.3825
  567MOL0     C74753   0.911   1.882   6.820 -0.0281  0.7085  0.0999
  567MOL0     C74754   0.844   1.755   6.764  0.8801 -0.2501  0.6012
  567MOL0     C74755   0.830   1.742   6.609 -0.5480  0.0727  0.2062
  567MOL0    Cl74756   0.724   1.895   6.567  0.1770  0.3249 -0.0112
  567MOL0     C74757   1.720   2.174   6.650 -0.1771  0.4200 -0.2358
  567MOL0     C74758   1.857   2.174   6.630  0.2448  0.1132  0.3925
  567MOL0     O74759   2.088   2.117   6.478  0.5686 -0.5749  0.3235
  567MOL0     C74760   2.357   2.122   6.709 -0.6461  0.1766 -0.2978
  567MOL0     C74761   2.500   2.122   6.711  0.2770  0.3120 -0.2874
  567MOL0     N74762   2.968   2.227   5.985 -0.2523 -1.0599 -0.6203
  567MOL0     N74763   3.043   2.301   5.900 -0.3046  0.0616 -0.2852
  567MOL0     C74764   4.103   2.621   5.937  0.7165  0.3609 -0.3437
  567MOL0     C74765   4.219   2.573   5.882 -1.5841  0.3627 -0.3043
  567MOL0     C74766   4.533   2.413   5.629 -0.4259 -0.0816 -1.1722
  567MOL0     C74767   4.518   2.267   5.641 -0.0769  0.3939  0.3402
  567MOL0     C74768   4.617   2.180   5.580 -0.2587 -0.7007  0.0220
  567MOL0     C74769   4.725   2.232   5.519 -0.4634  0.1098  0.9815
  567MOL0     O74770   4.830   2.162   5.460  0.1126 -0.4834 -1.5542
  567MOL0     C74771   4.910   2.069   5.543  0.0294 -1.1868 -0.6498
  567MOL0     C74772   5.036   2.139   5.601  0.4470 -0.0253 -0.1449
  567MOL0     C74773   5.112   2.054   5.690  0.4627 -0.2014 -0.1632
  567MOL0     C74774   5.223   2.114   5.775  0.3179  0.1252  0.5407
  567MOL0     C74775   5.286   2.010   5.851 -0.4203  0.5327  0.2387
  567MOL0     C74776   5.348   1.910   5.883  0.9943  0.3599 -0.6227
  567MOL0     C74777   4.752   2.372   5.527 -0.0985  0.5553 -0.1382
  567MOL0     C74778   4.656   2.461   5.576  0.0645 -0.3256 -0.2556
  567MOL0     H74779   4.096   2.328   5.689  0.5992 -3.3694  3.6060
  567MOL0     H74780   3.881   2.412   5.804 -0.5471  0.6879  2.9264
  567MOL0     H74781   3.718   2.527   5.856  1.5096 -0.1429 -0.2412
  567MOL0     H74782   3.798   2.680   5.829  1.8335  1.9665  2.0047
  567MOL0     H74783   3.695   2.778   6.015 -2.2585  1.2508 -0.8491
  567MOL0     H74784   3.614   2.624   6.072 -0.9353 -0.5776 -0.4275
  567MOL0     H74785   3.469   2.632   5.870  0.8742 -0.1314  0.2722
  567MOL0     H74786   3.548   2.773   5.818  1.3380 -0.9075 -0.0737
  567MOL0     H74787   3.389   2.762   6.076 -2.4448  1.7794 -0.0910
  567MOL0     H74788   3.487   2.898   6.026  0.5069 -1.2278  1.3072
  567MOL0     H74789   3.331   2.940   5.848 -0.1833  0.4010  0.9585
  567MOL0     H74790   3.243   2.912   5.974  0.3068  1.1601 -0.3393
  567MOL0     H74791   3.277   2.723   5.730  0.4642  0.1557 -0.0355
  567MOL0     H74792   3.138   2.802   5.776  0.2712  0.1474  0.0767
  567MOL0     H74793   3.247   2.568   5.944  0.5934 -0.0698 -0.3611
  567MOL0     H74794   3.116   2.677   5.986  0.7759  0.6849 -0.6254
  567MOL0     H74795   3.121   2.496   5.738  0.2418 -0.5358 -0.2134
  567MOL0     H74796   2.988   2.592   5.789  0.0679 -0.4844 -0.3756
  567MOL0     H74797   2.876   2.544   6.049 -0.2595  0.0394 -1.2765
  567MOL0     H74798   2.754   2.197   6.165 -2.4697  1.6528  1.8911
  567MOL0     H74799   2.774   2.350   6.242  0.6873  0.3615  0.7648
  567MOL0     H74800   2.992   2.255   6.330 -0.9659  0.7771 -0.5734
  567MOL0     H74801   2.985   2.117   6.230  1.8607  1.3191  0.5000
  567MOL0     H74802   2.755   2.071   6.350 -1.3983  2.2126 -1.1623
  567MOL0     H74803   2.906   2.036   6.439 -1.4884 -2.6720 -2.2106
  567MOL0     H74804   2.748   2.300   6.464 -0.8608  0.4382  0.5428
  567MOL0     H74805   2.888   2.253   6.552  1.3414 -0.4579 -1.5740
  567MOL0     H74806   2.556   2.177   6.385 -0.0583  0.3545  0.2414
  567MOL0     H74807   2.313   2.166   6.380 -1.1340 -1.2075  0.9456
  567MOL0     H74808   1.973   2.035   6.908 -1.2939 -4.4760  0.3614
  567MOL0     H74809   1.729   2.041   6.968 -1.5055  2.4042  0.3535
  567MOL0     H74810   1.443   2.223   6.650 -1.1244 -0.8875 -0.6239
  567MOL0     H74811   1.495   2.324   6.799  1.0344 -1.9615  2.5881
  567MOL0     H74812   1.262   2.291   6.826 -0.8704  0.0922  0.5833
  567MOL0     H74813   1.327   2.176   6.937 -2.5204  0.1619  0.1414
  567MOL0     H74814   1.325   1.997   6.764 -0.6691 -0.8982 -1.2635
  567MOL0     H74815   1.226   2.104   6.656 -0.3229  0.5977  0.2148
  567MOL0     H74816   1.137   2.010   6.936  3.5501 -0.0729 -0.1952
  567MOL0     H74817   1.058   2.138   6.834  2.2697  1.5871 -2.5615
  567MOL0     H74818   1.107   1.852   6.740 -0.5410 -1.0624  0.3458
  567MOL0     H74819   1.012   1.980   6.659 -1.3158  2.2494  1.7972
  567MOL0     H74820   0.839   1.964   6.820 -1.3622 -0.1979 -4.2834
  567MOL0     H74821   0.937   1.871   6.926  0.7908 -0.2448 -0.1790
  567MOL0     H74822   0.906   1.669   6.795  0.7343 -0.1742  1.1138
  567MOL0     H74823   0.744   1.734   6.803  0.5418  0.4327  0.1178
  567MOL0     H74824   0.776   1.653   6.577  0.4050 -0.3067 -0.4078
  567MOL0     H74825   0.926   1.758   6.559  0.3259  3.6804  2.6256
  567MOL0     H74826   1.650   2.213   6.577  2.4570  1.2289 -2.4896
  567MOL0     H74827   1.882   2.196   6.527 -1.2249  1.8077  0.3670
  567MOL0     H74828   2.315   2.085   6.801  1.9216 -1.0708  0.4608
  567MOL0     H74829   2.530   2.093   6.811 -2.0232 -0.6803  0.1907
  567MOL0     H74830   4.107   2.698   6.013 -1.1462 -0.1966  0.3820
  567MOL0     H74831   4.313   2.624   5.900 -1.8713  0.1332  2.2676
  567MOL0     H74832   4.440   2.221   5.700  0.3534 -0.8799 -0.0477
  567MOL0     H74833   4.594   2.075   5.590  0.0792 -0.8758 -0.9447
  567MOL0     H74834   4.941   1.981   5.486  0.8651 -0.6658 -1.0099
  567MOL0     H74835   4.848   2.037   5.628  1.3888  0.3466  1.0121
  567MOL0     H74836   5.095   2.166   5.513 -2.7894  2.2255 -1.8242
  567MOL0     H74837   5.007   2.230   5.654  1.4552 -0.5246  1.3332
  567MOL0     H74838   5.144   1.968   5.631 -0.7206  1.4172 -3.3449
  567MOL0     H74839   5.043   2.003   5.758  2.3643 -2.0792  0.4631
  567MOL0     H74840   5.295   2.161   5.708 -1.5434 -0.2408 -1.8777
  567MOL0     H74841   5.172   2.189   5.838  1.7169  1.1321  0.5193
  567MOL0     H74842   5.395   1.825   5.928 -0.9735 -0.1127  0.6633
  567MOL0     H74843   4.849   2.406   5.493  3.5435 -2.7443  5.3284
  567MOL0     H74844   4.686   2.565   5.577  1.5474 -0.7298  0.4786
  568MOL0     O74845   2.148  10.786   6.269  0.3588  0.1689 -0.8024
  568MOL0     C74846   2.214  10.865   6.336  0.6306  0.5192  0.6562
  568MOL0     O74847   2.348  10.857   6.359 -1.2800  0.2135 -0.1128
  568MOL0     C74848   2.449  10.834   6.263  0.5933 -0.0249  0.5119
  568MOL0     C74849   2.428  10.804   6.128 -0.0634  0.7092 -0.6267
  568MOL0     C74850   2.539  10.765   6.048 -0.1499  0.6472  0.2438
  568MOL0     C74851   2.667  10.757   6.101  0.1093  0.8329  0.7438
  568MOL0     O74852   2.765  10.709   6.013 -0.3178  0.2667 -0.1542
  568MOL0     C74853   2.899  10.686   6.051 -0.3085 -0.8252 -0.5074
  568MOL0     C74854   2.980  10.629   5.931  0.1571  0.3730  0.1777
  568MOL0     C74855   3.125  10.617   5.970 -0.6437 -1.1837 -0.0540
  568MOL0     C74856   3.203  10.550   5.847 -0.2247  1.0306  0.1032
  568MOL0     C74857   3.354  10.563   5.855 -0.6781  0.3366  0.3376
  568MOL0     C74858   3.414  10.623   5.727 -0.3690 -0.4568  0.3134
  568MOL0     C74859   3.375  10.538   5.604  0.1159  0.4748 -0.2730
  568MOL0     C74860   3.489  10.519   5.510  0.0578  0.0715  0.2312
  568MOL0     N74861   3.526  10.651   5.451 -0.1543  0.5415  0.1876
  568MOL0     C74862   3.463  10.704   5.345 -0.5769  0.3547  0.2894
  568MOL0     C74863   3.507  10.829   5.338  0.3774 -0.6090 -0.3647
  568MOL0     C74864   3.436  10.939   5.250  0.3860 -0.8912  0.3382
  568MOL0     C74865   3.337  11.025   5.334  0.2123 -0.6109  0.2822
  568MOL0     C74866   3.214  10.943   5.372 -0.2747  0.5653  0.4331
  568MOL0     C74867   3.100  11.037   5.419  0.5337 -0.0728  0.3636
  568MOL0     O74868   3.045  11.104   5.303  0.8097  0.5716 -0.5536
  568MOL0     C74869   2.920  11.148   5.306  0.1354 -0.5257  0.7962
  568MOL0     C74870   2.812  11.114   5.399 -0.5639 -0.0926 -0.4247
  568MOL0     C74871   2.685  11.173   5.396 -1.1191  0.3222  0.1486
  568MOL0     C74872   2.647  11.260   5.296  0.1587 -0.3050 -0.2888
  568MOL0     C74873   2.507  11.316   5.277  0.2361 -0.1780 -0.0914
  568MOL0     O74874   2.491  11.404   5.169  0.6011 -0.7238  0.4565
  568MOL0     C74875   2.378  11.483   5.178  0.8882 -0.7969  0.7215
  568MOL0     C74876   2.366  11.584   5.285  0.3103 -0.2695  0.3214
  568MOL0     C74877   2.244  11.649   5.294  0.3555  0.3630  0.2807
  568MOL0     C74878   2.142  11.643   5.197  0.0998 -0.6509 -0.7620
  568MOL0     O74879   2.020  11.702   5.200 -0.4761  0.5983  0.3512
  568MOL0     C74880   2.001  11.807   5.307  0.5469  0.3568 -0.5966
  568MOL0     C74881   1.873  11.897   5.273 -0.2607  0.0860  1.0072
  568MOL0     C74882   1.749  11.863   5.354  0.6819  0.0366  0.7032
  568MOL0     C74883   1.628  11.840   5.266  0.2012 -0.4398  0.8813
  568MOL0     C74884   1.596  11.948   5.157  0.0221 -0.3514  1.2317
  568MOL0     C74885   1.457  11.930   5.092  0.4131  0.1267  0.4716
  568MOL0     C74886   1.483  11.812   4.989  0.9305 -0.2555 -0.7123
  568MOL0     C74887   1.360  11.798   4.895 -0.2533 -0.2605  0.3062
  568MOL0    Cl74888   1.288  11.959   4.846 -0.3576  0.7101  0.0852
  568MOL0     C74889   2.157  11.558   5.100  0.7777 -0.4765  0.4026
  568MOL0     C74890   2.271  11.478   5.085  0.5196 -0.6638  0.6408
  568MOL0     O74891   2.414  11.270   5.354 -0.0748 -0.6828  0.0413
  568MOL0     C74892   2.745  11.301   5.197 -0.2736 -0.7753  0.3693
  568MOL0     C74893   2.873  11.246   5.201 -0.3213  1.4631 -0.0968
  568MOL0     N74894   3.621  10.841   5.421  0.1273  0.1086 -0.0637
  568MOL0     N74895   3.635  10.728   5.481  0.3615 -0.3408 -0.9979
  568MOL0     C74896   2.688  10.803   6.227  0.5868  0.0375  0.2795
  568MOL0     C74897   2.572  10.842   6.307  0.0056  0.5452  0.0742
  568MOL0     C74898   2.128  10.966   6.400  0.6700  0.6931 -0.4849
  568MOL0     C74899   2.175  11.020   6.521  0.4326 -0.5693 -0.2108
  568MOL0     C74900   2.114  11.130   6.583  0.2466  0.3629  0.4868
  568MOL0     C74901   1.995  11.184   6.528  0.3959  0.4469 -0.0391
  568MOL0     O74902   1.926  11.273   6.597  0.6945 -0.2787 -0.2526
  568MOL0     C74903   1.781  11.256   6.627  0.2361  0.3935 -0.2119
  568MOL0     C74904   1.687  11.368   6.583  0.8976  0.0908  1.1220
  568MOL0     C74905   1.539  11.354   6.629 -0.3918  0.5618 -0.7075
  568MOL0     C74906   1.460  11.475   6.582 -0.1919 -0.4706  0.4686
  568MOL0     C74907   1.331  11.456   6.650  0.2288 -0.8932 -1.0453
  568MOL0     C74908   1.228  11.417   6.703 -0.5021  0.3111 -0.3128
  568MOL0     C74909   1.945  11.138   6.404 -0.4945  0.9934 -0.6065
  568MOL0     C74910   2.007  11.027   6.342 -0.0686  0.5134  0.8721
  568MOL0     H74911   2.329  10.795   6.083  0.1509  0.4079 -1.0434
  568MOL0     H74912   2.526  10.720   5.950  2.5320 -0.6473  0.3958
  568MOL0     H74913   2.898  10.619   6.137 -0.7008  2.8538  2.6101
  568MOL0     H74914   2.937  10.784   6.082  1.2332 -0.8064 -2.2722
  568MOL0     H74915   2.960  10.698   5.849 -0.3363  0.1775  0.1329
  568MOL0     H74916   2.943  10.527   5.920  3.6988 -1.0790  0.4733
  568MOL0     H74917   3.127  10.559   6.062 -2.6632 -1.1994  0.0191
  568MOL0     H74918   3.167  10.718   5.971  1.7609 -2.0946 -1.3347
  568MOL0     H74919   3.184  10.442   5.846 -0.6722  1.1113 -0.1414
  568MOL0     H74920   3.157  10.587   5.756 -0.6486 -0.6743 -0.4126
  568MOL0     H74921   3.409  10.473   5.886  0.4034  0.5327 -0.9177
  568MOL0     H74922   3.380  10.623   5.942 -1.8552  0.0426  0.9096
  568MOL0     H74923   3.522  10.625   5.738 -0.1983  0.7358 -1.3059
  568MOL0     H74924   3.370  10.721   5.709  0.2537 -0.0397  0.9953
  568MOL0     H74925   3.340  10.442   5.644 -2.0979  1.4642  0.3383
  568MOL0     H74926   3.286  10.586   5.562 -0.6048 -0.5796 -0.0142
  568MOL0     H74927   3.460  10.454   5.427 -1.1063 -1.3233  1.6658
  568MOL0     H74928   3.571  10.468   5.563 -0.7995 -0.3319  1.2003
  568MOL0     H74929   3.379  10.662   5.290  0.5274 -1.2556 -0.2320
  568MOL0     H74930   3.381  10.895   5.166  1.2838 -1.4212  0.0035
  568MOL0     H74931   3.509  11.001   5.197  1.5514  0.8383  3.6636
  568MOL0     H74932   3.304  11.103   5.265  3.2202 -1.8412 -2.7897
  568MOL0     H74933   3.383  11.061   5.427  4.2977 -1.2334 -1.2953
  568MOL0     H74934   3.171  10.889   5.287  1.6727  2.2987 -1.8129
  568MOL0     H74935   3.244  10.873   5.450 -0.5385  2.5533  2.4309
  568MOL0     H74936   3.130  11.108   5.496 -1.9810  0.7692  0.6550
  568MOL0     H74937   3.024  10.971   5.460 -0.2635 -0.5550 -1.7733
  568MOL0     H74938   2.827  11.034   5.471  0.4577  0.0084 -0.5109
  568MOL0     H74939   2.615  11.137   5.471 -1.5515 -1.8655 -1.1824
  568MOL0     H74940   2.445  11.585   5.360 -0.2015  0.0076  0.8650
  568MOL0     H74941   2.241  11.711   5.384  0.5774 -0.7554  1.0807
  568MOL0     H74942   2.088  11.873   5.317  2.5971 -2.1756 -0.6000
  568MOL0     H74943   2.000  11.769   5.409  0.4662  4.1501  0.9981
  568MOL0     H74944   1.856  11.883   5.165 -0.0554 -0.3913  1.0342
  568MOL0     H74945   1.891  12.005   5.282 -1.1407  0.2864  0.4534
  568MOL0     H74946   1.738  11.928   5.441  3.5374 -0.1159  1.3037
  568MOL0     H74947   1.772  11.764   5.396  0.5169 -0.4443 -0.3295
  568MOL0     H74948   1.647  11.741   5.224 -0.8092 -0.4606  0.4286
  568MOL0     H74949   1.546  11.835   5.339  1.1934 -0.4296  2.0318
  568MOL0     H74950   1.679  11.967   5.088  0.1103  0.2137  1.4824
  568MOL0     H74951   1.596  12.045   5.208  3.8720 -0.1695  1.2126
  568MOL0     H74952   1.450  12.028   5.043  3.0333 -0.9520 -2.4002
  568MOL0     H74953   1.379  11.916   5.168 -2.1391 -0.3013 -2.0186
  568MOL0     H74954   1.570  11.839   4.928 -0.7374  2.8215 -1.9704
  568MOL0     H74955   1.507  11.719   5.042 -2.0556 -0.3350  0.6924
  568MOL0     H74956   1.292  11.737   4.955  0.3691 -2.0550 -0.7069
  568MOL0     H74957   1.393  11.748   4.803 -0.5387  2.6310 -1.4732
  568MOL0     H74958   2.077  11.552   5.026  1.3961 -1.8898 -0.1794
  568MOL0     H74959   2.289  11.413   5.001  0.7549  1.5129 -1.0855
  568MOL0     H74960   2.705  11.359   5.115  0.4530 -0.5318  0.1772
  568MOL0     H74961   2.936  11.264   5.115  1.0877  1.3834  0.8858
  568MOL0     H74962   2.782  10.779   6.276  0.6644  0.5622  0.4039
  568MOL0     H74963   2.585  10.881   6.407  2.4679 -2.7186  1.2036
  568MOL0     H74964   2.267  10.982   6.565  1.7408  0.4237 -1.9408
  568MOL0     H74965   2.164  11.165   6.672  3.7796 -3.2338  0.1970
  568MOL0     H74966   1.767  11.242   6.735  2.5528  0.6833  0.1867
  568MOL0     H74967   1.746  11.157   6.595  1.7894 -0.4936  0.6300
  568MOL0     H74968   1.725  11.465   6.618 -4.1646  2.0065  2.0749
  568MOL0     H74969   1.690  11.371   6.474 -0.1393 -1.8738  1.0072
  568MOL0     H74970   1.536  11.351   6.738 -3.6448 -1.9112 -0.7047
  568MOL0     H74971   1.497  11.254   6.611  2.3051 -1.1262  1.6229
  568MOL0     H74972   1.511  11.569   6.606 -3.1789  1.9001 -1.6937
  568MOL0     H74973   1.455  11.463   6.473 -0.2712 -3.2040  0.7028
  568MOL0     H74974   1.132  11.391   6.743 -0.2641  1.5324  1.1303
  568MOL0     H74975   1.861  11.180   6.351 -0.7981  0.7224 -0.3403
  568MOL0     H74976   1.976  10.997   6.242  0.3210  2.0208  0.2760
  569MOL0     O74977   6.910   1.598  10.483 -0.4272 -0.3918  0.6837
  569MOL0     C74978   6.991   1.550  10.559  0.2629 -0.5783  0.3945
  569MOL0     O74979   6.973   1.514  10.688  0.4161  0.3572  0.1597
  569MOL0     C74980   6.847   1.500  10.724 -0.4402 -0.0236 -0.1792
  569MOL0     C74981   6.814   1.533  10.857 -0.1646 -0.4384 -0.7426
  569MOL0     C74982   6.680   1.518  10.912 -0.6545  0.1662  0.5856
  569MOL0     C74983   6.579   1.461  10.836  0.3496  1.0436 -0.0883
  569MOL0     O74984   6.458   1.445  10.899  0.5514 -0.6257 -0.0471
  569MOL0     C74985   6.343   1.503  10.827  0.0406 -0.1640 -0.2097
  569MOL0     C74986   6.241   1.548  10.932  0.4953 -0.4707  0.6580
  569MOL0     C74987   6.127   1.614  10.864 -0.6556 -0.4328  0.6917
  569MOL0     C74988   6.038   1.689  10.961 -1.2415 -1.1912  0.4396
  569MOL0     C74989   5.917   1.735  10.878  0.1320 -0.3521  0.0521
  569MOL0     C74990   5.818   1.625  10.842  0.4549  0.4524 -1.1135
  569MOL0     C74991   5.670   1.671  10.844 -0.2771 -0.0485  0.4590
  569MOL0     C74992   5.624   1.714  10.693  0.5844  0.0686 -0.4152
  569MOL0     N74993   5.477   1.734  10.686 -0.3396  0.5389 -0.1308
  569MOL0     C74994   5.412   1.850  10.680  0.8144 -0.5480 -0.2753
  569MOL0     C74995   5.280   1.820  10.678 -0.2375 -0.0023  0.5954
  569MOL0     C74996   5.173   1.918  10.677  0.1073 -0.6215  0.2435
  569MOL0     C74997   5.039   1.865  10.685  0.2190  0.1671 -0.0497
  569MOL0     C74998   4.924   1.972  10.692 -0.0422  0.1102  0.3878
  569MOL0     C74999   4.888   2.015  10.838 -0.1778  0.1146  0.7777
  569MOL0     O75000   4.778   2.106  10.839 -0.0905  0.0838 -0.0259
  569MOL0     C75001   4.646   2.064  10.839 -0.3758  0.6690  0.4883
  569MOL0     C75002   4.539   2.146  10.868 -0.3902  0.1373  0.4950
  569MOL0     C75003   4.409   2.100  10.878 -0.0953  0.7798  0.8113
  569MOL0     C75004   4.370   1.970  10.846 -0.4480 -0.6599 -0.3836
  569MOL0     C75005   4.229   1.926  10.859 -0.2729  0.8008 -0.4059
  569MOL0     O75006   4.192   1.794  10.843 -0.4205 -0.0047 -0.3694
  569MOL0     C75007   4.065   1.754  10.825 -0.2344  0.6201  0.2773
  569MOL0     C75008   3.979   1.733  10.932 -0.3482 -0.0886  0.2670
  569MOL0     C75009   3.856   1.673  10.917  0.5066  1.0213  0.6726
  569MOL0     C75010   3.812   1.643  10.787  0.0283  0.9319  0.0823
  569MOL0     O75011   3.681   1.605  10.763  0.0471  0.3894  0.5403
  569MOL0     C75012   3.578   1.643  10.859 -0.2985  0.0049  0.2338
  569MOL0     C75013   3.441   1.600  10.812 -0.1643 -0.1924 -0.4689
  569MOL0     C75014   3.331   1.639  10.923 -0.0262 -0.5512  0.3573
  569MOL0     C75015   3.196   1.611  10.862 -0.1112  0.1208  0.1188
  569MOL0     C75016   3.077   1.627  10.963  0.5611 -0.6677 -0.0668
  569MOL0     C75017   2.964   1.548  10.894 -0.1521  0.0921 -0.5023
  569MOL0     C75018   2.847   1.558  11.000 -0.1560  0.1995  0.2441
  569MOL0     C75019   2.707   1.515  10.938 -0.7690  0.3289  0.6031
  569MOL0    Cl75020   2.652   1.637  10.816 -0.2093 -0.1103  0.0023
  569MOL0     C75021   3.886   1.670  10.674  0.3088  0.5914 -0.2837
  569MOL0     C75022   4.016   1.729  10.692  0.0180 -0.3635 -0.0880
  569MOL0     O75023   4.148   2.014  10.880 -0.5970 -0.2645 -0.1084
  569MOL0     C75024   4.472   1.877  10.809 -1.2282  0.5126  0.2979
  569MOL0     C75025   4.611   1.927  10.807  1.1317 -0.1537 -0.4660
  569MOL0     N75026   5.274   1.676  10.677 -0.5167  0.0962  0.6985
  569MOL0     N75027   5.395   1.628  10.685  0.5853  0.4102  0.4153
  569MOL0     C75028   6.608   1.423  10.707 -0.5155 -0.5968  0.3111
  569MOL0     C75029   6.740   1.446  10.653 -0.3481 -0.1002 -0.3144
  569MOL0     C75030   7.127   1.542  10.500  0.6233  0.0152 -0.3718
  569MOL0     C75031   7.143   1.530  10.368 -1.5900 -0.1030  0.7914
  569MOL0     C75032   7.278   1.528  10.320 -0.0360  0.7887  0.3646
  569MOL0     C75033   7.392   1.530  10.396  0.4896 -0.5847 -1.0154
  569MOL0     O75034   7.514   1.522  10.335  0.1878 -0.5889 -0.0953
  569MOL0     C75035   7.639   1.555  10.405  0.1877 -0.0913  0.1166
  569MOL0     C75036   7.672   1.700  10.414  0.8660 -0.1118 -0.4212
  569MOL0     C75037   7.689   1.755  10.271 -1.1184  0.0842 -0.0487
  569MOL0     C75038   7.723   1.910  10.259 -0.4924  0.0946 -0.1448
  569MOL0     C75039   7.690   2.000  10.369  0.1430  0.5605  0.4333
  569MOL0     C75040   7.676   2.091  10.449 -0.1959  0.2808  0.7319
  569MOL0     C75041   7.369   1.524  10.538 -0.2771 -0.6410  0.5482
  569MOL0     C75042   7.239   1.525  10.585 -0.3607 -0.3658  0.5998
  569MOL0     H75043   6.892   1.573  10.920  1.4155 -1.8461 -1.7200
  569MOL0     H75044   6.669   1.542  11.017 -0.9350  1.9131  0.1727
  569MOL0     H75045   6.293   1.428  10.764 -0.0831  0.8465 -1.3474
  569MOL0     H75046   6.378   1.589  10.769 -1.7779  1.2412  0.6560
  569MOL0     H75047   6.293   1.625  10.990 -1.8970 -0.3373  2.7854
  569MOL0     H75048   6.222   1.455  10.986  0.7422 -2.1832 -2.0081
  569MOL0     H75049   6.077   1.532  10.812  2.4930 -1.2147 -1.4266
  569MOL0     H75050   6.160   1.677  10.780  5.6037 -2.7585  0.9375
  569MOL0     H75051   6.005   1.620  11.040 -0.6856 -2.5762 -0.5029
  569MOL0     H75052   6.097   1.773  10.999  1.1391 -2.9389  0.8163
  569MOL0     H75053   5.957   1.778  10.785 -0.9520  1.9091  0.5521
  569MOL0     H75054   5.854   1.801  10.938 -2.1405 -1.3238 -1.1666
  569MOL0     H75055   5.826   1.544  10.914 -1.5254  1.3348  0.1863
  569MOL0     H75056   5.849   1.579  10.748 -0.9761 -2.5017 -0.2553
  569MOL0     H75057   5.608   1.588  10.879 -2.8952  1.0536 -1.2758
  569MOL0     H75058   5.667   1.755  10.915  1.1423 -0.5329  1.1308
  569MOL0     H75059   5.637   1.626  10.630 -1.0522 -0.0323 -0.6669
  569MOL0     H75060   5.678   1.803  10.660  0.0118  1.2458  1.6133
  569MOL0     H75061   5.453   1.947  10.654 -1.5674 -0.0896 -2.7390
  569MOL0     H75062   5.179   1.982  10.588 -1.2916 -0.5931  0.1440
  569MOL0     H75063   5.183   1.992  10.757 -1.9685  2.1943 -1.9203
  569MOL0     H75064   5.029   1.803  10.774  0.3418 -0.0732 -0.2025
  569MOL0     H75065   5.027   1.806  10.593  1.0081 -2.2490  1.3316
  569MOL0     H75066   4.960   2.057  10.632  3.0606  1.0696  3.2863
  569MOL0     H75067   4.832   1.935  10.647  1.8029 -2.2018 -1.7626
  569MOL0     H75068   4.979   2.057  10.884 -0.6846  1.4883  0.5805
  569MOL0     H75069   4.857   1.929  10.897  1.0680 -0.1284  1.1120
  569MOL0     H75070   4.567   2.249  10.888  1.8384 -0.5778  1.3486
  569MOL0     H75071   4.334   2.174  10.906 -3.0557 -2.2414  1.5079
  569MOL0     H75072   4.016   1.767  11.028  0.0945 -1.4806  0.6079
  569MOL0     H75073   3.795   1.667  11.006 -0.8250  2.0367 -0.1232
  569MOL0     H75074   3.577   1.752  10.851  0.7962 -0.0597 -1.1943
  569MOL0     H75075   3.605   1.602  10.957  1.0162  1.6071  0.5807
  569MOL0     H75076   3.439   1.492  10.792 -1.2579  0.1711 -2.5326
  569MOL0     H75077   3.404   1.650  10.722  0.6923 -0.0175 -0.7352
  569MOL0     H75078   3.338   1.747  10.938 -0.9705 -0.5315  0.7352
  569MOL0     H75079   3.344   1.588  11.019  0.0803  2.2377  1.9164
  569MOL0     H75080   3.182   1.683  10.781 -0.2858 -0.3895 -0.3115
  569MOL0     H75081   3.206   1.508  10.824  3.8204 -0.1432  1.4655
  569MOL0     H75082   3.049   1.732  10.978 -0.6217 -0.9887  0.0986
  569MOL0     H75083   3.100   1.578  11.058 -0.7080  2.6186  2.1196
  569MOL0     H75084   2.986   1.441  10.888 -0.1923  0.0777 -0.4013
  569MOL0     H75085   2.935   1.582  10.794  2.0299 -0.6329 -1.4220
  569MOL0     H75086   2.858   1.478  11.074  1.1310 -0.0198 -0.1635
  569MOL0     H75087   2.839   1.654  11.053  1.8080  0.9069 -0.6697
  569MOL0     H75088   2.629   1.501  11.013 -1.5082  1.4494  0.0500
  569MOL0     H75089   2.729   1.423  10.883  3.5097  0.2726  1.9633
  569MOL0     H75090   3.841   1.652  10.577  0.7270 -1.5368 -0.1353
  569MOL0     H75091   4.068   1.747  10.599 -3.3851 -0.5664 -2.2036
  569MOL0     H75092   4.453   1.771  10.795 -0.4217  0.6681 -2.6641
  569MOL0     H75093   4.685   1.848  10.797  0.8335 -0.5299  0.2730
  569MOL0     H75094   6.546   1.366  10.637 -1.6376  1.1069 -0.1377
  569MOL0     H75095   6.765   1.415  10.552  1.6111  0.3010  0.0155
  569MOL0     H75096   7.065   1.533  10.292 -0.1965 -1.0562 -0.7489
  569MOL0     H75097   7.293   1.535  10.212 -1.9893  0.4378  0.0404
  569MOL0     H75098   7.721   1.501  10.356  0.2494  1.2686 -1.3739
  569MOL0     H75099   7.645   1.514  10.506 -1.1834 -0.1430  0.1954
  569MOL0     H75100   7.600   1.755  10.475  0.4425 -0.0673 -0.9548
  569MOL0     H75101   7.769   1.705  10.463  0.1587 -3.5075  1.6363
  569MOL0     H75102   7.595   1.737  10.218 -2.5329  2.1271  1.6299
  569MOL0     H75103   7.766   1.702  10.214 -0.8348 -1.6635  1.8174
  569MOL0     H75104   7.831   1.921  10.243 -0.2626  1.8063  2.0218
  569MOL0     H75105   7.668   1.943  10.170 -1.8237 -1.1894  0.1569
  569MOL0     H75106   7.636   2.159  10.521 -0.6768 -0.7232  1.4423
  569MOL0     H75107   7.444   1.518  10.616 -1.5094  0.3647  1.8425
  569MOL0     H75108   7.224   1.517  10.692  0.1751 -3.2763  0.5351
  570MOL0     O75109   7.342   9.446  11.011  0.4959 -1.2487  0.2300
  570MOL0     C75110   7.347   9.503  11.117  0.0979  0.6647 -0.2910
  570MOL0     O75111   7.244   9.508  11.217 -0.2159 -0.3785  0.4025
  570MOL0     C75112   7.120   9.461  11.184  0.3324 -0.8568  0.2148
  570MOL0     C75113   7.064   9.374  11.282  0.0548 -0.4109 -0.6654
  570MOL0     C75114   6.934   9.324  11.266 -0.6814 -0.3719 -0.2281
  570MOL0     C75115   6.852   9.359  11.155 -0.7309  0.1639 -0.5487
  570MOL0     O75116   6.735   9.295  11.128 -0.0488 -0.1263 -0.0015
  570MOL0     C75117   6.625   9.323  11.221 -0.2925 -0.2819 -0.2916
  570MOL0     C75118   6.497   9.242  11.198  0.9878  0.3465 -0.2196
  570MOL0     C75119   6.510   9.090  11.213 -0.4260  0.6863 -0.5879
  570MOL0     C75120   6.383   9.014  11.182 -0.0524  0.0299 -0.2481
  570MOL0     C75121   6.384   8.868  11.219  0.1541  0.0468  0.7356
  570MOL0     C75122   6.468   8.787  11.113  0.7831 -1.6994 -0.3598
  570MOL0     C75123   6.459   8.635  11.137 -0.4613 -0.3823  0.0520
  570MOL0     C75124   6.356   8.552  11.065  0.7431 -0.0016  0.5688
  570MOL0     N75125   6.214   8.609  11.068  0.3057 -0.1487  0.4671
  570MOL0     C75126   6.175   8.712  10.991  0.3095  0.2985 -1.1796
  570MOL0     C75127   6.054   8.746  11.029 -0.4523  0.5286 -0.0976
  570MOL0     C75128   5.974   8.851  10.969  0.2725 -0.5153  0.5486
  570MOL0     C75129   5.932   8.817  10.827  0.7966  1.1629  0.3002
  570MOL0     C75130   5.861   8.679  10.819 -0.2552 -0.3230  0.4874
  570MOL0     C75131   5.749   8.662  10.923  1.1234 -0.2640  0.3359
  570MOL0     O75132   5.667   8.775  10.913 -0.1283 -0.6342 -0.0140
  570MOL0     C75133   5.564   8.777  11.007  0.5439  0.9383 -0.1439
  570MOL0     C75134   5.507   8.666  11.069  0.2642  0.1782  0.5351
  570MOL0     C75135   5.389   8.697  11.131 -0.3052  0.5463 -0.3326
  570MOL0     C75136   5.324   8.820  11.141  0.0343  0.0976 -0.5949
  570MOL0     C75137   5.183   8.829  11.206  0.5061  0.1137 -0.7887
  570MOL0     O75138   5.099   8.722  11.190 -0.6443 -0.1729  0.1288
  570MOL0     C75139   4.975   8.710  11.242  0.7010  0.2687  0.3020
  570MOL0     C75140   4.954   8.729  11.380  0.0260 -0.1618  0.0420
  570MOL0     C75141   4.834   8.697  11.442  0.2815  0.0310 -0.5069
  570MOL0     C75142   4.731   8.633  11.374  0.2628  0.1803 -0.3829
  570MOL0     O75143   4.630   8.567  11.429 -0.1044 -0.7624 -0.4050
  570MOL0     C75144   4.579   8.616  11.555 -0.4953 -0.2701 -0.0066
  570MOL0     C75145   4.440   8.563  11.574  0.2790  0.4841 -0.2541
  570MOL0     C75146   4.398   8.411  11.549  0.5625 -0.3076  0.5485
  570MOL0     C75147   4.249   8.386  11.581  0.6180 -0.9597  0.0644
  570MOL0     C75148   4.210   8.242  11.572 -0.0342  0.2622 -0.0514
  570MOL0     C75149   4.062   8.210  11.573  0.2960 -0.3466  0.4319
  570MOL0     C75150   4.034   8.060  11.573 -0.3696  0.0574 -0.2420
  570MOL0     C75151   3.887   8.037  11.593  0.4754  0.8835 -1.0048
  570MOL0    Cl75152   3.845   7.862  11.598 -0.0801  0.0285 -0.2054
  570MOL0     C75153   4.757   8.610  11.242  0.1384 -0.3731  0.9751
  570MOL0     C75154   4.870   8.649  11.172 -0.2860 -0.1500  0.1751
  570MOL0     O75155   5.151   8.930  11.266 -0.0217  0.2308  0.3498
  570MOL0     C75156   5.388   8.931  11.090 -0.0639  0.8416 -1.2870
  570MOL0     C75157   5.517   8.907  11.030  0.4416 -0.0733  0.2808
  570MOL0     N75158   6.017   8.657  11.134  0.2698  0.2429 -0.3873
  570MOL0     N75159   6.120   8.586  11.166  0.6243  0.6515  0.5448
  570MOL0     C75160   6.914   9.437  11.060 -0.0265  0.0991  0.4752
  570MOL0     C75161   7.041   9.489  11.072  0.0442  0.4147 -0.2891
  570MOL0     C75162   7.472   9.580  11.134  0.7301 -0.4431 -0.1376
  570MOL0     C75163   7.600   9.523  11.106 -0.6394  0.3245  0.1029
  570MOL0     C75164   7.713   9.605  11.121  0.6941 -0.6274 -0.1787
  570MOL0     C75165   7.701   9.736  11.155 -0.1946 -0.0600 -0.5999
  570MOL0     O75166   7.814   9.818  11.161  0.3104 -0.3592 -0.6829
  570MOL0     C75167   7.805   9.949  11.082 -0.3603  0.7741  0.2893
  570MOL0     C75168   7.930  10.043  11.085  0.9215  0.2195 -1.3026
  570MOL0     C75169   8.050   9.969  11.034 -0.0946 -1.0908 -0.1287
  570MOL0     C75170   8.174  10.056  11.058 -0.2084 -0.0334 -0.5570
  570MOL0     C75171   8.203  10.055  11.197 -0.2478  0.6831  0.0562
  570MOL0     C75172   8.240  10.046  11.315  0.8007  0.1922 -0.4256
  570MOL0     C75173   7.572   9.788  11.170  0.5881 -0.7221  0.9207
  570MOL0     C75174   7.454   9.717  11.156  0.2936 -0.7086 -0.2557
  570MOL0     H75175   7.113   9.353  11.377  1.5357 -0.2710 -1.3710
  570MOL0     H75176   6.893   9.248  11.332  0.4669 -0.1052  0.8361
  570MOL0     H75177   6.591   9.427  11.211 -0.6911 -0.6038 -2.7967
  570MOL0     H75178   6.660   9.312  11.324 -0.7796 -1.2538 -0.2247
  570MOL0     H75179   6.448   9.274  11.106 -0.9307  2.3670  1.3824
  570MOL0     H75180   6.429   9.283  11.273  0.9926  2.6561 -1.4072
  570MOL0     H75181   6.532   9.066  11.317 -0.0137 -1.1825 -1.0822
  570MOL0     H75182   6.584   9.051  11.142 -4.3702 -2.2398 -3.5855
  570MOL0     H75183   6.304   9.062  11.239 -1.3769 -0.0015 -1.9659
  570MOL0     H75184   6.368   9.041  11.077  0.5293 -1.0275 -0.6236
  570MOL0     H75185   6.280   8.834  11.216  0.0425  0.1712  2.4225
  570MOL0     H75186   6.406   8.861  11.326  2.9977 -0.6880  0.1801
  570MOL0     H75187   6.576   8.806  11.116  0.5789 -0.0076 -1.8166
  570MOL0     H75188   6.427   8.812  11.015 -3.4524  0.3025  1.6715
  570MOL0     H75189   6.554   8.599  11.095 -0.0468  0.9544 -0.2003
  570MOL0     H75190   6.459   8.617  11.245  2.1236  2.5615  0.6908
  570MOL0     H75191   6.349   8.457  11.120 -2.2038  0.1563  0.6626
  570MOL0     H75192   6.391   8.519  10.967 -0.8277  1.5934 -0.6017
  570MOL0     H75193   6.221   8.763  10.907  0.9486  0.9436 -0.4516
  570MOL0     H75194   6.041   8.938  10.963  1.6272 -1.5926 -0.9482
  570MOL0     H75195   5.884   8.868  11.028  0.4090 -2.0595  1.2305
  570MOL0     H75196   6.019   8.828  10.762  1.9595 -1.2087  1.3637
  570MOL0     H75197   5.860   8.890  10.789 -1.9893 -0.5665  1.9426
  570MOL0     H75198   5.817   8.659  10.722 -1.8814  1.1837  0.8745
  570MOL0     H75199   5.941   8.604  10.830 -1.2128 -1.1086  2.9132
  570MOL0     H75200   5.784   8.650  11.026 -1.0997  1.6582  1.3982
  570MOL0     H75201   5.693   8.574  10.893 -1.3160  1.0275  0.8840
  570MOL0     H75202   5.548   8.565  11.064  4.6680  1.5576  3.0931
  570MOL0     H75203   5.332   8.619  11.180  0.6932  1.4522  2.4518
  570MOL0     H75204   5.031   8.757  11.451 -1.1279 -0.7419  1.5928
  570MOL0     H75205   4.819   8.714  11.549 -2.6409  1.8772 -1.0887
  570MOL0     H75206   4.578   8.724  11.569 -1.7354 -0.4635  1.7400
  570MOL0     H75207   4.635   8.590  11.645 -2.4502 -2.1354  0.7795
  570MOL0     H75208   4.389   8.618  11.494  0.5853  0.5947 -0.3759
  570MOL0     H75209   4.413   8.597  11.674 -1.2592  0.3927 -0.6210
  570MOL0     H75210   4.461   8.343  11.607 -0.8552 -2.9424 -0.8328
  570MOL0     H75211   4.414   8.394  11.442 -3.6083 -0.1416 -0.2514
  570MOL0     H75212   4.225   8.439  11.673 -1.2781  1.7264 -1.8216
  570MOL0     H75213   4.181   8.439  11.514  0.2099  2.4924  2.8943
  570MOL0     H75214   4.264   8.186  11.649  1.7789  0.8082 -0.8686
  570MOL0     H75215   4.247   8.195  11.481 -2.7756 -0.1508 -1.0542
  570MOL0     H75216   4.011   8.250  11.485  2.2248 -1.6572 -1.3722
  570MOL0     H75217   4.021   8.251  11.666 -0.1162 -1.0335  0.5606
  570MOL0     H75218   4.058   8.008  11.480  1.1379  1.4526 -0.6771
  570MOL0     H75219   4.086   8.016  11.659 -0.2471 -1.3858 -1.0281
  570MOL0     H75220   3.830   8.076  11.508  0.3096 -0.1584 -1.3867
  570MOL0     H75221   3.863   8.084  11.689  1.5492 -0.7871  0.1225
  570MOL0     H75222   4.671   8.572  11.188 -0.5378  0.6687  1.2825
  570MOL0     H75223   4.886   8.626  11.067 -0.7486  0.7866 -0.1097
  570MOL0     H75224   5.338   9.026  11.103  1.3885  1.5770 -0.8614
  570MOL0     H75225   5.568   8.995  10.993  0.8586 -0.8777 -1.1149
  570MOL0     H75226   6.864   9.458  10.966 -1.7155  0.0148  1.3184
  570MOL0     H75227   7.087   9.548  10.994  2.7992 -1.3511 -0.1549
  570MOL0     H75228   7.609   9.420  11.073  1.6182 -0.8713  3.9064
  570MOL0     H75229   7.813   9.573  11.090  0.5422  0.8341 -2.4370
  570MOL0     H75230   7.721  10.010  11.118 -0.5844  1.0960 -0.7398
  570MOL0     H75231   7.778   9.921  10.979 -2.2873  1.5734  0.5192
  570MOL0     H75232   7.906  10.131  11.024  0.8448  0.7506 -0.5148
  570MOL0     H75233   7.937  10.076  11.189 -0.1166 -3.8345  0.2359
  570MOL0     H75234   8.039   9.949  10.927  3.1761  1.3582 -1.0805
  570MOL0     H75235   8.062   9.871  11.081  1.0441 -0.5112  0.8341
  570MOL0     H75236   8.258  10.019  10.997  0.5692  0.9198 -0.0869
  570MOL0     H75237   8.153  10.158  11.025 -0.1164 -0.1067 -0.8445
  570MOL0     H75238   8.284  10.026  11.411 -0.7386  1.1628  0.5120
  570MOL0     H75239   7.553   9.893  11.190  1.6810 -0.0749 -1.0626
  570MOL0     H75240   7.353   9.754  11.168  0.9487  0.2281  4.4539
  571MOL0     O75241   6.198  10.137   9.049 -0.4454 -0.9291  0.4096
  571MOL0     C75242   6.244  10.225   8.978 -0.9021  0.7178  0.5621
  571MOL0     O75243   6.171  10.331   8.918 -0.4017 -0.1396 -0.0463
  571MOL0     C75244   6.045  10.345   8.977 -0.0675  0.5638  0.9307
  571MOL0     C75245   5.933  10.294   8.918  0.5180  0.3845  0.6518
  571MOL0     C75246   5.807  10.306   8.975  0.7826 -0.3868 -1.2251
  571MOL0     C75247   5.803  10.370   9.102 -0.3002  0.1058 -0.5619
  571MOL0     O75248   5.692  10.373   9.176 -0.2599 -0.6392 -0.6748
  571MOL0     C75249   5.604  10.487   9.149 -0.0070 -0.5516  0.7780
  571MOL0     C75250   5.470  10.461   9.087 -0.9642 -0.0672  0.0091
  571MOL0     C75251   5.384  10.373   9.176 -0.0656  0.7833 -0.1092
  571MOL0     C75252   5.234  10.360   9.127  0.1888 -0.2047  0.0891
  571MOL0     C75253   5.145  10.283   9.229  0.0019 -0.4833 -0.2253
  571MOL0     C75254   5.183  10.131   9.248  0.0633  0.6561  0.2385
  571MOL0     C75255   5.165  10.049   9.117  0.0303  0.5019 -0.1279
  571MOL0     C75256   5.021  10.058   9.061 -0.2342  0.0627 -0.7150
  571MOL0     N75257   4.910  10.040   9.157 -0.0461  0.0405 -0.3711
  571MOL0     C75258   4.803  10.112   9.178  0.1593 -0.1483 -0.4560
  571MOL0     C75259   4.734  10.053   9.282 -0.2336  1.0621 -1.1384
  571MOL0     C75260   4.621  10.122   9.356 -1.2619  0.2350  0.7327
  571MOL0     C75261   4.548  10.224   9.282  0.1052 -0.0953  0.1772
  571MOL0     C75262   4.446  10.179   9.180 -0.0296  0.5645  0.0613
  571MOL0     C75263   4.353  10.056   9.223 -0.2736  0.2808  0.9897
  571MOL0     O75264   4.267  10.089   9.326  1.0630  0.5950 -0.1180
  571MOL0     C75265   4.144  10.152   9.308 -0.0738 -0.3597 -1.1256
  571MOL0     C75266   4.071  10.197   9.417  0.2046 -0.2178 -1.3507
  571MOL0     C75267   3.954  10.270   9.411  0.7798  0.6684  0.3083
  571MOL0     C75268   3.898  10.298   9.290 -0.5071 -0.8771 -1.0069
  571MOL0     C75269   3.756  10.370   9.280  0.0416  0.2963  0.7253
  571MOL0     O75270   3.699  10.347   9.153  0.5728  0.2768  0.0860
  571MOL0     C75271   3.574  10.390   9.102 -0.5571 -0.6072  0.1599
  571MOL0     C75272   3.546  10.355   8.965  0.0397 -0.0180 -0.3695
  571MOL0     C75273   3.419  10.382   8.917  0.5412 -0.0592 -0.2618
  571MOL0     C75274   3.319  10.448   8.996 -0.2132 -0.8378  0.4662
  571MOL0     O75275   3.191  10.457   8.936 -0.3894 -0.0104 -0.2008
  571MOL0     C75276   3.081  10.542   8.982 -0.2637  0.0870  0.2869
  571MOL0     C75277   2.961  10.497   8.891  0.8774  0.2913 -0.4475
  571MOL0     C75278   2.830  10.573   8.917  0.8747 -0.8945 -0.6037
  571MOL0     C75279   2.714  10.522   8.845 -1.1368  0.4626  0.7122
  571MOL0     C75280   2.575  10.571   8.856 -0.2188 -0.2508 -0.0077
  571MOL0     C75281   2.494  10.553   8.733 -1.3789 -0.6904  1.1607
  571MOL0     C75282   2.356  10.604   8.727  0.4989 -0.0753 -0.2955
  571MOL0     C75283   2.340  10.740   8.773 -0.3155 -0.1270 -0.4602
  571MOL0    Cl75284   2.169  10.790   8.790 -0.2197  0.0296  0.3484
  571MOL0     C75285   3.352  10.504   9.122 -0.3720  0.1244  0.7289
  571MOL0     C75286   3.479  10.468   9.176  0.3960  0.6124  0.2206
  571MOL0     O75287   3.699  10.407   9.381  0.0518 -0.3211  0.1300
  571MOL0     C75288   3.967  10.261   9.172  0.5632 -0.5777 -0.6658
  571MOL0     C75289   4.091  10.187   9.185  0.2452  0.4251  0.6548
  571MOL0     N75290   4.800   9.941   9.324  0.4815 -0.9627  1.4871
  571MOL0     N75291   4.915   9.948   9.251 -0.0235  0.0767  0.4973
  571MOL0     C75292   5.923  10.423   9.161  0.1240 -0.5149  0.5015
  571MOL0     C75293   6.046  10.415   9.101  0.0115  0.4174 -0.6239
  571MOL0     C75294   6.395  10.241   8.961 -0.0377  0.0410 -0.8197
  571MOL0     C75295   6.437  10.335   8.870  0.2312 -0.5081  0.2025
  571MOL0     C75296   6.566  10.366   8.840  0.2166  0.4475 -0.1579
  571MOL0     C75297   6.662  10.297   8.907  0.1067 -0.5718 -0.7965
  571MOL0     O75298   6.787  10.326   8.877  0.1796 -0.7281  0.3542
  571MOL0     C75299   6.900  10.239   8.918 -0.4391 -0.0844  0.5346
  571MOL0     C75300   7.014  10.293   8.846 -0.1892  0.1968  0.1471
  571MOL0     C75301   7.140  10.210   8.845 -0.7904 -0.2846 -0.2969
  571MOL0     C75302   7.153  10.096   8.748  0.0056  0.2710 -0.4494
  571MOL0     C75303   7.154  10.140   8.613  0.2760 -0.5771  0.1712
  571MOL0     C75304   7.153  10.179   8.501  0.1865 -0.2247  0.5486
  571MOL0     C75305   6.631  10.198   9.005 -0.3312 -0.2891 -0.6199
  571MOL0     C75306   6.499  10.172   9.030  0.2112  0.3875  0.3478
  571MOL0     H75307   5.941  10.230   8.830  0.9015 -2.4396  2.6190
  571MOL0     H75308   5.713  10.279   8.926  0.0588 -1.3151  0.5971
  571MOL0     H75309   5.658  10.550   9.077 -0.7363 -0.5548  0.2088
  571MOL0     H75310   5.583  10.548   9.237 -0.4237 -0.1441  0.4015
  571MOL0     H75311   5.474  10.399   8.997  1.6822 -1.0087  0.6909
  571MOL0     H75312   5.420  10.555   9.064  0.2260 -0.1824 -3.8479
  571MOL0     H75313   5.383  10.416   9.277 -1.7684 -1.1161  0.7449
  571MOL0     H75314   5.436  10.277   9.176  1.9875  1.6931 -3.4546
  571MOL0     H75315   5.182  10.456   9.133  2.3463  0.9353  3.7401
  571MOL0     H75316   5.225  10.323   9.024 -0.0987 -2.1246  0.7578
  571MOL0     H75317   5.039  10.286   9.205  0.1123 -3.9877 -1.8383
  571MOL0     H75318   5.167  10.326   9.327  3.1270 -0.3494 -0.8795
  571MOL0     H75319   5.136  10.075   9.330 -1.0569 -1.4502 -1.7282
  571MOL0     H75320   5.287  10.145   9.280 -0.4796  2.0265  1.4927
  571MOL0     H75321   5.238  10.071   9.038 -0.0915 -3.9813 -1.7830
  571MOL0     H75322   5.188   9.944   9.137 -1.7205 -0.0545 -0.7940
  571MOL0     H75323   5.011   9.984   8.980 -0.2560  0.3976 -1.0234
  571MOL0     H75324   5.017  10.155   9.010 -2.8126  0.7624  0.6503
  571MOL0     H75325   4.774  10.201   9.124  0.2259 -0.5967 -1.2484
  571MOL0     H75326   4.654  10.178   9.445 -1.0430  0.5640  0.4461
  571MOL0     H75327   4.550  10.046   9.389 -0.1924 -1.3698 -0.5120
  571MOL0     H75328   4.617  10.289   9.228  0.1707 -0.5058 -0.2362
  571MOL0     H75329   4.479  10.275   9.351  2.0000  0.3542  1.8559
  571MOL0     H75330   4.382  10.265   9.158 -0.4667 -0.1274 -1.4872
  571MOL0     H75331   4.507  10.149   9.094  0.1573  0.4975  0.2155
  571MOL0     H75332   4.426   9.979   9.250  1.9446  1.8326 -0.2686
  571MOL0     H75333   4.291  10.019   9.140 -0.6463 -0.2496  1.4999
  571MOL0     H75334   4.096  10.171   9.519  0.7143  1.5236 -1.0127
  571MOL0     H75335   3.889  10.304   9.491  0.4547 -1.5294  1.0283
  571MOL0     H75336   3.617  10.287   8.919  0.2171  0.2526 -0.4978
  571MOL0     H75337   3.401  10.355   8.813  1.7573  3.2596 -1.4752
  571MOL0     H75338   3.101  10.644   8.949  1.0464  0.3530  1.8182
  571MOL0     H75339   3.069  10.538   9.091 -0.1281 -0.3230  0.2906
  571MOL0     H75340   2.947  10.390   8.910  0.7477  0.3804 -0.0133
  571MOL0     H75341   2.977  10.515   8.785  0.5666 -2.0276 -0.9452
  571MOL0     H75342   2.847  10.677   8.889  1.9626 -0.2622  2.1104
  571MOL0     H75343   2.804  10.568   9.023  1.3724 -1.9295 -0.5207
  571MOL0     H75344   2.738  10.515   8.739  3.2758 -0.5773  1.5718
  571MOL0     H75345   2.705  10.417   8.874 -2.0124  0.5839  0.8892
  571MOL0     H75346   2.586  10.676   8.882  2.7045 -0.0783 -1.5520
  571MOL0     H75347   2.529  10.530   8.946  0.9194 -0.8937  0.2949
  571MOL0     H75348   2.505  10.448   8.704 -0.4232 -0.4730  0.7173
  571MOL0     H75349   2.536  10.599   8.644 -4.8496  0.1890 -0.2031
  571MOL0     H75350   2.315  10.594   8.626  1.3423  0.0253 -0.6535
  571MOL0     H75351   2.302  10.540   8.798  1.9480  1.4599  2.3565
  571MOL0     H75352   2.390  10.803   8.699 -1.9403 -0.1349 -1.6102
  571MOL0     H75353   2.389  10.743   8.870 -1.4970  0.3776  0.1333
  571MOL0     H75354   3.292  10.583   9.165 -2.0805  1.0132 -2.9524
  571MOL0     H75355   3.491  10.507   9.276 -1.9055  1.8885  0.0609
  571MOL0     H75356   3.935  10.291   9.073  0.9142  3.0362  0.1718
  571MOL0     H75357   4.143  10.161   9.094 -0.5630  0.9070  0.0395
  571MOL0     H75358   5.901  10.481   9.251 -3.1291  2.8031 -2.1419
  571MOL0     H75359   6.132  10.466   9.144  1.1579 -0.8932 -1.2917
  571MOL0     H75360   6.363  10.407   8.836 -0.3136  0.1321  2.5849
  571MOL0     H75361   6.598  10.444   8.772  1.0027 -0.4222 -0.8179
  571MOL0     H75362   6.889  10.135   8.885  0.7609  0.6707 -2.5640
  571MOL0     H75363   6.921  10.247   9.025  1.6681 -2.9024  0.4449
  571MOL0     H75364   6.983  10.316   8.744 -1.4599  1.9610  0.8736
  571MOL0     H75365   7.043  10.387   8.895 -1.3732  0.5689  0.1522
  571MOL0     H75366   7.139  10.172   8.948 -4.0498 -0.9866 -0.4835
  571MOL0     H75367   7.227  10.277   8.842 -2.6440  2.2877 -0.3894
  571MOL0     H75368   7.240  10.034   8.768 -0.3237  0.0583  0.3521
  571MOL0     H75369   7.065  10.032   8.759 -2.3661  3.1955 -0.8534
  571MOL0     H75370   7.155  10.201   8.396  3.1060 -4.3222 -0.5051
  571MOL0     H75371   6.707  10.154   9.068  0.2389  1.7611  0.1988
  571MOL0     H75372   6.475  10.107   9.114  4.3134 -2.3518 -0.2925
  572MOL0     O75373   4.163   9.557   6.090  0.3724 -0.0747  0.4235
  572MOL0     C75374   4.235   9.454   6.093 -0.6947 -0.7789 -0.0569
  572MOL0     O75375   4.195   9.327   6.066  0.3220 -0.1168  0.6146
  572MOL0     C75376   4.058   9.302   6.074 -1.5899  0.1096  0.0372
  572MOL0     C75377   3.977   9.344   6.180 -0.5291 -0.0408  0.6239
  572MOL0     C75378   3.843   9.313   6.180 -0.6192  0.1898  1.2294
  572MOL0     C75379   3.785   9.246   6.082 -0.4186 -0.4240 -0.9538
  572MOL0     O75380   3.656   9.218   6.112 -0.1438  0.3724  0.2091
  572MOL0     C75381   3.584   9.140   6.018 -0.6176  0.5670  0.3664
  572MOL0     C75382   3.446   9.113   6.066  0.2504  0.0125  0.2075
  572MOL0     C75383   3.364   9.021   5.974  0.2746  0.2215  1.4671
  572MOL0     C75384   3.234   8.962   6.032 -0.0205  0.2913  0.2152
  572MOL0     C75385   3.158   8.844   5.963  0.2409 -0.0990  0.1764
  572MOL0     C75386   3.229   8.708   5.986  0.3521  0.0093  0.6072
  572MOL0     C75387   3.137   8.597   5.932  0.1999  0.8720  0.4370
  572MOL0     C75388   3.188   8.455   5.972 -0.5042  0.3202  0.5413
  572MOL0     N75389   3.113   8.404   6.091  0.0569 -0.2618 -0.3228
  572MOL0     C75390   3.014   8.302   6.104  0.3605 -0.2001  0.2034
  572MOL0     C75391   2.971   8.319   6.231  0.6859 -0.3626 -0.4861
  572MOL0     C75392   2.861   8.235   6.299 -0.5306  0.3155 -0.4941
  572MOL0     C75393   2.735   8.296   6.240  0.1585  0.4213  0.5492
  572MOL0     C75394   2.613   8.195   6.253 -1.1146 -0.1799 -0.0416
  572MOL0     C75395   2.508   8.201   6.140  0.7511  0.5462 -0.5481
  572MOL0     O75396   2.428   8.077   6.160  0.5297  0.0900  0.7329
  572MOL0     C75397   2.315   8.088   6.080  0.7787 -0.0736 -0.0679
  572MOL0     C75398   2.212   7.994   6.107  0.4042 -0.6724  0.1357
  572MOL0     C75399   2.095   7.985   6.024  0.9029  0.6028 -0.4490
  572MOL0     C75400   2.063   8.092   5.942 -1.1535  0.9104  0.4895
  572MOL0     C75401   1.923   8.108   5.878 -0.1230  0.2325 -0.4464
  572MOL0     O75402   1.851   7.995   5.861  0.5136 -0.1153  1.1503
  572MOL0     C75403   1.718   7.992   5.822 -0.0760 -0.1464  0.7306
  572MOL0     C75404   1.619   8.086   5.859  0.6685 -0.2846  0.2457
  572MOL0     C75405   1.485   8.069   5.830 -0.4663  0.2249  0.8365
  572MOL0     C75406   1.440   7.948   5.760 -0.8917 -0.0418 -0.5580
  572MOL0     O75407   1.314   7.905   5.718  0.3521  0.3005 -0.3503
  572MOL0     C75408   1.196   7.985   5.741 -0.5179 -0.0023  0.0627
  572MOL0     C75409   1.157   7.968   5.885  1.1152  1.0585 -0.1974
  572MOL0     C75410   1.026   8.041   5.921 -0.3421 -0.4198 -0.2312
  572MOL0     C75411   1.048   8.190   5.905  0.2864  0.6044  0.3840
  572MOL0     C75412   0.964   8.262   6.003 -0.0307  0.4230 -0.8950
  572MOL0     C75413   0.811   8.242   5.971 -1.1242  0.6792 -1.0686
  572MOL0     C75414   0.717   8.356   6.006 -0.6345  0.1564  0.4405
  572MOL0     C75415   0.672   8.339   6.146 -0.1167 -0.5247 -0.7423
  572MOL0    Cl75416   0.556   8.214   6.166 -0.1021  0.2494 -0.2473
  572MOL0     C75417   1.542   7.854   5.720 -0.8592  0.1204  0.0134
  572MOL0     C75418   1.684   7.887   5.745  0.0415 -0.1021  0.0428
  572MOL0     O75419   1.899   8.223   5.843 -0.3328  0.0591 -0.4411
  572MOL0     C75420   2.161   8.192   5.921  0.0339  0.6692 -0.0233
  572MOL0     C75421   2.286   8.187   5.980  0.1716  0.0408  0.5010
  572MOL0     N75422   3.039   8.432   6.291  0.2572  0.4717 -0.0892
  572MOL0     N75423   3.128   8.465   6.207  0.4963  0.1365 -0.0203
  572MOL0     C75424   3.863   9.191   5.978  0.9140  0.0272  0.4299
  572MOL0     C75425   4.000   9.218   5.976 -0.1169  0.3964  0.3239
  572MOL0     C75426   4.384   9.466   6.089  0.6428  0.2603 -0.1323
  572MOL0     C75427   4.472   9.360   6.072 -0.2346  0.1443 -0.6397
  572MOL0     C75428   4.612   9.378   6.079 -0.7199 -0.1350 -0.0166
  572MOL0     C75429   4.671   9.498   6.102  0.5860 -0.7685 -0.0786
  572MOL0     O75430   4.808   9.524   6.101  0.4102  0.2262 -0.1495
  572MOL0     C75431   4.899   9.428   6.055  0.3310 -0.6689 -0.1151
  572MOL0     C75432   4.901   9.404   5.894  0.3382  0.0695 -0.2185
  572MOL0     C75433   4.918   9.513   5.794  0.2710 -0.2552 -0.3914
  572MOL0     C75434   5.032   9.600   5.851 -0.5374 -0.1629  0.1945
  572MOL0     C75435   5.097   9.670   5.739 -0.1196  0.1046  0.6463
  572MOL0     C75436   5.141   9.752   5.662  0.7021  0.0498  0.1022
  572MOL0     C75437   4.592   9.611   6.116  0.2184 -0.6480  0.5798
  572MOL0     C75438   4.449   9.593   6.116 -0.2248  0.1295  0.2756
  572MOL0     H75439   4.032   9.403   6.253  1.0603  0.6939 -1.0811
  572MOL0     H75440   3.773   9.357   6.250 -3.1724  0.3311 -1.2230
  572MOL0     H75441   3.635   9.043   6.013  0.2292  0.9913  0.5886
  572MOL0     H75442   3.579   9.184   5.918 -0.0145  4.2918  1.8200
  572MOL0     H75443   3.386   9.205   6.056 -1.4781 -0.9751  1.0848
  572MOL0     H75444   3.454   9.078   6.169 -1.3142 -1.5976 -0.1712
  572MOL0     H75445   3.424   8.935   5.943 -3.8410 -1.5330 -2.8163
  572MOL0     H75446   3.343   9.074   5.881  2.1781 -0.2787  0.7011
  572MOL0     H75447   3.257   8.929   6.134  2.1095  0.8223 -0.0486
  572MOL0     H75448   3.164   9.047   6.032 -0.3602  0.0216  0.8576
  572MOL0     H75449   3.140   8.864   5.856 -0.4764 -0.5666  0.2035
  572MOL0     H75450   3.057   8.845   6.004 -0.1012 -1.2775 -0.5768
  572MOL0     H75451   3.247   8.693   6.093  1.5574  1.7025  0.6845
  572MOL0     H75452   3.323   8.705   5.930 -0.2767  0.9245 -0.5431
  572MOL0     H75453   3.030   8.608   5.952 -0.6555  1.9050 -3.8831
  572MOL0     H75454   3.150   8.602   5.824 -2.7081 -2.1205 -0.2516
  572MOL0     H75455   3.295   8.455   5.995 -0.5800  0.1615  0.8875
  572MOL0     H75456   3.192   8.383   5.889  1.0065 -1.2532  1.9023
  572MOL0     H75457   2.975   8.241   6.023 -1.3538  2.9583 -1.5288
  572MOL0     H75458   2.866   8.254   6.406  1.7871  1.1362 -0.6981
  572MOL0     H75459   2.878   8.128   6.282  0.2603  0.3734 -0.0966
  572MOL0     H75460   2.746   8.316   6.133 -1.7412  0.1653  0.2672
  572MOL0     H75461   2.709   8.393   6.284 -2.6421 -1.0641  2.4639
  572MOL0     H75462   2.657   8.095   6.263 -0.0315  0.1361 -1.2617
  572MOL0     H75463   2.566   8.222   6.347  1.1917  2.2834  0.5008
  572MOL0     H75464   2.563   8.191   6.046  1.0062 -1.3551 -0.2342
  572MOL0     H75465   2.455   8.296   6.147 -2.2202 -1.1182  1.9369
  572MOL0     H75466   2.238   7.920   6.182  3.1255  0.8953  0.8507
  572MOL0     H75467   2.036   7.895   6.035  2.4742 -0.4277  0.0241
  572MOL0     H75468   1.644   8.180   5.907  0.1363 -0.5257  1.0224
  572MOL0     H75469   1.421   8.155   5.848  3.0766  2.9063  1.7130
  572MOL0     H75470   1.117   7.955   5.671  0.9930  0.5112 -1.9683
  572MOL0     H75471   1.219   8.090   5.717 -2.2055 -0.2104 -2.9798
  572MOL0     H75472   1.241   7.991   5.951  1.8507 -0.0092 -0.7156
  572MOL0     H75473   1.144   7.860   5.898  1.7891  0.3425 -4.3200
  572MOL0     H75474   1.006   8.015   6.025 -0.6502  2.0019  0.3763
  572MOL0     H75475   0.948   8.007   5.853 -0.4198 -2.4357  0.7938
  572MOL0     H75476   1.152   8.218   5.925  0.4161 -0.6750  1.6834
  572MOL0     H75477   1.018   8.218   5.804 -3.8862 -3.2666  0.2223
  572MOL0     H75478   0.991   8.367   5.988  0.1480  0.7636  1.4504
  572MOL0     H75479   0.989   8.231   6.105  0.2853 -0.8405 -1.3314
  572MOL0     H75480   0.793   8.153   6.033  1.2328 -0.7494 -2.2484
  572MOL0     H75481   0.798   8.212   5.867  3.0748 -1.6500 -1.1926
  572MOL0     H75482   0.774   8.445   5.978 -0.3133 -0.5120 -1.1293
  572MOL0     H75483   0.625   8.361   5.947 -0.5390  0.2481  0.3000
  572MOL0     H75484   0.637   8.434   6.189  2.2178 -0.5111  1.3555
  572MOL0     H75485   0.758   8.312   6.208 -0.1891 -0.3632 -0.5702
  572MOL0     H75486   1.518   7.773   5.652  0.9236 -1.3917  1.0897
  572MOL0     H75487   1.767   7.823   5.716 -0.3136 -0.3935 -0.3520
  572MOL0     H75488   2.128   8.282   5.870  0.3320  0.9390  0.2557
  572MOL0     H75489   2.354   8.263   5.944  2.0465 -1.4115  0.8379
  572MOL0     H75490   3.824   9.132   5.895  1.5012 -0.0605  0.2094
  572MOL0     H75491   4.059   9.190   5.888 -0.5407  0.7355 -0.0746
  572MOL0     H75492   4.433   9.262   6.045 -2.0354  0.2006  1.4635
  572MOL0     H75493   4.680   9.293   6.075  0.1144  0.5293 -0.2808
  572MOL0     H75494   4.869   9.343   6.117 -3.0509  0.2082 -0.3460
  572MOL0     H75495   5.002   9.445   6.087 -0.0217  1.6796 -0.0620
  572MOL0     H75496   4.987   9.337   5.883  3.8177  3.4461  3.1445
  572MOL0     H75497   4.807   9.353   5.871  0.9072 -1.9464  1.6526
  572MOL0     H75498   4.828   9.573   5.776  0.9590 -0.1726 -4.7011
  572MOL0     H75499   4.949   9.468   5.700  0.4441  0.1635 -0.5358
  572MOL0     H75500   4.983   9.670   5.919  1.4791  2.2836 -0.6917
  572MOL0     H75501   5.104   9.532   5.897 -2.5068 -2.8152 -0.3854
  572MOL0     H75502   5.169   9.833   5.598 -0.1998  1.8480  1.8889
  572MOL0     H75503   4.634   9.710   6.129 -0.9560 -0.2965  1.9602
  572MOL0     H75504   4.387   9.682   6.125  1.5544  1.4101  0.4214
  573MOL0     O75505   6.976   0.021  11.098  0.1019  0.2994 -1.0794
  573MOL0     C75506   7.011  -0.053  11.009 -0.5103 -0.4058 -0.7476
  573MOL0     O75507   6.929  -0.140  10.935 -0.2215  0.3846 -0.0885
  573MOL0     C75508   6.812  -0.179  10.996 -1.0051 -0.6363 -0.1181
  573MOL0     C75509   6.709  -0.211  10.904 -0.3104 -0.8962 -0.0803
  573MOL0     C75510   6.585  -0.249  10.953 -0.0958 -1.4134  0.2579
  573MOL0     C75511   6.560  -0.269  11.098 -0.2829  0.5200  0.3050
  573MOL0     O75512   6.432  -0.303  11.134 -0.4662 -0.6089 -0.2335
  573MOL0     C75513   6.399  -0.309  11.272 -0.1438  0.3098  0.6229
  573MOL0     C75514   6.253  -0.353  11.268 -0.3251 -0.6977  0.3868
  573MOL0     C75515   6.220  -0.503  11.257 -0.0347  0.1038  0.5725
  573MOL0     C75516   6.066  -0.513  11.213  0.7285  0.9536  0.5096
  573MOL0     C75517   5.972  -0.467  11.329  0.1696 -0.2118 -0.3962
  573MOL0     C75518   5.976  -0.542  11.461 -1.0008  0.2538 -0.7393
  573MOL0     C75519   5.950  -0.693  11.465  0.2478 -0.0198 -0.2032
  573MOL0     C75520   5.821  -0.746  11.393 -1.0698 -0.9209  0.2263
  573MOL0     N75521   5.696  -0.710  11.456  0.1957  0.0105  0.1684
  573MOL0     C75522   5.640  -0.787  11.554 -1.5008 -0.8657 -0.2837
  573MOL0     C75523   5.542  -0.722  11.604  0.0932 -1.1525 -0.0487
  573MOL0     C75524   5.452  -0.758  11.720  0.0899  0.5633 -0.5950
  573MOL0     C75525   5.307  -0.719  11.684 -0.4344  0.3417 -0.8711
  573MOL0     C75526   5.198  -0.796  11.772 -0.4421  1.5724 -0.3555
  573MOL0     C75527   5.058  -0.752  11.752 -0.2789 -0.0224 -0.2933
  573MOL0     O75528   4.973  -0.822  11.841 -0.5977 -0.3917 -0.3053
  573MOL0     C75529   4.837  -0.811  11.825 -0.1895  0.0245 -0.0722
  573MOL0     C75530   4.756  -0.895  11.903 -0.0728 -0.8462  0.4655
  573MOL0     C75531   4.613  -0.888  11.883 -0.4814 -0.7408 -0.1485
  573MOL0     C75532   4.559  -0.791  11.804 -0.3217 -0.4852 -0.2813
  573MOL0     C75533   4.413  -0.773  11.805  1.0951 -0.2681 -0.3295
  573MOL0     O75534   4.329  -0.867  11.857 -0.1258  0.2139 -0.3008
  573MOL0     C75535   4.192  -0.875  11.840 -0.4462  0.4112 -0.7388
  573MOL0     C75536   4.098  -0.784  11.788  0.1556 -0.1626  0.0067
  573MOL0     C75537   3.967  -0.816  11.773 -0.6654 -1.1522 -0.0395
  573MOL0     C75538   3.925  -0.945  11.800  0.3376 -0.1359  0.2413
  573MOL0     O75539   3.796  -0.994  11.781 -0.3697  0.0743 -0.6697
  573MOL0     C75540   3.709  -0.925  11.876  0.7446  0.1550  0.1122
  573MOL0     C75541   3.735  -0.976  12.012  0.0300 -0.4359  0.2552
  573MOL0     C75542   3.633  -0.926  12.102  0.0910 -0.3345  0.5499
  573MOL0     C75543   3.624  -1.025  12.216 -0.6528 -0.3474 -0.5724
  573MOL0     C75544   3.510  -0.999  12.309 -0.2871 -0.2741 -0.7498
  573MOL0     C75545   3.364  -1.015  12.246  0.5553 -0.0017  0.1219
  573MOL0     C75546   3.309  -0.890  12.196  0.6894  0.3835  0.6942
  573MOL0     C75547   3.248  -0.796  12.307  0.8785 -0.3631  1.2306
  573MOL0    Cl75548   3.149  -0.656  12.235 -0.3086  0.3672  0.3123
  573MOL0     C75549   4.015  -1.044  11.839  0.2187 -0.4152  0.5249
  573MOL0     C75550   4.149  -1.007  11.863 -0.2303  0.1607 -0.5962
  573MOL0     O75551   4.373  -0.662  11.761 -0.0902 -0.0912  0.1045
  573MOL0     C75552   4.637  -0.713  11.730 -0.6515  0.0686 -0.7773
  573MOL0     C75553   4.777  -0.727  11.732  0.1026  0.2739  0.4874
  573MOL0     N75554   5.533  -0.597  11.543 -0.0306  0.0982 -0.4389
  573MOL0     N75555   5.624  -0.591  11.451  0.4769  0.2852  0.2704
  573MOL0     C75556   6.675  -0.251  11.183 -0.7740  0.5212  0.5609
  573MOL0     C75557   6.796  -0.202  11.139 -0.0912  0.3567 -0.4424
  573MOL0     C75558   7.149  -0.048  10.970 -0.4878 -0.0033 -0.1109
  573MOL0     C75559   7.235   0.040  11.031 -0.0791  0.2928  0.2353
  573MOL0     C75560   7.378   0.036  10.995  0.3045 -0.8924  0.1395
  573MOL0     C75561   7.425  -0.056  10.905 -0.3002 -0.5242  0.3628
  573MOL0     O75562   7.556  -0.082  10.876 -0.0801 -0.0777  0.3484
  573MOL0     C75563   7.664   0.010  10.900  0.1106  0.6568 -0.0079
  573MOL0     C75564   7.797  -0.051  10.845  0.0906 -0.0821  0.3648
  573MOL0     C75565   7.793  -0.069  10.686 -0.0145 -0.0254 -0.4787
  573MOL0     C75566   7.931  -0.127  10.634 -0.1394 -0.4156 -0.6694
  573MOL0     C75567   8.032  -0.021  10.653  0.6345  0.9957  0.4686
  573MOL0     C75568   8.095   0.084  10.663  0.3610  0.4099 -0.1887
  573MOL0     C75569   7.335  -0.133  10.835 -0.7149 -0.3199  0.1219
  573MOL0     C75570   7.203  -0.136  10.864 -0.8094 -0.0456  0.5628
  573MOL0     H75571   6.725  -0.193  10.798  0.3553  0.4691  0.2383
  573MOL0     H75572   6.500  -0.261  10.886  0.8145  0.5773 -1.3878
  573MOL0     H75573   6.395  -0.209  11.317  1.1141  0.9201 -0.5530
  573MOL0     H75574   6.451  -0.383  11.334 -2.0030 -0.2383  1.6045
  573MOL0     H75575   6.205  -0.290  11.193 -1.2154 -0.7441  0.9075
  573MOL0     H75576   6.215  -0.317  11.364  2.2498  2.5779  0.3538
  573MOL0     H75577   6.237  -0.546  11.356  2.4643 -0.9410 -0.2249
  573MOL0     H75578   6.291  -0.552  11.189 -1.4542 -1.5750  0.2124
  573MOL0     H75579   6.052  -0.467  11.115  2.8893  1.1372  0.2277
  573MOL0     H75580   6.053  -0.621  11.203 -0.5267  0.8873  2.3081
  573MOL0     H75581   5.871  -0.474  11.288  0.7097 -4.3121 -1.5029
  573MOL0     H75582   5.997  -0.366  11.362 -2.1073  0.4677 -0.5604
  573MOL0     H75583   5.905  -0.507  11.538 -2.0544 -2.8891 -0.1455
  573MOL0     H75584   6.074  -0.528  11.507 -1.6034 -0.2978  0.7840
  573MOL0     H75585   6.031  -0.748  11.417 -1.5468 -1.9588 -1.1790
  573MOL0     H75586   5.950  -0.719  11.571 -0.8805  0.9131  0.0558
  573MOL0     H75587   5.836  -0.854  11.387 -1.9227 -1.0887  0.8578
  573MOL0     H75588   5.807  -0.704  11.293  1.8209  0.3543  0.2692
  573MOL0     H75589   5.680  -0.875  11.604 -2.5490  0.8461  4.0551
  573MOL0     H75590   5.487  -0.709  11.812  1.5965 -0.2977 -0.6738
  573MOL0     H75591   5.454  -0.866  11.735  1.6095  0.6990  0.3967
  573MOL0     H75592   5.287  -0.729  11.577 -0.8938  0.3112 -0.7827
  573MOL0     H75593   5.316  -0.612  11.708  0.3428 -0.0468  0.6748
  573MOL0     H75594   5.198  -0.905  11.763  1.2499  1.0065  3.8739
  573MOL0     H75595   5.222  -0.789  11.879 -1.3195  0.6695 -0.0824
  573MOL0     H75596   5.025  -0.774  11.650 -0.4324  0.8655 -0.4478
  573MOL0     H75597   5.049  -0.643  11.766  2.7082  0.4183 -1.2273
  573MOL0     H75598   4.792  -0.966  11.976 -0.4685 -4.4826 -2.5915
  573MOL0     H75599   4.551  -0.952  11.946 -0.1280  0.6706  1.7381
  573MOL0     H75600   4.134  -0.682  11.781  0.5334 -0.2263  0.9288
  573MOL0     H75601   3.898  -0.740  11.739  0.2277  0.5180  1.7079
  573MOL0     H75602   3.610  -0.947  11.835  0.2259  0.5527  1.1153
  573MOL0     H75603   3.706  -0.816  11.884  0.4104  0.0616  1.5602
  573MOL0     H75604   3.834  -0.947  12.050 -0.1800  1.9111 -0.8027
  573MOL0     H75605   3.750  -1.084  12.005  0.9636 -0.2142 -3.1278
  573MOL0     H75606   3.537  -0.918  12.050 -0.3557 -1.0010  1.2444
  573MOL0     H75607   3.667  -0.827  12.134 -0.0351 -0.2960  0.5639
  573MOL0     H75608   3.610  -1.124  12.171  0.8940  0.0400 -2.0339
  573MOL0     H75609   3.715  -1.015  12.276  1.1865  2.0763 -3.4847
  573MOL0     H75610   3.531  -0.893  12.326  2.6691 -1.1663  2.3326
  573MOL0     H75611   3.521  -1.048  12.406  1.4512  0.9405 -0.2842
  573MOL0     H75612   3.297  -1.069  12.314  2.8004 -2.3019  0.6532
  573MOL0     H75613   3.373  -1.070  12.152 -1.7994  2.3317 -1.6145
  573MOL0     H75614   3.375  -0.827  12.136 -1.2680  1.0840 -0.8441
  573MOL0     H75615   3.229  -0.902  12.122  2.8772  2.1397 -2.2091
  573MOL0     H75616   3.323  -0.756  12.376  1.7813 -1.3605  0.8560
  573MOL0     H75617   3.177  -0.849  12.372  2.2899 -2.2043  1.3098
  573MOL0     H75618   3.984  -1.145  11.865 -1.2168 -0.0028  0.5092
  573MOL0     H75619   4.211  -1.083  11.910  0.3741 -0.2781 -2.0503
  573MOL0     H75620   4.603  -0.630  11.669  3.1512  0.0160 -3.2979
  573MOL0     H75621   4.835  -0.672  11.659  1.0094  0.8859  1.6224
  573MOL0     H75622   6.653  -0.264  11.289  0.8956  0.5316  0.9405
  573MOL0     H75623   6.872  -0.182  11.214  0.4353 -1.7124 -0.3595
  573MOL0     H75624   7.197   0.101  11.112 -1.3106  1.9537 -1.5199
  573MOL0     H75625   7.440   0.112  11.041  0.1345 -0.6476 -0.0347
  573MOL0     H75626   7.679   0.032  11.006  4.2152 -1.9842  0.1989
  573MOL0     H75627   7.641   0.102  10.846 -2.1333 -0.9775 -2.0631
  573MOL0     H75628   7.878   0.019  10.864  1.0607 -0.7280 -1.1973
  573MOL0     H75629   7.811  -0.144  10.901 -0.5033 -0.6408 -0.3750
  573MOL0     H75630   7.782   0.031  10.643 -0.1736  0.2554  0.2036
  573MOL0     H75631   7.706  -0.126  10.651 -3.2635  2.8936  2.1202
  573MOL0     H75632   7.960  -0.216  10.691  1.9392  0.7316  0.1851
  573MOL0     H75633   7.930  -0.158  10.529  2.2322 -0.8941 -0.6179
  573MOL0     H75634   8.154   0.173  10.672  0.7488  0.1112  0.2487
  573MOL0     H75635   7.383  -0.177  10.748  1.9974  0.5693  1.0698
  573MOL0     H75636   7.149  -0.189  10.786  1.6390 -0.5917 -0.8971
  574MOL0     O75637   7.566   1.117   9.607 -0.0582  0.1687  0.2614
  574MOL0     C75638   7.580   0.998   9.579 -0.6290  0.8987 -0.2310
  574MOL0     O75639   7.481   0.905   9.577 -0.4745 -0.6714 -0.0164
  574MOL0     C75640   7.352   0.941   9.613 -0.9216  0.9621 -0.3977
  574MOL0     C75641   7.287   1.046   9.553  0.0176  0.5592 -0.9848
  574MOL0     C75642   7.161   1.092   9.605  0.4828  0.8751  0.3894
  574MOL0     C75643   7.094   1.030   9.710  0.1011  0.8092  0.3568
  574MOL0     O75644   6.968   1.059   9.761 -1.0579  0.6615 -0.1560
  574MOL0     C75645   6.891   1.116   9.659  0.2521 -0.3050  0.0137
  574MOL0     C75646   6.748   1.130   9.705  0.0793  0.5006 -0.3998
  574MOL0     C75647   6.720   1.256   9.784 -0.7118  0.3435 -1.0671
  574MOL0     C75648   6.569   1.278   9.813 -0.2484 -0.3425 -0.1243
  574MOL0     C75649   6.543   1.398   9.907  0.3552  0.3932  0.6640
  574MOL0     C75650   6.390   1.423   9.926 -0.1342  0.5098  0.5200
  574MOL0     C75651   6.348   1.557   9.984 -0.2877 -0.0164 -0.5106
  574MOL0     C75652   6.410   1.672   9.898  0.3034 -0.8111 -0.0964
  574MOL0     N75653   6.333   1.791   9.918  0.5894  1.1953 -0.4511
  574MOL0     C75654   6.380   1.910   9.879 -0.4055  0.8790  0.1418
  574MOL0     C75655   6.312   2.015   9.936 -0.5619 -0.2689 -0.2346
  574MOL0     C75656   6.328   2.160   9.902  0.3007 -0.5358  0.0443
  574MOL0     C75657   6.343   2.246  10.029 -0.6932  0.2496 -0.1851
  574MOL0     C75658   6.364   2.400   9.993  0.0707  0.2538  0.5422
  574MOL0     C75659   6.231   2.472   9.947 -0.3261  0.3950  0.7415
  574MOL0     O75660   6.156   2.542  10.052 -0.4547 -0.1501 -0.0300
  574MOL0     C75661   6.055   2.629  10.020  0.0084 -0.4341  0.3285
  574MOL0     C75662   5.996   2.644   9.898  0.5259 -1.1961  0.6270
  574MOL0     C75663   5.863   2.685   9.889  0.1834 -0.3740 -0.5294
  574MOL0     C75664   5.793   2.732  10.013 -0.2678 -0.0590  0.1557
  574MOL0     C75665   5.641   2.772  10.006 -0.8947  1.3270 -0.6872
  574MOL0     O75666   5.579   2.812  10.112  0.7022 -0.6160 -0.0109
  574MOL0     C75667   5.444   2.855  10.096 -0.3855  0.5133  0.9454
  574MOL0     C75668   5.436   2.989  10.074 -0.5051 -0.0297 -0.5216
  574MOL0     C75669   5.303   3.050  10.059 -0.8895  0.5059  0.4749
  574MOL0     C75670   5.194   2.984  10.096  0.0784  0.7279  1.3309
  574MOL0     O75671   5.073   3.056  10.104 -0.5174 -0.2326 -0.9971
  574MOL0     C75672   4.951   2.977  10.110 -0.6693  0.1703 -0.1750
  574MOL0     C75673   4.829   3.075  10.101 -0.3551  0.6056  0.5755
  574MOL0     C75674   4.709   3.011  10.059 -0.2579 -0.9097 -0.2347
  574MOL0     C75675   4.584   3.109  10.085  0.8325 -0.3354  0.3985
  574MOL0     C75676   4.446   3.045  10.045 -0.0798  0.3680 -0.4078
  574MOL0     C75677   4.334   3.154  10.027  0.6076 -0.0877 -0.0965
  574MOL0     C75678   4.189   3.095  10.030  0.4987  0.3000  0.4791
  574MOL0     C75679   4.126   3.100  10.173 -0.5538  0.3736  0.3575
  574MOL0    Cl75680   3.986   2.985  10.172 -0.2610 -0.1437 -0.1625
  574MOL0     C75681   5.203   2.846  10.116  0.4628 -0.6360 -0.7115
  574MOL0     C75682   5.330   2.779  10.109  0.4946  0.5713 -0.8179
  574MOL0     O75683   5.587   2.743   9.897  0.7395  0.0499 -0.2471
  574MOL0     C75684   5.867   2.729  10.135 -0.3470 -0.5526  0.8186
  574MOL0     C75685   6.001   2.680  10.137 -0.9489 -0.0851 -0.1122
  574MOL0     N75686   6.215   1.949  10.009 -0.1739  0.5244  1.2380
  574MOL0     N75687   6.225   1.817  10.006 -0.3332 -0.1012 -0.1857
  574MOL0     C75688   7.161   0.919   9.759 -1.4425  0.2676  0.7833
  574MOL0     C75689   7.285   0.878   9.711  0.1933 -0.6495 -0.4088
  574MOL0     C75690   7.715   0.940   9.556  0.3784  0.7631  0.4638
  574MOL0     C75691   7.817   1.020   9.519  0.6163 -1.2685 -0.3962
  574MOL0     C75692   7.944   0.982   9.496 -0.3381  0.5848 -0.8289
  574MOL0     C75693   7.968   0.839   9.510  0.0112  0.8413 -0.2892
  574MOL0     O75694   8.090   0.782   9.500  0.7569 -0.3099  0.2148
  574MOL0     C75695   8.207   0.852   9.543  0.3160  0.1598  0.4904
  574MOL0     C75696   8.325   0.762   9.514 -0.4712 -0.0970  0.0910
  574MOL0     C75697   8.328   0.767   9.359  0.2931  1.2918  0.8110
  574MOL0     C75698   8.444   0.694   9.291 -0.5695 -0.0481  1.1810
  574MOL0     C75699   8.556   0.784   9.308  0.0488 -0.2706 -0.3376
  574MOL0     C75700   8.660   0.853   9.312  0.2300 -0.4695 -1.2133
  574MOL0     C75701   7.863   0.755   9.542  0.1971  0.3322  0.2515
  574MOL0     C75702   7.734   0.804   9.572 -0.3090 -0.5375  0.2734
  574MOL0     H75703   7.334   1.088   9.465 -2.2557  2.7142 -1.2763
  574MOL0     H75704   7.122   1.181   9.557  0.1255  1.7401  2.1972
  574MOL0     H75705   6.884   1.047   9.575  1.4072 -0.1749 -0.1990
  574MOL0     H75706   6.924   1.217   9.631 -0.2894 -0.0585  0.2435
  574MOL0     H75707   6.736   1.038   9.764 -0.5828 -0.3869 -1.8634
  574MOL0     H75708   6.674   1.123   9.625 -0.2415  1.6005 -0.2163
  574MOL0     H75709   6.754   1.347   9.733  3.8872 -0.8676 -0.6024
  574MOL0     H75710   6.779   1.247   9.875  1.4016  1.3544 -2.2553
  574MOL0     H75711   6.529   1.309   9.716  0.9978  0.9442 -0.2564
  574MOL0     H75712   6.517   1.185   9.837  0.8099 -0.2173  3.0316
  574MOL0     H75713   6.592   1.487   9.866  1.6205 -1.1100 -1.2861
  574MOL0     H75714   6.580   1.378  10.007 -1.3344 -2.8911  0.7556
  574MOL0     H75715   6.346   1.341   9.982  0.4853 -0.5643 -0.5188
  574MOL0     H75716   6.351   1.409   9.825  2.1887  1.5951 -0.6028
  574MOL0     H75717   6.240   1.550   9.968 -0.1667 -5.4368 -0.7041
  574MOL0     H75718   6.373   1.566  10.090  2.4855  2.6007 -1.2507
  574MOL0     H75719   6.395   1.662   9.791  2.0741  4.4425 -1.1214
  574MOL0     H75720   6.515   1.699   9.908 -0.2414  2.0484 -1.0907
  574MOL0     H75721   6.465   1.930   9.814  0.1711  6.2139  2.0939
  574MOL0     H75722   6.241   2.202   9.850  1.9281  1.7532 -1.0584
  574MOL0     H75723   6.408   2.170   9.827 -0.1770 -2.3079 -0.7457
  574MOL0     H75724   6.435   2.212  10.077 -1.5915 -3.1292 -0.5296
  574MOL0     H75725   6.264   2.242  10.105  0.6048 -1.0342  1.1728
  574MOL0     H75726   6.404   2.450  10.081 -0.7426 -1.9009  2.2294
  574MOL0     H75727   6.443   2.414   9.919  1.8553  1.4771  2.5465
  574MOL0     H75728   6.169   2.397   9.896  0.7521  0.3487 -0.5524
  574MOL0     H75729   6.253   2.548   9.872 -2.2708 -0.0392 -0.3379
  574MOL0     H75730   6.049   2.611   9.810  0.2545  0.5046 -0.2150
  574MOL0     H75731   5.809   2.704   9.797 -1.0711  0.5138  0.3636
  574MOL0     H75732   5.527   3.047  10.060  0.7993 -1.1102  2.5010
  574MOL0     H75733   5.308   3.157  10.040 -0.0136  0.1529 -1.6137
  574MOL0     H75734   4.950   2.916  10.201  1.4877 -3.0482 -2.0798
  574MOL0     H75735   4.943   2.913  10.021  2.3723  0.8179 -1.0386
  574MOL0     H75736   4.864   3.157  10.038  0.0289  0.0343  0.0341
  574MOL0     H75737   4.808   3.102  10.205 -0.1961 -0.0871  0.7964
  574MOL0     H75738   4.692   2.918  10.114 -0.2168 -1.6468 -1.4232
  574MOL0     H75739   4.707   2.999   9.950 -1.7890 -0.4826 -0.2822
  574MOL0     H75740   4.576   3.125  10.193 -3.7643 -2.0494  0.5306
  574MOL0     H75741   4.601   3.204  10.034  2.6584 -0.3691  0.8861
  574MOL0     H75742   4.405   2.984  10.126  1.7391  0.2972  0.5031
  574MOL0     H75743   4.461   2.990   9.951  1.1945 -0.8084  0.4562
  574MOL0     H75744   4.340   3.220   9.941 -1.7639  0.5716  0.1668
  574MOL0     H75745   4.340   3.222  10.112 -1.7604  0.6511 -0.4485
  574MOL0     H75746   4.124   3.150   9.962 -0.0727 -0.6873  0.2025
  574MOL0     H75747   4.196   2.992   9.994 -1.3187  0.5471 -0.7496
  574MOL0     H75748   4.088   3.199  10.198  1.4430  2.0251 -2.5588
  574MOL0     H75749   4.189   3.055  10.250 -3.1148 -0.4656  2.1190
  574MOL0     H75750   5.121   2.784  10.152 -0.7346  0.8213 -0.8557
  574MOL0     H75751   5.338   2.671  10.110 -1.5724  0.3702 -0.7252
  574MOL0     H75752   5.816   2.764  10.225 -0.0342  0.4692  0.6145
  574MOL0     H75753   6.055   2.675  10.231 -0.5745  2.0996 -0.1489
  574MOL0     H75754   7.116   0.865   9.841  1.7487 -0.4284  2.2401
  574MOL0     H75755   7.331   0.800   9.771  3.2141  2.1262  1.2004
  574MOL0     H75756   7.796   1.125   9.499  1.2487 -1.0587  0.0031
  574MOL0     H75757   8.021   1.048   9.458  1.7324 -1.7922 -1.0466
  574MOL0     H75758   8.195   0.877   9.649 -0.1589  0.0505  0.4678
  574MOL0     H75759   8.212   0.950   9.496 -0.9538  1.0273  2.0386
  574MOL0     H75760   8.416   0.806   9.554  1.3646 -1.4514 -2.3692
  574MOL0     H75761   8.306   0.659   9.548  1.6754 -1.4992 -2.5330
  574MOL0     H75762   8.314   0.869   9.322 -2.0587  0.4495 -0.8652
  574MOL0     H75763   8.246   0.706   9.320  1.4179  1.0561 -1.3456
  574MOL0     H75764   8.464   0.600   9.343 -1.7969  0.0540  1.8849
  574MOL0     H75765   8.428   0.672   9.185  1.0375 -0.9097  1.0780
  574MOL0     H75766   8.744   0.918   9.324  0.6832 -1.2703  0.3199
  574MOL0     H75767   7.878   0.650   9.565 -1.6653 -0.3052 -1.1492
  574MOL0     H75768   7.651   0.736   9.585  1.7529 -2.9617  1.5360
  575MOL0     O75769   0.270   2.986   7.950 -0.3347  0.1070 -0.6923
  575MOL0     C75770   0.302   3.014   8.068  0.0693  0.4764 -0.0893
  575MOL0     O75771   0.201   3.046   8.165 -0.5988  0.2137  0.5018
  575MOL0     C75772   0.066   3.042   8.140 -0.4992  0.3190 -0.0431
  575MOL0     C75773   0.006   2.946   8.059  0.3255  0.3435 -0.5624
  575MOL0     C75774  -0.137   2.961   8.030  0.4309  0.4128  0.6232
  575MOL0     C75775  -0.210   3.074   8.069  0.0096  0.0502  0.7060
  575MOL0     O75776  -0.342   3.087   8.046  0.3471  0.0925  0.5580
  575MOL0     C75777  -0.385   3.123   7.917  0.8946 -0.2398  0.5713
  575MOL0     C75778  -0.526   3.186   7.915  0.4049 -0.1208  0.4047
  575MOL0     C75779  -0.526   3.315   7.993 -0.6908 -0.9922  0.1879
  575MOL0     C75780  -0.654   3.393   7.976 -0.4539  0.4649  0.2659
  575MOL0     C75781  -0.783   3.312   7.997  0.3288  0.0698 -1.0389
  575MOL0     C75782  -0.894   3.399   7.944  0.2258 -0.0856  0.2045
  575MOL0     C75783  -0.971   3.340   7.831  0.1260 -0.2876 -0.5344
  575MOL0     C75784  -1.116   3.403   7.825  0.5350  1.0041  0.5473
  575MOL0     N75785  -1.197   3.344   7.940  0.9636  0.0201 -0.0416
  575MOL0     C75786  -1.267   3.432   8.023 -0.5666 -0.5517  0.9763
  575MOL0     C75787  -1.333   3.352   8.110 -0.4794  0.1524 -0.3643
  575MOL0     C75788  -1.425   3.391   8.221 -0.1415 -0.0737 -0.4625
  575MOL0     C75789  -1.559   3.437   8.151 -0.0112 -0.3517  0.3952
  575MOL0     C75790  -1.692   3.383   8.201 -0.3744 -0.3216  0.4045
  575MOL0     C75791  -1.717   3.239   8.181 -0.1146 -0.1583  0.2236
  575MOL0     O75792  -1.766   3.218   8.050  0.6106  0.1614 -0.1876
  575MOL0     C75793  -1.903   3.213   8.029 -0.9941 -0.3195  0.0309
  575MOL0     C75794  -1.998   3.244   8.123  0.0403 -0.1250 -0.1900
  575MOL0     C75795  -2.135   3.266   8.092 -0.0058  1.0652 -0.7475
  575MOL0     C75796  -2.170   3.249   7.958  0.5306  0.7478 -0.4563
  575MOL0     C75797  -2.310   3.266   7.916 -0.3135 -1.1899  0.0449
  575MOL0     O75798  -2.340   3.283   7.784 -0.1140 -0.1158 -0.1983
  575MOL0     C75799  -2.471   3.265   7.760 -0.6483  0.4960 -0.5837
  575MOL0     C75800  -2.555   3.368   7.718  0.8085 -0.7202 -0.9865
  575MOL0     C75801  -2.696   3.342   7.684  0.7831  0.2584 -0.2652
  575MOL0     C75802  -2.751   3.214   7.709 -0.1632  0.3387  0.6188
  575MOL0     O75803  -2.883   3.193   7.689  0.6654  0.3332 -0.7000
  575MOL0     C75804  -2.930   3.192   7.552  0.7418 -0.2901  0.0947
  575MOL0     C75805  -3.083   3.251   7.553 -0.3112 -0.3076  0.5569
  575MOL0     C75806  -3.140   3.250   7.412  0.1767  0.4805  0.6995
  575MOL0     C75807  -3.279   3.313   7.416 -0.3750 -0.2313 -0.2296
  575MOL0     C75808  -3.340   3.330   7.275 -0.2095 -0.2952 -0.1253
  575MOL0     C75809  -3.485   3.360   7.289  0.6611 -0.2975  0.2591
  575MOL0     C75810  -3.568   3.330   7.162  0.3529 -0.3719  0.2542
  575MOL0     C75811  -3.642   3.197   7.168  0.8922 -0.0893  0.3094
  575MOL0    Cl75812  -3.666   3.151   6.989 -0.0672  0.0987 -0.1761
  575MOL0     C75813  -2.669   3.104   7.744 -0.5145  0.4421 -0.5494
  575MOL0     C75814  -2.531   3.133   7.761  0.7679 -0.5005 -0.5040
  575MOL0     O75815  -2.389   3.286   8.004 -0.0785 -0.3880  0.2627
  575MOL0     C75816  -2.072   3.203   7.863  1.4033 -0.1122 -0.6997
  575MOL0     C75817  -1.939   3.192   7.897  0.1361  0.0104  0.6662
  575MOL0     N75818  -1.292   3.218   8.077 -0.1964 -0.0502  0.2512
  575MOL0     N75819  -1.199   3.214   7.984  1.2919  1.3433 -0.1478
  575MOL0     C75820  -0.146   3.162   8.153  0.3525 -0.0436  0.4796
  575MOL0     C75821  -0.012   3.146   8.193  0.4087  0.0611 -0.7122
  575MOL0     C75822   0.448   3.006   8.100 -0.2006 -0.3569  0.5448
  575MOL0     C75823   0.541   2.912   8.041  0.0979  0.5137 -0.1292
  575MOL0     C75824   0.670   2.904   8.091  0.4330 -0.1248  0.0722
  575MOL0     C75825   0.719   2.984   8.193  0.3477 -0.5220 -0.1689
  575MOL0     O75826   0.843   2.970   8.239  0.1637  0.3346 -0.2440
  575MOL0     C75827   0.881   2.993   8.374 -0.5897 -0.4190  0.1307
  575MOL0     C75828   0.971   3.109   8.384 -0.1123 -0.4848 -0.2046
  575MOL0     C75829   1.099   3.096   8.306  0.2454 -0.0562 -0.1301
  575MOL0     C75830   1.175   2.962   8.332 -0.3952 -0.7291 -0.5504
  575MOL0     C75831   1.314   2.974   8.281 -0.4963 -0.1089 -0.3177
  575MOL0     C75832   1.427   2.995   8.237  0.0816 -0.3722  0.4729
  575MOL0     C75833   0.624   3.073   8.257 -0.1980 -0.4695 -0.5124
  575MOL0     C75834   0.492   3.078   8.210 -0.1338 -0.1800 -0.5729
  575MOL0     H75835   0.061   2.858   8.027  1.4721 -0.1441  2.3640
  575MOL0     H75836  -0.205   2.895   7.978 -1.2080  1.4726  1.3565
  575MOL0     H75837  -0.382   3.040   7.846 -1.9540  1.7778 -2.2170
  575MOL0     H75838  -0.319   3.201   7.877 -1.0585  3.8785  4.4428
  575MOL0     H75839  -0.603   3.115   7.946 -2.6612  3.5074  1.8841
  575MOL0     H75840  -0.548   3.218   7.813  0.8655 -0.5104  0.1803
  575MOL0     H75841  -0.438   3.371   7.960 -0.9726 -1.2567 -1.0554
  575MOL0     H75842  -0.505   3.295   8.099  2.1827 -1.1248 -0.3197
  575MOL0     H75843  -0.667   3.473   8.049 -3.1322 -0.6337  1.1246
  575MOL0     H75844  -0.647   3.430   7.873  0.3888 -2.2102 -0.7311
  575MOL0     H75845  -0.799   3.295   8.104  0.8794  1.9049 -0.6398
  575MOL0     H75846  -0.777   3.212   7.954 -1.1753  0.2649 -1.7911
  575MOL0     H75847  -0.854   3.498   7.918 -0.2250 -0.0957 -0.5828
  575MOL0     H75848  -0.965   3.409   8.026 -0.3122 -0.3324 -0.2184
  575MOL0     H75849  -0.921   3.364   7.737 -1.3687 -2.5677 -2.0293
  575MOL0     H75850  -0.970   3.230   7.837  0.1389 -0.2111  3.7627
  575MOL0     H75851  -1.164   3.378   7.730 -1.2293  0.8225  1.4446
  575MOL0     H75852  -1.103   3.511   7.825 -1.2683  1.2827  2.0917
  575MOL0     H75853  -1.291   3.537   8.014  1.9165 -0.0845 -1.3120
  575MOL0     H75854  -1.394   3.466   8.294 -1.5513 -2.1365  2.4468
  575MOL0     H75855  -1.434   3.291   8.263 -3.6575 -0.9597 -2.9196
  575MOL0     H75856  -1.559   3.434   8.042 -0.8118 -1.0187  0.4062
  575MOL0     H75857  -1.559   3.545   8.165  0.4054  0.2043 -3.0328
  575MOL0     H75858  -1.693   3.400   8.309  0.2179 -2.5937  0.8125
  575MOL0     H75859  -1.776   3.437   8.155  0.4254  0.5839 -0.0238
  575MOL0     H75860  -1.778   3.194   8.260 -0.4368 -1.2978 -0.6613
  575MOL0     H75861  -1.623   3.185   8.192 -1.0488 -1.5719  1.6752
  575MOL0     H75862  -1.975   3.263   8.227  0.7101  1.0536 -0.5234
  575MOL0     H75863  -2.204   3.286   8.173 -0.5297 -0.9522 -0.6298
  575MOL0     H75864  -2.516   3.469   7.713  1.7826 -0.7310  3.1198
  575MOL0     H75865  -2.763   3.422   7.656 -0.3620 -0.3300  0.7138
  575MOL0     H75866  -2.942   3.089   7.518 -0.4987  0.1440 -0.8844
  575MOL0     H75867  -2.860   3.248   7.490 -1.0156  2.8074  0.6327
  575MOL0     H75868  -3.075   3.351   7.596  2.2656  1.3886 -3.3345
  575MOL0     H75869  -3.136   3.182   7.620  1.2595  0.1443  2.3481
  575MOL0     H75870  -3.134   3.150   7.368  1.6882  0.9895 -0.3055
  575MOL0     H75871  -3.071   3.295   7.340 -0.5971  0.9425  0.2303
  575MOL0     H75872  -3.348   3.248   7.471 -1.2669  1.1722  0.3877
  575MOL0     H75873  -3.270   3.410   7.466  1.5109 -0.9868  0.9991
  575MOL0     H75874  -3.325   3.238   7.219 -0.9394 -0.7485  0.3994
  575MOL0     H75875  -3.283   3.415   7.238  3.3825 -1.7119  1.6686
  575MOL0     H75876  -3.493   3.464   7.322  1.0367  0.0916 -0.8180
  575MOL0     H75877  -3.524   3.302   7.373  0.1322  0.0003  0.2261
  575MOL0     H75878  -3.645   3.407   7.150 -1.8653 -2.7576 -2.1776
  575MOL0     H75879  -3.508   3.327   7.071  0.3245 -0.1091  0.2249
  575MOL0     H75880  -3.737   3.216   7.220  0.7849  1.5915 -0.4316
  575MOL0     H75881  -3.588   3.117   7.218 -3.5558 -2.2870  2.1924
  575MOL0     H75882  -2.704   3.002   7.755  3.6740 -1.3439 -1.7940
  575MOL0     H75883  -2.461   3.055   7.786  2.4625  0.6695 -1.3749
  575MOL0     H75884  -2.090   3.204   7.756 -1.5546 -1.4633 -0.3268
  575MOL0     H75885  -1.873   3.159   7.817  1.4959  1.2230  1.2483
  575MOL0     H75886  -0.201   3.241   8.205  0.0321 -0.7079  1.1629
  575MOL0     H75887   0.033   3.223   8.255  1.2705  0.3428 -1.6542
  575MOL0     H75888   0.498   2.841   7.972  0.7713 -0.0296  0.0026
  575MOL0     H75889   0.730   2.825   8.047 -1.1130 -0.0240 -2.3805
  575MOL0     H75890   0.938   2.905   8.407  0.1032  0.2153  0.6407
  575MOL0     H75891   0.792   3.013   8.433 -2.3832 -0.7531 -2.3154
  575MOL0     H75892   0.916   3.197   8.350  2.4480  1.1919 -0.2789
  575MOL0     H75893   1.000   3.125   8.488  2.5832 -0.4365 -0.8858
  575MOL0     H75894   1.160   3.172   8.356 -2.0529  0.7760  1.6162
  575MOL0     H75895   1.084   3.119   8.201  0.7156 -0.5552 -0.3124
  575MOL0     H75896   1.183   2.931   8.436  1.0743  1.6992  0.1493
  575MOL0     H75897   1.122   2.878   8.286 -0.5225 -0.8948 -0.1040
  575MOL0     H75898   1.520   3.020   8.188 -0.6053 -1.7771 -1.7060
  575MOL0     H75899   0.645   3.142   8.338  0.6673 -3.2441  1.7751
  575MOL0     H75900   0.415   3.138   8.257  0.3698  0.9776 -1.1922
  576MOL0     O75901   2.205   7.712  10.736  0.5872 -0.1127  0.2910
  576MOL0     C75902   2.303   7.743  10.801  0.0706  0.0719  0.3839
  576MOL0     O75903   2.306   7.761  10.933  0.1049 -0.2042  0.3674
  576MOL0     C75904   2.188   7.764  11.009 -0.0277 -0.4948 -0.7020
  576MOL0     C75905   2.193   7.684  11.128 -0.6725  1.3849 -0.2777
  576MOL0     C75906   2.075   7.669  11.199  1.0118  0.4956 -0.0144
  576MOL0     C75907   1.956   7.746  11.170 -0.5806  0.4164  0.2546
  576MOL0     O75908   1.848   7.739  11.259  0.3743  0.9311  0.1474
  576MOL0     C75909   1.736   7.811  11.223  1.0402  0.6852 -0.8946
  576MOL0     C75910   1.635   7.786  11.333 -0.3872  1.0282 -0.1338
  576MOL0     C75911   1.583   7.644  11.339  0.8092  0.9131  0.6018
  576MOL0     C75912   1.504   7.615  11.464 -0.3705  0.6369  0.2046
  576MOL0     C75913   1.568   7.564  11.587 -0.4987  0.0323  0.1839
  576MOL0     C75914   1.474   7.566  11.707 -0.4364 -0.2843 -0.2095
  576MOL0     C75915   1.382   7.442  11.701 -0.9415  0.3173 -0.3859
  576MOL0     C75916   1.292   7.437  11.826 -0.6370  0.0722  0.8421
  576MOL0     N75917   1.221   7.308  11.842  0.2648  0.1738  0.4612
  576MOL0     C75918   1.174   7.262  11.961 -0.9854 -0.5080  0.3902
  576MOL0     C75919   1.094   7.158  11.922 -0.3256  0.2598  0.2730
  576MOL0     C75920   1.016   7.076  12.016  0.8134 -0.2140 -0.0452
  576MOL0     C75921   0.867   7.046  11.998  0.4411 -0.1289 -0.3208
  576MOL0     C75922   0.830   6.984  11.860 -0.3821 -0.1560  0.0694
  576MOL0     C75923   0.677   6.961  11.851  0.0797 -0.2016  1.0329
  576MOL0     O75924   0.624   6.939  11.983  0.1851 -0.7968  0.5584
  576MOL0     C75925   0.492   6.934  12.008  0.5635  0.0618 -0.1329
  576MOL0     C75926   0.474   6.929  12.148  0.3269 -0.5516 -0.0822
  576MOL0     C75927   0.342   6.943  12.199  0.0394  0.5586  0.2330
  576MOL0     C75928   0.228   6.949  12.106  0.1122  0.3591 -0.8723
  576MOL0     C75929   0.083   6.963  12.159 -1.0082 -0.5457  0.4512
  576MOL0     O75930  -0.021   6.983  12.067  0.0857 -0.2557  0.7172
  576MOL0     C75931  -0.152   7.000  12.115 -0.0983  0.3051 -0.0840
  576MOL0     C75932  -0.255   6.909  12.077 -0.7362 -0.4099 -0.6564
  576MOL0     C75933  -0.384   6.916  12.127 -0.2456  0.5221 -0.1002
  576MOL0     C75934  -0.421   7.024  12.208 -0.0929  0.1114  0.0277
  576MOL0     O75935  -0.550   7.017  12.255 -0.5116  0.2090 -0.0260
  576MOL0     C75936  -0.578   7.101  12.366 -0.6102  0.3317  0.5363
  576MOL0     C75937  -0.728   7.120  12.383 -1.4221 -0.8613  0.3422
  576MOL0     C75938  -0.785   7.192  12.258  0.3987  0.0660  0.1034
  576MOL0     C75939  -0.932   7.207  12.271  0.6908  0.3504  0.5215
  576MOL0     C75940  -0.999   7.290  12.165 -0.1144 -0.2482  0.3709
  576MOL0     C75941  -1.141   7.342  12.190 -0.3823 -1.2797 -0.2896
  576MOL0     C75942  -1.220   7.273  12.299  0.0163 -0.1752  0.5045
  576MOL0     C75943  -1.366   7.327  12.306  0.2879 -0.4865  0.7351
  576MOL0    Cl75944  -1.441   7.316  12.147 -0.3330  0.0866 -0.7805
  576MOL0     C75945  -0.317   7.117  12.241  0.0324 -0.6613 -0.5076
  576MOL0     C75946  -0.187   7.098  12.203 -0.0395  0.0122 -0.1616
  576MOL0     O75947   0.069   6.962  12.288  0.2428  0.1861 -0.2728
  576MOL0     C75948   0.255   6.925  11.962 -0.3832 -0.7405  0.1985
  576MOL0     C75949   0.381   6.923  11.917 -0.6565  0.9526  0.8211
  576MOL0     N75950   1.098   7.137  11.784 -0.9746 -0.4423  0.1817
  576MOL0     N75951   1.169   7.233  11.740  0.0121 -0.3937 -0.3585
  576MOL0     C75952   1.954   7.806  11.052 -1.0345 -0.1338  0.3742
  576MOL0     C75953   2.065   7.818  10.968 -0.4712  0.3518 -0.1383
  576MOL0     C75954   2.430   7.752  10.732  0.5516 -0.0461 -0.2826
  576MOL0     C75955   2.431   7.717  10.593 -0.2005  0.6719 -1.2262
  576MOL0     C75956   2.543   7.687  10.527 -0.3839 -0.2294 -0.0614
  576MOL0     C75957   2.672   7.702  10.583  0.6690 -0.1925  0.3013
  576MOL0     O75958   2.790   7.680  10.515 -0.3615 -0.6076  0.6393
  576MOL0     C75959   2.915   7.699  10.577 -0.8187 -0.0789 -0.1511
  576MOL0     C75960   3.007   7.702  10.462 -0.3138  0.6341  0.1208
  576MOL0     C75961   3.150   7.708  10.513 -0.6551 -0.3293 -0.2439
  576MOL0     C75962   3.268   7.729  10.406 -0.5693 -0.7847 -0.1378
  576MOL0     C75963   3.279   7.614  10.317 -0.2311 -0.5234 -0.0150
  576MOL0     C75964   3.276   7.516  10.251 -0.3500  0.3933 -0.4826
  576MOL0     C75965   2.672   7.738  10.726  0.1554 -0.5509  0.1038
  576MOL0     C75966   2.556   7.756  10.797 -0.4148  0.0487  0.2055
  576MOL0     H75967   2.277   7.626  11.165 -1.2563 -1.6123 -3.1698
  576MOL0     H75968   2.091   7.618  11.294  0.0013  2.5370  1.3235
  576MOL0     H75969   1.688   7.777  11.131 -3.5341  3.0026  0.3541
  576MOL0     H75970   1.749   7.919  11.211 -1.4298  0.9520 -1.7017
  576MOL0     H75971   1.547   7.841  11.299 -0.7533  0.2748 -0.4297
  576MOL0     H75972   1.672   7.823  11.429 -2.6454 -0.4078  1.3709
  576MOL0     H75973   1.665   7.571  11.336  1.1544  1.3165  0.0719
  576MOL0     H75974   1.523   7.621  11.251  0.7835 -0.3843  0.9393
  576MOL0     H75975   1.455   7.707  11.495 -0.5180  0.1566  1.4629
  576MOL0     H75976   1.429   7.542  11.431  0.9093 -1.1472  1.0965
  576MOL0     H75977   1.654   7.626  11.612  0.1584  0.4763 -2.8296
  576MOL0     H75978   1.610   7.465  11.567 -2.2165 -0.9018  0.9621
  576MOL0     H75979   1.409   7.654  11.702 -1.1460 -0.6999  1.0815
  576MOL0     H75980   1.539   7.568  11.795  0.2161 -1.3160 -0.6503
  576MOL0     H75981   1.327   7.432  11.607  1.1487 -3.2649 -1.4008
  576MOL0     H75982   1.445   7.353  11.707 -1.7392 -0.2786 -0.7522
  576MOL0     H75983   1.225   7.523  11.819  0.0250  0.5128 -0.6298
  576MOL0     H75984   1.365   7.442  11.907  0.9332 -2.0927 -0.3240
  576MOL0     H75985   1.199   7.296  12.061  1.0141  1.3521 -0.6515
  576MOL0     H75986   1.011   7.136  12.107 -3.1564  0.9002 -0.8165
  576MOL0     H75987   1.071   6.984  12.040  0.6207 -0.0226  1.2158
  576MOL0     H75988   0.825   7.145  12.015  4.3203  1.8398 -1.0915
  576MOL0     H75989   0.840   6.979  12.081  1.3382  0.5357  0.5260
  576MOL0     H75990   0.858   7.056  11.783 -0.7725 -0.5691 -0.4647
  576MOL0     H75991   0.891   6.896  11.838  0.5151  0.9520 -2.1651
  576MOL0     H75992   0.651   6.868  11.801  1.3946  1.3138 -2.8422
  576MOL0     H75993   0.634   7.045  11.796  3.4539  0.3393 -1.0695
  576MOL0     H75994   0.552   6.926  12.224 -1.8167 -0.2610  2.2836
  576MOL0     H75995   0.337   6.954  12.307 -1.1014 -0.0614  0.2595
  576MOL0     H75996  -0.227   6.834  12.003  1.0518  1.1194 -1.6190
  576MOL0     H75997  -0.456   6.841  12.095  3.3466 -2.0526 -3.0855
  576MOL0     H75998  -0.531   7.200  12.364 -2.1799  1.1242  1.1523
  576MOL0     H75999  -0.531   7.050  12.451  0.9150 -0.3132 -0.6504
  576MOL0     H76000  -0.745   7.181  12.472  0.2468  1.9261 -1.0840
  576MOL0     H76001  -0.769   7.020  12.397 -0.8923 -1.2352 -0.6851
  576MOL0     H76002  -0.758   7.135  12.169 -1.8144 -0.7277 -0.1206
  576MOL0     H76003  -0.743   7.293  12.253 -0.6286  0.5010  0.1641
  576MOL0     H76004  -0.982   7.110  12.265 -2.2160  1.8011 -0.9900
  576MOL0     H76005  -0.958   7.262  12.362 -1.6958 -1.6480  1.1429
  576MOL0     H76006  -1.006   7.226  12.076  1.4591 -0.9212  0.6994
  576MOL0     H76007  -0.944   7.380  12.136 -1.2938  0.2273 -0.4537
  576MOL0     H76008  -1.182   7.350  12.089  1.2819  1.0591 -0.8667
  576MOL0     H76009  -1.129   7.445  12.226 -1.2952 -1.1184 -0.4381
  576MOL0     H76010  -1.226   7.164  12.288  2.8601 -0.2545 -1.4172
  576MOL0     H76011  -1.175   7.289  12.398 -1.2376  0.5630  0.9753
  576MOL0     H76012  -1.373   7.434  12.329 -0.5198 -0.3029 -0.2767
  576MOL0     H76013  -1.412   7.263  12.382  1.2320 -2.5326 -0.3443
  576MOL0     H76014  -0.339   7.203  12.304  0.2750 -0.4834 -0.6652
  576MOL0     H76015  -0.112   7.154  12.258 -1.2923  1.6913 -0.0761
  576MOL0     H76016   0.180   6.888  11.893  1.2021 -2.6559 -0.6098
  576MOL0     H76017   0.393   6.919  11.809 -1.7575  0.3599  0.7083
  576MOL0     H76018   1.863   7.848  11.009  0.1410  2.2672  0.0290
  576MOL0     H76019   2.060   7.866  10.870 -0.4428  2.2002  0.7217
  576MOL0     H76020   2.351   7.699  10.521  1.0816 -2.6690 -2.0090
  576MOL0     H76021   2.538   7.656  10.424  1.4705  2.8144 -1.1995
  576MOL0     H76022   2.941   7.615  10.642 -0.5534 -0.4259 -0.6946
  576MOL0     H76023   2.918   7.793  10.633  0.5948 -0.7444  0.9461
  576MOL0     H76024   3.007   7.608  10.405  1.6290  0.4277  0.4041
  576MOL0     H76025   2.986   7.786  10.395  1.2812  3.1847  2.6409
  576MOL0     H76026   3.162   7.617  10.573 -0.6887 -1.5323 -1.9827
  576MOL0     H76027   3.176   7.792  10.578 -0.3988 -1.1550  0.7498
  576MOL0     H76028   3.255   7.824  10.354  2.7507 -0.9690 -1.5717
  576MOL0     H76029   3.366   7.743  10.454 -0.9600  0.3962  0.3440
  576MOL0     H76030   3.262   7.428  10.192 -3.8951 -0.8024  1.7954
  576MOL0     H76031   2.760   7.759  10.785  1.1931  0.6674 -1.7613
  576MOL0     H76032   2.561   7.771  10.905 -1.2117 -3.3551  0.8323
  577MOL0     O76033   5.091   2.621   7.422  0.0688 -0.0539 -0.5637
  577MOL0     C76034   5.162   2.646   7.518  0.3162 -0.2557 -0.8321
  577MOL0     O76035   5.110   2.657   7.649  0.2744 -0.2997 -0.5203
  577MOL0     C76036   4.976   2.640   7.671  0.9257  0.2343  0.3564
  577MOL0     C76037   4.881   2.721   7.602  0.4018 -1.0851  0.1207
  577MOL0     C76038   4.750   2.708   7.634 -0.3339 -0.7768 -0.2229
  577MOL0     C76039   4.699   2.600   7.702 -0.4126  0.1376  0.1777
  577MOL0     O76040   4.568   2.578   7.735 -0.5717 -0.1012 -0.0175
  577MOL0     C76041   4.465   2.667   7.676  0.1527  0.0565  0.1534
  577MOL0     C76042   4.332   2.596   7.690  0.0605 -0.3265 -0.1597
  577MOL0     C76043   4.309   2.555   7.831 -0.9651  0.0737 -0.1204
  577MOL0     C76044   4.161   2.496   7.848 -0.0986 -0.2181  0.9394
  577MOL0     C76045   4.135   2.457   7.994 -0.4642  1.4685  0.1295
  577MOL0     C76046   4.016   2.350   8.014  0.4938 -0.2486  0.4192
  577MOL0     C76047   4.022   2.261   8.136  1.1800  0.5952 -0.3781
  577MOL0     C76048   3.913   2.147   8.145  0.2505  0.1465  0.8464
  577MOL0     N76049   3.929   2.054   8.032 -0.3461  0.6179 -0.0196
  577MOL0     C76050   3.816   2.002   7.967 -0.3543  0.5167 -0.2200
  577MOL0     C76051   3.866   1.902   7.889  0.1584 -0.7878 -0.5984
  577MOL0     C76052   3.792   1.809   7.800 -0.2777 -0.3670 -0.2546
  577MOL0     C76053   3.704   1.704   7.879 -0.1296 -0.3043  0.6162
  577MOL0     C76054   3.620   1.626   7.767 -0.8854 -0.3358 -0.4198
  577MOL0     C76055   3.538   1.507   7.801 -0.0785 -0.2379  0.2631
  577MOL0     O76056   3.462   1.468   7.686  1.0477 -1.1977  0.0672
  577MOL0     C76057   3.326   1.485   7.703  1.0564  0.1886 -0.3580
  577MOL0     C76058   3.267   1.600   7.646 -0.4957  0.2362 -0.6939
  577MOL0     C76059   3.129   1.630   7.663 -0.7218  0.3896 -0.5389
  577MOL0     C76060   3.048   1.546   7.738  0.1431  0.1903  0.5807
  577MOL0     C76061   2.908   1.575   7.757  0.4825  0.1445  0.1401
  577MOL0     O76062   2.862   1.661   7.658  0.8337 -0.0470  0.3914
  577MOL0     C76063   2.725   1.697   7.651  0.2366  0.6603 -1.1245
  577MOL0     C76064   2.615   1.611   7.668  0.0032 -0.1266  0.2241
  577MOL0     C76065   2.479   1.648   7.636 -1.3291  0.4566 -0.7303
  577MOL0     C76066   2.451   1.776   7.575 -0.7118  0.6688 -0.7932
  577MOL0     O76067   2.323   1.800   7.540 -0.7474  0.2206  0.3318
  577MOL0     C76068   2.299   1.907   7.442  0.5874 -0.3804  0.2053
  577MOL0     C76069   2.152   1.896   7.392 -0.2024  0.1287  0.4780
  577MOL0     C76070   2.058   1.908   7.516  0.3129 -0.4508 -0.3978
  577MOL0     C76071   1.914   1.874   7.492  0.0803  0.0503 -0.4021
  577MOL0     C76072   1.850   1.830   7.632  0.4731  0.0966  0.7151
  577MOL0     C76073   1.701   1.838   7.647 -0.4391  0.4657 -0.1030
  577MOL0     C76074   1.651   1.781   7.781  0.3197 -1.0411 -0.3656
  577MOL0     C76075   1.502   1.745   7.780  0.1863 -1.3737 -0.6866
  577MOL0    Cl76076   1.397   1.896   7.774 -0.1074  0.0601  0.2759
  577MOL0     C76077   2.569   1.863   7.556  1.0424  0.4348  0.0249
  577MOL0     C76078   2.699   1.822   7.596 -0.1010 -0.5227  0.5694
  577MOL0     O76079   2.844   1.535   7.855  0.3213 -0.5773  0.1737
  577MOL0     C76080   3.106   1.436   7.801  0.5841 -0.0636  0.6479
  577MOL0     C76081   3.244   1.413   7.789  0.4740 -0.4459 -0.2851
  577MOL0     N76082   4.000   1.883   7.918  0.2639  0.0563 -0.8089
  577MOL0     N76083   4.036   1.976   8.010 -0.1693 -0.1847  1.0423
  577MOL0     C76084   4.790   2.519   7.764 -0.1659 -0.3183 -1.1291
  577MOL0     C76085   4.925   2.535   7.751  0.0009  0.4596  0.0387
  577MOL0     C76086   5.304   2.677   7.491  0.2076 -0.1356  0.5007
  577MOL0     C76087   5.387   2.736   7.591  0.0850  0.1661  0.5496
  577MOL0     C76088   5.521   2.759   7.568  0.3118 -0.1972  0.0672
  577MOL0     C76089   5.584   2.723   7.452  0.1147  0.1062  0.7468
  577MOL0     O76090   5.724   2.744   7.451 -0.2255 -0.3828  0.3294
  577MOL0     C76091   5.792   2.707   7.328 -0.0846 -0.1879 -0.0340
  577MOL0     C76092   5.946   2.692   7.333  0.6525 -0.5201 -0.3031
  577MOL0     C76093   6.001   2.814   7.405  0.1684  0.0430 -0.1328
  577MOL0     C76094   6.153   2.806   7.420 -0.3305  0.6073 -0.7673
  577MOL0     C76095   6.195   2.886   7.534 -0.1919 -0.1278 -0.4874
  577MOL0     C76096   6.210   2.955   7.637  0.5847 -0.6087  1.0227
  577MOL0     C76097   5.506   2.670   7.346  0.2458  0.2755  0.3224
  577MOL0     C76098   5.364   2.648   7.371 -0.9070 -0.7252  0.4495
  577MOL0     H76099   4.912   2.797   7.531 -2.4955  1.4274  1.3626
  577MOL0     H76100   4.685   2.773   7.575  3.0010  1.6597 -1.5443
  577MOL0     H76101   4.484   2.673   7.568 -0.5524 -4.1660 -0.3880
  577MOL0     H76102   4.469   2.766   7.722  0.8595  0.2326 -0.2769
  577MOL0     H76103   4.345   2.509   7.625 -0.3141 -0.7147  0.2783
  577MOL0     H76104   4.261   2.665   7.644 -1.9291 -1.7978  0.5651
  577MOL0     H76105   4.324   2.638   7.901 -2.0625  1.9152 -1.9569
  577MOL0     H76106   4.370   2.467   7.851 -1.2161 -0.7273 -2.5782
  577MOL0     H76107   4.083   2.562   7.809  0.7698  0.3889  0.1777
  577MOL0     H76108   4.141   2.401   7.797 -1.8794  1.1343 -1.0458
  577MOL0     H76109   4.105   2.548   8.047  1.2392  1.9852  0.2942
  577MOL0     H76110   4.224   2.408   8.036 -1.1511  0.9551  1.0344
  577MOL0     H76111   4.020   2.289   7.923  0.6752  1.4881 -0.7861
  577MOL0     H76112   3.921   2.404   8.017 -0.1401 -1.3212  3.8061
  577MOL0     H76113   4.116   2.206   8.134  0.9783  0.2601 -1.6749
  577MOL0     H76114   4.009   2.331   8.219  0.7114  0.4238 -0.3052
  577MOL0     H76115   3.812   2.189   8.147 -0.2498 -1.0501  2.0296
  577MOL0     H76116   3.924   2.088   8.236  3.4308  1.7387  1.6439
  577MOL0     H76117   3.714   2.038   7.984 -0.5692  0.5744 -1.5474
  577MOL0     H76118   3.863   1.753   7.738  0.4770 -1.5663  1.5933
  577MOL0     H76119   3.742   1.882   7.737 -0.1286  1.7896  1.9688
  577MOL0     H76120   3.631   1.748   7.948  0.6719  1.0219  0.6544
  577MOL0     H76121   3.780   1.644   7.929  0.2785 -0.0102  0.3591
  577MOL0     H76122   3.547   1.696   7.726 -2.3710 -0.9365  1.1049
  577MOL0     H76123   3.693   1.599   7.690  1.9909  1.0302  1.6330
  577MOL0     H76124   3.474   1.550   7.879 -1.9930 -0.6755 -0.9769
  577MOL0     H76125   3.585   1.417   7.842 -1.2008 -1.9138 -1.9080
  577MOL0     H76126   3.334   1.667   7.593  0.1035  0.3308  0.1826
  577MOL0     H76127   3.101   1.726   7.620  1.5640  1.5767  0.4503
  577MOL0     H76128   2.619   1.507   7.701  1.4972 -0.6483 -1.4754
  577MOL0     H76129   2.391   1.590   7.661 -2.4806  2.6991  0.8389
  577MOL0     H76130   2.353   1.881   7.350  0.0068 -2.7049  0.4616
  577MOL0     H76131   2.320   2.010   7.475 -1.6297  0.0795  0.3317
  577MOL0     H76132   2.130   1.794   7.362  1.9061  0.1374 -1.2750
  577MOL0     H76133   2.142   1.970   7.312 -0.1871  1.3177  1.5346
  577MOL0     H76134   2.058   2.011   7.551 -1.3606 -1.1424  1.9154
  577MOL0     H76135   2.093   1.850   7.601 -1.5573  0.9682  1.4501
  577MOL0     H76136   1.860   1.958   7.447  4.4075  2.7901 -1.1184
  577MOL0     H76137   1.896   1.791   7.423  0.7826  0.4612 -1.1001
  577MOL0     H76138   1.895   1.894   7.708  2.5030 -1.7520  1.2069
  577MOL0     H76139   1.872   1.723   7.647  0.0132  0.2438  2.8477
  577MOL0     H76140   1.654   1.789   7.561  3.2321 -1.8174 -1.0119
  577MOL0     H76141   1.673   1.944   7.644 -0.3313  0.5069  0.2459
  577MOL0     H76142   1.697   1.683   7.801  3.4260  0.6683  1.7193
  577MOL0     H76143   1.666   1.845   7.868  0.9908 -1.7828  0.0845
  577MOL0     H76144   1.476   1.693   7.872 -0.8993  1.1285  0.5204
  577MOL0     H76145   1.488   1.671   7.700  2.5455  0.0504 -2.5766
  577MOL0     H76146   2.561   1.961   7.512  2.5131  0.9559  0.8504
  577MOL0     H76147   2.781   1.888   7.569  0.3581 -0.9135  0.9612
  577MOL0     H76148   3.045   1.377   7.869 -0.0997  0.5651  0.5911
  577MOL0     H76149   3.288   1.328   7.839  0.5860  0.8168  1.8782
  577MOL0     H76150   4.750   2.431   7.813  0.5452  0.2017  0.4639
  577MOL0     H76151   4.989   2.470   7.811 -1.8441  1.1451  2.9378
  577MOL0     H76152   5.344   2.770   7.685  0.8636  2.6437  0.0895
  577MOL0     H76153   5.579   2.798   7.651  0.9166 -4.3830  1.8501
  577MOL0     H76154   5.772   2.785   7.255  0.2042  1.6029  1.7024
  577MOL0     H76155   5.755   2.611   7.292 -0.4233 -1.1900  2.7001
  577MOL0     H76156   5.963   2.594   7.380 -1.2799 -0.0973  1.4589
  577MOL0     H76157   5.981   2.696   7.230  2.3301  0.9492  0.2841
  577MOL0     H76158   5.961   2.810   7.507  2.9161 -1.3447  0.9951
  577MOL0     H76159   5.974   2.911   7.361 -2.1784 -0.5725 -0.1643
  577MOL0     H76160   6.191   2.705   7.435 -0.7109  0.8989  3.1220
  577MOL0     H76161   6.199   2.851   7.331  0.9899  0.8651  0.0149
  577MOL0     H76162   6.212   3.004   7.733  2.5665  2.3187 -0.3377
  577MOL0     H76163   5.542   2.625   7.255  0.9027 -0.1000  0.7571
  577MOL0     H76164   5.311   2.605   7.287  0.5918 -0.4061 -0.6984
  578MOL0     O76165   8.246  10.369   1.491 -0.6455 -0.0076  0.2768
  578MOL0     C76166   8.314  10.271   1.462 -0.6575 -0.0206 -0.3661
  578MOL0     O76167   8.274  10.145   1.477 -0.4905 -0.2004 -0.7317
  578MOL0     C76168   8.148  10.104   1.453  0.5650  0.6932  0.1101
  578MOL0     C76169   8.114   9.965   1.467  1.2626 -0.3094  0.4927
  578MOL0     C76170   7.989   9.916   1.425  0.1385  1.0174 -0.4003
  578MOL0     C76171   7.880   9.998   1.392  0.7107  0.4557  0.1537
  578MOL0     O76172   7.747   9.964   1.382  0.2347  0.0793 -0.0448
  578MOL0     C76173   7.709   9.826   1.364 -0.4806  0.7650  0.2519
  578MOL0     C76174   7.623   9.806   1.239 -0.0354  0.2445  0.2214
  578MOL0     C76175   7.508   9.913   1.235 -0.4743  1.3588 -0.7334
  578MOL0     C76176   7.428   9.893   1.112  0.6676 -0.9132  0.0666
  578MOL0     C76177   7.304   9.983   1.093 -0.1546  0.2070 -0.1339
  578MOL0     C76178   7.338  10.132   1.085  0.0370  0.5611 -0.0818
  578MOL0     C76179   7.208  10.212   1.098  0.2702 -0.1749 -0.7870
  578MOL0     C76180   7.251  10.359   1.106  0.5958  0.0746  0.7881
  578MOL0     N76181   7.306  10.417   0.992  0.9183 -0.4238  0.3426
  578MOL0     C76182   7.438  10.404   0.937  0.8864  0.1212 -0.3127
  578MOL0     C76183   7.435  10.452   0.814  0.7904  0.3029  0.2790
  578MOL0     C76184   7.546  10.468   0.720  0.2484  0.0006  0.2241
  578MOL0     C76185   7.595  10.613   0.720 -0.3388 -0.2477 -0.1249
  578MOL0     C76186   7.734  10.631   0.680 -0.4503 -0.0441 -0.1586
  578MOL0     C76187   7.781  10.766   0.727  1.1032  0.2469 -0.6330
  578MOL0     O76188   7.918  10.781   0.698 -0.4806 -0.2791  0.1283
  578MOL0     C76189   7.982  10.901   0.746 -0.3177  0.6064  1.2607
  578MOL0     C76190   7.919  11.016   0.786 -0.1111  0.3949 -0.1414
  578MOL0     C76191   7.993  11.121   0.838 -0.4851  0.0510  0.1634
  578MOL0     C76192   8.139  11.129   0.833 -0.7931 -0.5293 -0.4063
  578MOL0     C76193   8.221  11.242   0.883 -0.1356  0.2650 -0.4742
  578MOL0     O76194   8.359  11.223   0.886  0.8117 -0.1381  0.0549
  578MOL0     C76195   8.449  11.314   0.910 -0.2893  0.0355 -0.3115
  578MOL0     C76196   8.426  11.458   0.920 -0.8777  0.4873  0.2858
  578MOL0     C76197   8.547  11.531   0.939  0.7654  0.2856 -0.4537
  578MOL0     C76198   8.670  11.479   0.968 -0.3693  0.4145  0.5489
  578MOL0     O76199   8.774  11.560   0.977  0.1970  0.4284 -0.2008
  578MOL0     C76200   8.907  11.496   1.012  0.2580  0.1755  0.1527
  578MOL0     C76201   9.018  11.607   1.009  0.4528  0.3154  0.0774
  578MOL0     C76202   9.174  11.564   1.022  0.2909 -0.1643  0.0241
  578MOL0     C76203   9.211  11.448   0.934  0.1216 -0.5458  0.2803
  578MOL0     C76204   9.197  11.304   0.988 -0.1721  0.1530  0.1950
  578MOL0     C76205   9.197  11.191   0.879  0.2304 -0.2376 -0.0749
  578MOL0     C76206   9.106  11.202   0.762  0.3973  0.1709  0.8935
  578MOL0     C76207   9.076  11.067   0.703  1.8006  0.0386  0.0821
  578MOL0    Cl76208   8.987  11.082   0.554  0.0391  0.3186  0.0443
  578MOL0     C76209   8.677  11.337   0.971  0.0088 -0.1490 -0.6424
  578MOL0     C76210   8.572  11.263   0.935  0.3755  1.1043  0.2077
  578MOL0     O76211   8.162  11.336   0.926 -0.1565 -0.4676 -0.2119
  578MOL0     C76212   8.200  11.011   0.790 -0.1752  0.9661 -0.2175
  578MOL0     C76213   8.121  10.896   0.763 -0.1846 -0.0992  0.3309
  578MOL0     N76214   7.305  10.496   0.783  0.5645 -0.4144  0.7013
  578MOL0     N76215   7.236  10.475   0.891  0.9272 -0.0854  0.4603
  578MOL0     C76216   7.908  10.126   1.372  0.1572  0.1143  0.6727
  578MOL0     C76217   8.042  10.183   1.402 -0.4456 -0.1355  0.9846
  578MOL0     C76218   8.453  10.304   1.431  0.0144  0.3841  0.4808
  578MOL0     C76219   8.513  10.420   1.481  0.6786  1.2390 -0.2205
  578MOL0     C76220   8.642  10.449   1.455  0.0262 -0.1537 -0.3022
  578MOL0     C76221   8.727  10.357   1.392  0.6791 -0.5388 -0.0087
  578MOL0     O76222   8.858  10.380   1.362 -0.6448  0.0992 -0.6790
  578MOL0     C76223   8.898  10.517   1.336  0.7575  0.3235  0.5439
  578MOL0     C76224   9.052  10.531   1.317  0.9428 -0.0059  1.0087
  578MOL0     C76225   9.130  10.453   1.427 -0.9710 -0.0944 -0.2988
  578MOL0     C76226   9.271  10.501   1.410 -0.4462 -0.2940 -0.4023
  578MOL0     C76227   9.343  10.466   1.531 -0.1634  0.5752  0.2759
  578MOL0     C76228   9.401  10.451   1.633  0.1241  1.1036  0.7240
  578MOL0     C76229   8.670  10.232   1.352  0.8153 -0.2235  0.4296
  578MOL0     C76230   8.540  10.204   1.382 -0.5088 -0.6372 -0.1753
  578MOL0     H76231   8.183   9.892   1.508 -0.8002 -2.1369  0.9154
  578MOL0     H76232   7.982   9.810   1.448 -2.2239  1.4988  1.4763
  578MOL0     H76233   7.651   9.792   1.450 -3.5183  3.8554 -0.3650
  578MOL0     H76234   7.800   9.765   1.363  0.3656  2.0001 -0.1784
  578MOL0     H76235   7.578   9.706   1.243 -1.1971  0.6953 -0.8348
  578MOL0     H76236   7.687   9.811   1.151  0.2331  1.6069  0.4799
  578MOL0     H76237   7.549  10.014   1.245 -0.1778  1.2594 -0.9174
  578MOL0     H76238   7.440   9.879   1.313 -0.7787 -0.2375 -1.6555
  578MOL0     H76239   7.494   9.908   1.025 -0.1699  1.4789 -0.2555
  578MOL0     H76240   7.394   9.790   1.107 -0.9564 -0.4036 -0.1508
  578MOL0     H76241   7.243   9.970   1.182  0.0786  1.3040  0.2034
  578MOL0     H76242   7.254   9.950   1.001  1.0454 -0.4114 -0.5937
  578MOL0     H76243   7.384  10.143   0.986  1.1806  0.0052  0.3715
  578MOL0     H76244   7.409  10.158   1.163 -1.4025  4.1862  0.2165
  578MOL0     H76245   7.140  10.193   1.015 -0.4876  2.1448 -0.7749
  578MOL0     H76246   7.150  10.181   1.186 -0.5696 -0.1213 -1.3086
  578MOL0     H76247   7.329  10.364   1.182  0.9807 -5.7332  1.2210
  578MOL0     H76248   7.159  10.410   1.137 -0.8135 -2.1439  0.5336
  578MOL0     H76249   7.531  10.360   0.971  2.1313  0.5620 -2.9239
  578MOL0     H76250   7.523  10.441   0.617  0.6905  0.3010  0.0408
  578MOL0     H76251   7.631  10.403   0.743  0.3450  0.3088  0.7469
  578MOL0     H76252   7.589  10.651   0.822  2.3061 -1.4851  0.5697
  578MOL0     H76253   7.534  10.668   0.648 -0.0342 -0.3265 -0.4498
  578MOL0     H76254   7.792  10.552   0.729  1.4951  2.7002  2.2706
  578MOL0     H76255   7.730  10.639   0.571  0.1976  4.6034 -0.0387
  578MOL0     H76256   7.762  10.766   0.835 -3.2577 -2.4853 -1.1441
  578MOL0     H76257   7.720  10.846   0.684 -2.3893 -0.1794  2.9185
  578MOL0     H76258   7.812  11.027   0.778 -0.6786 -2.8532  1.5692
  578MOL0     H76259   7.939  11.204   0.882  0.1972 -0.2367  1.5924
  578MOL0     H76260   8.332  11.510   0.912 -0.6325  0.6862 -1.9200
  578MOL0     H76261   8.523  11.637   0.937 -0.0065  0.1369 -2.3705
  578MOL0     H76262   8.932  11.427   0.931 -1.6691  0.4890 -0.7752
  578MOL0     H76263   8.910  11.440   1.106  0.7714  1.0216  0.6576
  578MOL0     H76264   8.987  11.660   1.100 -1.6752 -1.4377  0.4730
  578MOL0     H76265   9.003  11.669   0.921  1.0646 -1.5976 -1.4416
  578MOL0     H76266   9.203  11.541   1.125  0.0321  0.9512  0.3648
  578MOL0     H76267   9.232  11.652   0.992  1.0143  0.2156  2.3356
  578MOL0     H76268   9.161  11.449   0.837 -0.1772 -0.5169  0.4350
  578MOL0     H76269   9.319  11.453   0.916  0.3611 -1.7964  1.2541
  578MOL0     H76270   9.109  11.281   1.049  1.0589 -0.7246  1.7187
  578MOL0     H76271   9.284  11.284   1.052  0.0691  3.7132  1.1928
  578MOL0     H76272   9.178  11.092   0.922  0.7886 -0.9540 -1.3809
  578MOL0     H76273   9.299  11.186   0.839  0.1044 -3.0325 -0.2725
  578MOL0     H76274   9.018  11.261   0.791 -0.7990  0.1468 -2.3220
  578MOL0     H76275   9.168  11.256   0.689  0.5812  1.2595  1.8218
  578MOL0     H76276   9.006  11.025   0.776 -1.2948  1.5229 -1.8005
  578MOL0     H76277   9.168  11.008   0.695 -0.4831 -3.6472 -1.8345
  578MOL0     H76278   8.766  11.276   0.978  1.7015  2.2623  0.0167
  578MOL0     H76279   8.578  11.155   0.925 -3.7482  0.9167 -3.2179
  578MOL0     H76280   8.307  11.000   0.800 -0.0059 -0.2015 -2.6440
  578MOL0     H76281   8.163  10.798   0.741 -1.3821 -1.0463  2.0204
  578MOL0     H76282   7.832  10.192   1.332 -1.1932 -2.1805 -0.8333
  578MOL0     H76283   8.070  10.280   1.362  2.4488 -1.2564 -0.0320
  578MOL0     H76284   8.446  10.493   1.525 -2.6427 -1.4991 -0.3078
  578MOL0     H76285   8.666  10.546   1.498 -1.7542  1.1478 -2.0723
  578MOL0     H76286   8.858  10.581   1.414  2.9481  1.9456  0.4262
  578MOL0     H76287   8.848  10.558   1.248  2.7108  1.1815 -0.2252
  578MOL0     H76288   9.085  10.484   1.224  0.9229  0.9325  0.5105
  578MOL0     H76289   9.063  10.640   1.314 -3.1849  0.6102  1.5294
  578MOL0     H76290   9.136  10.344   1.416  0.6634 -0.0877  0.2236
  578MOL0     H76291   9.104  10.487   1.527  1.5418  1.8384 -0.2131
  578MOL0     H76292   9.322  10.454   1.326 -1.4771  0.6443 -1.5834
  578MOL0     H76293   9.286  10.608   1.397  3.3788 -0.1352  3.1287
  578MOL0     H76294   9.454  10.446   1.726 -0.1667  1.1538  0.8933
  578MOL0     H76295   8.727  10.160   1.295 -0.8742 -0.5257 -0.9364
  578MOL0     H76296   8.501  10.110   1.342 -2.4113  0.7317 -1.7562
  579MOL0     O76297   3.876   4.168   3.577 -0.2138 -0.4794 -0.3561
  579MOL0     C76298   3.802   4.238   3.510  0.2102 -0.5162  0.3846
  579MOL0     O76299   3.824   4.362   3.451  0.4284 -0.5500 -0.0976
  579MOL0     C76300   3.947   4.416   3.470 -0.1451 -0.2714 -0.3766
  579MOL0     C76301   4.039   4.398   3.369 -0.3454 -0.5435 -0.2311
  579MOL0     C76302   4.153   4.479   3.382 -0.1521 -0.1457  0.0256
  579MOL0     C76303   4.180   4.571   3.483  0.0695 -0.6861 -0.6250
  579MOL0     O76304   4.294   4.638   3.482 -0.2064 -0.2187  0.1356
  579MOL0     C76305   4.292   4.773   3.513 -0.8926 -1.6151  0.2294
  579MOL0     C76306   4.392   4.826   3.414  0.1206 -0.9116 -0.2285
  579MOL0     C76307   4.414   4.976   3.405 -0.4073 -0.0090 -0.1626
  579MOL0     C76308   4.510   5.000   3.281 -0.0010 -0.7281  0.2933
  579MOL0     C76309   4.588   5.137   3.279 -0.4673 -0.2162 -0.5970
  579MOL0     C76310   4.483   5.254   3.263  0.1761  0.6634  0.2869
  579MOL0     C76311   4.560   5.386   3.305 -0.9310 -0.2629 -0.7801
  579MOL0     C76312   4.659   5.453   3.207 -0.1928  0.3586  0.6074
  579MOL0     N76313   4.601   5.501   3.080  0.9485 -0.2847  0.1154
  579MOL0     C76314   4.512   5.604   3.062 -0.2641 -1.1538 -0.9063
  579MOL0     C76315   4.513   5.635   2.928 -0.2855 -0.6691  0.5192
  579MOL0     C76316   4.443   5.747   2.869  0.1030  0.1337 -0.3983
  579MOL0     C76317   4.301   5.774   2.900  0.3840 -0.6843 -0.7096
  579MOL0     C76318   4.210   5.669   2.847  0.7562 -0.1428  0.0231
  579MOL0     C76319   4.063   5.717   2.839  0.7918  0.1794 -0.3753
  579MOL0     O76320   4.034   5.842   2.781  0.6823 -0.6005 -0.1291
  579MOL0     C76321   3.899   5.852   2.738 -1.1197  0.0226  0.5376
  579MOL0     C76322   3.787   5.791   2.808 -0.3424 -0.0227 -0.0267
  579MOL0     C76323   3.659   5.814   2.775  0.8335  0.6245  0.5726
  579MOL0     C76324   3.632   5.898   2.666 -1.1789 -0.2214 -0.6376
  579MOL0     C76325   3.491   5.925   2.643  0.0869 -0.5644  1.0587
  579MOL0     O76326   3.404   5.831   2.683 -0.1234 -0.0887 -0.0254
  579MOL0     C76327   3.270   5.832   2.648 -0.0435  0.0086 -0.1732
  579MOL0     C76328   3.192   5.760   2.742 -0.3741 -0.1175 -0.3882
  579MOL0     C76329   3.064   5.731   2.724  0.8649 -0.0260  0.2907
  579MOL0     C76330   2.994   5.797   2.623 -0.1409 -0.0906 -1.4978
  579MOL0     O76331   2.857   5.781   2.613  0.1811  0.7992  0.0268
  579MOL0     C76332   2.797   5.694   2.708  0.3036  0.3320 -0.2868
  579MOL0     C76333   2.655   5.659   2.670  0.3775  1.2948  0.3692
  579MOL0     C76334   2.569   5.782   2.668 -0.4885 -0.3450  0.0075
  579MOL0     C76335   2.507   5.793   2.535  0.2536  0.5468 -0.1377
  579MOL0     C76336   2.421   5.924   2.528  0.1472  0.1857  0.6982
  579MOL0     C76337   2.504   6.042   2.526  0.5961  0.0227 -0.4501
  579MOL0     C76338   2.402   6.157   2.517  0.4552  0.0119 -0.4721
  579MOL0     C76339   2.474   6.292   2.505 -0.3541 -0.2440  0.0680
  579MOL0    Cl76340   2.573   6.300   2.358  0.3711 -0.1812  0.0770
  579MOL0     C76341   3.067   5.866   2.530  0.0315  0.9038 -0.3501
  579MOL0     C76342   3.209   5.878   2.526  0.7525 -0.6436  0.0879
  579MOL0     O76343   3.461   6.032   2.596 -0.0164  0.1416  0.3415
  579MOL0     C76344   3.741   5.961   2.599 -0.2298 -0.0311 -0.2357
  579MOL0     C76345   3.870   5.938   2.637  0.4634 -0.2653  1.2911
  579MOL0     N76346   4.594   5.544   2.868  0.3636  0.3981  0.4528
  579MOL0     N76347   4.656   5.471   2.960 -0.4583 -0.4488  0.5608
  579MOL0     C76348   4.083   4.580   3.586  0.8074  0.0719  0.1427
  579MOL0     C76349   3.971   4.500   3.575  0.3740  0.1946 -0.7615
  579MOL0     C76350   3.670   4.175   3.479 -0.0528 -0.0388 -0.3908
  579MOL0     C76351   3.568   4.240   3.405 -0.3590  0.2940 -0.3492
  579MOL0     C76352   3.449   4.176   3.385  0.3778 -0.7190 -0.0821
  579MOL0     C76353   3.412   4.056   3.449 -0.3261 -0.1488 -0.2851
  579MOL0     O76354   3.295   3.987   3.431  0.1343 -0.7264 -1.1164
  579MOL0     C76355   3.228   4.008   3.309 -0.0492  0.0068  0.9636
  579MOL0     C76356   3.107   3.918   3.305 -0.3672 -0.7532 -0.4411
  579MOL0     C76357   3.042   3.930   3.162 -0.5592 -0.0940 -0.1914
  579MOL0     C76358   2.935   3.828   3.149  0.4475 -0.8805  0.7060
  579MOL0     C76359   2.874   3.819   3.015  0.7534 -0.0261 -0.1377
  579MOL0     C76360   2.827   3.810   2.905  0.1611  0.3397  1.0977
  579MOL0     C76361   3.503   4.002   3.545 -0.3240  0.8859  0.3366
  579MOL0     C76362   3.628   4.058   3.556  0.1470 -0.5598  0.0812
  579MOL0     H76363   4.025   4.332   3.284  3.0408  1.1653 -2.3740
  579MOL0     H76364   4.222   4.483   3.299  2.0695  1.4897  1.8181
  579MOL0     H76365   4.306   4.806   3.616  3.4879  2.5012 -1.2916
  579MOL0     H76366   4.197   4.825   3.492  0.4675  1.4491  1.1135
  579MOL0     H76367   4.363   4.778   3.319  5.3527  0.2149 -2.8007
  579MOL0     H76368   4.485   4.773   3.439  0.9205 -0.5688 -2.2778
  579MOL0     H76369   4.464   5.003   3.498 -0.5125 -0.4620  0.0300
  579MOL0     H76370   4.322   5.033   3.388  2.1220  4.4077 -0.4827
  579MOL0     H76371   4.594   4.932   3.266  0.7891  0.1684  0.5463
  579MOL0     H76372   4.448   4.992   3.191  3.0500  0.2769 -2.0758
  579MOL0     H76373   4.650   5.136   3.189 -0.7898 -1.3682 -0.8187
  579MOL0     H76374   4.650   5.156   3.367  0.1015  1.4435 -1.3014
  579MOL0     H76375   4.395   5.235   3.326  0.3381 -2.2918 -0.2417
  579MOL0     H76376   4.442   5.267   3.163 -1.1706  1.2587  0.8875
  579MOL0     H76377   4.486   5.464   3.325 -0.7225 -0.6256  1.6546
  579MOL0     H76378   4.615   5.363   3.396  0.7934  0.8506 -1.5022
  579MOL0     H76379   4.750   5.397   3.184  1.1812  2.7890 -0.2419
  579MOL0     H76380   4.698   5.542   3.256  1.7668  0.2405 -0.6273
  579MOL0     H76381   4.455   5.660   3.135 -1.0323 -1.6033 -1.1361
  579MOL0     H76382   4.467   5.751   2.762 -1.3313  1.7872 -0.6936
  579MOL0     H76383   4.504   5.833   2.900  3.1206 -1.6139 -0.9890
  579MOL0     H76384   4.269   5.865   2.850 -1.5116 -1.1159 -0.3602
  579MOL0     H76385   4.291   5.788   3.008 -0.4639  0.8948 -0.9680
  579MOL0     H76386   4.229   5.636   2.745  1.2510 -0.1761  0.1251
  579MOL0     H76387   4.214   5.579   2.910  1.7967 -0.5503 -0.6162
  579MOL0     H76388   4.016   5.712   2.938 -0.2745 -0.4445 -0.9060
  579MOL0     H76389   4.010   5.643   2.778 -0.4822  1.5114 -0.9461
  579MOL0     H76390   3.797   5.722   2.891  0.3366 -2.9384 -2.3624
  579MOL0     H76391   3.581   5.761   2.829  0.2202  1.2371  0.3108
  579MOL0     H76392   3.251   5.706   2.815 -1.6893 -0.9809  0.0676
  579MOL0     H76393   3.029   5.670   2.806 -0.6887  1.5937  0.8831
  579MOL0     H76394   2.813   5.726   2.811 -2.1981  2.0949 -0.3828
  579MOL0     H76395   2.847   5.597   2.696 -1.6293 -0.6235 -1.0229
  579MOL0     H76396   2.619   5.570   2.722  0.6256 -1.8565 -4.2391
  579MOL0     H76397   2.652   5.624   2.566  1.5698 -1.5252  1.1877
  579MOL0     H76398   2.624   5.876   2.678 -2.7832  1.2156 -1.1797
  579MOL0     H76399   2.503   5.775   2.755  0.4018 -0.6143  0.6862
  579MOL0     H76400   2.590   5.802   2.464  1.1310  0.2495  0.8302
  579MOL0     H76401   2.439   5.710   2.512  0.1978  0.6417 -0.3119
  579MOL0     H76402   2.360   5.924   2.618  0.6343 -0.4711  1.0373
  579MOL0     H76403   2.351   5.913   2.445 -0.8141  0.8465  1.4130
  579MOL0     H76404   2.570   6.049   2.439  0.2123 -2.6121 -1.0390
  579MOL0     H76405   2.567   6.057   2.614  0.4072  0.5275 -0.3997
  579MOL0     H76406   2.336   6.135   2.433 -0.3052 -0.5423  0.2565
  579MOL0     H76407   2.352   6.159   2.614  3.3344 -2.3242  1.2383
  579MOL0     H76408   2.532   6.291   2.598  0.1438  1.1576 -0.2043
  579MOL0     H76409   2.404   6.375   2.510 -0.1172  0.1701 -2.3488
  579MOL0     H76410   3.009   5.896   2.444  0.3697  1.5530 -0.3577
  579MOL0     H76411   3.247   5.936   2.442 -2.3024 -0.1794 -1.1040
  579MOL0     H76412   3.713   6.044   2.535 -2.6830  1.6877  2.7656
  579MOL0     H76413   3.950   5.977   2.575 -2.0532 -3.0192 -4.4508
  579MOL0     H76414   4.113   4.640   3.672  2.6218 -0.0750 -0.3599
  579MOL0     H76415   3.885   4.508   3.640  0.2397 -0.8272 -0.8057
  579MOL0     H76416   3.583   4.337   3.359  2.0372  0.6087  0.9763
  579MOL0     H76417   3.369   4.229   3.334 -0.5528 -0.8124  1.2253
  579MOL0     H76418   3.289   3.987   3.220  0.6538 -1.2742  1.7232
  579MOL0     H76419   3.196   4.113   3.305 -0.3879 -0.1081  0.5615
  579MOL0     H76420   3.138   3.816   3.330  1.5138 -0.7746 -2.6042
  579MOL0     H76421   3.039   3.959   3.381 -1.1061 -4.3257  1.0432
  579MOL0     H76422   3.118   3.917   3.083 -3.7617 -1.3483 -3.3375
  579MOL0     H76423   2.994   4.027   3.150 -1.7989 -0.7727 -0.8732
  579MOL0     H76424   2.979   3.732   3.176  1.3999 -0.6098  0.1828
  579MOL0     H76425   2.854   3.855   3.217  0.5108 -0.3317  0.5725
  579MOL0     H76426   2.771   3.788   2.816 -2.4774 -2.8324  3.2850
  579MOL0     H76427   3.477   3.912   3.598 -3.3699  1.2219 -0.4416
  579MOL0     H76428   3.705   4.010   3.615  1.8376 -0.5202 -1.9748
  580MOL0     O76429   9.454   4.232   8.782  0.3918  0.6984 -0.3418
  580MOL0     C76430   9.482   4.125   8.726 -0.5326 -0.5595  0.0023
  580MOL0     O76431   9.401   4.046   8.648 -0.6437  0.4914 -0.1257
  580MOL0     C76432   9.266   4.078   8.643 -0.0570  0.4796 -0.7268
  580MOL0     C76433   9.214   4.211   8.637  0.7092 -0.1890  0.6347
  580MOL0     C76434   9.076   4.231   8.649 -0.1708  0.1176  0.4818
  580MOL0     C76435   8.987   4.116   8.657 -0.4076  0.1234  0.0607
  580MOL0     O76436   8.851   4.135   8.668 -0.9383 -0.3095 -0.5577
  580MOL0     C76437   8.782   4.107   8.549  0.1318  0.4760 -0.3970
  580MOL0     C76438   8.639   4.167   8.562  0.4455 -0.8556  0.3960
  580MOL0     C76439   8.630   4.328   8.568  1.1684  0.2917  0.6947
  580MOL0     C76440   8.485   4.366   8.589 -0.3890 -0.6540 -0.0363
  580MOL0     C76441   8.487   4.523   8.635 -0.4590  0.2004 -0.9518
  580MOL0     C76442   8.356   4.579   8.678 -0.1127  1.0329  0.7442
  580MOL0     C76443   8.382   4.721   8.718  0.9352  1.0702 -0.4560
  580MOL0     C76444   8.246   4.784   8.775  0.1772 -0.2703  0.2688
  580MOL0     N76445   8.144   4.802   8.672  0.4409 -0.0921  0.5640
  580MOL0     C76446   8.128   4.912   8.584  0.7240  0.2432  0.2115
  580MOL0     C76447   8.017   4.871   8.504  0.0129  0.3217 -0.1853
  580MOL0     C76448   7.958   4.951   8.393  0.0185 -0.6845  0.7293
  580MOL0     C76449   7.866   4.859   8.309  0.2904  0.7035  0.1172
  580MOL0     C76450   7.838   4.919   8.170  0.0493 -0.0179 -0.5658
  580MOL0     C76451   7.706   4.992   8.177 -0.4548  0.1866  0.7198
  580MOL0     O76452   7.654   5.056   8.057 -0.0054  0.6025 -0.1868
  580MOL0     C76453   7.526   5.019   8.027  0.4541 -0.2744  0.2840
  580MOL0     C76454   7.498   4.922   7.924  0.3701  0.1627 -0.1034
  580MOL0     C76455   7.370   4.903   7.872 -0.2860 -0.1887 -0.2020
  580MOL0     C76456   7.273   4.986   7.919 -0.2021  0.9993  0.2608
  580MOL0     C76457   7.143   4.970   7.856  0.0730 -0.2844  0.6072
  580MOL0     O76458   7.132   4.931   7.726 -0.4269  0.0412 -0.0699
  580MOL0     C76459   7.019   4.912   7.657 -0.2643  0.1021 -0.0125
  580MOL0     C76460   6.900   4.845   7.717  0.2040  0.4764 -1.0137
  580MOL0     C76461   6.788   4.812   7.636 -1.1834  0.1057 -0.9371
  580MOL0     C76462   6.789   4.851   7.504 -0.2655 -0.5601  0.3375
  580MOL0     O76463   6.669   4.824   7.451  0.2726 -0.8561 -0.5472
  580MOL0     C76464   6.613   4.924   7.356 -0.1004  0.4457  0.6639
  580MOL0     C76465   6.469   4.934   7.390  0.1466  0.0422  0.3094
  580MOL0     C76466   6.393   4.798   7.391 -0.4649  0.4351 -0.7093
  580MOL0     C76467   6.249   4.836   7.398 -0.5209 -0.5426  0.1131
  580MOL0     C76468   6.161   4.704   7.423 -0.3179  0.1945 -0.1761
  580MOL0     C76469   6.031   4.727   7.500  0.6022 -0.3632  0.0520
  580MOL0     C76470   5.917   4.786   7.423  0.4584  1.2058 -0.3468
  580MOL0     C76471   5.789   4.792   7.498  0.3797 -0.0320 -0.2631
  580MOL0    Cl76472   5.790   4.856   7.669 -0.0324  0.7583 -0.0676
  580MOL0     C76473   6.902   4.906   7.442 -0.3203 -0.0854  1.1254
  580MOL0     C76474   7.015   4.940   7.514  0.3978 -0.4632  0.3475
  580MOL0     O76475   7.051   5.022   7.927  0.0423 -0.0167  0.4963
  580MOL0     C76476   7.290   5.068   8.035 -0.3285 -0.3210 -0.1851
  580MOL0     C76477   7.425   5.081   8.089  0.2635 -0.7062  0.5753
  580MOL0     N76478   7.976   4.740   8.552  0.0798  0.3645  0.2677
  580MOL0     N76479   8.054   4.711   8.648 -0.0094 -0.0339  0.0978
  580MOL0     C76480   9.042   3.991   8.665 -0.3230 -0.2781  0.5003
  580MOL0     C76481   9.177   3.969   8.670  0.2417 -1.2295  0.1365
  580MOL0     C76482   9.623   4.087   8.750 -0.2233 -0.8575  0.1693
  580MOL0     C76483   9.691   4.001   8.664 -0.0162 -0.3527 -0.4163
  580MOL0     C76484   9.825   3.964   8.680  0.8015 -0.6419  0.4358
  580MOL0     C76485   9.897   4.028   8.781 -0.4785  0.0781 -0.4289
  580MOL0     O76486  10.031   4.008   8.786 -0.0250 -0.4887  0.0980
  580MOL0     C76487  10.090   3.953   8.903  0.3738  0.4834 -0.3814
  580MOL0     C76488  10.246   3.932   8.881  0.6905  0.0597 -0.4308
  580MOL0     C76489  10.258   3.800   8.810  0.1910 -0.3685 -0.0609
  580MOL0     C76490  10.354   3.812   8.687  0.2873  0.0010 -0.3560
  580MOL0     C76491  10.488   3.856   8.727 -0.0868  0.0374 -1.2324
  580MOL0     C76492  10.605   3.891   8.755 -0.4865 -0.5122  0.8243
  580MOL0     C76493   9.837   4.113   8.868 -0.3417 -0.6792  0.2176
  580MOL0     C76494   9.699   4.148   8.851  0.0695 -0.6109  0.5702
  580MOL0     H76495   9.282   4.293   8.615  1.4580 -0.8024  0.6012
  580MOL0     H76496   9.034   4.331   8.653  0.0462  0.4328 -2.5323
  580MOL0     H76497   8.767   4.000   8.534 -5.9677  0.8871  0.1724
  580MOL0     H76498   8.827   4.137   8.454 -1.5197  0.2239 -1.2881
  580MOL0     H76499   8.591   4.138   8.656 -0.7167 -1.0155 -0.2340
  580MOL0     H76500   8.577   4.138   8.477  0.7684 -1.6338  0.4218
  580MOL0     H76501   8.665   4.377   8.477  1.0181 -0.2567  0.3386
  580MOL0     H76502   8.690   4.377   8.645  1.4303  3.6616 -1.4178
  580MOL0     H76503   8.433   4.351   8.494  0.6498  4.1273 -1.6446
  580MOL0     H76504   8.451   4.302   8.672 -1.1501  0.3055  0.4118
  580MOL0     H76505   8.524   4.582   8.551 -1.6375 -2.2213 -3.2921
  580MOL0     H76506   8.545   4.530   8.728 -0.4460 -0.3950 -0.9098
  580MOL0     H76507   8.316   4.504   8.747  1.8531 -1.1299 -0.3091
  580MOL0     H76508   8.295   4.566   8.588  0.5255 -1.7583  0.6025
  580MOL0     H76509   8.444   4.709   8.808  0.9125 -2.8232 -0.7813
  580MOL0     H76510   8.419   4.780   8.634 -0.3278 -0.0441 -1.8489
  580MOL0     H76511   8.255   4.878   8.830 -0.8754 -0.1579  0.2714
  580MOL0     H76512   8.218   4.708   8.849  2.8073 -1.0426  0.5557
  580MOL0     H76513   8.189   5.001   8.570 -1.0916  1.7887  1.6158
  580MOL0     H76514   8.034   4.995   8.328  0.8629  1.6133  3.0832
  580MOL0     H76515   7.894   5.026   8.441  1.1215 -0.7307  2.3869
  580MOL0     H76516   7.770   4.853   8.361  0.6925 -2.5767  0.7141
  580MOL0     H76517   7.910   4.759   8.297  1.6756  0.9679  2.5722
  580MOL0     H76518   7.922   4.978   8.132  0.8971 -0.8361  0.0140
  580MOL0     H76519   7.821   4.835   8.101 -0.4927  0.7910 -1.4553
  580MOL0     H76520   7.690   5.058   8.262 -3.3115 -0.2313  0.5952
  580MOL0     H76521   7.634   4.913   8.200 -1.7553  1.5864  1.6176
  580MOL0     H76522   7.576   4.862   7.879 -0.3015  0.1069 -1.2342
  580MOL0     H76523   7.361   4.825   7.797  1.4067 -1.6574  1.0409
  580MOL0     H76524   6.901   4.820   7.823 -1.3615 -2.2384 -1.5403
  580MOL0     H76525   6.699   4.762   7.674 -2.3749  0.7838 -2.7084
  580MOL0     H76526   6.638   4.887   7.256 -2.5433  1.3740 -0.3732
  580MOL0     H76527   6.664   5.021   7.366 -2.8693  2.1743 -0.6025
  580MOL0     H76528   6.436   4.999   7.308 -0.5616  0.9321  1.2760
  580MOL0     H76529   6.440   4.984   7.483  1.1389 -0.0576  0.6791
  580MOL0     H76530   6.421   4.732   7.474  2.4806  0.9647 -1.1763
  580MOL0     H76531   6.413   4.740   7.301 -1.1114  0.0154 -0.5890
  580MOL0     H76532   6.233   4.905   7.481 -0.7536 -0.9828  0.4423
  580MOL0     H76533   6.224   4.899   7.312 -5.0748 -2.1979 -0.0380
  580MOL0     H76534   6.224   4.634   7.478 -1.0581 -0.3930 -0.0547
  580MOL0     H76535   6.128   4.646   7.336 -1.0402 -0.5660  0.5921
  580MOL0     H76536   6.045   4.797   7.583  1.4010 -0.3748 -0.0674
  580MOL0     H76537   5.997   4.631   7.539  0.6364 -0.3160  0.1983
  580MOL0     H76538   5.947   4.889   7.404 -0.0260  1.3025 -0.6138
  580MOL0     H76539   5.908   4.718   7.338  2.6305 -0.5646  0.7324
  580MOL0     H76540   5.749   4.690   7.497 -0.6623  0.3297 -2.3089
  580MOL0     H76541   5.716   4.846   7.437 -3.0993 -2.1082  1.7084
  580MOL0     H76542   6.897   4.937   7.337 -0.7399 -2.9203  0.2365
  580MOL0     H76543   7.103   4.985   7.470  0.3238  0.2029  0.8696
  580MOL0     H76544   7.211   5.120   8.087  0.3620 -0.0018  0.5611
  580MOL0     H76545   7.439   5.163   8.158 -1.1051  0.4109 -0.3864
  580MOL0     H76546   8.975   3.907   8.684  1.8965 -2.7268 -1.7419
  580MOL0     H76547   9.209   3.866   8.681  0.6555 -1.4014 -2.2474
  580MOL0     H76548   9.639   3.957   8.580  0.1966  0.7727 -1.1555
  580MOL0     H76549   9.884   3.907   8.609  1.5780 -2.9492  2.7495
  580MOL0     H76550  10.037   3.863   8.938  2.3529  0.1531  2.0669
  580MOL0     H76551  10.084   4.024   8.986  0.7149  2.2892 -1.8450
  580MOL0     H76552  10.288   4.022   8.835  1.0957 -0.6520 -1.4947
  580MOL0     H76553  10.292   3.926   8.980 -0.7078 -0.0397  0.2318
  580MOL0     H76554  10.157   3.766   8.788 -1.3527  0.3036  4.8133
  580MOL0     H76555  10.285   3.726   8.886  0.7314  1.2528  1.3982
  580MOL0     H76556  10.367   3.713   8.642 -0.1831  0.5867 -1.8741
  580MOL0     H76557  10.312   3.870   8.604 -2.3366 -3.6474 -1.8879
  580MOL0     H76558  10.701   3.931   8.783 -0.5015  2.7669 -2.9627
  580MOL0     H76559   9.891   4.161   8.949  1.3673 -1.1084 -0.6304
  580MOL0     H76560   9.652   4.220   8.918  0.8291 -0.2961  0.7799
  581MOL0     O76561   0.689   5.242   9.780 -0.1212 -0.1284 -0.2129
  581MOL0     C76562   0.740   5.301   9.880  0.4936  0.1828  0.3723
  581MOL0     O76563   0.668   5.311   9.999  0.0129  0.2560  0.2604
  581MOL0     C76564   0.532   5.310   9.984  0.2885 -0.2359 -0.4726
  581MOL0     C76565   0.459   5.428  10.005 -0.3902  0.2476  0.4504
  581MOL0     C76566   0.319   5.432  10.010 -0.0604  0.6923 -0.5882
  581MOL0     C76567   0.248   5.313   9.975 -0.1465 -0.6942  0.3326
  581MOL0     O76568   0.115   5.312   9.986  0.3374 -0.3172 -0.9991
  581MOL0     C76569   0.040   5.188  10.012 -0.5671 -0.6500  0.2538
  581MOL0     C76570  -0.110   5.213  10.012  0.7243 -0.2553  0.3495
  581MOL0     C76571  -0.159   5.286   9.887 -0.3000  0.7407  0.3675
  581MOL0     C76572  -0.310   5.326   9.895 -0.3829 -0.4094 -0.0908
  581MOL0     C76573  -0.344   5.401   9.761  0.0143  0.5960 -0.1237
  581MOL0     C76574  -0.490   5.395   9.727  0.3441 -0.0717 -0.9865
  581MOL0     C76575  -0.518   5.464   9.592  0.4740  0.8113  0.2263
  581MOL0     C76576  -0.469   5.386   9.478 -0.5484 -0.4224  0.5855
  581MOL0     N76577  -0.518   5.456   9.355 -0.5911  0.5294 -0.2892
  581MOL0     C76578  -0.455   5.565   9.307 -0.6411 -0.3133 -0.4024
  581MOL0     C76579  -0.524   5.592   9.191  0.2806  0.1738 -0.2739
  581MOL0     C76580  -0.509   5.697   9.090  0.2334  0.3587 -0.3286
  581MOL0     C76581  -0.606   5.815   9.133  0.1438 -0.3850  0.5139
  581MOL0     C76582  -0.744   5.800   9.080 -0.6065 -0.2709 -0.1768
  581MOL0     C76583  -0.842   5.908   9.135  0.8959  1.4641 -0.0000
  581MOL0     O76584  -0.978   5.860   9.100  0.3164  0.2401  0.6437
  581MOL0     C76585  -1.081   5.932   9.151  0.1581 -0.4628  0.5945
  581MOL0     C76586  -1.072   6.044   9.236 -0.1029  0.4542 -0.3051
  581MOL0     C76587  -1.190   6.110   9.271 -0.2835 -0.0759 -0.3694
  581MOL0     C76588  -1.319   6.066   9.230  1.1260  0.7016 -0.8550
  581MOL0     C76589  -1.436   6.149   9.277  0.8248 -0.0618 -1.2729
  581MOL0     O76590  -1.553   6.140   9.203  0.2897  0.1051 -0.0391
  581MOL0     C76591  -1.657   6.223   9.219 -0.4651  0.7267 -0.5090
  581MOL0     C76592  -1.783   6.173   9.242  0.4973 -0.5589  0.0392
  581MOL0     C76593  -1.900   6.256   9.233  0.4294  0.6093 -0.1186
  581MOL0     C76594  -1.888   6.393   9.212 -0.6263 -0.2901 -0.0924
  581MOL0     O76595  -2.002   6.461   9.206  0.4360 -0.3345 -0.0646
  581MOL0     C76596  -2.024   6.523   9.077 -0.3797  0.3219 -0.7313
  581MOL0     C76597  -2.154   6.612   9.084  0.3110  0.9185  1.2551
  581MOL0     C76598  -2.283   6.530   9.103  0.0739 -0.0002  0.0109
  581MOL0     C76599  -2.320   6.436   8.990  0.1825  0.0816  0.9959
  581MOL0     C76600  -2.425   6.326   9.021 -0.4250  0.9837  0.0267
  581MOL0     C76601  -2.520   6.303   8.899 -0.7902  0.1798 -0.1932
  581MOL0     C76602  -2.647   6.223   8.925 -0.1174 -0.0198  0.2777
  581MOL0     C76603  -2.756   6.224   8.815 -0.2190  0.1115  0.8207
  581MOL0    Cl76604  -2.756   6.364   8.701 -0.1435 -0.2431 -0.1775
  581MOL0     C76605  -1.751   6.444   9.184  0.1499 -0.0617 -0.2482
  581MOL0     C76606  -1.636   6.359   9.191  0.2338  0.1830 -0.4130
  581MOL0     O76607  -1.419   6.229   9.371 -0.2932  0.0155  0.7750
  581MOL0     C76608  -1.323   5.965   9.135  0.1199 -0.5912 -0.6522
  581MOL0     C76609  -1.208   5.903   9.096 -0.2590  1.0470 -0.4044
  581MOL0     N76610  -0.611   5.492   9.175 -0.3193  0.3889  0.4233
  581MOL0     N76611  -0.605   5.414   9.275 -0.4898  0.2717  0.1982
  581MOL0     C76612   0.321   5.192   9.950  0.1671 -0.4553  0.6163
  581MOL0     C76613   0.461   5.191   9.955 -0.2669 -0.4710 -0.8617
  581MOL0     C76614   0.881   5.364   9.871  0.0225 -0.0051  0.8207
  581MOL0     C76615   0.974   5.322   9.781  0.8838 -1.2933 -0.6031
  581MOL0     C76616   1.100   5.375   9.778 -0.0315 -0.2142  0.4219
  581MOL0     C76617   1.136   5.478   9.865 -0.9300  0.1597  0.8408
  581MOL0     O76618   1.263   5.528   9.839 -0.1388  0.6771 -0.6577
  581MOL0     C76619   1.298   5.659   9.898  0.4483  0.8019  0.4825
  581MOL0     C76620   1.443   5.682   9.869 -0.4521 -0.8319  0.5055
  581MOL0     C76621   1.523   5.578   9.946  0.0366  0.4130  0.2809
  581MOL0     C76622   1.671   5.592   9.933 -0.3532  0.6159 -0.3595
  581MOL0     C76623   1.717   5.567   9.797  0.2512  0.2555 -0.2946
  581MOL0     C76624   1.740   5.529   9.678  0.0492 -1.4147 -0.3866
  581MOL0     C76625   1.041   5.527   9.953 -0.2898  0.6170 -0.5360
  581MOL0     C76626   0.918   5.467   9.960 -0.5645  0.9872 -0.9189
  581MOL0     H76627   0.524   5.513  10.024  1.4807 -0.6040 -1.6380
  581MOL0     H76628   0.272   5.529  10.026  2.9289  1.9854  1.0606
  581MOL0     H76629   0.063   5.151  10.113 -2.4335  1.8262  1.6947
  581MOL0     H76630   0.063   5.121   9.929 -1.4706 -1.0184  0.2936
  581MOL0     H76631  -0.118   5.272  10.104 -1.8719 -2.1382  1.4553
  581MOL0     H76632  -0.167   5.121  10.019 -0.0086  0.2187  0.6923
  581MOL0     H76633  -0.130   5.216   9.808  1.6218  0.8140  0.9584
  581MOL0     H76634  -0.098   5.372   9.855  1.1563 -1.0641 -2.0053
  581MOL0     H76635  -0.365   5.232   9.898  0.1486 -0.7185  0.1147
  581MOL0     H76636  -0.333   5.382   9.985 -1.1550 -1.1590  0.1900
  581MOL0     H76637  -0.291   5.354   9.678  0.7324 -2.5449  1.9512
  581MOL0     H76638  -0.302   5.502   9.768  2.1145 -0.2524  0.6704
  581MOL0     H76639  -0.533   5.451   9.811 -2.0702  1.0977 -2.8943
  581MOL0     H76640  -0.528   5.292   9.724 -0.1364  0.0482  0.3539
  581MOL0     H76641  -0.625   5.487   9.589  0.3155  1.0409  3.4662
  581MOL0     H76642  -0.468   5.561   9.604  1.0877  0.6474 -0.9196
  581MOL0     H76643  -0.491   5.278   9.479  0.3096 -0.7538 -3.0763
  581MOL0     H76644  -0.360   5.382   9.475 -0.4850 -2.1052  2.5731
  581MOL0     H76645  -0.366   5.619   9.337  0.9502 -0.7092 -3.8445
  581MOL0     H76646  -0.530   5.675   8.985  2.7444  1.6350 -1.1652
  581MOL0     H76647  -0.406   5.733   9.089 -0.2708  1.9108 -2.3908
  581MOL0     H76648  -0.574   5.911   9.093  0.6641 -1.6306 -2.2879
  581MOL0     H76649  -0.602   5.813   9.243  0.3953 -0.7147  0.5000
  581MOL0     H76650  -0.745   5.822   8.973 -1.5744  1.5703  0.1681
  581MOL0     H76651  -0.775   5.696   9.097  1.5034 -1.2359 -1.7855
  581MOL0     H76652  -0.815   5.999   9.080  1.3032  0.2197 -1.9325
  581MOL0     H76653  -0.828   5.921   9.243  2.4167 -2.3204  0.4151
  581MOL0     H76654  -0.977   6.074   9.280 -2.0206 -0.0762  5.0285
  581MOL0     H76655  -1.181   6.201   9.328 -2.0018 -1.0259  1.5721
  581MOL0     H76656  -1.788   6.065   9.244 -0.0556 -0.5940 -1.6135
  581MOL0     H76657  -1.992   6.200   9.241  1.2674 -0.7409  0.5184
  581MOL0     H76658  -2.037   6.447   9.000 -3.5764  0.9956 -1.0064
  581MOL0     H76659  -1.944   6.590   9.045 -1.6799  2.1422 -0.3494
  581MOL0     H76660  -2.158   6.658   8.985 -3.0901 -5.7898 -2.4375
  581MOL0     H76661  -2.134   6.678   9.169  6.0232  0.5599  0.5584
  581MOL0     H76662  -2.367   6.596   9.127  1.0310  1.6415 -0.9324
  581MOL0     H76663  -2.265   6.468   9.191  1.2935 -1.8186 -1.4509
  581MOL0     H76664  -2.340   6.489   8.896 -0.2844 -2.0927 -0.2145
  581MOL0     H76665  -2.231   6.376   8.967 -0.5266 -1.2340  1.5622
  581MOL0     H76666  -2.486   6.349   9.109  1.1852  0.4583  1.3335
  581MOL0     H76667  -2.376   6.233   9.052 -0.3136  0.7747 -0.7459
  581MOL0     H76668  -2.450   6.257   8.829  0.3124 -0.0722  1.0351
  581MOL0     H76669  -2.546   6.404   8.864 -0.3254  0.2827 -0.2407
  581MOL0     H76670  -2.633   6.122   8.964 -1.7815 -1.1244 -1.7501
  581MOL0     H76671  -2.693   6.269   9.013  3.3829 -0.6987  2.6503
  581MOL0     H76672  -2.856   6.213   8.858  1.1265 -0.7133  4.0119
  581MOL0     H76673  -2.734   6.132   8.761  0.2079 -1.0988  2.9554
  581MOL0     H76674  -1.738   6.547   9.152 -2.0474  1.1879  2.4059
  581MOL0     H76675  -1.538   6.393   9.159  0.4719 -0.3159 -0.2332
  581MOL0     H76676  -1.419   5.935   9.094 -0.7228  2.9755 -1.5656
  581MOL0     H76677  -1.210   5.829   9.016  0.3242  0.5488  0.0387
  581MOL0     H76678   0.275   5.097   9.927  0.2255  0.0708 -1.9431
  581MOL0     H76679   0.516   5.100   9.934  1.1914  0.1263  0.2101
  581MOL0     H76680   0.949   5.247   9.707  1.1822 -2.8442  0.8173
  581MOL0     H76681   1.174   5.346   9.705 -0.0370  1.3164 -0.2227
  581MOL0     H76682   1.286   5.664  10.006 -0.6181  2.0615  0.3283
  581MOL0     H76683   1.228   5.730   9.854  0.9147  1.4625  0.8025
  581MOL0     H76684   1.465   5.663   9.764 -0.6177  0.6283  0.1875
  581MOL0     H76685   1.473   5.784   9.894  0.6084 -0.7756 -0.8639
  581MOL0     H76686   1.492   5.476   9.920 -3.4116  1.6238 -0.9829
  581MOL0     H76687   1.501   5.595  10.052 -0.4795 -2.6483  0.7587
  581MOL0     H76688   1.701   5.693   9.964 -1.0227  1.1291 -1.3433
  581MOL0     H76689   1.715   5.512   9.993 -1.5610 -0.1596 -0.4717
  581MOL0     H76690   1.774   5.503   9.580 -1.2168  0.2510 -1.3229
  581MOL0     H76691   1.057   5.619  10.009 -1.8826  0.7038 -0.1720
  581MOL0     H76692   0.839   5.505  10.024 -3.5523 -3.5363 -1.4672
  582MOL0     O76693   5.229   2.631   8.554 -0.4524 -0.5540  0.7059
  582MOL0     C76694   5.322   2.626   8.635  0.4440  0.3407 -0.6410
  582MOL0     O76695   5.310   2.610   8.769  0.8032 -0.1478  0.2909
  582MOL0     C76696   5.184   2.578   8.809  0.1072  0.8652  0.2767
  582MOL0     C76697   5.137   2.638   8.929  0.2753  0.4105  0.1334
  582MOL0     C76698   5.006   2.615   8.970 -0.3909  0.7141 -0.5935
  582MOL0     C76699   4.927   2.519   8.915 -0.3246  0.6872  0.8649
  582MOL0     O76700   4.806   2.501   8.981 -0.1404  0.5607  0.3498
  582MOL0     C76701   4.773   2.365   9.003  0.4850 -0.3228 -0.4658
  582MOL0     C76702   4.752   2.351   9.152  0.5622  0.7596 -0.0326
  582MOL0     C76703   4.630   2.438   9.190  0.3569 -0.4256 -0.3811
  582MOL0     C76704   4.572   2.399   9.324  0.3231  0.0518 -0.0717
  582MOL0     C76705   4.417   2.443   9.336 -0.2003 -0.1558 -1.1711
  582MOL0     C76706   4.419   2.591   9.373  0.1582 -0.5971  0.4332
  582MOL0     C76707   4.279   2.647   9.401  0.0048  0.1977  0.1961
  582MOL0     C76708   4.183   2.653   9.268 -0.6510  0.0359  0.8751
  582MOL0     N76709   4.050   2.653   9.310 -0.2229  0.0194  0.0223
  582MOL0     C76710   3.984   2.743   9.391 -0.2308 -0.1247 -0.3621
  582MOL0     C76711   3.858   2.693   9.411  0.0813 -0.0458  0.3107
  582MOL0     C76712   3.761   2.753   9.510 -0.8046 -0.5750  0.0662
  582MOL0     C76713   3.620   2.760   9.454 -0.1652 -0.5967 -0.1775
  582MOL0     C76714   3.527   2.773   9.568 -0.1060 -0.0343 -0.4426
  582MOL0     C76715   3.383   2.736   9.528  0.1829  1.1069  0.6592
  582MOL0     O76716   3.347   2.830   9.428  0.4424 -0.2882  0.1760
  582MOL0     C76717   3.214   2.863   9.416 -0.0446 -0.7633 -0.6503
  582MOL0     C76718   3.184   2.991   9.359 -0.0950  0.2759  0.2130
  582MOL0     C76719   3.058   3.047   9.365 -0.0463 -0.4269 -0.2606
  582MOL0     C76720   2.955   2.969   9.425 -0.4015 -0.3277  0.0318
  582MOL0     C76721   2.821   3.032   9.445 -1.2964 -0.4000 -0.0424
  582MOL0     O76722   2.724   2.944   9.469 -0.3725 -0.4173 -0.8367
  582MOL0     C76723   2.603   2.993   9.511 -0.7396 -0.4802 -0.3694
  582MOL0     C76724   2.484   2.997   9.437 -0.0699 -0.4248 -0.1872
  582MOL0     C76725   2.359   3.044   9.492 -0.5827  0.6719 -0.0884
  582MOL0     C76726   2.352   3.100   9.613  0.1722 -0.2175 -0.2869
  582MOL0     O76727   2.233   3.134   9.674  0.1209  0.4413  0.0077
  582MOL0     C76728   2.196   3.054   9.791  0.3784 -0.3077 -0.2001
  582MOL0     C76729   2.045   3.046   9.823  0.8414 -0.3813  1.4778
  582MOL0     C76730   1.963   3.072   9.691  0.5422  0.0327  0.0871
  582MOL0     C76731   1.823   3.014   9.719  0.0081 -0.4998  0.2520
  582MOL0     C76732   1.744   3.013   9.593  0.7521  0.5035  0.4045
  582MOL0     C76733   1.589   2.986   9.617  0.0485  0.0171  0.8867
  582MOL0     C76734   1.518   3.095   9.689  0.9366 -0.2949  0.6975
  582MOL0     C76735   1.381   3.051   9.724 -0.4230 -0.2298  0.5091
  582MOL0    Cl76736   1.365   2.899   9.827 -0.3422  0.1658  0.2973
  582MOL0     C76737   2.474   3.100   9.688  0.3816  0.0278  1.2241
  582MOL0     C76738   2.591   3.047   9.637  0.2717 -0.5206  0.3680
  582MOL0     O76739   2.807   3.156   9.425 -0.2899 -0.0988  0.1656
  582MOL0     C76740   2.985   2.841   9.473  0.3719  0.0973 -0.5691
  582MOL0     C76741   3.114   2.792   9.474 -0.6542 -0.7173  0.2771
  582MOL0     N76742   3.855   2.576   9.343  0.4148 -0.2248  0.0461
  582MOL0     N76743   3.971   2.548   9.286  0.1439  0.6238 -1.2357
  582MOL0     C76744   4.968   2.463   8.792 -0.0930  0.6798  0.4088
  582MOL0     C76745   5.090   2.491   8.742  0.2003  0.4142 -0.2057
  582MOL0     C76746   5.460   2.642   8.579 -0.1088  0.4901 -0.2735
  582MOL0     C76747   5.481   2.652   8.447 -0.3265  0.2166  0.1378
  582MOL0     C76748   5.613   2.656   8.403 -0.0029 -0.2863 -0.6716
  582MOL0     C76749   5.717   2.675   8.492  0.2502 -0.3544  0.0272
  582MOL0     O76750   5.845   2.690   8.446  0.1573  0.2049 -0.3472
  582MOL0     C76751   5.867   2.770   8.322 -0.9166  0.4297 -1.0246
  582MOL0     C76752   6.007   2.821   8.307 -0.6342 -0.5503  0.2479
  582MOL0     C76753   6.099   2.702   8.313 -0.1474 -0.4371 -0.9563
  582MOL0     C76754   6.195   2.683   8.200  0.1783 -0.2032 -1.1049
  582MOL0     C76755   6.328   2.672   8.252 -0.3438 -0.1497 -0.1955
  582MOL0     C76756   6.431   2.652   8.311  0.2224 -0.2234  0.0225
  582MOL0     C76757   5.697   2.672   8.627  0.9064 -0.3317 -0.9797
  582MOL0     C76758   5.563   2.645   8.673  0.0892 -0.4813 -0.0120
  582MOL0     H76759   5.190   2.722   8.974 -1.4052 -0.4781  4.2402
  582MOL0     H76760   4.966   2.672   9.053 -0.1104 -1.4093  1.0799
  582MOL0     H76761   4.838   2.292   8.955 -0.5629 -1.0592 -0.7917
  582MOL0     H76762   4.675   2.339   8.963 -0.1121 -0.4593  1.0273
  582MOL0     H76763   4.834   2.397   9.207  1.4831 -2.3345  1.3434
  582MOL0     H76764   4.749   2.248   9.187  2.2235  0.2256 -1.3546
  582MOL0     H76765   4.551   2.425   9.116  1.3855  0.7488 -1.7438
  582MOL0     H76766   4.661   2.542   9.184 -1.5839  0.1490 -1.1573
  582MOL0     H76767   4.568   2.293   9.352 -3.3729  0.2262  0.5394
  582MOL0     H76768   4.617   2.450   9.410 -2.9104  0.6040  1.4356
  582MOL0     H76769   4.366   2.391   9.417 -0.6280  1.4556 -0.3655
  582MOL0     H76770   4.365   2.415   9.245  0.4628  0.0242 -1.6143
  582MOL0     H76771   4.453   2.650   9.287  0.4907 -1.8688 -0.3207
  582MOL0     H76772   4.482   2.607   9.461 -0.5867 -3.2798  1.5513
  582MOL0     H76773   4.235   2.594   9.486 -0.0139  1.8352  1.2711
  582MOL0     H76774   4.278   2.751   9.435  1.0723  0.5826 -0.8795
  582MOL0     H76775   4.214   2.580   9.193  1.7567  1.8240 -0.0025
  582MOL0     H76776   4.219   2.748   9.228  1.6608 -1.2116 -0.2239
  582MOL0     H76777   4.024   2.831   9.440  0.6090 -1.7412  2.0383
  582MOL0     H76778   3.779   2.853   9.550 -0.3306 -0.6261 -0.0160
  582MOL0     H76779   3.771   2.690   9.599  1.7100  0.1147  0.3428
  582MOL0     H76780   3.597   2.665   9.405 -2.0480 -0.6856  0.8155
  582MOL0     H76781   3.616   2.836   9.376 -1.5238 -2.3428 -1.9206
  582MOL0     H76782   3.559   2.721   9.658  1.0212  1.4076  0.0281
  582MOL0     H76783   3.536   2.877   9.598  0.9194  0.1140 -1.1935
  582MOL0     H76784   3.324   2.736   9.621  0.6690  1.4630  0.9697
  582MOL0     H76785   3.386   2.638   9.480 -1.8935  0.6158  1.4206
  582MOL0     H76786   3.263   3.041   9.303 -0.5307  0.5575 -0.1519
  582MOL0     H76787   3.037   3.147   9.327 -2.5729 -1.0994 -0.8231
  582MOL0     H76788   2.496   2.967   9.333  1.4514  0.3698 -0.2767
  582MOL0     H76789   2.268   3.030   9.433 -0.3830  0.7824 -0.4285
  582MOL0     H76790   2.245   3.080   9.885  0.1601  0.6442 -0.3418
  582MOL0     H76791   2.228   2.951   9.772  1.4734 -0.0333  0.0555
  582MOL0     H76792   2.021   3.130   9.890 -0.6978  1.4033 -1.1206
  582MOL0     H76793   2.013   2.951   9.867 -2.2111  0.0620  0.4489
  582MOL0     H76794   1.997   3.013   9.606 -1.6711  1.0162 -1.5988
  582MOL0     H76795   1.958   3.173   9.648  0.7278  0.2741  0.6087
  582MOL0     H76796   1.838   2.916   9.763  0.8543  0.7165  2.8979
  582MOL0     H76797   1.786   3.078   9.800 -1.5400 -1.6521  0.4896
  582MOL0     H76798   1.788   2.939   9.525 -0.8506  1.3591 -1.7065
  582MOL0     H76799   1.764   3.110   9.546  0.0800  1.1793  1.4798
  582MOL0     H76800   1.587   2.895   9.678 -0.4371  1.5003  3.2095
  582MOL0     H76801   1.538   2.967   9.522  0.1044  1.5337  0.5315
  582MOL0     H76802   1.575   3.128   9.776 -2.9597 -1.7924  4.1590
  582MOL0     H76803   1.502   3.185   9.630  1.0771 -1.7279 -1.6716
  582MOL0     H76804   1.330   3.039   9.628  1.3992  2.6262 -0.9416
  582MOL0     H76805   1.328   3.131   9.776  0.0810  1.9363 -2.0899
  582MOL0     H76806   2.470   3.162   9.777 -0.7615  3.3669 -0.9591
  582MOL0     H76807   2.682   3.065   9.692 -0.3906 -0.7480  1.5666
  582MOL0     H76808   2.901   2.782   9.507  0.3312 -0.8684 -2.2729
  582MOL0     H76809   3.133   2.692   9.513  0.4189 -1.2515 -1.4942
  582MOL0     H76810   4.894   2.397   8.748  1.8990  0.9351 -3.8602
  582MOL0     H76811   5.113   2.438   8.650  0.8122 -0.0366  0.1972
  582MOL0     H76812   5.397   2.661   8.379 -0.3783  0.6533  0.2534
  582MOL0     H76813   5.623   2.648   8.295 -5.7256 -1.1683 -1.4817
  582MOL0     H76814   5.807   2.861   8.318 -0.5959  0.8373  1.6261
  582MOL0     H76815   5.843   2.707   8.236 -0.1260 -0.3662 -0.6820
  582MOL0     H76816   6.006   2.875   8.212  1.1371  1.5472  1.3333
  582MOL0     H76817   6.038   2.892   8.383  1.5867  0.5832 -1.5988
  582MOL0     H76818   6.046   2.608   8.332  0.7627 -0.9120 -0.7121
  582MOL0     H76819   6.156   2.711   8.405  0.7071 -0.7457 -1.4471
  582MOL0     H76820   6.173   2.589   8.149  1.7115 -1.7807  0.9617
  582MOL0     H76821   6.193   2.775   8.140 -0.3785 -0.3650 -1.3384
  582MOL0     H76822   6.521   2.639   8.367  3.2056  3.6616 -3.2281
  582MOL0     H76823   5.774   2.699   8.698  1.0553 -0.5050 -1.0750
  582MOL0     H76824   5.542   2.654   8.779  1.4410 -0.4782  0.2724
  583MOL0     O76825   7.567   4.298  10.021 -0.5151  0.0388  0.4620
  583MOL0     C76826   7.523   4.367  10.122 -0.7943  0.1017  0.7945
  583MOL0     O76827   7.584   4.379  10.247 -0.2341  0.9035  0.1513
  583MOL0     C76828   7.698   4.306  10.268  0.8478 -0.3039 -0.0401
  583MOL0     C76829   7.814   4.366  10.285  0.4059  0.2090  0.4703
  583MOL0     C76830   7.935   4.277  10.307 -0.2435 -1.1041 -0.6603
  583MOL0     C76831   7.918   4.141  10.323  0.0657  0.6407 -0.2245
  583MOL0     O76832   8.030   4.063  10.379 -0.9782 -0.0299  0.0786
  583MOL0     C76833   8.144   4.043  10.290  0.0139 -0.1239  1.4559
  583MOL0     C76834   8.226   3.931  10.340 -0.7182  0.2023  0.2740
  583MOL0     C76835   8.167   3.790  10.321  0.3490  0.1892  0.9672
  583MOL0     C76836   8.144   3.734  10.176  0.0212 -0.5429  0.2904
  583MOL0     C76837   8.120   3.584  10.162  0.0858 -0.1996 -0.6758
  583MOL0     C76838   7.971   3.543  10.164  0.1996 -1.2187  0.5592
  583MOL0     C76839   7.945   3.382  10.173 -0.7215 -0.7355 -0.0690
  583MOL0     C76840   7.955   3.314  10.033 -0.5108 -0.4454 -0.4544
  583MOL0     N76841   7.826   3.329   9.959  0.3183 -0.6757  1.0552
  583MOL0     C76842   7.785   3.442   9.889 -0.4028 -0.4929  0.2289
  583MOL0     C76843   7.657   3.420   9.866  0.0671  0.1392 -0.0130
  583MOL0     C76844   7.554   3.499   9.790  0.0318  0.1795 -0.6635
  583MOL0     C76845   7.503   3.427   9.663 -0.6011  0.5230  0.0738
  583MOL0     C76846   7.403   3.320   9.693 -0.7712  0.3164  0.5133
  583MOL0     C76847   7.279   3.362   9.781  0.0757  0.1312  0.1312
  583MOL0     O76848   7.188   3.439   9.701 -0.3398  0.1146  0.8159
  583MOL0     C76849   7.056   3.449   9.737  0.1622  0.6517 -0.7665
  583MOL0     C76850   7.000   3.442   9.869 -0.0451  0.0131  0.0275
  583MOL0     C76851   6.862   3.453   9.892  0.2934 -0.0433 -0.6197
  583MOL0     C76852   6.774   3.463   9.780  0.0718  0.4869  0.0539
  583MOL0     C76853   6.625   3.459   9.814 -0.5747 -0.5098 -0.0750
  583MOL0     O76854   6.581   3.501   9.935  0.2941  0.1441 -0.5443
  583MOL0     C76855   6.451   3.494   9.971  0.4988 -0.1795 -0.3107
  583MOL0     C76856   6.434   3.475  10.105 -0.2655 -0.7695  0.3897
  583MOL0     C76857   6.310   3.451  10.161  0.4634 -0.0747  0.7400
  583MOL0     C76858   6.190   3.457  10.087 -0.3398 -0.5028  0.7018
  583MOL0     O76859   6.062   3.445  10.134 -0.1438 -0.4587  0.5777
  583MOL0     C76860   6.034   3.498  10.257  0.0438 -0.0789  0.0080
  583MOL0     C76861   5.884   3.488  10.293 -0.0158  0.5955  0.7608
  583MOL0     C76862   5.806   3.581  10.195 -0.0295  0.0959  0.1803
  583MOL0     C76863   5.655   3.596  10.217  1.1403 -0.0020  0.3123
  583MOL0     C76864   5.572   3.479  10.157  0.7789  0.3903 -0.5948
  583MOL0     C76865   5.425   3.467  10.203  0.4066 -0.4628  0.3366
  583MOL0     C76866   5.336   3.554  10.101  0.1032  0.3852  0.2671
  583MOL0     C76867   5.199   3.596  10.166  0.3113  0.3189 -0.8583
  583MOL0    Cl76868   5.097   3.653  10.031  0.0910 -0.2679  0.1431
  583MOL0     C76869   6.205   3.495   9.955 -0.5545  0.1774  0.6214
  583MOL0     C76870   6.330   3.510   9.891  0.1633 -0.3490 -0.9188
  583MOL0     O76871   6.550   3.427   9.724 -0.1529  0.1737  0.1467
  583MOL0     C76872   6.821   3.469   9.645 -0.1150 -0.4790  0.7361
  583MOL0     C76873   6.959   3.472   9.634 -0.0903 -0.2527  0.6466
  583MOL0     N76874   7.615   3.302   9.927  0.5542  0.4764  0.2519
  583MOL0     N76875   7.718   3.243   9.983  0.2011  0.1374  0.4188
  583MOL0     C76876   7.800   4.084  10.279  0.3283  0.6624  0.2714
  583MOL0     C76877   7.690   4.162  10.251  0.5107 -0.2454 -0.7490
  583MOL0     C76878   7.392   4.443  10.111 -0.2838  0.4172  0.3603
  583MOL0     C76879   7.327   4.487  10.226 -0.3445  0.9920  0.2709
  583MOL0     C76880   7.203   4.546  10.207 -0.0184  0.7605  0.8574
  583MOL0     C76881   7.158   4.585  10.077  0.3270  0.1442 -0.9418
  583MOL0     O76882   7.046   4.662  10.056 -0.1234 -0.3298 -0.1253
  583MOL0     C76883   7.067   4.792  10.117  0.0444  0.3774 -0.0193
  583MOL0     C76884   6.971   4.888  10.045 -0.4607 -0.0571 -0.4711
  583MOL0     C76885   6.833   4.891  10.111 -0.1811 -0.1143  0.4294
  583MOL0     C76886   6.746   4.976  10.018  0.0561 -0.5851 -0.7792
  583MOL0     C76887   6.764   5.122  10.042 -0.3167 -0.6876 -0.3196
  583MOL0     C76888   6.776   5.246  10.058  0.0069  0.5539 -0.0045
  583MOL0     C76889   7.226   4.542   9.962  0.7465 -0.2885 -1.1695
  583MOL0     C76890   7.338   4.460   9.983 -0.3501 -1.0164  0.6536
  583MOL0     H76891   7.829   4.473  10.278  2.5355 -0.1621 -2.0997
  583MOL0     H76892   8.033   4.320  10.325 -0.7121 -0.2137 -0.1399
  583MOL0     H76893   8.192   4.141  10.287  0.4427 -0.3459  1.0559
  583MOL0     H76894   8.111   4.011  10.191  0.5278  1.3657  0.7828
  583MOL0     H76895   8.249   3.941  10.447  1.7153 -0.2529 -0.1361
  583MOL0     H76896   8.326   3.943  10.296  0.1399 -0.0883  2.0215
  583MOL0     H76897   8.067   3.792  10.366 -0.5764 -1.2122 -0.8275
  583MOL0     H76898   8.228   3.715  10.372  2.1500  1.8897  1.4126
  583MOL0     H76899   8.063   3.786  10.124  1.0205  1.1619  0.3777
  583MOL0     H76900   8.240   3.753  10.128  0.2330 -0.2476  0.8215
  583MOL0     H76901   8.178   3.525  10.234  0.8034 -1.2236 -2.0539
  583MOL0     H76902   8.165   3.566  10.064 -0.5142  0.5899 -1.1039
  583MOL0     H76903   7.909   3.599  10.094  0.0846 -0.5286  1.2039
  583MOL0     H76904   7.931   3.592  10.253 -1.9520 -2.0983  0.1412
  583MOL0     H76905   8.016   3.335  10.241  0.9422 -0.8446 -1.8102
  583MOL0     H76906   7.844   3.360  10.209 -1.3821 -0.9296 -1.9349
  583MOL0     H76907   7.972   3.207  10.047  0.6756 -0.2564 -0.3076
  583MOL0     H76908   8.033   3.343   9.962 -0.9695  1.8498 -0.0926
  583MOL0     H76909   7.850   3.527   9.870 -0.7474 -0.2607  0.0911
  583MOL0     H76910   7.591   3.600   9.769  1.3112 -0.4393 -1.5356
  583MOL0     H76911   7.472   3.516   9.860 -1.0920  0.3182 -1.9775
  583MOL0     H76912   7.585   3.378   9.610 -0.1891  2.4503 -1.1528
  583MOL0     H76913   7.455   3.500   9.597 -2.3110 -0.3694  0.2530
  583MOL0     H76914   7.366   3.290   9.594  0.2889  3.3380 -0.8943
  583MOL0     H76915   7.453   3.234   9.738  2.5094  1.0669 -1.4186
  583MOL0     H76916   7.301   3.423   9.869 -0.6410  4.5430 -2.4672
  583MOL0     H76917   7.232   3.272   9.820  0.5444 -1.4028 -2.5723
  583MOL0     H76918   7.068   3.423   9.952 -1.5161  0.6067  1.4173
  583MOL0     H76919   6.825   3.445   9.994  2.3036 -1.8248  0.0679
  583MOL0     H76920   6.516   3.477  10.176 -1.8426  0.2480  2.2640
  583MOL0     H76921   6.306   3.423  10.266  0.2969 -1.7229  0.3319
  583MOL0     H76922   6.061   3.605  10.260 -2.0725  0.6034 -2.2036
  583MOL0     H76923   6.093   3.445  10.332  0.8134 -1.2257 -1.3727
  583MOL0     H76924   5.877   3.525  10.396  0.2698 -0.4644  1.1665
  583MOL0     H76925   5.849   3.385  10.289  1.3565  0.1206  0.5404
  583MOL0     H76926   5.834   3.534  10.100  0.9624 -1.9039  1.3975
  583MOL0     H76927   5.846   3.683  10.194  2.9566 -0.9563  1.7351
  583MOL0     H76928   5.621   3.607  10.320  0.8072  0.1061  0.1928
  583MOL0     H76929   5.619   3.682  10.159  2.5086 -0.3454 -1.1165
  583MOL0     H76930   5.618   3.382  10.177 -0.4867  0.0235  0.7196
  583MOL0     H76931   5.577   3.480  10.047 -2.1508  1.0356 -0.7948
  583MOL0     H76932   5.417   3.514  10.301 -0.4221 -2.0786  1.0759
  583MOL0     H76933   5.381   3.367  10.202  0.2275 -0.3940 -1.0927
  583MOL0     H76934   5.393   3.645  10.081  1.2879 -0.0301  1.5709
  583MOL0     H76935   5.322   3.503  10.005 -0.9428 -2.6833  1.9071
  583MOL0     H76936   5.210   3.675  10.240  0.5422 -1.8856  1.6122
  583MOL0     H76937   5.158   3.510  10.220  0.0990  0.9044 -0.0772
  583MOL0     H76938   6.111   3.516   9.907 -0.6153  2.0889  1.4820
  583MOL0     H76939   6.336   3.537   9.786 -1.5051 -2.3692 -1.6063
  583MOL0     H76940   6.757   3.491   9.560 -1.0225 -0.6755  1.3465
  583MOL0     H76941   7.009   3.480   9.537 -0.2040  2.1450  0.7089
  583MOL0     H76942   7.800   3.976  10.266  3.9647  0.3114  1.9171
  583MOL0     H76943   7.594   4.114  10.235 -0.7895  1.7724  0.5566
  583MOL0     H76944   7.373   4.457  10.319  0.7012  0.3546 -0.4304
  583MOL0     H76945   7.145   4.573  10.295 -0.8839 -1.0209  0.8727
  583MOL0     H76946   7.173   4.818  10.113 -0.1481  1.0134 -3.0209
  583MOL0     H76947   7.038   4.782  10.222 -2.0337 -2.0377 -0.7078
  583MOL0     H76948   7.026   4.982  10.061  1.0520 -0.5810 -2.2354
  583MOL0     H76949   6.969   4.874   9.937 -0.6230 -0.3238 -0.4346
  583MOL0     H76950   6.827   4.927  10.214  0.1129  0.4989  0.2411
  583MOL0     H76951   6.796   4.788  10.110  1.2344 -0.6969  2.1963
  583MOL0     H76952   6.766   4.960   9.911 -0.4771  1.1411 -1.1798
  583MOL0     H76953   6.642   4.958  10.043  0.7527 -2.6413  0.8293
  583MOL0     H76954   6.799   5.349  10.076  1.6613  0.3340 -0.6942
  583MOL0     H76955   7.184   4.575   9.867  1.2247  0.3927 -1.1477
  583MOL0     H76956   7.387   4.405   9.903 -1.5211  0.0245 -0.8206
  584MOL0     O76957  11.070   4.359   9.207 -0.0653  0.3171  0.2451
  584MOL0     C76958  11.100   4.436   9.118 -0.0232  0.7362  0.1857
  584MOL0     O76959  11.010   4.521   9.064  0.2999  0.6368 -0.0670
  584MOL0     C76960  10.883   4.532   9.116  0.3717 -0.4224 -0.3096
  584MOL0     C76961  10.863   4.654   9.179  0.2533 -1.2229  0.4680
  584MOL0     C76962  10.731   4.699   9.223  0.5398  0.3288  1.0229
  584MOL0     C76963  10.621   4.608   9.219  0.0123 -0.4335  0.0875
  584MOL0     O76964  10.499   4.656   9.252  0.0095  0.6855  0.2829
  584MOL0     C76965  10.383   4.581   9.234  0.4057 -0.2758 -0.0136
  584MOL0     C76966  10.257   4.660   9.279 -0.4430  0.4096 -1.0644
  584MOL0     C76967  10.248   4.655   9.433 -0.1310  0.1067 -0.3054
  584MOL0     C76968  10.106   4.706   9.465  0.0593 -0.4817  0.0029
  584MOL0     C76969  10.089   4.730   9.613 -0.8521  0.7007 -0.3434
  584MOL0     C76970   9.943   4.764   9.651 -0.0874 -0.3918  0.2874
  584MOL0     C76971   9.920   4.761   9.803  0.3824 -0.0563 -0.1964
  584MOL0     C76972   9.773   4.767   9.826  0.7593 -0.1627 -0.0193
  584MOL0     N76973   9.735   4.775   9.970 -0.4545  0.3114 -0.5108
  584MOL0     C76974   9.808   4.837  10.076  0.6536  0.2555  0.0169
  584MOL0     C76975   9.757   4.778  10.190 -0.9712  0.1731 -0.2447
  584MOL0     C76976   9.793   4.815  10.325  0.2883 -0.8066 -0.4331
  584MOL0     C76977   9.760   4.964  10.366 -0.0054  0.7561  0.0187
  584MOL0     C76978   9.623   5.016  10.349  0.9343  0.7314 -0.4677
  584MOL0     C76979   9.538   4.939  10.458  0.0298 -0.2951  0.0539
  584MOL0     O76980   9.412   5.009  10.475  0.3883 -0.2095  0.2606
  584MOL0     C76981   9.308   4.935  10.531  0.1339  0.7311 -0.6201
  584MOL0     C76982   9.188   5.002  10.549  0.8116  0.6474  1.0825
  584MOL0     C76983   9.069   4.938  10.602  0.7511 -0.1597 -0.0391
  584MOL0     C76984   9.075   4.809  10.652  0.6013 -0.3228 -0.1665
  584MOL0     C76985   8.960   4.756  10.724 -0.0801 -0.2054  0.0974
  584MOL0     O76986   8.859   4.847  10.741 -0.2356  0.3856 -0.3407
  584MOL0     C76987   8.742   4.806  10.801 -0.4932  0.6254  0.2507
  584MOL0     C76988   8.732   4.785  10.942 -0.5814 -0.1857  0.6256
  584MOL0     C76989   8.603   4.750  10.996  0.4657  0.2404 -0.3569
  584MOL0     C76990   8.494   4.720  10.910 -0.2348 -0.6878 -0.0728
  584MOL0     O76991   8.370   4.692  10.956  0.1206 -0.7105  0.8841
  584MOL0     C76992   8.351   4.604  11.076 -0.9069 -0.3398 -0.1204
  584MOL0     C76993   8.216   4.567  11.086 -0.2774  0.7749 -0.4210
  584MOL0     C76994   8.193   4.486  11.215  1.1408 -1.3811  0.1547
  584MOL0     C76995   8.046   4.469  11.253 -0.4349  0.0905  0.4592
  584MOL0     C76996   8.020   4.366  11.367 -0.3858 -0.1327  0.1396
  584MOL0     C76997   7.870   4.327  11.359 -0.6272  0.5717 -0.8208
  584MOL0     C76998   7.847   4.198  11.443  0.5379  1.5084  0.1587
  584MOL0     C76999   7.706   4.157  11.456  0.6425  0.9277 -0.3704
  584MOL0    Cl77000   7.658   4.185  11.623  0.0088 -0.0598  0.4665
  584MOL0     C77001   8.505   4.743  10.767 -0.0062  1.1912 -0.3396
  584MOL0     C77002   8.626   4.793  10.718 -0.2364 -0.7868  0.2668
  584MOL0     O77003   8.965   4.638  10.758  0.4056  0.8993 -0.1807
  584MOL0     C77004   9.196   4.739  10.622  0.0159 -0.3843 -0.0839
  584MOL0     C77005   9.313   4.802  10.567  0.3240  0.9975 -0.0809
  584MOL0     N77006   9.658   4.683  10.145 -0.0319  0.9863 -0.5828
  584MOL0     N77007   9.645   4.686  10.021  0.7252  0.8121 -0.0629
  584MOL0     C77008  10.643   4.493   9.148 -0.1689 -0.2627 -0.1930
  584MOL0     C77009  10.769   4.450   9.105 -0.7140 -0.1443  0.5455
  584MOL0     C77010  11.239   4.424   9.072 -0.8863 -0.5745  1.0943
  584MOL0     C77011  11.280   4.516   8.975 -0.9285 -0.2302 -0.2841
  584MOL0     C77012  11.416   4.509   8.922 -0.3446  0.2694 -0.0166
  584MOL0     C77013  11.501   4.398   8.949 -0.0219  0.3583  0.5975
  584MOL0     O77014  11.626   4.405   8.898 -0.6832  0.6130 -1.0304
  584MOL0     C77015  11.699   4.285   8.872  1.4110 -0.1284 -0.1654
  584MOL0     C77016  11.652   4.254   8.737  0.5024  0.3444  0.5820
  584MOL0     C77017  11.703   4.345   8.630 -0.8945 -0.7428  0.0972
  584MOL0     C77018  11.634   4.322   8.497  0.1266  0.2808 -0.2639
  584MOL0     C77019  11.686   4.402   8.378  0.5243 -0.4372 -0.2824
  584MOL0     C77020  11.729   4.484   8.298 -0.1288  0.3462  0.1076
  584MOL0     C77021  11.451   4.299   9.025  0.7900  1.0075 -0.0093
  584MOL0     C77022  11.325   4.312   9.090 -0.1457  0.9233 -0.7002
  584MOL0     H77023  10.945   4.724   9.194 -0.6907 -0.5141  2.8339
  584MOL0     H77024  10.722   4.799   9.265 -2.4099 -0.4495  2.4907
  584MOL0     H77025  10.392   4.481   9.276  1.7732 -0.5033 -0.7708
  584MOL0     H77026  10.377   4.562   9.127  0.1307  3.1205 -0.7087
  584MOL0     H77027  10.166   4.610   9.245  0.2885 -1.8592  0.0461
  584MOL0     H77028  10.258   4.760   9.235 -1.4452  0.2713 -1.4296
  584MOL0     H77029  10.324   4.724   9.471 -2.2210  2.1520  0.3875
  584MOL0     H77030  10.260   4.554   9.471 -0.0840 -0.4737 -1.7737
  584MOL0     H77031  10.091   4.795   9.403  1.6671 -1.0210 -1.2528
  584MOL0     H77032  10.034   4.631   9.433  0.9523 -1.8360  1.0654
  584MOL0     H77033  10.170   4.800   9.638 -0.3198  0.9480 -2.5673
  584MOL0     H77034  10.107   4.636   9.667 -0.2688  1.7150  1.3062
  584MOL0     H77035   9.880   4.683   9.614  0.8635 -3.0269  3.9069
  584MOL0     H77036   9.911   4.858   9.604  2.4102 -0.4234 -1.7030
  584MOL0     H77037   9.961   4.671   9.852  0.1338  0.2108  0.5119
  584MOL0     H77038   9.960   4.857   9.835 -2.7608  1.9513 -1.8877
  584MOL0     H77039   9.717   4.682   9.785  0.2226  0.9539 -1.7286
  584MOL0     H77040   9.723   4.846   9.768  0.9369 -0.1411 -0.1449
  584MOL0     H77041   9.885   4.912  10.062  1.8050 -1.1825 -1.7957
  584MOL0     H77042   9.897   4.788  10.346  0.1095  0.6797  3.0313
  584MOL0     H77043   9.731   4.754  10.392 -0.2786  0.1264 -0.0850
  584MOL0     H77044   9.826   5.029  10.307  2.6522 -0.8019  1.1254
  584MOL0     H77045   9.792   4.978  10.469  2.8435  0.1211 -0.6970
  584MOL0     H77046   9.606   5.124  10.357 -4.0934  0.2564 -1.1633
  584MOL0     H77047   9.593   5.003  10.245 -0.1335  3.4941 -0.5752
  584MOL0     H77048   9.595   4.937  10.551  2.1515 -2.0731 -1.1958
  584MOL0     H77049   9.533   4.841  10.410 -4.3872  1.0231 -2.8415
  584MOL0     H77050   9.188   5.109  10.527 -2.6358  0.7810  1.2035
  584MOL0     H77051   8.972   4.987  10.599  1.0428  0.3995 -2.2378
  584MOL0     H77052   8.813   4.811  11.009 -0.0839  1.7594 -0.6471
  584MOL0     H77053   8.593   4.734  11.102 -1.1229 -0.4000 -0.5795
  584MOL0     H77054   8.373   4.665  11.164 -1.4430 -0.1243 -0.1316
  584MOL0     H77055   8.419   4.519  11.069 -2.1346 -1.2965 -0.7052
  584MOL0     H77056   8.181   4.509  10.999  1.5128  0.1641 -0.7812
  584MOL0     H77057   8.152   4.654  11.098  0.0080  1.3532 -2.5601
  584MOL0     H77058   8.247   4.543  11.291 -1.3867 -0.2062  1.1580
  584MOL0     H77059   8.239   4.391  11.186  2.0474 -0.7658 -0.4789
  584MOL0     H77060   8.020   4.573  11.278  2.6629  0.5840  2.0236
  584MOL0     H77061   7.998   4.438  11.159  1.6696  1.5632 -1.2085
  584MOL0     H77062   8.039   4.400  11.469 -1.9049 -1.3902  0.8836
  584MOL0     H77063   8.086   4.283  11.339 -0.5593 -0.3945  0.5073
  584MOL0     H77064   7.852   4.301  11.254  3.3084  1.2339 -1.8115
  584MOL0     H77065   7.805   4.412  11.383  0.0799  0.5973  1.1675
  584MOL0     H77066   7.896   4.111  11.398  0.9326  1.5836  0.4355
  584MOL0     H77067   7.881   4.217  11.545  0.3399 -0.0770  0.5333
  584MOL0     H77068   7.699   4.050  11.433  2.1660  0.5082  0.9841
  584MOL0     H77069   7.641   4.220  11.394 -2.6540 -0.1028  1.7972
  584MOL0     H77070   8.409   4.740  10.716 -0.0868 -0.0920 -0.1277
  584MOL0     H77071   8.649   4.812  10.613 -1.1681 -2.5893 -0.2936
  584MOL0     H77072   9.203   4.637  10.658 -1.6710 -1.7352 -3.1646
  584MOL0     H77073   9.395   4.734  10.550 -0.2511 -0.7201  3.1907
  584MOL0     H77074  10.569   4.415   9.135  1.3567 -2.0406  1.3372
  584MOL0     H77075  10.771   4.354   9.055  0.1747  0.1211  0.0451
  584MOL0     H77076  11.227   4.610   8.959 -2.5557 -0.9802  0.4432
  584MOL0     H77077  11.462   4.590   8.866  0.4872  0.7514  1.3211
  584MOL0     H77078  11.686   4.201   8.940 -0.5708 -2.4008 -3.0667
  584MOL0     H77079  11.806   4.310   8.875  0.6981  3.4949  1.4935
  584MOL0     H77080  11.690   4.154   8.715 -0.9452 -0.1382  0.1628
  584MOL0     H77081  11.543   4.256   8.735  0.4771  2.7342 -1.3796
  584MOL0     H77082  11.809   4.321   8.617 -0.7441 -0.5449  0.8960
  584MOL0     H77083  11.709   4.449   8.663 -0.4766 -0.6178 -0.3625
  584MOL0     H77084  11.651   4.216   8.476 -2.9112 -0.1721 -0.9818
  584MOL0     H77085  11.526   4.341   8.496 -0.2317 -1.5737 -0.6066
  584MOL0     H77086  11.755   4.563   8.230  0.4057  1.0975  1.1697
  584MOL0     H77087  11.499   4.207   9.056 -0.5826 -0.2395 -1.4078
  584MOL0     H77088  11.298   4.232   9.158  0.0055  3.1247  2.1356
  585MOL0     O77089   6.960   8.150   0.570  0.0324 -0.3259 -0.6301
  585MOL0     C77090   7.005   8.086   0.479 -0.4155 -0.2591  0.4737
  585MOL0     O77091   6.948   8.058   0.359  0.4271 -0.2504  0.3568
  585MOL0     C77092   6.826   8.109   0.317 -0.4135  0.0074  1.3490
  585MOL0     C77093   6.787   8.235   0.358  0.4853  0.7320 -0.5790
  585MOL0     C77094   6.660   8.281   0.340  0.1229 -0.5790 -0.0947
  585MOL0     C77095   6.570   8.212   0.263  1.1345 -0.3290 -0.1671
  585MOL0     O77096   6.454   8.287   0.218  0.0302  0.2256  0.3762
  585MOL0     C77097   6.451   8.312   0.081  0.1910  0.2783  0.9245
  585MOL0     C77098   6.339   8.226   0.014  0.0802  0.5029 -0.2502
  585MOL0     C77099   6.203   8.245   0.080  0.0689  0.2847 -0.3707
  585MOL0     C77100   6.101   8.159   0.009 -0.4076  0.0516 -0.3138
  585MOL0     C77101   5.964   8.156   0.068  0.3292 -0.3549 -0.0404
  585MOL0     C77102   5.885   8.290   0.030 -0.3326  0.4730  1.0545
  585MOL0     C77103   5.734   8.268   0.038  0.0581 -0.5007 -0.0461
  585MOL0     C77104   5.660   8.402   0.029  0.3289  0.2941 -0.1116
  585MOL0     N77105   5.520   8.387   0.026  0.0988 -0.4509 -0.1934
  585MOL0     C77106   5.437   8.421   0.125 -0.1022  0.3423  0.1235
  585MOL0     C77107   5.321   8.398   0.064  1.0256  0.3524 -0.3192
  585MOL0     C77108   5.191   8.408   0.139 -0.1402  0.6215 -0.3956
  585MOL0     C77109   5.074   8.318   0.101 -0.8448  0.1985 -0.5766
  585MOL0     C77110   4.951   8.344   0.178  0.4683 -0.8168  0.3914
  585MOL0     C77111   4.820   8.282   0.135  0.3391 -0.2299  0.2921
  585MOL0     O77112   4.838   8.142   0.138  0.4075  1.1127 -0.0677
  585MOL0     C77113   4.731   8.062   0.117  0.3017  0.6388  0.3498
  585MOL0     C77114   4.606   8.120   0.093  0.4213  0.1019 -0.5046
  585MOL0     C77115   4.496   8.039   0.075  0.3824  0.1348  0.1912
  585MOL0     C77116   4.510   7.897   0.079 -0.0212 -0.4612  0.1662
  585MOL0     C77117   4.392   7.811   0.061  0.0554  0.0798  0.8492
  585MOL0     O77118   4.282   7.876   0.091 -0.1602 -0.6759  0.0098
  585MOL0     C77119   4.167   7.815   0.056 -0.6352  0.1236 -0.1676
  585MOL0     C77120   4.106   7.727   0.151 -0.6933  0.1377  0.6616
  585MOL0     C77121   4.006   7.643   0.103  0.8976 -0.8260 -0.6277
  585MOL0     C77122   3.960   7.648  -0.027 -0.6752  0.2681  0.0650
  585MOL0     O77123   3.883   7.551  -0.088 -0.4834  0.5767  0.1514
  585MOL0     C77124   3.806   7.450  -0.012  0.3206 -0.5534  0.6302
  585MOL0     C77125   3.872   7.314   0.016  0.5562  0.8520  0.1223
  585MOL0     C77126   3.949   7.251  -0.099 -0.7085  0.4295  0.7287
  585MOL0     C77127   4.017   7.126  -0.057  0.4585  1.1695  0.3721
  585MOL0     C77128   4.152   7.142  -0.000 -0.2735  0.1471 -0.4220
  585MOL0     C77129   4.203   7.019   0.078 -0.0624  0.8669  0.1762
  585MOL0     C77130   4.198   6.886  -0.009  0.3035 -0.7859 -0.8028
  585MOL0     C77131   4.218   6.772   0.083  0.3715  0.3608 -0.2418
  585MOL0    Cl77132   4.372   6.768   0.169 -0.2021  0.1200 -0.2043
  585MOL0     C77133   4.011   7.747  -0.115 -0.5964 -0.1793 -1.1206
  585MOL0     C77134   4.113   7.831  -0.072  0.5952  1.1031  1.1551
  585MOL0     O77135   4.401   7.696   0.023 -0.3189  0.5254 -0.4367
  585MOL0     C77136   4.636   7.835   0.096  0.3996  0.4747  0.7465
  585MOL0     C77137   4.744   7.919   0.117 -0.5736  0.1035  0.2472
  585MOL0     N77138   5.336   8.375  -0.068 -0.0684  0.2209  1.1045
  585MOL0     N77139   5.459   8.365  -0.087  0.9670  0.1588  0.2694
  585MOL0     C77140   6.609   8.079   0.216  0.3463 -0.2540 -0.2405
  585MOL0     C77141   6.734   8.034   0.246 -0.1192 -0.1781  0.0567
  585MOL0     C77142   7.131   8.017   0.498 -0.5200  0.1124  0.1764
  585MOL0     C77143   7.167   7.944   0.618 -0.4967 -0.8369 -0.0614
  585MOL0     C77144   7.282   7.872   0.621 -0.3190 -0.0596  0.9913
  585MOL0     C77145   7.377   7.883   0.515 -0.2797 -0.8476 -0.9513
  585MOL0     O77146   7.508   7.834   0.526  0.3884  0.0593  0.6468
  585MOL0     C77147   7.559   7.770   0.646  0.8225 -0.0896 -0.5515
  585MOL0     C77148   7.703   7.715   0.636 -0.4276  0.2583  1.1193
  585MOL0     C77149   7.713   7.612   0.521  0.5362 -0.6887 -0.1465
  585MOL0     C77150   7.836   7.527   0.549 -0.3624  0.2929 -0.4023
  585MOL0     C77151   7.843   7.402   0.460 -0.1178 -0.6017 -0.6914
  585MOL0     C77152   7.870   7.307   0.389  0.0076  0.2584 -0.2440
  585MOL0     C77153   7.345   7.958   0.399  0.3476  0.5205  0.4235
  585MOL0     C77154   7.216   8.019   0.385 -0.2311 -1.3145 -0.2326
  585MOL0     H77155   6.860   8.296   0.411  0.6498  0.9805 -1.0784
  585MOL0     H77156   6.632   8.377   0.382  1.8504  0.8814 -2.0498
  585MOL0     H77157   6.553   8.295   0.047  1.3403  3.8954  2.1677
  585MOL0     H77158   6.438   8.419   0.062  3.6495  0.4109 -1.7150
  585MOL0     H77159   6.375   8.123   0.007  4.8965  2.0246 -2.7958
  585MOL0     H77160   6.330   8.259  -0.089 -0.1691 -0.4871 -0.5579
  585MOL0     H77161   6.177   8.351   0.077  2.3496  0.9749  1.4249
  585MOL0     H77162   6.198   8.222   0.187 -0.2611  2.9320  0.2489
  585MOL0     H77163   6.100   8.188  -0.096 -0.5695 -2.8111 -1.1922
  585MOL0     H77164   6.134   8.055   0.023 -0.7948 -0.0158  0.1489
  585MOL0     H77165   5.956   8.162   0.176 -0.3602  2.4728 -0.1793
  585MOL0     H77166   5.899   8.075   0.034 -3.2398  1.5855  1.6313
  585MOL0     H77167   5.905   8.326  -0.071 -1.1754 -1.2042  0.2515
  585MOL0     H77168   5.906   8.367   0.104 -0.1102  1.9095 -0.4588
  585MOL0     H77169   5.717   8.203  -0.048  1.9196 -1.1551  0.0544
  585MOL0     H77170   5.717   8.217   0.134 -2.6450 -2.7034 -1.5402
  585MOL0     H77171   5.675   8.437  -0.073  0.0696 -4.1224 -1.8760
  585MOL0     H77172   5.701   8.482   0.092  0.8928  1.4868 -1.9098
  585MOL0     H77173   5.461   8.449   0.228 -2.8826  1.8559  0.4436
  585MOL0     H77174   5.157   8.510   0.117  2.5577  1.1014 -3.1403
  585MOL0     H77175   5.212   8.402   0.246 -1.2009 -0.1255 -0.2103
  585MOL0     H77176   5.103   8.212   0.103 -3.0146 -0.4551  1.4813
  585MOL0     H77177   5.054   8.336  -0.005  2.4169 -1.3860 -1.5981
  585MOL0     H77178   4.968   8.333   0.285 -3.1754 -0.7226  1.1143
  585MOL0     H77179   4.934   8.452   0.180 -1.0826 -0.9904  3.5920
  585MOL0     H77180   4.796   8.315   0.034 -0.4610  0.5058  0.7070
  585MOL0     H77181   4.741   8.315   0.203 -1.3744  0.1586 -1.7866
  585MOL0     H77182   4.571   8.223   0.084 -4.3251 -1.1871  0.1739
  585MOL0     H77183   4.397   8.068   0.043  0.0980 -3.2102 -2.4968
  585MOL0     H77184   4.149   7.723   0.250 -0.3992  1.1259  0.5851
  585MOL0     H77185   3.963   7.566   0.166 -3.6802 -1.3373 -3.8668
  585MOL0     H77186   3.713   7.423  -0.064  1.3405 -0.7181 -1.1879
  585MOL0     H77187   3.767   7.499   0.077  0.2834 -3.4669  2.3508
  585MOL0     H77188   3.791   7.253   0.057  1.1232  0.7474  1.1401
  585MOL0     H77189   3.942   7.326   0.099 -1.0298  0.0170  1.6571
  585MOL0     H77190   4.030   7.317  -0.130  0.4036 -2.0325 -1.9761
  585MOL0     H77191   3.877   7.223  -0.176 -1.7671 -2.2889  2.5409
  585MOL0     H77192   3.960   7.081   0.025 -0.0162  1.7613  0.3701
  585MOL0     H77193   4.013   7.053  -0.139 -0.1535  1.6906 -0.0720
  585MOL0     H77194   4.166   7.230   0.063  3.9527 -2.4133  2.7378
  585MOL0     H77195   4.226   7.162  -0.079 -0.0139  0.1201 -0.1898
  585MOL0     H77196   4.135   7.002   0.162 -0.0493  0.2801  0.0695
  585MOL0     H77197   4.304   7.039   0.114 -0.0603  0.5148  0.3668
  585MOL0     H77198   4.102   6.871  -0.060 -0.2864  0.5913 -0.1540
  585MOL0     H77199   4.285   6.896  -0.074  1.1172 -1.0208  0.2257
  585MOL0     H77200   4.201   6.685   0.017 -2.5319  0.7184 -0.1020
  585MOL0     H77201   4.140   6.774   0.160  0.1014  0.5094 -0.5174
  585MOL0     H77202   3.968   7.749  -0.214 -0.3039  0.1067 -1.2407
  585MOL0     H77203   4.160   7.901  -0.141 -1.5991 -1.2872 -3.1873
  585MOL0     H77204   4.635   7.727   0.095 -5.1353  0.1306  3.2844
  585MOL0     H77205   4.839   7.875   0.144 -0.4110  0.5537  0.4155
  585MOL0     H77206   6.541   8.024   0.152 -2.8802  1.0698  1.7701
  585MOL0     H77207   6.766   7.933   0.220  4.7620  1.3768 -1.0066
  585MOL0     H77208   7.093   7.941   0.696 -1.3911  0.8498 -0.7903
  585MOL0     H77209   7.318   7.822   0.710 -0.2930 -1.1015  0.4031
  585MOL0     H77210   7.489   7.688   0.664  1.2171  0.4032  4.7994
  585MOL0     H77211   7.556   7.838   0.731 -3.7933 -0.6385 -0.0198
  585MOL0     H77212   7.781   7.791   0.623  1.1625 -1.6857 -1.7696
  585MOL0     H77213   7.719   7.668   0.733 -2.9347 -1.9131  0.5948
  585MOL0     H77214   7.727   7.651   0.419 -0.5835  0.9257  0.2750
  585MOL0     H77215   7.624   7.549   0.528  2.2423 -3.0382  2.4391
  585MOL0     H77216   7.929   7.584   0.543  1.4219 -2.1803  1.5263
  585MOL0     H77217   7.839   7.492   0.652 -0.7321  2.4708  0.3879
  585MOL0     H77218   7.892   7.231   0.317  0.9239  1.2096 -1.0035
  585MOL0     H77219   7.425   7.964   0.326 -0.9844 -1.6683 -1.3084
  585MOL0     H77220   7.187   8.067   0.293 -1.3568 -1.4230  0.0476
  586MOL0     O77221   4.653  10.042   6.991  0.1053  0.2598 -0.2888
  586MOL0     C77222   4.644  10.148   6.933  0.3773 -1.0971 -0.4983
  586MOL0     O77223   4.529  10.209   6.888  0.3793  0.0636  0.1629
  586MOL0     C77224   4.404  10.177   6.929  0.0997  0.4946  0.6826
  586MOL0     C77225   4.372  10.130   7.049  0.1459 -0.2331 -0.1036
  586MOL0     C77226   4.237  10.117   7.082  1.0392 -0.6457  0.7881
  586MOL0     C77227   4.143  10.131   6.986  0.2185 -0.8893 -0.7986
  586MOL0     O77228   4.012  10.103   7.017 -0.8828  0.8580  0.9491
  586MOL0     C77229   3.903  10.154   6.942 -0.0350 -0.8926 -0.2229
  586MOL0     C77230   3.779  10.161   7.032 -1.5052  0.0638 -0.3612
  586MOL0     C77231   3.710  10.021   7.045 -0.3525  0.6629  0.2731
  586MOL0     C77232   3.569  10.029   7.115  0.0807 -1.2832  0.4986
  586MOL0     C77233   3.502   9.895   7.143  0.2194  0.6995  0.4332
  586MOL0     C77234   3.532   9.778   7.043 -0.0125  0.1296 -0.1091
  586MOL0     C77235   3.437   9.657   7.074 -0.3555  0.1949 -0.0916
  586MOL0     C77236   3.322   9.633   6.973  0.6457  0.3775  0.2377
  586MOL0     N77237   3.225   9.746   6.984 -0.0006 -0.2430 -0.0657
  586MOL0     C77238   3.200   9.841   6.886  0.0601  0.1520 -0.3343
  586MOL0     C77239   3.102   9.918   6.939  0.0894 -0.6346 -1.2628
  586MOL0     C77240   3.030  10.043   6.888  0.0993  0.6411  0.6241
  586MOL0     C77241   2.876  10.035   6.879  0.9647  0.4298  0.0741
  586MOL0     C77242   2.809  10.072   7.006  1.0398  0.7931 -0.0459
  586MOL0     C77243   2.661  10.021   7.005  1.0535 -0.8720 -0.2347
  586MOL0     O77244   2.583  10.079   6.906  0.2950 -0.3557  0.1122
  586MOL0     C77245   2.447  10.053   6.901  0.1961 -0.2163 -0.6195
  586MOL0     C77246   2.370  10.115   6.809  0.2280 -0.3804  0.0323
  586MOL0     C77247   2.234  10.083   6.788  0.7736  0.9712  0.2250
  586MOL0     C77248   2.172   9.983   6.878  0.1169  0.3410 -0.6959
  586MOL0     C77249   2.032   9.933   6.860 -0.6469 -0.8382 -0.3146
  586MOL0     O77250   1.952   9.981   6.755 -0.4400 -0.0729  0.2181
  586MOL0     C77251   1.826   9.934   6.761  0.6235 -0.4284  0.1768
  586MOL0     C77252   1.786   9.827   6.682  0.0970  0.2820 -0.6127
  586MOL0     C77253   1.666   9.773   6.688  0.4058 -0.6286  0.8381
  586MOL0     C77254   1.566   9.824   6.776 -0.3561 -0.4221  0.3022
  586MOL0     O77255   1.436   9.775   6.780  0.2784 -0.2483  0.0441
  586MOL0     C77256   1.383   9.689   6.681  1.0436 -0.9323  0.3518
  586MOL0     C77257   1.408   9.547   6.714  0.0943  0.7453 -0.0853
  586MOL0     C77258   1.348   9.450   6.605 -0.2838 -0.8750 -1.4952
  586MOL0     C77259   1.190   9.435   6.600 -0.1722 -0.6379  0.0783
  586MOL0     C77260   1.152   9.333   6.491  0.2170 -0.0644 -0.3650
  586MOL0     C77261   1.000   9.315   6.472  0.4775 -0.1760  0.2298
  586MOL0     C77262   0.958   9.208   6.376 -0.3807 -0.2116  0.3226
  586MOL0     C77263   0.811   9.166   6.348  0.3434 -0.3255  0.2809
  586MOL0    Cl77264   0.798   9.000   6.313 -0.2292 -0.3221 -0.2191
  586MOL0     C77265   1.604   9.935   6.844  0.7555 -0.3440 -0.9619
  586MOL0     C77266   1.727   9.990   6.842 -0.9329 -0.4064  0.0240
  586MOL0     O77267   1.992   9.847   6.938 -0.6103 -0.0984  0.1648
  586MOL0     C77268   2.252   9.922   6.976 -0.9996 -0.3182 -0.1013
  586MOL0     C77269   2.386   9.958   6.982 -0.7447  0.3273 -1.0472
  586MOL0     N77270   3.072   9.872   7.071 -0.7995 -0.2543  0.1331
  586MOL0     N77271   3.147   9.771   7.094 -0.3772  0.0312 -0.1537
  586MOL0     C77272   4.175  10.174   6.855 -0.0422  0.3932  0.5183
  586MOL0     C77273   4.310  10.202   6.834  0.1914 -0.1784  0.2967
  586MOL0     C77274   4.768  10.227   6.891  0.0370 -0.0873  0.7398
  586MOL0     C77275   4.758  10.354   6.825  0.2177  0.1832 -0.8685
  586MOL0     C77276   4.874  10.412   6.781 -1.4889  0.1742  0.7510
  586MOL0     C77277   5.000  10.353   6.783 -0.6858  0.3272 -0.0913
  586MOL0     O77278   5.118  10.415   6.736  0.4053 -0.4841  0.0444
  586MOL0     C77279   5.124  10.555   6.713  0.5181 -0.2942 -0.2692
  586MOL0     C77280   5.262  10.610   6.693 -0.5063 -0.8805  0.3389
  586MOL0     C77281   5.330  10.634   6.837  0.2870 -0.5569 -0.7036
  586MOL0     C77282   5.345  10.516   6.930  0.1878  0.5838  0.6555
  586MOL0     C77283   5.366  10.564   7.065 -0.2682  0.0882 -0.0471
  586MOL0     C77284   5.398  10.606   7.178  0.2011  0.6676  0.3573
  586MOL0     C77285   5.012  10.220   6.839  0.4317 -0.5101 -0.1847
  586MOL0     C77286   4.897  10.168   6.900  0.4450  0.2107 -0.4986
  586MOL0     H77287   4.451  10.114   7.122 -0.0987  2.6595  0.9169
  586MOL0     H77288   4.222  10.100   7.188 -1.7663 -1.3711  0.3388
  586MOL0     H77289   3.883  10.100   6.849 -3.4361  1.1063 -0.8236
  586MOL0     H77290   3.930  10.257   6.916  0.1136 -0.7808  0.3582
  586MOL0     H77291   3.708  10.233   6.988 -0.9494 -1.0597 -3.3639
  586MOL0     H77292   3.823  10.192   7.127  2.2689 -1.8325 -1.3226
  586MOL0     H77293   3.780   9.958   7.101  0.4361  3.9471  3.3402
  586MOL0     H77294   3.692   9.978   6.946  0.2405 -1.3898  0.9999
  586MOL0     H77295   3.574  10.096   7.202 -0.4616 -0.1085 -0.3616
  586MOL0     H77296   3.502  10.086   7.051  0.0122  0.8672  2.3324
  586MOL0     H77297   3.395   9.914   7.137  0.4495  2.1906  0.6326
  586MOL0     H77298   3.524   9.861   7.244  1.6892  1.2659  0.3337
  586MOL0     H77299   3.636   9.743   7.049  0.5780  2.0454  2.3531
  586MOL0     H77300   3.517   9.820   6.943  0.8257 -1.0321 -0.7537
  586MOL0     H77301   3.493   9.563   7.076 -1.0000 -0.1872  0.4197
  586MOL0     H77302   3.399   9.658   7.177  0.2526  0.4753  0.1350
  586MOL0     H77303   3.267   9.542   6.997 -0.3995  0.4973 -1.5393
  586MOL0     H77304   3.360   9.613   6.873 -1.1482 -1.3410 -0.1540
  586MOL0     H77305   3.252   9.847   6.791 -0.9337 -1.7365 -1.0309
  586MOL0     H77306   3.077  10.056   6.790 -1.8263  2.6228 -0.1057
  586MOL0     H77307   3.056  10.130   6.948  1.1263  2.0665 -1.7601
  586MOL0     H77308   2.836   9.937   6.849 -3.0236  1.8071  0.2920
  586MOL0     H77309   2.834  10.091   6.795  1.5276 -2.4832 -2.3333
  586MOL0     H77310   2.846  10.010   7.088 -0.5892  1.2920  1.1208
  586MOL0     H77311   2.817  10.181   7.014  3.0308  0.9386 -2.6788
  586MOL0     H77312   2.614  10.049   7.100  0.8452  3.3186 -1.3571
  586MOL0     H77313   2.653   9.914   6.985  1.2562 -1.6917  3.3772
  586MOL0     H77314   2.421  10.199   6.764 -0.9712  1.1776  1.4436
  586MOL0     H77315   2.173  10.137   6.717  1.2902 -0.9419 -1.7542
  586MOL0     H77316   1.858   9.781   6.615 -1.3728 -5.7675  1.4066
  586MOL0     H77317   1.644   9.691   6.621 -0.2580 -0.6789  1.1111
  586MOL0     H77318   1.420   9.710   6.581 -1.0572 -1.2152 -0.5429
  586MOL0     H77319   1.274   9.700   6.677  0.5873 -3.8392  1.7075
  586MOL0     H77320   1.357   9.529   6.808  0.6090 -1.1441 -0.1259
  586MOL0     H77321   1.514   9.529   6.737  0.3864 -1.0556 -2.3928
  586MOL0     H77322   1.407   9.358   6.614  2.3445  0.6406 -2.0169
  586MOL0     H77323   1.381   9.477   6.505 -1.5902  2.8348 -1.0868
  586MOL0     H77324   1.154   9.414   6.701  3.5577 -1.9912  1.2858
  586MOL0     H77325   1.141   9.520   6.551 -0.0872 -1.0054 -0.6495
  586MOL0     H77326   1.199   9.239   6.523  3.3017  1.4386 -0.1457
  586MOL0     H77327   1.197   9.361   6.396 -1.4890 -2.0726 -1.8672
  586MOL0     H77328   0.965   9.410   6.430  3.0876  1.3959  1.2790
  586MOL0     H77329   0.953   9.303   6.570 -0.8144 -1.5002 -0.5203
  586MOL0     H77330   1.007   9.235   6.282  1.7978  2.3587  2.0483
  586MOL0     H77331   1.003   9.117   6.417 -1.6011 -0.0772  2.1234
  586MOL0     H77332   0.770   9.221   6.263 -0.3513  1.1421  1.5264
  586MOL0     H77333   0.753   9.196   6.435 -0.8426  2.6639 -1.3815
  586MOL0     H77334   1.528   9.986   6.901  1.5201  1.8760 -1.7998
  586MOL0     H77335   1.753  10.077   6.901 -0.9659 -0.0692 -0.4490
  586MOL0     H77336   2.227   9.842   7.046 -0.0898 -1.7234 -1.3145
  586MOL0     H77337   2.441   9.905   7.059 -1.7525  1.7588  0.7550
  586MOL0     H77338   4.103  10.199   6.778  0.8311  3.6877  0.6432
  586MOL0     H77339   4.354  10.245   6.745  1.3586 -0.2251  0.8322
  586MOL0     H77340   4.664  10.409   6.821 -1.4595 -2.5413 -2.3343
  586MOL0     H77341   4.864  10.511   6.738 -0.4484 -0.1314 -0.2349
  586MOL0     H77342   5.077  10.613   6.793 -1.2315  1.7917 -2.6475
  586MOL0     H77343   5.069  10.574   6.620  4.0274 -1.1920 -2.7397
  586MOL0     H77344   5.317  10.536   6.634  0.1464 -0.8170  0.8544
  586MOL0     H77345   5.252  10.704   6.639  1.2451  0.5327  2.3161
  586MOL0     H77346   5.267  10.708   6.889  0.8467  0.3472 -1.2803
  586MOL0     H77347   5.429  10.680   6.831  0.6584 -1.0231  1.1580
  586MOL0     H77348   5.255  10.454   6.926 -1.0996  2.4493 -1.3103
  586MOL0     H77349   5.426  10.452   6.894 -0.7548 -0.7214  0.8110
  586MOL0     H77350   5.434  10.623   7.277  2.3659 -4.5817  0.7544
  586MOL0     H77351   5.108  10.169   6.849  1.1555  1.0354  1.2966
  586MOL0     H77352   4.896  10.081   6.965  2.9640  2.6723  3.2463
  587MOL0     O77353   7.316   3.059   1.799 -0.8375 -0.3498  0.3732
  587MOL0     C77354   7.348   3.131   1.892  0.4991 -0.5006  0.5136
  587MOL0     O77355   7.260   3.220   1.961  0.9051  0.9292  0.6613
  587MOL0     C77356   7.127   3.228   1.929  0.6287  0.0160 -0.3800
  587MOL0     C77357   7.083   3.352   1.956  0.6940  0.5447  0.0924
  587MOL0     C77358   6.949   3.378   1.920 -0.1194 -0.9833  0.4780
  587MOL0     C77359   6.868   3.281   1.868  0.9844 -0.1245  0.4002
  587MOL0     O77360   6.745   3.308   1.822  0.5507  0.2061 -0.2779
  587MOL0     C77361   6.682   3.444   1.825 -0.6313  0.1561 -0.6347
  587MOL0     C77362   6.532   3.434   1.792 -0.0576  0.4385  0.0625
  587MOL0     C77363   6.509   3.378   1.648  0.3600  0.9617 -0.3047
  587MOL0     C77364   6.549   3.478   1.547  0.5366  0.5448  0.0998
  587MOL0     C77365   6.526   3.429   1.399  0.2277  0.1742 -0.5135
  587MOL0     C77366   6.376   3.451   1.374  0.1213 -0.5312  0.9204
  587MOL0     C77367   6.348   3.499   1.229 -0.2153 -0.1846  0.5057
  587MOL0     C77368   6.200   3.529   1.212  0.4922 -0.3613  0.7219
  587MOL0     N77369   6.171   3.571   1.074 -0.0552 -0.3167 -1.1794
  587MOL0     C77370   6.053   3.640   1.037 -0.5606 -0.1508  0.0823
  587MOL0     C77371   6.048   3.631   0.905  0.7801  0.4732 -0.5307
  587MOL0     C77372   5.958   3.690   0.809  0.2253 -0.1027 -0.1819
  587MOL0     C77373   5.824   3.637   0.837 -0.0364  0.1548 -0.7644
  587MOL0     C77374   5.721   3.733   0.772 -0.1720  0.1396  0.8385
  587MOL0     C77375   5.575   3.685   0.777  0.5665  0.6054 -0.9203
  587MOL0     O77376   5.490   3.786   0.720  0.2204  0.1349  0.1837
  587MOL0     C77377   5.357   3.761   0.708  0.9738 -0.5950  0.6124
  587MOL0     C77378   5.285   3.844   0.623 -0.5288  0.6317  0.0804
  587MOL0     C77379   5.150   3.824   0.600  0.5835  1.4336  0.1814
  587MOL0     C77380   5.079   3.732   0.684  0.3422  0.2162  0.7629
  587MOL0     C77381   4.935   3.711   0.667  1.0022  0.0616  0.6439
  587MOL0     O77382   4.876   3.769   0.561  0.6081 -0.5701  0.1120
  587MOL0     C77383   4.736   3.790   0.560  0.1972  0.7672  0.0639
  587MOL0     C77384   4.647   3.681   0.576  0.3892  0.6302  0.0476
  587MOL0     C77385   4.513   3.711   0.566 -0.1282 -0.0155  0.7001
  587MOL0     C77386   4.463   3.836   0.534  0.2560 -0.2456 -0.0559
  587MOL0     O77387   4.328   3.845   0.504  0.8869 -0.3700 -0.0356
  587MOL0     C77388   4.279   3.951   0.421 -0.9155  0.2969  0.7976
  587MOL0     C77389   4.144   3.915   0.368 -0.1782  0.5835  0.6852
  587MOL0     C77390   4.047   3.883   0.478  0.2669  0.6019 -0.6359
  587MOL0     C77391   3.915   3.853   0.412 -0.0823  0.0518  0.2378
  587MOL0     C77392   3.794   3.805   0.504  0.8231 -0.4356  0.0301
  587MOL0     C77393   3.752   3.904   0.616 -0.0611 -0.1210 -0.6529
  587MOL0     C77394   3.696   4.033   0.568 -0.9370 -0.0213 -0.6382
  587MOL0     C77395   3.545   4.040   0.575 -0.4400  1.0302  0.0111
  587MOL0    Cl77396   3.504   4.079   0.738  0.0032  0.1547  0.3801
  587MOL0     C77397   4.560   3.941   0.520  0.7874 -0.4590  0.4071
  587MOL0     C77398   4.690   3.920   0.550  0.4314 -0.1483  0.9641
  587MOL0     O77399   4.868   3.648   0.748 -0.8213 -0.3654  0.1658
  587MOL0     C77400   5.145   3.660   0.784 -0.5888  0.3817  0.8736
  587MOL0     C77401   5.288   3.667   0.781  0.0317 -0.9928  0.3404
  587MOL0     N77402   6.142   3.540   0.867 -0.9984 -0.1187 -0.4465
  587MOL0     N77403   6.211   3.515   0.962 -0.6026  1.1817 -0.5484
  587MOL0     C77404   6.915   3.149   1.857 -0.5030  0.0821 -0.3052
  587MOL0     C77405   7.042   3.123   1.886 -0.6469  0.0509 -0.7481
  587MOL0     C77406   7.488   3.149   1.923 -0.4232  0.0815  0.0685
  587MOL0     C77407   7.584   3.085   1.841  0.1459 -0.8483 -0.3274
  587MOL0     C77408   7.724   3.101   1.861  0.1431 -0.5752  0.0153
  587MOL0     C77409   7.778   3.181   1.970  0.1612  0.5988 -0.4189
  587MOL0     O77410   7.906   3.192   2.020  0.7808  0.5713  1.2667
  587MOL0     C77411   8.013   3.100   1.985  0.0141  0.6611 -0.2649
  587MOL0     C77412   8.143   3.144   2.046  0.3660  0.1362 -0.0329
  587MOL0     C77413   8.239   3.026   2.064  0.2224  0.4342 -0.0988
  587MOL0     C77414   8.369   3.081   2.104  0.7204  0.0403 -0.2993
  587MOL0     C77415   8.474   2.987   2.115 -0.3355 -0.7530  0.3839
  587MOL0     C77416   8.557   2.904   2.098  0.8969  0.0725 -0.1094
  587MOL0     C77417   7.684   3.240   2.057  0.2699 -0.3396  0.3693
  587MOL0     C77418   7.543   3.232   2.024 -0.5819  0.0218  0.0937
  587MOL0     H77419   7.150   3.431   1.989  1.7496  0.7279 -2.2506
  587MOL0     H77420   6.930   3.485   1.925  0.8991 -0.6854 -1.1509
  587MOL0     H77421   6.730   3.505   1.748 -4.7788  0.1695 -3.5022
  587MOL0     H77422   6.693   3.501   1.918 -0.7064  0.3159 -0.7244
  587MOL0     H77423   6.480   3.530   1.800  0.4630  0.9881 -2.3815
  587MOL0     H77424   6.485   3.364   1.862 -0.2579 -0.8361 -1.2926
  587MOL0     H77425   6.401   3.363   1.641  0.2088 -0.6232  3.1287
  587MOL0     H77426   6.566   3.285   1.640  2.8819  2.2011  1.8046
  587MOL0     H77427   6.496   3.571   1.569  1.1317  1.4448 -1.9443
  587MOL0     H77428   6.656   3.495   1.557  0.6430 -0.8098  1.7173
  587MOL0     H77429   6.552   3.323   1.384 -0.2788 -0.0661  0.2301
  587MOL0     H77430   6.588   3.486   1.329  1.2747 -1.7160 -1.1929
  587MOL0     H77431   6.338   3.534   1.435  1.2314  1.1386 -0.5409
  587MOL0     H77432   6.316   3.364   1.403 -3.5945  0.5536 -2.5428
  587MOL0     H77433   6.395   3.592   1.196 -4.1917  1.6656 -0.5340
  587MOL0     H77434   6.383   3.426   1.155 -0.6388 -0.1572  0.2756
  587MOL0     H77435   6.166   3.611   1.277 -2.1954 -0.1624 -0.7935
  587MOL0     H77436   6.137   3.451   1.254 -0.8899  1.3200  1.9277
  587MOL0     H77437   5.987   3.701   1.098  0.0775  0.2567  0.3881
  587MOL0     H77438   5.991   3.675   0.706  0.4521 -2.0263  0.1319
  587MOL0     H77439   5.967   3.798   0.827 -0.2666 -0.4315  2.4070
  587MOL0     H77440   5.794   3.649   0.942  1.2381  2.2463 -0.6013
  587MOL0     H77441   5.812   3.535   0.799  0.5063  0.7319 -2.5693
  587MOL0     H77442   5.744   3.823   0.828 -1.4825 -0.4648  2.4242
  587MOL0     H77443   5.739   3.742   0.664 -0.4950  0.7189  0.8344
  587MOL0     H77444   5.552   3.679   0.884  1.1538 -0.8704 -0.8607
  587MOL0     H77445   5.553   3.594   0.721 -0.5245  3.0686 -4.8598
  587MOL0     H77446   5.335   3.906   0.550  1.3166 -1.5680 -0.6475
  587MOL0     H77447   5.092   3.863   0.517 -3.6193 -1.7499  1.2312
  587MOL0     H77448   4.683   3.579   0.586 -2.4322 -0.4265  0.3426
  587MOL0     H77449   4.441   3.632   0.583  0.3251  0.0880  3.7360
  587MOL0     H77450   4.347   3.977   0.339  0.1211 -1.1623  1.1399
  587MOL0     H77451   4.274   4.039   0.486 -0.1079  1.0475 -0.1147
  587MOL0     H77452   4.148   3.827   0.304 -3.7012 -0.2672  1.3906
  587MOL0     H77453   4.103   3.997   0.308 -2.7285 -0.7929  0.4010
  587MOL0     H77454   4.037   3.965   0.549  1.3973  0.2608 -0.0573
  587MOL0     H77455   4.070   3.786   0.523 -1.7741  0.0075 -0.7536
  587MOL0     H77456   3.877   3.941   0.359 -3.3644 -0.8450  0.9310
  587MOL0     H77457   3.928   3.775   0.336  1.9056 -1.3397  1.8935
  587MOL0     H77458   3.831   3.715   0.553  0.8862  0.2149  1.2107
  587MOL0     H77459   3.701   3.786   0.450 -1.2554  1.6217  2.6463
  587MOL0     H77460   3.850   3.920   0.661  0.8112 -0.9825 -2.1214
  587MOL0     H77461   3.684   3.851   0.683 -0.7045 -0.1909 -1.3395
  587MOL0     H77462   3.731   4.117   0.627 -0.7747  0.4484 -1.3880
  587MOL0     H77463   3.732   4.059   0.468 -1.8366  0.8475 -0.7558
  587MOL0     H77464   3.511   3.943   0.537  3.8852 -0.4623 -0.7055
  587MOL0     H77465   3.498   4.115   0.511  1.2881  0.4308 -2.0852
  587MOL0     H77466   4.526   4.043   0.499 -0.2296 -0.6884  0.8929
  587MOL0     H77467   4.757   4.005   0.548  0.3001 -0.0590  0.3256
  587MOL0     H77468   5.097   3.584   0.844  2.2653 -0.1476  2.6531
  587MOL0     H77469   5.329   3.590   0.846  0.2703  0.3668  1.8468
  587MOL0     H77470   6.851   3.076   1.809  1.1097 -0.8058 -1.1562
  587MOL0     H77471   7.091   3.030   1.858  1.7523 -0.1576  3.2789
  587MOL0     H77472   7.549   3.033   1.753 -0.3091 -1.4426  0.1997
  587MOL0     H77473   7.780   3.034   1.797 -1.8677 -1.7131 -0.6468
  587MOL0     H77474   8.025   3.094   1.876 -4.4676 -0.0833 -0.9315
  587MOL0     H77475   7.987   2.999   2.020  0.6799  1.4525  2.7612
  587MOL0     H77476   8.181   3.220   1.977  1.9982 -1.6795 -1.2262
  587MOL0     H77477   8.121   3.182   2.146 -1.6895 -0.3474 -0.2528
  587MOL0     H77478   8.256   2.975   1.968 -0.7673  0.1653 -0.1445
  587MOL0     H77479   8.195   2.960   2.139 -2.9063  2.3090 -0.1135
  587MOL0     H77480   8.411   3.150   2.030  0.3424  1.1484  0.4911
  587MOL0     H77481   8.364   3.148   2.191  0.6553  1.5720 -1.4340
  587MOL0     H77482   8.631   2.830   2.074 -0.4107 -1.7391  1.1944
  587MOL0     H77483   7.714   3.305   2.139  1.9462 -0.5941 -0.0105
  587MOL0     H77484   7.479   3.294   2.086 -2.3862 -1.5998 -0.0569
  588MOL0     O77485   1.231   3.203   5.601 -0.7387  0.5150 -0.4307
  588MOL0     C77486   1.166   3.117   5.537  0.5648 -0.2510  0.1766
  588MOL0     O77487   1.030   3.098   5.537 -0.0518 -0.5113  0.3172
  588MOL0     C77488   0.954   3.202   5.560  0.6161 -0.8539  0.2181
  588MOL0     C77489   0.957   3.324   5.485 -0.5027  0.0503 -0.6507
  588MOL0     C77490   0.875   3.433   5.529  0.2643  0.1976  0.2150
  588MOL0     C77491   0.796   3.428   5.643  0.1901 -0.0256 -0.1837
  588MOL0     O77492   0.719   3.534   5.694 -0.4441 -0.0469 -0.1790
  588MOL0     C77493   0.757   3.667   5.656 -0.0795 -0.6408 -0.0487
  588MOL0     C77494   0.671   3.723   5.543  1.3154  0.5473 -0.1378
  588MOL0     C77495   0.533   3.759   5.608  0.5588  0.2867 -0.3322
  588MOL0     C77496   0.455   3.850   5.510  0.0470 -0.5697 -0.0833
  588MOL0     C77497   0.330   3.883   5.584  0.5961  0.3620  0.5491
  588MOL0     C77498   0.246   3.970   5.488 -0.3149 -0.4056  0.2676
  588MOL0     C77499   0.115   4.029   5.555  0.6332 -0.0841 -0.0087
  588MOL0     C77500   0.005   4.063   5.454 -0.4110 -0.7377  0.1888
  588MOL0     N77501  -0.122   4.092   5.524  0.0851 -0.6534  0.1628
  588MOL0     C77502  -0.242   4.024   5.505 -1.2423  0.2007 -0.0102
  588MOL0     C77503  -0.312   4.069   5.608 -0.9546 -0.5455 -0.1368
  588MOL0     C77504  -0.447   4.022   5.656 -0.1856 -0.0601  0.0604
  588MOL0     C77505  -0.560   4.059   5.551 -1.0995 -0.2988 -0.6763
  588MOL0     C77506  -0.626   4.193   5.569  0.6678 -0.0680  0.1445
  588MOL0     C77507  -0.742   4.194   5.460 -0.9645  0.5311 -0.1268
  588MOL0     O77508  -0.773   4.332   5.445 -0.6537 -0.6818 -0.3567
  588MOL0     C77509  -0.901   4.370   5.477  0.9059 -0.0917 -0.2474
  588MOL0     C77510  -0.975   4.345   5.594 -0.0841 -0.9710 -0.6906
  588MOL0     C77511  -1.106   4.388   5.611 -0.3087  0.7835 -0.5042
  588MOL0     C77512  -1.170   4.459   5.515 -1.1175 -0.1904 -0.1149
  588MOL0     C77513  -1.305   4.498   5.521  0.0440 -0.3292  0.6803
  588MOL0     O77514  -1.374   4.473   5.638  0.4100 -0.0716  0.0958
  588MOL0     C77515  -1.514   4.482   5.650 -0.5409 -0.1784  0.2003
  588MOL0     C77516  -1.617   4.526   5.561 -0.3659  0.3469  0.4921
  588MOL0     C77517  -1.754   4.523   5.600 -0.8734 -0.2737 -0.0613
  588MOL0     C77518  -1.792   4.472   5.726 -0.2362 -0.7530 -0.8670
  588MOL0     O77519  -1.925   4.457   5.765  0.0196  0.5334 -0.4823
  588MOL0     C77520  -2.018   4.512   5.672  0.2706 -0.6713 -0.4316
  588MOL0     C77521  -2.156   4.498   5.738  0.0340 -0.5497 -0.4116
  588MOL0     C77522  -2.249   4.600   5.667 -0.6455 -0.9013  0.6088
  588MOL0     C77523  -2.388   4.593   5.729  0.4595  0.6693 -0.2410
  588MOL0     C77524  -2.488   4.697   5.670 -0.1149  0.1073 -0.0494
  588MOL0     C77525  -2.471   4.841   5.721  0.8678  1.0600 -0.3727
  588MOL0     C77526  -2.583   4.933   5.663  0.0412  0.7541 -0.2525
  588MOL0     C77527  -2.542   4.998   5.527 -0.7948 -0.4630 -0.0791
  588MOL0    Cl77528  -2.410   5.117   5.535  0.4729  0.6408 -0.5303
  588MOL0     C77529  -1.692   4.418   5.801  1.0364 -0.2823  0.0491
  588MOL0     C77530  -1.560   4.418   5.767 -0.0548 -0.6057 -0.4632
  588MOL0     O77531  -1.348   4.563   5.426  0.2213 -0.4059  0.2193
  588MOL0     C77532  -1.092   4.499   5.399 -0.9336  0.5740 -0.2994
  588MOL0     C77533  -0.962   4.448   5.383  0.9857  0.0539 -0.5428
  588MOL0     N77534  -0.233   4.165   5.689  0.1599 -0.1009  0.6401
  588MOL0     N77535  -0.119   4.173   5.632  0.5078 -0.1899 -0.0291
  588MOL0     C77536   0.795   3.305   5.709  0.7519 -0.0165 -0.1303
  588MOL0     C77537   0.864   3.191   5.667 -0.3625 -0.4737  0.6954
  588MOL0     C77538   1.239   3.029   5.431 -1.1393  0.1744 -0.3655
  588MOL0     C77539   1.174   2.908   5.383 -0.7466  0.1092 -0.5394
  588MOL0     C77540   1.236   2.830   5.284  0.1403 -0.2229  0.4788
  588MOL0     C77541   1.365   2.863   5.247  0.0644  0.3644 -0.2274
  588MOL0     O77542   1.415   2.779   5.154  0.2283 -0.3054  0.0924
  588MOL0     C77543   1.354   2.794   5.023 -0.6836 -0.3544  0.3604
  588MOL0     C77544   1.455   2.761   4.907 -0.2898 -0.1592 -0.3101
  588MOL0     C77545   1.576   2.676   4.941  0.3915  0.5280  0.0255
  588MOL0     C77546   1.553   2.526   4.984 -0.3291 -0.0644  0.2819
  588MOL0     C77547   1.660   2.479   5.073 -0.1955 -0.4053 -1.2532
  588MOL0     C77548   1.755   2.449   5.155  0.0264  0.3943  0.1401
  588MOL0     C77549   1.431   2.970   5.295  0.7735 -1.0656  0.2595
  588MOL0     C77550   1.370   3.056   5.379 -0.5152 -1.2164 -0.4361
  588MOL0     H77551   1.022   3.337   5.400 -0.3475  1.7410 -0.3086
  588MOL0     H77552   0.870   3.527   5.474  0.5541  0.4616  0.6315
  588MOL0     H77553   0.864   3.681   5.638  0.0415  1.7614  1.8795
  588MOL0     H77554   0.740   3.717   5.752  3.8539  1.1457 -0.0901
  588MOL0     H77555   0.666   3.648   5.464 -0.5042 -0.4515  0.8584
  588MOL0     H77556   0.713   3.810   5.492  0.7805 -0.1173 -1.7478
  588MOL0     H77557   0.549   3.814   5.701  0.2107 -3.5954  2.2764
  588MOL0     H77558   0.468   3.672   5.626  1.7431 -0.3481  1.1245
  588MOL0     H77559   0.506   3.947   5.502 -0.2001 -0.2609  1.6009
  588MOL0     H77560   0.448   3.805   5.411  2.2432 -0.5026 -0.3289
  588MOL0     H77561   0.355   3.933   5.678 -0.7634  1.3647  0.4138
  588MOL0     H77562   0.270   3.797   5.614  1.1085  0.2720  1.3256
  588MOL0     H77563   0.224   3.901   5.407 -0.7775  0.5673 -0.4552
  588MOL0     H77564   0.304   4.054   5.449 -0.5528 -1.2561 -2.0627
  588MOL0     H77565   0.078   3.947   5.617  3.4068 -1.4691 -0.0423
  588MOL0     H77566   0.133   4.115   5.620 -2.2187  0.6771 -0.1018
  588MOL0     H77567  -0.003   3.980   5.384 -2.1001  0.1391 -0.7425
  588MOL0     H77568   0.032   4.147   5.389 -0.6883 -1.6825 -1.1963
  588MOL0     H77569  -0.252   3.955   5.422 -0.6359  0.8868 -0.6707
  588MOL0     H77570  -0.466   4.067   5.754 -1.9417  2.4745 -1.3338
  588MOL0     H77571  -0.450   3.914   5.678 -1.3676  0.4308  2.7598
  588MOL0     H77572  -0.639   3.990   5.580 -0.7980 -1.1184 -1.7151
  588MOL0     H77573  -0.523   4.054   5.448 -0.6849  2.1332 -0.7157
  588MOL0     H77574  -0.654   4.214   5.672  0.8658  0.7996  0.0274
  588MOL0     H77575  -0.547   4.266   5.549 -0.2172  1.8744  3.1037
  588MOL0     H77576  -0.824   4.132   5.498  0.2205 -0.3301  1.1303
  588MOL0     H77577  -0.695   4.146   5.373 -0.2495  0.4496  0.2920
  588MOL0     H77578  -0.930   4.293   5.678 -2.4638 -0.1589  1.2118
  588MOL0     H77579  -1.162   4.364   5.701 -0.1747 -2.8665 -1.2427
  588MOL0     H77580  -1.597   4.548   5.457 -1.4443 -2.8348 -0.4876
  588MOL0     H77581  -1.827   4.550   5.524  0.3503  0.8407 -0.8906
  588MOL0     H77582  -2.017   4.453   5.579  1.4660 -0.4503 -0.5770
  588MOL0     H77583  -2.000   4.619   5.657 -0.1047 -0.3444  1.2157
  588MOL0     H77584  -2.161   4.515   5.846 -1.2694  0.4430 -0.6018
  588MOL0     H77585  -2.182   4.397   5.706 -1.2822 -0.0933 -0.8612
  588MOL0     H77586  -2.263   4.585   5.560  0.4596 -0.7108  0.4179
  588MOL0     H77587  -2.209   4.698   5.693  1.7703 -1.5098 -0.4977
  588MOL0     H77588  -2.435   4.495   5.717 -3.2493  1.6121  3.8483
  588MOL0     H77589  -2.388   4.603   5.838  3.2469  0.2904 -0.1437
  588MOL0     H77590  -2.591   4.671   5.696 -0.4644 -0.3486 -1.7537
  588MOL0     H77591  -2.488   4.690   5.560 -2.1707  1.2478 -0.1723
  588MOL0     H77592  -2.369   4.878   5.717  0.8927  1.8142  3.2707
  588MOL0     H77593  -2.484   4.825   5.829  0.6740 -0.1742 -0.5627
  588MOL0     H77594  -2.670   4.866   5.654  0.9438 -0.2706 -1.8421
  588MOL0     H77595  -2.614   5.008   5.736  1.9492 -3.0445  5.1162
  588MOL0     H77596  -2.626   5.058   5.492 -1.8124 -3.1175 -2.5856
  588MOL0     H77597  -2.518   4.919   5.454 -1.3128  2.6168 -3.9300
  588MOL0     H77598  -1.718   4.388   5.902 -2.2904  0.3206 -0.5091
  588MOL0     H77599  -1.495   4.380   5.845 -1.0142  0.5673  0.9627
  588MOL0     H77600  -1.135   4.572   5.331 -2.7587 -0.3195 -0.1463
  588MOL0     H77601  -0.905   4.473   5.294  1.2414  0.7333 -0.1951
  588MOL0     H77602   0.723   3.299   5.790  2.0821 -1.1088  1.0263
  588MOL0     H77603   0.856   3.097   5.721 -0.0281 -1.3782 -0.7749
  588MOL0     H77604   1.074   2.880   5.413 -1.6894  2.4005 -1.3905
  588MOL0     H77605   1.174   2.755   5.236 -0.8644  1.3349 -0.7493
  588MOL0     H77606   1.302   2.889   5.007 -0.3552 -0.2627 -0.1701
  588MOL0     H77607   1.271   2.723   5.019 -0.3169 -0.8940  1.5711
  588MOL0     H77608   1.402   2.714   4.823  1.7080 -0.3373 -1.5284
  588MOL0     H77609   1.492   2.856   4.866 -1.8179  0.4355 -0.3866
  588MOL0     H77610   1.636   2.728   5.017 -0.5725  0.3146  0.9539
  588MOL0     H77611   1.633   2.672   4.848 -2.7468 -0.4287 -1.9871
  588MOL0     H77612   1.464   2.544   5.045  1.1297  2.3531  1.9036
  588MOL0     H77613   1.532   2.462   4.898  0.9531 -0.4589  0.2458
  588MOL0     H77614   1.842   2.424   5.213 -0.2783 -0.3951  0.2756
  588MOL0     H77615   1.531   2.979   5.255  0.5558 -0.3378 -0.1409
  588MOL0     H77616   1.427   3.145   5.408 -2.6125  1.2948 -3.4138
  589MOL0     O77617   6.648   5.463   1.696  0.1266  0.0456  0.5229
  589MOL0     C77618   6.591   5.520   1.787  0.0724 -0.8623 -0.9277
  589MOL0     O77619   6.657   5.586   1.895 -0.2748  0.1439  0.4272
  589MOL0     C77620   6.789   5.619   1.905  0.8664 -0.0127  0.5797
  589MOL0     C77621   6.840   5.632   2.033 -0.0500 -0.2083  0.1669
  589MOL0     C77622   6.978   5.628   2.042 -0.4304  0.4527 -0.3349
  589MOL0     C77623   7.062   5.639   1.926  0.2444 -0.4603  0.9778
  589MOL0     O77624   7.193   5.652   1.931 -0.5913  0.1880  0.0981
  589MOL0     C77625   7.271   5.633   2.051 -0.0212 -0.8210 -0.7721
  589MOL0     C77626   7.284   5.756   2.130 -0.7959  0.0639 -0.0496
  589MOL0     C77627   7.357   5.728   2.262  0.3941 -0.2180  1.2547
  589MOL0     C77628   7.375   5.850   2.347  1.6332 -0.5020  0.8683
  589MOL0     C77629   7.475   5.820   2.463 -0.0236 -0.4537  0.5667
  589MOL0     C77630   7.461   5.678   2.529  0.3794  0.2371 -0.2855
  589MOL0     C77631   7.534   5.666   2.671 -0.0770  0.1475  0.8715
  589MOL0     C77632   7.499   5.526   2.726 -0.5887 -0.4066 -0.0794
  589MOL0     N77633   7.385   5.536   2.823  1.0962 -0.1001  0.2000
  589MOL0     C77634   7.251   5.514   2.788 -0.3066  0.1238  0.4622
  589MOL0     C77635   7.186   5.552   2.898  1.4613 -0.3063 -0.2885
  589MOL0     C77636   7.034   5.558   2.915 -0.1000 -0.1451 -0.7046
  589MOL0     C77637   6.984   5.673   3.004  0.2585  0.0721 -0.2298
  589MOL0     C77638   6.843   5.646   3.058  0.9073 -0.7465  0.5698
  589MOL0     C77639   6.740   5.642   2.944  0.6738 -0.5957  0.2877
  589MOL0     O77640   6.602   5.658   2.992 -0.2514  0.4809  0.6365
  589MOL0     C77641   6.497   5.703   2.920  0.3105  0.2820  0.5327
  589MOL0     C77642   6.519   5.753   2.783  0.3735 -0.0908 -0.0275
  589MOL0     C77643   6.409   5.792   2.699  0.1693 -0.9473 -1.0419
  589MOL0     C77644   6.278   5.795   2.753 -0.0590 -0.3272 -0.0537
  589MOL0     C77645   6.163   5.838   2.669 -0.0173 -0.0253  0.2286
  589MOL0     O77646   6.044   5.861   2.742 -0.0139 -0.0593 -0.0677
  589MOL0     C77647   5.937   5.912   2.672  0.0364 -0.1194  0.3811
  589MOL0     C77648   5.890   6.041   2.703  0.4674  0.1176 -0.8552
  589MOL0     C77649   5.785   6.099   2.626  0.6422  0.0246  0.7929
  589MOL0     C77650   5.718   6.024   2.530  0.7706 -0.2469  0.2312
  589MOL0     O77651   5.598   6.065   2.481  0.2263 -0.3795  0.4322
  589MOL0     C77652   5.590   6.204   2.444 -0.4114  0.0305  0.1508
  589MOL0     C77653   5.516   6.277   2.556  0.0851  0.1749 -0.7460
  589MOL0     C77654   5.519   6.428   2.541  0.0097 -0.5898 -0.3714
  589MOL0     C77655   5.447   6.499   2.660  0.7252 -0.0233  0.4769
  589MOL0     C77656   5.444   6.651   2.630 -0.2732 -0.2143 -0.6252
  589MOL0     C77657   5.322   6.706   2.717 -0.4501 -0.3254 -0.4572
  589MOL0     C77658   5.334   6.863   2.728 -0.7114 -0.4402  0.2558
  589MOL0     C77659   5.265   6.939   2.608  0.3310 -0.2712 -0.0327
  589MOL0    Cl77660   5.308   7.112   2.611 -0.4424 -0.1301  0.4742
  589MOL0     C77661   5.778   5.903   2.489 -0.3925  0.2614 -0.0244
  589MOL0     C77662   5.886   5.850   2.563  0.0031 -0.5316  0.3218
  589MOL0     O77663   6.179   5.862   2.547  0.7948  0.4817  0.3985
  589MOL0     C77664   6.252   5.739   2.881 -0.8385  0.1520  0.0418
  589MOL0     C77665   6.360   5.699   2.962 -0.3116 -0.2678  0.8112
  589MOL0     N77666   7.267   5.588   3.001 -0.6975 -0.5225 -0.3058
  589MOL0     N77667   7.388   5.571   2.959 -0.0526  0.6685  0.4930
  589MOL0     C77668   7.000   5.661   1.799 -0.5822 -0.1938 -0.0556
  589MOL0     C77669   6.863   5.644   1.784 -1.0339 -0.5037  0.1853
  589MOL0     C77670   6.447   5.525   1.773  0.3489  0.4289  0.1577
  589MOL0     C77671   6.381   5.486   1.653 -0.2614  0.0523  0.3547
  589MOL0     C77672   6.244   5.492   1.646  0.0562 -0.4486  1.2472
  589MOL0     C77673   6.167   5.534   1.747  0.8204 -0.7634  0.2825
  589MOL0     O77674   6.026   5.538   1.731 -0.7377  0.2821  0.4716
  589MOL0     C77675   5.940   5.503   1.838 -0.5982 -0.4914 -0.8552
  589MOL0     C77676   5.802   5.458   1.789 -0.7954 -0.3865 -0.9559
  589MOL0     C77677   5.733   5.586   1.773  0.4868  0.3819  0.1014
  589MOL0     C77678   5.612   5.557   1.679  0.4381  0.3562 -0.0499
  589MOL0     C77679   5.505   5.467   1.723 -0.0449 -0.0734 -0.4583
  589MOL0     C77680   5.433   5.374   1.758 -0.6950  0.4884 -0.0429
  589MOL0     C77681   6.228   5.566   1.872  0.5265  0.4690  0.0727
  589MOL0     C77682   6.371   5.570   1.885 -0.2763  0.2409 -0.0641
  589MOL0     H77683   6.782   5.622   2.124  1.4213 -0.7158  1.0777
  589MOL0     H77684   7.019   5.630   2.143  4.2570  0.9155 -2.0041
  589MOL0     H77685   7.373   5.604   2.024  1.1060  3.0914 -1.3840
  589MOL0     H77686   7.222   5.561   2.117 -0.3937  1.7830  2.0365
  589MOL0     H77687   7.190   5.800   2.164 -0.4757 -0.0645  1.0550
  589MOL0     H77688   7.339   5.831   2.073  0.6274  0.5388  1.8504
  589MOL0     H77689   7.455   5.687   2.236  0.2009 -0.0273  0.1609
  589MOL0     H77690   7.302   5.650   2.314  1.3692 -3.5632 -2.2328
  589MOL0     H77691   7.405   5.938   2.289  1.9555 -0.1734  1.5246
  589MOL0     H77692   7.275   5.880   2.382  0.9928 -0.8643 -0.5552
  589MOL0     H77693   7.467   5.899   2.538 -0.4887 -0.0346  0.0803
  589MOL0     H77694   7.579   5.823   2.429  0.1021 -0.5417  0.9369
  589MOL0     H77695   7.507   5.615   2.452 -1.0182  2.4942 -3.2032
  589MOL0     H77696   7.354   5.654   2.539  0.5038 -1.4484 -2.3473
  589MOL0     H77697   7.642   5.673   2.657 -0.1291 -1.7155 -0.8529
  589MOL0     H77698   7.503   5.745   2.740 -0.8888  2.1202 -1.6218
  589MOL0     H77699   7.581   5.481   2.783 -0.8276 -0.3400  0.3210
  589MOL0     H77700   7.467   5.454   2.650 -2.4288  0.8691 -0.5913
  589MOL0     H77701   7.209   5.491   2.691 -0.2670  0.1592  0.4362
  589MOL0     H77702   7.008   5.476   2.982 -3.7936  2.5698  1.5792
  589MOL0     H77703   6.989   5.544   2.816  2.9905 -1.5269 -2.0460
  589MOL0     H77704   6.973   5.774   2.964 -1.7879  1.2555  2.9689
  589MOL0     H77705   7.056   5.683   3.086 -0.2207  0.0692  0.1936
  589MOL0     H77706   6.823   5.553   3.112 -1.8843 -1.2177 -1.0386
  589MOL0     H77707   6.822   5.734   3.119  0.2386 -0.3441 -0.2161
  589MOL0     H77708   6.760   5.553   2.884  0.2251 -2.5241  2.8433
  589MOL0     H77709   6.765   5.733   2.888 -2.9307 -0.2344 -1.0510
  589MOL0     H77710   6.611   5.746   2.726  0.7245  0.5741  0.4401
  589MOL0     H77711   6.419   5.828   2.597  0.3221  1.6967 -0.1650
  589MOL0     H77712   5.910   6.103   2.790 -0.0963 -0.3120 -0.4181
  589MOL0     H77713   5.758   6.200   2.654  0.5231  0.5984 -1.2107
  589MOL0     H77714   5.543   6.204   2.345  0.9295 -2.4568 -0.5948
  589MOL0     H77715   5.682   6.261   2.427  0.1322 -0.6758  0.6695
  589MOL0     H77716   5.550   6.246   2.655 -3.1021 -1.4237 -0.0298
  589MOL0     H77717   5.412   6.246   2.570  1.0938 -3.0845  0.3528
  589MOL0     H77718   5.479   6.460   2.445  2.9884  1.0400 -1.1826
  589MOL0     H77719   5.626   6.453   2.535  0.9499 -3.9128 -0.0164
  589MOL0     H77720   5.343   6.464   2.657  0.8341 -0.2820 -1.0239
  589MOL0     H77721   5.497   6.465   2.750  3.0870  1.4572 -0.2044
  589MOL0     H77722   5.435   6.672   2.523  1.6176 -0.4186 -0.8689
  589MOL0     H77723   5.540   6.689   2.667 -0.2532 -0.9169  0.0755
  589MOL0     H77724   5.323   6.659   2.816 -0.4499  1.1145  0.2466
  589MOL0     H77725   5.223   6.679   2.680 -2.6446  2.8912  2.4291
  589MOL0     H77726   5.280   6.888   2.820  1.6837  0.5943  1.4710
  589MOL0     H77727   5.439   6.891   2.743  0.3035 -4.5905  2.2337
  589MOL0     H77728   5.156   6.933   2.620  0.5350  1.2014  4.5561
  589MOL0     H77729   5.306   6.899   2.515  0.5534 -1.4516  0.5418
  589MOL0     H77730   5.730   5.845   2.412 -2.1531 -1.2937  2.1051
  589MOL0     H77731   5.938   5.759   2.532  1.5402  0.6750 -0.8286
  589MOL0     H77732   6.152   5.741   2.925 -1.1375  1.1123 -0.6577
  589MOL0     H77733   6.355   5.646   3.056  0.0607 -1.4395  0.1841
  589MOL0     H77734   7.060   5.682   1.711 -0.2502 -3.2255 -0.6554
  589MOL0     H77735   6.820   5.648   1.685 -1.7746  1.4639  0.5413
  589MOL0     H77736   6.439   5.460   1.565 -0.0153 -0.3820  0.6407
  589MOL0     H77737   6.186   5.467   1.558 -0.3550  0.6583  1.1917
  589MOL0     H77738   5.935   5.582   1.913 -0.5107 -3.1878  2.2222
  589MOL0     H77739   5.978   5.414   1.889 -1.0523 -0.5195 -0.5645
  589MOL0     H77740   5.800   5.406   1.693 -2.2732  1.7602 -2.1774
  589MOL0     H77741   5.760   5.399   1.871  1.2874 -1.3999 -0.5543
  589MOL0     H77742   5.800   5.654   1.719 -1.4317  2.5059  0.2476
  589MOL0     H77743   5.717   5.631   1.871  3.3579 -1.8036  1.7441
  589MOL0     H77744   5.572   5.657   1.658  3.1271  1.3749 -0.6574
  589MOL0     H77745   5.653   5.512   1.588  2.9414  0.2093  1.0685
  589MOL0     H77746   5.384   5.284   1.789  0.1116  0.9648  2.9394
  589MOL0     H77747   6.152   5.605   1.939  1.5524  1.1709  0.8564
  589MOL0     H77748   6.419   5.600   1.978 -0.0539  1.9412 -0.6837
  590MOL0     O77749   4.195   5.119   6.146 -0.0046  0.7557 -0.1876
  590MOL0     C77750   4.255   5.010   6.132  1.0843 -0.0526  0.1114
  590MOL0     O77751   4.196   4.890   6.118  0.3447 -0.2313  0.9823
  590MOL0     C77752   4.059   4.884   6.125 -0.1003 -0.4417 -0.9954
  590MOL0     C77753   3.983   4.926   6.237  0.0127 -0.0770 -0.2261
  590MOL0     C77754   3.852   4.874   6.250 -0.0077  1.0737  0.0747
  590MOL0     C77755   3.794   4.799   6.147 -0.2389 -0.0247 -0.0691
  590MOL0     O77756   3.665   4.755   6.144 -0.2950 -0.3187  0.4397
  590MOL0     C77757   3.580   4.784   6.259 -0.4817  0.3877  0.2324
  590MOL0     C77758   3.430   4.756   6.221  0.2393 -0.4398  0.6882
  590MOL0     C77759   3.357   4.753   6.352  0.1497 -0.8626  0.1598
  590MOL0     C77760   3.202   4.725   6.322  0.6082  0.5423 -0.4973
  590MOL0     C77761   3.135   4.654   6.443 -0.3954 -0.7552  0.1815
  590MOL0     C77762   2.981   4.640   6.409 -0.8584  0.3465  0.2624
  590MOL0     C77763   2.911   4.574   6.524 -0.2905 -0.2320  0.7746
  590MOL0     C77764   2.761   4.585   6.506  0.3379  1.2804 -0.5721
  590MOL0     N77765   2.686   4.542   6.622  0.2996  0.0355 -0.0423
  590MOL0     C77766   2.671   4.609   6.745 -0.4531 -0.6065 -0.4140
  590MOL0     C77767   2.596   4.526   6.817 -1.0665  0.0275 -1.1413
  590MOL0     C77768   2.541   4.539   6.956 -0.3679  0.7465 -0.4601
  590MOL0     C77769   2.404   4.609   6.960  0.6092  0.4312 -0.0020
  590MOL0     C77770   2.414   4.753   6.909 -1.1085 -0.4380 -0.5066
  590MOL0     C77771   2.309   4.848   6.990 -0.7992  0.6551  0.1175
  590MOL0     O77772   2.239   4.930   6.901  0.6600  0.0261 -0.5109
  590MOL0     C77773   2.135   5.002   6.948  0.2454  0.1815 -0.5319
  590MOL0     C77774   2.063   5.094   6.868 -0.5775  0.2478 -0.0438
  590MOL0     C77775   1.954   5.173   6.909 -0.7222 -0.6939  0.3995
  590MOL0     C77776   1.914   5.152   7.044  0.0700 -1.1412  0.2961
  590MOL0     C77777   1.787   5.218   7.095 -0.1067 -1.2491 -0.2792
  590MOL0     O77778   1.728   5.161   7.199  0.1329 -0.4215 -0.3908
  590MOL0     C77779   1.622   5.219   7.271  0.4014 -0.8049  0.0498
  590MOL0     C77780   1.512   5.144   7.313  0.1090  0.8042 -1.5405
  590MOL0     C77781   1.408   5.204   7.383 -0.8546 -0.2839 -0.0248
  590MOL0     C77782   1.398   5.341   7.412 -0.5080 -0.2117  0.5530
  590MOL0     O77783   1.287   5.396   7.473  0.2051  0.5109  0.1479
  590MOL0     C77784   1.164   5.324   7.438 -0.8505  0.5278  0.2351
  590MOL0     C77785   1.045   5.404   7.495 -0.4548 -0.5067 -0.2787
  590MOL0     C77786   1.005   5.523   7.406 -0.2566  0.5528 -0.0087
  590MOL0     C77787   0.877   5.584   7.458  0.3195  0.4328  1.2064
  590MOL0     C77788   0.807   5.656   7.336 -0.4488  0.2667 -0.3103
  590MOL0     C77789   0.712   5.758   7.370  0.1640  1.0861 -0.3611
  590MOL0     C77790   0.601   5.709   7.475  0.3531  0.5791  1.0452
  590MOL0     C77791   0.500   5.821   7.510 -0.4632  0.0203 -0.8401
  590MOL0    Cl77792   0.402   5.783   7.657 -0.2214  0.3888  0.3311
  590MOL0     C77793   1.506   5.418   7.362  0.0300 -0.5500  0.0606
  590MOL0     C77794   1.612   5.361   7.297 -0.7831  0.3179 -0.8466
  590MOL0     O77795   1.764   5.325   7.048 -0.0919 -0.4448  0.4919
  590MOL0     C77796   1.986   5.068   7.129 -0.1223  0.0286  0.0660
  590MOL0     C77797   2.092   5.001   7.077  0.3722  0.3370  0.3345
  590MOL0     N77798   2.564   4.413   6.741 -0.6801 -0.4233 -0.1491
  590MOL0     N77799   2.616   4.421   6.622 -0.8416  0.2661 -0.6092
  590MOL0     C77800   3.863   4.774   6.028  0.3587  0.9612 -0.3998
  590MOL0     C77801   3.996   4.821   6.017 -0.4786  0.8312 -0.2447
  590MOL0     C77802   4.403   5.014   6.128 -0.2359  0.2269 -0.6697
  590MOL0     C77803   4.479   4.896   6.138  0.2531 -0.2672  0.2643
  590MOL0     C77804   4.619   4.894   6.149  0.1224 -0.8224  1.0636
  590MOL0     C77805   4.685   5.020   6.159  0.1378  0.3268 -0.3084
  590MOL0     O77806   4.819   5.024   6.155 -0.5900  0.2133 -0.3526
  590MOL0     C77807   4.890   4.909   6.113 -0.1966 -0.3529 -0.3449
  590MOL0     C77808   5.045   4.938   6.095 -0.5972  0.1538 -0.5063
  590MOL0     C77809   5.099   5.038   6.189  0.6060  0.5374  0.5597
  590MOL0     C77810   5.242   5.076   6.155 -0.1542 -0.2016 -0.0292
  590MOL0     C77811   5.269   5.129   6.022  0.0787  0.0344  0.2480
  590MOL0     C77812   5.291   5.173   5.912  0.1986  0.0229 -0.4417
  590MOL0     C77813   4.612   5.137   6.148  0.6837  0.4120 -1.0061
  590MOL0     C77814   4.471   5.136   6.131 -0.3044 -0.1498 -0.3025
  590MOL0     H77815   4.027   4.977   6.322 -3.5806 -1.7123  2.9071
  590MOL0     H77816   3.802   4.893   6.345 -0.1592 -2.8613  0.9334
  590MOL0     H77817   3.594   4.890   6.284  0.0290  0.2374  0.5907
  590MOL0     H77818   3.616   4.710   6.331 -0.8679  0.4974  0.5475
  590MOL0     H77819   3.428   4.655   6.179  1.1632 -1.8216  3.7084
  590MOL0     H77820   3.391   4.832   6.152  1.6316  0.5560  0.9464
  590MOL0     H77821   3.364   4.851   6.399 -2.2638 -0.1449 -0.7895
  590MOL0     H77822   3.391   4.678   6.424  0.6320 -0.9524 -0.1570
  590MOL0     H77823   3.148   4.817   6.298 -4.0338 -1.4442  1.2803
  590MOL0     H77824   3.208   4.652   6.241  1.1899  0.3809 -0.3175
  590MOL0     H77825   3.151   4.715   6.532  1.8097  0.7882 -1.1717
  590MOL0     H77826   3.183   4.558   6.460  1.3212 -0.1650 -1.0488
  590MOL0     H77827   2.965   4.568   6.329  0.4958  0.0581  0.2237
  590MOL0     H77828   2.947   4.744   6.400  0.9083  1.2344  2.4646
  590MOL0     H77829   2.942   4.469   6.532  2.0550  0.1319 -1.9182
  590MOL0     H77830   2.928   4.630   6.616  0.1161 -0.4754  0.8487
  590MOL0     H77831   2.739   4.531   6.413  1.4785  2.3155 -1.4863
  590MOL0     H77832   2.736   4.685   6.469 -1.4182  0.1575 -2.6891
  590MOL0     H77833   2.711   4.705   6.775  1.7359 -1.8713  0.9957
  590MOL0     H77834   2.611   4.596   7.018  2.3744 -3.9641  1.2967
  590MOL0     H77835   2.542   4.439   7.000 -0.6904  1.1022  0.3801
  590MOL0     H77836   2.339   4.595   7.046  0.9442 -1.0133  0.0418
  590MOL0     H77837   2.349   4.558   6.881 -1.0984  1.9048  0.1527
  590MOL0     H77838   2.516   4.789   6.922  0.0380 -3.5253  0.0032
  590MOL0     H77839   2.394   4.755   6.801  0.9060  0.0487 -0.9009
  590MOL0     H77840   2.374   4.896   7.063 -0.4300 -2.4486  2.0142
  590MOL0     H77841   2.243   4.787   7.052 -0.5860  0.6380  0.3300
  590MOL0     H77842   2.111   5.116   6.773  1.0806 -1.1366  0.4186
  590MOL0     H77843   1.906   5.243   6.842 -1.0320 -1.8925 -0.6737
  590MOL0     H77844   1.521   5.037   7.299  0.2031 -0.0290  3.3351
  590MOL0     H77845   1.326   5.135   7.401 -3.4457  1.5535 -3.5109
  590MOL0     H77846   1.172   5.222   7.478  0.5408 -0.6526 -2.7393
  590MOL0     H77847   1.159   5.311   7.330  0.3858  0.7916  0.1328
  590MOL0     H77848   1.067   5.445   7.594 -0.4726  1.4189 -1.0356
  590MOL0     H77849   0.960   5.336   7.497 -2.0631  1.4226  0.6597
  590MOL0     H77850   0.985   5.481   7.307 -1.1530 -0.9579  0.7800
  590MOL0     H77851   1.080   5.603   7.400 -0.3787  0.5754 -1.8504
  590MOL0     H77852   0.809   5.502   7.486 -1.9950  1.6760 -0.4807
  590MOL0     H77853   0.886   5.642   7.550  0.8778  1.1878  0.6796
  590MOL0     H77854   0.761   5.590   7.262  1.6073  0.0637 -1.5049
  590MOL0     H77855   0.884   5.705   7.276 -1.0472 -0.5503 -1.7999
  590MOL0     H77856   0.660   5.784   7.277  1.1947  0.8610 -1.0239
  590MOL0     H77857   0.759   5.848   7.411 -1.6980  0.3381  3.9177
  590MOL0     H77858   0.532   5.632   7.437  2.4241  0.3650 -2.7332
  590MOL0     H77859   0.640   5.671   7.570  1.5566  3.5301  1.8478
  590MOL0     H77860   0.444   5.844   7.419  0.4307 -1.3142 -1.7661
  590MOL0     H77861   0.554   5.914   7.529 -2.2253  1.5374 -2.8029
  590MOL0     H77862   1.499   5.526   7.371  0.8410 -0.5129  0.2538
  590MOL0     H77863   1.686   5.425   7.252  0.6324 -2.2138 -2.3681
  590MOL0     H77864   1.943   5.067   7.229  1.1174  3.1483  0.7322
  590MOL0     H77865   2.148   4.940   7.148 -1.8699 -3.1553 -0.6078
  590MOL0     H77866   3.814   4.718   5.949 -1.7506 -0.0722  1.5037
  590MOL0     H77867   4.046   4.806   5.922 -0.0550 -1.6173  0.2988
  590MOL0     H77868   4.429   4.799   6.139 -0.3880 -0.2652 -4.7851
  590MOL0     H77869   4.670   4.798   6.150  0.8805 -0.4245  1.1358
  590MOL0     H77870   4.848   4.867   6.021 -0.0929 -1.9240  0.3061
  590MOL0     H77871   4.875   4.832   6.189  0.2206 -1.2392 -1.1417
  590MOL0     H77872   5.107   4.848   6.105  1.3506  1.4467 -0.4098
  590MOL0     H77873   5.047   4.976   5.992 -0.8959 -1.3650 -1.0977
  590MOL0     H77874   5.098   5.003   6.292  0.0134  2.6190  1.3033
  590MOL0     H77875   5.040   5.130   6.188 -1.6156 -0.8087  0.7930
  590MOL0     H77876   5.261   5.156   6.227 -1.1756  1.0019 -1.0735
  590MOL0     H77877   5.305   4.988   6.175 -0.0225  0.3515  2.3671
  590MOL0     H77878   5.323   5.227   5.825  3.2362  2.1430  1.7712
  590MOL0     H77879   4.666   5.231   6.153 -1.0254  1.3785  0.3292
  590MOL0     H77880   4.430   5.235   6.148  0.7288  0.0451  1.1956
  591MOL0     O77881   2.352   9.161   1.828 -0.0750 -0.3135  0.2017
  591MOL0     C77882   2.363   9.044   1.860 -0.0751 -0.8639  0.0058
  591MOL0     O77883   2.255   8.968   1.914 -0.6916 -0.5936  0.6708
  591MOL0     C77884   2.121   9.003   1.918  0.2930 -0.1430 -0.0172
  591MOL0     C77885   2.066   9.124   1.864  0.7808 -0.1307  0.3235
  591MOL0     C77886   1.933   9.163   1.889 -0.4763  0.7968  0.1765
  591MOL0     C77887   1.847   9.059   1.933 -0.4611 -1.1920  0.7250
  591MOL0     O77888   1.715   9.073   1.938  0.3520  0.2313  0.8095
  591MOL0     C77889   1.649   9.193   1.915 -0.0749 -0.0514 -0.3197
  591MOL0     C77890   1.503   9.176   1.941 -0.0733  0.1276 -0.2009
  591MOL0     C77891   1.417   9.302   1.904  0.2500 -0.3390  0.4293
  591MOL0     C77892   1.265   9.261   1.937 -0.4796 -0.8057 -0.3441
  591MOL0     C77893   1.168   9.380   1.963 -0.3260 -0.1103  0.0258
  591MOL0     C77894   1.156   9.483   1.854 -0.0604  0.9755  0.3136
  591MOL0     C77895   1.067   9.441   1.744  1.3069 -0.3501  0.5688
  591MOL0     C77896   1.010   9.563   1.661 -0.0311  0.8261 -0.5526
  591MOL0     N77897   1.115   9.642   1.600 -0.0164  0.4876  0.3844
  591MOL0     C77898   1.230   9.591   1.538  0.0832 -0.2126 -0.4070
  591MOL0     C77899   1.292   9.701   1.500  0.2714 -0.3306  0.1982
  591MOL0     C77900   1.414   9.705   1.419  0.1338 -1.1733  0.1877
  591MOL0     C77901   1.529   9.669   1.502  0.2479 -0.1316  0.4512
  591MOL0     C77902   1.552   9.521   1.530 -0.0081 -0.3062 -0.3149
  591MOL0     C77903   1.690   9.470   1.578  0.4690 -0.2108 -0.4731
  591MOL0     O77904   1.761   9.426   1.470 -0.2719 -0.3904  0.1466
  591MOL0     C77905   1.895   9.388   1.485  0.4315 -0.7792  0.1466
  591MOL0     C77906   1.965   9.349   1.370 -0.9930  0.5515  0.0235
  591MOL0     C77907   2.103   9.345   1.373 -0.0519  0.3902 -0.4135
  591MOL0     C77908   2.181   9.385   1.486 -0.1656  0.3875  0.0010
  591MOL0     C77909   2.322   9.394   1.483 -0.8325  0.3668 -0.0223
  591MOL0     O77910   2.386   9.447   1.593  0.1383  0.2418  0.2055
  591MOL0     C77911   2.523   9.454   1.597 -0.4359  0.3202 -0.2021
  591MOL0     C77912   2.573   9.443   1.722 -1.0299 -0.1721  0.4398
  591MOL0     C77913   2.706   9.420   1.751 -0.7145  0.6221 -1.0561
  591MOL0     C77914   2.799   9.405   1.644 -0.0237 -0.1444  0.1396
  591MOL0     O77915   2.933   9.393   1.670 -1.0021 -0.4693  0.0850
  591MOL0     C77916   3.031   9.412   1.575 -0.1227 -0.9018  0.0483
  591MOL0     C77917   3.161   9.346   1.610 -0.8336 -0.0321  0.7481
  591MOL0     C77918   3.256   9.325   1.496 -1.6976 -0.2564 -0.1850
  591MOL0     C77919   3.393   9.264   1.532 -0.7945  0.7028 -0.4675
  591MOL0     C77920   3.495   9.282   1.414 -0.0356  0.1141  0.9056
  591MOL0     C77921   3.636   9.250   1.449 -0.2790  0.8471 -0.1699
  591MOL0     C77922   3.666   9.098   1.475  0.0702 -0.3641  0.8223
  591MOL0     C77923   3.784   9.068   1.561  0.7901 -0.5566  0.8241
  591MOL0    Cl77924   3.811   8.887   1.582  0.1738 -0.1648 -0.1863
  591MOL0     C77925   2.744   9.424   1.512  0.2431 -0.2072 -0.1781
  591MOL0     C77926   2.611   9.454   1.493  0.8945  0.2347 -0.1005
  591MOL0     O77927   2.378   9.343   1.391 -0.2937 -0.8595  0.1751
  591MOL0     C77928   2.115   9.405   1.608  0.0863 -0.2073  0.0649
  591MOL0     C77929   1.971   9.410   1.606 -0.1989 -0.5473 -0.1807
  591MOL0     N77930   1.227   9.820   1.546 -0.0668  0.2936  0.5027
  591MOL0     N77931   1.127   9.780   1.612  0.5399  0.0680 -0.2278
  591MOL0     C77932   1.900   8.945   1.982 -0.6969  0.3550  0.8799
  591MOL0     C77933   2.031   8.913   1.967 -0.0707  0.0838 -0.1810
  591MOL0     C77934   2.491   8.994   1.831  0.4440  0.2597  0.5372
  591MOL0     C77935   2.537   8.878   1.899  0.6491  0.1556 -0.3074
  591MOL0     C77936   2.670   8.845   1.883  0.1207  0.6391  1.2451
  591MOL0     C77937   2.750   8.892   1.787 -0.1773  1.0810  0.0852
  591MOL0     O77938   2.882   8.858   1.770  0.5195  0.0623 -0.0995
  591MOL0     C77939   2.931   8.811   1.641  0.3852 -1.0658  0.8407
  591MOL0     C77940   3.075   8.776   1.652  0.0230  0.0114  0.3185
  591MOL0     C77941   3.164   8.900   1.678 -0.9916 -0.0213  0.7534
  591MOL0     C77942   3.317   8.883   1.701  0.5747  0.2717 -0.4007
  591MOL0     C77943   3.384   8.805   1.596 -0.7499  0.5113 -0.0011
  591MOL0     C77944   3.421   8.742   1.498  0.4547 -0.3057 -0.1833
  591MOL0     C77945   2.700   8.992   1.710 -0.4806  0.2138  0.4530
  591MOL0     C77946   2.573   9.047   1.732 -0.7126 -0.7623  0.1649
  591MOL0     H77947   2.131   9.198   1.819 -0.7166  2.1790  1.7406
  591MOL0     H77948   1.909   9.266   1.865  0.9192  0.8900 -0.9329
  591MOL0     H77949   1.670   9.221   1.811  2.9471  0.6072  0.3798
  591MOL0     H77950   1.687   9.271   1.981  0.5313 -1.4849  1.0839
  591MOL0     H77951   1.492   9.150   2.046  1.1467  0.6261  0.0708
  591MOL0     H77952   1.467   9.090   1.884  1.5656 -1.1879  0.6810
  591MOL0     H77953   1.443   9.332   1.802  0.3113  3.4747  1.4234
  591MOL0     H77954   1.441   9.385   1.971 -1.2494  0.6300 -0.1938
  591MOL0     H77955   1.226   9.193   1.861  1.5226 -0.1910 -2.0142
  591MOL0     H77956   1.263   9.221   2.038 -1.7800  2.0473  0.8826
  591MOL0     H77957   1.203   9.428   2.054 -2.0270  4.1944 -1.3620
  591MOL0     H77958   1.071   9.333   1.985 -1.3523  1.2021 -1.4917
  591MOL0     H77959   1.258   9.504   1.822 -0.2396 -0.2005 -1.1329
  591MOL0     H77960   1.113   9.573   1.900  0.4241  0.5381  1.6595
  591MOL0     H77961   1.116   9.371   1.675  5.5973 -2.2054  4.9508
  591MOL0     H77962   0.976   9.385   1.769 -2.2805  3.4311 -2.4861
  591MOL0     H77963   0.949   9.623   1.729  1.0022 -0.0233  1.1963
  591MOL0     H77964   0.942   9.532   1.581 -2.3693  3.3651  0.2935
  591MOL0     H77965   1.262   9.489   1.521  0.7338 -0.3897  1.5870
  591MOL0     H77966   1.430   9.808   1.388 -1.5361 -0.2447  2.1755
  591MOL0     H77967   1.404   9.648   1.326 -0.9461 -1.7183  0.6138
  591MOL0     H77968   1.526   9.725   1.595  1.4037 -1.1800  1.1396
  591MOL0     H77969   1.618   9.694   1.443  1.0959  1.7957  2.4265
  591MOL0     H77970   1.486   9.477   1.606  1.0165  2.1877  2.2184
  591MOL0     H77971   1.522   9.480   1.433  1.2919  1.0882 -1.3560
  591MOL0     H77972   1.687   9.395   1.656  0.9052 -0.4638 -0.6911
  591MOL0     H77973   1.740   9.559   1.617  0.8683 -1.1770  1.3013
  591MOL0     H77974   1.916   9.339   1.274  3.0287 -1.1232 -2.0639
  591MOL0     H77975   2.158   9.309   1.287 -0.4776  1.3187 -1.0794
  591MOL0     H77976   2.507   9.447   1.808 -0.9406 -0.8761  0.5509
  591MOL0     H77977   2.740   9.406   1.853 -2.4637 -3.0604 -0.8184
  591MOL0     H77978   3.052   9.517   1.554  3.8487 -1.9750 -2.4787
  591MOL0     H77979   2.993   9.373   1.481 -3.1491 -0.2901  0.9267
  591MOL0     H77980   3.141   9.244   1.646 -0.0868 -0.4363  0.0391
  591MOL0     H77981   3.215   9.398   1.689  1.0060  0.2727 -0.6463
  591MOL0     H77982   3.267   9.424   1.452 -1.6731  0.3854  1.1881
  591MOL0     H77983   3.207   9.258   1.424 -1.9917 -0.3810  0.1272
  591MOL0     H77984   3.421   9.302   1.631  0.1670 -1.5256  0.1896
  591MOL0     H77985   3.376   9.157   1.548  1.6789  0.0538 -1.6522
  591MOL0     H77986   3.496   9.386   1.380  0.1209 -0.3722 -0.6271
  591MOL0     H77987   3.464   9.209   1.339  2.5196 -1.7102  1.4951
  591MOL0     H77988   3.660   9.311   1.536 -1.6575  2.1275 -0.6293
  591MOL0     H77989   3.711   9.285   1.377  3.7298 -0.0902  3.1732
  591MOL0     H77990   3.579   9.044   1.513 -1.2201  0.4969 -0.7664
  591MOL0     H77991   3.691   9.057   1.376 -0.3385  0.5244  0.3398
  591MOL0     H77992   3.762   9.102   1.663  0.5820 -1.3768  1.0587
  591MOL0     H77993   3.870   9.126   1.526 -0.5807  0.3234 -1.3042
  591MOL0     H77994   2.802   9.428   1.420 -0.1320  0.7682 -0.3863
  591MOL0     H77995   2.568   9.479   1.396 -0.2442 -2.8724 -0.4824
  591MOL0     H77996   2.161   9.420   1.705 -0.2207 -1.8595  0.5126
  591MOL0     H77997   1.923   9.444   1.697 -0.5629 -2.7786  0.5436
  591MOL0     H77998   1.823   8.877   2.019 -1.2028  0.0365 -0.6649
  591MOL0     H77999   2.057   8.811   1.995  1.6056 -0.6409 -3.7657
  591MOL0     H78000   2.477   8.836   1.978  0.3773  0.8588 -0.1302
  591MOL0     H78001   2.708   8.764   1.946 -0.6960 -0.3414  0.5058
  591MOL0     H78002   2.928   8.884   1.560 -0.0471 -1.8550  0.1281
  591MOL0     H78003   2.875   8.723   1.608 -0.7534 -0.8054  1.9865
  591MOL0     H78004   3.077   8.707   1.737 -2.2149  0.5372  0.8551
  591MOL0     H78005   3.117   8.724   1.565 -2.5217 -3.5760  0.9991
  591MOL0     H78006   3.124   8.958   1.762  0.1043  0.8687  0.6792
  591MOL0     H78007   3.160   8.959   1.586  1.0079 -1.6012 -0.4225
  591MOL0     H78008   3.363   8.982   1.693 -1.0467  1.0982  0.1945
  591MOL0     H78009   3.317   8.840   1.801  1.0730 -2.0557 -1.3215
  591MOL0     H78010   3.451   8.701   1.403 -2.3151  2.1763 -2.3513
  591MOL0     H78011   2.766   9.052   1.648  1.8127 -0.2507  2.2814
  591MOL0     H78012   2.551   9.143   1.687 -0.0221  0.9616  3.2225
  592MOL0     O78013   3.145   5.271   5.967 -0.0914  0.1681  0.1274
  592MOL0     C78014   3.212   5.315   6.058  0.4896  0.1603  0.1978
  592MOL0     O78015   3.167   5.377   6.167 -0.1380 -0.0252  0.5437
  592MOL0     C78016   3.027   5.374   6.181  1.0184 -0.9910 -1.1517
  592MOL0     C78017   2.962   5.496   6.202  0.1292  0.1256 -0.4355
  592MOL0     C78018   2.818   5.494   6.212 -0.1221  0.7691  0.6980
  592MOL0     C78019   2.739   5.378   6.200  0.1670 -0.5588 -0.8735
  592MOL0     O78020   2.600   5.381   6.210 -0.1086 -0.2955  0.0350
  592MOL0     C78021   2.539   5.275   6.285  0.9779  0.3382 -0.5825
  592MOL0     C78022   2.392   5.290   6.304  1.0719 -0.2114  0.2230
  592MOL0     C78023   2.344   5.357   6.428  0.8145 -1.0419  0.3710
  592MOL0     C78024   2.188   5.365   6.452 -0.0857 -0.3242  0.1235
  592MOL0     C78025   2.126   5.480   6.374 -0.2644 -0.1380  0.4484
  592MOL0     C78026   2.139   5.621   6.446 -0.3216 -0.0939 -0.5081
  592MOL0     C78027   2.065   5.641   6.582 -0.0573 -0.4634  0.5675
  592MOL0     C78028   1.914   5.600   6.562 -0.3841  0.4942  0.2293
  592MOL0     N78029   1.825   5.652   6.656 -0.4015  0.3444 -0.0361
  592MOL0     C78030   1.757   5.575   6.741  0.0530 -1.0480  0.6572
  592MOL0     C78031   1.657   5.654   6.790  0.0816  0.6164  0.3341
  592MOL0     C78032   1.566   5.607   6.896  0.5126 -0.3139 -0.3475
  592MOL0     C78033   1.596   5.649   7.043 -0.4699 -0.1839  0.3900
  592MOL0     C78034   1.589   5.804   7.069  0.5134 -0.6311 -0.6018
  592MOL0     C78035   1.439   5.859   7.084  0.4656  0.1849  0.1966
  592MOL0     O78036   1.428   5.999   7.116  0.0369  0.1591 -0.3679
  592MOL0     C78037   1.296   6.032   7.121 -0.6095 -0.2507 -0.3495
  592MOL0     C78038   1.249   6.140   7.053 -0.1608 -0.4681 -0.0975
  592MOL0     C78039   1.117   6.186   7.063 -0.0765 -0.4902  0.0581
  592MOL0     C78040   1.024   6.122   7.158 -0.3742  0.3306  0.0109
  592MOL0     C78041   0.887   6.170   7.190 -0.5182  0.3228 -0.2543
  592MOL0     O78042   0.807   6.085   7.260  0.0753 -0.5978  0.0611
  592MOL0     C78043   0.682   6.130   7.292  0.3590  0.3926 -0.1221
  592MOL0     C78044   0.656   6.206   7.407 -0.3448  0.0457  0.5613
  592MOL0     C78045   0.525   6.223   7.453  0.8467  0.7240 -0.2773
  592MOL0     C78046   0.423   6.174   7.382  0.2006  0.0917 -0.5539
  592MOL0     O78047   0.291   6.176   7.413 -0.0222  0.0928 -0.1719
  592MOL0     C78048   0.247   6.225   7.543  0.2130 -0.3505  0.1826
  592MOL0     C78049   0.120   6.159   7.581  0.4923  0.3650 -0.8347
  592MOL0     C78050   0.139   6.001   7.592  0.2960 -0.2522 -0.0130
  592MOL0     C78051   0.004   5.925   7.597  0.3473  0.1791  0.7952
  592MOL0     C78052   0.031   5.770   7.624 -0.1225 -1.0162 -0.2183
  592MOL0     C78053  -0.099   5.703   7.664 -0.1723 -0.0090  0.5482
  592MOL0     C78054  -0.223   5.709   7.567  0.7796 -0.4848 -0.6842
  592MOL0     C78055  -0.193   5.637   7.434 -0.7992 -0.0662  0.1281
  592MOL0    Cl78056  -0.199   5.449   7.457  0.1341 -0.1584  0.3540
  592MOL0     C78057   0.446   6.119   7.255  0.1806 -0.5751 -0.1209
  592MOL0     C78058   0.582   6.092   7.218  1.0433  1.0785  0.1057
  592MOL0     O78059   0.861   6.285   7.159  0.1190  0.7359 -0.4498
  592MOL0     C78060   1.081   6.020   7.236 -0.0080  0.0866 -0.4033
  592MOL0     C78061   1.209   5.973   7.218 -0.9834  0.0338  0.8763
  592MOL0     N78062   1.671   5.780   6.733  0.2022 -0.0096 -0.3617
  592MOL0     N78063   1.770   5.776   6.652  0.4967 -0.1230  0.4541
  592MOL0     C78064   2.812   5.259   6.180 -0.0658  0.0075 -0.3530
  592MOL0     C78065   2.947   5.262   6.168 -0.2920  0.9340  1.0664
  592MOL0     C78066   3.349   5.296   6.032 -0.1330 -0.7507 -1.0242
  592MOL0     C78067   3.412   5.288   5.908  0.6539 -0.3460 -1.1109
  592MOL0     C78068   3.549   5.267   5.908 -0.1804 -0.4176 -0.5948
  592MOL0     C78069   3.635   5.272   6.017  0.6483  0.2637  0.8689
  592MOL0     O78070   3.769   5.251   5.992  0.5869  0.2804 -0.6634
  592MOL0     C78071   3.866   5.209   6.094  0.3155  1.0224  0.2714
  592MOL0     C78072   3.926   5.331   6.158 -0.9053 -0.7434 -0.2535
  592MOL0     C78073   4.044   5.394   6.075 -0.4206  0.2693 -0.3695
  592MOL0     C78074   4.143   5.465   6.169 -0.3352 -1.0657 -0.2088
  592MOL0     C78075   4.079   5.566   6.258  0.2398  0.1418  0.0145
  592MOL0     C78076   4.016   5.653   6.319 -0.3405  0.6978  0.5925
  592MOL0     C78077   3.572   5.283   6.141 -0.7209 -0.3806  0.5439
  592MOL0     C78078   3.437   5.292   6.151 -1.2722  0.4181  1.0153
  592MOL0     H78079   3.022   5.585   6.215  1.2103 -0.4081 -1.5181
  592MOL0     H78080   2.761   5.586   6.210 -1.0851  0.1787 -1.0496
  592MOL0     H78081   2.589   5.257   6.380  0.6647  1.7503 -0.1431
  592MOL0     H78082   2.547   5.189   6.217 -0.1456 -0.2580  0.0176
  592MOL0     H78083   2.356   5.187   6.300 -1.3558  0.3181  3.7360
  592MOL0     H78084   2.355   5.348   6.218  0.5156 -0.0354  0.5794
  592MOL0     H78085   2.382   5.457   6.450 -1.0617 -0.5612  1.6949
  592MOL0     H78086   2.384   5.300   6.513  1.6064  0.4869  1.0556
  592MOL0     H78087   2.150   5.274   6.406 -0.9955 -0.1751  0.5561
  592MOL0     H78088   2.160   5.353   6.557 -0.5774  0.4025  0.0848
  592MOL0     H78089   2.024   5.448   6.350  0.2654 -0.9628 -0.7924
  592MOL0     H78090   2.194   5.481   6.289  0.8990 -2.6337  1.2405
  592MOL0     H78091   2.114   5.710   6.387  1.7728 -0.1333 -1.5392
  592MOL0     H78092   2.247   5.627   6.460 -0.3901  1.8977 -0.4735
  592MOL0     H78093   2.113   5.587   6.664  1.4346 -1.5968 -0.9928
  592MOL0     H78094   2.070   5.746   6.612  0.9251  0.0693 -1.3430
  592MOL0     H78095   1.897   5.492   6.556  0.2930  0.2809  1.7424
  592MOL0     H78096   1.886   5.651   6.470 -2.0189 -1.5998 -0.5035
  592MOL0     H78097   1.767   5.469   6.765 -0.7565 -1.3906 -0.4348
  592MOL0     H78098   1.567   5.498   6.895  1.5534 -0.3230  0.0422
  592MOL0     H78099   1.464   5.641   6.873  0.0363  0.3623  2.4262
  592MOL0     H78100   1.703   5.626   7.053 -0.0930  1.9595  2.3807
  592MOL0     H78101   1.539   5.594   7.117  1.0006 -2.4431 -0.0572
  592MOL0     H78102   1.631   5.815   7.169 -2.6085  0.2128  0.7383
  592MOL0     H78103   1.645   5.869   7.001 -2.1271  0.0641 -2.2820
  592MOL0     H78104   1.393   5.793   7.158 -0.0001  0.2117 -0.0666
  592MOL0     H78105   1.394   5.841   6.986  1.6329 -1.8387 -0.0410
  592MOL0     H78106   1.303   6.187   6.972 -1.3950 -0.4005 -0.9173
  592MOL0     H78107   1.080   6.261   6.994  0.7149 -0.6858 -0.5866
  592MOL0     H78108   0.739   6.252   7.459  0.8429 -2.2442  0.8125
  592MOL0     H78109   0.524   6.287   7.540  2.6323  2.5180 -1.4719
  592MOL0     H78110   0.216   6.330   7.539 -1.1515 -0.7552 -3.0671
  592MOL0     H78111   0.327   6.198   7.612 -0.3940 -0.9791  0.6563
  592MOL0     H78112   0.041   6.171   7.506  0.4497  1.7157 -0.6013
  592MOL0     H78113   0.083   6.212   7.669  1.6887  0.8669 -0.6128
  592MOL0     H78114   0.195   5.964   7.678  0.5614 -3.0137 -1.2403
  592MOL0     H78115   0.186   5.964   7.500 -0.6542 -0.3501 -0.4787
  592MOL0     H78116  -0.072   5.969   7.662 -1.7857 -1.4841 -0.4168
  592MOL0     H78117  -0.036   5.932   7.496  1.6265  0.0490  0.2577
  592MOL0     H78118   0.101   5.768   7.708 -1.1098  2.3604  0.8467
  592MOL0     H78119   0.075   5.721   7.537 -2.2526 -3.5520  0.0102
  592MOL0     H78120  -0.131   5.731   7.765  0.2430 -0.6229  0.8523
  592MOL0     H78121  -0.069   5.598   7.662  0.6066  0.2017  0.5761
  592MOL0     H78122  -0.309   5.657   7.611  1.7670 -2.1854 -0.6837
  592MOL0     H78123  -0.240   5.815   7.548 -0.4116 -0.2632  1.2774
  592MOL0     H78124  -0.095   5.657   7.389  0.6621 -0.2056  3.0334
  592MOL0     H78125  -0.269   5.670   7.362  0.1156 -0.0271 -0.8566
  592MOL0     H78126   0.366   6.072   7.199  0.7783  1.0649 -2.5314
  592MOL0     H78127   0.592   6.048   7.120  1.7288 -1.4853  1.2363
  592MOL0     H78128   1.018   5.965   7.305 -0.1954 -3.0032 -2.8345
  592MOL0     H78129   1.245   5.893   7.283 -2.9558  0.8732  3.1863
  592MOL0     H78130   2.756   5.167   6.167 -2.0227  0.6155  2.8764
  592MOL0     H78131   2.999   5.168   6.151  0.4826  1.3888  0.8967
  592MOL0     H78132   3.360   5.288   5.813  0.6216 -3.4909 -1.1914
  592MOL0     H78133   3.598   5.250   5.813 -0.5909  0.7225 -1.0200
  592MOL0     H78134   3.945   5.157   6.039 -1.8853 -1.7863 -0.4216
  592MOL0     H78135   3.819   5.157   6.178  0.0032  0.8913  0.0166
  592MOL0     H78136   3.855   5.410   6.182  1.0957  1.2654 -0.6461
  592MOL0     H78137   3.979   5.295   6.247 -2.8088  2.0909  2.2516
  592MOL0     H78138   3.990   5.461   6.008  2.6860  1.0710 -2.3141
  592MOL0     H78139   4.094   5.318   6.014 -2.3982 -0.3351 -1.3159
  592MOL0     H78140   4.209   5.388   6.211 -0.9398 -1.4886 -0.0261
  592MOL0     H78141   4.213   5.531   6.116 -0.2230 -1.2193 -0.2505
  592MOL0     H78142   3.968   5.728   6.379 -3.4407 -0.7888  0.1944
  592MOL0     H78143   3.635   5.298   6.228 -0.8255 -0.2783  0.6022
  592MOL0     H78144   3.396   5.323   6.247 -1.0267 -1.6175  1.8266
  593MOL0     O78145   0.961   2.906   1.088  0.8070 -0.0675  0.3483
  593MOL0     C78146   0.973   2.787   1.114 -0.1794  0.7625 -0.3772
  593MOL0     O78147   0.870   2.693   1.128  0.3927 -1.5124  0.0338
  593MOL0     C78148   0.738   2.726   1.122 -0.2241 -0.3049  0.0356
  593MOL0     C78149   0.656   2.644   1.192  0.4657  1.0031  1.0217
  593MOL0     C78150   0.514   2.663   1.193  0.5972 -0.0021  0.7026
  593MOL0     C78151   0.458   2.771   1.121  0.6446 -0.4712 -0.9731
  593MOL0     O78152   0.328   2.816   1.101  0.6983  0.5677  0.2757
  593MOL0     C78153   0.227   2.715   1.134 -0.4243  0.1719  0.3365
  593MOL0     C78154   0.096   2.772   1.073 -0.6176 -0.0604 -0.5083
  593MOL0     C78155  -0.034   2.689   1.091 -0.7504  0.2447 -0.6589
  593MOL0     C78156  -0.149   2.787   1.047 -0.0005  0.2661  0.7264
  593MOL0     C78157  -0.284   2.715   1.057 -0.8153  0.1910 -0.0927
  593MOL0     C78158  -0.405   2.816   1.049  0.2970  0.1956  0.8640
  593MOL0     C78159  -0.525   2.747   1.108  0.5981  0.6309 -0.4267
  593MOL0     C78160  -0.642   2.842   1.107 -0.1111  0.9440  0.0541
  593MOL0     N78161  -0.767   2.787   1.170  0.3504 -0.1966  0.0042
  593MOL0     C78162  -0.803   2.656   1.175  0.7657  0.1316 -0.5532
  593MOL0     C78163  -0.921   2.661   1.236  0.4215 -0.7353 -0.9876
  593MOL0     C78164  -1.016   2.551   1.282  1.3164  0.0011 -0.0745
  593MOL0     C78165  -0.967   2.417   1.230 -0.0475 -0.7125  0.1627
  593MOL0     C78166  -1.081   2.315   1.242  0.5337  0.3020 -0.1129
  593MOL0     C78167  -1.134   2.281   1.388 -0.0512  1.1286 -0.1000
  593MOL0     O78168  -1.248   2.182   1.373  0.4966  0.8837  0.0045
  593MOL0     C78169  -1.291   2.112   1.481 -0.4734  0.6204 -0.1655
  593MOL0     C78170  -1.250   2.143   1.612  0.5388  0.2501 -0.8345
  593MOL0     C78171  -1.290   2.064   1.723 -0.4276 -0.5343 -0.5084
  593MOL0     C78172  -1.384   1.953   1.705  0.1126 -0.9180  0.5114
  593MOL0     C78173  -1.443   1.870   1.821 -0.6384 -0.0909  0.8668
  593MOL0     O78174  -1.547   1.787   1.795  0.1488  0.7917  0.4530
  593MOL0     C78175  -1.626   1.751   1.901 -0.3256  0.5752  0.3446
  593MOL0     C78176  -1.667   1.611   1.900 -0.2194  0.1071  0.0144
  593MOL0     C78177  -1.758   1.561   1.995  0.8399 -0.4540  0.5305
  593MOL0     C78178  -1.824   1.650   2.085 -0.3730 -0.4110  0.4901
  593MOL0     O78179  -1.913   1.610   2.183  0.3401  0.5902  0.0522
  593MOL0     C78180  -2.016   1.520   2.141  0.7739 -0.3665 -0.6541
  593MOL0     C78181  -2.078   1.465   2.274  0.1433 -0.3272 -0.1122
  593MOL0     C78182  -2.189   1.366   2.252 -0.8702  0.1941  0.5157
  593MOL0     C78183  -2.221   1.325   2.400  0.3076  0.1049  0.0307
  593MOL0     C78184  -2.360   1.265   2.404 -0.0740  0.0743  0.6345
  593MOL0     C78185  -2.383   1.198   2.541 -0.3055  0.1240  0.3050
  593MOL0     C78186  -2.405   1.289   2.661  1.1685 -0.4543 -0.8463
  593MOL0     C78187  -2.399   1.210   2.792  0.6574 -0.8002  0.9179
  593MOL0    Cl78188  -2.528   1.079   2.791 -0.3361  0.2876 -0.1082
  593MOL0     C78189  -1.778   1.785   2.081  1.0295  0.0302 -0.0411
  593MOL0     C78190  -1.680   1.835   1.999  0.1521 -0.1618  0.9297
  593MOL0     O78191  -1.395   1.885   1.938  0.2722 -0.0264  0.6127
  593MOL0     C78192  -1.427   1.929   1.571  0.2830  0.3386 -0.4571
  593MOL0     C78193  -1.377   2.003   1.457 -0.0380 -0.1522 -0.1427
  593MOL0     N78194  -0.950   2.792   1.280  0.5033  0.1228 -0.1353
  593MOL0     N78195  -0.848   2.861   1.246  0.0860 -0.0050  0.2400
  593MOL0     C78196   0.548   2.859   1.050 -0.2771 -0.5899  0.3361
  593MOL0     C78197   0.682   2.837   1.055 -0.5084  0.6365  0.1025
  593MOL0     C78198   1.111   2.736   1.132 -1.2957  0.2835  0.3866
  593MOL0     C78199   1.228   2.812   1.095  0.5980 -0.1792  0.7626
  593MOL0     C78200   1.348   2.754   1.116  0.7961  0.0354  1.0761
  593MOL0     C78201   1.371   2.632   1.183 -0.7729  0.1154 -0.2658
  593MOL0     O78202   1.501   2.588   1.200  0.2227  0.3221 -0.1472
  593MOL0     C78203   1.533   2.451   1.219 -0.4165 -0.0773  0.0385
  593MOL0     C78204   1.677   2.416   1.225 -0.7278 -0.4041  0.3779
  593MOL0     C78205   1.712   2.273   1.180 -0.2525 -0.5984 -0.3921
  593MOL0     C78206   1.862   2.252   1.146 -0.3323 -0.3453  0.4747
  593MOL0     C78207   1.952   2.259   1.262 -0.2057 -0.4436  0.7698
  593MOL0     C78208   2.017   2.278   1.355  0.6808 -0.1976 -0.0627
  593MOL0     C78209   1.258   2.549   1.211 -0.1194 -0.3297 -0.1720
  593MOL0     C78210   1.131   2.608   1.185  0.2670 -0.2122  0.5348
  593MOL0     H78211   0.714   2.566   1.239  1.9670 -0.3160 -2.6639
  593MOL0     H78212   0.459   2.581   1.237  2.2327 -1.9469 -0.6937
  593MOL0     H78213   0.220   2.697   1.242 -0.9414  0.3686  0.3398
  593MOL0     H78214   0.239   2.625   1.073 -0.1605  1.0821 -0.9978
  593MOL0     H78215   0.120   2.770   0.966 -2.4893  0.7181 -0.9893
  593MOL0     H78216   0.085   2.878   1.098 -2.4200 -0.4765  0.6607
  593MOL0     H78217  -0.048   2.671   1.197 -0.4704 -2.5238 -1.0319
  593MOL0     H78218  -0.029   2.594   1.036 -0.0625 -1.3110  1.9496
  593MOL0     H78219  -0.145   2.874   1.114 -2.6296  0.7090  0.4316
  593MOL0     H78220  -0.138   2.818   0.943 -0.7803  0.4076  0.6789
  593MOL0     H78221  -0.274   2.658   1.150  1.0152  1.2128  0.3908
  593MOL0     H78222  -0.300   2.645   0.975 -0.9408  1.4856 -1.1994
  593MOL0     H78223  -0.402   2.835   0.942  2.4882 -1.4613  0.5569
  593MOL0     H78224  -0.389   2.907   1.108 -0.8390 -1.2872  3.6760
  593MOL0     H78225  -0.559   2.663   1.047  0.5787 -3.1343  4.2396
  593MOL0     H78226  -0.497   2.712   1.208  0.1480 -0.6596 -0.7365
  593MOL0     H78227  -0.657   2.875   1.004  0.0325 -1.0335 -0.6428
  593MOL0     H78228  -0.620   2.932   1.165 -2.5966  1.2163  0.7213
  593MOL0     H78229  -0.757   2.571   1.126 -1.1233 -1.0339 -0.4061
  593MOL0     H78230  -1.111   2.580   1.235  1.4905  0.5288 -0.1096
  593MOL0     H78231  -1.023   2.566   1.390  1.8098  1.2066 -0.1948
  593MOL0     H78232  -0.881   2.384   1.289 -0.8340  1.7941  3.0033
  593MOL0     H78233  -0.945   2.418   1.123 -1.2056 -1.5241 -0.1014
  593MOL0     H78234  -1.161   2.344   1.173 -1.8994 -1.9038  1.5705
  593MOL0     H78235  -1.049   2.221   1.196  1.7744  0.2335  0.8339
  593MOL0     H78236  -1.177   2.366   1.442 -0.6262 -0.4990  2.1761
  593MOL0     H78237  -1.047   2.242   1.441 -0.7116 -1.2311 -0.6225
  593MOL0     H78238  -1.203   2.238   1.632  0.3629 -0.5597  5.0800
  593MOL0     H78239  -1.267   2.086   1.827 -2.4417  2.1266 -0.5331
  593MOL0     H78240  -1.636   1.537   1.826 -1.8286 -0.0338 -0.5532
  593MOL0     H78241  -1.785   1.456   1.991 -0.9821 -0.0154 -4.3540
  593MOL0     H78242  -1.974   1.442   2.077 -1.6366 -2.4659  0.1863
  593MOL0     H78243  -2.092   1.581   2.091 -2.4469 -1.4551  2.5170
  593MOL0     H78244  -2.114   1.548   2.335  2.0008 -0.6202  1.4339
  593MOL0     H78245  -2.005   1.421   2.341  0.6828  0.4587 -0.1684
  593MOL0     H78246  -2.157   1.282   2.191 -0.4649  0.8036 -0.1277
  593MOL0     H78247  -2.272   1.419   2.204  1.5987  0.5974 -3.8672
  593MOL0     H78248  -2.151   1.251   2.439  2.9334  0.3170 -3.7399
  593MOL0     H78249  -2.212   1.408   2.470 -0.1137  1.7850 -1.8339
  593MOL0     H78250  -2.357   1.190   2.325  2.2954  1.3555 -0.6341
  593MOL0     H78251  -2.435   1.336   2.368 -1.7871 -1.5218  0.9309
  593MOL0     H78252  -2.314   1.113   2.539 -4.2991 -3.4384 -1.6638
  593MOL0     H78253  -2.483   1.155   2.530 -0.3167  0.2603 -0.1268
  593MOL0     H78254  -2.338   1.375   2.664  1.1185 -0.4033 -1.1212
  593MOL0     H78255  -2.505   1.334   2.655  0.6249 -1.7189 -1.8536
  593MOL0     H78256  -2.402   1.280   2.876 -1.2125 -2.2627  2.1528
  593MOL0     H78257  -2.306   1.153   2.803  2.0173  1.6502  2.9840
  593MOL0     H78258  -1.826   1.861   2.142 -1.7077  1.3677 -3.5280
  593MOL0     H78259  -1.634   1.933   2.010 -0.4342  0.0536  1.4958
  593MOL0     H78260  -1.493   1.845   1.554  0.7256  0.2222 -1.6290
  593MOL0     H78261  -1.398   1.973   1.355  1.5226 -2.4112  0.1348
  593MOL0     H78262   0.504   2.935   0.987  1.7865  1.1420  0.8464
  593MOL0     H78263   0.746   2.899   0.993  0.1555 -1.3428 -1.2824
  593MOL0     H78264   1.212   2.905   1.042 -0.1256  0.6046  2.2987
  593MOL0     H78265   1.433   2.811   1.080 -0.2380  1.5577  0.9435
  593MOL0     H78266   1.477   2.386   1.151  2.6247 -2.9177  0.0547
  593MOL0     H78267   1.497   2.434   1.321  0.1020  0.8844  0.3967
  593MOL0     H78268   1.737   2.479   1.159  1.8632 -2.4439  0.6658
  593MOL0     H78269   1.714   2.427   1.327  1.2627 -0.8940 -0.2570
  593MOL0     H78270   1.653   2.255   1.089 -0.8243 -1.8211  0.1982
  593MOL0     H78271   1.677   2.205   1.258 -1.8974 -3.0662 -3.0673
  593MOL0     H78272   1.888   2.158   1.096  2.5330  1.0128 -0.8254
  593MOL0     H78273   1.896   2.330   1.078  0.8141  0.3185  1.7694
  593MOL0     H78274   2.087   2.291   1.435 -1.0453  1.3514  1.2732
  593MOL0     H78275   1.266   2.448   1.250  1.2526 -0.0505  0.3055
  593MOL0     H78276   1.046   2.554   1.225  0.2904 -0.2688  0.5086
  594MOL0     O78277   9.127   5.303  10.693 -0.2254  0.6885  1.2279
  594MOL0     C78278   9.187   5.395  10.747 -0.8186  0.4059  0.2221
  594MOL0     O78279   9.134   5.505  10.807 -0.7213  0.1542 -0.1282
  594MOL0     C78280   9.002   5.505  10.841  0.5596  0.1793 -0.6536
  594MOL0     C78281   8.889   5.462  10.765  0.7295  0.0565  1.1666
  594MOL0     C78282   8.753   5.483  10.805 -0.1577 -0.2206 -0.1862
  594MOL0     C78283   8.726   5.543  10.924 -0.0733  0.0134  0.0059
  594MOL0     O78284   8.592   5.558  10.960  0.2570 -0.2369 -0.3587
  594MOL0     C78285   8.559   5.603  11.098  0.3045 -0.0275  0.9799
  594MOL0     C78286   8.418   5.554  11.121  1.1206 -0.2270  0.1551
  594MOL0     C78287   8.313   5.631  11.027 -1.0511  0.0817  0.5353
  594MOL0     C78288   8.167   5.593  11.065 -0.5638 -0.8769 -0.3401
  594MOL0     C78289   8.081   5.693  10.989  0.5122  0.5165 -0.6778
  594MOL0     C78290   7.929   5.644  11.020  0.5248 -0.1986  0.1234
  594MOL0     C78291   7.832   5.721  10.932  0.2210  0.4655  0.6336
  594MOL0     C78292   7.792   5.859  10.980 -0.1756 -0.2079 -0.1616
  594MOL0     N78293   7.727   5.857  11.112 -0.0944  0.4040 -0.1343
  594MOL0     C78294   7.710   5.969  11.183 -0.6727 -0.2817  0.5737
  594MOL0     C78295   7.610   5.950  11.275  0.4959  1.0474  0.9093
  594MOL0     C78296   7.545   6.058  11.354 -0.3842 -0.8428 -0.9058
  594MOL0     C78297   7.433   6.138  11.292 -0.2468  0.2157 -0.8656
  594MOL0     C78298   7.376   6.226  11.393 -0.1916  0.3821 -0.8872
  594MOL0     C78299   7.251   6.298  11.335 -0.9107  0.6080 -0.6149
  594MOL0     O78300   7.181   6.364  11.434  0.5812 -0.3987 -0.3913
  594MOL0     C78301   7.045   6.392  11.440  0.0255  0.1034 -0.0714
  594MOL0     C78302   6.959   6.342  11.342  0.1520 -1.1821  0.4599
  594MOL0     C78303   6.831   6.391  11.331  0.5552  0.4163 -0.1684
  594MOL0     C78304   6.770   6.486  11.419  0.7436 -0.0046 -0.3563
  594MOL0     C78305   6.642   6.546  11.383 -0.1510 -0.2005  0.9675
  594MOL0     O78306   6.586   6.501  11.268 -0.3098  0.0996  0.0646
  594MOL0     C78307   6.452   6.505  11.236 -0.1573  0.0512 -1.1259
  594MOL0     C78308   6.348   6.548  11.327 -0.5477  0.2634 -0.5811
  594MOL0     C78309   6.209   6.555  11.291 -0.3268  0.6602  0.0089
  594MOL0     C78310   6.179   6.513  11.155  0.0953  0.1459  0.1448
  594MOL0     O78311   6.052   6.525  11.114 -0.5587 -0.1305  0.1371
  594MOL0     C78312   5.943   6.545  11.207 -0.5713  0.1359  0.7280
  594MOL0     C78313   5.817   6.504  11.141 -1.3322 -0.5425 -0.0883
  594MOL0     C78314   5.703   6.521  11.249  0.0244 -0.2531  0.4065
  594MOL0     C78315   5.580   6.446  11.193  0.5496  0.2709 -0.3602
  594MOL0     C78316   5.456   6.506  11.261 -0.4537 -0.6333 -0.1085
  594MOL0     C78317   5.341   6.415  11.263 -1.0091 -0.0519  0.0895
  594MOL0     C78318   5.209   6.498  11.286 -0.0250 -0.0685  0.3266
  594MOL0     C78319   5.087   6.408  11.327 -0.5680 -0.7076  0.5406
  594MOL0    Cl78320   5.124   6.334  11.487  0.4838 -0.0869 -0.4419
  594MOL0     C78321   6.281   6.466  11.075 -0.0229  0.1871 -0.0333
  594MOL0     C78322   6.419   6.466  11.111  0.5479  0.5369  0.8139
  594MOL0     O78323   6.600   6.645  11.445 -0.3329  0.3383  0.4708
  594MOL0     C78324   6.854   6.532  11.521  0.0422  0.2399 -1.0154
  594MOL0     C78325   6.985   6.486  11.527 -0.0677 -0.7889  0.2184
  594MOL0     N78326   7.564   5.814  11.249 -0.4230 -0.5055 -0.5957
  594MOL0     N78327   7.638   5.768  11.155  0.4022 -0.5036  0.6392
  594MOL0     C78328   8.835   5.580  11.010  0.9636 -0.5565  0.1964
  594MOL0     C78329   8.970   5.568  10.966  0.1681 -0.2575 -0.0247
  594MOL0     C78330   9.343   5.398  10.729  0.4503  0.1345  0.2530
  594MOL0     C78331   9.415   5.489  10.814  0.0813 -0.1056  0.5882
  594MOL0     C78332   9.552   5.510  10.793  0.1146 -1.3169  0.8930
  594MOL0     C78333   9.616   5.441  10.697  0.6958  0.3678  0.2984
  594MOL0     O78334   9.751   5.465  10.684 -0.3224  0.1840 -0.1018
  594MOL0     C78335   9.819   5.442  10.559 -0.1141  0.6299  0.0285
  594MOL0     C78336   9.898   5.312  10.551 -0.3854  0.3993 -0.5783
  594MOL0     C78337  10.016   5.303  10.647 -1.4679  0.2702 -0.8177
  594MOL0     C78338  10.151   5.381  10.614 -0.9461  0.1278  0.1704
  594MOL0     C78339  10.212   5.325  10.487  0.1293 -0.6907 -0.5731
  594MOL0     C78340  10.262   5.289  10.385 -0.0683 -1.0905  0.6091
  594MOL0     C78341   9.547   5.349  10.621 -0.4247  0.0877  0.8075
  594MOL0     C78342   9.413   5.328  10.634  0.2187  0.1394  0.2365
  594MOL0     H78343   8.902   5.404  10.673 -0.1174  0.9906  0.4367
  594MOL0     H78344   8.664   5.471  10.744 -1.3985  1.6234  1.1539
  594MOL0     H78345   8.557   5.709  11.124 -2.7172  1.5455 -4.2506
  594MOL0     H78346   8.617   5.536  11.162  2.0861 -0.1614 -0.7085
  594MOL0     H78347   8.387   5.558  11.226  1.6186 -2.2531  0.4324
  594MOL0     H78348   8.414   5.450  11.086 -2.3654  0.5948 -2.5091
  594MOL0     H78349   8.343   5.613  10.924  3.5976  2.0027  1.2873
  594MOL0     H78350   8.330   5.739  11.037  0.6419 -0.0074 -1.0069
  594MOL0     H78351   8.147   5.494  11.024 -1.2374 -0.3430 -1.3277
  594MOL0     H78352   8.146   5.597  11.172  1.2459 -2.4131  0.1366
  594MOL0     H78353   8.113   5.690  10.884 -0.3449 -2.3826 -0.9259
  594MOL0     H78354   8.089   5.791  11.038 -3.1846  0.4512  0.3095
  594MOL0     H78355   7.903   5.654  11.125 -0.5132 -0.8738 -0.0528
  594MOL0     H78356   7.936   5.536  11.003  2.6277 -0.8075  3.9016
  594MOL0     H78357   7.883   5.729  10.836  0.8973 -0.4518  0.9093
  594MOL0     H78358   7.744   5.657  10.918  1.2499 -1.1544  1.3057
  594MOL0     H78359   7.720   5.896  10.906  0.3094  0.4075 -0.3269
  594MOL0     H78360   7.883   5.918  10.969 -0.9684  1.0632 -0.1542
  594MOL0     H78361   7.759   6.065  11.175 -1.9141  0.4439  1.3455
  594MOL0     H78362   7.624   6.127  11.384 -1.8562 -0.5865  2.8761
  594MOL0     H78363   7.508   6.016  11.448  0.1394  1.5505  0.4371
  594MOL0     H78364   7.362   6.062  11.259  2.2706 -3.0602  0.6555
  594MOL0     H78365   7.467   6.209  11.215  1.1553  1.3234  0.7005
  594MOL0     H78366   7.346   6.162  11.476  0.9226 -2.4150 -2.4940
  594MOL0     H78367   7.447   6.305  11.422  0.3668 -0.3026 -0.3623
  594MOL0     H78368   7.187   6.215  11.303 -0.9539  0.1041  0.7032
  594MOL0     H78369   7.275   6.366  11.253 -1.0603 -0.4449 -1.5460
  594MOL0     H78370   6.981   6.268  11.266  1.6647 -0.4734  0.1897
  594MOL0     H78371   6.776   6.355  11.245 -1.1262 -3.5436  2.2562
  594MOL0     H78372   6.374   6.573  11.429  0.6245 -0.3875 -0.7061
  594MOL0     H78373   6.141   6.590  11.368 -0.8996  0.3553 -0.3525
  594MOL0     H78374   5.931   6.651  11.232 -1.7573  0.9123 -2.6102
  594MOL0     H78375   5.968   6.490  11.298  0.7918 -1.1254 -0.3403
  594MOL0     H78376   5.821   6.400  11.106 -0.6218 -0.0738 -1.5062
  594MOL0     H78377   5.800   6.562  11.049  1.3968  0.2246 -0.1984
  594MOL0     H78378   5.683   6.628  11.263 -1.5086  0.1865 -3.7961
  594MOL0     H78379   5.732   6.462  11.336  0.7149 -1.0386 -0.3375
  594MOL0     H78380   5.573   6.447  11.083 -1.5412  1.5276 -0.2575
  594MOL0     H78381   5.586   6.341  11.224  1.9516 -0.4425 -2.7698
  594MOL0     H78382   5.427   6.593  11.201  1.1831  0.1837  0.2236
  594MOL0     H78383   5.485   6.537  11.362  1.6317 -2.5765 -0.0248
  594MOL0     H78384   5.362   6.340  11.339  1.1032 -1.7568 -2.0570
  594MOL0     H78385   5.353   6.365  11.167 -0.0568  2.0880 -0.9679
  594MOL0     H78386   5.226   6.566  11.370  0.1904  1.6614 -1.0518
  594MOL0     H78387   5.181   6.560  11.200 -2.5431 -0.7496  0.5748
  594MOL0     H78388   5.080   6.331  11.250 -1.0303 -1.5266  1.3850
  594MOL0     H78389   4.995   6.468  11.330  0.2864  0.6586  0.6587
  594MOL0     H78390   6.257   6.408  10.986 -1.7950  0.0062  0.5245
  594MOL0     H78391   6.501   6.420  11.058  0.1966 -0.1763  0.8859
  594MOL0     H78392   6.817   6.588  11.607 -1.1184 -0.7784 -0.8167
  594MOL0     H78393   7.064   6.527  11.589  1.7083  0.8154 -2.8358
  594MOL0     H78394   8.812   5.626  11.106 -3.6620 -3.2990  0.6706
  594MOL0     H78395   9.043   5.609  11.036 -3.2126  1.0979  2.9774
  594MOL0     H78396   9.354   5.544  10.885 -0.6845 -2.4235  1.8194
  594MOL0     H78397   9.612   5.585  10.844  1.6300  0.0681 -2.6365
  594MOL0     H78398   9.899   5.514  10.537 -1.9730  2.2802 -1.8085
  594MOL0     H78399   9.742   5.448  10.482 -0.3987  0.1846  0.2756
  594MOL0     H78400   9.830   5.233  10.583  1.3962  0.2469  3.4797
  594MOL0     H78401   9.925   5.298  10.446  1.7181  1.5456 -0.2387
  594MOL0     H78402  10.046   5.198  10.651 -0.1955  0.6455  0.4386
  594MOL0     H78403   9.984   5.345  10.742  1.2969  1.8336 -0.4444
  594MOL0     H78404  10.134   5.489  10.609 -0.4703  0.2843  1.5827
  594MOL0     H78405  10.216   5.354  10.697 -2.2511  0.2986  1.2834
  594MOL0     H78406  10.317   5.242  10.306 -1.1784 -0.2900 -0.6834
  594MOL0     H78407   9.595   5.295  10.540 -0.6132  0.0503  0.7218
  594MOL0     H78408   9.368   5.248  10.577  2.7248 -0.7627 -0.6028
  595MOL0     O78409   7.882   6.030   1.036  0.3600 -0.1592 -0.0195
  595MOL0     C78410   7.885   5.947   0.945  0.7649 -0.4248 -0.3555
  595MOL0     O78411   7.783   5.883   0.891  0.3833 -0.1147  0.5345
  595MOL0     C78412   7.652   5.899   0.926  1.0247  0.1539  0.0455
  595MOL0     C78413   7.570   5.793   0.882 -0.0171 -0.0262  0.0796
  595MOL0     C78414   7.438   5.787   0.907  0.3001  0.0201  0.7673
  595MOL0     C78415   7.370   5.893   0.980  0.3346  0.1094  0.3547
  595MOL0     O78416   7.237   5.898   1.006  0.1449  0.0312  0.6300
  595MOL0     C78417   7.141   5.817   0.936 -0.5443  0.7105 -0.0672
  595MOL0     C78418   7.058   5.904   0.843  0.5541  0.1460  0.4016
  595MOL0     C78419   6.907   5.862   0.828 -0.3725  0.4466 -0.2921
  595MOL0     C78420   6.824   5.977   0.763  0.0022  0.5984 -0.1004
  595MOL0     C78421   6.671   5.942   0.742  0.0550 -0.4807 -0.5041
  595MOL0     C78422   6.641   5.868   0.607 -0.2463 -0.1535  0.1399
  595MOL0     C78423   6.490   5.844   0.595  0.6532 -0.0852  0.2766
  595MOL0     C78424   6.437   5.723   0.674 -0.2498 -0.3408  0.1804
  595MOL0     N78425   6.297   5.687   0.634 -0.6164 -0.0298  0.8861
  595MOL0     C78426   6.201   5.786   0.626 -0.2777 -0.1042 -0.4976
  595MOL0     C78427   6.083   5.722   0.571 -0.5160 -0.1362 -0.3457
  595MOL0     C78428   5.940   5.765   0.568 -0.6110  0.6120  0.4685
  595MOL0     C78429   5.880   5.736   0.433  0.4449 -0.8004 -0.0613
  595MOL0     C78430   5.736   5.786   0.408  0.1933  0.5901 -0.2714
  595MOL0     C78431   5.632   5.699   0.483 -0.2651 -0.2583 -0.0198
  595MOL0     O78432   5.510   5.772   0.491  0.2553  0.0589  0.2830
  595MOL0     C78433   5.404   5.710   0.545  0.7654  0.2634  0.3951
  595MOL0     C78434   5.278   5.730   0.476 -0.0669  0.3515  0.4143
  595MOL0     C78435   5.163   5.659   0.512 -0.3051 -0.8718 -0.8160
  595MOL0     C78436   5.167   5.577   0.627 -1.8501  0.1698  1.0525
  595MOL0     C78437   5.051   5.493   0.649 -0.4673  0.3561  0.3822
  595MOL0     O78438   5.046   5.436   0.771 -0.6864  1.3470 -1.0172
  595MOL0     C78439   4.949   5.351   0.814  1.0687  0.3319  0.4872
  595MOL0     C78440   4.983   5.261   0.913  0.5210 -0.3603  0.0922
  595MOL0     C78441   4.890   5.158   0.950  0.2902 -0.9106 -0.5959
  595MOL0     C78442   4.759   5.157   0.896  0.2960  0.2057 -0.0300
  595MOL0     O78443   4.661   5.067   0.939 -0.0478 -0.0607 -0.5188
  595MOL0     C78444   4.581   5.129   1.047  0.8078 -0.5235  0.9558
  595MOL0     C78445   4.453   5.033   1.052  0.0389  0.5413  0.1784
  595MOL0     C78446   4.353   5.073   1.166 -0.7648 -0.6663  0.6041
  595MOL0     C78447   4.203   5.018   1.145 -0.0078  0.0623  1.1304
  595MOL0     C78448   4.122   5.010   1.267 -0.1445  0.5420  0.5836
  595MOL0     C78449   4.111   5.150   1.334  0.3025 -0.5483 -0.4119
  595MOL0     C78450   4.035   5.159   1.466  0.7703  0.1093  0.4072
  595MOL0     C78451   4.015   5.309   1.508 -0.1310  0.1140 -0.5841
  595MOL0    Cl78452   4.171   5.381   1.575 -0.0825 -0.3523  0.7742
  595MOL0     C78453   4.728   5.243   0.795 -0.0725  0.2518  0.3476
  595MOL0     C78454   4.823   5.341   0.756 -0.2787  0.0398  0.2098
  595MOL0     O78455   4.970   5.476   0.560  0.2165 -0.0495  0.2787
  595MOL0     C78456   5.290   5.564   0.697  0.0048 -0.1532 -0.3741
  595MOL0     C78457   5.407   5.631   0.661  0.7060  0.5449  0.2684
  595MOL0     N78458   6.123   5.592   0.559 -0.2423  0.2125 -0.2710
  595MOL0     N78459   6.247   5.569   0.591 -0.7166  0.1021  0.4520
  595MOL0     C78460   7.446   5.996   1.028  0.7100  0.6504 -0.1128
  595MOL0     C78461   7.586   6.002   0.999  0.3862 -0.5350 -0.2140
  595MOL0     C78462   8.025   5.911   0.900  0.1531 -0.2501 -0.2781
  595MOL0     C78463   8.130   5.987   0.943 -0.2276  0.4227 -0.5321
  595MOL0     C78464   8.253   5.945   0.893  0.6309 -0.0960 -0.4889
  595MOL0     C78465   8.273   5.837   0.817 -0.0361  0.5798 -0.9352
  595MOL0     O78466   8.404   5.805   0.788 -0.5994 -0.3695  0.2323
  595MOL0     C78467   8.444   5.681   0.728 -0.3074 -0.1884 -0.5703
  595MOL0     C78468   8.583   5.665   0.770 -0.4247 -0.1092  0.2856
  595MOL0     C78469   8.683   5.724   0.679  0.2002 -0.0924  0.1393
  595MOL0     C78470   8.806   5.625   0.689  0.9921 -0.4073  0.4893
  595MOL0     C78471   8.857   5.613   0.555  0.2941  0.2127 -0.3645
  595MOL0     C78472   8.896   5.600   0.443  0.1994  0.3240  0.5577
  595MOL0     C78473   8.168   5.761   0.777 -0.3731 -0.3765 -0.3663
  595MOL0     C78474   8.038   5.803   0.815  0.0687  1.0625  0.3795
  595MOL0     H78475   7.615   5.718   0.817 -3.0707 -1.8773 -0.0863
  595MOL0     H78476   7.384   5.697   0.879  3.0212 -1.6483  0.5441
  595MOL0     H78477   7.077   5.766   1.008 -0.4324  1.1454  0.3463
  595MOL0     H78478   7.184   5.740   0.872 -1.6486 -0.2964  0.3676
  595MOL0     H78479   7.108   5.896   0.746 -2.8947 -3.7059 -1.4029
  595MOL0     H78480   7.056   6.005   0.884 -0.9739  0.4976 -0.4586
  595MOL0     H78481   6.866   5.834   0.925 -0.8997  0.5584 -0.4806
  595MOL0     H78482   6.893   5.765   0.779  1.0984  0.2772 -0.4320
  595MOL0     H78483   6.834   6.070   0.819  0.5552 -0.0713  0.9681
  595MOL0     H78484   6.867   5.991   0.664  0.3225 -2.2840 -0.4576
  595MOL0     H78485   6.624   6.041   0.747  4.6948  2.0129  0.2728
  595MOL0     H78486   6.637   5.885   0.828 -2.2933  0.3786 -0.8058
  595MOL0     H78487   6.694   5.773   0.592 -0.8722 -0.3644 -0.8131
  595MOL0     H78488   6.665   5.928   0.519 -3.8050 -0.1388 -0.9762
  595MOL0     H78489   6.432   5.931   0.626  0.2141 -0.8016  1.5407
  595MOL0     H78490   6.467   5.811   0.493 -0.5364  0.1283  0.4600
  595MOL0     H78491   6.457   5.745   0.779  1.4849  3.0333 -0.7135
  595MOL0     H78492   6.506   5.642   0.649  1.9860  2.3859 -3.5255
  595MOL0     H78493   6.197   5.888   0.663 -2.4294 -0.7676  1.2518
  595MOL0     H78494   5.947   5.873   0.584  1.4869  0.7939 -1.1998
  595MOL0     H78495   5.880   5.726   0.651 -1.9266  0.7962 -0.3702
  595MOL0     H78496   5.893   5.635   0.392  0.2814 -0.9049  0.1444
  595MOL0     H78497   5.948   5.805   0.384  1.9735 -1.5815  0.8646
  595MOL0     H78498   5.731   5.887   0.448  0.0388  0.5107 -0.0865
  595MOL0     H78499   5.709   5.775   0.302  2.7830  3.0253 -1.3095
  595MOL0     H78500   5.675   5.664   0.578  3.1972 -0.7241 -1.5815
  595MOL0     H78501   5.613   5.603   0.434 -1.1969 -0.0245 -0.1261
  595MOL0     H78502   5.286   5.805   0.397  4.1842  1.6568  1.8194
  595MOL0     H78503   5.068   5.680   0.463 -0.1688 -1.2012 -1.2266
  595MOL0     H78504   5.081   5.275   0.958  1.4766 -0.1596 -1.9672
  595MOL0     H78505   4.913   5.098   1.037 -2.7679  1.5528  2.1647
  595MOL0     H78506   4.556   5.229   1.010 -1.0144 -0.5220  2.0905
  595MOL0     H78507   4.628   5.124   1.145 -1.0623  0.2855  1.9474
  595MOL0     H78508   4.492   4.931   1.053 -0.7201  0.2434  0.1660
  595MOL0     H78509   4.402   5.047   0.956 -2.3698  1.5430  1.5154
  595MOL0     H78510   4.340   5.180   1.179 -1.4180 -0.9141  2.1622
  595MOL0     H78511   4.399   5.036   1.258 -3.0426 -1.7603  1.3720
  595MOL0     H78512   4.155   5.084   1.072  1.5354  1.6206  1.4384
  595MOL0     H78513   4.213   4.914   1.113 -0.6733  0.4235 -0.3459
  595MOL0     H78514   4.150   4.931   1.336 -4.3702 -1.8729 -0.1283
  595MOL0     H78515   4.019   4.981   1.246  0.3398  0.2770 -1.7450
  595MOL0     H78516   4.070   5.219   1.261  1.7903 -1.3992 -2.1199
  595MOL0     H78517   4.207   5.195   1.361 -1.1636  0.4926  3.8683
  595MOL0     H78518   3.935   5.116   1.457 -0.3411  2.2532  1.6983
  595MOL0     H78519   4.087   5.104   1.546  0.3579  1.2830  1.5201
  595MOL0     H78520   3.942   5.314   1.589  0.8449 -1.5319  0.4577
  595MOL0     H78521   3.977   5.374   1.429  0.5798  0.4987 -0.6139
  595MOL0     H78522   4.634   5.238   0.740  0.4460 -0.7520 -0.4829
  595MOL0     H78523   4.781   5.411   0.684  2.6031  1.3519 -0.3741
  595MOL0     H78524   5.299   5.493   0.779  0.0657 -0.3836 -0.5820
  595MOL0     H78525   5.495   5.616   0.722  0.2845 -0.5791  0.6256
  595MOL0     H78526   7.396   6.079   1.076  0.5696  0.9101 -0.7057
  595MOL0     H78527   7.641   6.090   1.031 -0.1193 -0.6336  0.9953
  595MOL0     H78528   8.120   6.079   1.000  2.0752 -0.3735  1.3017
  595MOL0     H78529   8.342   6.003   0.918  0.0921  0.5551 -0.0380
  595MOL0     H78530   8.432   5.671   0.620 -2.2737 -4.0903 -0.2040
  595MOL0     H78531   8.384   5.599   0.769  1.6275 -1.1984  0.3859
  595MOL0     H78532   8.615   5.702   0.868  1.8937  0.4746 -0.6289
  595MOL0     H78533   8.594   5.557   0.785 -1.4318 -0.7174 -2.7377
  595MOL0     H78534   8.706   5.825   0.712  0.5348 -0.0887 -0.0965
  595MOL0     H78535   8.645   5.738   0.577  0.6258  0.3938  0.0461
  595MOL0     H78536   8.878   5.661   0.763  1.0378 -0.8000  0.6388
  595MOL0     H78537   8.775   5.524   0.718 -0.9761 -0.1328 -0.5056
  595MOL0     H78538   8.954   5.602   0.354  1.8936  2.2183  1.6308
  595MOL0     H78539   8.192   5.686   0.702 -2.1655  0.3800 -1.7702
  595MOL0     H78540   7.957   5.735   0.791  1.5498 -0.1118 -1.5745
  596MOL0     O78541   0.792   0.687   4.670  0.3549  0.5673 -0.4350
  596MOL0     C78542   0.775   0.686   4.548 -0.7194  0.1626 -0.1430
  596MOL0     O78543   0.656   0.693   4.478 -0.1289  0.0111  0.2359
  596MOL0     C78544   0.542   0.703   4.550 -0.4190 -0.5941 -0.5757
  596MOL0     C78545   0.523   0.791   4.663 -0.2258 -0.3697 -0.4798
  596MOL0     C78546   0.401   0.797   4.723  0.0200 -0.7100 -0.2282
  596MOL0     C78547   0.296   0.711   4.676  0.0888  0.6571 -0.9168
  596MOL0     O78548   0.178   0.724   4.746 -0.2133  0.0777 -0.7497
  596MOL0     C78549   0.084   0.613   4.739 -0.0798  0.1682  0.7173
  596MOL0     C78550  -0.016   0.610   4.853 -0.0151  0.2760  0.8701
  596MOL0     C78551  -0.128   0.717   4.839 -0.8408 -0.4998 -0.2630
  596MOL0     C78552  -0.258   0.686   4.913  0.3108  0.4729 -0.1084
  596MOL0     C78553  -0.360   0.789   4.867  0.7773 -0.3774  0.4229
  596MOL0     C78554  -0.482   0.793   4.963  0.2307 -0.1316  0.2067
  596MOL0     C78555  -0.579   0.669   4.954 -1.2859 -0.5122 -0.0488
  596MOL0     C78556  -0.646   0.639   5.088  0.6063 -0.5661 -0.4061
  596MOL0     N78557  -0.755   0.726   5.127  0.0246  0.2237  0.4070
  596MOL0     C78558  -0.819   0.707   5.246  0.3717 -0.7621  0.5655
  596MOL0     C78559  -0.927   0.785   5.245  0.9479  0.0464 -0.0383
  596MOL0     C78560  -1.041   0.783   5.332 -0.9201  0.1236 -0.6572
  596MOL0     C78561  -1.155   0.694   5.262  1.5030  0.0079 -0.0588
  596MOL0     C78562  -1.277   0.669   5.347  0.1025  0.6087  0.0259
  596MOL0     C78563  -1.364   0.553   5.291  0.3100  0.1378 -0.4029
  596MOL0     O78564  -1.468   0.534   5.383 -0.6794  0.9029  0.1096
  596MOL0     C78565  -1.584   0.476   5.348  0.4659  0.5461 -0.5854
  596MOL0     C78566  -1.607   0.444   5.214 -0.0113  0.4826  0.4437
  596MOL0     C78567  -1.736   0.376   5.182 -0.1899 -0.1979 -0.3358
  596MOL0     C78568  -1.827   0.339   5.285 -0.6268  0.4185 -0.3507
  596MOL0     C78569  -1.952   0.269   5.248  0.1541 -0.1627  0.1664
  596MOL0     O78570  -1.977   0.227   5.124  0.3482  0.1625  0.2137
  596MOL0     C78571  -2.102   0.168   5.113 -0.7566  0.1281  0.3183
  596MOL0     C78572  -2.115   0.030   5.129  0.2605 -0.8845  0.4361
  596MOL0     C78573  -2.237  -0.035   5.107 -0.3870 -0.0608 -0.2638
  596MOL0     C78574  -2.350   0.039   5.065 -0.1842  0.5564 -0.3792
  596MOL0     O78575  -2.451  -0.041   5.016  0.1589 -0.2512  0.1206
  596MOL0     C78576  -2.555   0.031   4.943 -0.1306 -0.4664  0.1862
  596MOL0     C78577  -2.680  -0.052   4.912  0.1942  0.5064 -1.1220
  596MOL0     C78578  -2.751  -0.098   5.043  0.4523  0.0800  0.1987
  596MOL0     C78579  -2.887  -0.182   5.004 -0.5989 -1.0543  0.3295
  596MOL0     C78580  -2.843  -0.318   4.957  0.2427  0.2765  0.4465
  596MOL0     C78581  -2.964  -0.415   4.954  0.7566 -0.0140  0.3532
  596MOL0     C78582  -2.941  -0.563   4.942 -0.7073 -0.3874 -0.4058
  596MOL0     C78583  -2.876  -0.583   4.797 -0.4992 -0.3028  0.4232
  596MOL0    Cl78584  -2.698  -0.561   4.795  0.0572 -0.2438  0.1751
  596MOL0     C78585  -2.338   0.178   5.063 -0.8662  0.3078 -0.9046
  596MOL0     C78586  -2.214   0.249   5.086 -0.3751 -0.3398 -1.2495
  596MOL0     O78587  -2.035   0.271   5.340  0.6491  0.0012 -0.7267
  596MOL0     C78588  -1.780   0.358   5.422 -0.8837 -0.3617 -0.3471
  596MOL0     C78589  -1.657   0.428   5.455  0.8619  0.9006 -0.0490
  596MOL0     N78590  -0.928   0.860   5.122  0.1729 -0.4724 -0.9655
  596MOL0     N78591  -0.822   0.821   5.054  0.1913 -0.2045  0.1899
  596MOL0     C78592   0.319   0.623   4.575  0.2280  0.0273  0.3976
  596MOL0     C78593   0.441   0.625   4.503  0.4908 -0.0123 -0.1433
  596MOL0     C78594   0.903   0.669   4.466  0.6548 -1.3148  0.1745
  596MOL0     C78595   1.021   0.644   4.534 -0.5060  0.2066 -0.2649
  596MOL0     C78596   1.138   0.611   4.466 -0.1636 -0.1758 -0.0742
  596MOL0     C78597   1.147   0.610   4.330  0.8132  0.3286 -0.5464
  596MOL0     O78598   1.261   0.578   4.258 -0.1842  0.1756  0.4723
  596MOL0     C78599   1.387   0.534   4.311  0.9235  0.5653 -0.0777
  596MOL0     C78600   1.491   0.634   4.357 -0.5441 -0.8527 -0.1317
  596MOL0     C78601   1.613   0.551   4.403 -1.1602 -0.3069 -0.1288
  596MOL0     C78602   1.694   0.495   4.286 -0.2170  0.0437 -0.5994
  596MOL0     C78603   1.801   0.399   4.320 -0.4601 -0.2705 -0.6247
  596MOL0     C78604   1.886   0.317   4.359 -1.0827  0.0535  1.3399
  596MOL0     C78605   1.020   0.633   4.260  0.1270  0.7293  0.2892
  596MOL0     C78606   0.899   0.666   4.326  0.5315 -0.4719 -0.7002
  596MOL0     H78607   0.606   0.853   4.693 -1.1586  0.5350  0.3046
  596MOL0     H78608   0.368   0.870   4.796 -3.9642 -2.0710 -0.4483
  596MOL0     H78609   0.137   0.520   4.762  1.0017  0.6307  0.2078
  596MOL0     H78610   0.036   0.618   4.641 -1.2933 -0.5629  1.2529
  596MOL0     H78611   0.026   0.618   4.953 -1.2884  2.8147  1.2979
  596MOL0     H78612  -0.069   0.515   4.841 -2.3258  1.7448 -2.2431
  596MOL0     H78613  -0.148   0.722   4.732 -1.8586  1.3369 -0.0298
  596MOL0     H78614  -0.092   0.814   4.873 -1.1333 -0.5244  0.1212
  596MOL0     H78615  -0.291   0.593   4.867  1.5501 -0.4332  0.7721
  596MOL0     H78616  -0.242   0.680   5.021  3.6247 -1.5980 -0.5675
  596MOL0     H78617  -0.380   0.771   4.760  0.1845 -0.9212  0.6176
  596MOL0     H78618  -0.319   0.890   4.869 -0.0319 -0.0488  0.8998
  596MOL0     H78619  -0.527   0.892   4.975  0.2604 -0.2238  1.1455
  596MOL0     H78620  -0.433   0.783   5.060  0.9698  2.5200  0.1656
  596MOL0     H78621  -0.651   0.691   4.874 -0.5014 -0.3050 -0.7081
  596MOL0     H78622  -0.521   0.585   4.915 -1.9272 -1.2445  0.5544
  596MOL0     H78623  -0.570   0.623   5.164  0.5907 -1.7152 -0.6255
  596MOL0     H78624  -0.696   0.544   5.070 -0.9769  0.0942  0.2318
  596MOL0     H78625  -0.792   0.637   5.324  1.1887  0.6299  1.5769
  596MOL0     H78626  -1.077   0.885   5.345 -0.7435  0.3761 -2.0109
  596MOL0     H78627  -1.004   0.741   5.425  3.3833  1.1535 -1.6934
  596MOL0     H78628  -1.117   0.594   5.244 -0.5039 -0.8338  0.1277
  596MOL0     H78629  -1.174   0.744   5.167 -0.7201 -2.6538 -1.1334
  596MOL0     H78630  -1.239   0.640   5.445  0.6358 -1.1980 -0.6822
  596MOL0     H78631  -1.340   0.759   5.353 -0.0898  0.4404  0.6117
  596MOL0     H78632  -1.306   0.461   5.277  1.4820  0.9145 -0.8751
  596MOL0     H78633  -1.410   0.578   5.194 -0.5098 -0.7050 -0.2353
  596MOL0     H78634  -1.543   0.458   5.127  0.5187 -0.5361  0.6539
  596MOL0     H78635  -1.740   0.359   5.075  0.0937  0.4017 -0.4444
  596MOL0     H78636  -2.025  -0.029   5.144  1.1209 -0.2088 -1.6651
  596MOL0     H78637  -2.215  -0.141   5.101  3.6069  0.1249  4.4397
  596MOL0     H78638  -2.512   0.072   4.851  0.3298  0.2490  0.7114
  596MOL0     H78639  -2.573   0.121   5.003  1.0282  0.3276 -0.6083
  596MOL0     H78640  -2.638  -0.127   4.844 -1.0752 -1.0313 -0.2611
  596MOL0     H78641  -2.753  -0.002   4.848  0.3159 -0.7821 -2.3130
  596MOL0     H78642  -2.778  -0.008   5.099  1.5636  0.2990  0.3934
  596MOL0     H78643  -2.688  -0.155   5.112 -0.5133 -2.2999 -0.7499
  596MOL0     H78644  -2.951  -0.194   5.092 -1.0482  1.6706  0.4601
  596MOL0     H78645  -2.950  -0.141   4.925 -1.2437 -2.5900 -0.0072
  596MOL0     H78646  -2.771  -0.351   5.032 -0.9858  1.3265  2.1469
  596MOL0     H78647  -2.811  -0.325   4.852 -3.0373 -0.7366 -0.6110
  596MOL0     H78648  -3.043  -0.374   4.892  0.6064  0.9271  1.1435
  596MOL0     H78649  -2.997  -0.411   5.059  2.2349  0.6634  0.8261
  596MOL0     H78650  -2.862  -0.577   5.016  0.2084  1.8859 -0.8628
  596MOL0     H78651  -3.037  -0.614   4.953 -1.6243  1.4013  0.2894
  596MOL0     H78652  -2.927  -0.530   4.716 -0.8687 -1.6986 -0.2890
  596MOL0     H78653  -2.898  -0.688   4.777  3.4883 -0.9314 -1.8178
  596MOL0     H78654  -2.412   0.240   5.015 -0.7031 -1.9195 -4.3121
  596MOL0     H78655  -2.206   0.354   5.059 -2.5337  0.1761 -0.1310
  596MOL0     H78656  -1.841   0.326   5.505  0.0602 -2.7045 -0.4794
  596MOL0     H78657  -1.641   0.454   5.559  1.4116  1.9306 -0.3764
  596MOL0     H78658   0.240   0.573   4.521  1.4905 -2.0579  0.3794
  596MOL0     H78659   0.470   0.552   4.428  1.9014 -1.1017  1.3905
  596MOL0     H78660   1.023   0.653   4.642  0.7935 -1.1036 -0.1569
  596MOL0     H78661   1.226   0.601   4.529 -0.9075 -1.3374  0.8413
  596MOL0     H78662   1.430   0.467   4.236 -0.3184 -1.5341  0.9688
  596MOL0     H78663   1.364   0.474   4.400  1.2392  1.7971  0.8640
  596MOL0     H78664   1.532   0.704   4.283 -0.7217  2.5998  2.7790
  596MOL0     H78665   1.443   0.700   4.430 -1.8861 -1.4639 -0.4239
  596MOL0     H78666   1.591   0.465   4.467 -0.1678  1.0088  2.1385
  596MOL0     H78667   1.680   0.617   4.459 -1.1409  0.9480 -1.5779
  596MOL0     H78668   1.623   0.455   4.214 -2.4678 -0.1382  1.5565
  596MOL0     H78669   1.749   0.577   4.238  0.8940 -0.6727 -0.5820
  596MOL0     H78670   1.961   0.256   4.403 -1.5284  0.9562  3.4990
  596MOL0     H78671   0.997   0.626   4.155  1.1527  0.3713  0.0740
  596MOL0     H78672   0.811   0.668   4.261 -0.9561  2.3071  1.2207
  597MOL0     O78673   7.830   3.009   0.597 -0.1373 -1.1710 -0.9019
  597MOL0     C78674   7.840   3.131   0.549  0.2643  0.9890 -0.0890
  597MOL0     O78675   7.738   3.222   0.531  0.8343  0.1163  0.1117
  597MOL0     C78676   7.606   3.168   0.558 -0.3052 -0.1994 -0.4368
  597MOL0     C78677   7.517   3.251   0.626  0.9666  0.5992 -0.0535
  597MOL0     C78678   7.392   3.203   0.674  0.1895  0.2170  0.0750
  597MOL0     C78679   7.353   3.067   0.631 -0.6709  0.4410 -1.1102
  597MOL0     O78680   7.228   3.025   0.663 -0.3816 -0.4832  0.0932
  597MOL0     C78681   7.140   3.008   0.552 -0.3415 -0.5865  0.2924
  597MOL0     C78682   7.003   3.038   0.591  0.3378  0.3082 -0.4424
  597MOL0     C78683   6.915   3.006   0.467  0.5177 -0.0575 -1.0090
  597MOL0     C78684   6.778   3.067   0.481  0.5951  0.2032  0.6362
  597MOL0     C78685   6.686   3.020   0.365  0.0246  0.6770 -0.0703
  597MOL0     C78686   6.556   3.094   0.372 -0.2943  0.4573 -0.0154
  597MOL0     C78687   6.430   3.026   0.312 -0.9328 -0.3759 -0.2070
  597MOL0     C78688   6.393   2.893   0.390  0.2780  0.2676  0.1178
  597MOL0     N78689   6.250   2.863   0.364 -0.0943  0.4424  0.5809
  597MOL0     C78690   6.145   2.906   0.433 -0.9620 -0.3250  0.2706
  597MOL0     C78691   6.032   2.890   0.355 -0.4503 -0.1814  0.6185
  597MOL0     C78692   5.883   2.923   0.385  0.9691 -0.7199 -0.3293
  597MOL0     C78693   5.796   2.935   0.269  0.3172  0.5244 -0.2285
  597MOL0     C78694   5.833   3.060   0.183  0.5317 -0.3676  0.5893
  597MOL0     C78695   5.707   3.115   0.117  0.3691  0.3145  0.7844
  597MOL0     O78696   5.651   3.022   0.029 -0.7769  0.3200 -0.2019
  597MOL0     C78697   5.523   3.029   0.017  0.9885  0.0474  0.1000
  597MOL0     C78698   5.475   2.913  -0.056  0.3561 -0.7548  0.4405
  597MOL0     C78699   5.343   2.901  -0.103 -0.0662 -0.0437 -0.4840
  597MOL0     C78700   5.247   3.001  -0.068  0.3822  0.1574  0.5309
  597MOL0     C78701   5.106   2.980  -0.092  0.5247  0.2478  0.1257
  597MOL0     O78702   5.015   3.062  -0.025 -0.6998 -0.2810  0.2994
  597MOL0     C78703   4.877   3.046  -0.035 -0.5480 -0.0721 -0.5694
  597MOL0     C78704   4.807   2.980  -0.139  0.3663 -1.2020  0.5783
  597MOL0     C78705   4.666   2.945  -0.118 -0.0343 -0.0974  0.1211
  597MOL0     C78706   4.602   2.980   0.006  0.5736 -0.0393  0.3333
  597MOL0     O78707   4.471   2.955   0.028 -1.1571 -0.1647  0.1309
  597MOL0     C78708   4.379   2.987  -0.066  0.9608 -0.0354  0.1769
  597MOL0     C78709   4.256   2.898  -0.047  0.2411  0.3045  0.2460
  597MOL0     C78710   4.170   2.887  -0.183  0.0589  0.4449 -0.4044
  597MOL0     C78711   4.102   3.024  -0.226 -0.6631  0.4826  0.8949
  597MOL0     C78712   4.087   3.033  -0.382  0.0965 -0.3286  0.5040
  597MOL0     C78713   3.995   3.159  -0.425  0.3422  0.2787  0.4787
  597MOL0     C78714   3.976   3.157  -0.578 -0.5234 -0.2520  0.1205
  597MOL0     C78715   3.930   3.019  -0.643 -0.4996 -1.0571 -0.0575
  597MOL0    Cl78716   3.783   2.971  -0.568 -0.1726 -0.1464 -0.1949
  597MOL0     C78717   4.673   3.041   0.107 -0.7689  0.2085 -0.7546
  597MOL0     C78718   4.812   3.077   0.083 -0.5547 -0.0293 -0.6745
  597MOL0     O78719   5.080   2.888  -0.173 -0.1819 -0.2489 -0.6763
  597MOL0     C78720   5.291   3.109   0.010  0.4947 -1.3622  0.4121
  597MOL0     C78721   5.423   3.127   0.053  0.1774  0.2354  0.8536
  597MOL0     N78722   6.070   2.848   0.238 -0.5867 -0.4633 -0.3386
  597MOL0     N78723   6.200   2.829   0.242  0.0346 -0.6541 -0.1889
  597MOL0     C78724   7.436   2.990   0.556 -0.1936  0.7665  0.5225
  597MOL0     C78725   7.566   3.039   0.512 -0.5012 -0.4646  1.2198
  597MOL0     C78726   7.972   3.170   0.510 -0.7385 -0.9520  0.5207
  597MOL0     C78727   8.073   3.087   0.459  0.1993 -0.1267 -0.5351
  597MOL0     C78728   8.205   3.131   0.443 -0.5352  0.4072 -0.6685
  597MOL0     C78729   8.242   3.267   0.477  0.2044 -0.1629 -0.4184
  597MOL0     O78730   8.368   3.324   0.466  0.6491 -0.5656  0.3048
  597MOL0     C78731   8.481   3.257   0.412 -0.7323 -0.3123  0.8905
  597MOL0     C78732   8.609   3.346   0.433  0.2537 -0.8242 -0.5894
  597MOL0     C78733   8.722   3.295   0.349 -1.2832 -0.0404  0.8966
  597MOL0     C78734   8.851   3.375   0.399 -0.6723 -0.4993 -0.1192
  597MOL0     C78735   8.952   3.370   0.288  0.0895 -0.5841 -0.5963
  597MOL0     C78736   9.039   3.353   0.204  0.7573  0.0998  0.0414
  597MOL0     C78737   8.139   3.344   0.532  0.5827  0.0983  0.2197
  597MOL0     C78738   8.007   3.299   0.544  0.5223  0.2250  0.5030
  597MOL0     H78739   7.541   3.355   0.647 -1.1910  0.9335  1.0530
  597MOL0     H78740   7.327   3.265   0.734  1.1823 -0.0194  1.4455
  597MOL0     H78741   7.137   2.901   0.531  2.7419 -0.6392 -0.2800
  597MOL0     H78742   7.177   3.064   0.466 -0.2082 -0.5365  0.3825
  597MOL0     H78743   6.989   3.144   0.611  2.2227  1.1940 -3.3413
  597MOL0     H78744   6.962   2.986   0.679 -0.7886 -1.1955 -1.7870
  597MOL0     H78745   6.906   2.902   0.435 -1.9744  0.1695 -1.1864
  597MOL0     H78746   6.955   3.063   0.383  0.5174  2.9488  0.8549
  597MOL0     H78747   6.741   3.041   0.581 -0.5871 -0.0536  0.1469
  597MOL0     H78748   6.801   3.173   0.471  3.4628 -0.0127  3.3454
  597MOL0     H78749   6.682   2.911   0.357  0.7522  0.7904 -2.9835
  597MOL0     H78750   6.733   3.046   0.269  0.7694  0.8178  0.3261
  597MOL0     H78751   6.572   3.193   0.328 -2.7198  0.2565 -1.5328
  597MOL0     H78752   6.533   3.097   0.479  2.0379  0.7199  0.5365
  597MOL0     H78753   6.344   3.093   0.315 -0.7489 -0.1310 -0.3695
  597MOL0     H78754   6.453   2.993   0.211  5.2484  0.1538  0.6638
  597MOL0     H78755   6.407   2.907   0.497 -2.0210  0.2947  0.4538
  597MOL0     H78756   6.454   2.810   0.353  0.3917  1.5130 -2.7730
  597MOL0     H78757   6.163   2.949   0.531  2.3214  0.5243 -0.5720
  597MOL0     H78758   5.885   3.012   0.447 -0.7110 -1.6306  1.1029
  597MOL0     H78759   5.852   2.846   0.456  0.7856 -0.5158 -0.1895
  597MOL0     H78760   5.692   2.924   0.298 -0.8274  1.1421 -3.5996
  597MOL0     H78761   5.807   2.846   0.206 -2.5768 -0.5752  0.6482
  597MOL0     H78762   5.869   3.150   0.233 -1.3715  0.1288  1.1549
  597MOL0     H78763   5.899   3.016   0.107  1.3327 -0.4352  1.3155
  597MOL0     H78764   5.738   3.198   0.053 -1.0712 -0.4466 -1.0120
  597MOL0     H78765   5.638   3.150   0.194 -0.1740  0.0945  0.3999
  597MOL0     H78766   5.545   2.839  -0.093  1.2084 -0.0916  0.7065
  597MOL0     H78767   5.304   2.820  -0.165 -2.4620 -0.3127  1.2319
  597MOL0     H78768   4.855   2.955  -0.233 -0.2361  0.9136 -0.3550
  597MOL0     H78769   4.602   2.912  -0.200  1.2240 -3.3700  0.2717
  597MOL0     H78770   4.414   2.969  -0.168  1.9285  1.0670  0.2859
  597MOL0     H78771   4.349   3.092  -0.076  0.8580 -0.1790 -1.2524
  597MOL0     H78772   4.201   2.936   0.039  2.1760  3.1431  0.3798
  597MOL0     H78773   4.291   2.797  -0.025  0.2174  0.0926 -0.6393
  597MOL0     H78774   4.098   2.805  -0.179  0.0908  0.4246 -0.2354
  597MOL0     H78775   4.244   2.862  -0.260  1.0579  0.6217  0.4756
  597MOL0     H78776   4.002   3.033  -0.181 -1.2963  0.2665 -0.4013
  597MOL0     H78777   4.157   3.114  -0.197 -0.6969  2.0492 -3.1816
  597MOL0     H78778   4.041   2.942  -0.421  1.3089 -1.4172  1.5191
  597MOL0     H78779   4.187   3.038  -0.427  0.3844 -0.1153  1.1523
  597MOL0     H78780   4.048   3.253  -0.405 -0.7448  1.2501 -0.9538
  597MOL0     H78781   3.897   3.158  -0.376  0.7041  0.7456  1.2349
  597MOL0     H78782   3.915   3.241  -0.615 -0.8384 -0.6596 -0.2982
  597MOL0     H78783   4.071   3.175  -0.630 -1.0050  0.3741 -0.5627
  597MOL0     H78784   3.998   2.934  -0.633 -0.5408 -1.0888 -0.0431
  597MOL0     H78785   3.924   3.037  -0.751 -2.1737 -0.5290  0.0938
  597MOL0     H78786   4.624   3.060   0.202 -2.1467 -1.6187 -1.0337
  597MOL0     H78787   4.867   3.110   0.170 -0.8974 -0.1350 -0.4178
  597MOL0     H78788   5.223   3.194   0.018  4.3820  1.8865  2.4399
  597MOL0     H78789   5.442   3.217   0.111 -1.2825  0.2068  1.4162
  597MOL0     H78790   7.410   2.893   0.515 -3.1702  2.5188 -2.1765
  597MOL0     H78791   7.624   2.972   0.450 -0.8015  0.4841 -0.1200
  597MOL0     H78792   8.052   2.983   0.436 -0.0743 -0.4789  1.1833
  597MOL0     H78793   8.275   3.053   0.416  1.6820  0.4832  3.7712
  597MOL0     H78794   8.472   3.234   0.305  2.3770 -2.1128  0.8782
  597MOL0     H78795   8.500   3.159   0.456  0.0032  0.2759  1.9218
  597MOL0     H78796   8.584   3.445   0.394  0.6808 -1.6456 -3.1505
  597MOL0     H78797   8.640   3.351   0.538  1.3462  5.1723 -0.8468
  597MOL0     H78798   8.705   3.315   0.243 -3.4530 -0.6513  1.0793
  597MOL0     H78799   8.746   3.192   0.375  1.0898 -0.6307 -2.8706
  597MOL0     H78800   8.829   3.481   0.412  0.2026 -0.0880 -1.7229
  597MOL0     H78801   8.890   3.350   0.498 -1.7603  0.7325  0.6617
  597MOL0     H78802   9.126   3.343   0.142  0.2712  0.8917 -0.7959
  597MOL0     H78803   8.162   3.447   0.554  0.4412  0.6267 -1.8580
  597MOL0     H78804   7.935   3.371   0.583 -0.4328  0.8349 -2.1985
  598MOL0     O78805   8.983   5.235   8.133 -0.0660  0.2391 -0.0158
  598MOL0     C78806   9.053   5.333   8.147  0.0302 -0.3484 -0.6545
  598MOL0     O78807   9.005   5.461   8.135 -0.3937 -0.1768  0.3858
  598MOL0     C78808   8.869   5.486   8.116  0.4360 -0.5708  0.4614
  598MOL0     C78809   8.833   5.583   8.022 -0.0535  0.2025  0.2095
  598MOL0     C78810   8.710   5.624   7.998  0.1600 -0.8210 -0.4398
  598MOL0     C78811   8.610   5.556   8.066 -0.6953 -0.3746  0.0299
  598MOL0     O78812   8.479   5.591   8.045 -0.0605 -0.3602 -0.1901
  598MOL0     C78813   8.390   5.589   8.161  0.7630 -0.4871  0.7783
  598MOL0     C78814   8.265   5.667   8.130 -0.0016 -0.5725 -0.7309
  598MOL0     C78815   8.152   5.651   8.231  0.6015  0.1301  0.3290
  598MOL0     C78816   8.041   5.761   8.204 -0.3163 -0.3784 -0.1733
  598MOL0     C78817   7.948   5.770   8.333  0.2690  0.1886 -0.5201
  598MOL0     C78818   7.863   5.644   8.366 -0.2268 -0.0060 -0.4653
  598MOL0     C78819   7.740   5.629   8.281 -0.3370 -0.3463 -0.7907
  598MOL0     C78820   7.658   5.507   8.328  0.6300  0.1417 -0.2364
  598MOL0     N78821   7.510   5.518   8.285  0.3038  0.3018 -0.2287
  598MOL0     C78822   7.438   5.616   8.215 -0.3569 -0.1392  0.4958
  598MOL0     C78823   7.309   5.571   8.197  0.1915  0.3450  0.5867
  598MOL0     C78824   7.198   5.640   8.110 -0.4786  0.2107  0.5223
  598MOL0     C78825   7.114   5.750   8.185 -0.0803 -0.5326 -0.1047
  598MOL0     C78826   7.196   5.862   8.246 -0.2465  0.3463 -0.4447
  598MOL0     C78827   7.204   5.992   8.168  0.0375 -0.2991 -0.5489
  598MOL0     O78828   7.259   5.975   8.042  0.0955  0.8488  0.3567
  598MOL0     C78829   7.399   5.959   8.031  0.4699  0.3476  0.5891
  598MOL0     C78830   7.482   5.994   8.136 -0.3928  0.4105 -0.0485
  598MOL0     C78831   7.622   5.991   8.122  0.4610  0.2962  0.0300
  598MOL0     C78832   7.675   5.958   7.993  0.1689 -0.2860  0.2359
  598MOL0     C78833   7.821   5.969   7.967 -0.4621  0.1510  0.2257
  598MOL0     O78834   7.870   5.903   7.855  0.1722  0.1869 -0.4471
  598MOL0     C78835   7.986   5.946   7.785  0.0720  0.2459 -0.2325
  598MOL0     C78836   8.049   6.074   7.775 -0.0313 -0.3952  0.8086
  598MOL0     C78837   8.159   6.105   7.696  0.9991  0.0647  0.3948
  598MOL0     C78838   8.213   6.007   7.612 -0.0011  0.2104 -0.0563
  598MOL0     O78839   8.308   6.020   7.522  0.1895 -0.7558  0.3904
  598MOL0     C78840   8.383   6.141   7.530 -0.3450 -0.3698 -0.3712
  598MOL0     C78841   8.502   6.109   7.427 -0.6640 -0.0007  0.0896
  598MOL0     C78842   8.593   5.996   7.481  0.3407  0.1552  0.3682
  598MOL0     C78843   8.665   6.020   7.613  0.7564 -0.4440 -0.1125
  598MOL0     C78844   8.766   6.138   7.594  0.0511  0.2579 -0.0971
  598MOL0     C78845   8.898   6.089   7.529  0.2221 -0.3640 -0.3824
  598MOL0     C78846   8.999   6.208   7.529  0.9978 -0.2808  0.2413
  598MOL0     C78847   9.123   6.193   7.439  0.1102 -0.1553  0.2070
  598MOL0    Cl78848   9.079   6.209   7.279  0.0392 -0.0820  0.0645
  598MOL0     C78849   8.150   5.878   7.617 -0.5177 -0.4579 -0.3275
  598MOL0     C78850   8.056   5.847   7.702  0.2019 -0.2128 -0.3456
  598MOL0     O78851   7.890   6.037   8.043  0.2129  0.3191  0.8528
  598MOL0     C78852   7.597   5.925   7.887 -0.0241 -0.6414  0.0943
  598MOL0     C78853   7.457   5.929   7.905 -0.1347  0.3940  0.2624
  598MOL0     N78854   7.304   5.447   8.270  0.3325 -0.7641 -0.2425
  598MOL0     N78855   7.427   5.416   8.314 -0.3523 -0.0218 -0.4571
  598MOL0     C78856   8.639   5.451   8.153 -0.0254  0.2377 -0.3902
  598MOL0     C78857   8.767   5.423   8.190 -0.3619 -0.4553  0.2497
  598MOL0     C78858   9.198   5.305   8.172  0.8127  0.6032  0.0491
  598MOL0     C78859   9.256   5.183   8.149 -0.7316 -0.5244  0.2135
  598MOL0     C78860   9.392   5.159   8.179  0.5063 -0.2610 -0.0653
  598MOL0     C78861   9.480   5.259   8.234 -0.2567  0.3956 -0.2191
  598MOL0     O78862   9.610   5.233   8.283  0.1489  0.0659 -0.0484
  598MOL0     C78863   9.673   5.123   8.225 -0.5602  0.7200  0.3119
  598MOL0     C78864   9.828   5.146   8.230 -0.0446 -0.0962 -0.5069
  598MOL0     C78865   9.894   5.020   8.197  0.7836  0.6718  0.3975
  598MOL0     C78866  10.042   5.039   8.175  0.1562  0.3938  0.0173
  598MOL0     C78867  10.084   5.134   8.069 -0.1364  0.3047 -0.5114
  598MOL0     C78868  10.126   5.190   7.970  0.2438 -0.5927  0.4282
  598MOL0     C78869   9.417   5.385   8.251 -0.4583 -0.1770  0.4552
  598MOL0     C78870   9.280   5.406   8.221  0.7447 -0.6347  0.1751
  598MOL0     H78871   8.915   5.629   7.969 -1.3364  4.9493  1.7636
  598MOL0     H78872   8.678   5.704   7.932 -0.4659  0.2870  1.1387
  598MOL0     H78873   8.443   5.617   8.253  1.3949  0.2517  0.2014
  598MOL0     H78874   8.352   5.487   8.166  2.0211 -1.0860 -0.8808
  598MOL0     H78875   8.219   5.669   8.031  2.7028  4.8168 -2.3160
  598MOL0     H78876   8.303   5.770   8.137 -0.8697 -0.3623  2.4491
  598MOL0     H78877   8.179   5.667   8.335 -2.3155 -0.9346  1.3567
  598MOL0     H78878   8.104   5.552   8.226  1.2332 -0.1176 -1.8117
  598MOL0     H78879   8.091   5.856   8.184 -0.5996 -0.0877  0.4582
  598MOL0     H78880   7.986   5.719   8.119  1.1009 -2.0475 -0.3191
  598MOL0     H78881   7.882   5.857   8.323 -1.1182 -1.0234 -2.7722
  598MOL0     H78882   8.022   5.781   8.413  0.8911  3.4501 -1.4061
  598MOL0     H78883   7.834   5.650   8.472  0.1975 -1.0299 -0.2843
  598MOL0     H78884   7.923   5.554   8.355  3.2260  1.8801  1.3166
  598MOL0     H78885   7.685   5.723   8.293  0.3316  0.0303 -0.6185
  598MOL0     H78886   7.779   5.619   8.179  2.0390 -1.0519  0.1183
  598MOL0     H78887   7.657   5.497   8.437 -1.3438 -0.3768 -0.2718
  598MOL0     H78888   7.687   5.408   8.290  0.5713 -0.8269  2.0939
  598MOL0     H78889   7.470   5.712   8.175 -0.5707 -0.0351  0.5746
  598MOL0     H78890   7.137   5.556   8.075  2.9090 -2.4739  0.4499
  598MOL0     H78891   7.250   5.688   8.027 -0.2156 -0.2948  0.3895
  598MOL0     H78892   7.067   5.703   8.273  2.4352  2.9276  3.4099
  598MOL0     H78893   7.027   5.784   8.127  2.1072 -0.7559 -3.8373
  598MOL0     H78894   7.165   5.896   8.346 -1.2090  0.8188 -0.8907
  598MOL0     H78895   7.299   5.828   8.257  0.2524  1.7471 -0.5061
  598MOL0     H78896   7.253   6.073   8.222  3.3317 -2.6210  0.2444
  598MOL0     H78897   7.100   6.013   8.141  0.1145  0.0247 -0.6018
  598MOL0     H78898   7.453   6.011   8.239 -1.7572 -3.2205  0.2982
  598MOL0     H78899   7.693   6.022   8.198  0.0239 -0.3141  0.6933
  598MOL0     H78900   7.989   6.147   7.828  1.3421  0.5508  1.1021
  598MOL0     H78901   8.186   6.211   7.692 -4.6187  1.7742 -0.9984
  598MOL0     H78902   8.427   6.172   7.625  1.6702 -3.3455 -0.1887
  598MOL0     H78903   8.334   6.228   7.485  2.3275  1.5338  0.1373
  598MOL0     H78904   8.568   6.195   7.412 -0.5880  0.2022  1.5039
  598MOL0     H78905   8.456   6.072   7.335  1.0817  1.2123 -1.3543
  598MOL0     H78906   8.666   5.966   7.406  1.1978  0.4716  1.0697
  598MOL0     H78907   8.531   5.906   7.497  1.2124 -0.7184 -0.9534
  598MOL0     H78908   8.586   6.039   7.686 -0.9575 -2.2399 -1.3930
  598MOL0     H78909   8.713   5.932   7.657  0.4945  0.3086  1.7496
  598MOL0     H78910   8.787   6.177   7.694 -3.3853 -0.0842  0.8934
  598MOL0     H78911   8.724   6.226   7.545  0.0596 -0.3110 -1.1587
  598MOL0     H78912   8.871   6.055   7.429  1.2816 -0.3012 -0.7054
  598MOL0     H78913   8.944   6.001   7.575  1.0859 -0.8402 -2.0728
  598MOL0     H78914   8.949   6.298   7.491 -0.8129 -1.2524  0.2065
  598MOL0     H78915   9.039   6.225   7.630  2.2972  0.7542 -0.4119
  598MOL0     H78916   9.179   6.099   7.441 -1.1247 -1.0718 -2.7682
  598MOL0     H78917   9.198   6.265   7.471  1.8535 -2.5167  1.7880
  598MOL0     H78918   8.179   5.802   7.545  1.3240  0.5158 -0.6775
  598MOL0     H78919   8.027   5.743   7.699  3.2752 -1.1356 -1.3516
  598MOL0     H78920   7.626   5.912   7.783 -1.4403  0.8874 -0.5442
  598MOL0     H78921   7.390   5.881   7.835  0.0041  1.5881 -0.7179
  598MOL0     H78922   8.561   5.392   8.202 -0.4151  0.6060 -0.5611
  598MOL0     H78923   8.795   5.347   8.262 -1.7890 -0.5268  0.7537
  598MOL0     H78924   9.197   5.104   8.102 -2.9686 -0.0116  1.9734
  598MOL0     H78925   9.440   5.070   8.138  1.7499  0.0358  0.6829
  598MOL0     H78926   9.645   5.107   8.121 -0.8403  1.3473  0.2821
  598MOL0     H78927   9.652   5.031   8.281 -0.3354  1.1249  1.0849
  598MOL0     H78928   9.849   5.230   8.164  1.1750  0.1697  0.1871
  598MOL0     H78929   9.864   5.166   8.332 -0.7023 -2.4154  0.2610
  598MOL0     H78930   9.852   4.978   8.105  0.7986  2.4883 -0.4833
  598MOL0     H78931   9.872   4.945   8.274 -0.7267  1.1851  0.4954
  598MOL0     H78932  10.082   5.081   8.268  0.8399 -3.0387  1.4337
  598MOL0     H78933  10.083   4.941   8.149  1.6779  1.1588 -0.6274
  598MOL0     H78934  10.162   5.242   7.884 -1.0711 -1.8277 -0.9246
  598MOL0     H78935   9.479   5.469   8.280  1.4919 -0.6118 -2.1640
  598MOL0     H78936   9.231   5.503   8.235  0.5353 -0.8901  1.3456
  599MOL0     O78937   1.016  11.019   4.772 -0.5958 -0.0906  0.6850
  599MOL0     C78938   1.054  11.055   4.656 -1.0158  0.1506 -0.5576
  599MOL0     O78939   0.974  11.082   4.546  0.3314 -0.3784 -0.2158
  599MOL0     C78940   0.843  11.047   4.554 -0.0763 -0.1232 -0.1046
  599MOL0     C78941   0.741  11.134   4.495 -0.5567  0.4717 -0.2756
  599MOL0     C78942   0.605  11.090   4.474  0.7653 -0.6384  0.6724
  599MOL0     C78943   0.565  10.966   4.526 -0.3407  0.3026 -0.3582
  599MOL0     O78944   0.441  10.932   4.497  0.0111  0.2597  0.1324
  599MOL0     C78945   0.403  10.790   4.514 -0.0890 -1.0178  0.6249
  599MOL0     C78946   0.322  10.794   4.639 -1.1044  0.1540 -0.3031
  599MOL0     C78947   0.180  10.851   4.624 -0.1351 -1.1194 -0.1130
  599MOL0     C78948   0.080  10.756   4.562 -0.6050  0.3193  0.0251
  599MOL0     C78949  -0.043  10.826   4.534 -0.5839  0.6743  0.0662
  599MOL0     C78950  -0.115  10.893   4.653  0.0075  0.2975  0.5090
  599MOL0     C78951  -0.265  10.912   4.616  0.7727 -0.1495  0.3725
  599MOL0     C78952  -0.340  10.980   4.729  0.5587 -0.7952 -0.8806
  599MOL0     N78953  -0.472  11.034   4.695  0.1149  0.5274 -0.4491
  599MOL0     C78954  -0.594  10.969   4.713 -0.3246 -0.7566  0.5790
  599MOL0     C78955  -0.676  11.060   4.657  0.7290  0.1925 -0.3052
  599MOL0     C78956  -0.824  11.044   4.637 -0.4368  0.2396 -0.9095
  599MOL0     C78957  -0.888  11.172   4.698  0.0291  0.8786 -0.5938
  599MOL0     C78958  -1.033  11.184   4.659  0.7987  0.0108  0.7319
  599MOL0     C78959  -1.090  11.311   4.743 -0.3846 -1.0107 -0.1839
  599MOL0     O78960  -1.091  11.294   4.889  0.0536 -0.1504 -0.2619
  599MOL0     C78961  -1.216  11.264   4.942 -0.4367 -0.2906 -0.1138
  599MOL0     C78962  -1.291  11.362   4.997  0.3624 -0.3938  0.0219
  599MOL0     C78963  -1.432  11.338   5.028 -1.1289  0.1635 -0.2380
  599MOL0     C78964  -1.484  11.209   5.007  0.3763  0.0637 -0.1762
  599MOL0     C78965  -1.622  11.179   5.034  0.0336 -0.3205  1.2566
  599MOL0     O78966  -1.663  11.052   5.019 -0.3922  0.5762  0.9085
  599MOL0     C78967  -1.794  11.020   4.995  0.2468  0.5926 -0.8342
  599MOL0     C78968  -1.882  11.087   4.913  0.2359  0.0216 -0.1058
  599MOL0     C78969  -2.012  11.045   4.911 -0.0047 -0.3636 -0.0090
  599MOL0     C78970  -2.068  10.937   4.982 -0.7123  0.4344 -0.0904
  599MOL0     O78971  -2.193  10.906   4.961  0.3678 -0.7943 -0.4097
  599MOL0     C78972  -2.254  10.824   5.061 -0.7639 -0.3342 -0.1540
  599MOL0     C78973  -2.408  10.820   5.039 -0.9731  0.5586 -0.0899
  599MOL0     C78974  -2.470  10.693   5.118  0.6068 -0.4032  0.0142
  599MOL0     C78975  -2.620  10.683   5.129 -0.1518 -0.2961 -1.1664
  599MOL0     C78976  -2.657  10.600   5.249  0.0385  0.0217 -0.1017
  599MOL0     C78977  -2.805  10.570   5.239  0.1173 -0.3571  0.0987
  599MOL0     C78978  -2.865  10.525   5.376  0.2654  0.2708  0.3115
  599MOL0     C78979  -2.999  10.449   5.360 -0.7195  0.4052  0.3837
  599MOL0    Cl78980  -2.977  10.286   5.303  0.1770  0.0070  0.1283
  599MOL0     C78981  -1.976  10.865   5.059  0.8547  0.0001 -0.4996
  599MOL0     C78982  -1.840  10.902   5.061 -0.0434  0.6765  0.0349
  599MOL0     O78983  -1.693  11.277   5.052 -0.8363 -0.1913  0.2865
  599MOL0     C78984  -1.407  11.114   4.944 -0.1293 -0.1702  0.1461
  599MOL0     C78985  -1.272  11.137   4.909  0.0389  0.1734 -0.3244
  599MOL0     N78986  -0.612  11.172   4.613 -0.2982  0.0845  0.8020
  599MOL0     N78987  -0.481  11.156   4.632 -0.5882 -0.0951 -0.2012
  599MOL0     C78988   0.655  10.892   4.606 -0.3400  0.1936  0.0224
  599MOL0     C78989   0.794  10.927   4.610 -0.8328  0.0154 -0.3311
  599MOL0     C78990   1.201  11.055   4.636 -0.0123 -0.3357  0.0114
  599MOL0     C78991   1.290  11.099   4.738  0.2199  0.0473  0.8528
  599MOL0     C78992   1.425  11.118   4.712 -0.3688  1.2292  0.1001
  599MOL0     C78993   1.484  11.077   4.594  0.4889  0.4767 -0.2140
  599MOL0     O78994   1.617  11.084   4.563 -0.4232 -0.0003 -0.7665
  599MOL0     C78995   1.718  11.126   4.665  0.2415 -0.8405  0.4059
  599MOL0     C78996   1.856  11.089   4.629  0.0510 -0.2419 -0.3279
  599MOL0     C78997   1.919  11.180   4.525  1.0378  0.8526  0.2793
  599MOL0     C78998   2.057  11.143   4.475  0.1953  0.3954 -0.8680
  599MOL0     C78999   2.058  11.012   4.415  0.5898  0.7804  0.7770
  599MOL0     C79000   2.067  10.894   4.386 -0.2727 -0.2315  0.1806
  599MOL0     C79001   1.407  11.029   4.490  0.3256 -0.5849 -0.7153
  599MOL0     C79002   1.262  11.028   4.507 -0.3354 -0.2709  0.3821
  599MOL0     H79003   0.790  11.227   4.467  1.9675 -0.8902 -0.6667
  599MOL0     H79004   0.535  11.156   4.424  2.2034  2.2540  2.2378
  599MOL0     H79005   0.494  10.731   4.505  0.3752 -0.1586 -0.5825
  599MOL0     H79006   0.337  10.769   4.429  1.5628 -0.0468 -0.9729
  599MOL0     H79007   0.387  10.835   4.716 -1.7509 -1.2829  1.0430
  599MOL0     H79008   0.307  10.690   4.667  2.4874 -0.1466  0.9874
  599MOL0     H79009   0.187  10.944   4.567 -2.5567 -0.1037  1.1059
  599MOL0     H79010   0.135  10.882   4.719  1.0621  0.5270 -0.0451
  599MOL0     H79011   0.122  10.703   4.476 -1.2291  1.8120 -1.2382
  599MOL0     H79012   0.063  10.671   4.630  1.0686 -1.1474 -1.2917
  599MOL0     H79013  -0.111  10.752   4.489 -0.6625  0.8486 -0.0990
  599MOL0     H79014  -0.025  10.907   4.463 -1.4123 -0.4645 -1.5170
  599MOL0     H79015  -0.075  10.991   4.679 -1.7958  1.6627 -1.5520
  599MOL0     H79016  -0.122  10.824   4.738 -2.5117 -0.2099 -0.0137
  599MOL0     H79017  -0.273  10.972   4.525  1.0396  1.6310  1.4771
  599MOL0     H79018  -0.319  10.822   4.585 -0.9548  1.6488 -2.2437
  599MOL0     H79019  -0.280  11.062   4.769 -1.1446 -0.5879  1.4872
  599MOL0     H79020  -0.346  10.904   4.808  1.7122  0.5386  0.5515
  599MOL0     H79021  -0.608  10.872   4.760 -1.1274 -1.1959 -0.5330
  599MOL0     H79022  -0.847  10.948   4.685  0.8734  0.7319  0.7916
  599MOL0     H79023  -0.852  11.050   4.531 -1.6788  0.6686 -0.5802
  599MOL0     H79024  -0.843  11.261   4.654  1.4426  0.7529  0.5289
  599MOL0     H79025  -0.876  11.183   4.806  2.9360  0.6672 -0.8232
  599MOL0     H79026  -1.049  11.198   4.551  4.0442  3.1688  0.4442
  599MOL0     H79027  -1.069  11.088   4.696 -0.3612 -0.6916 -1.9324
  599MOL0     H79028  -1.195  11.318   4.713 -0.9854  1.2057  2.1242
  599MOL0     H79029  -1.034  11.401   4.719  2.3456 -2.2656  1.0312
  599MOL0     H79030  -1.246  11.461   5.001  2.3183 -1.2479  0.4857
  599MOL0     H79031  -1.500  11.412   5.067  0.8046  2.7360 -1.4608
  599MOL0     H79032  -1.852  11.182   4.870  2.1028 -0.1227  0.8011
  599MOL0     H79033  -2.081  11.096   4.844 -1.7619 -0.5982  1.5330
  599MOL0     H79034  -2.226  10.855   5.163  2.7721 -3.2279 -0.0283
  599MOL0     H79035  -2.212  10.726   5.038  2.9989  1.3966 -1.5635
  599MOL0     H79036  -2.422  10.817   4.930 -1.6604  0.4346 -0.0017
  599MOL0     H79037  -2.466  10.906   5.072 -0.8531  1.2184 -1.5177
  599MOL0     H79038  -2.433  10.691   5.221 -2.4802  2.8668  1.4081
  599MOL0     H79039  -2.444  10.598   5.070 -0.2276 -0.4625 -0.3317
  599MOL0     H79040  -2.660  10.782   5.152 -0.5934 -1.1519  2.2204
  599MOL0     H79041  -2.667  10.646   5.038  1.0838 -2.2637 -1.0681
  599MOL0     H79042  -2.635  10.658   5.338  1.9150  1.9787 -1.7283
  599MOL0     H79043  -2.605  10.504   5.248  0.9007  0.4699 -1.4270
  599MOL0     H79044  -2.817  10.490   5.165  0.1041  0.6178 -0.9778
  599MOL0     H79045  -2.871  10.655   5.218 -1.1791 -1.3945 -0.1384
  599MOL0     H79046  -2.796  10.460   5.430  1.1759  1.5724  0.7717
  599MOL0     H79047  -2.888  10.617   5.432 -0.2670  1.4653 -1.7624
  599MOL0     H79048  -3.065  10.507   5.295  1.9273  4.2168  0.7327
  599MOL0     H79049  -3.050  10.448   5.456  0.8998  0.1985  1.2878
  599MOL0     H79050  -2.011  10.787   5.125  1.5763  1.5911  1.8871
  599MOL0     H79051  -1.773  10.845   5.124 -2.2904 -0.2461  1.7425
  599MOL0     H79052  -1.456  11.020   4.917  1.8245 -0.4008 -3.1481
  599MOL0     H79053  -1.210  11.062   4.861  0.0818  0.4203 -0.6561
  599MOL0     H79054   0.621  10.809   4.666  1.4044  0.6883  1.7901
  599MOL0     H79055   0.869  10.868   4.660 -1.2125 -0.5738 -0.4425
  599MOL0     H79056   1.242  11.115   4.834 -2.5656 -1.0851 -0.2420
  599MOL0     H79057   1.476  11.152   4.802 -4.2115  1.2366  2.5130
  599MOL0     H79058   1.693  11.075   4.758 -2.9886 -2.5010 -1.2095
  599MOL0     H79059   1.691  11.231   4.680 -1.1221 -1.0893 -0.1032
  599MOL0     H79060   1.905  11.097   4.726 -2.0670  0.3667  0.7604
  599MOL0     H79061   1.848  10.985   4.594 -1.5290  0.1799 -1.3217
  599MOL0     H79062   1.921  11.285   4.556  2.9310  0.1060  3.0855
  599MOL0     H79063   1.856  11.176   4.436  1.1167 -0.7954  0.2648
  599MOL0     H79064   2.092  11.219   4.404  1.0051  0.5166 -0.3633
  599MOL0     H79065   2.118  11.149   4.566 -1.4059 -0.1270  0.2676
  599MOL0     H79066   2.083  10.796   4.347  0.6286  0.3156 -0.8931
  599MOL0     H79067   1.454  10.995   4.398  2.5488 -0.9509  0.4863
  599MOL0     H79068   1.198  10.984   4.432 -0.6492 -0.6345  0.8612
  600MOL0     O79069   8.667   3.761   9.451  0.6983 -0.3819  0.2898
  600MOL0     C79070   8.722   3.677   9.379 -0.5557  0.2739 -1.0619
  600MOL0     O79071   8.668   3.608   9.279 -0.5832 -0.2493  0.6344
  600MOL0     C79072   8.542   3.622   9.235  0.6906  0.2028 -0.7043
  600MOL0     C79073   8.479   3.746   9.233 -0.6778 -0.8391  0.2649
  600MOL0     C79074   8.340   3.758   9.203  0.4281  0.0514  0.0756
  600MOL0     C79075   8.278   3.654   9.145 -0.1764  0.2996  0.2294
  600MOL0     O79076   8.162   3.677   9.084  0.5007 -0.4982 -0.4418
  600MOL0     C79077   8.064   3.610   9.157  0.1970  0.1172 -0.7186
  600MOL0     C79078   7.937   3.676   9.142 -0.4465  0.4695  0.4584
  600MOL0     C79079   7.891   3.637   9.005 -0.4968 -0.4158  0.5850
  600MOL0     C79080   7.771   3.713   8.949  0.3833 -0.2625 -0.6436
  600MOL0     C79081   7.763   3.689   8.794  0.6773  0.4581  0.5172
  600MOL0     C79082   7.647   3.756   8.727  0.1079  0.0022  0.2211
  600MOL0     C79083   7.509   3.684   8.732  0.5136 -0.3810 -0.1166
  600MOL0     C79084   7.396   3.771   8.690  0.6719 -0.4245 -0.3904
  600MOL0     N79085   7.389   3.788   8.546 -0.7329  0.1814  1.3043
  600MOL0     C79086   7.325   3.893   8.473  1.3389 -0.1094 -0.1690
  600MOL0     C79087   7.309   3.848   8.339  0.1737 -0.0318 -0.7639
  600MOL0     C79088   7.227   3.909   8.231 -1.3010  0.1081  0.6617
  600MOL0     C79089   7.156   3.812   8.128 -0.1487  0.5496 -0.3163
  600MOL0     C79090   7.043   3.723   8.190 -0.2040 -0.3423  0.3602
  600MOL0     C79091   6.910   3.789   8.232 -0.6791  0.5149 -0.4551
  600MOL0     O79092   6.847   3.836   8.113 -0.3923 -0.7732 -0.1772
  600MOL0     C79093   6.714   3.843   8.105  0.4526  0.9494 -0.6658
  600MOL0     C79094   6.656   3.794   7.987 -0.4678 -0.0002 -1.2495
  600MOL0     C79095   6.515   3.792   7.972  0.1741 -0.1379  0.6050
  600MOL0     C79096   6.431   3.839   8.070  0.3226 -0.0300  0.3934
  600MOL0     C79097   6.281   3.837   8.051  0.4601 -0.1925 -0.5454
  600MOL0     O79098   6.205   3.874   8.165 -0.3125 -0.2811  0.5933
  600MOL0     C79099   6.072   3.878   8.154  0.9439 -0.5623 -0.5077
  600MOL0     C79100   5.999   3.923   8.048  0.5328  0.8729  0.0928
  600MOL0     C79101   5.862   3.909   8.047 -0.3911 -0.8645 -0.6264
  600MOL0     C79102   5.789   3.854   8.154 -0.5644 -0.2538 -0.1390
  600MOL0     O79103   5.656   3.850   8.134  0.3302 -0.0137  0.6799
  600MOL0     C79104   5.563   3.809   8.239 -1.3872  0.2406 -0.0084
  600MOL0     C79105   5.526   3.927   8.331 -0.3017  0.1171  0.0170
  600MOL0     C79106   5.461   3.873   8.456  0.4713 -0.1429 -0.0425
  600MOL0     C79107   5.334   3.781   8.436 -0.3156 -0.6242  1.4384
  600MOL0     C79108   5.219   3.844   8.350 -0.1848 -0.4127  0.3277
  600MOL0     C79109   5.103   3.738   8.332 -0.0538 -1.2080  0.0953
  600MOL0     C79110   4.973   3.817   8.287  0.8035 -0.9510 -0.3810
  600MOL0     C79111   4.855   3.718   8.305  0.5096  0.4370  0.1074
  600MOL0    Cl79112   4.690   3.785   8.279 -0.2532  0.0818 -0.4676
  600MOL0     C79113   5.859   3.827   8.273 -0.3556 -0.5716 -0.2816
  600MOL0     C79114   6.001   3.832   8.269  0.8016  1.0484 -0.7910
  600MOL0     O79115   6.231   3.798   7.949 -0.9164 -0.3960 -0.2082
  600MOL0     C79116   6.486   3.884   8.188 -0.3765  0.9726 -0.6739
  600MOL0     C79117   6.624   3.885   8.203  0.0363  0.5147 -0.5735
  600MOL0     N79118   7.355   3.716   8.341 -0.8127  0.6656 -0.3846
  600MOL0     N79119   7.397   3.680   8.458 -0.2587 -0.3665  0.3434
  600MOL0     C79120   8.341   3.534   9.132 -0.7707 -0.0289  0.3054
  600MOL0     C79121   8.463   3.513   9.189  0.7501 -0.2869 -0.0286
  600MOL0     C79122   8.873   3.656   9.392  0.0015  0.2806  0.3693
  600MOL0     C79123   8.957   3.583   9.313 -1.1445  0.9921 -0.2931
  600MOL0     C79124   9.102   3.575   9.339 -0.5371 -0.0899 -0.0527
  600MOL0     C79125   9.164   3.651   9.439  0.4220 -0.5845 -0.0005
  600MOL0     O79126   9.298   3.687   9.449 -0.4191 -0.0249 -0.0134
  600MOL0     C79127   9.374   3.643   9.334  0.7913  0.4344 -0.4812
  600MOL0     C79128   9.510   3.710   9.336  0.0385  0.3007  0.1692
  600MOL0     C79129   9.609   3.643   9.427  0.5069  0.3801 -0.4301
  600MOL0     C79130   9.614   3.712   9.567 -0.0374  0.2747 -1.2874
  600MOL0     C79131   9.737   3.663   9.639 -0.3559  0.3400  0.0430
  600MOL0     C79132   9.840   3.623   9.693  0.0425  0.3503 -0.0169
  600MOL0     C79133   9.073   3.722   9.520 -0.5834 -0.4176  0.7737
  600MOL0     C79134   8.935   3.715   9.499 -0.4388  0.1431  0.1873
  600MOL0     H79135   8.541   3.835   9.241  0.7917 -1.7332 -0.7787
  600MOL0     H79136   8.280   3.849   9.208  0.6780  0.1950  0.4650
  600MOL0     H79137   8.083   3.615   9.265 -0.9549 -1.0298 -0.4414
  600MOL0     H79138   8.057   3.503   9.136 -0.2709  0.6005 -3.4204
  600MOL0     H79139   7.936   3.786   9.148 -0.9826  0.4686  0.4297
  600MOL0     H79140   7.858   3.644   9.210 -3.3705 -1.1001 -3.3744
  600MOL0     H79141   7.858   3.533   9.004  0.9966 -0.9399 -1.5494
  600MOL0     H79142   7.975   3.636   8.934 -1.3933  2.1056 -0.6160
  600MOL0     H79143   7.683   3.678   9.004  0.0375  1.6037  0.0396
  600MOL0     H79144   7.789   3.820   8.948  0.0964 -0.2017  0.2442
  600MOL0     H79145   7.764   3.583   8.767  4.2011  1.0198 -2.3093
  600MOL0     H79146   7.854   3.733   8.753 -0.8161  1.4316 -1.9753
  600MOL0     H79147   7.673   3.761   8.621 -2.0475  0.4187 -0.3484
  600MOL0     H79148   7.641   3.860   8.762  0.4405  0.4122 -0.8843
  600MOL0     H79149   7.506   3.592   8.672  1.0665 -0.2458 -0.3622
  600MOL0     H79150   7.487   3.648   8.833  2.3580  0.2012  0.5321
  600MOL0     H79151   7.402   3.865   8.746  0.3835 -0.7540  0.2097
  600MOL0     H79152   7.298   3.735   8.723  0.1220  2.6310  1.7306
  600MOL0     H79153   7.289   3.986   8.516  0.7488 -0.4953  0.1903
  600MOL0     H79154   7.288   3.973   8.166 -2.5377 -0.3952 -1.0578
  600MOL0     H79155   7.149   3.970   8.278 -1.7554 -2.4596  3.5216
  600MOL0     H79156   7.226   3.741   8.084 -0.6498 -0.8383  1.0264
  600MOL0     H79157   7.116   3.883   8.055  1.0747  0.3642 -1.1850
  600MOL0     H79158   7.006   3.647   8.120  1.4682  0.5298 -1.5718
  600MOL0     H79159   7.090   3.670   8.273 -1.9091  0.2949  1.7862
  600MOL0     H79160   6.923   3.874   8.299  0.3212  0.2813 -0.3307
  600MOL0     H79161   6.844   3.717   8.281  1.3198 -1.1166 -0.0361
  600MOL0     H79162   6.719   3.755   7.908  4.6514 -0.9206  2.7482
  600MOL0     H79163   6.461   3.751   7.887 -2.1588 -0.4537  2.1650
  600MOL0     H79164   6.056   3.960   7.963 -1.5744  0.0158 -1.7900
  600MOL0     H79165   5.802   3.931   7.959  0.5262 -0.8147 -1.2623
  600MOL0     H79166   5.600   3.730   8.305  0.6818  0.2240 -1.1233
  600MOL0     H79167   5.477   3.778   8.178  0.4147 -1.8929 -1.6110
  600MOL0     H79168   5.445   3.984   8.285 -0.8568  2.6259  3.6851
  600MOL0     H79169   5.612   3.985   8.366  1.6546 -1.6976 -1.5316
  600MOL0     H79170   5.445   3.964   8.515  0.2279  1.6775 -2.7235
  600MOL0     H79171   5.536   3.806   8.499  0.7078 -1.6962 -2.6536
  600MOL0     H79172   5.356   3.684   8.391 -0.6756 -0.4436  0.8586
  600MOL0     H79173   5.284   3.757   8.530  0.2242 -2.5965  1.2760
  600MOL0     H79174   5.254   3.861   8.247 -0.4002 -0.1567  0.2954
  600MOL0     H79175   5.192   3.943   8.388  2.5079 -0.6428  3.2088
  600MOL0     H79176   5.076   3.680   8.420 -3.4383 -1.4455 -0.9514
  600MOL0     H79177   5.129   3.671   8.250 -0.1714  0.2133 -1.1563
  600MOL0     H79178   4.952   3.891   8.365 -0.1671 -1.2419 -0.3491
  600MOL0     H79179   4.975   3.866   8.190  0.2516  0.0832  0.1076
  600MOL0     H79180   4.860   3.676   8.405 -0.6113  1.9186  0.8348
  600MOL0     H79181   4.869   3.635   8.235  0.3681 -1.0909  1.8325
  600MOL0     H79182   5.811   3.785   8.361  0.7130 -0.8414  0.1888
  600MOL0     H79183   6.058   3.789   8.351  0.6843 -0.4726 -1.4795
  600MOL0     H79184   6.429   3.931   8.267 -1.2559  2.4736 -2.1284
  600MOL0     H79185   6.665   3.923   8.296 -1.5602  0.0328  0.3711
  600MOL0     H79186   8.294   3.446   9.088  0.3451  0.1853 -1.4234
  600MOL0     H79187   8.517   3.419   9.187 -2.1798 -2.1012 -0.4013
  600MOL0     H79188   8.920   3.525   9.229  4.6851  1.9721 -4.0762
  600MOL0     H79189   9.149   3.506   9.269 -1.5462 -0.2462 -0.5857
  600MOL0     H79190   9.325   3.670   9.240  0.3623 -1.9354 -0.9989
  600MOL0     H79191   9.386   3.536   9.356  3.1554  0.3712 -1.7919
  600MOL0     H79192   9.543   3.695   9.233  1.1824  0.2502  0.5327
  600MOL0     H79193   9.503   3.815   9.367  0.1471  1.2341 -2.7282
  600MOL0     H79194   9.710   3.650   9.385  1.1221 -1.5809  0.5937
  600MOL0     H79195   9.571   3.540   9.431 -4.5916  2.0344  2.4485
  600MOL0     H79196   9.637   3.819   9.570 -0.4449  0.3568  0.8709
  600MOL0     H79197   9.517   3.696   9.615  0.2405 -0.9985 -1.1055
  600MOL0     H79198   9.931   3.577   9.728 -0.3044  0.3824  0.9581
  600MOL0     H79199   9.116   3.785   9.598 -0.0956 -0.1103  0.2651
  600MOL0     H79200   8.884   3.776   9.572 -0.6639  0.5021 -0.2727
  601MOL0     O79201   9.620  10.847  10.292  0.5132 -0.1912  0.3636
  601MOL0     C79202   9.668  10.793  10.395 -0.6052 -0.8123 -0.2741
  601MOL0     O79203   9.762  10.851  10.478  0.2127  0.7145 -1.0681
  601MOL0     C79204   9.809  10.975  10.465  0.1079 -0.7276 -0.2456
  601MOL0     C79205   9.743  11.084  10.400 -0.2361 -0.1968 -0.3265
  601MOL0     C79206   9.800  11.216  10.405  0.4400  0.6393  0.9600
  601MOL0     C79207   9.917  11.239  10.477 -0.5738 -0.1919  0.1396
  601MOL0     O79208   9.963  11.371  10.492  0.3994 -0.0318 -0.0341
  601MOL0     C79209  10.088  11.393  10.564 -0.1712  0.4159  0.6577
  601MOL0     C79210  10.126  11.539  10.590 -0.2856 -0.4593  0.5303
  601MOL0     C79211  10.041  11.608  10.693 -0.9861  0.4992 -0.0430
  601MOL0     C79212  10.012  11.527  10.822 -0.1910  0.1537 -0.4313
  601MOL0     C79213   9.956  11.613  10.930 -0.4455  0.3594 -0.2133
  601MOL0     C79214   9.858  11.720  10.886 -0.3021  0.1004  0.4196
  601MOL0     C79215   9.803  11.792  11.000  0.5132 -0.0769 -0.1319
  601MOL0     C79216   9.852  11.937  10.993  0.5450 -0.5120 -0.1375
  601MOL0     N79217   9.813  12.006  11.114 -0.6696  0.3254  0.0582
  601MOL0     C79218   9.683  12.035  11.145 -0.8202  0.5756 -0.2103
  601MOL0     C79219   9.684  12.153  11.213  0.5072 -0.2588  0.2604
  601MOL0     C79220   9.567  12.233  11.254  0.5322 -0.0103 -0.4497
  601MOL0     C79221   9.543  12.347  11.149  0.1143  0.3689  0.1368
  601MOL0     C79222   9.461  12.470  11.207 -0.2916 -0.1036  0.4116
  601MOL0     C79223   9.424  12.573  11.094 -1.4200  0.1515 -0.8659
  601MOL0     O79224   9.318  12.537  11.004  0.6722 -0.1634 -0.0144
  601MOL0     C79225   9.303  12.638  10.910 -0.6280 -0.4288  0.2343
  601MOL0     C79226   9.388  12.656  10.806 -0.6467  0.8829  0.3669
  601MOL0     C79227   9.375  12.767  10.724 -0.9849  0.1429  0.5191
  601MOL0     C79228   9.265  12.855  10.733 -0.1368  0.6487  1.0341
  601MOL0     C79229   9.248  12.972  10.648 -1.0993  0.7712  0.5302
  601MOL0     O79230   9.270  12.940  10.514  0.4768 -0.2161 -0.0833
  601MOL0     C79231   9.286  13.037  10.420  0.0421  0.0468 -0.3268
  601MOL0     C79232   9.203  13.029  10.307 -0.3779  0.0928  0.3734
  601MOL0     C79233   9.211  13.122  10.207  0.0755 -0.8594  0.3551
  601MOL0     C79234   9.310  13.228  10.210  0.8041 -0.1657  0.9435
  601MOL0     O79235   9.335  13.311  10.100 -0.3093 -0.2681 -0.5207
  601MOL0     C79236   9.441  13.408  10.098  0.2788  0.1556  0.6362
  601MOL0     C79237   9.434  13.531  10.188  0.6520  0.0188 -0.4643
  601MOL0     C79238   9.296  13.596  10.191 -0.7732 -0.1152  0.0066
  601MOL0     C79239   9.262  13.672  10.064 -0.1286  0.5009 -0.2957
  601MOL0     C79240   9.129  13.748  10.075  0.4636 -0.4640 -0.0590
  601MOL0     C79241   9.014  13.654  10.107 -0.1915 -0.9290  1.0770
  601MOL0     C79242   8.874  13.713  10.069 -0.0677 -0.3845  0.4833
  601MOL0     C79243   8.772  13.609  10.026  0.6185  0.1561  0.0232
  601MOL0    Cl79244   8.622  13.709   9.987 -0.4857 -0.0641 -0.1428
  601MOL0     C79245   9.385  13.227  10.322 -0.8458  0.1163 -0.5100
  601MOL0     C79246   9.376  13.136  10.430 -0.8950  0.6887  0.7375
  601MOL0     O79247   9.206  13.074  10.691  0.9459 -0.6757 -0.0559
  601MOL0     C79248   9.171  12.829  10.828 -0.2546  0.2088 -0.1810
  601MOL0     C79249   9.196  12.731  10.926 -0.0459  1.2185  0.2516
  601MOL0     N79250   9.816  12.190  11.224 -0.4305  0.7168 -0.0723
  601MOL0     N79251   9.894  12.108  11.169  0.4449  0.2353  0.1007
  601MOL0     C79252   9.990  11.130  10.524 -0.2423  0.7844 -0.1857
  601MOL0     C79253   9.931  11.006  10.522  0.2600 -0.3919 -0.1490
  601MOL0     C79254   9.610  10.662  10.423  0.0420 -0.7253  0.8777
  601MOL0     C79255   9.491  10.617  10.368 -0.1003  0.0780 -0.0155
  601MOL0     C79256   9.438  10.489  10.387  0.7826  0.8137 -0.3991
  601MOL0     C79257   9.502  10.407  10.482  0.1505 -0.1007 -0.6846
  601MOL0     O79258   9.448  10.278  10.526 -0.7887 -0.5439 -0.3788
  601MOL0     C79259   9.426  10.196  10.412  0.0456  0.1640  0.0459
  601MOL0     C79260   9.322  10.094  10.430  0.3303  0.7600  0.4341
  601MOL0     C79261   9.322   9.996  10.313  0.5517  0.0458  0.9947
  601MOL0     C79262   9.183   9.927  10.300 -0.2622  0.0442  0.3174
  601MOL0     C79263   9.113   9.999  10.187 -0.2710  0.9293 -0.2045
  601MOL0     C79264   9.057  10.048  10.087  0.8627  0.0236 -0.5206
  601MOL0     C79265   9.623  10.447  10.533 -0.5113 -0.3448  0.0122
  601MOL0     C79266   9.683  10.575  10.497  0.6361 -0.2840 -0.5630
  601MOL0     H79267   9.645  11.065  10.356 -0.4741  0.3738 -0.0652
  601MOL0     H79268   9.736  11.296  10.370 -0.0677  1.8974  4.3669
  601MOL0     H79269  10.168  11.345  10.507 -3.0092 -3.0165 -0.8346
  601MOL0     H79270  10.079  11.344  10.661  1.1906 -1.6602 -0.2119
  601MOL0     H79271  10.118  11.596  10.496  0.8174  0.9946  1.2627
  601MOL0     H79272  10.232  11.545  10.619 -0.2552  3.5956  0.2675
  601MOL0     H79273   9.953  11.645  10.640 -0.1340  0.1762 -1.7527
  601MOL0     H79274  10.102  11.695  10.719  0.7052 -0.6598  0.0441
  601MOL0     H79275   9.939  11.447  10.810 -1.1604  0.3088  3.2525
  601MOL0     H79276  10.105  11.486  10.860 -0.0379  0.4605 -0.4725
  601MOL0     H79277  10.043  11.655  10.982  0.2307 -0.8038 -0.3701
  601MOL0     H79278   9.916  11.545  11.006  3.6993  0.0133  1.9671
  601MOL0     H79279   9.776  11.657  10.848  0.4004 -0.9462  0.5915
  601MOL0     H79280   9.889  11.786  10.805  0.0317 -1.4320 -0.7597
  601MOL0     H79281   9.694  11.786  11.008  0.6040  0.4858  2.3018
  601MOL0     H79282   9.838  11.744  11.093  0.0153 -2.9026 -1.3105
  601MOL0     H79283   9.790  11.978  10.913 -2.4562  1.7214  3.0623
  601MOL0     H79284   9.959  11.955  10.976  0.5059 -0.6833 -0.5886
  601MOL0     H79285   9.588  11.991  11.116 -1.7632  2.3358  0.0040
  601MOL0     H79286   9.592  12.265  11.356  3.0357 -1.4790 -0.5165
  601MOL0     H79287   9.482  12.166  11.256  2.8021 -3.1174 -0.7647
  601MOL0     H79288   9.487  12.310  11.062  0.5750 -0.1062  0.0418
  601MOL0     H79289   9.646  12.370  11.122  1.0280 -1.9545  1.3507
  601MOL0     H79290   9.366  12.440  11.252 -0.7817 -0.0947 -0.6083
  601MOL0     H79291   9.520  12.526  11.281 -0.5532 -0.1061  0.6235
  601MOL0     H79292   9.513  12.594  11.033  0.2579 -0.3776  1.2830
  601MOL0     H79293   9.406  12.665  11.150 -1.3490 -0.2949 -0.0994
  601MOL0     H79294   9.468  12.586  10.782 -1.6733 -0.3962  0.5549
  601MOL0     H79295   9.457  12.792  10.658 -0.1635  2.6329  2.3586
  601MOL0     H79296   9.134  12.945  10.303 -1.6215  1.1170 -3.1758
  601MOL0     H79297   9.145  13.123  10.120  2.6762 -0.4283 -1.7584
  601MOL0     H79298   9.448  13.453   9.999  1.5939  1.6298  1.3507
  601MOL0     H79299   9.529  13.349  10.125 -0.2464 -0.5937  0.7449
  601MOL0     H79300   9.511  13.606  10.168  2.3211 -0.1583  4.0914
  601MOL0     H79301   9.460  13.508  10.292 -1.7683 -1.0488 -0.0198
  601MOL0     H79302   9.300  13.664  10.277 -1.4757 -0.5245  0.3748
  601MOL0     H79303   9.212  13.531  10.219 -0.8425  1.0807  2.9557
  601MOL0     H79304   9.337  13.750  10.046 -0.0577  0.4056 -0.4184
  601MOL0     H79305   9.259  13.600   9.982  0.0208 -0.7604  0.7631
  601MOL0     H79306   9.117  13.801   9.980  2.2603 -1.1089 -0.6952
  601MOL0     H79307   9.136  13.829  10.148  1.1526 -1.5014  1.0751
  601MOL0     H79308   9.019  13.640  10.216 -0.4249  3.1402  1.7579
  601MOL0     H79309   9.037  13.563  10.051 -0.5136 -1.5234  1.8916
  601MOL0     H79310   8.829  13.772  10.149  3.7848 -0.0440  2.6372
  601MOL0     H79311   8.892  13.777   9.983  1.1959 -1.9984 -0.5091
  601MOL0     H79312   8.740  13.544  10.108 -1.5533  1.4261  0.2496
  601MOL0     H79313   8.811  13.551   9.941 -0.0673  0.3617 -0.4341
  601MOL0     H79314   9.469  13.296  10.334  2.2702 -3.1065 -2.0811
  601MOL0     H79315   9.446  13.136  10.512  1.6285  0.3348 -1.3101
  601MOL0     H79316   9.090  12.900  10.839 -0.6912 -0.4576  1.1006
  601MOL0     H79317   9.123  12.704  11.002 -0.5315  0.0392 -0.5930
  601MOL0     H79318  10.079  11.137  10.586  0.3914 -0.6803 -0.8638
  601MOL0     H79319   9.982  10.922  10.568 -1.5687 -1.0354  0.8170
  601MOL0     H79320   9.448  10.684  10.294  4.6663  4.6373  0.7621
  601MOL0     H79321   9.350  10.460  10.331 -0.3569  1.6030  0.9141
  601MOL0     H79322   9.516  10.137  10.392  1.8143  2.6068  0.2727
  601MOL0     H79323   9.398  10.254  10.324 -1.1340  0.6771  0.7319
  601MOL0     H79324   9.334  10.045  10.527 -2.1992  1.1926  1.0410
  601MOL0     H79325   9.224  10.144  10.431 -0.2539 -0.1799 -2.0154
  601MOL0     H79326   9.387   9.912  10.340  1.6614  0.9665  1.2910
  601MOL0     H79327   9.371  10.034  10.223  3.1235 -4.3558  0.2359
  601MOL0     H79328   9.192   9.823  10.269 -2.7574  0.2447 -1.3797
  601MOL0     H79329   9.125   9.926  10.393 -1.0761 -0.8947 -0.1865
  601MOL0     H79330   9.016  10.079   9.993  3.3989  0.9450 -1.4162
  601MOL0     H79331   9.673  10.380  10.602  0.5931  0.7101  0.2730
  601MOL0     H79332   9.777  10.610  10.537 -0.1618  2.2926 -0.7689
  602MOL0     O79333   2.980   0.453   1.364 -0.5550 -0.3968 -0.6522
  602MOL0     C79334   2.955   0.560   1.427 -0.7886  0.3938 -1.2157
  602MOL0     O79335   2.844   0.644   1.414 -0.3982  0.1584  0.0884
  602MOL0     C79336   2.738   0.606   1.331 -0.0254 -0.3451 -0.4997
  602MOL0     C79337   2.712   0.685   1.228  0.8079 -0.2733  0.8031
  602MOL0     C79338   2.611   0.651   1.137 -0.2212 -0.3497  0.6849
  602MOL0     C79339   2.534   0.540   1.158  0.1302 -0.3169 -0.1732
  602MOL0     O79340   2.417   0.527   1.092  0.2099 -0.3543  0.2839
  602MOL0     C79341   2.430   0.426   0.990 -0.3891 -0.0614  0.6592
  602MOL0     C79342   2.295   0.368   0.936  0.5953 -0.3962 -0.6910
  602MOL0     C79343   2.240   0.272   1.042 -0.3505 -0.6654  0.5581
  602MOL0     C79344   2.111   0.204   0.999 -0.6613 -0.1167  0.2468
  602MOL0     C79345   2.105   0.063   1.048  0.5876 -1.1680  0.3820
  602MOL0     C79346   1.982  -0.016   0.997  0.2680  0.0034  0.7099
  602MOL0     C79347   1.844   0.041   1.030  0.8484 -0.5511  0.1224
  602MOL0     C79348   1.737  -0.063   0.998  0.8958  0.4770  0.0940
  602MOL0     N79349   1.602  -0.006   1.013 -0.3825  0.1122  0.1012
  602MOL0     C79350   1.525  -0.009   1.124  0.2668  0.4605  0.0233
  602MOL0     C79351   1.421   0.075   1.108 -1.5804  0.1223  0.4907
  602MOL0     C79352   1.300   0.086   1.191 -0.0166 -0.2179  0.0753
  602MOL0     C79353   1.312   0.161   1.318 -1.0035  0.5529 -0.0015
  602MOL0     C79354   1.180   0.218   1.359 -0.1188  0.3167 -0.4473
  602MOL0     C79355   1.072   0.115   1.391 -0.4721 -0.4938 -0.1665
  602MOL0     O79356   0.971   0.181   1.476 -0.3268 -0.1027  0.4281
  602MOL0     C79357   0.854   0.246   1.434  0.3490  0.0661  0.3219
  602MOL0     C79358   0.767   0.278   1.536 -0.1289 -0.2686  0.0693
  602MOL0     C79359   0.650   0.349   1.515  1.3587 -0.5332 -0.1546
  602MOL0     C79360   0.606   0.379   1.392 -0.0000 -0.3544  0.0719
  602MOL0     C79361   0.460   0.420   1.375  0.3452 -0.2165 -0.5779
  602MOL0     O79362   0.410   0.456   1.256 -0.1267  0.5233  0.6244
  602MOL0     C79363   0.280   0.468   1.222 -0.0693 -0.5809 -0.7219
  602MOL0     C79364   0.191   0.369   1.249  0.3514 -0.4225 -0.0483
  602MOL0     C79365   0.058   0.390   1.211  0.0951 -0.8114 -0.6669
  602MOL0     C79366   0.009   0.516   1.161  0.6986  1.7684 -0.1244
  602MOL0     O79367  -0.132   0.521   1.133 -0.2079  0.2924 -0.4072
  602MOL0     C79368  -0.191   0.609   1.037 -0.4955  0.2302 -0.9917
  602MOL0     C79369  -0.343   0.590   1.050  0.9627  0.2583 -0.4335
  602MOL0     C79370  -0.376   0.437   1.028 -0.2405 -1.1067  0.4102
  602MOL0     C79371  -0.521   0.406   1.069 -0.3171 -0.7163  0.0808
  602MOL0     C79372  -0.566   0.280   1.002  0.1420  0.3622  0.5398
  602MOL0     C79373  -0.715   0.255   1.011  0.5996 -0.3117  0.0838
  602MOL0     C79374  -0.780   0.161   0.903  0.1372 -0.8517  0.6243
  602MOL0     C79375  -0.767   0.014   0.928  0.4261 -0.7576 -0.1356
  602MOL0    Cl79376  -0.600  -0.052   0.904  0.5606 -0.3324  0.1195
  602MOL0     C79377   0.102   0.618   1.138  0.3568  1.5455 -0.4916
  602MOL0     C79378   0.232   0.596   1.168 -0.6812 -0.2195  0.9272
  602MOL0     O79379   0.394   0.397   1.479 -0.3503  0.1105  0.4962
  602MOL0     C79380   0.695   0.349   1.279  0.6623 -0.1738  0.0520
  602MOL0     C79381   0.812   0.283   1.307 -0.8226 -0.4055 -0.0696
  602MOL0     N79382   1.435   0.125   0.980 -0.0848  0.5692  0.7628
  602MOL0     N79383   1.530   0.067   0.919  0.0934 -0.2690 -0.3851
  602MOL0     C79384   2.557   0.462   1.270  0.7917  0.5537 -0.1499
  602MOL0     C79385   2.657   0.506   1.359 -0.3162 -0.6759  0.6951
  602MOL0     C79386   3.061   0.614   1.506 -0.7911  0.9427 -0.8804
  602MOL0     C79387   3.164   0.524   1.548  0.6012  0.7388  0.4529
  602MOL0     C79388   3.247   0.567   1.657  0.2089  0.7960 -0.0870
  602MOL0     C79389   3.248   0.701   1.703 -0.1375  0.1917  0.5024
  602MOL0     O79390   3.334   0.757   1.790 -0.4532 -0.0993  0.1931
  602MOL0     C79391   3.412   0.659   1.870 -0.6264  0.1420  0.2086
  602MOL0     C79392   3.552   0.652   1.815  0.4360  0.0963 -0.7872
  602MOL0     C79393   3.640   0.565   1.898 -0.4721  0.7084  0.2686
  602MOL0     C79394   3.788   0.591   1.877 -0.0722  0.3206  0.2264
  602MOL0     C79395   3.831   0.539   1.745  1.3623 -1.1204 -0.1250
  602MOL0     C79396   3.881   0.490   1.644 -0.6442  0.2222 -0.4105
  602MOL0     C79397   3.152   0.793   1.651  0.4965  0.3349 -1.4547
  602MOL0     C79398   3.053   0.743   1.563 -0.1739  0.0135  0.7842
  602MOL0     H79399   2.764   0.781   1.229  0.3287 -0.0081  2.2748
  602MOL0     H79400   2.596   0.723   1.058  1.8934  0.1599  0.6870
  602MOL0     H79401   2.509   0.353   1.011 -0.4111  0.2019  1.6694
  602MOL0     H79402   2.460   0.490   0.906 -2.9333 -1.5992 -1.5980
  602MOL0     H79403   2.319   0.310   0.846  2.0698  1.9922 -1.9124
  602MOL0     H79404   2.215   0.438   0.910 -1.0714 -1.1125  2.0328
  602MOL0     H79405   2.222   0.320   1.139  0.8073 -0.8578  0.8891
  602MOL0     H79406   2.313   0.191   1.049 -0.3903 -0.7806 -0.2761
  602MOL0     H79407   2.034   0.266   1.047  1.7228  0.3170  3.9407
  602MOL0     H79408   2.096   0.201   0.891  1.9819 -0.5941 -0.1742
  602MOL0     H79409   2.115   0.069   1.157  0.5526 -1.9504  0.4315
  602MOL0     H79410   2.192   0.009   1.010  1.0624 -2.2862  2.8383
  602MOL0     H79411   1.980  -0.117   1.038 -0.0447  0.1567  1.0806
  602MOL0     H79412   1.999  -0.020   0.889  3.6728 -2.2195  1.1950
  602MOL0     H79413   1.829   0.077   1.132 -0.7811  0.4971 -0.4415
  602MOL0     H79414   1.828   0.130   0.969  2.0061 -0.8182 -0.6043
  602MOL0     H79415   1.754  -0.140   1.073  1.5843  1.0343  0.5203
  602MOL0     H79416   1.747  -0.116   0.903 -0.8090 -0.1404  0.2186
  602MOL0     H79417   1.532  -0.075   1.210 -1.1721  1.9596  1.3717
  602MOL0     H79418   1.286  -0.020   1.217 -1.3741 -0.2669 -0.7769
  602MOL0     H79419   1.217   0.126   1.132  0.8255 -0.4281 -1.3021
  602MOL0     H79420   1.387   0.240   1.307  0.2743 -0.8083 -1.6087
  602MOL0     H79421   1.345   0.087   1.391 -4.1362 -0.2321  0.7815
  602MOL0     H79422   1.204   0.277   1.448  3.5160 -1.6805  0.1063
  602MOL0     H79423   1.148   0.286   1.279  5.6345  2.1054 -1.7010
  602MOL0     H79424   1.115   0.036   1.454 -2.2668 -0.2297  1.4744
  602MOL0     H79425   1.039   0.075   1.294 -1.4976  3.5121 -1.6530
  602MOL0     H79426   0.783   0.255   1.641  0.0712 -0.4831 -0.0096
  602MOL0     H79427   0.587   0.380   1.598  0.8777  0.1656 -0.7733
  602MOL0     H79428   0.213   0.278   1.304  0.0110 -1.3491 -1.4051
  602MOL0     H79429  -0.009   0.310   1.239 -2.0789  1.5239  1.3042
  602MOL0     H79430  -0.153   0.593   0.936  1.8551  1.9400 -0.4691
  602MOL0     H79431  -0.168   0.713   1.065 -3.0600  0.5612  0.1509
  602MOL0     H79432  -0.410   0.646   0.984 -0.2200 -1.0731 -0.4078
  602MOL0     H79433  -0.363   0.629   1.150 -0.0346  1.8609 -1.2104
  602MOL0     H79434  -0.312   0.375   1.091 -0.0371  0.2479  1.5818
  602MOL0     H79435  -0.347   0.410   0.926 -0.2035  1.4986 -0.3233
  602MOL0     H79436  -0.533   0.390   1.176 -0.9806 -2.1752 -0.1916
  602MOL0     H79437  -0.587   0.484   1.031  0.2974 -1.4250 -2.7173
  602MOL0     H79438  -0.507   0.198   1.044  0.2170  0.1346 -0.0066
  602MOL0     H79439  -0.552   0.290   0.894 -0.1577  1.1489  0.5631
  602MOL0     H79440  -0.773   0.348   1.003 -1.1075 -1.3947 -0.7709
  602MOL0     H79441  -0.730   0.208   1.109 -0.4855 -1.3386 -0.5525
  602MOL0     H79442  -0.883   0.194   0.887  0.5327  1.1137  1.8184
  602MOL0     H79443  -0.733   0.185   0.808 -3.4850 -3.1083 -2.0090
  602MOL0     H79444  -0.831  -0.024   0.847 -1.1356  1.6741 -0.1160
  602MOL0     H79445  -0.808  -0.003   1.028  3.3985 -0.9379  1.1347
  602MOL0     H79446   0.068   0.717   1.109  0.1328  1.3997 -0.7285
  602MOL0     H79447   0.294   0.682   1.144 -2.8890  1.1245 -0.1916
  602MOL0     H79448   0.672   0.367   1.174 -3.1370  1.1760  0.9353
  602MOL0     H79449   0.890   0.268   1.234 -0.7716 -2.6588  0.3720
  602MOL0     H79450   2.489   0.384   1.304 -2.6054  3.7772  1.0517
  602MOL0     H79451   2.672   0.459   1.456 -0.5245  1.5573  1.8660
  602MOL0     H79452   3.160   0.422   1.511  2.7154 -0.0938  2.3049
  602MOL0     H79453   3.326   0.496   1.681 -0.9290 -1.5809 -2.8048
  602MOL0     H79454   3.360   0.563   1.878 -0.9695  0.3071  0.0298
  602MOL0     H79455   3.430   0.699   1.970  0.6679 -3.0583  1.3628
  602MOL0     H79456   3.546   0.602   1.718 -0.1305 -0.0438 -0.6851
  602MOL0     H79457   3.599   0.750   1.823  2.6545 -1.0107  1.6252
  602MOL0     H79458   3.611   0.459   1.894 -0.8889  0.8274  0.0575
  602MOL0     H79459   3.625   0.594   2.003  0.3260  3.9351 -0.4062
  602MOL0     H79460   3.808   0.698   1.888  0.4464  0.2045  0.4061
  602MOL0     H79461   3.839   0.543   1.961  0.4603  0.1860 -0.1748
  602MOL0     H79462   3.927   0.434   1.565  0.8020  0.8211 -0.0146
  602MOL0     H79463   3.151   0.894   1.689 -1.3821 -0.7216  1.6288
  602MOL0     H79464   2.979   0.814   1.528  3.9578  3.0306 -3.0138
  603MOL0     O79465  10.657   7.523   2.513 -0.6180 -0.1687  0.0571
  603MOL0     C79466  10.627   7.587   2.614  0.4348  0.6752  0.0679
  603MOL0     O79467  10.492   7.618   2.642 -0.1875  1.2106  0.3561
  603MOL0     C79468  10.391   7.572   2.568 -0.0018  0.1346 -0.2113
  603MOL0     C79469  10.333   7.651   2.469 -0.8155 -0.2323 -0.4676
  603MOL0     C79470  10.208   7.612   2.417 -0.5346  0.7501  0.5183
  603MOL0     C79471  10.153   7.483   2.454 -0.3919 -0.4629  0.2897
  603MOL0     O79472  10.041   7.430   2.405 -0.2485 -0.3422 -0.0762
  603MOL0     C79473   9.958   7.516   2.315  0.1240 -0.0190 -0.1777
  603MOL0     C79474   9.833   7.439   2.281 -0.0450  0.3865 -0.2095
  603MOL0     C79475   9.757   7.417   2.416 -0.1379  0.1563 -0.8338
  603MOL0     C79476   9.618   7.363   2.392 -0.1369 -0.7368 -0.4800
  603MOL0     C79477   9.533   7.414   2.510  0.6162 -0.2415 -0.3736
  603MOL0     C79478   9.505   7.572   2.517  0.2233  0.3203 -0.0815
  603MOL0     C79479   9.424   7.619   2.399  0.3026  0.4792  0.3328
  603MOL0     C79480   9.403   7.778   2.397  0.3039 -0.4078  0.4004
  603MOL0     N79481   9.320   7.826   2.513  0.7398  0.1299 -0.1495
  603MOL0     C79482   9.185   7.809   2.525 -0.0567 -0.8406 -0.4782
  603MOL0     C79483   9.155   7.896   2.633  0.5555  0.7721  0.5863
  603MOL0     C79484   9.013   7.940   2.668  0.9453  0.6269 -0.6215
  603MOL0     C79485   8.917   7.820   2.702  0.7241 -1.0880  0.9244
  603MOL0     C79486   8.784   7.851   2.758 -0.0195 -0.3074  0.4071
  603MOL0     C79487   8.700   7.718   2.802 -0.6560 -0.7610  0.1095
  603MOL0     O79488   8.695   7.611   2.709  0.1646  0.7201  0.4705
  603MOL0     C79489   8.573   7.601   2.651 -0.1768 -0.1434  0.2969
  603MOL0     C79490   8.516   7.708   2.588 -0.2731  0.4434 -0.2299
  603MOL0     C79491   8.387   7.700   2.532  0.7552 -0.3612 -0.1192
  603MOL0     C79492   8.305   7.582   2.550 -1.3604 -0.6157  0.2639
  603MOL0     C79493   8.176   7.576   2.496  0.3738  0.5587  0.2434
  603MOL0     O79494   8.093   7.470   2.547 -0.6363  0.0299 -0.1366
  603MOL0     C79495   7.966   7.480   2.496 -0.7047 -0.2910 -0.2842
  603MOL0     C79496   7.881   7.566   2.557 -0.5690  0.7861 -0.9039
  603MOL0     C79497   7.760   7.603   2.494  0.2950  0.4066 -0.8882
  603MOL0     C79498   7.718   7.534   2.383 -0.7154 -0.1387  0.5651
  603MOL0     O79499   7.593   7.553   2.326  0.2815 -0.5147 -0.4252
  603MOL0     C79500   7.513   7.662   2.372 -0.2677 -0.2524 -0.2212
  603MOL0     C79501   7.409   7.684   2.252  0.0020  0.0931  0.7692
  603MOL0     C79502   7.276   7.625   2.290  0.2273  0.7470  0.5918
  603MOL0     C79503   7.170   7.674   2.195 -0.7280 -0.7336  0.1296
  603MOL0     C79504   7.028   7.625   2.236 -0.0629  0.0156 -0.2794
  603MOL0     C79505   6.971   7.723   2.344  0.3897  0.0270 -0.5688
  603MOL0     C79506   6.828   7.686   2.373 -0.0897  0.4803 -0.2495
  603MOL0     C79507   6.748   7.806   2.424 -0.3010  0.4052 -0.0849
  603MOL0    Cl79508   6.585   7.742   2.467 -0.1126  0.2690 -0.1526
  603MOL0     C79509   7.807   7.436   2.322  0.0289 -0.4323  0.1847
  603MOL0     C79510   7.938   7.407   2.377  0.5033  0.2468 -0.6056
  603MOL0     O79511   8.142   7.661   2.408 -0.7075  0.5466 -0.9508
  603MOL0     C79512   8.362   7.472   2.614  0.3465  0.0566 -0.0981
  603MOL0     C79513   8.497   7.483   2.663 -0.2367 -0.0049 -0.1500
  603MOL0     N79514   9.269   7.941   2.693  0.5613  0.0393 -0.2438
  603MOL0     N79515   9.371   7.896   2.620 -0.6904  0.2849  0.4699
  603MOL0     C79516  10.223   7.399   2.540  0.3128 -0.1193 -0.3636
  603MOL0     C79517  10.339   7.448   2.601 -0.3609  0.1798 -0.2370
  603MOL0     C79518  10.742   7.641   2.680 -0.4172  0.4017 -0.0883
  603MOL0     C79519  10.745   7.769   2.733 -0.2943  0.5451 -0.5729
  603MOL0     C79520  10.857   7.826   2.800  0.8273 -0.3662 -0.6249
  603MOL0     C79521  10.973   7.748   2.810 -0.1354  0.3878  0.5023
  603MOL0     O79522  11.094   7.807   2.856  0.4403 -0.0656  0.4606
  603MOL0     C79523  11.209   7.727   2.886  0.0471  0.4137 -0.7420
  603MOL0     C79524  11.283   7.690   2.761 -0.0842 -0.0406  0.0380
  603MOL0     C79525  11.391   7.792   2.732 -0.1422  0.0402 -0.1345
  603MOL0     C79526  11.447   7.779   2.589 -0.0331  0.5064 -0.4662
  603MOL0     C79527  11.554   7.871   2.565 -0.6259 -0.8577 -0.0377
  603MOL0     C79528  11.658   7.937   2.555  0.2471 -0.6819 -0.4471
  603MOL0     C79529  10.968   7.618   2.757  0.2443  0.7442 -0.4619
  603MOL0     C79530  10.855   7.569   2.688  0.3444 -0.5202  0.1375
  603MOL0     H79531  10.384   7.744   2.446 -0.3260 -0.7180 -1.4006
  603MOL0     H79532  10.156   7.664   2.337  0.0857  2.1665  1.0103
  603MOL0     H79533  10.020   7.526   2.225 -0.8437 -2.4939 -1.2186
  603MOL0     H79534   9.928   7.607   2.366  1.6856  0.2101  0.3910
  603MOL0     H79535   9.851   7.350   2.221 -2.7580  0.1560 -0.8150
  603MOL0     H79536   9.767   7.508   2.227 -1.1677 -0.5161 -0.0262
  603MOL0     H79537   9.755   7.506   2.481  1.9049 -0.4022  0.0805
  603MOL0     H79538   9.803   7.337   2.474 -1.8853 -2.2829 -2.5776
  603MOL0     H79539   9.571   7.393   2.298  0.9007  0.4902 -0.6298
  603MOL0     H79540   9.613   7.254   2.386 -2.9607 -0.9493  2.4266
  603MOL0     H79541   9.569   7.376   2.606 -1.7057 -3.1359 -0.5418
  603MOL0     H79542   9.432   7.375   2.496  0.2324  0.5577  0.0852
  603MOL0     H79543   9.598   7.627   2.531  0.4586  0.2952 -1.3471
  603MOL0     H79544   9.449   7.593   2.608 -2.1740  1.3119 -1.6625
  603MOL0     H79545   9.480   7.606   2.306  1.8285 -0.6003  1.3568
  603MOL0     H79546   9.329   7.565   2.402  0.1418  0.5731 -1.6100
  603MOL0     H79547   9.354   7.800   2.302  1.2131 -1.7527 -0.4160
  603MOL0     H79548   9.502   7.823   2.408  0.6416 -0.4060 -2.2075
  603MOL0     H79549   9.117   7.770   2.449 -0.3326 -0.2847 -0.5191
  603MOL0     H79550   8.981   7.998   2.581  1.0206  0.3414 -0.8444
  603MOL0     H79551   9.029   7.996   2.760 -1.6168  0.7036 -0.1351
  603MOL0     H79552   8.969   7.759   2.776  0.8918 -0.1090  1.6331
  603MOL0     H79553   8.909   7.759   2.611 -2.6120  2.1883 -1.2935
  603MOL0     H79554   8.804   7.910   2.848 -2.1478 -0.0696  0.7676
  603MOL0     H79555   8.729   7.910   2.684  0.9133 -2.7624 -2.4370
  603MOL0     H79556   8.602   7.748   2.841  0.8688  3.2492  1.4489
  603MOL0     H79557   8.758   7.677   2.885 -1.1694  0.3127  1.0232
  603MOL0     H79558   8.572   7.800   2.574  0.1935 -0.1812 -3.0491
  603MOL0     H79559   8.356   7.794   2.487 -1.9719 -0.5088  1.2752
  603MOL0     H79560   7.922   7.611   2.647 -1.3263 -2.4487  1.2437
  603MOL0     H79561   7.700   7.665   2.559  1.7456  0.9407 -0.0082
  603MOL0     H79562   7.579   7.748   2.392 -0.4671 -0.8419  3.7170
  603MOL0     H79563   7.462   7.641   2.466 -2.9480 -1.2904 -1.8083
  603MOL0     H79564   7.448   7.640   2.160  2.7072  1.1446  1.3330
  603MOL0     H79565   7.388   7.790   2.240  1.2671  0.6500  3.0489
  603MOL0     H79566   7.243   7.644   2.392 -1.1598 -0.8124  0.4655
  603MOL0     H79567   7.276   7.517   2.273  0.4228  1.1162 -2.3826
  603MOL0     H79568   7.168   7.782   2.175  1.1292 -0.8351 -0.8325
  603MOL0     H79569   7.191   7.631   2.097 -1.2676  0.3409 -0.4721
  603MOL0     H79570   7.035   7.527   2.284 -0.1786 -0.3786 -1.0432
  603MOL0     H79571   6.953   7.623   2.156  0.0487 -2.8418 -0.4162
  603MOL0     H79572   6.984   7.830   2.324 -1.1658  0.4852  0.6567
  603MOL0     H79573   7.018   7.715   2.442 -1.1535  0.9533  0.2885
  603MOL0     H79574   6.777   7.650   2.283  3.2494 -1.4774 -1.5457
  603MOL0     H79575   6.814   7.595   2.432  0.9619 -0.1862 -0.9793
  603MOL0     H79576   6.752   7.889   2.354 -0.5255  0.9581  0.5538
  603MOL0     H79577   6.789   7.846   2.517  1.4162 -3.1925  0.8958
  603MOL0     H79578   7.782   7.384   2.230 -0.3643 -2.0435  1.1565
  603MOL0     H79579   8.016   7.348   2.330  5.7718  3.0704  3.5561
  603MOL0     H79580   8.315   7.376   2.632 -0.4735  0.7615  1.8948
  603MOL0     H79581   8.547   7.398   2.706 -1.0845 -0.2995  0.2786
  603MOL0     H79582  10.180   7.301   2.561  1.4509 -0.7954 -1.1009
  603MOL0     H79583  10.395   7.387   2.671  2.3865 -1.3801 -3.5116
  603MOL0     H79584  10.657   7.833   2.732 -1.9083 -1.5420 -1.6737
  603MOL0     H79585  10.861   7.929   2.834 -0.9193 -0.4880  0.0565
  603MOL0     H79586  11.170   7.633   2.924  1.1358  0.8931  1.7574
  603MOL0     H79587  11.274   7.777   2.958 -1.6549  0.3902  0.8665
  603MOL0     H79588  11.323   7.592   2.788 -4.1020 -1.1675  2.8878
  603MOL0     H79589  11.218   7.667   2.676  0.2813  0.5429 -0.4051
  603MOL0     H79590  11.465   7.785   2.813 -0.5830  0.6733  0.3326
  603MOL0     H79591  11.339   7.888   2.741 -1.2905 -0.6334  0.7326
  603MOL0     H79592  11.489   7.680   2.567  1.3434  0.7883  0.7599
  603MOL0     H79593  11.366   7.785   2.516  1.2421  0.1591 -1.9554
  603MOL0     H79594  11.747   7.995   2.539  1.2701 -1.8774  0.7560
  603MOL0     H79595  11.055   7.553   2.761 -0.5934 -0.3926 -0.2584
  603MOL0     H79596  10.860   7.464   2.661  1.8825 -0.2876 -0.5674
  604MOL0     O79597   6.545   1.511  10.331  0.4697  0.6780 -0.2886
  604MOL0     C79598   6.620   1.574  10.265 -0.4710 -0.4154  0.3289
  604MOL0     O79599   6.609   1.707  10.248 -0.7586 -0.6496 -0.0462
  604MOL0     C79600   6.534   1.781  10.327 -0.0792  0.1082  0.7615
  604MOL0     C79601   6.446   1.871  10.273  0.5647 -0.6296 -0.5892
  604MOL0     C79602   6.356   1.954  10.351  0.0333  0.1967  0.2189
  604MOL0     C79603   6.366   1.942  10.490 -0.0994  0.3367 -0.0693
  604MOL0     O79604   6.291   2.017  10.570  0.4628  0.3096 -0.3222
  604MOL0     C79605   6.149   1.997  10.555 -0.3297  0.5045 -0.0054
  604MOL0     C79606   6.080   2.071  10.662  0.3663  0.1917  0.1637
  604MOL0     C79607   5.926   2.058  10.651  0.3424 -0.0304  0.5476
  604MOL0     C79608   5.857   2.165  10.740  0.6027 -0.7229 -0.3625
  604MOL0     C79609   5.705   2.161  10.714  0.4630  0.6961  0.0175
  604MOL0     C79610   5.638   2.246  10.828  0.2740  0.0471  0.4919
  604MOL0     C79611   5.492   2.241  10.822  0.2786 -0.4499 -0.7379
  604MOL0     C79612   5.445   2.341  10.709  0.7721 -0.5507 -0.3400
  604MOL0     N79613   5.299   2.372  10.713 -0.1240 -0.2979  0.3099
  604MOL0     C79614   5.234   2.497  10.739  0.3260 -0.1009  0.5058
  604MOL0     C79615   5.106   2.468  10.734 -0.3049  0.3081  0.0082
  604MOL0     C79616   4.998   2.576  10.750 -0.3323  0.0294  0.2926
  604MOL0     C79617   4.858   2.524  10.811 -0.2917  0.1044 -0.2211
  604MOL0     C79618   4.768   2.469  10.697 -0.1745  0.1742  0.0343
  604MOL0     C79619   4.648   2.535  10.686  1.0568  0.1894 -0.5906
  604MOL0     O79620   4.570   2.513  10.805 -0.5326 -0.0665 -0.6480
  604MOL0     C79621   4.432   2.540  10.799 -0.5817 -0.2411  0.1653
  604MOL0     C79622   4.354   2.472  10.896 -0.0543  0.0019 -0.6700
  604MOL0     C79623   4.212   2.507  10.898 -0.0221  0.5175  0.2569
  604MOL0     C79624   4.152   2.594  10.811 -0.8827  0.0251 -0.1789
  604MOL0     C79625   4.009   2.619  10.814 -0.0389  0.1003 -0.7764
  604MOL0     O79626   3.944   2.574  10.926 -0.3476  0.0098 -0.0649
  604MOL0     C79627   3.810   2.582  10.928 -0.3521  0.0869 -0.1047
  604MOL0     C79628   3.731   2.697  10.939 -0.1715 -0.5196  0.1638
  604MOL0     C79629   3.595   2.699  10.953  0.5922 -0.9194  0.3334
  604MOL0     C79630   3.522   2.583  10.942  1.2482  0.5056 -0.7498
  604MOL0     O79631   3.386   2.584  10.954  0.0680  0.0483 -0.5973
  604MOL0     C79632   3.313   2.461  10.917  0.7766 -0.0794 -0.3760
  604MOL0     C79633   3.169   2.513  10.906  0.1457  1.3746 -0.2870
  604MOL0     C79634   3.065   2.400  10.870  0.2635  0.6141  0.5426
  604MOL0     C79635   2.926   2.444  10.857 -0.3748 -0.4709 -1.0147
  604MOL0     C79636   2.823   2.334  10.815 -0.2530 -0.3801  0.7069
  604MOL0     C79637   2.683   2.371  10.853  0.4990  0.0772  1.0200
  604MOL0     C79638   2.590   2.274  10.780  0.0701  0.2642 -0.2726
  604MOL0     C79639   2.441   2.308  10.811 -0.6295  0.5941  0.1074
  604MOL0    Cl79640   2.328   2.217  10.705 -0.2622  0.1957 -0.4989
  604MOL0     C79641   3.592   2.470  10.920 -0.2258  0.3114 -0.0207
  604MOL0     C79642   3.731   2.467  10.920  0.5536  0.7028 -0.4305
  604MOL0     O79643   3.960   2.666  10.710 -0.4374 -0.2081  0.2664
  604MOL0     C79644   4.239   2.654  10.722 -0.4086  0.5645  0.8725
  604MOL0     C79645   4.374   2.624  10.706  0.4560  0.0679 -0.6890
  604MOL0     N79646   5.087   2.336  10.710  0.8274 -0.0032  0.0760
  604MOL0     N79647   5.199   2.276  10.688 -0.0223 -0.3198  0.1556
  604MOL0     C79648   6.460   1.851  10.550 -0.1324 -0.2944  0.0791
  604MOL0     C79649   6.540   1.776  10.466  0.2008 -0.0890 -0.1433
  604MOL0     C79650   6.739   1.517  10.202 -0.2951  0.1898 -0.1678
  604MOL0     C79651   6.812   1.590  10.106  0.5941 -0.1720 -0.6342
  604MOL0     C79652   6.919   1.532  10.044 -1.5514  0.3497  0.8507
  604MOL0     C79653   6.959   1.393  10.075  0.0744  0.3095 -0.7269
  604MOL0     O79654   7.074   1.321  10.047  0.2044  0.3260 -0.1671
  604MOL0     C79655   7.174   1.370   9.954 -0.3971  0.0008  0.2856
  604MOL0     C79656   7.306   1.318  10.005 -0.7699  0.6712  0.7381
  604MOL0     C79657   7.339   1.178   9.956 -0.4070  0.4344  0.0547
  604MOL0     C79658   7.481   1.129  10.002  0.1622 -0.2976 -0.7680
  604MOL0     C79659   7.543   1.010   9.947  0.4945  0.3701  0.9125
  604MOL0     C79660   7.595   0.908   9.901 -0.3233  0.3559  0.3199
  604MOL0     C79661   6.879   1.325  10.171  0.2512 -0.1615  0.2910
  604MOL0     C79662   6.781   1.386  10.243 -0.9490  0.5128 -0.1367
  604MOL0     H79663   6.426   1.888  10.168 -1.6478 -0.6909 -0.2263
  604MOL0     H79664   6.286   2.023  10.304  0.6234  0.2840 -0.5512
  604MOL0     H79665   6.137   1.889  10.568  2.7133  0.3068  2.0960
  604MOL0     H79666   6.107   2.026  10.458 -0.5689  1.1480  0.2839
  604MOL0     H79667   6.114   2.175  10.671 -1.5900  1.0519 -1.4567
  604MOL0     H79668   6.117   2.030  10.756 -1.4655 -0.0605  0.8149
  604MOL0     H79669   5.900   1.953  10.669  0.2312 -0.2470 -0.7268
  604MOL0     H79670   5.886   2.074  10.550  1.5465 -1.1963 -0.1530
  604MOL0     H79671   5.880   2.151  10.846  2.4152 -1.9411 -0.8756
  604MOL0     H79672   5.878   2.268  10.712 -0.8547 -0.1560  0.5449
  604MOL0     H79673   5.668   2.058  10.724  0.4062  0.5217 -1.6907
  604MOL0     H79674   5.671   2.199  10.617 -1.6627 -1.3190 -0.1536
  604MOL0     H79675   5.674   2.349  10.826  1.4837 -0.3621 -0.2084
  604MOL0     H79676   5.669   2.202  10.924 -0.8631 -0.3530  0.6883
  604MOL0     H79677   5.437   2.149  10.801 -2.7919  1.1995 -0.4391
  604MOL0     H79678   5.448   2.277  10.915 -0.7999 -1.5212 -0.8051
  604MOL0     H79679   5.454   2.299  10.608 -1.0997  0.6468 -1.0768
  604MOL0     H79680   5.495   2.438  10.717 -0.7798  0.4166 -1.5091
  604MOL0     H79681   5.276   2.596  10.751 -0.2616  0.3803 -1.1272
  604MOL0     H79682   4.975   2.643  10.666 -0.4939 -0.0866  0.2451
  604MOL0     H79683   5.027   2.651  10.825  2.0223  0.1100 -0.6190
  604MOL0     H79684   4.802   2.602  10.862  1.2606  1.4964 -0.5463
  604MOL0     H79685   4.875   2.450  10.890  3.0078  0.6765 -0.2395
  604MOL0     H79686   4.803   2.487  10.596 -2.4595  1.8477 -0.5388
  604MOL0     H79687   4.765   2.361  10.719  1.8074  0.4083  1.8139
  604MOL0     H79688   4.600   2.489  10.600  1.7713  0.6434 -1.2440
  604MOL0     H79689   4.651   2.643  10.666  1.7283  0.3190  0.1176
  604MOL0     H79690   4.398   2.402  10.966  1.1595  1.8212  0.4985
  604MOL0     H79691   4.151   2.447  10.966  2.4557 -1.6063  0.7776
  604MOL0     H79692   3.784   2.792  10.940 -2.1533  0.6630 -0.1738
  604MOL0     H79693   3.550   2.796  10.975  0.8418 -1.0913  1.6636
  604MOL0     H79694   3.330   2.376  10.984  0.9901 -1.4113 -2.0465
  604MOL0     H79695   3.340   2.420  10.819 -0.0574 -1.9124  0.1217
  604MOL0     H79696   3.178   2.595  10.835  1.4762  3.3980  2.0824
  604MOL0     H79697   3.131   2.556  11.000 -1.3629  1.9271 -1.1083
  604MOL0     H79698   3.071   2.322  10.947  1.9888  1.8099  1.6812
  604MOL0     H79699   3.101   2.345  10.782 -0.7877  0.8343 -0.0419
  604MOL0     H79700   2.896   2.488  10.952  0.0429 -3.6559  0.7447
  604MOL0     H79701   2.923   2.520  10.779 -1.1416 -0.1847 -0.7200
  604MOL0     H79702   2.848   2.237  10.860 -3.5343 -0.7281  2.0468
  604MOL0     H79703   2.825   2.332  10.705 -0.4193 -0.1858  0.7012
  604MOL0     H79704   2.671   2.477  10.827  1.2548 -0.4445 -1.7991
  604MOL0     H79705   2.675   2.375  10.961  1.0979  4.6308  1.0943
  604MOL0     H79706   2.608   2.307  10.677  1.1356  0.4467 -0.0334
  604MOL0     H79707   2.619   2.169  10.792 -0.4879 -0.2790 -2.8446
  604MOL0     H79708   2.441   2.418  10.805  1.5794  0.5560 -2.3333
  604MOL0     H79709   2.421   2.291  10.917 -3.6644 -0.9770 -0.6232
  604MOL0     H79710   3.539   2.377  10.899  0.9061 -0.7872  1.7365
  604MOL0     H79711   3.783   2.375  10.894 -0.7511 -0.5901  1.3696
  604MOL0     H79712   4.194   2.727  10.655 -0.1995 -0.8143 -0.8566
  604MOL0     H79713   4.422   2.675  10.623 -2.2312  1.7602 -1.3194
  604MOL0     H79714   6.473   1.862  10.657  3.3844 -0.4419 -0.2303
  604MOL0     H79715   6.608   1.710  10.519  1.9385  1.3305 -0.4823
  604MOL0     H79716   6.797   1.693  10.075  0.8870 -0.4092 -1.6140
  604MOL0     H79717   6.991   1.584   9.981 -1.7363  1.2104  1.3298
  604MOL0     H79718   7.177   1.477   9.936  0.4240  0.0073  0.4138
  604MOL0     H79719   7.151   1.332   9.853 -1.0608  1.6557 -0.2088
  604MOL0     H79720   7.392   1.377   9.972 -0.3238 -0.9252 -1.1646
  604MOL0     H79721   7.302   1.319  10.114 -3.4936 -0.2746  0.6976
  604MOL0     H79722   7.334   1.196   9.849 -1.5801 -0.6561 -0.0955
  604MOL0     H79723   7.262   1.105   9.983 -0.4159  0.3960 -0.0769
  604MOL0     H79724   7.543   1.217   9.987 -1.0962  1.0014  1.0916
  604MOL0     H79725   7.492   1.122  10.111  1.2193  3.9657 -0.4307
  604MOL0     H79726   7.640   0.825   9.851 -1.3279 -0.5363  0.8632
  604MOL0     H79727   6.900   1.224  10.202 -1.4592  0.0226  2.2930
  604MOL0     H79728   6.719   1.329  10.311  0.8829  0.6435  1.7413
  605MOL0     O79729   9.923   4.437   3.822  0.4124  0.5359 -0.0753
  605MOL0     C79730   9.809   4.479   3.822 -0.6421 -0.0566  0.0977
  605MOL0     O79731   9.768   4.599   3.874 -0.5736  0.4884 -0.2661
  605MOL0     C79732   9.864   4.694   3.919 -0.3548 -0.2183  0.8056
  605MOL0     C79733   9.966   4.667   4.016  0.4467 -0.1767  1.2735
  605MOL0     C79734  10.059   4.768   4.044  0.8461 -0.1494 -0.7413
  605MOL0     C79735  10.054   4.902   3.982 -0.5516  0.2292 -1.3449
  605MOL0     O79736  10.134   5.011   4.011  0.2928 -0.3058 -0.0427
  605MOL0     C79737  10.240   4.983   4.105 -0.4208 -1.0038 -0.4093
  605MOL0     C79738  10.336   5.109   4.118  0.6771 -0.1388 -0.2679
  605MOL0     C79739  10.455   5.066   4.209  0.5323  1.0148 -0.7847
  605MOL0     C79740  10.546   5.183   4.254 -0.0035  0.0438  0.0515
  605MOL0     C79741  10.641   5.162   4.380  0.4684  0.5597  0.7522
  605MOL0     C79742  10.569   5.130   4.511  0.2485  0.1355  0.3684
  605MOL0     C79743  10.674   5.089   4.620  0.4322 -0.9488  0.5761
  605MOL0     C79744  10.742   5.213   4.672 -1.1267 -0.9923 -0.8052
  605MOL0     N79745  10.871   5.261   4.604  0.1010  0.1636  0.6727
  605MOL0     C79746  10.975   5.176   4.578  0.2751 -0.0585 -0.3459
  605MOL0     C79747  11.070   5.254   4.532  0.0766  0.1194  0.1714
  605MOL0     C79748  11.204   5.196   4.489 -0.5545 -0.6422  0.2546
  605MOL0     C79749  11.235   5.242   4.345 -0.0606 -0.5767  0.9473
  605MOL0     C79750  11.365   5.172   4.315  0.4886  1.4383 -0.2274
  605MOL0     C79751  11.407   5.198   4.170  0.2764 -0.0494 -0.0353
  605MOL0     O79752  11.527   5.115   4.151  0.3954  0.5521  0.4249
  605MOL0     C79753  11.642   5.179   4.110 -0.9830  0.7789 -0.1445
  605MOL0     C79754  11.657   5.256   3.998 -1.3805 -0.0625  0.4083
  605MOL0     C79755  11.788   5.301   3.967 -0.2759 -0.7164 -0.7553
  605MOL0     C79756  11.903   5.284   4.043 -0.2986 -0.0461 -0.0126
  605MOL0     C79757  12.039   5.317   3.993  0.9177  0.9295  0.4159
  605MOL0     O79758  12.140   5.265   4.061  0.2904 -1.2951  0.4509
  605MOL0     C79759  12.266   5.302   4.029 -1.2318  0.4624  0.1925
  605MOL0     C79760  12.330   5.400   4.105  0.1676 -0.5635  0.9126
  605MOL0     C79761  12.468   5.436   4.077  0.1184 -0.3351  0.1455
  605MOL0     C79762  12.556   5.358   4.000  0.2510  0.4727  0.1539
  605MOL0     O79763  12.691   5.384   3.988  0.7389  0.5420  0.2012
  605MOL0     C79764  12.742   5.403   3.858  0.1002 -0.3671 -0.7557
  605MOL0     C79765  12.743   5.557   3.848 -0.1387 -0.6386  0.7752
  605MOL0     C79766  12.728   5.595   3.696  0.1285 -0.4316  0.0318
  605MOL0     C79767  12.719   5.746   3.672  0.4340 -0.0749  1.5362
  605MOL0     C79768  12.665   5.799   3.532 -0.3981  0.8127 -0.0017
  605MOL0     C79769  12.697   5.947   3.510  1.0640  0.7248 -0.2500
  605MOL0     C79770  12.643   6.001   3.387 -0.3352  0.2045 -0.2170
  605MOL0     C79771  12.656   6.151   3.390  0.8860  1.0030  0.5311
  605MOL0    Cl79772  12.826   6.193   3.387  0.7519 -0.0611  0.5557
  605MOL0     C79773  12.496   5.245   3.941 -0.0053 -0.8198  0.5253
  605MOL0     C79774  12.354   5.230   3.945  0.1054 -0.0148 -1.0202
  605MOL0     O79775  12.047   5.376   3.890  0.4073 -0.6158 -0.2841
  605MOL0     C79776  11.879   5.206   4.157  0.4189  0.4803 -1.0839
  605MOL0     C79777  11.756   5.154   4.190 -1.6156  0.0109 -0.7776
  605MOL0     N79778  11.024   5.385   4.521 -0.6814  0.0530 -0.7759
  605MOL0     N79779  10.904   5.392   4.568  0.0991  0.6681 -0.8583
  605MOL0     C79780   9.946   4.926   3.893  0.5693  0.1065 -0.2321
  605MOL0     C79781   9.857   4.819   3.856  0.8050 -0.1101  0.0306
  605MOL0     C79782   9.698   4.406   3.761 -0.0343  0.7843 -0.3601
  605MOL0     C79783   9.722   4.306   3.660  0.1113  0.7689  0.5724
  605MOL0     C79784   9.622   4.223   3.609  0.4468 -0.6305 -0.3318
  605MOL0     C79785   9.489   4.244   3.643  0.0317 -0.1141 -0.3117
  605MOL0     O79786   9.398   4.155   3.589 -0.4589  0.1379 -0.0793
  605MOL0     C79787   9.259   4.167   3.627  0.7444 -0.0420 -0.3728
  605MOL0     C79788   9.175   4.049   3.584 -0.2202  0.0147 -0.4211
  605MOL0     C79789   9.152   4.061   3.431 -0.1360  0.2982 -0.5963
  605MOL0     C79790   9.091   3.939   3.365  0.7488  0.6082 -0.0728
  605MOL0     C79791   9.160   3.814   3.390  0.4149 -0.6042 -0.1610
  605MOL0     C79792   9.239   3.718   3.398 -0.3415  0.1763 -0.1160
  605MOL0     C79793   9.462   4.358   3.721 -0.6526  0.5029  1.0712
  605MOL0     C79794   9.563   4.436   3.782 -0.0695  0.4013  0.7088
  605MOL0     H79795   9.974   4.570   4.064 -0.1015 -0.9487 -0.1519
  605MOL0     H79796  10.136   4.742   4.116  1.8130  0.3516 -1.5756
  605MOL0     H79797  10.305   4.904   4.066  0.2332  0.2633 -1.9796
  605MOL0     H79798  10.210   4.967   4.209  3.5659  2.8904  1.6900
  605MOL0     H79799  10.277   5.192   4.158 -2.9537 -0.9775 -3.2917
  605MOL0     H79800  10.368   5.129   4.016  2.0759  0.1771  0.2040
  605MOL0     H79801  10.510   4.991   4.152 -2.2800 -0.9132 -1.1315
  605MOL0     H79802  10.414   5.009   4.292  3.4452  0.0406  0.1129
  605MOL0     H79803  10.604   5.214   4.166 -0.1100 -1.4213 -0.5597
  605MOL0     H79804  10.484   5.266   4.290  0.2928 -0.3816  1.5683
  605MOL0     H79805  10.706   5.249   4.395 -0.4964  1.0706  2.2005
  605MOL0     H79806  10.711   5.081   4.357 -0.0396  0.5367 -0.8321
  605MOL0     H79807  10.503   5.043   4.502  1.0695 -0.5341  0.6098
  605MOL0     H79808  10.505   5.210   4.548 -1.2903 -1.1366  0.5798
  605MOL0     H79809  10.620   5.037   4.700 -2.3355  1.0518  0.1785
  605MOL0     H79810  10.741   5.015   4.577  3.6087  1.4250  1.0888
  605MOL0     H79811  10.766   5.189   4.776 -1.0742  1.2941 -0.2468
  605MOL0     H79812  10.671   5.296   4.676  0.0828  0.0474  2.1637
  605MOL0     H79813  10.994   5.072   4.599  1.8598  0.2826  0.0575
  605MOL0     H79814  11.204   5.086   4.485 -1.2347 -0.6449 -4.0478
  605MOL0     H79815  11.281   5.228   4.560 -0.0874 -1.9679  0.3767
  605MOL0     H79816  11.254   5.350   4.334 -0.4382 -0.7663 -2.3987
  605MOL0     H79817  11.151   5.211   4.283  0.1859  0.1359  0.2278
  605MOL0     H79818  11.445   5.209   4.381 -0.6265  1.4017  1.1986
  605MOL0     H79819  11.349   5.065   4.327  0.7831  1.5214  1.1517
  605MOL0     H79820  11.441   5.302   4.158  1.9254 -0.7499 -1.9937
  605MOL0     H79821  11.322   5.177   4.104  0.3345 -2.3907  0.5540
  605MOL0     H79822  11.569   5.278   3.937 -0.3208  2.6868 -0.3129
  605MOL0     H79823  11.802   5.373   3.886  0.6433 -0.8242 -0.7042
  605MOL0     H79824  12.267   5.465   4.165 -2.0991 -1.7804 -0.0431
  605MOL0     H79825  12.513   5.515   4.137  0.9382 -1.4802  1.1128
  605MOL0     H79826  12.681   5.363   3.776 -2.3586 -0.9702  1.2559
  605MOL0     H79827  12.844   5.365   3.846  0.1748 -0.0909 -1.0339
  605MOL0     H79828  12.836   5.600   3.886 -0.8444  0.4488  1.3067
  605MOL0     H79829  12.676   5.604   3.920  1.8494  1.3958  1.4169
  605MOL0     H79830  12.630   5.556   3.667  0.5773 -1.8919  0.3705
  605MOL0     H79831  12.811   5.547   3.642  1.9086 -0.2861  2.4895
  605MOL0     H79832  12.663   5.790   3.755 -1.4709 -1.1211  0.8688
  605MOL0     H79833  12.817   5.793   3.674 -1.2539  3.9748  0.4834
  605MOL0     H79834  12.562   5.774   3.506 -0.5486  2.1801 -0.8021
  605MOL0     H79835  12.717   5.737   3.459 -0.4398 -2.1792  2.3017
  605MOL0     H79836  12.803   5.973   3.519  1.0796  1.0207 -1.2297
  605MOL0     H79837  12.631   5.994   3.583 -0.0960 -0.5094 -0.4652
  605MOL0     H79838  12.706   5.969   3.304 -0.4885 -2.3834  0.5917
  605MOL0     H79839  12.540   5.976   3.362 -0.8470  1.0098  0.9676
  605MOL0     H79840  12.607   6.206   3.472  2.5952  1.8328  1.0330
  605MOL0     H79841  12.619   6.198   3.298 -0.9754 -0.5429  0.4237
  605MOL0     H79842  12.557   5.180   3.879  2.1332  2.2721 -0.9319
  605MOL0     H79843  12.309   5.150   3.888 -2.3123  0.7710 -0.3310
  605MOL0     H79844  11.965   5.200   4.223  0.3558  0.9785 -0.9523
  605MOL0     H79845  11.750   5.111   4.290 -2.9637 -1.9454 -1.6420
  605MOL0     H79846   9.941   5.030   3.863  0.7245  0.9151  2.2613
  605MOL0     H79847   9.782   4.830   3.778  0.7722  2.5207  0.3303
  605MOL0     H79848   9.826   4.288   3.636  0.1158  2.2365 -0.6501
  605MOL0     H79849   9.645   4.131   3.556  1.3048  0.6527 -2.2959
  605MOL0     H79850   9.212   4.258   3.588 -0.5070 -1.1525 -1.5839
  605MOL0     H79851   9.249   4.178   3.736 -1.7907 -0.3801 -0.5046
  605MOL0     H79852   9.219   3.953   3.613 -2.6964 -1.3054 -0.7033
  605MOL0     H79853   9.082   4.050   3.642  0.3215 -0.0003  0.4728
  605MOL0     H79854   9.240   4.094   3.374 -0.8436  1.1513 -1.2302
  605MOL0     H79855   9.077   4.140   3.419 -1.4165 -0.5675  1.2275
  605MOL0     H79856   8.989   3.924   3.404 -0.6080  0.5443 -3.3106
  605MOL0     H79857   9.083   3.962   3.259  2.1640 -0.3489 -0.4072
  605MOL0     H79858   9.308   3.637   3.391 -0.9280 -0.2246 -1.5666
  605MOL0     H79859   9.358   4.381   3.744 -0.3939  1.0193  1.7661
  605MOL0     H79860   9.538   4.500   3.866  0.1048  1.8218 -0.2947
  606MOL0     O79861   5.070   0.356  11.026  0.0982 -0.4914 -0.2820
  606MOL0     C79862   5.108   0.312  11.133  0.6504 -0.2633  0.0014
  606MOL0     O79863   5.039   0.233  11.211  0.1226 -0.0010 -0.9210
  606MOL0     C79864   4.906   0.202  11.173 -0.7009  0.0710  1.0710
  606MOL0     C79865   4.820   0.299  11.127 -0.7430 -0.3874 -1.5501
  606MOL0     C79866   4.690   0.264  11.087  0.1929 -0.5348 -0.2594
  606MOL0     C79867   4.639   0.137  11.080 -0.1988 -1.0753  0.3453
  606MOL0     O79868   4.514   0.125  11.024 -1.0657  0.4852  0.5350
  606MOL0     C79869   4.476  -0.002  10.964  0.8880 -0.0638  0.0979
  606MOL0     C79870   4.405   0.015  10.828  0.1661 -0.0162  0.7950
  606MOL0     C79871   4.256   0.058  10.848  0.9705 -0.3257  0.6000
  606MOL0     C79872   4.191   0.116  10.718 -0.5865 -0.8381  0.7397
  606MOL0     C79873   4.065   0.207  10.744  0.0738 -0.5962 -0.2068
  606MOL0     C79874   3.932   0.123  10.777 -0.1644 -0.0572  0.0659
  606MOL0     C79875   3.803   0.219  10.775 -0.9426  0.7722  1.0384
  606MOL0     C79876   3.768   0.282  10.641 -0.2985  0.4694  0.4478
  606MOL0     N79877   3.631   0.332  10.616  0.5013 -0.6066 -0.2655
  606MOL0     C79878   3.565   0.339  10.496  0.1532 -0.1397 -0.0786
  606MOL0     C79879   3.434   0.368  10.536 -1.5211 -0.6028 -0.2461
  606MOL0     C79880   3.317   0.380  10.438 -0.6944 -0.4979 -0.0714
  606MOL0     C79881   3.241   0.244  10.428  0.2243 -0.6118 -0.0996
  606MOL0     C79882   3.129   0.237  10.318  0.2702  1.3030  0.2919
  606MOL0     C79883   3.003   0.308  10.375 -0.6917 -0.5040  0.6990
  606MOL0     O79884   2.939   0.254  10.488  0.7029  0.7164 -0.1549
  606MOL0     C79885   2.846   0.323  10.560  0.3491  0.3264 -0.9196
  606MOL0     C79886   2.818   0.285  10.693 -0.4124 -0.3586  0.0009
  606MOL0     C79887   2.724   0.359  10.770 -1.2308 -0.0807  0.4055
  606MOL0     C79888   2.668   0.474  10.717  0.0646 -0.3161  0.1429
  606MOL0     C79889   2.567   0.540  10.803  0.9582 -0.3098  0.3752
  606MOL0     O79890   2.538   0.665  10.762 -0.7324  0.6114  0.3036
  606MOL0     C79891   2.411   0.721  10.773  0.2730  0.7521 -0.1450
  606MOL0     C79892   2.319   0.712  10.666  0.2386  0.1883 -0.4308
  606MOL0     C79893   2.188   0.743  10.687  0.1746 -0.1257 -0.6939
  606MOL0     C79894   2.148   0.812  10.804 -0.2797  0.4290  0.3388
  606MOL0     O79895   2.016   0.836  10.805 -0.3063 -0.9288  0.0380
  606MOL0     C79896   1.966   0.897  10.922  0.0454  0.7875 -0.6822
  606MOL0     C79897   1.840   0.974  10.903 -1.0173 -0.3304 -0.4271
  606MOL0     C79898   1.727   0.913  10.830 -0.3563  0.6216  0.1479
  606MOL0     C79899   1.587   0.982  10.842 -0.2081 -0.4553  0.1463
  606MOL0     C79900   1.519   0.963  10.706  0.3500  0.4029  0.5322
  606MOL0     C79901   1.372   1.024  10.695 -0.7838  0.8108 -1.5580
  606MOL0     C79902   1.307   1.002  10.564  0.0013  0.6953  0.5719
  606MOL0     C79903   1.155   1.042  10.577  0.1912 -0.0604 -0.1373
  606MOL0    Cl79904   1.101   1.020  10.412  0.2522 -0.1191  0.1192
  606MOL0     C79905   2.242   0.820  10.911  0.1478 -0.0112  0.9741
  606MOL0     C79906   2.377   0.782  10.892 -0.1964 -0.8658 -0.8342
  606MOL0     O79907   2.511   0.476  10.888  0.9655  0.4501  0.5341
  606MOL0     C79908   2.690   0.507  10.583 -0.0868  0.1735  0.7769
  606MOL0     C79909   2.777   0.435  10.504  0.3626 -1.2649  0.7689
  606MOL0     N79910   3.432   0.363  10.678 -0.2237 -0.9469  0.1706
  606MOL0     N79911   3.543   0.338  10.722 -0.8086 -0.5136 -0.0644
  606MOL0     C79912   4.735   0.033  11.116  0.0827 -0.3376 -0.5247
  606MOL0     C79913   4.867   0.068  11.163  0.2253  0.4516  0.4518
  606MOL0     C79914   5.247   0.328  11.170 -0.2872  1.1473 -0.3110
  606MOL0     C79915   5.333   0.413  11.100  0.9240 -0.2920  0.8424
  606MOL0     C79916   5.459   0.432  11.145  0.9585 -0.1371  0.8197
  606MOL0     C79917   5.510   0.367  11.260 -0.1271 -0.3122 -1.5293
  606MOL0     O79918   5.644   0.372  11.303 -0.7045  0.5400  0.3604
  606MOL0     C79919   5.730   0.291  11.223 -0.0764  0.5844 -0.1664
  606MOL0     C79920   5.813   0.398  11.147 -0.3743 -0.3557 -0.4847
  606MOL0     C79921   5.950   0.336  11.110 -0.1387 -1.3128 -0.3543
  606MOL0     C79922   6.044   0.436  11.025  0.1121  0.0663 -0.5534
  606MOL0     C79923   6.186   0.434  11.064  0.3212  0.1498 -0.0403
  606MOL0     C79924   6.303   0.433  11.086  0.0130 -0.1615 -0.8557
  606MOL0     C79925   5.423   0.290  11.340 -0.4299 -0.5516 -0.3155
  606MOL0     C79926   5.292   0.273  11.296 -0.3273 -1.2344 -0.4037
  606MOL0     H79927   4.852   0.399  11.155  0.0720 -1.0937  0.2017
  606MOL0     H79928   4.619   0.342  11.065 -0.1938 -0.3875  1.3868
  606MOL0     H79929   4.408  -0.054  11.032  0.5612  0.6869  0.3565
  606MOL0     H79930   4.565  -0.061  10.941  0.7383 -0.9584  1.6846
  606MOL0     H79931   4.422  -0.070  10.761 -0.3742  1.3109 -1.1272
  606MOL0     H79932   4.458   0.088  10.767 -0.0113 -0.7587 -0.2757
  606MOL0     H79933   4.256   0.137  10.923  0.0916 -0.7151  1.0174
  606MOL0     H79934   4.204  -0.030  10.888  0.1948  1.3237  3.4507
  606MOL0     H79935   4.270   0.176  10.671 -2.0712 -0.9079 -2.0373
  606MOL0     H79936   4.160   0.040  10.645  1.4858  0.9509 -2.2461
  606MOL0     H79937   4.048   0.253  10.646  0.7117 -1.6111 -0.7993
  606MOL0     H79938   4.090   0.277  10.825  1.0783 -3.2695  1.9308
  606MOL0     H79939   3.941   0.078  10.876  1.1619  2.1554  1.0193
  606MOL0     H79940   3.913   0.047  10.701  1.8132 -0.4524 -0.0817
  606MOL0     H79941   3.722   0.146  10.789  0.4501 -1.0847 -0.1605
  606MOL0     H79942   3.819   0.300  10.846  0.1988  0.8389  0.7165
  606MOL0     H79943   3.784   0.205  10.565  4.0088 -1.2599  2.7508
  606MOL0     H79944   3.833   0.365  10.613 -0.2857 -0.0370 -1.1251
  606MOL0     H79945   3.586   0.324  10.390 -3.7527  2.0116 -1.4003
  606MOL0     H79946   3.360   0.400  10.339 -0.5527  0.3526  0.1574
  606MOL0     H79947   3.253   0.458  10.479  0.0585 -0.3140  0.7839
  606MOL0     H79948   3.196   0.229  10.527  0.4059  2.0026  0.4728
  606MOL0     H79949   3.315   0.165  10.413  1.5909  0.6360 -0.2321
  606MOL0     H79950   3.160   0.267  10.217 -2.5403  0.0709 -1.0742
  606MOL0     H79951   3.097   0.133  10.303 -1.9904  1.8581  0.8947
  606MOL0     H79952   2.931   0.314  10.293  1.4053  0.3500 -1.1957
  606MOL0     H79953   3.041   0.407  10.402 -2.3805  0.5522 -0.5630
  606MOL0     H79954   2.873   0.203  10.737 -2.0880 -2.1798 -1.0949
  606MOL0     H79955   2.698   0.315  10.866  0.0866 -0.8562  0.4293
  606MOL0     H79956   2.354   0.662  10.576 -1.0302 -1.5492 -0.0162
  606MOL0     H79957   2.111   0.726  10.613  0.0970  0.1993 -0.6898
  606MOL0     H79958   2.042   0.951  10.979  0.9749 -2.2041  1.1138
  606MOL0     H79959   1.939   0.811  10.984  0.7117  0.5347 -0.7370
  606MOL0     H79960   1.871   1.072  10.865 -2.0474 -0.5534 -1.9445
  606MOL0     H79961   1.795   1.001  10.999 -0.7390  3.6270 -1.2301
  606MOL0     H79962   1.734   0.808  10.860  1.7207  0.8530  0.6587
  606MOL0     H79963   1.749   0.928  10.724 -1.6575  2.7450  0.1413
  606MOL0     H79964   1.536   0.928  10.923  0.3957  1.3881  1.8424
  606MOL0     H79965   1.593   1.087  10.873  2.8979  0.3976 -2.7997
  606MOL0     H79966   1.513   0.859  10.673 -1.9746  1.1861 -1.9659
  606MOL0     H79967   1.568   1.002  10.616 -0.0160 -1.1606 -0.3969
  606MOL0     H79968   1.386   1.131  10.711  0.1598  0.2539  2.5167
  606MOL0     H79969   1.306   0.973  10.766 -2.7630  2.9377 -1.7819
  606MOL0     H79970   1.348   1.065  10.485 -0.7884 -2.0390 -2.2598
  606MOL0     H79971   1.328   0.896  10.543  2.4749  0.2443  4.3614
  606MOL0     H79972   1.151   1.145  10.612  2.7313 -0.5300  1.9516
  606MOL0     H79973   1.100   0.975  10.644 -2.7912  2.2421 -0.0967
  606MOL0     H79974   2.230   0.868  11.007  2.3185 -1.4662  2.0665
  606MOL0     H79975   2.453   0.791  10.968 -0.6714 -0.3057 -0.4124
  606MOL0     H79976   2.645   0.594  10.536 -0.2520 -1.4611 -2.3905
  606MOL0     H79977   2.787   0.456  10.398 -4.3288 -3.6724 -0.4641
  606MOL0     H79978   4.708  -0.072  11.112  2.5355 -1.1096  0.9078
  606MOL0     H79979   4.936  -0.012  11.187 -0.7431 -0.8859 -1.0167
  606MOL0     H79980   5.303   0.469  11.013 -0.1870 -0.3533  1.1785
  606MOL0     H79981   5.538   0.490  11.099  0.8024  0.3464  1.1552
  606MOL0     H79982   5.677   0.218  11.163  0.3804  0.4502 -0.4120
  606MOL0     H79983   5.804   0.233  11.280  1.4131 -0.3957 -2.9357
  606MOL0     H79984   5.755   0.435  11.061 -0.2220  0.8004 -0.1149
  606MOL0     H79985   5.835   0.481  11.215 -0.3535 -1.8449  1.3733
  606MOL0     H79986   5.929   0.250  11.046 -3.4744 -2.1783  1.6709
  606MOL0     H79987   5.995   0.290  11.198 -0.4334 -2.7520 -0.9284
  606MOL0     H79988   6.037   0.411  10.919  3.1474  1.2977 -1.1571
  606MOL0     H79989   6.013   0.540  11.042  2.8870  0.8287  0.4642
  606MOL0     H79990   6.408   0.445  11.104 -0.1643  0.2918 -0.0317
  606MOL0     H79991   5.457   0.239  11.430  1.1154  2.2745  0.8256
  606MOL0     H79992   5.239   0.204  11.361 -2.3785  0.2104 -0.4310
  607MOL0     O79993   2.649  10.608   1.360 -0.6403 -1.1106 -0.1389
  607MOL0     C79994   2.712  10.604   1.468 -0.4033 -0.8128 -0.2267
  607MOL0     O79995   2.666  10.617   1.593  0.0941 -0.2631  0.3970
  607MOL0     C79996   2.533  10.643   1.621 -0.8801  0.1159  0.2304
  607MOL0     C79997   2.456  10.737   1.544  0.0765  0.3962 -0.3979
  607MOL0     C79998   2.324  10.765   1.579 -0.1973  0.1506 -0.1849
  607MOL0     C79999   2.251  10.705   1.683 -0.5052 -0.1931 -0.3792
  607MOL0     O80000   2.128  10.756   1.706  0.0771 -0.1574 -0.9732
  607MOL0     C80001   2.046  10.685   1.788  0.6702  0.1126  0.4175
  607MOL0     C80002   1.909  10.753   1.769  0.0147 -0.2215 -0.1591
  607MOL0     C80003   1.806  10.678   1.853 -0.2534  0.1826  0.4441
  607MOL0     C80004   1.675  10.766   1.825  0.0724  0.2879  0.3449
  607MOL0     C80005   1.560  10.704   1.913  0.6045 -0.3721 -0.1461
  607MOL0     C80006   1.424  10.729   1.848 -0.1506 -0.3848 -0.2426
  607MOL0     C80007   1.387  10.874   1.836 -0.0646  0.2828  0.5791
  607MOL0     C80008   1.254  10.908   1.763  0.4712 -0.0781  0.7322
  607MOL0     N80009   1.136  10.866   1.838  0.0853  0.6858 -0.3292
  607MOL0     C80010   1.071  10.947   1.928 -1.5541 -0.1207  0.0129
  607MOL0     C80011   0.958  10.886   1.956  0.3171 -0.1034 -0.6819
  607MOL0     C80012   0.849  10.948   2.038  1.0544  0.4384  0.3252
  607MOL0     C80013   0.728  11.003   1.951 -0.1762  0.8936 -0.1410
  607MOL0     C80014   0.740  11.110   1.845  0.5864 -0.5017  0.4159
  607MOL0     C80015   0.802  11.239   1.897  1.5043 -0.6128 -0.1867
  607MOL0     O80016   0.737  11.296   2.009  0.1852  0.3199 -0.0783
  607MOL0     C80017   0.611  11.355   1.999  0.9147 -0.0318 -0.0825
  607MOL0     C80018   0.615  11.489   1.978  0.3648 -1.0615 -0.2135
  607MOL0     C80019   0.489  11.564   1.959  0.1046 -0.0580 -0.1762
  607MOL0     C80020   0.368  11.496   1.959 -0.0148 -0.9652  0.2627
  607MOL0     C80021   0.244  11.574   1.946 -0.2815  0.0265  0.2302
  607MOL0     O80022   0.254  11.705   1.902  0.4486  0.2764 -0.4704
  607MOL0     C80023   0.137  11.750   1.842  0.8004  0.2993  0.0038
  607MOL0     C80024   0.119  11.750   1.703 -0.5838 -0.4490 -0.2426
  607MOL0     C80025   0.008  11.789   1.636  0.0552  0.2957  0.0358
  607MOL0     C80026  -0.102  11.821   1.716 -0.1422 -0.5253  0.0630
  607MOL0     O80027  -0.224  11.847   1.664 -0.3005 -0.2285  0.5168
  607MOL0     C80028  -0.224  11.879   1.524  0.5348  0.0755  0.1857
  607MOL0     C80029  -0.360  11.936   1.485  0.6119 -0.2272 -0.6529
  607MOL0     C80030  -0.479  11.851   1.523 -0.0225  0.3170  0.0809
  607MOL0     C80031  -0.557  11.910   1.647 -0.0662  0.3611 -0.1120
  607MOL0     C80032  -0.692  11.827   1.683 -0.1834 -0.4252 -0.9159
  607MOL0     C80033  -0.768  11.765   1.567  0.6726  0.6620 -0.1353
  607MOL0     C80034  -0.896  11.702   1.621 -0.5529  0.0409  0.5167
  607MOL0     C80035  -0.894  11.552   1.627  0.4510 -0.2301 -0.4154
  607MOL0    Cl80036  -0.924  11.466   1.467 -0.1586  0.1664  0.1343
  607MOL0     C80037  -0.090  11.825   1.861 -0.1734  0.2136  0.3010
  607MOL0     C80038   0.034  11.793   1.919 -0.1349 -0.1424  0.0785
  607MOL0     O80039   0.142  11.513   1.960  0.3884 -0.0537 -0.6956
  607MOL0     C80040   0.370  11.355   1.974  0.4151 -0.2975  0.8534
  607MOL0     C80041   0.486  11.286   1.987 -0.3298 -0.9029 -0.5891
  607MOL0     N80042   0.955  10.772   1.880  0.8845 -0.2361 -0.7194
  607MOL0     N80043   1.071  10.752   1.817 -0.2654 -0.0649 -0.0811
  607MOL0     C80044   2.329  10.627   1.766 -1.2002  0.0496  0.3373
  607MOL0     C80045   2.463  10.588   1.742 -0.5817 -0.2160  0.9630
  607MOL0     C80046   2.863  10.587   1.465 -0.6073  0.4433  0.5139
  607MOL0     C80047   2.931  10.595   1.346 -0.0213  0.6241  0.1831
  607MOL0     C80048   3.071  10.573   1.340  0.9466  0.2918  0.8648
  607MOL0     C80049   3.139  10.556   1.461  0.6605 -1.0839  0.8282
  607MOL0     O80050   3.271  10.557   1.453 -0.3687 -0.2878  0.1123
  607MOL0     C80051   3.301  10.419   1.446  0.0204  1.3055 -0.1268
  607MOL0     C80052   3.453  10.392   1.448  0.2894  0.6714  0.0683
  607MOL0     C80053   3.534  10.481   1.351 -0.1526 -0.3726 -0.1709
  607MOL0     C80054   3.680  10.445   1.367 -0.5194 -0.2564 -0.1364
  607MOL0     C80055   3.760  10.478   1.243  0.5802  0.6380 -0.2133
  607MOL0     C80056   3.827  10.512   1.145  0.2927  0.4641 -0.0423
  607MOL0     C80057   3.075  10.556   1.581 -0.0986  0.4112  0.5399
  607MOL0     C80058   2.939  10.573   1.586 -0.0092  0.4817  0.1755
  607MOL0     H80059   2.491  10.804   1.466 -2.2986  1.9475 -0.2118
  607MOL0     H80060   2.267  10.845   1.532 -0.7087 -0.4874 -0.6708
  607MOL0     H80061   2.056  10.701   1.896 -3.9818  4.3366  0.5610
  607MOL0     H80062   2.048  10.578   1.766  3.4716  0.3518 -0.8270
  607MOL0     H80063   1.898  10.748   1.661 -0.0635 -1.6947 -0.1021
  607MOL0     H80064   1.908  10.862   1.782 -1.8384 -0.1464 -0.7495
  607MOL0     H80065   1.824  10.686   1.960  0.6651 -0.9419  0.3933
  607MOL0     H80066   1.794  10.575   1.818 -2.8409  0.8834 -1.0646
  607MOL0     H80067   1.680  10.873   1.847 -2.2736  0.3092  1.0993
  607MOL0     H80068   1.655  10.745   1.719 -1.5403  1.2009  0.4339
  607MOL0     H80069   1.551  10.760   2.006 -0.8983  3.0664 -2.1454
  607MOL0     H80070   1.572  10.595   1.913  1.6326 -0.2800 -1.0412
  607MOL0     H80071   1.350  10.672   1.906 -0.1235  1.1390  1.3562
  607MOL0     H80072   1.423  10.687   1.746 -0.7202  0.2318 -0.5044
  607MOL0     H80073   1.375  10.914   1.937 -0.2998 -3.1697  2.0648
  607MOL0     H80074   1.468  10.920   1.780 -0.9418  1.7841  0.4965
  607MOL0     H80075   1.254  10.874   1.660  0.4941  0.0560  0.6875
  607MOL0     H80076   1.245  11.017   1.749 -0.0747  0.1954  2.8270
  607MOL0     H80077   1.120  11.039   1.958  2.1915 -1.4788 -1.3434
  607MOL0     H80078   0.897  11.022   2.103  1.1396  0.7815 -0.1290
  607MOL0     H80079   0.810  10.874   2.109 -0.9948 -1.9976 -3.0625
  607MOL0     H80080   0.647  11.044   2.013 -2.5257  2.2921 -3.8153
  607MOL0     H80081   0.684  10.914   1.905 -3.4293  1.8357  0.8614
  607MOL0     H80082   0.799  11.064   1.765 -1.3477 -0.7784 -0.9145
  607MOL0     H80083   0.644  11.139   1.801 -0.8509 -2.2566  2.1469
  607MOL0     H80084   0.798  11.311   1.815 -1.4238 -0.6930 -0.1842
  607MOL0     H80085   0.908  11.215   1.916  2.2046  0.6285 -2.1683
  607MOL0     H80086   0.701  11.554   1.968 -1.9982  2.9476  2.1375
  607MOL0     H80087   0.490  11.672   1.944 -0.0420  0.4615  2.9205
  607MOL0     H80088   0.190  11.700   1.638 -2.0414 -0.1743 -2.1498
  607MOL0     H80089  -0.003  11.779   1.528 -0.2556  3.2844 -0.3071
  607MOL0     H80090  -0.206  11.782   1.478  1.7680  0.6312 -0.5553
  607MOL0     H80091  -0.147  11.949   1.489  0.8253 -0.0303  0.6092
  607MOL0     H80092  -0.359  11.957   1.378  0.8912 -0.3829 -0.6790
  607MOL0     H80093  -0.381  12.033   1.532 -1.4965 -0.2691 -1.4000
  607MOL0     H80094  -0.456  11.747   1.546  0.5741  0.5097  0.3756
  607MOL0     H80095  -0.541  11.853   1.433 -0.6553  1.6850  0.5191
  607MOL0     H80096  -0.492  11.905   1.735  2.2402  2.4943 -1.5833
  607MOL0     H80097  -0.577  12.015   1.626 -0.2428  0.5811  1.0827
  607MOL0     H80098  -0.753  11.897   1.741 -0.9295  0.8448 -3.1094
  607MOL0     H80099  -0.667  11.745   1.752  2.0437  0.5698 -0.4483
  607MOL0     H80100  -0.706  11.686   1.524 -3.0072 -2.5571 -0.0778
  607MOL0     H80101  -0.793  11.848   1.501 -4.6242 -0.0896  0.5155
  607MOL0     H80102  -0.933  11.721   1.722 -1.7422 -0.0428  0.1147
  607MOL0     H80103  -0.975  11.722   1.548 -1.0573 -2.8897  0.1534
  607MOL0     H80104  -0.975  11.516   1.691 -0.6514 -0.2622 -1.7801
  607MOL0     H80105  -0.794  11.530   1.667  0.5129  0.8346  0.0278
  607MOL0     H80106  -0.174  11.864   1.917 -0.2211 -0.0969  0.4479
  607MOL0     H80107   0.042  11.791   2.027 -0.1191 -2.1093  0.0775
  607MOL0     H80108   0.278  11.298   1.985  2.2830 -4.3821 -2.1785
  607MOL0     H80109   0.477  11.181   2.014 -0.6037 -0.8693 -0.5478
  607MOL0     H80110   2.312  10.597   1.869  0.9915  1.5884  1.2332
  607MOL0     H80111   2.512  10.528   1.818 -0.4400  1.0998  1.9343
  607MOL0     H80112   2.871  10.618   1.258 -0.8711 -2.8234 -0.2986
  607MOL0     H80113   3.108  10.582   1.239 -1.9332 -0.0484 -0.3306
  607MOL0     H80114   3.270  10.391   1.344  0.0320  3.0094 -0.6278
  607MOL0     H80115   3.250  10.358   1.521  2.3925  2.5094  2.6307
  607MOL0     H80116   3.490  10.405   1.550 -3.0904  0.5462  1.4327
  607MOL0     H80117   3.465  10.285   1.427 -1.3250  0.6439 -0.8527
  607MOL0     H80118   3.523  10.583   1.389  3.0050  0.7815 -1.9131
  607MOL0     H80119   3.500  10.464   1.248  0.2791 -0.8870 -0.2336
  607MOL0     H80120   3.730  10.499   1.448  0.5365 -1.0666 -0.2184
  607MOL0     H80121   3.696  10.339   1.390  1.6917  0.1471  0.4272
  607MOL0     H80122   3.881  10.528   1.054 -1.4700  0.6692 -1.0922
  607MOL0     H80123   3.128  10.516   1.667 -0.8369 -2.8207 -0.3771
  607MOL0     H80124   2.870  10.561   1.669 -0.6769  3.1560  0.1018
  608MOL0     O80125   3.499   1.064   5.490  0.0112 -0.1787 -0.5191
  608MOL0     C80126   3.573   1.085   5.393  0.9826 -0.7313  0.6487
  608MOL0     O80127   3.554   1.177   5.297 -0.0109  0.4379 -0.0504
  608MOL0     C80128   3.421   1.217   5.264 -0.2611  0.2261  0.3535
  608MOL0     C80129   3.415   1.301   5.152  0.4738 -0.5656  0.1776
  608MOL0     C80130   3.295   1.341   5.102 -0.3853 -0.7473 -0.3143
  608MOL0     C80131   3.179   1.310   5.158  0.9661  0.4610  0.6984
  608MOL0     O80132   3.073   1.378   5.103  0.0488 -0.3299 -0.9315
  608MOL0     C80133   2.958   1.408   5.185  0.0168 -0.1785 -0.2257
  608MOL0     C80134   2.867   1.508   5.116 -0.5470 -0.2444  0.2253
  608MOL0     C80135   2.761   1.543   5.208  0.0713  0.8203 -0.5592
  608MOL0     C80136   2.669   1.653   5.154 -0.1970 -0.1816  0.4556
  608MOL0     C80137   2.569   1.706   5.259 -0.7262  0.1163 -0.2319
  608MOL0     C80138   2.475   1.800   5.189  0.4307  0.8597  0.5834
  608MOL0     C80139   2.355   1.827   5.288  0.0613  0.7704 -0.4475
  608MOL0     C80140   2.292   1.962   5.273  0.2949  0.1826 -0.2430
  608MOL0     N80141   2.252   1.978   5.138 -0.2334  0.1602 -0.8203
  608MOL0     C80142   2.156   1.907   5.068 -0.3187  0.6375 -0.5654
  608MOL0     C80143   2.145   1.965   4.954 -0.7305  0.1533  0.7942
  608MOL0     C80144   2.057   1.906   4.847 -0.2057  0.2338 -0.0213
  608MOL0     C80145   1.912   1.919   4.860 -0.9533 -1.5166 -0.2342
  608MOL0     C80146   1.865   2.047   4.778  0.8010  0.7336  0.7131
  608MOL0     C80147   1.716   2.075   4.809  0.5148 -0.2947  0.6996
  608MOL0     O80148   1.655   2.167   4.725 -0.0387  0.5507  0.2073
  608MOL0     C80149   1.538   2.222   4.774 -1.5088 -0.3659  0.2463
  608MOL0     C80150   1.466   2.198   4.891 -0.0376 -0.7942 -0.2941
  608MOL0     C80151   1.351   2.264   4.918  0.2766 -0.5928  0.3879
  608MOL0     C80152   1.301   2.359   4.822 -0.2492 -0.6077  1.1312
  608MOL0     C80153   1.194   2.446   4.865  0.2992  0.3186  0.2770
  608MOL0     O80154   1.136   2.437   4.994 -0.0608  0.5687  0.1899
  608MOL0     C80155   1.051   2.521   5.056 -0.5091 -0.0906  0.3249
  608MOL0     C80156   0.995   2.480   5.178  0.2515  0.2350 -0.3310
  608MOL0     C80157   0.906   2.565   5.257 -0.4458 -0.4674  0.0456
  608MOL0     C80158   0.884   2.699   5.214 -0.4571  0.0265 -0.3262
  608MOL0     O80159   0.798   2.774   5.288 -0.7479  0.0690 -0.3907
  608MOL0     C80160   0.778   2.907   5.244  0.9831  1.1973 -0.4344
  608MOL0     C80161   0.657   2.969   5.322  0.7967 -0.0777 -0.1334
  608MOL0     C80162   0.682   2.994   5.464  0.8444 -0.6684 -0.0555
  608MOL0     C80163   0.559   3.006   5.550 -0.9268 -0.2926  0.0752
  608MOL0     C80164   0.502   3.145   5.518  0.0131  0.7669  0.0044
  608MOL0     C80165   0.395   3.175   5.625  0.2530 -0.5573 -0.5145
  608MOL0     C80166   0.326   3.310   5.592 -0.7671 -1.1658 -0.0520
  608MOL0     C80167   0.218   3.356   5.697 -0.1039  0.0522  0.4296
  608MOL0    Cl80168   0.135   3.494   5.632 -0.1194  0.3926 -0.0226
  608MOL0     C80169   0.936   2.730   5.092 -0.9676  0.0388  0.5218
  608MOL0     C80170   1.014   2.650   5.010  0.0142  0.3455  1.2795
  608MOL0     O80171   1.171   2.533   4.784  0.2730 -0.0728 -0.0023
  608MOL0     C80172   1.375   2.372   4.697  0.6148 -0.7770  0.6781
  608MOL0     C80173   1.492   2.302   4.673 -0.4628 -0.4829 -0.9012
  608MOL0     N80174   2.229   2.074   4.949  0.2449 -0.0121 -0.4400
  608MOL0     N80175   2.293   2.077   5.060 -0.2579  1.0767  0.3706
  608MOL0     C80176   3.172   1.235   5.266 -0.6355  0.3357 -0.5796
  608MOL0     C80177   3.296   1.184   5.327  0.1633 -0.2113  0.0457
  608MOL0     C80178   3.697   1.010   5.387  0.4926  0.4103  0.1882
  608MOL0     C80179   3.806   1.046   5.305 -0.2600 -0.2459 -0.2913
  608MOL0     C80180   3.928   0.987   5.305 -0.2262  0.2065  0.3074
  608MOL0     C80181   3.945   0.872   5.384  0.5799 -0.5346  0.1291
  608MOL0     O80182   4.052   0.794   5.387 -0.1265 -0.6773  0.0656
  608MOL0     C80183   4.164   0.827   5.299 -0.6618  0.2226 -0.2074
  608MOL0     C80184   4.263   0.925   5.367  1.0874 -0.8242 -0.7100
  608MOL0     C80185   4.396   0.895   5.305 -0.3569 -0.2400 -0.0264
  608MOL0     C80186   4.515   1.000   5.336 -0.1163  0.3151  0.5059
  608MOL0     C80187   4.645   0.949   5.299 -0.4098 -1.0367  0.6304
  608MOL0     C80188   4.750   0.904   5.253 -0.3023 -0.0963 -0.0088
  608MOL0     C80189   3.837   0.829   5.463  0.5368  0.0078 -0.2731
  608MOL0     C80190   3.712   0.890   5.469 -0.2398 -1.4586 -0.1790
  608MOL0     H80191   3.505   1.343   5.110  1.1658 -2.0270  0.1543
  608MOL0     H80192   3.291   1.406   5.014  0.3454 -0.3651 -0.0713
  608MOL0     H80193   2.995   1.450   5.279 -0.9780  2.3167 -0.8598
  608MOL0     H80194   2.899   1.321   5.212  0.1954  0.3196  1.9758
  608MOL0     H80195   2.834   1.461   5.024  3.8581  0.1458 -1.7900
  608MOL0     H80196   2.936   1.589   5.092  1.1771 -1.6766  0.1905
  608MOL0     H80197   2.807   1.567   5.305 -3.6035  0.9482  1.3392
  608MOL0     H80198   2.709   1.448   5.227  0.3231  0.9400  0.8645
  608MOL0     H80199   2.740   1.734   5.137 -0.8521  0.2295 -0.4067
  608MOL0     H80200   2.616   1.621   5.063 -0.0321  0.5685  0.0909
  608MOL0     H80201   2.617   1.760   5.341  2.5557 -0.3300 -1.7288
  608MOL0     H80202   2.512   1.621   5.297  0.0934  1.0909  3.6232
  608MOL0     H80203   2.437   1.761   5.093 -0.3236  1.5039  0.6064
  608MOL0     H80204   2.517   1.899   5.173 -0.3648  1.3590  1.5161
  608MOL0     H80205   2.280   1.749   5.274 -1.1959  1.9556 -0.5821
  608MOL0     H80206   2.382   1.821   5.393 -1.3339 -1.3351 -0.1496
  608MOL0     H80207   2.371   2.033   5.298  2.0699 -1.2037 -1.7056
  608MOL0     H80208   2.210   1.980   5.344 -0.2611  2.3532 -1.3655
  608MOL0     H80209   2.102   1.820   5.103 -0.3265  1.5600  1.9847
  608MOL0     H80210   2.082   1.799   4.846  0.5824  0.4183 -0.6210
  608MOL0     H80211   2.097   1.945   4.753  1.3866 -0.9197  0.1329
  608MOL0     H80212   1.888   1.948   4.963  0.5003  2.1574 -0.7717
  608MOL0     H80213   1.858   1.831   4.822 -0.5469 -2.2150  0.7516
  608MOL0     H80214   1.928   2.132   4.807  1.3049  0.4995  0.3155
  608MOL0     H80215   1.880   2.012   4.675  3.3302  0.5912  1.0632
  608MOL0     H80216   1.707   2.079   4.918  1.1815 -4.5920  1.0828
  608MOL0     H80217   1.658   1.983   4.794 -2.1104  1.3894 -0.4291
  608MOL0     H80218   1.500   2.138   4.976  2.0168  3.3089  2.0954
  608MOL0     H80219   1.310   2.249   5.017  0.9739  0.8839  0.9229
  608MOL0     H80220   1.044   2.393   5.220  0.7771  0.1443 -1.1046
  608MOL0     H80221   0.854   2.521   5.341 -0.2839 -3.0705 -1.0997
  608MOL0     H80222   0.739   2.909   5.142  1.2217  0.4706 -0.5437
  608MOL0     H80223   0.870   2.966   5.256  2.9054 -1.8408  1.0783
  608MOL0     H80224   0.575   2.897   5.314 -1.9125  2.8052 -0.1073
  608MOL0     H80225   0.619   3.062   5.278 -2.1560 -0.7837  0.7238
  608MOL0     H80226   0.744   3.083   5.474 -2.2311  1.6520 -0.0366
  608MOL0     H80227   0.723   2.914   5.526 -0.2950 -0.6126  0.7949
  608MOL0     H80228   0.494   2.919   5.535 -0.6757 -1.4992  4.4828
  608MOL0     H80229   0.595   3.006   5.653 -1.6426 -4.0612  0.4670
  608MOL0     H80230   0.450   3.149   5.421 -0.3454  3.7626  0.2407
  608MOL0     H80231   0.582   3.219   5.512 -0.9886  1.9190  0.4473
  608MOL0     H80232   0.438   3.181   5.725  2.1429 -1.6853 -1.1933
  608MOL0     H80233   0.318   3.097   5.630 -1.3468  1.0402  1.9615
  608MOL0     H80234   0.404   3.387   5.584  0.2549 -2.3278 -2.0404
  608MOL0     H80235   0.271   3.300   5.497 -2.8440 -0.4450  1.0084
  608MOL0     H80236   0.271   3.377   5.791  1.1499  0.6045 -0.3779
  608MOL0     H80237   0.142   3.280   5.716 -1.0525  0.6155 -0.9717
  608MOL0     H80238   0.924   2.833   5.060  1.0100 -0.2943 -1.5633
  608MOL0     H80239   1.029   2.682   4.908 -0.3928 -0.4053  0.9717
  608MOL0     H80240   1.337   2.447   4.629 -3.1221 -3.1760 -0.1512
  608MOL0     H80241   1.543   2.314   4.578 -0.1045 -1.3316 -0.8239
  608MOL0     H80242   3.073   1.195   5.289 -0.5488  0.9103  0.9038
  608MOL0     H80243   3.287   1.108   5.405  1.4008 -0.4370 -0.0081
  608MOL0     H80244   3.801   1.128   5.234 -0.0423 -1.5517 -1.8814
  608MOL0     H80245   4.008   1.007   5.235 -0.9698 -0.8275 -0.8859
  608MOL0     H80246   4.129   0.867   5.204  0.3453  1.4647 -0.0827
  608MOL0     H80247   4.214   0.730   5.293  0.2256  0.7004 -0.6410
  608MOL0     H80248   4.239   1.029   5.343 -0.1029 -1.0762 -0.6701
  608MOL0     H80249   4.266   0.896   5.473 -2.0044 -0.6583 -0.4777
  608MOL0     H80250   4.387   0.884   5.197 -1.6465 -4.7875  0.3800
  608MOL0     H80251   4.424   0.796   5.341  0.2687 -0.2752 -0.5763
  608MOL0     H80252   4.507   1.093   5.278  1.1814 -1.6299 -3.1132
  608MOL0     H80253   4.514   1.022   5.443 -1.6218 -2.7062  1.2184
  608MOL0     H80254   4.837   0.878   5.197  1.6228  2.0491  1.7999
  608MOL0     H80255   3.850   0.739   5.522  2.2379  2.2743  3.1450
  608MOL0     H80256   3.624   0.853   5.521 -1.2213  0.4357 -0.4018
  609MOL0     O80257  11.224  10.241   8.759  0.2552 -0.1747  0.0208
  609MOL0     C80258  11.275  10.195   8.658  0.7894  0.6887  0.2315
  609MOL0     O80259  11.205  10.137   8.544  1.0092 -0.2157  0.0417
  609MOL0     C80260  11.065  10.157   8.535 -0.2467 -0.6173  0.2929
  609MOL0     C80261  11.020  10.227   8.415  0.1845  0.6074  0.0835
  609MOL0     C80262  10.876  10.239   8.401 -0.1629 -0.1018  0.1346
  609MOL0     C80263  10.786  10.194   8.501 -0.6406 -0.0875 -1.0428
  609MOL0     O80264  10.649  10.217   8.504 -0.7056 -0.5448  0.2140
  609MOL0     C80265  10.584  10.262   8.386  0.2522 -0.5363  0.2178
  609MOL0     C80266  10.431  10.253   8.406 -0.0307  0.9118  0.1730
  609MOL0     C80267  10.347  10.376   8.378 -0.3293  0.2555  0.5392
  609MOL0     C80268  10.200  10.337   8.415 -0.2406  0.1709  0.0443
  609MOL0     C80269  10.098  10.443   8.373  0.6872  0.0533 -0.1218
  609MOL0     C80270  10.143  10.576   8.430 -0.2191  0.4312  0.8662
  609MOL0     C80271  10.039  10.689   8.423 -1.0142  0.2860 -0.1271
  609MOL0     C80272  10.112  10.818   8.429 -1.4164  0.0926 -0.4331
  609MOL0     N80273  10.023  10.929   8.451  0.7808 -0.0822  0.0838
  609MOL0     C80274   9.910  10.961   8.380 -0.2875  0.9078 -0.9297
  609MOL0     C80275   9.889  11.090   8.411 -0.2529 -0.3466 -0.1399
  609MOL0     C80276   9.779  11.169   8.339  0.6072 -0.2787 -0.1713
  609MOL0     C80277   9.670  11.194   8.448 -0.0746 -0.0685  0.2915
  609MOL0     C80278   9.568  11.290   8.386 -0.5574  0.0824 -0.8895
  609MOL0     C80279   9.458  11.320   8.495  0.0458 -0.0989 -0.3140
  609MOL0     O80280   9.365  11.418   8.448  0.5725 -0.0933  0.4249
  609MOL0     C80281   9.271  11.364   8.365 -0.1629 -0.1196  0.2538
  609MOL0     C80282   9.153  11.320   8.422 -0.1237  0.3670  0.3581
  609MOL0     C80283   9.049  11.261   8.341 -0.3044  0.1760 -0.3366
  609MOL0     C80284   9.070  11.260   8.203 -0.0341 -0.3265 -0.3840
  609MOL0     C80285   8.961  11.210   8.116 -0.0077  0.8496 -0.7893
  609MOL0     O80286   8.999  11.186   7.985 -0.7751  0.3473  0.2470
  609MOL0     C80287   8.933  11.105   7.899  0.0328 -0.5521 -0.2246
  609MOL0     C80288   8.961  11.119   7.763 -0.2314 -0.3083 -0.2066
  609MOL0     C80289   8.917  11.033   7.673 -0.4550  0.0652  0.0547
  609MOL0     C80290   8.842  10.920   7.707 -0.0949  1.0941 -0.4402
  609MOL0     O80291   8.774  10.847   7.610 -0.3173 -0.4380 -0.2161
  609MOL0     C80292   8.740  10.712   7.639  0.3062 -0.5427  0.3662
  609MOL0     C80293   8.660  10.659   7.515 -0.2140  0.4472 -0.3182
  609MOL0     C80294   8.620  10.525   7.522  0.0796  0.1073  0.7085
  609MOL0     C80295   8.545  10.489   7.395  0.8370  0.1260 -0.1705
  609MOL0     C80296   8.472  10.359   7.410  0.7676 -0.2284  0.2374
  609MOL0     C80297   8.355  10.355   7.308  1.2354  0.8278 -0.4385
  609MOL0     C80298   8.268  10.233   7.316 -0.0504 -0.3717  0.6618
  609MOL0     C80299   8.141  10.254   7.231 -0.5590  0.1248  0.4789
  609MOL0    Cl80300   8.177  10.194   7.065  0.1557 -0.3011  0.3719
  609MOL0     C80301   8.799  10.913   7.839  1.7901  0.5727 -0.9787
  609MOL0     C80302   8.850  10.997   7.942  0.2076 -0.3608 -0.1134
  609MOL0     O80303   8.848  11.200   8.172  0.3017  0.1707 -0.1328
  609MOL0     C80304   9.179  11.315   8.145 -0.6287 -1.0341  0.3443
  609MOL0     C80305   9.284  11.360   8.225 -0.4343  1.0924  0.5896
  609MOL0     N80306   9.986  11.132   8.503  0.3432 -0.2737  0.1910
  609MOL0     N80307  10.060  11.032   8.522 -0.5652 -0.5738 -0.5836
  609MOL0     C80308  10.841  10.126   8.610 -1.2115 -0.3911 -0.4471
  609MOL0     C80309  10.983  10.104   8.624  1.1724 -0.5554 -1.0809
  609MOL0     C80310  11.417  10.168   8.665 -0.5840 -0.9051 -0.0234
  609MOL0     C80311  11.493  10.119   8.556 -0.0384 -0.0765 -0.1849
  609MOL0     C80312  11.629  10.092   8.558 -0.8553  0.0525 -0.0695
  609MOL0     C80313  11.697  10.125   8.678 -0.4587 -0.4025 -0.2200
  609MOL0     O80314  11.832  10.132   8.688 -0.4059 -0.1165 -0.2456
  609MOL0     C80315  11.909  10.007   8.673 -0.0004 -0.0681 -0.4856
  609MOL0     C80316  11.894   9.906   8.778 -0.1276  0.8572  0.5797
  609MOL0     C80317  11.922   9.958   8.918  0.0502  0.3531 -1.4943
  609MOL0     C80318  11.851   9.874   9.027 -0.0321 -0.1480  0.2391
  609MOL0     C80319  11.708   9.915   9.035 -0.2343  0.3488  0.6562
  609MOL0     C80320  11.586   9.940   9.042 -0.4862  0.9948 -0.0612
  609MOL0     C80321  11.628  10.180   8.786  0.7390  0.7553 -0.0326
  609MOL0     C80322  11.493  10.208   8.777 -0.0496 -0.5840  0.3406
  609MOL0     H80323  11.085  10.275   8.343  0.2225  0.4064 -0.0163
  609MOL0     H80324  10.842  10.299   8.318 -1.7005  0.4537  1.1266
  609MOL0     H80325  10.623  10.191   8.312  1.2426  0.5980 -0.3737
  609MOL0     H80326  10.607  10.368   8.370  0.5321  0.2933  4.7266
  609MOL0     H80327  10.405  10.203   8.500 -1.1657  0.3180 -0.4275
  609MOL0     H80328  10.401  10.176   8.334  0.3948  0.8343  0.0782
  609MOL0     H80329  10.360  10.405   8.274 -3.1621 -1.9874 -0.6128
  609MOL0     H80330  10.385  10.443   8.455  3.3362 -0.9122 -0.0985
  609MOL0     H80331  10.173  10.245   8.361 -0.4086  0.5999 -0.6075
  609MOL0     H80332  10.197  10.312   8.522  2.4418  2.0730  0.6499
  609MOL0     H80333  10.001  10.424   8.419 -1.0400  2.5431 -2.4259
  609MOL0     H80334  10.096  10.450   8.264  1.9731 -1.0690 -0.2443
  609MOL0     H80335  10.234  10.613   8.382 -1.2375  1.5145 -0.3153
  609MOL0     H80336  10.181  10.558   8.531  3.0232 -0.5363 -0.3836
  609MOL0     H80337   9.980  10.684   8.331 -1.0596  2.0384 -0.2313
  609MOL0     H80338   9.968  10.699   8.506  2.0779  3.3395  2.4468
  609MOL0     H80339  10.176  10.827   8.340  1.8782  0.5101  1.7989
  609MOL0     H80340  10.184  10.813   8.511  0.2695 -1.4865 -1.9141
  609MOL0     H80341   9.855  10.910   8.302 -0.1000  0.1144 -0.5605
  609MOL0     H80342   9.739  11.106   8.259  0.9803 -2.4569  1.2679
  609MOL0     H80343   9.823  11.260   8.298  2.2534  0.7677  3.5140
  609MOL0     H80344   9.720  11.233   8.537  1.3705  0.5522 -0.7427
  609MOL0     H80345   9.620  11.099   8.466 -0.4750 -0.5949 -2.9598
  609MOL0     H80346   9.606  11.388   8.355  1.6612  0.6758  3.1079
  609MOL0     H80347   9.529  11.237   8.298  2.4282 -3.5235 -0.2769
  609MOL0     H80348   9.508  11.358   8.585 -1.0549  0.4893  0.0771
  609MOL0     H80349   9.402  11.229   8.519 -0.1534 -0.1498 -0.9667
  609MOL0     H80350   9.145  11.335   8.529 -0.3656  1.4043  0.2098
  609MOL0     H80351   8.957  11.228   8.387  0.4721  0.3844  1.4415
  609MOL0     H80352   9.025  11.199   7.726  1.8079 -1.1456  1.3148
  609MOL0     H80353   8.944  11.041   7.568 -2.7548 -4.4081 -1.1720
  609MOL0     H80354   8.670  10.715   7.723 -1.4726  1.3699 -1.0772
  609MOL0     H80355   8.828  10.650   7.658  0.8245  0.0675 -0.0022
  609MOL0     H80356   8.705  10.678   7.418 -2.6903 -1.5512 -1.9943
  609MOL0     H80357   8.568  10.716   7.534  0.7995  1.4159  2.1539
  609MOL0     H80358   8.566  10.506   7.616 -1.3398 -0.2269 -0.1457
  609MOL0     H80359   8.708  10.461   7.528  1.5458  1.8656 -0.8288
  609MOL0     H80360   8.469  10.563   7.371 -0.9691 -1.5354  0.2413
  609MOL0     H80361   8.621  10.487   7.316  1.5814  0.4514  0.5195
  609MOL0     H80362   8.442  10.350   7.515  2.4531  1.0332  0.8772
  609MOL0     H80363   8.541  10.277   7.387 -0.6315 -1.3821 -0.0238
  609MOL0     H80364   8.399  10.350   7.207  1.5512 -2.5424 -0.2583
  609MOL0     H80365   8.300  10.449   7.316  0.8976  0.4731  1.9510
  609MOL0     H80366   8.325  10.149   7.276  0.0731 -0.7925  1.6917
  609MOL0     H80367   8.266  10.204   7.422  1.3252  0.6048  0.9831
  609MOL0     H80368   8.103  10.356   7.223  0.7588  0.6747  0.8959
  609MOL0     H80369   8.063  10.187   7.266 -0.1062  0.2238  1.7214
  609MOL0     H80370   8.725  10.841   7.873 -0.0706  2.1966 -1.4122
  609MOL0     H80371   8.826  10.963   8.042  1.3680  0.0283  0.3182
  609MOL0     H80372   9.197  11.303   8.039  1.2581 -0.0725  0.5090
  609MOL0     H80373   9.387  11.377   8.193 -0.2044 -0.5305  0.3892
  609MOL0     H80374  10.783  10.096   8.697  0.7480 -1.4080  0.5764
  609MOL0     H80375  11.029  10.062   8.713 -0.3696 -1.1151 -0.5259
  609MOL0     H80376  11.444  10.103   8.461  1.5779  0.1188 -1.0809
  609MOL0     H80377  11.686  10.061   8.471  0.7548  3.2275 -0.2681
  609MOL0     H80378  12.016  10.027   8.661  0.0777 -1.2797 -2.0981
  609MOL0     H80379  11.880   9.952   8.584  0.0282 -0.0329 -0.5163
  609MOL0     H80380  11.791   9.870   8.766  0.1001 -0.1834  1.5574
  609MOL0     H80381  11.959   9.819   8.763 -2.0414 -0.6469  0.5493
  609MOL0     H80382  11.871  10.055   8.923  2.1775  1.4592  1.3426
  609MOL0     H80383  12.030   9.973   8.926  0.1012 -1.0614  1.5357
  609MOL0     H80384  11.864   9.765   9.025  0.7611 -0.0585  0.0317
  609MOL0     H80385  11.900   9.897   9.122 -1.7998  0.1274  1.1279
  609MOL0     H80386  11.485   9.961   9.069 -0.7030 -1.3279  1.1545
  609MOL0     H80387  11.676  10.197   8.882  0.4624  0.8290  0.0912
  609MOL0     H80388  11.431  10.254   8.853 -1.1345  2.4499 -2.1344
  610MOL0     O80389   2.225  10.595   5.233 -0.1055  0.5011 -0.0656
  610MOL0     C80390   2.130  10.516   5.247  0.3559 -0.4339 -0.1160
  610MOL0     O80391   2.137  10.385   5.219 -0.1137  0.1930 -0.4889
  610MOL0     C80392   2.258  10.334   5.190 -0.0488  0.1767  0.0117
  610MOL0     C80393   2.288  10.293   5.056 -0.1109 -0.1860 -0.0782
  610MOL0     C80394   2.417  10.246   5.031 -0.2475 -0.5748  0.0942
  610MOL0     C80395   2.506  10.224   5.139  1.0599  0.1207 -0.5119
  610MOL0     O80396   2.625  10.162   5.115 -0.1268  0.8166 -0.7577
  610MOL0     C80397   2.695  10.147   4.995 -0.0727 -0.6710 -0.8732
  610MOL0     C80398   2.826  10.064   5.010  0.3836 -1.0255 -0.4933
  610MOL0     C80399   2.920  10.094   4.888 -0.2430  0.9323  0.8460
  610MOL0     C80400   3.053   9.999   4.910  0.6949 -0.4615  0.2006
  610MOL0     C80401   3.129   9.999   4.776 -1.2256 -0.9464  0.3691
  610MOL0     C80402   3.267   9.919   4.801  0.0430 -0.4339 -0.1644
  610MOL0     C80403   3.350   9.884   4.678 -0.3003  0.3603  1.1820
  610MOL0     C80404   3.503   9.859   4.713 -0.5416  0.8915  0.4236
  610MOL0     N80405   3.593   9.973   4.753  0.3410 -0.0025 -0.4089
  610MOL0     C80406   3.655   9.995   4.876 -0.3575  0.3885 -0.2223
  610MOL0     C80407   3.745  10.085   4.841  0.1207 -0.5410 -0.0966
  610MOL0     C80408   3.855  10.129   4.943  0.7561  0.4857 -0.3717
  610MOL0     C80409   3.809  10.219   5.056 -0.7755  0.7535 -0.0943
  610MOL0     C80410   3.766  10.349   5.001 -0.0285  0.7695  0.4047
  610MOL0     C80411   3.748  10.439   5.127  0.0484  0.7778  0.9457
  610MOL0     O80412   3.666  10.557   5.089  0.1962  0.2965 -0.1976
  610MOL0     C80413   3.530  10.529   5.077 -0.0129  0.0930 -0.5230
  610MOL0     C80414   3.455  10.631   5.022  0.1049 -0.7998 -1.7490
  610MOL0     C80415   3.316  10.618   4.996 -0.1356 -0.1687  0.2394
  610MOL0     C80416   3.244  10.506   5.044  0.1733 -0.8811  0.5512
  610MOL0     C80417   3.098  10.496   5.037  0.3703 -0.6515 -0.0552
  610MOL0     O80418   3.025  10.588   4.981 -0.1694  0.5278 -0.2494
  610MOL0     C80419   2.896  10.564   4.962  0.5433  0.5290 -0.5067
  610MOL0     C80420   2.853  10.503   4.845  0.1474  0.3240 -0.9223
  610MOL0     C80421   2.725  10.499   4.813  0.4854 -0.1341 -0.5818
  610MOL0     C80422   2.625  10.551   4.896  0.3727 -0.6886  0.3920
  610MOL0     O80423   2.497  10.537   4.848  0.0142  0.1578 -0.0835
  610MOL0     C80424   2.391  10.601   4.922 -0.1186 -0.1320 -0.2275
  610MOL0     C80425   2.269  10.619   4.824  0.0674 -0.0070 -0.0084
  610MOL0     C80426   2.139  10.650   4.896 -0.4333 -0.2955  0.3896
  610MOL0     C80427   2.039  10.659   4.785  0.8698 -0.4495 -0.7600
  610MOL0     C80428   1.894  10.677   4.825 -0.5135  0.8282  0.1521
  610MOL0     C80429   1.799  10.664   4.707  0.0470  0.7576 -0.4960
  610MOL0     C80430   1.655  10.693   4.745  0.2250  0.4162  2.0570
  610MOL0     C80431   1.571  10.721   4.613  0.0044  0.7050 -0.0868
  610MOL0    Cl80432   1.527  10.563   4.541  0.3224  0.0766 -0.2506
  610MOL0     C80433   2.662  10.596   5.030  0.8578 -0.0642  0.6758
  610MOL0     C80434   2.800  10.610   5.057  0.5216  0.2067  0.7740
  610MOL0     O80435   3.051  10.405   5.104 -0.4514 -0.6430  0.2448
  610MOL0     C80436   3.322  10.413   5.110 -0.1899  0.4964  0.5410
  610MOL0     C80437   3.457  10.419   5.111  0.2341  0.7355 -0.0186
  610MOL0     N80438   3.739  10.118   4.709  0.0276 -0.3746  0.1180
  610MOL0     N80439   3.640  10.063   4.661 -0.2972 -0.3329  0.0523
  610MOL0     C80440   2.478  10.259   5.276 -0.2502 -0.5972  0.2705
  610MOL0     C80441   2.357  10.323   5.292 -0.2820 -0.2684  0.2207
  610MOL0     C80442   2.022  10.581   5.327 -0.1233  0.0534  0.5715
  610MOL0     C80443   1.920  10.510   5.390 -0.1685 -0.0100  0.1576
  610MOL0     C80444   1.823  10.573   5.462  0.0046  0.1818 -0.7728
  610MOL0     C80445   1.828  10.711   5.479  0.7849  0.1428 -0.2308
  610MOL0     O80446   1.734  10.783   5.565 -0.2016  0.4192  0.2204
  610MOL0     C80447   1.673  10.710   5.671  0.0423  1.2501  0.5672
  610MOL0     C80448   1.523  10.668   5.631 -0.8173 -0.1334  0.3371
  610MOL0     C80449   1.456  10.560   5.720  0.0341 -0.7359  0.1851
  610MOL0     C80450   1.436  10.616   5.855  0.3485 -0.9134 -0.0376
  610MOL0     C80451   1.387  10.520   5.948 -0.2130  0.6131 -0.0066
  610MOL0     C80452   1.330  10.439   6.022 -0.2722 -0.0706  0.4199
  610MOL0     C80453   1.921  10.786   5.417 -0.3732  0.3323  0.2054
  610MOL0     C80454   2.016  10.723   5.335 -0.6243  0.5352 -0.0350
  610MOL0     H80455   2.228  10.310   4.967  0.4057 -3.5356 -1.1898
  610MOL0     H80456   2.454  10.232   4.929 -0.0363  3.7950 -0.6273
  610MOL0     H80457   2.720  10.245   4.953  2.5722 -0.6575  0.5208
  610MOL0     H80458   2.643  10.085   4.921  1.7080  0.5651 -3.2991
  610MOL0     H80459   2.809   9.957   5.019 -1.2330 -0.7609 -0.1690
  610MOL0     H80460   2.873  10.103   5.100 -0.5955 -0.8603 -0.0456
  610MOL0     H80461   2.953  10.197   4.868  2.0567 -0.0017 -0.6014
  610MOL0     H80462   2.866  10.053   4.803  1.4681 -2.5615  1.2637
  610MOL0     H80463   3.110  10.044   4.992  1.3807  1.1636 -1.1087
  610MOL0     H80464   3.019   9.898   4.933  0.4225 -0.2789  0.6085
  610MOL0     H80465   3.150  10.105   4.759 -1.5110 -0.7037  1.4290
  610MOL0     H80466   3.070   9.963   4.691  0.6473 -0.2927 -1.2550
  610MOL0     H80467   3.238   9.829   4.854  0.8159  0.2890  1.5540
  610MOL0     H80468   3.323   9.965   4.883  0.2947 -2.4987  0.8819
  610MOL0     H80469   3.311   9.797   4.624  1.0367  1.2775 -1.4152
  610MOL0     H80470   3.343   9.961   4.600  1.9124 -0.6590 -0.1042
  610MOL0     H80471   3.548   9.821   4.620  1.9558  0.4874  1.7202
  610MOL0     H80472   3.499   9.782   4.790  2.4222 -1.0112 -1.1380
  610MOL0     H80473   3.650   9.958   4.977 -0.4271  0.7088 -0.1060
  610MOL0     H80474   3.938  10.180   4.893  0.4541  1.2130 -0.1511
  610MOL0     H80475   3.901  10.040   4.986  0.1181 -0.2323 -1.1178
  610MOL0     H80476   3.897  10.242   5.117 -0.3422 -0.3707 -0.2763
  610MOL0     H80477   3.722  10.180   5.110 -0.8627 -2.0756 -2.0906
  610MOL0     H80478   3.833  10.387   4.924  1.2823 -1.4462  0.3821
  610MOL0     H80479   3.675  10.328   4.944 -0.3562 -2.9030  1.9949
  610MOL0     H80480   3.845  10.475   5.163  1.1787 -0.2159 -0.9227
  610MOL0     H80481   3.717  10.378   5.212  0.5085  0.8859  1.1988
  610MOL0     H80482   3.502  10.721   4.984  0.4843 -1.0642 -1.9109
  610MOL0     H80483   3.262  10.703   4.956  1.6054  1.3092  0.8780
  610MOL0     H80484   2.924  10.470   4.770  1.1857  2.1103 -0.7730
  610MOL0     H80485   2.704  10.483   4.707  0.2838  0.3224 -0.6166
  610MOL0     H80486   2.413  10.703   4.954  1.2643 -1.2441  2.8212
  610MOL0     H80487   2.346  10.541   5.002 -3.1981  1.6508 -0.4479
  610MOL0     H80488   2.247  10.534   4.759 -0.7447  1.2456 -1.4551
  610MOL0     H80489   2.302  10.702   4.760  0.0635 -0.7040 -0.9303
  610MOL0     H80490   2.143  10.747   4.946 -1.1662  0.1425 -0.3880
  610MOL0     H80491   2.128  10.577   4.976 -0.9863  1.0482  1.5806
  610MOL0     H80492   2.060  10.730   4.704  1.0316 -0.2205 -0.5177
  610MOL0     H80493   2.038  10.556   4.748  0.1957 -0.8476  0.3245
  610MOL0     H80494   1.892  10.775   4.875  0.9127  0.7210  0.4636
  610MOL0     H80495   1.876  10.597   4.897  2.2669  0.8316  0.9762
  610MOL0     H80496   1.804  10.565   4.660  3.1413  1.3412 -1.6899
  610MOL0     H80497   1.829  10.736   4.630  0.1808  1.7753  0.4784
  610MOL0     H80498   1.599  10.615   4.798 -0.9628 -1.9459 -2.1923
  610MOL0     H80499   1.666  10.785   4.803  0.0458  0.7667  1.5404
  610MOL0     H80500   1.626  10.782   4.540  2.1025  0.2836  1.0733
  610MOL0     H80501   1.481  10.773   4.647  0.7247  1.7075  0.3189
  610MOL0     H80502   2.592  10.629   5.107  2.2246  2.5189  0.9093
  610MOL0     H80503   2.841  10.646   5.152 -0.0954  2.2041  0.3422
  610MOL0     H80504   3.278  10.323   5.152 -0.7810  1.7665  2.8132
  610MOL0     H80505   3.506  10.325   5.136 -1.3666 -0.6875 -1.9063
  610MOL0     H80506   2.541  10.234   5.361 -1.3168 -0.3921  1.1504
  610MOL0     H80507   2.319  10.357   5.388 -2.4816  0.9166 -1.0032
  610MOL0     H80508   1.919  10.402   5.379  2.7140 -0.0708 -0.1985
  610MOL0     H80509   1.740  10.519   5.506  1.3011  0.0505  1.6705
  610MOL0     H80510   1.683  10.783   5.751  1.9885 -1.1809  2.7565
  610MOL0     H80511   1.730  10.620   5.697 -1.1205  0.4240  0.3172
  610MOL0     H80512   1.465  10.761   5.629  0.0544  0.4382  1.0800
  610MOL0     H80513   1.521  10.618   5.534  1.0733  0.2268  0.0822
  610MOL0     H80514   1.514  10.468   5.730 -1.9902 -1.9330  1.5992
  610MOL0     H80515   1.367  10.524   5.668 -0.6415 -1.7016  1.9169
  610MOL0     H80516   1.534  10.637   5.899  1.3949 -1.0778 -2.1405
  610MOL0     H80517   1.374  10.706   5.865  0.7593 -0.7600  1.2885
  610MOL0     H80518   1.282  10.365   6.084  0.3790 -1.4626 -0.6715
  610MOL0     H80519   1.914  10.894   5.414  0.5177  0.3872 -1.1507
  610MOL0     H80520   2.090  10.775   5.275  2.3599 -0.1197  2.7705
  611MOL0     O80521   4.222   1.065   6.319  0.6836 -0.0184  0.4321
  611MOL0     C80522   4.209   1.131   6.421 -0.9241  0.1513  0.4927
  611MOL0     O80523   4.099   1.196   6.463  0.0792  0.3597  0.5036
  611MOL0     C80524   3.979   1.217   6.395  0.5120  0.6675 -0.4412
  611MOL0     C80525   3.934   1.189   6.264  0.4977  0.3470 -0.4877
  611MOL0     C80526   3.799   1.204   6.218 -0.2865 -0.4634  0.2057
  611MOL0     C80527   3.706   1.264   6.301  0.2249 -0.4944  0.2858
  611MOL0     O80528   3.582   1.257   6.259 -0.1875 -0.1861 -0.2476
  611MOL0     C80529   3.480   1.343   6.313 -0.0595  0.5053 -0.6490
  611MOL0     C80530   3.442   1.456   6.230  0.2966  0.6470  0.3369
  611MOL0     C80531   3.546   1.570   6.227  0.5805  0.4267 -0.3571
  611MOL0     C80532   3.496   1.668   6.126  0.1915  0.4710  0.0013
  611MOL0     C80533   3.370   1.745   6.171 -0.5122  0.3393  0.2725
  611MOL0     C80534   3.364   1.891   6.123 -0.3789  0.2928  0.3701
  611MOL0     C80535   3.368   1.916   5.970  1.0196  0.1689 -0.1125
  611MOL0     C80536   3.308   2.057   5.932  0.3598  0.9261 -1.0821
  611MOL0     N80537   3.345   2.163   6.030  0.8994 -0.1199  0.5074
  611MOL0     C80538   3.255   2.220   6.123 -0.7115 -0.6195 -0.4890
  611MOL0     C80539   3.324   2.321   6.184 -0.2168 -0.5633  0.1382
  611MOL0     C80540   3.306   2.407   6.299 -0.1553  0.3247 -0.1903
  611MOL0     C80541   3.190   2.511   6.283  0.0248  0.2779 -0.4292
  611MOL0     C80542   3.174   2.614   6.399  0.8362  0.6411 -0.3304
  611MOL0     C80543   3.084   2.732   6.366 -0.1182  0.2449  0.4806
  611MOL0     O80544   2.956   2.689   6.317  0.1910 -0.6484 -0.9627
  611MOL0     C80545   2.845   2.702   6.400 -0.6284  0.0566 -0.5501
  611MOL0     C80546   2.732   2.731   6.327  0.3881 -0.2413 -0.3586
  611MOL0     C80547   2.605   2.718   6.387 -0.7726  0.4149 -0.7607
  611MOL0     C80548   2.602   2.673   6.520  0.3216  0.7369 -0.6622
  611MOL0     C80549   2.468   2.665   6.596 -0.4565  0.8017 -0.1428
  611MOL0     O80550   2.472   2.585   6.707 -0.3533 -1.0125 -0.0483
  611MOL0     C80551   2.355   2.572   6.778  0.8439 -0.6463  0.0111
  611MOL0     C80552   2.268   2.469   6.741 -0.2596 -0.4926 -0.5209
  611MOL0     C80553   2.138   2.455   6.797 -0.1392 -0.0039  0.2867
  611MOL0     C80554   2.088   2.553   6.881 -0.6453  0.1225  0.5252
  611MOL0     O80555   1.965   2.548   6.942 -0.8165  1.0874 -0.1028
  611MOL0     C80556   1.869   2.454   6.897  0.5455 -0.3280  0.3914
  611MOL0     C80557   1.726   2.472   6.965 -0.2789  0.0137  0.5689
  611MOL0     C80558   1.677   2.613   6.944 -0.4185 -0.1759  0.2944
  611MOL0     C80559   1.540   2.616   7.023  0.8529 -0.7222  0.0111
  611MOL0     C80560   1.463   2.746   6.994  0.1167  0.2758 -0.6278
  611MOL0     C80561   1.331   2.735   7.072 -0.1258  0.6747 -0.5126
  611MOL0     C80562   1.261   2.866   7.043 -0.1492 -0.1674 -0.1170
  611MOL0     C80563   1.143   2.909   7.127  0.5123 -0.1533  1.0461
  611MOL0    Cl80564   0.998   2.801   7.110  0.0681  0.1502 -0.0762
  611MOL0     C80565   2.169   2.659   6.916 -0.3434  0.0844  0.1562
  611MOL0     C80566   2.304   2.666   6.875 -0.1267  0.6714 -0.5715
  611MOL0     O80567   2.369   2.714   6.541 -0.8697  0.4798 -0.0868
  611MOL0     C80568   2.723   2.642   6.595 -0.2649  0.0554 -0.0865
  611MOL0     C80569   2.844   2.655   6.538 -0.3358 -0.3642  0.3515
  611MOL0     N80570   3.451   2.325   6.125 -0.2922 -0.5297  0.2561
  611MOL0     N80571   3.458   2.232   6.039 -0.2961  0.2209 -0.1162
  611MOL0     C80572   3.744   1.290   6.435 -0.7419 -0.1124  0.3239
  611MOL0     C80573   3.877   1.261   6.480 -0.0009 -0.3751 -0.2598
  611MOL0     C80574   4.312   1.114   6.523  0.2647 -0.5935  0.5127
  611MOL0     C80575   4.292   1.178   6.648 -0.2605 -0.6440  0.9517
  611MOL0     C80576   4.393   1.168   6.740 -0.0425  0.8490  0.0919
  611MOL0     C80577   4.504   1.088   6.718 -0.5543 -0.8562  0.2478
  611MOL0     O80578   4.598   1.103   6.819 -0.3730  0.3711  0.6414
  611MOL0     C80579   4.730   1.061   6.821 -0.4071 -0.2973  0.4730
  611MOL0     C80580   4.753   0.970   6.943 -0.0982 -0.2794  0.0734
  611MOL0     C80581   4.886   0.894   6.931 -0.0075  0.0967 -0.6329
  611MOL0     C80582   4.881   0.777   7.038 -0.2607  0.4759  0.9079
  611MOL0     C80583   5.019   0.722   7.048  0.9271  0.9273  0.2774
  611MOL0     C80584   5.132   0.677   7.053 -0.6260 -0.0296  0.8717
  611MOL0     C80585   4.523   1.023   6.600  0.0646  0.1392 -1.1799
  611MOL0     C80586   4.430   1.051   6.497 -0.7063  0.2149 -0.3282
  611MOL0     H80587   4.015   1.158   6.200  0.5485 -1.5869  0.4420
  611MOL0     H80588   3.766   1.172   6.119  0.0485  1.8763 -0.7272
  611MOL0     H80589   3.503   1.382   6.412 -1.0309 -0.7901  0.1101
  611MOL0     H80590   3.395   1.276   6.328  0.1296  0.4351  0.1560
  611MOL0     H80591   3.346   1.494   6.264 -1.2484  1.8000 -4.4904
  611MOL0     H80592   3.431   1.438   6.122  1.4475 -1.7875  0.5539
  611MOL0     H80593   3.640   1.528   6.192 -0.3101 -0.8396 -1.3147
  611MOL0     H80594   3.562   1.605   6.329 -0.5774 -2.6265  0.9873
  611MOL0     H80595   3.580   1.737   6.108  0.2268  0.3027 -0.4857
  611MOL0     H80596   3.483   1.634   6.023  1.7325  0.1276 -0.1016
  611MOL0     H80597   3.366   1.740   6.280 -0.1583 -2.1017  0.2326
  611MOL0     H80598   3.281   1.688   6.141 -1.7232  0.7084  2.9161
  611MOL0     H80599   3.438   1.946   6.183 -0.0508  0.2613 -0.0041
  611MOL0     H80600   3.268   1.930   6.161  0.9538  1.7267  2.5635
  611MOL0     H80601   3.472   1.911   5.937  0.8132 -0.3089 -0.7114
  611MOL0     H80602   3.307   1.841   5.917  1.7440  1.1929 -2.5477
  611MOL0     H80603   3.199   2.069   5.932  0.3081  0.8282  0.6340
  611MOL0     H80604   3.343   2.080   5.831  2.5092 -1.5987 -1.0241
  611MOL0     H80605   3.150   2.196   6.138 -0.2481 -2.6676 -0.0775
  611MOL0     H80606   3.399   2.459   6.322  0.4009  0.5619 -2.6655
  611MOL0     H80607   3.284   2.336   6.379 -0.5894 -1.3169 -1.7050
  611MOL0     H80608   3.093   2.464   6.260  0.6277 -1.1431 -0.1858
  611MOL0     H80609   3.203   2.568   6.191 -3.3599  1.4089 -0.3292
  611MOL0     H80610   3.121   2.552   6.473 -0.9687  0.8678 -1.3660
  611MOL0     H80611   3.264   2.653   6.447  0.6764 -1.1434  1.5867
  611MOL0     H80612   3.126   2.803   6.295 -1.1983  1.6520  1.2106
  611MOL0     H80613   3.070   2.782   6.462  1.1409 -0.8691  1.2685
  611MOL0     H80614   2.730   2.756   6.222  0.7824 -2.6341 -0.9852
  611MOL0     H80615   2.509   2.729   6.338 -1.3343 -0.0797  0.2238
  611MOL0     H80616   2.306   2.412   6.657  0.5276  1.2670 -1.4232
  611MOL0     H80617   2.083   2.362   6.787  0.0230 -0.0020 -0.6539
  611MOL0     H80618   1.895   2.355   6.937 -1.5031 -1.8642 -1.8021
  611MOL0     H80619   1.860   2.433   6.790  1.2125  0.5259  0.1598
  611MOL0     H80620   1.738   2.466   7.073 -0.8055  0.7724  0.6778
  611MOL0     H80621   1.648   2.400   6.939  0.7604 -0.6773 -0.7727
  611MOL0     H80622   1.671   2.634   6.837 -0.4189 -0.4268  0.2429
  611MOL0     H80623   1.739   2.688   6.992 -1.0647 -0.5595  1.8225
  611MOL0     H80624   1.469   2.541   6.988  1.8756 -2.5383  1.6152
  611MOL0     H80625   1.554   2.598   7.130 -0.4645  1.8274  0.6946
  611MOL0     H80626   1.435   2.762   6.889  1.0478  0.1857 -0.8973
  611MOL0     H80627   1.509   2.838   7.031  0.0709  1.2287 -2.7903
  611MOL0     H80628   1.345   2.718   7.179  0.4693 -0.8289 -0.7939
  611MOL0     H80629   1.276   2.648   7.035  2.0262 -0.8329 -0.3849
  611MOL0     H80630   1.332   2.949   7.050 -0.3316 -0.1451  2.3237
  611MOL0     H80631   1.239   2.853   6.937 -0.5106 -2.1208  0.1699
  611MOL0     H80632   1.115   3.011   7.098  0.8996 -0.2801  0.1943
  611MOL0     H80633   1.172   2.917   7.232  0.6841 -0.1159  0.9956
  611MOL0     H80634   2.135   2.732   6.989  1.8367 -1.5633  3.0580
  611MOL0     H80635   2.360   2.754   6.908 -0.7604  1.2110 -0.9183
  611MOL0     H80636   2.723   2.588   6.690 -3.5146  0.0851  0.0413
  611MOL0     H80637   2.932   2.624   6.595 -0.8459 -3.4219 -0.3534
  611MOL0     H80638   3.673   1.329   6.507 -2.5003  0.4204 -1.6069
  611MOL0     H80639   3.887   1.273   6.587 -0.1173 -5.1958  0.4783
  611MOL0     H80640   4.213   1.239   6.692 -0.1395  0.8891 -0.8045
  611MOL0     H80641   4.386   1.226   6.832  0.5782  0.7638  0.1967
  611MOL0     H80642   4.797   1.147   6.829  0.0872 -0.7945  2.0877
  611MOL0     H80643   4.738   1.008   6.725  1.9699  0.7893 -0.0027
  611MOL0     H80644   4.744   1.033   7.033 -0.8991 -0.9463  0.4810
  611MOL0     H80645   4.668   0.902   6.933  0.0233 -0.3063 -0.8726
  611MOL0     H80646   4.967   0.962   6.960  2.2141 -2.8978  0.7587
  611MOL0     H80647   4.904   0.839   6.839  0.2480 -3.2541  1.2720
  611MOL0     H80648   4.851   0.812   7.137  2.2681  0.1843  1.8561
  611MOL0     H80649   4.809   0.704   6.998  1.3408 -0.7813  0.1977
  611MOL0     H80650   5.233   0.644   7.058 -1.4412 -3.0753 -0.3110
  611MOL0     H80651   4.610   0.970   6.565 -0.2613 -1.1075 -0.1800
  611MOL0     H80652   4.446   1.015   6.396  1.0696 -1.9059  0.6167
  612MOL0     O80653   7.204   4.873   6.604 -0.2951 -0.1696  0.4512
  612MOL0     C80654   7.302   4.944   6.579 -0.2986 -0.4679 -0.2311
  612MOL0     O80655   7.293   5.077   6.559  0.0764  0.2616 -0.1794
  612MOL0     C80656   7.168   5.129   6.542  0.9792 -0.7607  0.7422
  612MOL0     C80657   7.069   5.142   6.638  0.1221 -0.7909  0.6823
  612MOL0     C80658   6.953   5.210   6.620 -0.2923  0.3608  0.5967
  612MOL0     C80659   6.933   5.269   6.491 -0.1091  0.1157  0.3424
  612MOL0     O80660   6.809   5.335   6.482 -0.6529  0.2442 -0.5696
  612MOL0     C80661   6.768   5.350   6.340  0.5573 -0.2537 -0.7227
  612MOL0     C80662   6.614   5.351   6.333  0.4351 -0.2247 -0.5600
  612MOL0     C80663   6.578   5.311   6.189 -0.2623  0.1301 -0.3405
  612MOL0     C80664   6.423   5.292   6.192 -0.3308 -0.0671 -1.0442
  612MOL0     C80665   6.361   5.333   6.065  0.0602 -1.0900 -0.0135
  612MOL0     C80666   6.346   5.221   5.971 -0.0606 -0.2114 -0.1283
  612MOL0     C80667   6.253   5.259   5.858 -0.3375  0.1869 -0.9696
  612MOL0     C80668   6.259   5.157   5.752 -0.2267 -0.4685  0.1034
  612MOL0     N80669   6.160   5.171   5.648  0.0334 -0.7428  0.7877
  612MOL0     C80670   6.184   5.162   5.513  0.6553 -0.1739 -0.5648
  612MOL0     C80671   6.065   5.205   5.451 -0.7143 -0.2432  0.2923
  612MOL0     C80672   6.042   5.220   5.305 -0.3481 -0.2110  1.0140
  612MOL0     C80673   5.912   5.146   5.267  0.0119 -0.8864 -0.8281
  612MOL0     C80674   5.796   5.247   5.268  0.9056 -0.3839 -0.7231
  612MOL0     C80675   5.667   5.173   5.224 -0.7048 -0.0303 -1.3939
  612MOL0     O80676   5.556   5.256   5.233  0.3196 -0.0426  0.1807
  612MOL0     C80677   5.433   5.215   5.202  0.2354  0.0974  0.4633
  612MOL0     C80678   5.395   5.082   5.181  0.4086  0.3281 -0.2552
  612MOL0     C80679   5.263   5.039   5.169  0.0818 -0.0513  0.1696
  612MOL0     C80680   5.163   5.135   5.160 -0.1243 -0.0998  0.3150
  612MOL0     C80681   5.018   5.094   5.146  0.3585 -0.1639  0.3009
  612MOL0     O80682   4.924   5.186   5.109 -0.2768 -0.9070  0.6117
  612MOL0     C80683   4.787   5.142   5.125 -0.5548 -0.0371 -0.7197
  612MOL0     C80684   4.710   5.125   5.246 -0.7651 -1.0213  0.1321
  612MOL0     C80685   4.571   5.100   5.252 -0.8829  0.6804 -0.1007
  612MOL0     C80686   4.506   5.107   5.126  0.4217  0.2456 -0.0560
  612MOL0     O80687   4.365   5.095   5.113 -0.3342  0.3711 -0.0061
  612MOL0     C80688   4.291   5.065   5.229  1.1273 -0.2552 -0.0475
  612MOL0     C80689   4.146   5.050   5.190  1.1453 -0.4279  0.3590
  612MOL0     C80690   4.074   5.176   5.141 -0.4588  0.1725  0.0117
  612MOL0     C80691   3.932   5.151   5.101  1.8808 -0.2247  0.0996
  612MOL0     C80692   3.930   5.058   4.976 -0.7334 -0.1502  0.5012
  612MOL0     C80693   3.794   5.066   4.907  0.0967 -0.4725  0.0965
  612MOL0     C80694   3.755   4.942   4.836 -1.1231  0.0433 -0.7218
  612MOL0     C80695   3.668   4.969   4.714 -0.1753  0.3627  0.7639
  612MOL0    Cl80696   3.655   4.820   4.614 -0.1005 -0.4154 -0.1485
  612MOL0     C80697   4.576   5.123   5.006  0.3913  0.0541  0.3095
  612MOL0     C80698   4.713   5.147   5.004  0.1520  0.5668 -0.5555
  612MOL0     O80699   5.001   4.977   5.164 -0.1118  0.1822 -0.2497
  612MOL0     C80700   5.197   5.266   5.176  1.0247  0.8663  0.6056
  612MOL0     C80701   5.330   5.303   5.200  0.0346 -0.0991 -0.2366
  612MOL0     N80702   5.973   5.210   5.546  0.7844  0.2612 -0.0743
  612MOL0     N80703   6.028   5.187   5.663  0.2438  0.5494  0.4758
  612MOL0     C80704   7.028   5.255   6.389 -0.1437  0.6119 -0.5764
  612MOL0     C80705   7.146   5.189   6.413 -0.4309  0.0668 -0.3147
  612MOL0     C80706   7.437   4.882   6.566 -1.1799 -0.0882  0.0124
  612MOL0     C80707   7.467   4.746   6.574 -0.2432 -0.2258 -0.1587
  612MOL0     C80708   7.593   4.683   6.546 -0.0465 -0.9278  1.0321
  612MOL0     C80709   7.701   4.762   6.499 -0.3178  0.2959  0.5687
  612MOL0     O80710   7.822   4.719   6.459  0.1680  0.1167 -0.0431
  612MOL0     C80711   7.884   4.592   6.497  0.7457 -0.1178  0.3748
  612MOL0     C80712   7.951   4.612   6.632 -0.3091  0.2466 -0.1481
  612MOL0     C80713   8.067   4.712   6.643  0.3841 -1.4774 -0.3825
  612MOL0     C80714   8.138   4.718   6.778 -0.9586 -0.0486 -0.4499
  612MOL0     C80715   8.059   4.768   6.893 -0.5163  0.3548 -1.1796
  612MOL0     C80716   7.993   4.816   6.983  0.4114 -0.5129 -0.1442
  612MOL0     C80717   7.682   4.903   6.501 -0.2012  0.3756  0.0676
  612MOL0     C80718   7.551   4.959   6.536  0.0239  0.4416  0.1081
  612MOL0     H80719   7.090   5.092   6.732  0.9243 -2.1147 -0.1588
  612MOL0     H80720   6.875   5.213   6.696 -0.3415  0.3608  0.5462
  612MOL0     H80721   6.811   5.281   6.267  2.3457  0.3856 -0.3134
  612MOL0     H80722   6.783   5.452   6.303 -1.6839  1.0407  1.6534
  612MOL0     H80723   6.577   5.454   6.343  1.3058  0.2019 -1.5194
  612MOL0     H80724   6.574   5.274   6.399  2.3878 -1.5110 -0.8121
  612MOL0     H80725   6.619   5.215   6.157 -1.3002  0.4282 -2.8025
  612MOL0     H80726   6.610   5.392   6.123 -0.0918  0.6421  0.3585
  612MOL0     H80727   6.411   5.185   6.213  0.6696 -0.3859 -2.0430
  612MOL0     H80728   6.368   5.347   6.269  1.8180  1.5997 -0.6289
  612MOL0     H80729   6.425   5.407   6.017  2.0542 -1.1744  2.3072
  612MOL0     H80730   6.266   5.385   6.075  0.5948 -0.0738 -0.1401
  612MOL0     H80731   6.295   5.138   6.019 -0.4681 -0.7423 -1.4271
  612MOL0     H80732   6.435   5.172   5.931 -0.2214 -0.9039  0.3399
  612MOL0     H80733   6.153   5.261   5.903  1.7226 -1.1413  4.5315
  612MOL0     H80734   6.282   5.355   5.816  0.2989  1.1913  1.5531
  612MOL0     H80735   6.229   5.066   5.806  0.4927  0.1000  1.5174
  612MOL0     H80736   6.358   5.152   5.708 -0.3887 -1.4406 -0.1724
  612MOL0     H80737   6.282   5.134   5.476  0.8315 -2.6237  1.4822
  612MOL0     H80738   6.125   5.179   5.247 -1.6575  0.4865 -1.4610
  612MOL0     H80739   6.041   5.329   5.298  2.4495 -0.0871  1.2914
  612MOL0     H80740   5.896   5.055   5.326 -0.9077 -0.8402 -0.9870
  612MOL0     H80741   5.933   5.108   5.167 -0.1959 -4.0704  0.2112
  612MOL0     H80742   5.773   5.283   5.368 -1.2500  1.2761 -1.7227
  612MOL0     H80743   5.804   5.340   5.209 -0.9313  0.6795  0.5901
  612MOL0     H80744   5.656   5.083   5.285 -1.4604  2.5749  2.6751
  612MOL0     H80745   5.682   5.144   5.119  1.9500 -5.1573  0.0760
  612MOL0     H80746   5.457   4.994   5.194 -0.1159  0.0883  0.7057
  612MOL0     H80747   5.230   4.935   5.172  0.1654 -0.1707 -1.9213
  612MOL0     H80748   4.764   5.152   5.335  0.6599  3.0918 -1.7497
  612MOL0     H80749   4.528   5.076   5.348 -0.2000 -0.7046 -0.1146
  612MOL0     H80750   4.298   5.137   5.311  0.8520 -0.2234 -0.0513
  612MOL0     H80751   4.323   4.971   5.275  0.7167  0.4065  1.6260
  612MOL0     H80752   4.095   5.026   5.284  2.1207 -1.0388  0.7504
  612MOL0     H80753   4.134   4.972   5.115 -3.3281 -0.5549  0.9156
  612MOL0     H80754   4.135   5.210   5.057  0.7119 -3.5390 -0.8089
  612MOL0     H80755   4.076   5.246   5.225  0.2179 -0.4723  0.5500
  612MOL0     H80756   3.876   5.117   5.188 -0.1076  0.6222 -0.7693
  612MOL0     H80757   3.877   5.244   5.081 -1.6680 -1.6883  2.1354
  612MOL0     H80758   3.947   4.955   5.010  4.0301 -0.4630 -2.0182
  612MOL0     H80759   4.013   5.086   4.911 -2.2102  0.7067 -1.0993
  612MOL0     H80760   3.797   5.152   4.839  0.0619 -0.2240  0.4069
  612MOL0     H80761   3.716   5.098   4.977 -0.1006 -0.9808  0.1173
  612MOL0     H80762   3.845   4.897   4.793 -0.2307 -1.9473  2.8122
  612MOL0     H80763   3.710   4.877   4.911  2.1853  1.3396  2.7285
  612MOL0     H80764   3.707   5.049   4.651 -1.9554 -0.6299 -1.7243
  612MOL0     H80765   3.572   4.997   4.758 -0.1771 -1.0786  1.7419
  612MOL0     H80766   4.517   5.115   4.915  0.7226 -1.3186  0.1857
  612MOL0     H80767   4.757   5.161   4.906  0.0779  0.7305 -0.5660
  612MOL0     H80768   5.120   5.341   5.186  1.7866  1.5751  1.3717
  612MOL0     H80769   5.342   5.411   5.201  0.8593 -0.0608 -3.6257
  612MOL0     H80770   7.028   5.307   6.293  0.6560  0.7229 -0.5201
  612MOL0     H80771   7.228   5.194   6.341 -0.7218  0.0943 -0.6465
  612MOL0     H80772   7.380   4.683   6.593  0.2975 -0.5970  1.1719
  612MOL0     H80773   7.604   4.575   6.550  1.6422 -1.0837 -2.8961
  612MOL0     H80774   7.954   4.552   6.424 -1.1983 -3.1204 -0.0413
  612MOL0     H80775   7.804   4.517   6.504 -1.4061  1.9392 -0.7516
  612MOL0     H80776   7.884   4.649   6.710  2.1347  0.3388  2.0787
  612MOL0     H80777   7.990   4.515   6.665  3.4917  1.5574 -0.3072
  612MOL0     H80778   8.027   4.813   6.630 -1.1900 -2.0522 -0.2660
  612MOL0     H80779   8.142   4.691   6.567 -0.0617 -0.9867 -0.9622
  612MOL0     H80780   8.160   4.613   6.800  2.2243  0.5501 -0.3503
  612MOL0     H80781   8.227   4.780   6.781 -1.8219  1.2064  2.2201
  612MOL0     H80782   7.928   4.852   7.060 -2.3172 -3.4155 -0.8766
  612MOL0     H80783   7.769   4.964   6.480  1.3860 -2.4111 -2.1927
  612MOL0     H80784   7.540   5.067   6.537  0.2994  0.4823  2.1693
  613MOL0     O80785   7.247   0.679   9.422  0.1590 -0.3720  0.3568
  613MOL0     C80786   7.252   0.607   9.519 -0.1173  0.8307 -0.8038
  613MOL0     O80787   7.150   0.577   9.607  0.6907 -0.4108 -0.4034
  613MOL0     C80788   7.025   0.637   9.590  0.1616 -0.0938 -0.1746
  613MOL0     C80789   6.958   0.631   9.463 -0.1599 -0.4920 -0.9949
  613MOL0     C80790   6.826   0.688   9.448 -0.2765 -0.2099 -0.3472
  613MOL0     C80791   6.757   0.734   9.558  0.0413  0.0392  0.4248
  613MOL0     O80792   6.624   0.766   9.533  0.2588  0.1732 -0.5936
  613MOL0     C80793   6.523   0.740   9.636  0.2929 -0.2394  0.0687
  613MOL0     C80794   6.393   0.812   9.585 -0.4116  0.5486 -0.1209
  613MOL0     C80795   6.280   0.741   9.645  0.4619 -0.8983 -0.4004
  613MOL0     C80796   6.151   0.801   9.584  0.8564  0.9353 -0.2246
  613MOL0     C80797   6.023   0.755   9.656 -0.3175  0.8527 -0.2804
  613MOL0     C80798   5.896   0.786   9.584  0.6346  0.0955  0.0122
  613MOL0     C80799   5.772   0.739   9.652 -0.1011 -0.2336 -0.0630
  613MOL0     C80800   5.663   0.727   9.542 -0.3367 -1.0977 -0.5109
  613MOL0     N80801   5.528   0.735   9.588  0.5408 -0.0821 -0.2955
  613MOL0     C80802   5.426   0.646   9.552  0.2806 -0.0226 -0.1364
  613MOL0     C80803   5.311   0.708   9.592  0.2581 -0.0088  0.8187
  613MOL0     C80804   5.183   0.644   9.576  0.0209 -0.0071  0.1475
  613MOL0     C80805   5.115   0.667   9.439  0.1528  0.9510 -0.4164
  613MOL0     C80806   5.005   0.553   9.406 -0.5886 -0.1987 -0.2445
  613MOL0     C80807   4.863   0.584   9.443 -0.1474  0.1606  0.0141
  613MOL0     O80808   4.768   0.476   9.429  0.1433 -0.7904 -0.4670
  613MOL0     C80809   4.634   0.517   9.425 -0.2879  0.5928  0.2089
  613MOL0     C80810   4.563   0.510   9.548  0.0129  0.0306  0.5786
  613MOL0     C80811   4.440   0.568   9.556  0.0325 -0.1309 -0.7252
  613MOL0     C80812   4.384   0.636   9.449  0.1936 -0.2005  0.3085
  613MOL0     C80813   4.252   0.710   9.457 -0.4373  0.6946  0.5745
  613MOL0     O80814   4.221   0.774   9.344  0.2877  0.1574  0.2364
  613MOL0     C80815   4.120   0.857   9.341 -0.4996 -0.7955 -0.0845
  613MOL0     C80816   4.148   0.967   9.269 -0.3599  0.2103 -0.3852
  613MOL0     C80817   4.069   1.078   9.284  0.9093 -0.1804  0.0260
  613MOL0     C80818   3.937   1.070   9.341  0.2745  0.7409  0.9483
  613MOL0     O80819   3.872   1.188   9.337 -0.1049 -0.2855  0.0351
  613MOL0     C80820   3.738   1.183   9.397  0.0828  0.6862  0.3385
  613MOL0     C80821   3.672   1.323   9.415 -0.3946 -0.3757  0.6283
  613MOL0     C80822   3.523   1.312   9.428  0.1111 -0.4692 -0.4222
  613MOL0     C80823   3.451   1.447   9.415  0.6510  0.9468 -0.4233
  613MOL0     C80824   3.302   1.423   9.404  0.6526  0.0474 -0.2949
  613MOL0     C80825   3.233   1.548   9.368  0.5677  0.1842 -0.2847
  613MOL0     C80826   3.080   1.523   9.350 -0.6084  0.0493  1.1503
  613MOL0     C80827   2.992   1.651   9.324 -0.7024 -0.9726  0.4310
  613MOL0    Cl80828   2.835   1.595   9.266 -0.4723  0.4747  0.2877
  613MOL0     C80829   3.903   0.947   9.405 -0.1599 -0.4530 -0.4164
  613MOL0     C80830   4.007   0.846   9.407  0.3587 -0.1734 -0.7977
  613MOL0     O80831   4.201   0.710   9.569  0.4892 -0.4896  0.0761
  613MOL0     C80832   4.449   0.626   9.319  0.0457 -0.0221 -0.2219
  613MOL0     C80833   4.578   0.568   9.308  0.4330  0.1718 -1.1224
  613MOL0     N80834   5.343   0.826   9.649  0.4425 -0.6229 -0.5340
  613MOL0     N80835   5.470   0.848   9.646 -0.7093 -0.3359  0.8855
  613MOL0     C80836   6.822   0.742   9.684 -0.3661  0.2733  0.4760
  613MOL0     C80837   6.957   0.688   9.699  0.0761 -0.3759 -0.0904
  613MOL0     C80838   7.386   0.542   9.547 -0.5738 -0.7042 -0.4647
  613MOL0     C80839   7.488   0.544   9.441  0.3599 -0.4809 -0.0958
  613MOL0     C80840   7.604   0.477   9.459 -0.7593 -0.0764  0.3626
  613MOL0     C80841   7.625   0.394   9.568 -0.0596  0.5006 -0.1150
  613MOL0     O80842   7.735   0.317   9.566 -0.5325  0.0937 -0.5834
  613MOL0     C80843   7.766   0.235   9.671 -0.0003 -0.0415 -0.2172
  613MOL0     C80844   7.904   0.172   9.656  0.3132 -0.2674 -0.2937
  613MOL0     C80845   8.023   0.243   9.705  0.5305  0.0310 -0.0383
  613MOL0     C80846   8.023   0.397   9.678 -0.1597 -0.4002 -0.1835
  613MOL0     C80847   8.015   0.437   9.540 -0.0964 -0.0160 -0.0213
  613MOL0     C80848   8.010   0.464   9.427 -0.7559  0.7238 -0.2430
  613MOL0     C80849   7.547   0.416   9.683 -0.0451  0.3034  0.8483
  613MOL0     C80850   7.430   0.489   9.672 -0.4769 -0.8545  0.2777
  613MOL0     H80851   7.022   0.590   9.385  2.6371  1.4169  0.1431
  613MOL0     H80852   6.773   0.683   9.353 -0.4453  1.8055 -0.4158
  613MOL0     H80853   6.549   0.770   9.738  1.2717  1.9271 -0.7759
  613MOL0     H80854   6.508   0.632   9.647  2.6615 -0.6664 -0.4823
  613MOL0     H80855   6.377   0.803   9.478  1.6471 -0.5434 -0.3789
  613MOL0     H80856   6.392   0.919   9.612  0.4667  0.5211  0.0586
  613MOL0     H80857   6.270   0.767   9.751 -1.8539  0.9981 -0.9864
  613MOL0     H80858   6.278   0.636   9.617  0.5776 -1.4036  1.3548
  613MOL0     H80859   6.144   0.910   9.585 -3.0953  0.8158  0.4148
  613MOL0     H80860   6.149   0.764   9.482  1.4671 -1.1950  0.4906
  613MOL0     H80861   6.026   0.785   9.761 -0.1384  0.0842 -0.0571
  613MOL0     H80862   6.029   0.646   9.653 -3.1843  0.6506 -1.3570
  613MOL0     H80863   5.903   0.739   9.485  4.6309 -4.3138  2.0003
  613MOL0     H80864   5.895   0.894   9.568  0.5777  0.0822 -0.0751
  613MOL0     H80865   5.786   0.649   9.712  0.4577  0.5017  0.9340
  613MOL0     H80866   5.745   0.819   9.722  0.0074 -0.7052  0.5270
  613MOL0     H80867   5.676   0.638   9.479  1.1314  0.8428 -3.1684
  613MOL0     H80868   5.672   0.808   9.468 -0.5332 -0.5879  0.0166
  613MOL0     H80869   5.429   0.564   9.481  3.6793  0.2236 -0.4701
  613MOL0     H80870   5.116   0.667   9.659 -1.2390 -2.2236 -0.1691
  613MOL0     H80871   5.209   0.538   9.583  4.0230  0.8826  1.2884
  613MOL0     H80872   5.181   0.658   9.352 -1.9643 -0.2986 -1.9729
  613MOL0     H80873   5.068   0.765   9.441  0.2763  1.0038  0.0067
  613MOL0     H80874   5.000   0.534   9.299  1.9238  0.7200 -0.5901
  613MOL0     H80875   5.031   0.462   9.462 -1.4725  0.8354  1.9974
  613MOL0     H80876   4.833   0.679   9.398  3.0565  2.3194  2.0049
  613MOL0     H80877   4.860   0.603   9.551 -1.4278 -1.7984  0.3928
  613MOL0     H80878   4.595   0.454   9.635  0.5060  0.7645  0.8726
  613MOL0     H80879   4.390   0.562   9.653 -0.9233 -1.2885 -1.2657
  613MOL0     H80880   4.243   0.964   9.218 -0.0670  0.6824  0.1190
  613MOL0     H80881   4.100   1.177   9.251  1.0484 -0.2105  0.0638
  613MOL0     H80882   3.740   1.139   9.497  2.1395  1.1725  0.5654
  613MOL0     H80883   3.677   1.129   9.324 -3.6456  5.6783 -0.7716
  613MOL0     H80884   3.698   1.366   9.318 -3.3030 -1.5786 -0.8065
  613MOL0     H80885   3.721   1.387   9.489  1.7293 -1.2045  0.0069
  613MOL0     H80886   3.507   1.265   9.526  1.4753 -0.0315  0.0427
  613MOL0     H80887   3.481   1.240   9.357 -2.0529 -0.1666  0.4715
  613MOL0     H80888   3.463   1.506   9.506 -1.9281  2.6078 -1.0680
  613MOL0     H80889   3.478   1.506   9.327  1.3285  0.9197 -0.2381
  613MOL0     H80890   3.257   1.394   9.500  0.0570 -1.8368 -1.0833
  613MOL0     H80891   3.276   1.339   9.339 -1.9665  1.1043 -0.7687
  613MOL0     H80892   3.269   1.602   9.280  0.5986 -2.4145 -1.9719
  613MOL0     H80893   3.254   1.624   9.444 -2.7156  1.4353 -0.4566
  613MOL0     H80894   3.072   1.448   9.270 -0.0623  0.3041  0.8477
  613MOL0     H80895   3.040   1.468   9.436  1.5491 -1.6364  1.1770
  613MOL0     H80896   3.031   1.724   9.252  0.9250 -0.4519  1.7548
  613MOL0     H80897   2.978   1.709   9.416 -0.5189  1.4940 -0.9874
  613MOL0     H80898   3.806   0.938   9.452  0.4696 -0.2210  0.9708
  613MOL0     H80899   3.980   0.756   9.461 -3.7390  0.6148 -1.1982
  613MOL0     H80900   4.410   0.674   9.231  1.7839  2.6550  0.3466
  613MOL0     H80901   4.634   0.554   9.216  2.2609 -0.6989  0.0692
  613MOL0     H80902   6.776   0.788   9.770  0.4233 -1.2252  1.7508
  613MOL0     H80903   7.002   0.678   9.798  0.6609 -2.1662 -0.4993
  613MOL0     H80904   7.488   0.605   9.351  2.1237 -0.9897 -0.4782
  613MOL0     H80905   7.686   0.470   9.388 -0.3479 -1.5014  0.9457
  613MOL0     H80906   7.685   0.161   9.678 -1.1177  0.8879 -2.4834
  613MOL0     H80907   7.783   0.291   9.763 -1.2007 -1.0343  0.6439
  613MOL0     H80908   7.914   0.075   9.705  1.4208 -0.8602 -1.6206
  613MOL0     H80909   7.919   0.142   9.552  0.8209  0.2588 -0.3773
  613MOL0     H80910   8.120   0.199   9.676  2.7047  2.4577  2.9475
  613MOL0     H80911   8.011   0.227   9.812  1.5895  0.8823  0.2259
  613MOL0     H80912   7.927   0.439   9.712 -0.0153 -1.0300  1.0325
  613MOL0     H80913   8.106   0.444   9.731 -0.1265 -1.3129  0.5994
  613MOL0     H80914   8.011   0.490   9.323 -0.6678  2.7743  0.2187
  613MOL0     H80915   7.574   0.372   9.778  0.7679 -0.6501  0.1925
  613MOL0     H80916   7.367   0.508   9.758 -2.5799 -0.9642 -1.1490
  614MOL0     O80917   2.461   9.087   9.060  0.0043 -0.4078  0.6330
  614MOL0     C80918   2.568   9.027   9.075  0.4324 -0.2822 -0.9746
  614MOL0     O80919   2.596   8.919   9.157 -0.1529  0.7035 -0.9960
  614MOL0     C80920   2.493   8.881   9.236  0.3179  0.1496  0.3433
  614MOL0     C80921   2.416   8.777   9.200 -0.2831 -0.2647 -0.4111
  614MOL0     C80922   2.325   8.724   9.282 -0.6236 -0.4511 -0.1869
  614MOL0     C80923   2.290   8.793   9.398 -0.8541 -1.0356 -0.3290
  614MOL0     O80924   2.192   8.739   9.464  0.8593  0.4516 -0.9496
  614MOL0     C80925   2.077   8.825   9.487  0.3040 -0.4681 -0.2419
  614MOL0     C80926   2.057   8.826   9.641 -0.5573  0.1109  1.0502
  614MOL0     C80927   1.937   8.915   9.668  0.2678  0.7155  0.1979
  614MOL0     C80928   1.932   8.978   9.802 -0.3774 -0.3919 -0.7911
  614MOL0     C80929   1.799   9.022   9.828 -0.4953 -0.4250  0.6749
  614MOL0     C80930   1.796   9.077   9.968  0.1850  0.1202  0.0320
  614MOL0     C80931   1.687   9.183   9.980  0.5059 -0.8033  0.2233
  614MOL0     C80932   1.542   9.129   9.978 -0.7406 -0.6315  0.4649
  614MOL0     N80933   1.513   9.017  10.067  0.6848 -0.0939  0.4187
  614MOL0     C80934   1.473   9.020  10.200  0.3842 -0.2003  0.6432
  614MOL0     C80935   1.466   8.892  10.237  1.0155  0.4392 -0.2666
  614MOL0     C80936   1.435   8.835  10.373  1.0240  0.8519 -0.8631
  614MOL0     C80937   1.287   8.835  10.410  0.5817  0.2073  0.1841
  614MOL0     C80938   1.213   8.972  10.413 -0.8163  0.0581 -0.5774
  614MOL0     C80939   1.100   8.988  10.514 -0.2457 -0.0336 -0.8748
  614MOL0     O80940   1.024   8.871  10.513 -0.0155  0.8120  0.4570
  614MOL0     C80941   0.934   8.861  10.608  0.4774  0.8116  0.1206
  614MOL0     C80942   0.830   8.947  10.643  0.3016 -0.3536 -0.2365
  614MOL0     C80943   0.739   8.918  10.751 -0.5713 -0.4371  0.5084
  614MOL0     C80944   0.759   8.805  10.831 -0.0992 -0.3563  0.1660
  614MOL0     C80945   0.669   8.778  10.947 -0.6483  0.1755 -0.2590
  614MOL0     O80946   0.694   8.663  11.027 -0.2254  0.0467 -0.4810
  614MOL0     C80947   0.600   8.639  11.131 -0.1706  0.2125 -0.2449
  614MOL0     C80948   0.482   8.575  11.105  0.8684  0.4157  0.5936
  614MOL0     C80949   0.388   8.536  11.198 -0.2792  0.9691 -0.1014
  614MOL0     C80950   0.408   8.559  11.338 -0.6587 -0.7268 -0.3450
  614MOL0     O80951   0.319   8.543  11.448 -0.4624 -0.4271  0.4709
  614MOL0     C80952   0.199   8.473  11.416  0.1335 -0.4539  0.4945
  614MOL0     C80953   0.097   8.454  11.530  0.0608 -0.2487  0.0134
  614MOL0     C80954   0.001   8.572  11.545 -0.6219  1.2311  0.8995
  614MOL0     C80955  -0.079   8.552  11.677 -0.5852  0.0227  0.1039
  614MOL0     C80956  -0.190   8.661  11.694 -0.1063 -0.0198 -0.4180
  614MOL0     C80957  -0.296   8.670  11.590 -0.0410  0.4680  0.0456
  614MOL0     C80958  -0.424   8.728  11.646  0.3608 -0.3036 -0.4956
  614MOL0     C80959  -0.518   8.740  11.524 -0.5204  0.7293 -0.5015
  614MOL0    Cl80960  -0.598   8.587  11.496  0.0979 -0.2329  0.0722
  614MOL0     C80961   0.525   8.639  11.365 -0.1040  0.1425  0.3133
  614MOL0     C80962   0.624   8.675  11.267 -0.4020  0.6275  0.9982
  614MOL0     O80963   0.570   8.851  10.966  0.2862 -0.4659 -0.2307
  614MOL0     C80964   0.860   8.716  10.794 -0.0523 -0.2598 -0.2562
  614MOL0     C80965   0.950   8.745  10.687 -0.1745  0.8250  0.0138
  614MOL0     N80966   1.503   8.814  10.128 -0.4357  0.3057  0.4174
  614MOL0     N80967   1.523   8.893  10.025 -0.4626  0.9118 -1.3775
  614MOL0     C80968   2.372   8.894   9.448 -0.6155  0.0422  1.0241
  614MOL0     C80969   2.474   8.940   9.361  0.3205  0.3893 -0.0279
  614MOL0     C80970   2.682   9.057   8.983 -0.7851  0.1166  0.7454
  614MOL0     C80971   2.669   9.135   8.856 -0.0901 -0.5146  0.1575
  614MOL0     C80972   2.784   9.165   8.784 -0.1906  0.3018 -0.2872
  614MOL0     C80973   2.911   9.112   8.821  0.2620  0.4623  1.0135
  614MOL0     O80974   3.017   9.147   8.742  0.1362  0.0537 -0.5696
  614MOL0     C80975   3.150   9.115   8.789 -0.0401  0.1424 -0.4274
  614MOL0     C80976   3.263   9.182   8.707  0.3409 -0.0013 -0.4299
  614MOL0     C80977   3.274   9.117   8.569  0.0325 -0.2612 -0.1341
  614MOL0     C80978   3.387   9.175   8.485 -0.3790 -0.1054 -0.1991
  614MOL0     C80979   3.394   9.118   8.346 -0.5113 -0.0266 -0.1107
  614MOL0     C80980   3.427   9.067   8.244  0.0067  0.0397  0.0434
  614MOL0     C80981   2.924   9.046   8.941 -0.8394 -0.3078 -0.1460
  614MOL0     C80982   2.812   9.024   9.018  0.0704  0.1089 -0.4259
  614MOL0     H80983   2.437   8.725   9.107 -0.6552 -0.1930 -0.5375
  614MOL0     H80984   2.272   8.633   9.256  0.6015 -2.2116  2.8992
  614MOL0     H80985   1.989   8.793   9.430  0.4073  0.4544 -0.9488
  614MOL0     H80986   2.093   8.922   9.439  0.5051 -0.0570  0.6367
  614MOL0     H80987   2.153   8.858   9.682  0.6038  1.2104 -2.1818
  614MOL0     H80988   2.025   8.725   9.668 -1.5419  1.1178  3.9904
  614MOL0     H80989   1.848   8.853   9.649  0.6510  0.0649  0.4810
  614MOL0     H80990   1.938   8.994   9.592  0.3529  1.3804  0.8753
  614MOL0     H80991   1.958   8.902   9.876  0.0597  0.6767  0.1815
  614MOL0     H80992   2.004   9.061   9.806 -0.4984 -0.3407  2.3828
  614MOL0     H80993   1.727   8.940   9.821 -1.4032  0.4548 -0.7804
  614MOL0     H80994   1.761   9.105   9.768 -0.5450  0.3198  1.7082
  614MOL0     H80995   1.890   9.127   9.997 -0.8391  4.2590 -2.9537
  614MOL0     H80996   1.775   9.002  10.045 -1.8556  0.5174 -0.0918
  614MOL0     H80997   1.711   9.225  10.078 -1.7981  0.1899  0.4321
  614MOL0     H80998   1.689   9.265   9.907 -4.0367  0.9756  1.7451
  614MOL0     H80999   1.531   9.090   9.877 -4.2936  0.0648  0.4448
  614MOL0     H81000   1.467   9.207   9.992  1.4197  1.0882  3.8456
  614MOL0     H81001   1.458   9.110  10.258 -1.3960  0.4769 -0.7911
  614MOL0     H81002   1.482   8.884  10.458  2.7290 -0.7051 -0.8318
  614MOL0     H81003   1.462   8.729  10.386 -0.3042  0.6567  0.6112
  614MOL0     H81004   1.275   8.788  10.508 -0.2557 -0.2045 -0.1068
  614MOL0     H81005   1.233   8.769  10.342  0.5402  2.7761 -2.4525
  614MOL0     H81006   1.287   9.050  10.434 -2.1031  0.9924  0.6804
  614MOL0     H81007   1.161   8.988  10.318  0.7325  0.7197 -1.3550
  614MOL0     H81008   1.043   9.079  10.494 -0.3477  0.0101 -0.3869
  614MOL0     H81009   1.132   8.989  10.619 -2.3218 -1.5917 -0.1531
  614MOL0     H81010   0.809   9.032  10.578  0.7116 -0.9887 -1.2129
  614MOL0     H81011   0.662   8.990  10.775  0.6487  2.2252 -2.7900
  614MOL0     H81012   0.453   8.561  11.001 -3.3854  0.1162  1.6571
  614MOL0     H81013   0.303   8.483  11.156 -0.1309  0.2087  0.5453
  614MOL0     H81014   0.224   8.373  11.382 -0.3893 -0.0590 -1.1628
  614MOL0     H81015   0.153   8.531  11.334  0.3279  2.1035  2.0728
  614MOL0     H81016   0.147   8.436  11.626 -1.6363 -1.2765  0.7489
  614MOL0     H81017   0.039   8.361  11.529 -0.4111  0.0253  0.8875
  614MOL0     H81018  -0.061   8.580  11.455 -0.3896 -0.9653  0.4963
  614MOL0     H81019   0.065   8.660  11.560  0.1432  1.4742 -2.7775
  614MOL0     H81020  -0.122   8.452  11.674 -0.6812  0.0352  0.9344
  614MOL0     H81021   0.002   8.556  11.750  1.1121  2.4329 -1.7196
  614MOL0     H81022  -0.141   8.755  11.723 -2.8353  1.8859 -1.5389
  614MOL0     H81023  -0.246   8.637  11.784  0.9134 -1.6454 -0.1827
  614MOL0     H81024  -0.316   8.567  11.558  0.5348  0.8755 -1.7520
  614MOL0     H81025  -0.254   8.731  11.510  2.3030  1.8384  2.1829
  614MOL0     H81026  -0.460   8.668  11.730 -1.1220 -0.2801 -1.0944
  614MOL0     H81027  -0.391   8.827  11.680  0.2692 -1.7395  4.6930
  614MOL0     H81028  -0.468   8.775  11.433  0.5543 -0.8049 -0.5333
  614MOL0     H81029  -0.594   8.812  11.557  1.3090  2.5007  0.0657
  614MOL0     H81030   0.539   8.680  11.464  1.0691  3.3922 -1.0699
  614MOL0     H81031   0.716   8.728  11.290  0.7136 -0.7863 -0.0008
  614MOL0     H81032   0.897   8.644  10.866  1.8977  1.9826  1.1221
  614MOL0     H81033   1.033   8.675  10.681 -1.1377 -0.2692 -1.3854
  614MOL0     H81034   2.350   8.940   9.544  0.7421  3.3194 -0.0976
  614MOL0     H81035   2.531   9.019   9.409  1.4832 -0.2810 -0.2764
  614MOL0     H81036   2.568   9.159   8.824 -1.1737 -0.7569  3.1618
  614MOL0     H81037   2.759   9.212   8.689 -2.2460 -0.7266 -0.3168
  614MOL0     H81038   3.157   9.007   8.772 -1.3350  0.0348 -0.3912
  614MOL0     H81039   3.163   9.139   8.895 -3.1322  1.7063 -0.3103
  614MOL0     H81040   3.241   9.287   8.687 -1.2955  0.5341  3.3065
  614MOL0     H81041   3.358   9.173   8.761  0.2500 -2.1768 -0.5425
  614MOL0     H81042   3.183   9.120   8.508  2.1917 -3.2040 -3.9704
  614MOL0     H81043   3.304   9.014   8.593 -0.7496  0.1791  3.1397
  614MOL0     H81044   3.382   9.284   8.477  0.6015 -0.1323 -1.4085
  614MOL0     H81045   3.480   9.163   8.541 -0.7200  1.0701  0.6501
  614MOL0     H81046   3.464   9.040   8.147  4.1695  2.6639  0.6891
  614MOL0     H81047   3.018   9.032   8.994 -1.4563 -0.8707  0.8267
  614MOL0     H81048   2.828   8.972   9.112 -0.0458  1.3815  0.3143
  615MOL0     O81049   1.495   3.302   0.225 -0.5991  0.4887  0.8984
  615MOL0     C81050   1.517   3.188   0.253 -0.0616  0.9124 -0.0961
  615MOL0     O81051   1.417   3.096   0.275 -0.1212 -0.0781  0.0061
  615MOL0     C81052   1.290   3.138   0.236  0.2041 -0.1949 -0.7161
  615MOL0     C81053   1.241   3.113   0.107  0.2435 -0.6515 -0.0766
  615MOL0     C81054   1.116   3.155   0.076  0.3532 -0.1241  0.0052
  615MOL0     C81055   1.035   3.227   0.162  0.2736  0.4375  0.1859
  615MOL0     O81056   0.915   3.279   0.140 -0.1086 -0.0329  0.7573
  615MOL0     C81057   0.862   3.257   0.005  0.8356  0.1292  1.0304
  615MOL0     C81058   0.723   3.314  -0.016 -0.0314 -0.2001  0.2376
  615MOL0     C81059   0.628   3.216   0.060  0.2635 -0.1117  0.3012
  615MOL0     C81060   0.498   3.285   0.101 -0.2890 -0.5754  0.2906
  615MOL0     C81061   0.391   3.188   0.128  0.6334  0.1058 -0.1124
  615MOL0     C81062   0.258   3.255   0.153  0.2828  0.6370  0.1118
  615MOL0     C81063   0.140   3.165   0.114 -0.1782 -0.0850 -0.4637
  615MOL0     C81064   0.007   3.242   0.114  0.0639  0.0436  0.1709
  615MOL0     N81065  -0.111   3.154   0.113  0.3622 -0.7156  0.3952
  615MOL0     C81066  -0.133   3.067   0.009 -0.2091  0.5661 -0.2984
  615MOL0     C81067  -0.261   3.024   0.017  0.8117 -0.7017 -0.2500
  615MOL0     C81068  -0.348   2.937  -0.073  0.4660 -0.7068  0.1055
  615MOL0     C81069  -0.323   2.793  -0.058  0.8516  0.7364  0.1343
  615MOL0     C81070  -0.345   2.751   0.090 -0.0637  1.0140  0.7327
  615MOL0     C81071  -0.480   2.791   0.152 -0.2041 -0.4635  0.2560
  615MOL0     O81072  -0.591   2.756   0.059 -0.5567 -0.2698  0.1930
  615MOL0     C81073  -0.709   2.806   0.113  0.1436 -0.3876 -0.4847
  615MOL0     C81074  -0.736   2.929   0.169 -0.0020 -0.6453  0.2346
  615MOL0     C81075  -0.862   2.961   0.221 -0.5070 -0.0542  0.2396
  615MOL0     C81076  -0.978   2.878   0.202 -0.0071 -0.9528 -0.0191
  615MOL0     C81077  -1.108   2.927   0.216  0.5406  0.3370 -0.3834
  615MOL0     O81078  -1.114   3.066   0.207  0.3756  0.8902 -0.8917
  615MOL0     C81079  -1.232   3.126   0.236  0.1857 -0.8717  0.0873
  615MOL0     C81080  -1.337   3.110   0.141  0.1092  1.3096  0.7388
  615MOL0     C81081  -1.461   3.176   0.152 -0.4728  0.6094  0.5239
  615MOL0     C81082  -1.483   3.264   0.255 -0.2820  0.0186 -0.3546
  615MOL0     O81083  -1.608   3.330   0.255  0.4869 -0.0621  0.3626
  615MOL0     C81084  -1.641   3.406   0.375  0.6230  0.1132  0.1840
  615MOL0     C81085  -1.791   3.425   0.372 -0.1031 -0.2559  0.5722
  615MOL0     C81086  -1.830   3.497   0.497  0.1005  0.0146  0.1902
  615MOL0     C81087  -1.980   3.498   0.506  1.2513  0.6735  0.4410
  615MOL0     C81088  -2.018   3.551   0.645 -0.2197  0.3971 -0.2229
  615MOL0     C81089  -2.162   3.514   0.683 -0.9457 -0.5822  0.6953
  615MOL0     C81090  -2.218   3.599   0.806 -0.6581 -0.5384  1.2352
  615MOL0     C81091  -2.244   3.500   0.918  0.2741 -0.3386 -0.0135
  615MOL0    Cl81092  -2.383   3.384   0.876  0.1047 -0.2700 -0.4355
  615MOL0     C81093  -1.376   3.285   0.352 -0.4717  1.0319  0.0152
  615MOL0     C81094  -1.260   3.210   0.342 -0.3861 -0.1740  0.1084
  615MOL0     O81095  -1.201   2.855   0.249  0.0089  0.6113 -0.2107
  615MOL0     C81096  -0.951   2.753   0.147 -0.6424  0.1165 -0.5378
  615MOL0     C81097  -0.819   2.722   0.110 -0.1117  0.6080  0.4380
  615MOL0     N81098  -0.319   3.090   0.128 -0.3642  0.7392 -0.4865
  615MOL0     N81099  -0.228   3.179   0.172  0.2377  0.8950 -0.9864
  615MOL0     C81100   1.085   3.249   0.286 -0.1623 -0.4420  0.1635
  615MOL0     C81101   1.208   3.210   0.330 -0.9205  0.8261 -0.2010
  615MOL0     C81102   1.654   3.149   0.297 -1.3201  0.0356  0.6250
  615MOL0     C81103   1.683   3.032   0.374  0.6296 -0.8820  0.3029
  615MOL0     C81104   1.814   3.007   0.423 -0.0894 -0.1104 -0.4348
  615MOL0     C81105   1.915   3.101   0.416 -0.7996  0.2110  0.1307
  615MOL0     O81106   2.041   3.074   0.467  0.0021 -0.1556  0.6332
  615MOL0     C81107   2.136   3.182   0.471 -0.9618 -0.3527 -0.5262
  615MOL0     C81108   2.226   3.141   0.583 -0.2010  0.6894 -0.3271
  615MOL0     C81109   2.281   2.993   0.572  0.2049  0.4772 -0.2921
  615MOL0     C81110   2.425   2.974   0.613 -1.0363 -0.2657  0.2182
  615MOL0     C81111   2.523   3.048   0.536 -0.6507 -0.1479  0.3955
  615MOL0     C81112   2.593   3.111   0.456  0.2696  0.3272  0.7291
  615MOL0     C81113   1.887   3.213   0.339  0.3004 -0.3427 -0.5128
  615MOL0     C81114   1.762   3.238   0.274 -0.6861  0.8456  0.8975
  615MOL0     H81115   1.313   3.079   0.033  1.3861  1.7805 -0.1651
  615MOL0     H81116   1.079   3.134  -0.024  1.2200 -1.5584 -0.0435
  615MOL0     H81117   0.849   3.150  -0.014  2.1064  0.2416 -0.7123
  615MOL0     H81118   0.932   3.293  -0.071  0.0092 -1.4439 -0.5750
  615MOL0     H81119   0.689   3.327  -0.119  0.6235 -0.4024 -0.0146
  615MOL0     H81120   0.724   3.414   0.028  2.6091  0.6110 -1.4061
  615MOL0     H81121   0.681   3.186   0.151  0.9530  2.7149  0.9411
  615MOL0     H81122   0.608   3.130  -0.004  0.1049  1.3797 -1.7429
  615MOL0     H81123   0.512   3.349   0.188 -0.4241  0.3350 -0.3414
  615MOL0     H81124   0.465   3.342   0.014  0.1005 -2.6773 -1.3260
  615MOL0     H81125   0.423   3.126   0.213 -0.1411  0.6687  0.6060
  615MOL0     H81126   0.378   3.126   0.039 -3.6131  0.4149  0.0943
  615MOL0     H81127   0.256   3.349   0.097 -2.9912 -0.2602 -1.4844
  615MOL0     H81128   0.251   3.279   0.260  1.3071 -1.2136  0.6439
  615MOL0     H81129   0.164   3.120   0.017 -0.3287  0.7895 -0.9155
  615MOL0     H81130   0.145   3.085   0.188  0.2862  0.7693  0.4612
  615MOL0     H81131  -0.001   3.319   0.038  1.6516  1.2915  1.2064
  615MOL0     H81132   0.004   3.294   0.210 -1.1032  0.0711  0.1290
  615MOL0     H81133  -0.058   3.048  -0.067  4.2997  2.6272  3.1429
  615MOL0     H81134  -0.331   2.974  -0.174 -1.1628  3.2133  1.0793
  615MOL0     H81135  -0.452   2.964  -0.049  0.3465 -2.1586  1.3585
  615MOL0     H81136  -0.226   2.766  -0.101 -0.3918 -0.4194 -2.1242
  615MOL0     H81137  -0.386   2.730  -0.121  1.4792  0.1193  0.1103
  615MOL0     H81138  -0.337   2.643   0.104  1.1868  1.0642  0.5228
  615MOL0     H81139  -0.261   2.788   0.150 -1.1768  1.3222  2.1430
  615MOL0     H81140  -0.476   2.895   0.185  3.6103  0.7292 -3.1071
  615MOL0     H81141  -0.491   2.740   0.248  0.2439  0.0637  0.5848
  615MOL0     H81142  -0.659   3.005   0.179  0.3815 -1.1326  1.1155
  615MOL0     H81143  -0.860   3.058   0.269  1.1278  2.3829 -4.1228
  615MOL0     H81144  -1.314   3.044   0.058  1.7084 -1.2729  3.0667
  615MOL0     H81145  -1.535   3.164   0.073  0.6945 -1.1211 -0.3658
  615MOL0     H81146  -1.583   3.498   0.386  1.2504 -0.4555  2.0830
  615MOL0     H81147  -1.627   3.347   0.467 -3.5114 -1.8462 -0.2257
  615MOL0     H81148  -1.855   3.336   0.364 -2.0916  1.1463  0.1331
  615MOL0     H81149  -1.827   3.481   0.285  0.1535  1.6532  1.6527
  615MOL0     H81150  -1.802   3.602   0.482 -3.1970  0.9259 -0.4365
  615MOL0     H81151  -1.776   3.445   0.577  0.7170 -1.0551 -0.8966
  615MOL0     H81152  -2.027   3.559   0.428  0.9284  2.2538  1.8081
  615MOL0     H81153  -2.011   3.393   0.504 -1.1365  1.3261 -0.1243
  615MOL0     H81154  -2.001   3.658   0.626  1.2813 -0.0395 -1.5782
  615MOL0     H81155  -1.954   3.511   0.723  3.1258  1.7630 -2.0693
  615MOL0     H81156  -2.163   3.406   0.700 -3.2419 -0.6294  0.5583
  615MOL0     H81157  -2.237   3.527   0.604 -0.9287 -0.1887  0.7383
  615MOL0     H81158  -2.135   3.659   0.845 -0.2932  0.1691 -0.5067
  615MOL0     H81159  -2.307   3.657   0.780  0.1387  0.5956  0.9195
  615MOL0     H81160  -2.264   3.558   1.009  1.8725 -1.3454  1.0198
  615MOL0     H81161  -2.156   3.441   0.944 -0.3754  0.0668  3.6904
  615MOL0     H81162  -1.379   3.354   0.435  1.2911  1.0945  0.0468
  615MOL0     H81163  -1.188   3.229   0.421 -1.5726  3.6559  0.4610
  615MOL0     H81164  -1.029   2.682   0.126 -2.9694  2.2770  0.2630
  615MOL0     H81165  -0.799   2.622   0.073 -1.6027 -0.4571  2.3173
  615MOL0     H81166   1.034   3.314   0.356  3.9244  2.5790  0.6876
  615MOL0     H81167   1.242   3.232   0.431  2.0109  1.1217 -1.1597
  615MOL0     H81168   1.601   2.962   0.388 -2.2317  2.6517  3.4856
  615MOL0     H81169   1.842   2.917   0.477  2.2363 -0.1196 -1.5328
  615MOL0     H81170   2.082   3.275   0.491  1.4365  1.4021 -1.7059
  615MOL0     H81171   2.199   3.186   0.381  0.4401 -2.1605  0.3092
  615MOL0     H81172   2.308   3.214   0.582 -0.1236  0.6011 -0.9564
  615MOL0     H81173   2.169   3.156   0.675 -1.3863  1.4862 -1.1713
  615MOL0     H81174   2.275   2.966   0.466 -1.0621  2.7675 -0.8737
  615MOL0     H81175   2.205   2.935   0.625 -2.1943  1.8340 -2.0023
  615MOL0     H81176   2.436   2.994   0.720  2.3013 -0.9830  0.1188
  615MOL0     H81177   2.439   2.865   0.604 -3.0992 -0.4478 -1.3437
  615MOL0     H81178   2.648   3.171   0.387 -0.5784  2.5259  1.8725
  615MOL0     H81179   1.967   3.283   0.315  0.2433  0.0330  0.3514
  615MOL0     H81180   1.744   3.315   0.200 -2.7652  0.3915  0.8849
  616MOL0     O81181   8.010   9.495   2.036 -0.0793 -0.2714  0.3712
  616MOL0     C81182   7.974   9.472   2.152  0.6425  0.3985 -1.1211
  616MOL0     O81183   7.849   9.457   2.196  0.1575 -0.1624  0.6641
  616MOL0     C81184   7.744   9.497   2.114  0.2475  0.3542  0.2770
  616MOL0     C81185   7.659   9.591   2.169  0.5965  0.4033  0.1646
  616MOL0     C81186   7.561   9.660   2.096 -0.6296  0.0387  0.3051
  616MOL0     C81187   7.552   9.630   1.958 -0.4211 -0.3950 -0.1887
  616MOL0     O81188   7.476   9.700   1.870  0.0401  0.3448  0.1359
  616MOL0     C81189   7.420   9.638   1.758 -0.1641 -0.3427  0.4801
  616MOL0     C81190   7.305   9.726   1.701 -0.4497 -0.1369  0.4182
  616MOL0     C81191   7.277   9.677   1.555  0.7936 -0.1037  0.0196
  616MOL0     C81192   7.154   9.758   1.487 -0.1576 -0.0805  0.5424
  616MOL0     C81193   7.134   9.708   1.342 -0.0936  0.8827  0.4560
  616MOL0     C81194   7.027   9.793   1.277 -0.1449 -0.9155  0.1643
  616MOL0     C81195   7.003   9.732   1.135  0.8038 -0.0546 -0.7803
  616MOL0     C81196   6.922   9.832   1.054  0.3552  0.2892 -0.1913
  616MOL0     N81197   6.857   9.774   0.933  0.9017 -0.1491  0.5208
  616MOL0     C81198   6.933   9.726   0.830 -0.1984  0.4945  0.5276
  616MOL0     C81199   6.838   9.712   0.728  0.0482 -0.2671  0.9367
  616MOL0     C81200   6.859   9.656   0.582  0.4725 -0.0468 -0.6083
  616MOL0     C81201   6.724   9.653   0.506 -0.5522 -0.4071  0.0190
  616MOL0     C81202   6.634   9.545   0.559  0.1433 -0.3767  0.0293
  616MOL0     C81203   6.496   9.562   0.500  0.3857  0.0249 -0.4351
  616MOL0     O81204   6.418   9.464   0.569 -0.0284  0.7179 -0.0068
  616MOL0     C81205   6.285   9.464   0.548  0.3493 -0.1532 -0.5663
  616MOL0     C81206   6.221   9.424   0.662  0.1541 -0.5691 -0.5345
  616MOL0     C81207   6.080   9.400   0.659 -0.0660  0.3330 -0.5186
  616MOL0     C81208   6.007   9.438   0.547 -0.1719 -0.6476 -0.4652
  616MOL0     C81209   5.859   9.412   0.549 -0.0226 -1.4884 -0.2248
  616MOL0     O81210   5.806   9.361   0.664  0.1318 -0.3232 -0.0136
  616MOL0     C81211   5.672   9.332   0.671  0.0742 -0.1809 -1.3956
  616MOL0     C81212   5.635   9.219   0.758  0.1840 -0.3399 -0.3218
  616MOL0     C81213   5.501   9.187   0.776  0.4879 -0.3230 -0.2170
  616MOL0     C81214   5.397   9.263   0.722 -0.5287  0.7574 -0.1424
  616MOL0     O81215   5.274   9.237   0.747  0.3015  0.8417  0.5276
  616MOL0     C81216   5.246   9.218   0.890  1.0494  0.3202  0.3191
  616MOL0     C81217   5.097   9.192   0.912  0.9975 -0.4703  0.0989
  616MOL0     C81218   5.024   9.329   0.882  0.6191 -0.5816  0.3223
  616MOL0     C81219   4.869   9.327   0.902  0.2948  0.5750 -0.1170
  616MOL0     C81220   4.819   9.188   0.947  0.5229  0.4654 -0.5943
  616MOL0     C81221   4.665   9.181   0.945 -0.0887 -0.5229  0.0345
  616MOL0     C81222   4.606   9.264   1.073  0.1399 -0.7990 -0.1123
  616MOL0     C81223   4.464   9.228   1.086  0.2761  0.4749  0.8999
  616MOL0    Cl81224   4.434   9.064   1.123 -0.3249 -0.3796 -0.5176
  616MOL0     C81225   5.425   9.369   0.637  0.6233 -0.5134 -0.0433
  616MOL0     C81226   5.558   9.408   0.614 -0.2481  0.0670  0.9626
  616MOL0     O81227   5.798   9.435   0.447 -0.4026 -0.1654 -0.5787
  616MOL0     C81228   6.070   9.504   0.440  0.3534  0.1257  0.2834
  616MOL0     C81229   6.209   9.507   0.439 -0.9122  0.2457 -0.5293
  616MOL0     N81230   6.712   9.754   0.782 -0.4071  0.3026 -0.2165
  616MOL0     N81231   6.730   9.791   0.903 -0.1399 -0.3960 -0.2900
  616MOL0     C81232   7.640   9.537   1.902 -0.1629  0.1698  1.0527
  616MOL0     C81233   7.732   9.467   1.979  0.1896  0.0101  0.7115
  616MOL0     C81234   8.078   9.460   2.258 -0.3361  0.5973 -0.8380
  616MOL0     C81235   8.047   9.426   2.390  0.6124 -0.5938 -0.5977
  616MOL0     C81236   8.126   9.440   2.495 -0.5964 -1.4958  0.4878
  616MOL0     C81237   8.258   9.488   2.480 -0.3480 -0.7597  0.3517
  616MOL0     O81238   8.345   9.521   2.586  1.0325 -0.6306  0.1136
  616MOL0     C81239   8.283   9.576   2.709  0.4187  0.0730 -0.2701
  616MOL0     C81240   8.297   9.477   2.827  0.5986  1.2183 -0.2522
  616MOL0     C81241   8.443   9.477   2.893 -0.0860 -1.0624 -0.1517
  616MOL0     C81242   8.478   9.341   2.961  0.5881  0.1482  1.0259
  616MOL0     C81243   8.444   9.219   2.881 -0.9495 -0.4784  0.4586
  616MOL0     C81244   8.416   9.119   2.836 -0.1838  0.6767  0.5792
  616MOL0     C81245   8.300   9.509   2.344  1.1559  0.9040  0.2910
  616MOL0     C81246   8.212   9.499   2.233  0.3986 -0.3468 -0.0328
  616MOL0     H81247   7.669   9.613   2.275  0.6510 -1.8200  0.6728
  616MOL0     H81248   7.502   9.734   2.149  0.6714  0.3497  1.3723
  616MOL0     H81249   7.381   9.536   1.767 -1.7319  0.1684 -0.1749
  616MOL0     H81250   7.502   9.641   1.685  1.8398  0.8639  2.6356
  616MOL0     H81251   7.332   9.832   1.707  2.1396 -0.8074  1.8117
  616MOL0     H81252   7.215   9.716   1.762  0.1367 -0.1362  1.2922
  616MOL0     H81253   7.274   9.567   1.548  4.0406 -0.2293 -0.9617
  616MOL0     H81254   7.361   9.688   1.486  0.4137  1.1895 -0.2530
  616MOL0     H81255   7.059   9.747   1.541 -1.2542  0.1347 -1.2381
  616MOL0     H81256   7.185   9.862   1.473 -0.8461 -0.2692 -3.9548
  616MOL0     H81257   7.108   9.602   1.338 -0.3290  0.9387  0.4770
  616MOL0     H81258   7.219   9.711   1.272 -1.3979  1.5641 -1.1679
  616MOL0     H81259   7.042   9.901   1.274  0.8383 -1.0444 -2.0690
  616MOL0     H81260   6.940   9.783   1.342 -0.3752 -1.0812 -0.1652
  616MOL0     H81261   7.103   9.717   1.093  3.0230  0.7083  3.6297
  616MOL0     H81262   6.943   9.641   1.150  0.0291  0.5122 -0.3566
  616MOL0     H81263   6.979   9.918   1.017 -0.1780  0.3780 -0.8373
  616MOL0     H81264   6.848   9.881   1.118  0.0244  3.4310 -2.6989
  616MOL0     H81265   7.038   9.700   0.821  0.1655  1.1961  2.1986
  616MOL0     H81266   6.906   9.557   0.588 -2.7147 -1.6545  1.4467
  616MOL0     H81267   6.920   9.729   0.531  2.5213 -3.0338 -2.7563
  616MOL0     H81268   6.736   9.631   0.399 -1.8762  0.8650 -0.4242
  616MOL0     H81269   6.666   9.745   0.516 -1.2001 -0.6433 -1.3254
  616MOL0     H81270   6.664   9.441   0.542 -3.4447 -1.5496  0.0320
  616MOL0     H81271   6.625   9.550   0.668 -0.6084  0.5532 -0.0599
  616MOL0     H81272   6.495   9.527   0.396  0.4054  0.6341 -0.6452
  616MOL0     H81273   6.469   9.667   0.514  2.8414  0.5196  1.1540
  616MOL0     H81274   6.269   9.406   0.757 -2.0088 -3.7929  0.1295
  616MOL0     H81275   6.033   9.367   0.751 -1.3012 -1.6402 -1.7658
  616MOL0     H81276   5.708   9.160   0.811 -2.0005 -0.9564  2.2014
  616MOL0     H81277   5.489   9.122   0.862  1.3914 -2.3141 -1.5186
  616MOL0     H81278   5.281   9.302   0.950 -0.4748  1.0636  0.2289
  616MOL0     H81279   5.292   9.130   0.936  1.3245 -0.0473 -0.6549
  616MOL0     H81280   5.084   9.166   1.017  2.2673  0.9336  0.6353
  616MOL0     H81281   5.067   9.113   0.842  1.7944  0.6209 -1.5307
  616MOL0     H81282   5.040   9.353   0.776  0.6465 -1.1725  0.1908
  616MOL0     H81283   5.055   9.420   0.934 -0.2084 -0.0119 -0.1416
  616MOL0     H81284   4.822   9.402   0.965 -1.6263 -0.7212  0.0857
  616MOL0     H81285   4.811   9.347   0.812 -2.2296  0.9276  1.5002
  616MOL0     H81286   4.850   9.156   1.047 -0.5946  0.8178 -0.1133
  616MOL0     H81287   4.855   9.104   0.888  3.4533 -0.2760  1.9835
  616MOL0     H81288   4.642   9.076   0.964 -1.6740  0.2758  3.2264
  616MOL0     H81289   4.625   9.216   0.849 -1.7215  0.0224  0.8678
  616MOL0     H81290   4.663   9.251   1.165  0.5976 -1.1961 -0.4462
  616MOL0     H81291   4.613   9.371   1.052 -3.6332  0.5558  3.9435
  616MOL0     H81292   4.407   9.250   0.995 -0.0143  2.7726  1.5696
  616MOL0     H81293   4.417   9.283   1.168  1.5148  1.9440  0.6814
  616MOL0     H81294   5.340   9.421   0.593  0.0505 -2.1689 -0.9542
  616MOL0     H81295   5.577   9.492   0.547 -1.7044  1.6028  2.3694
  616MOL0     H81296   6.011   9.549   0.360 -0.2999 -1.5547 -0.2266
  616MOL0     H81297   6.266   9.551   0.358  0.0300  0.0511  0.0198
  616MOL0     H81298   7.639   9.518   1.795  2.6119  0.3037  0.9423
  616MOL0     H81299   7.796   9.386   1.942 -0.7222 -0.4404  0.0711
  616MOL0     H81300   7.950   9.381   2.413  1.1045 -1.8298 -0.8913
  616MOL0     H81301   8.088   9.423   2.595  1.9246  3.7048  2.6920
  616MOL0     H81302   8.177   9.594   2.687  0.6952  1.3775 -0.5598
  616MOL0     H81303   8.329   9.668   2.745  0.3977 -0.6548  1.7427
  616MOL0     H81304   8.222   9.494   2.905 -2.1890  0.1431 -2.4879
  616MOL0     H81305   8.274   9.383   2.775  0.9694  1.0790 -0.1652
  616MOL0     H81306   8.444   9.546   2.978  0.5723 -3.8984  2.3199
  616MOL0     H81307   8.514   9.504   2.814 -2.1036 -1.7791 -2.3443
  616MOL0     H81308   8.585   9.351   2.980  0.8504  1.1611 -0.7829
  616MOL0     H81309   8.436   9.337   3.063  0.3394  0.4813  0.9375
  616MOL0     H81310   8.389   9.016   2.821  1.0355  0.0830  2.0849
  616MOL0     H81311   8.399   9.549   2.324  1.5561  1.4804  3.0008
  616MOL0     H81312   8.245   9.527   2.134  1.6965  3.0699  1.2179
  617MOL0     O81313   8.780   3.809   0.730 -0.3965  0.1023  0.4242
  617MOL0     C81314   8.780   3.792   0.610  1.1385 -0.6085  0.3086
  617MOL0     O81315   8.669   3.763   0.532 -0.0564  0.6578  0.7554
  617MOL0     C81316   8.548   3.733   0.589 -0.8313  0.6853  0.1207
  617MOL0     C81317   8.438   3.814   0.577  0.5221  1.1293 -0.4625
  617MOL0     C81318   8.316   3.777   0.640  0.4968  0.7038 -0.6034
  617MOL0     C81319   8.308   3.660   0.720  0.1782 -0.2004 -0.5811
  617MOL0     O81320   8.195   3.606   0.783  0.2426 -0.0140 -0.5757
  617MOL0     C81321   8.092   3.690   0.834 -0.0754  0.3664 -0.1399
  617MOL0     C81322   8.014   3.613   0.936  0.0331 -0.1378 -0.7289
  617MOL0     C81323   7.955   3.488   0.870 -0.3297 -0.1073  0.4148
  617MOL0     C81324   7.869   3.407   0.969  0.0153 -0.2906  0.4896
  617MOL0     C81325   7.828   3.275   0.898  0.5283 -0.7568 -0.4743
  617MOL0     C81326   7.785   3.184   1.003  1.6879  0.4646 -0.1580
  617MOL0     C81327   7.742   3.047   0.946 -0.5661  0.2435  0.2561
  617MOL0     C81328   7.673   2.961   1.056 -0.0761  0.0836  0.2249
  617MOL0     N81329   7.541   3.006   1.102 -1.4040 -0.7562 -0.3315
  617MOL0     C81330   7.447   3.061   1.025 -0.0480  0.0306  0.6177
  617MOL0     C81331   7.352   3.106   1.100 -0.5712 -0.4493  0.2685
  617MOL0     C81332   7.229   3.189   1.074  0.1698 -0.5786  0.1116
  617MOL0     C81333   7.101   3.118   1.019  0.0683  0.4516  0.1643
  617MOL0     C81334   6.969   3.203   1.019 -0.4772 -0.0466  0.1327
  617MOL0     C81335   6.853   3.118   0.966 -0.1068  0.0960 -0.4496
  617MOL0     O81336   6.748   3.211   0.945 -0.1643  0.0639 -0.3177
  617MOL0     C81337   6.637   3.165   0.886 -0.3148  0.1664  0.6116
  617MOL0     C81338   6.537   3.261   0.849  0.6830  0.2438 -0.3677
  617MOL0     C81339   6.407   3.211   0.813  0.1838  0.0265 -0.9252
  617MOL0     C81340   6.374   3.075   0.811 -0.3929 -0.3749  0.4347
  617MOL0     C81341   6.238   3.028   0.791 -0.3730 -1.2413 -0.2391
  617MOL0     O81342   6.148   3.124   0.751  0.2855 -0.1116 -1.0649
  617MOL0     C81343   6.011   3.105   0.745  0.1170 -1.9930  0.8640
  617MOL0     C81344   5.946   2.980   0.731  0.5756  0.3719  0.6487
  617MOL0     C81345   5.808   2.983   0.704  0.5587 -0.5389 -0.4594
  617MOL0     C81346   5.739   3.103   0.678 -0.7978  0.5522 -0.8118
  617MOL0     O81347   5.605   3.106   0.639 -0.6163  0.1340 -0.0639
  617MOL0     C81348   5.575   3.188   0.525  0.0295 -0.1054 -0.8763
  617MOL0     C81349   5.451   3.143   0.454  0.8282  0.6424  0.8426
  617MOL0     C81350   5.325   3.178   0.526 -0.0193  0.0890 -1.0378
  617MOL0     C81351   5.196   3.202   0.438 -0.2303 -0.2105  0.3675
  617MOL0     C81352   5.082   3.252   0.533 -0.8634  0.8296 -0.0556
  617MOL0     C81353   4.949   3.249   0.466  0.5620  0.2683 -0.8392
  617MOL0     C81354   4.849   3.327   0.552 -0.4848  0.2673 -0.0432
  617MOL0     C81355   4.698   3.306   0.507 -0.5133 -0.2292 -0.7492
  617MOL0    Cl81356   4.685   3.386   0.345 -0.6013 -0.2197  0.8189
  617MOL0     C81357   5.796   3.223   0.712  0.0326 -0.5271  0.6228
  617MOL0     C81358   5.933   3.227   0.730 -0.1674 -0.2659  0.4750
  617MOL0     O81359   6.210   2.912   0.829 -0.1744 -0.1964  0.4718
  617MOL0     C81360   6.480   2.992   0.825 -0.2603  0.5799  0.4677
  617MOL0     C81361   6.607   3.026   0.870  0.9792  0.2007  0.6066
  617MOL0     N81362   7.392   3.082   1.228 -0.0348  0.5611 -0.3821
  617MOL0     N81363   7.509   3.032   1.232 -0.3861  0.4425 -0.0678
  617MOL0     C81364   8.425   3.574   0.722  0.5702  0.0588  0.0529
  617MOL0     C81365   8.541   3.608   0.655 -0.3327 -0.8285  0.4419
  617MOL0     C81366   8.907   3.814   0.543  0.0936  0.0617 -0.9681
  617MOL0     C81367   9.018   3.879   0.601  0.5666 -0.0947 -0.0907
  617MOL0     C81368   9.138   3.898   0.535  0.0391 -0.3235 -0.1810
  617MOL0     C81369   9.154   3.845   0.408 -0.3636  0.5490 -0.4869
  617MOL0     O81370   9.267   3.868   0.326 -0.3036  0.4093 -0.6997
  617MOL0     C81371   9.381   3.933   0.382  0.0764  0.3186 -0.3727
  617MOL0     C81372   9.499   3.933   0.283  0.7442 -0.2047  0.4175
  617MOL0     C81373   9.513   3.795   0.227 -0.5649 -0.3220  0.1345
  617MOL0     C81374   9.619   3.805   0.115  0.1568 -1.4758  0.5858
  617MOL0     C81375   9.651   3.671   0.065 -0.6794  0.6057  0.5794
  617MOL0     C81376   9.663   3.564   0.013  0.1262 -0.1331 -1.1917
  617MOL0     C81377   9.047   3.770   0.355  0.5279 -0.0432 -0.4617
  617MOL0     C81378   8.922   3.754   0.418 -0.7719 -0.1761 -0.1006
  617MOL0     H81379   8.443   3.906   0.518 -0.7851 -0.3345 -3.0496
  617MOL0     H81380   8.222   3.832   0.635 -0.8248 -1.2501  0.8765
  617MOL0     H81381   8.021   3.722   0.757 -0.7026 -0.3764  0.1212
  617MOL0     H81382   8.142   3.777   0.878 -0.5135  1.0223 -0.9114
  617MOL0     H81383   7.930   3.678   0.963  1.4828  1.7355 -0.6103
  617MOL0     H81384   8.082   3.595   1.020  4.6503  2.4492 -3.4895
  617MOL0     H81385   8.034   3.430   0.823  0.5276  1.6154 -0.3500
  617MOL0     H81386   7.885   3.536   0.801  2.7614  3.0310 -0.8113
  617MOL0     H81387   7.925   3.388   1.061 -0.1558  3.1330  1.4318
  617MOL0     H81388   7.781   3.458   1.008  0.2960 -0.2129  1.0236
  617MOL0     H81389   7.910   3.246   0.832  1.4476  2.1842 -0.7544
  617MOL0     H81390   7.740   3.292   0.836  0.4421  1.6918  0.2315
  617MOL0     H81391   7.708   3.233   1.064  0.4294 -1.0042 -0.5217
  617MOL0     H81392   7.869   3.165   1.070 -0.0512 -2.4657  1.4051
  617MOL0     H81393   7.677   3.057   0.859  0.7976  0.5711 -0.7590
  617MOL0     H81394   7.831   3.002   0.901 -0.0854 -0.1445  1.5422
  617MOL0     H81395   7.748   2.951   1.135 -0.6274  0.4348  0.8049
  617MOL0     H81396   7.649   2.864   1.012 -2.1439  0.9265 -0.6582
  617MOL0     H81397   7.458   3.069   0.918  5.1265  3.9767  1.0695
  617MOL0     H81398   7.252   3.269   1.003  1.7968 -1.4919 -0.4478
  617MOL0     H81399   7.209   3.231   1.173  3.2297  0.2250  0.4834
  617MOL0     H81400   7.100   3.025   1.078  4.3275  1.6979  2.6479
  617MOL0     H81401   7.120   3.085   0.917  1.5833  2.3576 -0.2340
  617MOL0     H81402   6.947   3.249   1.116  2.0570 -1.3714  1.4257
  617MOL0     H81403   6.983   3.288   0.951 -1.4744  1.6282  1.9197
  617MOL0     H81404   6.819   3.036   1.029 -2.4198  0.8384 -0.6283
  617MOL0     H81405   6.885   3.077   0.870  2.7047 -2.1584  1.2997
  617MOL0     H81406   6.545   3.367   0.866 -0.3532  0.5172 -1.4625
  617MOL0     H81407   6.325   3.281   0.798 -2.4266 -2.2702  1.3942
  617MOL0     H81408   5.993   2.883   0.728 -3.1094 -1.5987 -2.6538
  617MOL0     H81409   5.748   2.892   0.707 -1.3756  0.7145  2.0264
  617MOL0     H81410   5.656   3.190   0.452 -3.3142 -0.9094 -5.0280
  617MOL0     H81411   5.557   3.287   0.569  1.4693 -0.3899  0.4165
  617MOL0     H81412   5.454   3.034   0.451  0.4019  0.6528 -0.0438
  617MOL0     H81413   5.454   3.178   0.351  0.0068  0.9705  0.9197
  617MOL0     H81414   5.343   3.274   0.574 -1.8553 -1.0813  2.2996
  617MOL0     H81415   5.305   3.094   0.593  1.7157  1.3207  1.1707
  617MOL0     H81416   5.219   3.279   0.365 -0.2149  1.8958  2.4881
  617MOL0     H81417   5.163   3.106   0.397 -0.4180  0.1969 -0.4520
  617MOL0     H81418   5.115   3.345   0.579  1.0333 -0.5571  1.5619
  617MOL0     H81419   5.075   3.176   0.611 -1.2495  1.9870  1.0699
  617MOL0     H81420   4.910   3.147   0.458  0.0640  0.2604  1.2809
  617MOL0     H81421   4.964   3.300   0.370  3.3950  2.9095  0.8439
  617MOL0     H81422   4.861   3.286   0.652 -0.9400  0.3305  0.0381
  617MOL0     H81423   4.859   3.435   0.566 -3.3523  0.5571  0.3437
  617MOL0     H81424   4.640   3.369   0.575  0.6751  1.4540 -1.2247
  617MOL0     H81425   4.670   3.202   0.489 -0.1252 -0.2231 -1.4166
  617MOL0     H81426   5.738   3.313   0.696  1.8520  0.5981  0.0127
  617MOL0     H81427   5.987   3.320   0.715 -2.5081  0.6603 -3.4770
  617MOL0     H81428   6.469   2.886   0.802 -0.2412  0.1732  2.1765
  617MOL0     H81429   6.674   2.947   0.901  0.0969 -0.5482  0.6707
  617MOL0     H81430   8.426   3.483   0.781  2.0585  0.0939  0.1151
  617MOL0     H81431   8.626   3.541   0.653 -0.7023 -1.3184  0.8746
  617MOL0     H81432   9.009   3.919   0.702  0.2478 -0.1044 -0.1145
  617MOL0     H81433   9.211   3.962   0.583  0.4618 -1.3724  0.6065
  617MOL0     H81434   9.408   3.884   0.477  1.6563 -0.3795 -1.1437
  617MOL0     H81435   9.351   4.036   0.404  0.1073  0.3501 -0.4790
  617MOL0     H81436   9.456   3.998   0.206 -0.3967  0.2704  1.4143
  617MOL0     H81437   9.584   3.976   0.337 -1.2624  2.2849  1.8407
  617MOL0     H81438   9.418   3.749   0.197 -1.6803 -0.7681  3.8757
  617MOL0     H81439   9.546   3.733   0.311 -1.1780 -0.8075  0.0265
  617MOL0     H81440   9.577   3.866   0.034  1.9753 -0.0639  0.6327
  617MOL0     H81441   9.706   3.861   0.151 -0.5684  0.1265 -0.0882
  617MOL0     H81442   9.650   3.466  -0.029 -0.6367  0.3025 -1.9995
  617MOL0     H81443   9.054   3.724   0.257 -1.1214 -2.1923  0.3422
  617MOL0     H81444   8.848   3.691   0.371 -3.6648  1.9365  1.2768
  618MOL0     O81445  11.078   0.987   5.985  0.2228 -0.1645 -0.2285
  618MOL0     C81446  11.107   1.107   5.975 -0.0603  0.4293  0.3278
  618MOL0     O81447  11.018   1.211   5.992 -0.3105  0.1749  0.7474
  618MOL0     C81448  10.886   1.187   5.997  0.9227  0.1441 -0.3967
  618MOL0     C81449  10.811   1.269   6.085 -0.6136  0.2513 -1.0888
  618MOL0     C81450  10.674   1.250   6.109  1.4149  0.8109 -0.5682
  618MOL0     C81451  10.603   1.159   6.036 -0.2480 -0.5151 -0.1642
  618MOL0     O81452  10.464   1.166   6.053 -0.3721  0.2000  0.4773
  618MOL0     C81453  10.382   1.072   5.969 -0.9848 -0.7965 -0.2746
  618MOL0     C81454  10.243   1.091   6.013 -0.4321 -0.7998 -0.7180
  618MOL0     C81455  10.218   1.058   6.163  0.0203 -0.2545  0.1642
  618MOL0     C81456  10.066   1.047   6.173  0.0150  0.2432 -0.1307
  618MOL0     C81457  10.041   0.975   6.297  0.7571 -0.2308  0.0306
  618MOL0     C81458   9.896   0.960   6.360 -0.4830  1.8421  0.1194
  618MOL0     C81459   9.823   1.096   6.365 -0.1810 -0.6640  0.2098
  618MOL0     C81460   9.704   1.084   6.460  0.3871 -0.3841  0.2759
  618MOL0     N81461   9.660   1.217   6.498 -0.7885 -0.3148  0.1305
  618MOL0     C81462   9.559   1.286   6.436  0.2713  0.0081 -0.3887
  618MOL0     C81463   9.499   1.352   6.536  0.1314 -0.7793  0.9250
  618MOL0     C81464   9.384   1.454   6.521  0.5895 -0.3537 -0.4241
  618MOL0     C81465   9.320   1.489   6.662 -1.1448 -0.3353 -0.7096
  618MOL0     C81466   9.210   1.594   6.657  0.4586 -0.6241  0.2459
  618MOL0     C81467   9.078   1.554   6.587  0.0320 -0.0757 -0.5113
  618MOL0     O81468   9.012   1.438   6.647 -0.6880  0.8062 -0.0887
  618MOL0     C81469   8.872   1.426   6.633 -0.4276  0.2308 -0.3154
  618MOL0     C81470   8.802   1.357   6.731 -0.5290  0.2030  0.3572
  618MOL0     C81471   8.661   1.349   6.718  0.7092 -0.3902 -0.1218
  618MOL0     C81472   8.600   1.393   6.606 -0.6424  0.1604 -0.1088
  618MOL0     C81473   8.447   1.397   6.616 -0.4174 -0.9321  0.9409
  618MOL0     O81474   8.384   1.300   6.691  0.2448  0.4182 -0.7291
  618MOL0     C81475   8.260   1.255   6.655 -1.0581  0.7830 -0.1418
  618MOL0     C81476   8.138   1.335   6.666  0.1995  0.3577 -1.1606
  618MOL0     C81477   8.011   1.277   6.645 -0.2674 -0.0424 -0.7206
  618MOL0     C81478   7.995   1.142   6.605  0.1676  0.2650  0.8004
  618MOL0     O81479   7.875   1.082   6.576  0.4066 -0.1695 -0.6419
  618MOL0     C81480   7.768   1.175   6.536 -0.0328 -0.6241 -0.1698
  618MOL0     C81481   7.668   1.083   6.470 -0.1667 -0.0522 -0.6987
  618MOL0     C81482   7.536   1.157   6.457 -0.8875 -0.5644  0.5054
  618MOL0     C81483   7.419   1.059   6.425  0.3912  0.7355  0.1018
  618MOL0     C81484   7.277   1.124   6.402 -0.1573 -0.1374 -0.0120
  618MOL0     C81485   7.178   1.010   6.390  0.7177  1.0300 -0.1331
  618MOL0     C81486   7.038   1.077   6.365  0.0780  0.3261  0.0114
  618MOL0     C81487   6.954   0.960   6.321 -0.1962  0.6368 -0.6750
  618MOL0    Cl81488   6.926   0.844   6.453 -0.4193  0.1035 -0.2487
  618MOL0     C81489   8.113   1.057   6.611 -0.1506 -0.1178  0.5679
  618MOL0     C81490   8.247   1.114   6.633  0.9796  0.5892 -0.5018
  618MOL0     O81491   8.390   1.475   6.544  0.3566 -0.5186  0.6514
  618MOL0     C81492   8.680   1.450   6.503  0.0934 -0.7360  0.2444
  618MOL0     C81493   8.814   1.467   6.515  0.7621  0.6512 -0.6560
  618MOL0     N81494   9.573   1.337   6.649  0.0531 -0.4132 -0.6841
  618MOL0     N81495   9.680   1.266   6.619  0.0370  0.5550 -0.3021
  618MOL0     C81496  10.673   1.076   5.945 -0.2854  0.1562  0.3014
  618MOL0     C81497  10.811   1.096   5.925  0.3804  0.0452 -0.8594
  618MOL0     C81498  11.243   1.148   5.941  0.2356 -1.4758 -0.0588
  618MOL0     C81499  11.273   1.291   5.937 -0.0628  0.5784  0.9211
  618MOL0     C81500  11.393   1.335   5.881  0.1828 -0.4715 -0.4004
  618MOL0     C81501  11.498   1.244   5.843  0.0215 -1.1421 -0.5806
  618MOL0     O81502  11.623   1.283   5.783 -0.0080  0.4456  0.3766
  618MOL0     C81503  11.652   1.422   5.787 -1.1554 -0.2857  0.7813
  618MOL0     C81504  11.711   1.445   5.926 -0.6952 -0.2000 -0.3825
  618MOL0     C81505  11.726   1.597   5.962  0.1847 -0.3838 -0.9967
  618MOL0     C81506  11.841   1.664   5.895  0.0672  0.2235  0.3265
  618MOL0     C81507  11.977   1.621   5.923  0.3963 -0.1714 -0.6660
  618MOL0     C81508  12.101   1.596   5.939  0.3689  0.9843 -0.5448
  618MOL0     C81509  11.466   1.109   5.855 -0.6911  0.0446  0.2807
  618MOL0     C81510  11.341   1.062   5.902 -0.6395 -0.1854 -0.4451
  618MOL0     H81511  10.849   1.350   6.146 -4.6609  1.1435  0.5825
  618MOL0     H81512  10.604   1.304   6.172  0.4860 -0.2170 -0.6854
  618MOL0     H81513  10.407   0.969   5.995 -0.9611 -0.5893  0.5581
  618MOL0     H81514  10.398   1.091   5.863 -0.1429  0.8543  0.1030
  618MOL0     H81515  10.179   1.030   5.948  0.0391 -0.0407 -1.9341
  618MOL0     H81516  10.219   1.196   5.995 -4.6203 -1.3238  0.8329
  618MOL0     H81517  10.260   1.136   6.227  0.3518 -0.3778  0.0999
  618MOL0     H81518  10.266   0.962   6.184 -3.1949 -1.7876  1.1304
  618MOL0     H81519  10.019   1.145   6.168  0.7026  0.5640 -0.3866
  618MOL0     H81520  10.026   0.986   6.091  0.0398  0.5639 -0.3839
  618MOL0     H81521  10.089   1.026   6.380  1.6313 -1.1790  0.1242
  618MOL0     H81522  10.089   0.877   6.299 -0.0447 -0.6943  3.3973
  618MOL0     H81523   9.910   0.918   6.460  3.4437  1.5332 -0.3870
  618MOL0     H81524   9.835   0.889   6.304  1.6627  0.9846 -1.2948
  618MOL0     H81525   9.889   1.165   6.419  0.5438 -1.1287 -0.0599
  618MOL0     H81526   9.787   1.121   6.265 -1.4001 -0.0760  0.7813
  618MOL0     H81527   9.734   1.044   6.558 -0.2535  1.1109  1.1244
  618MOL0     H81528   9.622   1.023   6.421  0.8246 -2.8583  2.8728
  618MOL0     H81529   9.520   1.277   6.335 -2.2298  0.0612  0.4961
  618MOL0     H81530   9.308   1.411   6.455 -0.0548 -0.8153  0.5906
  618MOL0     H81531   9.432   1.541   6.475  0.6933  1.2550  2.4498
  618MOL0     H81532   9.409   1.523   6.716 -0.7283 -1.2887 -0.7754
  618MOL0     H81533   9.290   1.401   6.720 -0.9169 -0.0970 -0.2257
  618MOL0     H81534   9.179   1.631   6.755  0.2787  0.1139 -0.0816
  618MOL0     H81535   9.247   1.679   6.599 -0.1167  0.8681  1.9852
  618MOL0     H81536   9.093   1.530   6.482 -2.6000  1.9056 -1.4335
  618MOL0     H81537   9.016   1.643   6.602 -0.2024 -0.7018  3.1284
  618MOL0     H81538   8.856   1.317   6.816 -1.6163 -2.3564 -0.0794
  618MOL0     H81539   8.599   1.295   6.789 -0.5857  0.2347 -0.7227
  618MOL0     H81540   8.147   1.441   6.683 -1.3394  0.1998  1.0511
  618MOL0     H81541   7.935   1.353   6.656 -1.3210 -1.2750  1.0041
  618MOL0     H81542   7.808   1.251   6.468  0.1226 -0.7199 -0.1863
  618MOL0     H81543   7.730   1.213   6.631 -0.2936  0.8331 -0.8224
  618MOL0     H81544   7.651   0.998   6.536  4.0448 -0.4756  0.0886
  618MOL0     H81545   7.699   1.047   6.372 -3.2444 -0.5596 -1.5991
  618MOL0     H81546   7.563   1.215   6.369  0.3869 -0.9039  0.6508
  618MOL0     H81547   7.508   1.209   6.550  0.3304 -0.5450  0.8785
  618MOL0     H81548   7.435   1.001   6.334  1.8669 -1.2370  1.5183
  618MOL0     H81549   7.415   0.986   6.506 -0.0441  1.0446  0.3630
  618MOL0     H81550   7.262   1.190   6.316 -0.0388  0.4829  0.4357
  618MOL0     H81551   7.263   1.181   6.494 -2.4840 -1.1103  0.3100
  618MOL0     H81552   7.173   0.948   6.480  1.0156  0.0161 -0.7953
  618MOL0     H81553   7.213   0.930   6.325 -1.2653 -1.6927  1.9039
  618MOL0     H81554   7.022   1.114   6.467  2.5589 -3.6621  2.0829
  618MOL0     H81555   7.020   1.164   6.301 -1.0710  1.2021  1.4440
  618MOL0     H81556   7.004   0.908   6.238  0.0783 -1.1975  0.5771
  618MOL0     H81557   6.860   0.989   6.274 -1.3788 -0.3021  1.0310
  618MOL0     H81558   8.108   0.954   6.579 -1.4333  0.1618 -0.2261
  618MOL0     H81559   8.337   1.053   6.625 -0.9418 -2.3849 -0.7357
  618MOL0     H81560   8.625   1.504   6.427  0.4624  0.7524  0.9982
  618MOL0     H81561   8.871   1.514   6.436 -1.0428 -0.4357 -2.7024
  618MOL0     H81562  10.624   0.998   5.888  0.5699 -1.4995  1.7383
  618MOL0     H81563  10.861   1.037   5.849  3.8789 -0.4356  1.5731
  618MOL0     H81564  11.195   1.363   5.958  0.8738  1.2298  2.3274
  618MOL0     H81565  11.389   1.444   5.877 -1.8867 -0.4003  1.4993
  618MOL0     H81566  11.565   1.487   5.771  0.5688  1.8577 -0.3474
  618MOL0     H81567  11.722   1.450   5.708 -0.0741 -2.1962  1.0137
  618MOL0     H81568  11.658   1.395   6.008 -1.0109 -1.7821 -1.4989
  618MOL0     H81569  11.805   1.390   5.924 -0.1206  0.6692  0.8408
  618MOL0     H81570  11.728   1.605   6.071  0.1774 -1.0356 -0.9462
  618MOL0     H81571  11.632   1.647   5.940 -0.2732 -0.4829  0.5982
  618MOL0     H81572  11.834   1.668   5.786 -3.0638 -3.8841  0.1447
  618MOL0     H81573  11.843   1.770   5.923  3.2145 -0.4143  3.0946
  618MOL0     H81574  12.203   1.566   5.943 -0.0991 -0.5947  0.1553
  618MOL0     H81575  11.550   1.042   5.835 -1.7622 -0.7590 -1.8085
  618MOL0     H81576  11.319   0.956   5.912 -1.1805  0.0686  1.4808
  619MOL0     O81577   1.732   6.307   1.797  0.4637  0.0638 -0.4119
  619MOL0     C81578   1.767   6.353   1.906  0.1317 -0.9258  0.5122
  619MOL0     O81579   1.695   6.419   1.991  0.3827 -0.7076 -0.0783
  619MOL0     C81580   1.560   6.448   1.968 -0.9488 -0.9976  0.8678
  619MOL0     C81581   1.507   6.515   1.859  0.5328 -0.2376  1.1075
  619MOL0     C81582   1.367   6.534   1.847  0.0927 -0.2610 -0.0618
  619MOL0     C81583   1.281   6.483   1.950 -1.0073 -0.7650  0.2334
  619MOL0     O81584   1.149   6.502   1.959 -0.7410 -0.2188 -0.4588
  619MOL0     C81585   1.094   6.625   1.909 -0.3181  0.1610  0.4260
  619MOL0     C81586   0.993   6.667   2.022  0.6921 -0.0214  0.3797
  619MOL0     C81587   0.884   6.564   2.042 -0.6529 -0.3065 -0.4058
  619MOL0     C81588   0.768   6.588   2.136  0.0804 -0.3048  0.0454
  619MOL0     C81589   0.811   6.563   2.283  0.2970 -0.0093  0.6581
  619MOL0     C81590   0.699   6.601   2.376  0.1217 -0.2743  0.9035
  619MOL0     C81591   0.741   6.558   2.518 -0.1610  0.1399  0.9704
  619MOL0     C81592   0.616   6.564   2.610 -0.2025 -0.1541 -0.4731
  619MOL0     N81593   0.511   6.479   2.570  0.1644 -1.0721 -0.6754
  619MOL0     C81594   0.505   6.342   2.558 -0.6127  0.2212 -0.8842
  619MOL0     C81595   0.373   6.309   2.524 -0.1135  0.0351 -0.5176
  619MOL0     C81596   0.325   6.171   2.507  0.8224 -0.6250  0.7434
  619MOL0     C81597   0.179   6.178   2.550  1.0533  0.8008  0.8574
  619MOL0     C81598   0.173   6.153   2.697 -0.9457 -0.2171 -0.4346
  619MOL0     C81599   0.023   6.151   2.734 -0.2353  0.0074  0.0996
  619MOL0     O81600  -0.009   6.190   2.865 -0.4907 -0.5182 -0.4351
  619MOL0     C81601  -0.134   6.244   2.892  0.2782  0.3294  1.2493
  619MOL0     C81602  -0.160   6.373   2.937  0.0151 -0.6959 -0.2830
  619MOL0     C81603  -0.292   6.424   2.967 -0.4118 -0.0722  0.0280
  619MOL0     C81604  -0.402   6.346   2.932  0.3037 -0.6449  0.2524
  619MOL0     C81605  -0.541   6.399   2.957  0.2488 -0.5725 -0.2204
  619MOL0     O81606  -0.642   6.302   2.950  0.6990 -0.4817  0.4557
  619MOL0     C81607  -0.764   6.337   3.011 -0.4895  0.2810 -0.6838
  619MOL0     C81608  -0.786   6.323   3.147  0.3547 -0.3237  0.6923
  619MOL0     C81609  -0.901   6.377   3.198  0.5101 -1.1465 -1.0924
  619MOL0     C81610  -1.000   6.439   3.113 -0.2148 -0.7244  1.6370
  619MOL0     O81611  -1.112   6.487   3.175  0.0490  0.4138 -0.6350
  619MOL0     C81612  -1.221   6.536   3.094  0.3047 -1.1761 -0.8450
  619MOL0     C81613  -1.319   6.612   3.188 -0.4912  0.5048  0.7197
  619MOL0     C81614  -1.454   6.554   3.220 -0.7176  0.1790 -0.0407
  619MOL0     C81615  -1.555   6.652   3.268  0.7173 -0.0946 -0.3116
  619MOL0     C81616  -1.683   6.584   3.310 -0.6566 -0.2787 -0.1071
  619MOL0     C81617  -1.769   6.526   3.194 -1.1267  0.0341 -0.9475
  619MOL0     C81618  -1.893   6.450   3.233 -0.4001  0.3340 -0.6546
  619MOL0     C81619  -2.014   6.548   3.247  0.4535  0.4595 -0.1478
  619MOL0    Cl81620  -2.160   6.476   3.316  0.1803  0.0748 -0.2536
  619MOL0     C81621  -0.975   6.448   2.978  0.0099 -0.3209  0.5182
  619MOL0     C81622  -0.852   6.407   2.933  0.6673  0.0741 -0.7110
  619MOL0     O81623  -0.562   6.514   2.998  0.0809 -0.1556  0.7101
  619MOL0     C81624  -0.378   6.218   2.879  0.8592  0.3183 -1.2764
  619MOL0     C81625  -0.249   6.172   2.864  0.3191 -1.1587  0.1667
  619MOL0     N81626   0.303   6.430   2.522  0.3246 -0.4325 -0.2851
  619MOL0     N81627   0.388   6.528   2.527 -0.7366  1.3258 -0.4026
  619MOL0     C81628   1.336   6.407   2.047  0.4241  0.7150 -1.1450
  619MOL0     C81629   1.474   6.403   2.067  0.6554  0.2106  1.0080
  619MOL0     C81630   1.911   6.345   1.942 -0.2216  0.1418  0.4864
  619MOL0     C81631   1.999   6.259   1.860  0.7501 -0.2773  1.1450
  619MOL0     C81632   2.132   6.254   1.892 -0.5254  0.6013  0.1158
  619MOL0     C81633   2.186   6.332   1.999  0.8890 -0.5759 -0.7681
  619MOL0     O81634   2.324   6.317   2.005 -0.3689 -0.7595  0.2155
  619MOL0     C81635   2.398   6.391   2.108  0.2781  0.3448 -0.4605
  619MOL0     C81636   2.415   6.541   2.073  0.5004  0.1402  0.0777
  619MOL0     C81637   2.511   6.616   2.161  0.2992  0.3197 -0.1769
  619MOL0     C81638   2.463   6.647   2.308  0.1200  0.7294  0.2828
  619MOL0     C81639   2.324   6.696   2.324 -0.5022 -0.5795 -0.1042
  619MOL0     C81640   2.212   6.749   2.313 -0.1546 -0.1216 -0.5533
  619MOL0     C81641   2.105   6.415   2.081 -0.4231  0.1266 -0.6271
  619MOL0     C81642   1.965   6.427   2.048 -0.2493 -0.5521  0.5218
  619MOL0     H81643   1.570   6.558   1.782 -1.2319  0.1452 -0.1824
  619MOL0     H81644   1.324   6.591   1.765  2.5539  1.7013 -0.1265
  619MOL0     H81645   1.028   6.616   1.822  0.4380  0.2215 -0.1564
  619MOL0     H81646   1.160   6.711   1.899  1.0975 -1.0068 -0.7642
  619MOL0     H81647   0.952   6.763   1.989 -0.0434 -0.0127  1.2976
  619MOL0     H81648   1.047   6.663   2.117  0.8823 -0.9760  0.2438
  619MOL0     H81649   0.938   6.476   2.077  0.6735 -0.1325 -1.8799
  619MOL0     H81650   0.839   6.539   1.945 -2.4715  1.6937 -0.1590
  619MOL0     H81651   0.725   6.688   2.125  3.7821  1.5685  1.2546
  619MOL0     H81652   0.686   6.520   2.108 -1.5559  1.3482  0.5863
  619MOL0     H81653   0.898   6.627   2.303 -0.2933  0.7216  0.9102
  619MOL0     H81654   0.834   6.456   2.290  2.0377  0.0798 -2.2162
  619MOL0     H81655   0.607   6.550   2.346 -1.4960  1.2617  2.9398
  619MOL0     H81656   0.686   6.708   2.359  3.7103 -0.1868 -3.1756
  619MOL0     H81657   0.786   6.459   2.509 -0.1387  0.2159  0.1557
  619MOL0     H81658   0.821   6.630   2.538  0.2934 -0.4391  1.2280
  619MOL0     H81659   0.581   6.666   2.628 -0.6141 -0.5705  1.3196
  619MOL0     H81660   0.642   6.531   2.711 -1.2751  0.0604 -0.1189
  619MOL0     H81661   0.581   6.265   2.568 -1.4744 -0.3992  1.5713
  619MOL0     H81662   0.382   6.104   2.572 -0.5414 -1.3441  1.2289
  619MOL0     H81663   0.343   6.149   2.402  4.0182  1.9839  0.5969
  619MOL0     H81664   0.125   6.097   2.500 -1.0563 -0.1762  4.3714
  619MOL0     H81665   0.130   6.273   2.531  1.6273  1.2441  1.5538
  619MOL0     H81666   0.224   6.057   2.707  1.9229  1.1570 -0.7779
  619MOL0     H81667   0.242   6.216   2.754  1.0871 -3.1680  0.5911
  619MOL0     H81668  -0.016   6.049   2.736 -0.6358  0.1761  1.7401
  619MOL0     H81669  -0.035   6.204   2.657 -1.8979 -1.8060  0.0212
  619MOL0     H81670  -0.065   6.412   2.974  0.1950  0.2069 -1.6402
  619MOL0     H81671  -0.301   6.520   3.017 -1.3843  0.4115 -1.0444
  619MOL0     H81672  -0.713   6.276   3.213  0.0845  1.6453  2.4845
  619MOL0     H81673  -0.919   6.364   3.304 -0.6272 -2.9378 -1.4678
  619MOL0     H81674  -1.274   6.458   3.039  0.6178 -0.7700 -1.7437
  619MOL0     H81675  -1.168   6.598   3.022 -2.4165 -0.5906 -2.4759
  619MOL0     H81676  -1.330   6.705   3.131 -0.2667  0.8320  1.2092
  619MOL0     H81677  -1.265   6.632   3.281 -1.2545  1.5210  0.9599
  619MOL0     H81678  -1.445   6.480   3.300 -1.9799 -0.0789 -0.1144
  619MOL0     H81679  -1.490   6.507   3.129  0.6307 -0.6778 -0.1553
  619MOL0     H81680  -1.532   6.720   3.351 -0.4906 -2.8024  2.4100
  619MOL0     H81681  -1.581   6.725   3.190  0.9468 -1.4018 -1.6464
  619MOL0     H81682  -1.749   6.656   3.359 -1.2026 -1.9406  1.7467
  619MOL0     H81683  -1.665   6.508   3.387  1.6029  0.2713 -0.0244
  619MOL0     H81684  -1.699   6.463   3.138  2.1566  1.7028  0.9611
  619MOL0     H81685  -1.791   6.614   3.133  0.8257  0.3886 -1.1908
  619MOL0     H81686  -1.915   6.367   3.165  1.7434 -1.1067  0.3024
  619MOL0     H81687  -1.873   6.403   3.330  3.3068 -2.6094 -2.6096
  619MOL0     H81688  -2.028   6.582   3.144  2.0101  1.2312 -0.1333
  619MOL0     H81689  -1.979   6.640   3.294  1.7546  0.3247 -0.8098
  619MOL0     H81690  -1.040   6.493   2.903 -1.0975 -3.0786 -0.3174
  619MOL0     H81691  -0.828   6.420   2.828  3.1891  0.1686 -0.1691
  619MOL0     H81692  -0.450   6.142   2.851  0.2315  0.2079  0.5301
  619MOL0     H81693  -0.233   6.080   2.809  1.9581 -1.5271  1.1946
  619MOL0     H81694   1.273   6.343   2.108  0.2499  2.6303  0.8191
  619MOL0     H81695   1.524   6.362   2.154  0.7115  0.8431  1.2762
  619MOL0     H81696   1.968   6.197   1.777 -0.6527  0.3477  1.1648
  619MOL0     H81697   2.201   6.192   1.836 -0.8160 -1.9178  2.3148
  619MOL0     H81698   2.502   6.356   2.112  0.3438  0.5909  0.1371
  619MOL0     H81699   2.349   6.373   2.204 -1.4629  4.2138 -0.4422
  619MOL0     H81700   2.427   6.544   1.964  0.2324  2.4335  0.0720
  619MOL0     H81701   2.319   6.592   2.088 -0.4293 -1.3713 -0.4905
  619MOL0     H81702   2.534   6.714   2.117 -3.2402  1.8568  1.0902
  619MOL0     H81703   2.604   6.558   2.166 -0.3352 -1.1302 -3.0001
  619MOL0     H81704   2.485   6.558   2.367 -1.2471 -0.2254 -0.5768
  619MOL0     H81705   2.523   6.725   2.356 -0.3375  2.4108 -1.7152
  619MOL0     H81706   2.119   6.802   2.312  0.3135  0.9655  2.5827
  619MOL0     H81707   2.155   6.459   2.167  1.0653 -0.6989 -1.0387
  619MOL0     H81708   1.905   6.493   2.111 -0.8125  0.3341 -0.8919
  620MOL0     O81709   9.801   4.258   1.792 -0.1964  1.3032 -0.1463
  620MOL0     C81710   9.836   4.193   1.892  0.0067  0.2248 -0.3355
  620MOL0     O81711   9.741   4.140   1.976  0.7384  0.1685 -0.3478
  620MOL0     C81712   9.612   4.187   1.962  0.3289 -0.1857  0.4566
  620MOL0     C81713   9.503   4.097   1.929  0.0889 -0.6643  0.3341
  620MOL0     C81714   9.375   4.145   1.922 -0.1524 -0.4707  0.8461
  620MOL0     C81715   9.341   4.280   1.931  0.0634  0.0769  0.7589
  620MOL0     O81716   9.206   4.312   1.912 -0.6371  0.2276  0.1329
  620MOL0     C81717   9.158   4.450   1.917 -0.1905 -0.8475  0.0054
  620MOL0     C81718   9.012   4.469   1.952  0.2248  0.2611 -0.1418
  620MOL0     C81719   8.920   4.371   1.861 -0.1969 -0.5953 -0.9777
  620MOL0     C81720   8.777   4.399   1.905  0.8303  0.0918  0.3158
  620MOL0     C81721   8.667   4.351   1.809 -0.4937 -0.9314 -0.5334
  620MOL0     C81722   8.532   4.401   1.857 -0.3323 -0.9163 -0.4960
  620MOL0     C81723   8.425   4.303   1.830 -0.2736  0.5393  0.0969
  620MOL0     C81724   8.293   4.333   1.911  0.1355  0.2294 -0.0858
  620MOL0     N81725   8.193   4.219   1.892 -0.2378  0.5684 -0.3644
  620MOL0     C81726   8.077   4.222   1.824 -0.1744 -0.2703 -0.6936
  620MOL0     C81727   8.008   4.114   1.862 -0.0240 -0.1463  0.0986
  620MOL0     C81728   7.886   4.048   1.819 -0.6403 -0.4056  0.2031
  620MOL0     C81729   7.758   4.139   1.826  0.0952  0.4313  0.0494
  620MOL0     C81730   7.690   4.142   1.966 -0.6236 -0.3236 -0.0286
  620MOL0     C81731   7.560   4.213   1.940 -0.6868 -0.3099  0.2486
  620MOL0     O81732   7.456   4.117   1.902 -0.3326  0.3703  0.2916
  620MOL0     C81733   7.348   4.170   1.838 -0.7041 -0.5088  0.7512
  620MOL0     C81734   7.254   4.074   1.805 -0.5586 -0.5365 -0.1831
  620MOL0     C81735   7.132   4.108   1.750  0.3996 -0.4005  0.3537
  620MOL0     C81736   7.093   4.244   1.729  0.2946  0.1051  0.4032
  620MOL0     C81737   6.964   4.282   1.664 -0.0105 -0.0819 -0.1245
  620MOL0     O81738   6.941   4.415   1.637  0.2131  0.4906 -0.4830
  620MOL0     C81739   6.807   4.455   1.630 -0.0945 -0.4344 -0.4024
  620MOL0     C81740   6.752   4.524   1.735 -0.3322  0.0806 -0.1958
  620MOL0     C81741   6.624   4.557   1.731  1.2967  0.2778  0.2466
  620MOL0     C81742   6.539   4.537   1.616  0.6664 -0.1294 -0.0401
  620MOL0     O81743   6.411   4.578   1.606  0.1731  0.6003 -0.3796
  620MOL0     C81744   6.341   4.588   1.729  0.1764 -0.1864  0.0665
  620MOL0     C81745   6.199   4.628   1.710  0.6251 -0.0235 -0.3053
  620MOL0     C81746   6.095   4.544   1.797  0.1828 -0.5244 -0.8098
  620MOL0     C81747   5.953   4.548   1.745  0.2133  0.0617  0.5741
  620MOL0     C81748   5.860   4.440   1.811 -0.3156  0.6551  0.1723
  620MOL0     C81749   5.726   4.491   1.871 -0.1680 -0.1808 -0.2029
  620MOL0     C81750   5.606   4.389   1.889 -0.2853 -0.3875 -0.1658
  620MOL0     C81751   5.471   4.446   1.930  0.4622 -0.0962 -0.6646
  620MOL0    Cl81752   5.463   4.475   2.094  0.2056  0.1240 -0.3833
  620MOL0     C81753   6.601   4.468   1.502  0.6751  0.3221  0.4616
  620MOL0     C81754   6.736   4.429   1.512  0.1923  0.0423 -0.1992
  620MOL0     O81755   6.880   4.195   1.663 -0.2715  0.6715 -0.2522
  620MOL0     C81756   7.194   4.337   1.745  0.6599 -0.0479  0.4384
  620MOL0     C81757   7.318   4.298   1.794 -0.3572 -0.7321  0.4919
  620MOL0     N81758   8.077   4.052   1.966  0.0516  0.2718 -0.4482
  620MOL0     N81759   8.192   4.112   1.977 -0.1200  0.3508 -0.4028
  620MOL0     C81760   9.447   4.375   1.943 -0.2349  0.4606 -0.4709
  620MOL0     C81761   9.577   4.326   1.976 -0.3707 -0.1924 -0.2852
  620MOL0     C81762   9.982   4.169   1.912  0.0354 -0.4599 -0.2252
  620MOL0     C81763  10.075   4.216   1.819 -0.6353 -1.3401  0.5832
  620MOL0     C81764  10.211   4.179   1.826 -0.0463 -0.1390 -0.2042
  620MOL0     C81765  10.255   4.102   1.935 -0.1503 -0.4640  0.6797
  620MOL0     O81766  10.382   4.070   1.948  0.7039  0.9185 -0.2947
  620MOL0     C81767  10.442   4.103   2.077 -0.5833  0.7551 -0.3802
  620MOL0     C81768  10.577   4.164   2.033  0.2270  0.2106 -1.3184
  620MOL0     C81769  10.686   4.056   2.005  0.5972  0.0502 -0.2504
  620MOL0     C81770  10.808   4.129   1.957 -0.5691 -0.4156 -0.7712
  620MOL0     C81771  10.932   4.057   1.994 -0.2652 -0.1856 -0.2602
  620MOL0     C81772  11.043   4.015   2.028  0.0651 -0.8331  0.4335
  620MOL0     C81773  10.164   4.066   2.037 -0.1835 -0.1670 -0.0567
  620MOL0     C81774  10.032   4.079   2.015  0.6264  0.2252 -0.4966
  620MOL0     H81775   9.524   3.990   1.927 -1.3418 -0.9582 -0.0703
  620MOL0     H81776   9.299   4.071   1.900 -1.8722  1.2238  0.9068
  620MOL0     H81777   9.184   4.505   1.826 -0.2810 -2.9260 -1.3716
  620MOL0     H81778   9.211   4.501   1.998  2.1995 -2.8489 -0.1463
  620MOL0     H81779   8.983   4.573   1.935 -3.1473  0.3613  4.4147
  620MOL0     H81780   8.988   4.457   2.058  0.8312  0.8730  0.0729
  620MOL0     H81781   8.943   4.269   1.892 -0.7059  0.2922  2.9365
  620MOL0     H81782   8.935   4.400   1.757  3.0276  2.9656  0.2465
  620MOL0     H81783   8.760   4.360   2.006 -0.8764  2.4538  1.0121
  620MOL0     H81784   8.767   4.508   1.903  0.2778  0.1562 -4.5847
  620MOL0     H81785   8.671   4.242   1.811 -0.9837 -1.0213 -2.2974
  620MOL0     H81786   8.693   4.384   1.708  0.3105 -0.3214 -0.1331
  620MOL0     H81787   8.526   4.497   1.806  0.8890  0.1976  1.3534
  620MOL0     H81788   8.522   4.421   1.964 -0.4835 -2.9783 -0.0853
  620MOL0     H81789   8.397   4.304   1.724 -2.4427  0.4142  0.6268
  620MOL0     H81790   8.456   4.202   1.859  0.2798  0.2314 -1.4399
  620MOL0     H81791   8.250   4.429   1.880 -1.5764 -0.5126 -0.1185
  620MOL0     H81792   8.313   4.336   2.018  0.3541 -0.6678 -0.0969
  620MOL0     H81793   8.055   4.294   1.746  0.0417  1.8370  1.0897
  620MOL0     H81794   7.872   3.950   1.866  4.6532 -0.7105  1.7481
  620MOL0     H81795   7.905   4.034   1.712 -0.4419 -2.0461  0.4248
  620MOL0     H81796   7.684   4.107   1.753  0.6138 -1.5784  0.3461
  620MOL0     H81797   7.788   4.239   1.794  0.3617  0.6349  0.8962
  620MOL0     H81798   7.680   4.039   2.003  1.5889 -1.0302 -1.2067
  620MOL0     H81799   7.753   4.199   2.035  1.4215 -0.9055 -1.3314
  620MOL0     H81800   7.574   4.278   1.854 -1.4521  0.9820  1.0726
  620MOL0     H81801   7.529   4.275   2.024  0.5778  0.3024  0.2800
  620MOL0     H81802   7.284   3.970   1.809 -0.4774 -0.5508 -1.0051
  620MOL0     H81803   7.062   4.032   1.717  0.2209 -0.3123  0.5268
  620MOL0     H81804   6.820   4.549   1.816 -1.9293  1.9812  0.6298
  620MOL0     H81805   6.587   4.600   1.823  1.4001 -0.0939  0.4603
  620MOL0     H81806   6.386   4.669   1.788 -1.4183 -1.6923  3.6880
  620MOL0     H81807   6.335   4.490   1.778  0.7462 -0.7668 -1.0044
  620MOL0     H81808   6.169   4.620   1.606 -0.2587 -0.6161 -0.0199
  620MOL0     H81809   6.189   4.732   1.744 -0.2799 -1.2452  3.7423
  620MOL0     H81810   6.108   4.573   1.902  0.5127  1.4992 -1.3782
  620MOL0     H81811   6.129   4.440   1.802 -0.0346 -0.5498  0.6197
  620MOL0     H81812   5.920   4.649   1.770  1.8600  1.1043 -1.2265
  620MOL0     H81813   5.954   4.536   1.636 -2.7973 -0.9585  0.5661
  620MOL0     H81814   5.909   4.382   1.889 -1.2088 -0.1376  0.1697
  620MOL0     H81815   5.838   4.371   1.729 -0.0581  2.7773 -1.7926
  620MOL0     H81816   5.681   4.562   1.801  0.1637  1.8708  1.5262
  620MOL0     H81817   5.740   4.547   1.965 -0.1362  2.0301 -1.4502
  620MOL0     H81818   5.597   4.332   1.796 -1.9974  2.6056 -2.0041
  620MOL0     H81819   5.629   4.318   1.968 -1.1674 -1.5707 -0.9341
  620MOL0     H81820   5.398   4.371   1.898  0.1490  0.5997 -1.6193
  620MOL0     H81821   5.457   4.539   1.874  1.9386 -0.2473 -1.3296
  620MOL0     H81822   6.549   4.453   1.407 -0.0185 -0.4891  0.9480
  620MOL0     H81823   6.777   4.376   1.427  1.0335 -0.8305  0.7296
  620MOL0     H81824   7.168   4.443   1.740  1.6959  0.1668 -1.4706
  620MOL0     H81825   7.389   4.379   1.807  2.5481 -3.0870  0.0713
  620MOL0     H81826   9.430   4.481   1.951  2.1520  0.9811 -1.3814
  620MOL0     H81827   9.653   4.402   1.989  0.2600 -0.6512 -1.1623
  620MOL0     H81828  10.040   4.273   1.733 -1.7456 -1.5262  0.9018
  620MOL0     H81829  10.271   4.209   1.741 -2.1108  2.4657 -0.8698
  620MOL0     H81830  10.464   4.023   2.149  3.9677  0.9130 -1.2755
  620MOL0     H81831  10.380   4.173   2.134 -0.2675 -0.3591  1.4249
  620MOL0     H81832  10.553   4.226   1.946  3.2528  0.8999 -1.7429
  620MOL0     H81833  10.618   4.227   2.112 -1.4149 -0.1731 -0.1066
  620MOL0     H81834  10.644   3.990   1.929 -1.5121  1.3367 -0.2788
  620MOL0     H81835  10.708   3.999   2.096  0.2277 -0.8264 -0.7005
  620MOL0     H81836  10.819   4.136   1.849  0.0028  0.4630 -0.6654
  620MOL0     H81837  10.813   4.233   1.989  1.1864 -0.8239  0.4631
  620MOL0     H81838  11.133   3.979   2.072 -0.8851 -0.1342  3.2239
  620MOL0     H81839  10.206   4.014   2.123 -0.3299  1.5446  1.1082
  620MOL0     H81840   9.955   4.042   2.082 -0.0457  1.1365 -0.7334
  621MOL0     O81841   6.325   0.724   7.374  0.4547 -0.5739  0.9752
  621MOL0     C81842   6.384   0.751   7.483 -0.2313  0.0565  0.3319
  621MOL0     O81843   6.322   0.797   7.593  0.4327 -0.3369  0.4519
  621MOL0     C81844   6.193   0.799   7.614 -0.3184  0.7945 -0.0019
  621MOL0     C81845   6.108   0.689   7.590  0.9937 -0.0529 -0.1656
  621MOL0     C81846   5.974   0.707   7.628 -0.1994 -0.3667  0.5970
  621MOL0     C81847   5.926   0.830   7.676  0.2872  0.4416  0.2698
  621MOL0     O81848   5.786   0.830   7.688  0.8117 -0.3372 -0.3674
  621MOL0     C81849   5.739   0.958   7.734 -0.0307 -0.3738  0.2716
  621MOL0     C81850   5.595   0.943   7.773 -0.3779 -0.2973  0.5117
  621MOL0     C81851   5.568   0.831   7.880 -0.2400 -0.6215 -0.4501
  621MOL0     C81852   5.419   0.822   7.896  0.5409  0.1510 -0.1010
  621MOL0     C81853   5.363   0.706   7.980  0.4382  0.6501  0.0460
  621MOL0     C81854   5.388   0.738   8.120 -0.1018  0.2516  0.1219
  621MOL0     C81855   5.365   0.624   8.227  0.6017 -0.1514  1.1763
  621MOL0     C81856   5.400   0.671   8.373 -0.4134 -0.9023  0.6763
  621MOL0     N81857   5.541   0.668   8.390  0.3237  0.1711  0.3880
  621MOL0     C81858   5.638   0.614   8.309  0.1446 -0.0273 -0.1680
  621MOL0     C81859   5.747   0.631   8.378 -0.5454 -0.8342  0.6184
  621MOL0     C81860   5.885   0.636   8.311 -0.2757  0.4250  0.6185
  621MOL0     C81861   6.000   0.570   8.393  0.7934  0.2562 -0.4729
  621MOL0     C81862   6.133   0.576   8.319 -0.6106 -0.8232  0.2386
  621MOL0     C81863   6.238   0.481   8.381 -1.0835  0.1080 -0.3417
  621MOL0     O81864   6.300   0.540   8.493  0.0242  1.2759  0.1573
  621MOL0     C81865   6.419   0.485   8.528  0.6874  0.2449 -0.1483
  621MOL0     C81866   6.438   0.367   8.600 -0.0615  0.5867 -0.0321
  621MOL0     C81867   6.563   0.315   8.634 -0.4506 -0.1613 -0.5166
  621MOL0     C81868   6.678   0.391   8.591 -0.7861  0.2842  0.1609
  621MOL0     C81869   6.820   0.360   8.637  0.7684 -0.5512  1.6846
  621MOL0     O81870   6.838   0.251   8.708 -0.1818 -0.0833 -0.6312
  621MOL0     C81871   6.964   0.208   8.750  0.3934  0.1351 -0.2474
  621MOL0     C81872   7.087   0.234   8.688 -0.7379 -0.6055 -0.1750
  621MOL0     C81873   7.205   0.200   8.758  0.3714  0.8162 -0.5036
  621MOL0     C81874   7.209   0.138   8.880 -0.1473  0.1032 -0.1170
  621MOL0     O81875   7.327   0.103   8.941 -0.5831 -0.4749  0.6910
  621MOL0     C81876   7.426   0.037   8.859  0.0197  0.1773  0.6494
  621MOL0     C81877   7.566   0.095   8.847 -0.0654 -0.9557 -0.0922
  621MOL0     C81878   7.662   0.018   8.758  0.9347  0.6620  0.5796
  621MOL0     C81879   7.797   0.089   8.759  0.2033  0.2409  0.4560
  621MOL0     C81880   7.886   0.066   8.636  0.2030  0.5972  0.1099
  621MOL0     C81881   8.018   0.136   8.653  0.3711  0.3905  0.0345
  621MOL0     C81882   8.089   0.149   8.521  0.2290 -1.5343  1.1427
  621MOL0     C81883   8.236   0.191   8.531  0.8926 -0.0328  0.9674
  621MOL0    Cl81884   8.332   0.079   8.639 -0.1621  0.3404  0.3287
  621MOL0     C81885   7.088   0.122   8.950 -0.3087 -0.7589 -0.5866
  621MOL0     C81886   6.968   0.165   8.892  0.3970 -0.5416  0.2596
  621MOL0     O81887   6.904   0.429   8.583  0.7398  0.4695 -0.1030
  621MOL0     C81888   6.656   0.514   8.519  0.2334 -0.0385  0.4584
  621MOL0     C81889   6.528   0.551   8.489  0.2740  0.0900 -0.1700
  621MOL0     N81890   5.716   0.670   8.505 -0.0364  0.3652 -0.3095
  621MOL0     N81891   5.590   0.687   8.518 -0.7875 -0.3431  0.0256
  621MOL0     C81892   6.017   0.935   7.683  0.9837 -0.1765 -0.9768
  621MOL0     C81893   6.153   0.918   7.670 -0.2283  0.2146 -0.3999
  621MOL0     C81894   6.532   0.751   7.485  0.1322 -0.0825  0.7454
  621MOL0     C81895   6.599   0.786   7.609 -0.3050  0.7484 -0.2277
  621MOL0     C81896   6.742   0.793   7.617 -0.0160 -0.1916 -0.0469
  621MOL0     C81897   6.818   0.745   7.503  0.2773 -0.2971 -1.0283
  621MOL0     O81898   6.951   0.726   7.524 -0.0324  0.0439  0.0401
  621MOL0     C81899   7.032   0.725   7.411 -0.1176 -0.0241 -0.1172
  621MOL0     C81900   7.172   0.722   7.468  0.2597  0.5069  0.9784
  621MOL0     C81901   7.268   0.798   7.381 -0.3699 -0.6833  0.8819
  621MOL0     C81902   7.391   0.841   7.451 -0.6185  0.6943 -0.2867
  621MOL0     C81903   7.504   0.865   7.361  0.0102  0.3608 -0.3896
  621MOL0     C81904   7.593   0.883   7.287  0.4397 -0.0653  0.3470
  621MOL0     C81905   6.753   0.719   7.387 -0.0154  0.3521  0.4006
  621MOL0     C81906   6.614   0.725   7.372  0.1930  0.3279  0.8252
  621MOL0     H81907   6.148   0.598   7.546  3.9495  2.1885 -2.5438
  621MOL0     H81908   5.898   0.632   7.608 -0.8314  0.5985 -0.9126
  621MOL0     H81909   5.742   1.040   7.661  1.1318 -0.4135  0.2456
  621MOL0     H81910   5.784   0.987   7.829 -3.1228 -1.7014  2.2737
  621MOL0     H81911   5.562   0.903   7.677  4.1249 -3.9488  0.1460
  621MOL0     H81912   5.552   1.038   7.805 -2.1345  0.1485 -2.7991
  621MOL0     H81913   5.601   0.859   7.981  0.8046 -1.4164 -0.5463
  621MOL0     H81914   5.607   0.732   7.852  3.0472  0.3424  0.2779
  621MOL0     H81915   5.382   0.920   7.930  2.6506  0.7416  0.6151
  621MOL0     H81916   5.377   0.813   7.795 -2.0451  0.3374  0.8658
  621MOL0     H81917   5.401   0.610   7.945  0.5312  1.8362 -3.5204
  621MOL0     H81918   5.255   0.703   7.991  0.0856 -2.6508 -2.8031
  621MOL0     H81919   5.319   0.820   8.139 -0.7318 -0.1095 -0.5602
  621MOL0     H81920   5.491   0.773   8.131 -1.0233  2.9074  0.8880
  621MOL0     H81921   5.262   0.591   8.216 -0.8999  3.4415  2.8814
  621MOL0     H81922   5.428   0.536   8.206  0.0383 -0.1550 -0.7440
  621MOL0     H81923   5.360   0.597   8.443 -1.6034 -0.6107  0.3372
  621MOL0     H81924   5.358   0.767   8.407  0.1009 -1.8055  4.3439
  621MOL0     H81925   5.634   0.587   8.204 -2.2411  0.4368 -0.2381
  621MOL0     H81926   5.915   0.736   8.276  1.7125 -0.3420 -0.0118
  621MOL0     H81927   5.872   0.573   8.222  0.0113 -2.3071  2.3907
  621MOL0     H81928   5.976   0.469   8.424 -0.2509  0.7017  0.2045
  621MOL0     H81929   6.005   0.631   8.484 -0.9982  1.5684 -1.2106
  621MOL0     H81930   6.118   0.555   8.212 -0.9165  2.8424 -0.5620
  621MOL0     H81931   6.177   0.676   8.314 -0.1912 -1.0615 -1.3286
  621MOL0     H81932   6.308   0.447   8.304  1.6919  2.9427  0.7537
  621MOL0     H81933   6.186   0.391   8.417  0.5187 -1.6009 -2.0496
  621MOL0     H81934   6.357   0.301   8.631  1.7788 -2.5595 -1.4824
  621MOL0     H81935   6.571   0.223   8.691 -0.2960  0.0557 -0.1853
  621MOL0     H81936   7.086   0.288   8.594 -0.5910  1.3502  0.9016
  621MOL0     H81937   7.292   0.221   8.698  1.3387 -0.2244  0.4661
  621MOL0     H81938   7.390   0.028   8.756 -0.8522 -2.6813  1.1166
  621MOL0     H81939   7.440  -0.062   8.904 -0.6854 -0.3131 -0.1717
  621MOL0     H81940   7.612   0.103   8.946  1.0073  0.3778 -0.6656
  621MOL0     H81941   7.548   0.193   8.801  0.0144 -0.8899  0.0145
  621MOL0     H81942   7.615   0.016   8.660  3.3804  1.3470 -0.6984
  621MOL0     H81943   7.668  -0.085   8.795 -0.1553  0.4716  0.2622
  621MOL0     H81944   7.787   0.198   8.770 -0.8843  0.0122  2.0316
  621MOL0     H81945   7.851   0.058   8.850 -0.9323 -2.7414  0.2129
  621MOL0     H81946   7.848   0.095   8.537 -2.5663  2.3967  1.5818
  621MOL0     H81947   7.903  -0.042   8.636 -2.7352  0.0512 -0.1053
  621MOL0     H81948   8.076   0.064   8.711 -3.3545 -1.3142  1.9652
  621MOL0     H81949   8.006   0.235   8.697 -2.0837  0.6339 -1.0303
  621MOL0     H81950   8.075   0.060   8.458  0.9014 -0.5950 -0.3967
  621MOL0     H81951   8.041   0.225   8.459  0.5171  1.2544  4.0637
  621MOL0     H81952   8.239   0.295   8.565 -0.7684 -0.2044  1.6784
  621MOL0     H81953   8.272   0.186   8.428  0.5713  0.5780  0.8245
  621MOL0     H81954   7.085   0.076   9.048 -1.8670 -0.4303 -0.4504
  621MOL0     H81955   6.867   0.160   8.933 -0.5814  1.3032 -1.7067
  621MOL0     H81956   6.738   0.581   8.493  0.7657 -1.9015 -3.3364
  621MOL0     H81957   6.508   0.642   8.434 -2.0089  0.3925  1.0309
  621MOL0     H81958   5.988   1.037   7.705  0.3277 -0.5739  0.0722
  621MOL0     H81959   6.222   1.001   7.684 -1.1859  0.8870  0.4945
  621MOL0     H81960   6.549   0.824   7.697  0.9708  1.3609  0.2521
  621MOL0     H81961   6.785   0.833   7.708 -1.2339 -0.2321  0.5648
  621MOL0     H81962   7.011   0.821   7.362 -0.6186 -0.3034 -0.4524
  621MOL0     H81963   7.020   0.636   7.348 -3.3650 -1.5053  2.2768
  621MOL0     H81964   7.179   0.770   7.566  0.2910  0.5885  0.9371
  621MOL0     H81965   7.205   0.618   7.473 -1.7270 -0.1646  0.8396
  621MOL0     H81966   7.220   0.886   7.337  1.3141 -0.3472 -0.3887
  621MOL0     H81967   7.285   0.735   7.294 -1.5169  0.4046 -0.1634
  621MOL0     H81968   7.371   0.931   7.510 -2.1047  2.0328 -2.6670
  621MOL0     H81969   7.425   0.758   7.514  1.2554 -3.7510 -6.2778
  621MOL0     H81970   7.673   0.894   7.216  0.6631 -0.7477  0.4813
  621MOL0     H81971   6.816   0.700   7.301  0.3618  1.5756  0.3893
  621MOL0     H81972   6.561   0.713   7.278 -0.1775  0.8691  0.9573
  622MOL0     O81973   8.538   0.229   4.339 -0.0080  0.2953  0.4784
  622MOL0     C81974   8.630   0.243   4.422 -0.3848  0.2404  0.0966
  622MOL0     O81975   8.620   0.250   4.557 -0.0561 -0.0157 -1.2146
  622MOL0     C81976   8.501   0.241   4.629 -0.3350  1.4005  0.2720
  622MOL0     C81977   8.517   0.267   4.766  0.2540  1.0015 -0.9530
  622MOL0     C81978   8.402   0.262   4.853 -0.5311 -0.5303  0.2878
  622MOL0     C81979   8.271   0.250   4.802 -0.4697  0.9496  0.1028
  622MOL0     O81980   8.149   0.264   4.868  0.4996 -0.3394  1.1194
  622MOL0     C81981   8.155   0.309   5.005  0.9836  0.1076  0.5060
  622MOL0     C81982   8.184   0.193   5.096 -0.4054 -0.0203 -0.1907
  622MOL0     C81983   8.081   0.082   5.090  0.4899 -0.2169  0.4167
  622MOL0     C81984   8.036   0.032   5.220  0.1248  0.6424 -0.8568
  622MOL0     C81985   8.145  -0.061   5.285  0.2817 -0.3448 -0.5311
  622MOL0     C81986   8.084  -0.161   5.380 -0.0445  0.8932 -0.0486
  622MOL0     C81987   8.030  -0.095   5.512 -0.2494  0.0053 -0.2705
  622MOL0     C81988   7.982  -0.204   5.600  0.3395 -0.1328 -0.8758
  622MOL0     N81989   7.936  -0.156   5.727  0.4764 -0.1932  0.0442
  622MOL0     C81990   7.811  -0.109   5.748  0.3164 -0.1005 -0.6199
  622MOL0     C81991   7.804  -0.072   5.877  0.0324  0.6462  0.0243
  622MOL0     C81992   7.688  -0.008   5.950  0.0355 -0.9427  0.2350
  622MOL0     C81993   7.571  -0.110   5.949 -0.4605  0.3058  0.9065
  622MOL0     C81994   7.583  -0.216   6.055  0.3706  0.1193 -0.4703
  622MOL0     C81995   7.470  -0.323   6.026 -0.0347 -0.0535 -0.6929
  622MOL0     O81996   7.385  -0.357   6.134  0.5985  0.1385  0.0446
  622MOL0     C81997   7.277  -0.444   6.114 -0.5256  0.2115 -0.7402
  622MOL0     C81998   7.256  -0.512   5.994  0.2738 -1.4237  0.0082
  622MOL0     C81999   7.162  -0.608   5.989  0.5545 -0.0435 -0.4257
  622MOL0     C82000   7.098  -0.654   6.103  0.1172  0.4285 -0.0067
  622MOL0     C82001   7.005  -0.776   6.085 -0.7978 -0.5839 -0.3199
  622MOL0     O82002   6.950  -0.825   6.194  0.7446 -0.4253 -0.4825
  622MOL0     C82003   6.826  -0.888   6.193 -0.6618  0.3729 -0.0088
  622MOL0     C82004   6.719  -0.841   6.109 -0.7700  0.4517 -0.3242
  622MOL0     C82005   6.594  -0.895   6.118 -0.1671  0.0517  0.3550
  622MOL0     C82006   6.569  -0.992   6.218  0.6480 -0.4658  0.7165
  622MOL0     O82007   6.438  -1.052   6.218 -1.2542 -0.6887  0.5964
  622MOL0     C82008   6.360  -1.002   6.325 -0.2939  0.1380 -0.3754
  622MOL0     C82009   6.326  -0.845   6.326 -0.0142  0.2235  0.0939
  622MOL0     C82010   6.244  -0.818   6.197  0.1598 -0.3539  0.2451
  622MOL0     C82011   6.214  -0.666   6.203  0.4941  0.1464  0.0319
  622MOL0     C82012   6.063  -0.638   6.161 -0.0407  0.1229 -0.8116
  622MOL0     C82013   6.013  -0.496   6.198 -0.2173 -0.0834  0.1784
  622MOL0     C82014   6.099  -0.384   6.131  0.0878 -0.2697 -0.2597
  622MOL0     C82015   6.024  -0.247   6.139 -0.6395  0.3602  0.4320
  622MOL0    Cl82016   6.014  -0.190   6.313 -0.5629 -0.3867 -0.3102
  622MOL0     C82017   6.677  -1.033   6.303  1.8711  0.1783  0.6073
  622MOL0     C82018   6.804  -0.976   6.297  0.3100 -0.3509 -0.8331
  622MOL0     O82019   6.971  -0.815   5.974 -0.7292 -0.0756 -0.6639
  622MOL0     C82020   7.113  -0.585   6.224 -0.3025 -0.6777 -0.6207
  622MOL0     C82021   7.210  -0.486   6.228 -0.2868 -0.6136  1.3210
  622MOL0     N82022   7.924  -0.104   5.932 -0.6520 -0.7367  0.0084
  622MOL0     N82023   8.008  -0.148   5.836  0.3084  0.1308  0.1401
  622MOL0     C82024   8.260   0.229   4.660 -0.2998 -0.3619  0.3110
  622MOL0     C82025   8.372   0.217   4.577 -0.3119 -1.0781 -0.4700
  622MOL0     C82026   8.771   0.266   4.380  0.4625 -0.0170  0.1827
  622MOL0     C82027   8.817   0.235   4.253  0.6624  0.1810  0.4837
  622MOL0     C82028   8.943   0.268   4.214 -0.1160  1.0189 -1.3145
  622MOL0     C82029   9.036   0.314   4.304 -0.1052  0.3011  0.1321
  622MOL0     O82030   9.165   0.333   4.260  0.0150 -0.1073 -0.0271
  622MOL0     C82031   9.245   0.209   4.265 -0.2490  0.4251  0.5533
  622MOL0     C82032   9.396   0.238   4.250  0.3357  0.0647  0.1018
  622MOL0     C82033   9.430   0.239   4.102 -0.3773  0.6614  1.3414
  622MOL0     C82034   9.444   0.099   4.040  0.4096 -0.2114 -0.4135
  622MOL0     C82035   9.372   0.084   3.919  0.5034  0.1806  0.7546
  622MOL0     C82036   9.327   0.094   3.807 -0.2025  0.1796  0.3813
  622MOL0     C82037   9.002   0.339   4.431  0.2044 -0.3442 -0.4556
  622MOL0     C82038   8.870   0.327   4.470  0.4805 -0.6503 -0.2321
  622MOL0     H82039   8.613   0.288   4.813 -0.4899  1.3054  0.4929
  622MOL0     H82040   8.420   0.279   4.959 -1.0510 -0.8925  0.4406
  622MOL0     H82041   8.056   0.347   5.034 -0.3840 -1.7359 -1.4151
  622MOL0     H82042   8.218   0.397   5.018 -1.3087  2.2467 -1.6424
  622MOL0     H82043   8.179   0.234   5.198  2.6819 -0.6971  0.3311
  622MOL0     H82044   8.289   0.164   5.093  0.5879  3.3158 -0.8271
  622MOL0     H82045   8.114   0.002   5.024 -1.8706  0.0941 -1.2461
  622MOL0     H82046   7.990   0.123   5.046  1.7952 -0.1011 -2.3749
  622MOL0     H82047   8.013   0.111   5.292 -1.3461 -0.3774 -0.1444
  622MOL0     H82048   7.942  -0.023   5.207 -0.4453  0.5588  2.6412
  622MOL0     H82049   8.219  -0.002   5.338 -0.3598  0.3151 -0.3470
  622MOL0     H82050   8.191  -0.117   5.203  2.3169  0.0173  0.3096
  622MOL0     H82051   8.152  -0.243   5.407 -0.0895  0.2938 -1.6468
  622MOL0     H82052   7.998  -0.206   5.330 -0.2852  2.9081 -1.5832
  622MOL0     H82053   8.109  -0.038   5.562 -1.0912 -0.1929  1.3545
  622MOL0     H82054   7.956  -0.020   5.480  3.1557  3.1317 -1.4557
  622MOL0     H82055   8.061  -0.277   5.622  0.2443  0.0544  0.1018
  622MOL0     H82056   7.897  -0.255   5.553 -0.1189  0.6568 -0.9121
  622MOL0     H82057   7.728  -0.099   5.679 -0.4027 -0.3698  0.1940
  622MOL0     H82058   7.661   0.083   5.896  0.5677 -0.5394  0.6464
  622MOL0     H82059   7.722   0.006   6.052  1.8488 -2.1952 -0.1590
  622MOL0     H82060   7.564  -0.157   5.850 -0.0151 -1.7593  1.8120
  622MOL0     H82061   7.480  -0.052   5.969  0.9907  2.7349  0.8951
  622MOL0     H82062   7.678  -0.269   6.047  0.7580  0.9613 -1.7416
  622MOL0     H82063   7.575  -0.170   6.154  0.0359  1.0342 -0.9141
  622MOL0     H82064   7.527  -0.408   5.988  1.5946  0.7468 -0.1292
  622MOL0     H82065   7.402  -0.282   5.950 -0.2197  1.3385  0.1873
  622MOL0     H82066   7.310  -0.483   5.904 -0.2100 -1.7271 -0.3846
  622MOL0     H82067   7.155  -0.661   5.895  0.4981 -1.5913  0.4278
  622MOL0     H82068   6.746  -0.768   6.033  0.4656 -0.3870 -0.7251
  622MOL0     H82069   6.513  -0.882   6.047 -3.2041  0.5888  3.6408
  622MOL0     H82070   6.416  -1.030   6.415  0.0888 -0.3552 -0.7639
  622MOL0     H82071   6.267  -1.056   6.342  0.7725 -1.7615 -0.2666
  622MOL0     H82072   6.416  -0.784   6.333  0.2556 -0.3902  2.7689
  622MOL0     H82073   6.277  -0.823   6.421  2.3654  2.0767  1.0076
  622MOL0     H82074   6.151  -0.874   6.204  0.2103 -0.6836 -1.2461
  622MOL0     H82075   6.313  -0.840   6.115  1.2397  0.6923  0.8458
  622MOL0     H82076   6.243  -0.622   6.298  2.2871  1.2391 -0.9628
  622MOL0     H82077   6.268  -0.608   6.128 -1.9934  4.3404  1.2011
  622MOL0     H82078   5.988  -0.717   6.174 -0.6999  0.9540  0.7094
  622MOL0     H82079   6.072  -0.645   6.053  2.8326  2.0127 -0.7775
  622MOL0     H82080   6.021  -0.480   6.306  0.3887  0.8832  0.0043
  622MOL0     H82081   5.907  -0.490   6.172 -0.5863 -1.6088  1.1660
  622MOL0     H82082   6.198  -0.380   6.179 -0.8411 -2.4963  2.0072
  622MOL0     H82083   6.104  -0.400   6.023 -0.3025  1.1283 -0.5105
  622MOL0     H82084   5.922  -0.263   6.102 -1.3797  0.7344  2.2150
  622MOL0     H82085   6.070  -0.178   6.068  1.9537 -4.1521 -2.8676
  622MOL0     H82086   6.647  -1.096   6.387  0.4993 -1.0893 -0.7779
  622MOL0     H82087   6.877  -0.995   6.375 -1.2434  0.4933  0.8845
  622MOL0     H82088   7.060  -0.608   6.316  2.0213 -0.4583  0.8647
  622MOL0     H82089   7.226  -0.440   6.325 -0.3434  0.6834  0.7308
  622MOL0     H82090   8.166   0.213   4.608 -1.4915 -1.0231  2.5747
  622MOL0     H82091   8.351   0.182   4.477  0.0789  1.4470 -1.5048
  622MOL0     H82092   8.750   0.198   4.175  1.6266  2.0546 -1.3537
  622MOL0     H82093   8.973   0.254   4.111 -1.1949 -1.0171 -1.4131
  622MOL0     H82094   9.202   0.146   4.186 -0.2643  3.1509 -1.7620
  622MOL0     H82095   9.244   0.160   4.363  1.6859  0.6359  0.7031
  622MOL0     H82096   9.412   0.336   4.297  4.2802 -1.0413  1.4443
  622MOL0     H82097   9.467   0.171   4.299 -0.0346  1.2217  2.3227
  622MOL0     H82098   9.524   0.292   4.087 -0.5791  0.9599  1.0954
  622MOL0     H82099   9.343   0.284   4.053 -1.0061 -3.3435 -1.6516
  622MOL0     H82100   9.549   0.072   4.026  0.3255 -0.9192  0.2821
  622MOL0     H82101   9.399   0.031   4.112 -5.0044  0.5921 -2.5719
  622MOL0     H82102   9.315   0.119   3.704  0.9313 -0.6010  0.0358
  622MOL0     H82103   9.079   0.385   4.493 -0.1156 -2.0978  1.3523
  622MOL0     H82104   8.844   0.367   4.567  0.7186  2.0148 -1.1667
  623MOL0     O82105   5.821   1.592   0.169  0.3367  0.5468 -0.3172
  623MOL0     C82106   5.842   1.473   0.172  0.3674  0.2275  0.1527
  623MOL0     O82107   5.758   1.379   0.116  0.4313 -0.0332 -0.0084
  623MOL0     C82108   5.649   1.408   0.042  0.6308  0.5013 -0.6943
  623MOL0     C82109   5.633   1.528  -0.037  0.7285  0.9533 -0.4407
  623MOL0     C82110   5.515   1.540  -0.117  0.9604  1.1408 -0.7721
  623MOL0     C82111   5.417   1.441  -0.119 -0.0900  0.7204 -0.1959
  623MOL0     O82112   5.298   1.447  -0.181 -0.5114 -0.7078 -0.2695
  623MOL0     C82113   5.278   1.557  -0.274  0.5781  1.0435 -0.2417
  623MOL0     C82114   5.127   1.562  -0.320 -0.4355  0.5470  0.1406
  623MOL0     C82115   5.044   1.578  -0.195 -0.2401 -0.7610  0.4569
  623MOL0     C82116   4.894   1.568  -0.224  0.3256 -0.2455  0.0542
  623MOL0     C82117   4.806   1.577  -0.095  0.2214  0.3228  0.8581
  623MOL0     C82118   4.757   1.433  -0.069 -0.6857 -0.0608  0.6906
  623MOL0     C82119   4.668   1.416   0.052 -1.0584 -0.4322 -1.1245
  623MOL0     C82120   4.602   1.279   0.038 -0.4092 -0.4632 -1.1393
  623MOL0     N82121   4.533   1.238   0.160 -0.2570  0.8025 -0.0536
  623MOL0     C82122   4.454   1.319   0.246  0.2410  0.0934  0.4744
  623MOL0     C82123   4.379   1.238   0.320  0.2050 -0.4313  0.6245
  623MOL0     C82124   4.281   1.286   0.419 -0.4673 -0.0379  0.3274
  623MOL0     C82125   4.150   1.306   0.346 -0.1078  0.2058  1.0461
  623MOL0     C82126   4.067   1.182   0.321 -0.6233 -0.4266 -0.6591
  623MOL0     C82127   3.922   1.219   0.301  0.4320 -0.2923 -0.4283
  623MOL0     O82128   3.853   1.208   0.425  0.2451  0.0007 -0.8058
  623MOL0     C82129   3.738   1.280   0.448  0.3392 -0.0351  0.9484
  623MOL0     C82130   3.659   1.327   0.346  0.7697  0.7274 -0.6233
  623MOL0     C82131   3.529   1.370   0.375  0.4051  0.8321 -0.5691
  623MOL0     C82132   3.485   1.383   0.505 -0.0802  0.2074 -0.3758
  623MOL0     C82133   3.348   1.439   0.522 -0.2127 -0.4979 -0.5696
  623MOL0     O82134   3.298   1.430   0.654  0.3934 -0.4354 -0.1303
  623MOL0     C82135   3.164   1.438   0.668  0.1670 -1.8435  0.1216
  623MOL0     C82136   3.108   1.543   0.748  0.2789  0.1932  0.0835
  623MOL0     C82137   2.972   1.558   0.768 -0.1389 -0.1698  0.1478
  623MOL0     C82138   2.876   1.477   0.708 -0.2060 -0.5423 -0.5898
  623MOL0     O82139   2.736   1.493   0.707  0.6288 -0.5457 -0.2731
  623MOL0     C82140   2.671   1.593   0.791  0.2121 -0.2986 -0.6695
  623MOL0     C82141   2.530   1.600   0.741 -0.4124  0.1703 -0.2192
  623MOL0     C82142   2.461   1.470   0.713  0.2760  1.5103 -0.1915
  623MOL0     C82143   2.308   1.469   0.708  0.4059 -0.3261 -0.1574
  623MOL0     C82144   2.235   1.388   0.814 -0.0825 -0.5213 -0.0961
  623MOL0     C82145   2.080   1.403   0.820  0.0204  0.6552  0.1448
  623MOL0     C82146   2.008   1.345   0.940 -0.0887  0.7776 -0.9286
  623MOL0     C82147   2.011   1.199   0.947 -0.1309 -0.0633 -0.1522
  623MOL0    Cl82148   1.970   1.139   1.103  0.0935  0.2969 -0.6308
  623MOL0     C82149   2.927   1.375   0.634  0.7103 -0.2862 -0.3324
  623MOL0     C82150   3.066   1.353   0.616 -0.4089 -0.4287  0.6142
  623MOL0     O82151   3.288   1.494   0.429 -0.5276 -0.7285  0.5816
  623MOL0     C82152   3.564   1.328   0.604 -0.9457  0.1824 -0.7151
  623MOL0     C82153   3.695   1.285   0.579 -0.4341  0.6476 -0.2206
  623MOL0     N82154   4.408   1.111   0.268 -0.4607  0.3494  0.1205
  623MOL0     N82155   4.495   1.109   0.180  0.4968  0.5223 -0.2141
  623MOL0     C82156   5.440   1.319  -0.053  0.0729 -0.5986 -0.2893
  623MOL0     C82157   5.550   1.309   0.026  0.5662  0.1211 -0.4641
  623MOL0     C82158   5.967   1.430   0.247 -0.1814 -0.4747 -0.0735
  623MOL0     C82159   5.983   1.296   0.281  0.7707 -1.0952  0.1297
  623MOL0     C82160   6.096   1.262   0.349  0.2291 -1.3341 -0.4224
  623MOL0     C82161   6.206   1.341   0.371  0.3269  0.1662  0.3926
  623MOL0     O82162   6.312   1.303   0.448 -0.2757 -0.1623 -0.1034
  623MOL0     C82163   6.387   1.194   0.384 -0.2999 -0.9983  0.0427
  623MOL0     C82164   6.519   1.152   0.452 -1.0976  0.3202 -0.9103
  623MOL0     C82165   6.623   1.255   0.412  0.1201 -0.2704  0.0009
  623MOL0     C82166   6.749   1.228   0.484 -0.0535  0.5053  1.1226
  623MOL0     C82167   6.820   1.109   0.432  0.7617 -0.6936  0.4941
  623MOL0     C82168   6.878   1.013   0.400 -0.5180  0.2187 -0.3720
  623MOL0     C82169   6.192   1.480   0.336 -0.2795  0.3468 -0.1822
  623MOL0     C82170   6.079   1.517   0.265  1.2390 -0.0354 -0.7397
  623MOL0     H82171   5.703   1.610  -0.047  0.0900  1.7883  1.6012
  623MOL0     H82172   5.503   1.633  -0.172  1.2565  2.7609  1.7396
  623MOL0     H82173   5.343   1.549  -0.362 -0.0247 -0.3591 -0.5867
  623MOL0     H82174   5.306   1.648  -0.220  3.3581  1.3134 -1.9147
  623MOL0     H82175   5.091   1.471  -0.370 -1.5814  2.0685 -1.9814
  623MOL0     H82176   5.099   1.637  -0.395 -2.8033  1.5031  1.8683
  623MOL0     H82177   5.068   1.675  -0.150 -1.5789 -0.2857  0.1838
  623MOL0     H82178   5.067   1.492  -0.131 -3.2012 -1.0396  1.3183
  623MOL0     H82179   4.861   1.651  -0.288 -1.7029 -0.6255  0.5602
  623MOL0     H82180   4.872   1.474  -0.275  1.5847  0.5899 -2.1916
  623MOL0     H82181   4.723   1.645  -0.119  0.2637 -0.7925 -3.1924
  623MOL0     H82182   4.863   1.614  -0.009  3.0591  3.5770 -2.1114
  623MOL0     H82183   4.850   1.374  -0.065 -0.4552 -0.1020 -2.4324
  623MOL0     H82184   4.700   1.407  -0.159  1.8646  0.3397 -1.1551
  623MOL0     H82185   4.721   1.419   0.148 -1.7460 -1.1390 -0.7025
  623MOL0     H82186   4.588   1.491   0.048 -1.6442 -1.0393 -1.0281
  623MOL0     H82187   4.682   1.210   0.010  0.0168  0.1091 -1.3693
  623MOL0     H82188   4.531   1.280  -0.044 -2.0434  1.3518  0.2086
  623MOL0     H82189   4.469   1.425   0.260  3.7298 -0.4537  2.0688
  623MOL0     H82190   4.329   1.371   0.467 -2.9069  1.6369 -0.0427
  623MOL0     H82191   4.261   1.209   0.495 -0.8473 -0.8366 -0.5537
  623MOL0     H82192   4.185   1.347   0.250  0.8332  1.8305  2.0407
  623MOL0     H82193   4.086   1.379   0.395 -0.4451  0.2377  0.5691
  623MOL0     H82194   4.105   1.143   0.227  0.1639 -1.3854  0.0412
  623MOL0     H82195   4.074   1.106   0.400  0.9105 -1.9911 -2.2201
  623MOL0     H82196   3.865   1.151   0.238 -2.3560  0.7209  0.8365
  623MOL0     H82197   3.906   1.324   0.274 -2.2706 -0.6820 -0.5750
  623MOL0     H82198   3.682   1.329   0.240 -0.2723  0.4284 -0.8644
  623MOL0     H82199   3.460   1.400   0.297 -0.9241 -0.8955 -0.1304
  623MOL0     H82200   3.171   1.619   0.792 -0.4475  2.2008 -2.1113
  623MOL0     H82201   2.926   1.635   0.830 -2.1417 -2.1665  1.3009
  623MOL0     H82202   2.724   1.688   0.779 -0.3232 -0.0684 -1.2498
  623MOL0     H82203   2.681   1.559   0.895 -4.1520 -1.0287 -0.3184
  623MOL0     H82204   2.526   1.671   0.657  1.3019 -1.2294 -1.5788
  623MOL0     H82205   2.478   1.649   0.824  1.9363  1.1843  0.7607
  623MOL0     H82206   2.492   1.408   0.798  3.0676  3.3600  0.2899
  623MOL0     H82207   2.500   1.430   0.618  0.3432 -0.5870  0.6538
  623MOL0     H82208   2.270   1.571   0.701  3.6581  1.2260  1.9825
  623MOL0     H82209   2.280   1.419   0.615  0.3605 -1.0192  0.2243
  623MOL0     H82210   2.275   1.411   0.913 -1.6383  2.0295  0.0453
  623MOL0     H82211   2.246   1.283   0.784 -0.0355 -0.9948  1.5035
  623MOL0     H82212   2.036   1.355   0.732 -0.9911  0.7423  0.5926
  623MOL0     H82213   2.069   1.511   0.824  2.4324  0.9237  0.7820
  623MOL0     H82214   2.056   1.386   1.029 -1.0675  0.4776 -0.2369
  623MOL0     H82215   1.903   1.376   0.946 -0.1880  0.2112  1.5948
  623MOL0     H82216   2.115   1.170   0.931 -0.3091 -1.2303  0.6281
  623MOL0     H82217   1.939   1.159   0.875  0.3336  1.0879 -1.2818
  623MOL0     H82218   2.851   1.311   0.591  1.7069 -1.3887 -0.5125
  623MOL0     H82219   3.093   1.271   0.550 -2.2667 -1.1060  0.6402
  623MOL0     H82220   3.531   1.329   0.707  1.6743  0.6302  0.2123
  623MOL0     H82221   3.753   1.248   0.663  0.8047  0.8196 -0.9731
  623MOL0     H82222   5.374   1.236  -0.076 -3.3471  1.6661  0.6479
  623MOL0     H82223   5.580   1.213   0.068  1.3183 -0.8604 -3.0963
  623MOL0     H82224   5.919   1.209   0.265  0.8859 -1.3437  0.9318
  623MOL0     H82225   6.105   1.158   0.381  1.3662 -2.2853 -3.4150
  623MOL0     H82226   6.412   1.217   0.280 -0.2518  1.7144  0.5796
  623MOL0     H82227   6.315   1.112   0.371 -1.6521  0.1082  0.2856
  623MOL0     H82228   6.515   1.148   0.562  1.3594 -0.9496 -0.8168
  623MOL0     H82229   6.533   1.047   0.425  1.9159  0.4716 -0.3122
  623MOL0     H82230   6.591   1.356   0.437 -1.5344  0.2608 -3.6642
  623MOL0     H82231   6.630   1.248   0.304  0.1038  0.9976 -0.0925
  623MOL0     H82232   6.818   1.311   0.467  0.5498  0.0569  1.3516
  623MOL0     H82233   6.724   1.213   0.589 -2.4903 -3.1719  0.2051
  623MOL0     H82234   6.921   0.918   0.375  2.2520  1.1235  0.6175
  623MOL0     H82235   6.273   1.547   0.361 -0.5088  0.6765 -0.3222
  623MOL0     H82236   6.067   1.618   0.229  0.5284 -0.0893 -0.6663
  624MOL0     O82237   3.766   1.566   8.808 -0.2234 -0.2264 -0.4880
  624MOL0     C82238   3.828   1.571   8.918  1.8176 -0.2366  0.2327
  624MOL0     O82239   3.768   1.545   9.042 -0.3070  0.4870 -0.1742
  624MOL0     C82240   3.635   1.515   9.040  0.0992 -0.7218  0.2020
  624MOL0     C82241   3.601   1.381   9.057 -0.2734 -0.2908  0.6066
  624MOL0     C82242   3.465   1.349   9.044  0.0628 -0.2554 -0.0934
  624MOL0     C82243   3.373   1.448   9.005 -0.5522  0.7777  0.2229
  624MOL0     O82244   3.239   1.412   8.987  0.1892  0.2988  0.1491
  624MOL0     C82245   3.140   1.515   8.986 -0.5448 -0.3741  1.2709
  624MOL0     C82246   2.998   1.460   8.964  0.0114  0.1974  0.5217
  624MOL0     C82247   2.891   1.558   8.908  0.0468 -0.5062 -0.0216
  624MOL0     C82248   2.755   1.495   8.896  0.0065 -0.3422  0.3426
  624MOL0     C82249   2.647   1.604   8.868 -0.4986  0.1359 -0.2325
  624MOL0     C82250   2.595   1.686   8.989 -0.2057  0.1563  0.2857
  624MOL0     C82251   2.522   1.607   9.088 -1.1923  0.1918 -0.1839
  624MOL0     C82252   2.432   1.683   9.196  0.0151 -0.6508  0.1579
  624MOL0     N82253   2.388   1.601   9.312 -0.3175  0.9843  0.1006
  624MOL0     C82254   2.469   1.573   9.417 -0.3047 -0.3215  0.5934
  624MOL0     C82255   2.409   1.471   9.477 -0.1444 -0.0828  0.7580
  624MOL0     C82256   2.454   1.401   9.592 -0.4600  0.0898 -0.0054
  624MOL0     C82257   2.340   1.339   9.671  0.2908 -0.3686 -0.3503
  624MOL0     C82258   2.384   1.253   9.793 -0.2129  0.0071  0.4802
  624MOL0     C82259   2.275   1.244   9.894  0.5909  0.0284  0.2324
  624MOL0     O82260   2.170   1.178   9.838  0.3530 -0.1859  0.4961
  624MOL0     C82261   2.040   1.225   9.849 -1.0763 -0.6082 -0.9805
  624MOL0     C82262   2.002   1.341   9.918  0.2522  0.1681  0.4495
  624MOL0     C82263   1.862   1.365   9.926  0.0967 -0.7612  0.0382
  624MOL0     C82264   1.765   1.289   9.855  0.3745 -0.2824  0.9474
  624MOL0     C82265   1.618   1.319   9.848  0.0294 -0.4111 -1.1136
  624MOL0     O82266   1.570   1.436   9.912 -0.0397  1.1661  0.1943
  624MOL0     C82267   1.441   1.479   9.873  0.1411  0.9302 -0.1688
  624MOL0     C82268   1.335   1.419   9.928 -0.1650  0.2668 -0.0106
  624MOL0     C82269   1.209   1.436   9.876  0.6176  0.5993  0.7354
  624MOL0     C82270   1.190   1.526   9.773  0.2643  1.0913 -0.0968
  624MOL0     O82271   1.067   1.540   9.720 -0.2245  0.2570  0.0218
  624MOL0     C82272   1.045   1.618   9.603 -0.2543  0.3469  0.6223
  624MOL0     C82273   0.912   1.588   9.545  0.1557  0.0368 -0.1139
  624MOL0     C82274   0.890   1.692   9.424 -0.0600 -0.4429  0.6470
  624MOL0     C82275   0.849   1.837   9.461  0.0784 -0.3823 -0.0356
  624MOL0     C82276   0.851   1.926   9.330 -0.2264  0.0179  0.3456
  624MOL0     C82277   0.845   2.070   9.374 -0.5896  0.2999  0.6154
  624MOL0     C82278   0.860   2.158   9.245  0.3520 -0.5070  0.1493
  624MOL0     C82279   0.917   2.296   9.289  0.3146 -0.5327 -0.7909
  624MOL0    Cl82280   0.801   2.381   9.405 -0.0858 -0.2452  0.6233
  624MOL0     C82281   1.300   1.594   9.719  0.0027  1.0813 -0.2593
  624MOL0     C82282   1.423   1.571   9.770 -0.3234  0.5508  0.1666
  624MOL0     O82283   1.550   1.238   9.792 -0.2322  0.2500  0.2464
  624MOL0     C82284   1.818   1.190   9.777  0.3274 -0.0974  0.0113
  624MOL0     C82285   1.949   1.147   9.783  0.5772  0.1945 -0.3300
  624MOL0     N82286   2.301   1.429   9.401 -0.0884 -0.2338  0.7608
  624MOL0     N82287   2.283   1.514   9.307  0.3714 -0.4673 -0.3869
  624MOL0     C82288   3.414   1.579   8.992  0.3702 -0.4422 -0.1194
  624MOL0     C82289   3.548   1.610   9.009  0.0758  0.7994 -0.7030
  624MOL0     C82290   3.973   1.601   8.904  0.2674  0.2000  0.0937
  624MOL0     C82291   4.047   1.657   9.016  0.3432  0.0881 -0.4085
  624MOL0     C82292   4.185   1.692   9.007 -0.1164 -0.1588  1.3528
  624MOL0     C82293   4.256   1.672   8.884 -0.0888 -0.6219  0.6890
  624MOL0     O82294   4.389   1.688   8.867  0.3276  0.0529  0.0301
  624MOL0     C82295   4.458   1.756   8.972 -0.3579  0.7271 -0.1559
  624MOL0     C82296   4.600   1.759   8.927 -0.2237 -0.0553 -1.0038
  624MOL0     C82297   4.622   1.874   8.830  0.0831 -0.3683  0.3431
  624MOL0     C82298   4.752   1.956   8.850  1.3992 -0.3335 -0.0059
  624MOL0     C82299   4.875   1.877   8.822  1.0714  0.7202 -0.4163
  624MOL0     C82300   4.969   1.810   8.795 -0.6804 -0.1696  0.0385
  624MOL0     C82301   4.180   1.630   8.778 -0.5052 -0.1291  0.1291
  624MOL0     C82302   4.049   1.593   8.781 -0.2880  0.0960  0.9133
  624MOL0     H82303   3.682   1.319   9.092 -0.3224  1.1923  3.6226
  624MOL0     H82304   3.436   1.250   9.078  0.9279  0.3421  2.6127
  624MOL0     H82305   3.154   1.585   8.903 -1.8711  0.2235  1.5262
  624MOL0     H82306   3.139   1.574   9.078 -0.2384 -0.0791  1.0864
  624MOL0     H82307   2.952   1.400   9.043 -0.0714  0.0303  0.3464
  624MOL0     H82308   3.003   1.390   8.881  2.6141 -0.5684  1.2280
  624MOL0     H82309   2.922   1.595   8.810  2.7631  0.7409  1.1910
  624MOL0     H82310   2.883   1.644   8.976  3.0797  1.7970 -2.2810
  624MOL0     H82311   2.758   1.421   8.815 -0.9605  1.3631 -1.3139
  624MOL0     H82312   2.739   1.438   8.988 -0.4239  0.5831  0.8463
  624MOL0     H82313   2.570   1.537   8.828  0.8435 -1.8208  0.3273
  624MOL0     H82314   2.667   1.675   8.787 -2.7684  1.1096 -0.0170
  624MOL0     H82315   2.529   1.765   8.952 -1.4371 -0.7819  0.3945
  624MOL0     H82316   2.682   1.735   9.034 -0.5753  0.9712  0.1330
  624MOL0     H82317   2.450   1.550   9.028  0.7563 -1.6001 -0.9496
  624MOL0     H82318   2.588   1.535   9.137 -2.3839 -0.8893 -0.1066
  624MOL0     H82319   2.341   1.713   9.144  0.0263 -1.7695 -0.5285
  624MOL0     H82320   2.484   1.774   9.228 -2.1041  1.2440 -1.4970
  624MOL0     H82321   2.561   1.620   9.451  0.3681 -2.4120  1.9030
  624MOL0     H82322   2.516   1.457   9.664 -0.2791 -1.1027  0.7987
  624MOL0     H82323   2.517   1.315   9.565 -1.2079 -0.3460 -0.3774
  624MOL0     H82324   2.277   1.284   9.600  1.9031  1.6845 -3.6271
  624MOL0     H82325   2.285   1.421   9.718  1.9173  1.8738 -2.1580
  624MOL0     H82326   2.422   1.155   9.761  0.7886  0.4168  0.3940
  624MOL0     H82327   2.469   1.303   9.840  2.1636  1.2149 -4.3811
  624MOL0     H82328   2.250   1.346   9.927 -2.1010  0.4431 -2.6502
  624MOL0     H82329   2.322   1.193   9.979  2.2730  1.0567 -0.0490
  624MOL0     H82330   2.069   1.416   9.959 -1.1198  0.4546  2.2884
  624MOL0     H82331   1.836   1.456   9.981 -2.2282 -1.5649  0.3943
  624MOL0     H82332   1.342   1.354  10.015 -2.7860  0.6889  0.5828
  624MOL0     H82333   1.123   1.382   9.913 -1.0341  3.2153  0.8989
  624MOL0     H82334   1.114   1.584   9.525 -0.6677  0.4601  0.2019
  624MOL0     H82335   1.061   1.725   9.621  0.8400  0.2175  0.5148
  624MOL0     H82336   0.827   1.595   9.613  0.2699 -0.5648  0.0981
  624MOL0     H82337   0.904   1.485   9.510 -0.0334  0.8557 -2.6605
  624MOL0     H82338   0.819   1.657   9.349  1.7043 -0.6956 -0.9835
  624MOL0     H82339   0.980   1.691   9.362 -0.1015 -3.0850  0.5396
  624MOL0     H82340   0.753   1.844   9.512 -0.4984 -1.2171 -0.9654
  624MOL0     H82341   0.930   1.873   9.525  0.2722 -0.3185 -0.3154
  624MOL0     H82342   0.758   1.911   9.275 -0.0918 -0.1246  0.1568
  624MOL0     H82343   0.935   1.899   9.264  0.1884  0.4971  0.6657
  624MOL0     H82344   0.928   2.083   9.444 -0.3108 -0.9240  0.5344
  624MOL0     H82345   0.753   2.091   9.429 -0.2579 -1.1845  1.8038
  624MOL0     H82346   0.926   2.125   9.164  0.4871  0.3488 -0.1072
  624MOL0     H82347   0.759   2.176   9.207  0.0890  2.4812  1.9096
  624MOL0     H82348   0.940   2.354   9.199 -1.2418  0.8571 -0.3397
  624MOL0     H82349   1.009   2.286   9.348  0.1498 -0.0418 -0.4403
  624MOL0     H82350   1.288   1.650   9.627 -2.3823 -1.0078 -1.3603
  624MOL0     H82351   1.511   1.624   9.734 -0.3987  0.5028 -0.0913
  624MOL0     H82352   1.748   1.133   9.717 -0.2636 -1.9135  2.3066
  624MOL0     H82353   1.980   1.072   9.711 -0.2377  1.1424 -1.7170
  624MOL0     H82354   3.343   1.653   8.956  1.5731  1.0107  0.3930
  624MOL0     H82355   3.586   1.711   9.004  0.6142  0.6831  0.4578
  624MOL0     H82356   3.999   1.666   9.113  2.0626 -1.2607  0.6483
  624MOL0     H82357   4.240   1.729   9.092 -0.2711 -0.2459  1.4916
  624MOL0     H82358   4.446   1.688   9.057 -2.2977  1.0624 -0.1109
  624MOL0     H82359   4.404   1.849   8.990 -0.8649  0.3482  0.3429
  624MOL0     H82360   4.640   1.781   9.027 -3.2551  0.8679  0.1252
  624MOL0     H82361   4.635   1.660   8.896 -1.1888 -0.3492 -1.1754
  624MOL0     H82362   4.539   1.945   8.837 -0.4747 -0.9722 -0.0216
  624MOL0     H82363   4.611   1.848   8.724 -0.3360  0.4089  0.1864
  624MOL0     H82364   4.756   2.053   8.800 -1.4374 -0.4296 -0.5960
  624MOL0     H82365   4.767   1.982   8.955  1.5664  1.0331 -0.3567
  624MOL0     H82366   5.049   1.747   8.762  1.0943  1.5615  0.8482
  624MOL0     H82367   4.235   1.627   8.685 -0.3347  4.2191 -0.1254
  624MOL0     H82368   3.989   1.565   8.694  1.9009  0.8100 -0.9351
  625MOL0     O82369  10.014   6.506   8.583  0.2282  0.5157  0.1621
  625MOL0     C82370  10.092   6.569   8.515 -0.4840  0.4081 -0.0768
  625MOL0     O82371  10.063   6.683   8.453 -0.4501 -0.6088 -0.3296
  625MOL0     C82372   9.944   6.755   8.466  0.7003  0.0420 -0.8901
  625MOL0     C82373   9.963   6.898   8.479 -0.2524 -0.2612  0.0672
  625MOL0     C82374   9.849   6.977   8.475 -0.0253  0.7037 -0.7276
  625MOL0     C82375   9.722   6.919   8.484 -0.5683 -0.1494  0.4675
  625MOL0     O82376   9.603   6.988   8.476  0.4047  0.8169  0.2312
  625MOL0     C82377   9.534   7.000   8.602 -0.2520  0.5302  0.9149
  625MOL0     C82378   9.437   7.113   8.596 -0.8720 -0.3183 -0.3495
  625MOL0     C82379   9.347   7.091   8.473  0.6983 -0.3233 -0.1565
  625MOL0     C82380   9.234   7.196   8.484  0.2631  0.3252  0.1394
  625MOL0     C82381   9.135   7.199   8.369 -0.3361  0.0454 -0.1091
  625MOL0     C82382   9.040   7.317   8.363 -0.7744 -0.6417  0.7162
  625MOL0     C82383   8.989   7.345   8.224 -0.0508  0.5424  0.3641
  625MOL0     C82384   8.837   7.334   8.215 -0.3466 -0.6703  1.0215
  625MOL0     N82385   8.785   7.346   8.074  0.0119  0.6411  0.0070
  625MOL0     C82386   8.773   7.456   7.999  0.0054  0.1538  0.4032
  625MOL0     C82387   8.722   7.414   7.880  0.1918 -0.0987  0.5753
  625MOL0     C82388   8.669   7.522   7.790 -0.0310  0.0006 -0.6556
  625MOL0     C82389   8.521   7.548   7.817 -0.1178  0.3348  0.1498
  625MOL0     C82390   8.444   7.592   7.692 -0.0914  0.1198 -0.3341
  625MOL0     C82391   8.294   7.538   7.699 -1.2708  0.7983  0.5043
  625MOL0     O82392   8.222   7.535   7.573 -0.9452 -0.4039  0.4974
  625MOL0     C82393   8.088   7.528   7.583  0.6068  0.8138 -1.0142
  625MOL0     C82394   8.016   7.470   7.700 -0.0372 -0.0548 -0.0323
  625MOL0     C82395   7.875   7.465   7.701 -0.0317 -0.7646 -0.0275
  625MOL0     C82396   7.803   7.523   7.589 -0.0640  0.1124 -0.3292
  625MOL0     C82397   7.655   7.505   7.576 -0.3041  0.0984 -0.1034
  625MOL0     O82398   7.598   7.554   7.469 -1.0339 -0.0892  0.9424
  625MOL0     C82399   7.460   7.522   7.457  0.1787 -0.0922  0.8125
  625MOL0     C82400   7.367   7.632   7.468  1.1986 -0.1208 -0.2044
  625MOL0     C82401   7.234   7.611   7.465  0.7266  1.2502  0.6109
  625MOL0     C82402   7.176   7.487   7.433  0.6981 -0.4651  0.1019
  625MOL0     O82403   7.041   7.490   7.416 -0.4529  1.1146  0.6689
  625MOL0     C82404   6.975   7.359   7.385 -0.2469  0.0932 -0.2457
  625MOL0     C82405   6.837   7.373   7.314  1.3440 -0.2010 -0.5867
  625MOL0     C82406   6.748   7.476   7.381  0.2881 -0.4462 -0.1155
  625MOL0     C82407   6.619   7.521   7.304 -0.6087 -0.7564  0.1905
  625MOL0     C82408   6.499   7.429   7.353  0.9997 -0.9733  0.8843
  625MOL0     C82409   6.365   7.476   7.285 -0.1767  0.2024  0.0065
  625MOL0     C82410   6.258   7.375   7.330  0.7547 -0.1578  0.1952
  625MOL0     C82411   6.118   7.408   7.263  0.4772 -0.2310 -0.2894
  625MOL0    Cl82412   6.001   7.296   7.330 -0.1089  0.1779 -0.1372
  625MOL0     C82413   7.270   7.372   7.416  0.7476  0.0560  0.4035
  625MOL0     C82414   7.406   7.391   7.428  0.3263  0.1197  0.1947
  625MOL0     O82415   7.597   7.445   7.668 -0.1200 -0.1912  0.4263
  625MOL0     C82416   7.870   7.575   7.483  0.6043 -0.0772 -0.4069
  625MOL0     C82417   8.013   7.572   7.483  0.4566  0.3883  0.0672
  625MOL0     N82418   8.677   7.284   7.897  0.4409  0.1319 -0.1209
  625MOL0     N82419   8.732   7.246   8.003  0.2654 -0.2961  0.3963
  625MOL0     C82420   9.707   6.781   8.468  0.0237  0.3813  0.1913
  625MOL0     C82421   9.817   6.699   8.462 -0.1132 -0.3564 -0.4114
  625MOL0     C82422  10.235   6.521   8.510 -0.0669  0.3543  0.4474
  625MOL0     C82423  10.332   6.584   8.429  0.3155 -0.2897  1.0347
  625MOL0     C82424  10.467   6.540   8.427 -0.6764  0.3286  0.4933
  625MOL0     C82425  10.501   6.422   8.493 -0.5569  0.5011 -0.0919
  625MOL0     O82426  10.632   6.367   8.475 -0.0714  0.2948  0.0021
  625MOL0     C82427  10.655   6.228   8.508  0.3318 -0.1725  0.0382
  625MOL0     C82428  10.733   6.167   8.392  0.3006 -0.3928 -1.7079
  625MOL0     C82429  10.762   6.026   8.418  0.1981  0.4108  0.1592
  625MOL0     C82430  10.838   5.960   8.308  0.2374  0.2682  0.0215
  625MOL0     C82431  10.972   6.014   8.289 -0.4984 -0.1488  0.0028
  625MOL0     C82432  11.080   6.058   8.253 -0.4537  0.5000  0.0331
  625MOL0     C82433  10.408   6.371   8.581 -0.4176  0.5400 -0.4887
  625MOL0     C82434  10.280   6.419   8.596  0.3535  0.2032 -0.2330
  625MOL0     H82435  10.051   6.961   8.486  0.2863 -0.8229 -1.2909
  625MOL0     H82436   9.848   7.085   8.490 -0.8596  0.4171  1.6408
  625MOL0     H82437   9.608   7.023   8.678 -1.0311  1.1464  1.5095
  625MOL0     H82438   9.486   6.903   8.622 -0.7197  0.7896  1.0646
  625MOL0     H82439   9.489   7.210   8.594 -0.9236 -0.0946  3.1533
  625MOL0     H82440   9.382   7.106   8.691 -0.1681  2.0987  0.3261
  625MOL0     H82441   9.312   6.987   8.476 -0.2270  0.0059  0.7873
  625MOL0     H82442   9.402   7.105   8.379 -0.5091 -2.0225 -1.1729
  625MOL0     H82443   9.175   7.171   8.573  1.6766 -0.7215  0.8205
  625MOL0     H82444   9.281   7.295   8.490  0.0745  0.6859 -2.9212
  625MOL0     H82445   9.082   7.104   8.372 -0.2512 -0.0313 -0.9253
  625MOL0     H82446   9.202   7.198   8.282 -1.8031  0.5857 -1.2807
  625MOL0     H82447   9.101   7.403   8.394 -0.9969 -0.8801  1.8860
  625MOL0     H82448   8.955   7.318   8.433 -1.9135  3.3013 -0.4399
  625MOL0     H82449   9.010   7.445   8.185 -1.5603 -0.3818 -3.2955
  625MOL0     H82450   9.028   7.273   8.151  0.1284  0.4261  0.5762
  625MOL0     H82451   8.782   7.404   8.278 -2.0106 -1.0483  0.0433
  625MOL0     H82452   8.810   7.231   8.240 -2.1650  0.2055  2.9827
  625MOL0     H82453   8.803   7.556   8.029  0.2060  0.4540 -0.7419
  625MOL0     H82454   8.683   7.476   7.692  0.4140 -3.4354  0.8940
  625MOL0     H82455   8.726   7.616   7.786  0.9718 -0.6046 -0.8402
  625MOL0     H82456   8.518   7.630   7.890  1.7612  2.1126 -1.6479
  625MOL0     H82457   8.469   7.460   7.857 -1.2869  0.8744 -0.1525
  625MOL0     H82458   8.445   7.700   7.679 -2.8109  0.2680  0.1328
  625MOL0     H82459   8.480   7.547   7.599 -2.3182 -0.8317 -0.8236
  625MOL0     H82460   8.249   7.610   7.767 -1.0163  0.2261  1.3045
  625MOL0     H82461   8.301   7.432   7.727 -0.9989  0.4042 -0.9554
  625MOL0     H82462   8.054   7.425   7.790 -2.3133 -1.0823  0.4932
  625MOL0     H82463   7.832   7.426   7.792 -2.0585  3.1040  0.9035
  625MOL0     H82464   7.409   7.731   7.486 -1.4727  0.8118  1.5831
  625MOL0     H82465   7.173   7.697   7.491 -1.0798  0.7159 -1.4822
  625MOL0     H82466   6.969   7.300   7.477 -1.1657 -1.4710 -1.2689
  625MOL0     H82467   7.043   7.299   7.322  4.0383  1.1045  2.9415
  625MOL0     H82468   6.785   7.277   7.318  0.3882  0.2261 -2.0640
  625MOL0     H82469   6.863   7.402   7.212  0.0015 -0.5428 -1.0475
  625MOL0     H82470   6.821   7.557   7.379  1.3222 -1.3522 -2.1821
  625MOL0     H82471   6.714   7.456   7.483 -1.0775 -1.0266 -0.6611
  625MOL0     H82472   6.611   7.623   7.343  1.4571  0.1893 -1.5762
  625MOL0     H82473   6.638   7.524   7.196 -0.4354  0.5271  0.2344
  625MOL0     H82474   6.488   7.433   7.461 -1.7981 -1.9891  0.7293
  625MOL0     H82475   6.516   7.324   7.327  0.1372 -1.0485  0.5810
  625MOL0     H82476   6.377   7.488   7.177  1.9999  0.9907  0.2851
  625MOL0     H82477   6.345   7.580   7.313 -0.8625  0.9766 -2.9870
  625MOL0     H82478   6.282   7.273   7.296 -2.8824 -1.7897  2.0014
  625MOL0     H82479   6.251   7.368   7.438  0.9084 -3.8346  0.0853
  625MOL0     H82480   6.112   7.394   7.155 -5.8008  1.1766 -0.5133
  625MOL0     H82481   6.076   7.507   7.286  0.9663 -0.5161  2.1523
  625MOL0     H82482   7.227   7.273   7.400  0.7017  0.3846 -1.8726
  625MOL0     H82483   7.470   7.303   7.422  1.3619  0.6976  2.0017
  625MOL0     H82484   7.802   7.614   7.408 -1.3521  0.8952  1.7034
  625MOL0     H82485   8.065   7.602   7.393 -0.9840  0.8558 -0.6432
  625MOL0     H82486   9.606   6.745   8.484  0.3260 -0.1403  0.9981
  625MOL0     H82487   9.798   6.592   8.460  0.3939 -0.6430  3.2502
  625MOL0     H82488  10.304   6.673   8.372  0.8061  0.6650  2.2338
  625MOL0     H82489  10.535   6.589   8.358  0.9714 -1.2705  0.9129
  625MOL0     H82490  10.564   6.167   8.511  0.7171 -0.7471  0.1268
  625MOL0     H82491  10.703   6.224   8.606 -1.6533 -1.1419  1.0381
  625MOL0     H82492  10.673   6.175   8.301 -1.2310 -0.2834 -0.7259
  625MOL0     H82493  10.828   6.219   8.380  1.2550 -1.4430  0.7271
  625MOL0     H82494  10.663   5.980   8.428  0.4875 -1.0256 -2.7332
  625MOL0     H82495  10.816   6.020   8.513  1.4886  4.3114 -0.1601
  625MOL0     H82496  10.835   5.852   8.323 -2.6883  0.0352 -1.5442
  625MOL0     H82497  10.781   5.968   8.215 -1.7720 -2.5430  0.8526
  625MOL0     H82498  11.175   6.097   8.221  1.0702  0.0125  3.4921
  625MOL0     H82499  10.444   6.285   8.636  0.5752 -0.2283 -2.2579
  625MOL0     H82500  10.226   6.366   8.675  0.2195  1.6481  0.6826
  626MOL0     O82501   7.423   5.329  10.531  0.3902 -0.0049  0.6016
  626MOL0     C82502   7.531   5.280  10.548 -0.1370  0.0112  0.1213
  626MOL0     O82503   7.563   5.191  10.651  0.2798 -0.5118 -0.8425
  626MOL0     C82504   7.476   5.177  10.764 -0.1885 -1.2994 -0.8179
  626MOL0     C82505   7.467   5.055  10.831 -0.2255  0.1700  0.4973
  626MOL0     C82506   7.370   5.035  10.924  0.9691 -0.1944 -0.4821
  626MOL0     C82507   7.279   5.135  10.965  0.6598  0.4054 -0.4778
  626MOL0     O82508   7.193   5.126  11.065 -0.4668  0.1259 -0.0752
  626MOL0     C82509   7.201   5.008  11.150  0.3707 -0.3329  0.3779
  626MOL0     C82510   7.109   5.003  11.273 -0.7153 -0.1197 -0.1548
  626MOL0     C82511   6.974   4.924  11.269 -0.3341 -0.3750 -0.5300
  626MOL0     C82512   6.991   4.762  11.264  0.0764 -0.1460 -0.3226
  626MOL0     C82513   6.860   4.700  11.216  0.4719  1.1409 -0.8140
  626MOL0     C82514   6.739   4.715  11.308 -0.1975 -0.4532  0.1502
  626MOL0     C82515   6.607   4.678  11.237  0.0792 -0.9235  0.3778
  626MOL0     C82516   6.602   4.526  11.201  0.0054  0.8124 -0.6844
  626MOL0     N82517   6.461   4.481  11.151 -0.4617  0.1372  0.6987
  626MOL0     C82518   6.378   4.559  11.068 -0.6940 -0.5975  0.1700
  626MOL0     C82519   6.267   4.483  11.049  0.2708  0.2295 -0.1209
  626MOL0     C82520   6.148   4.525  10.971 -0.5736 -0.6119 -0.5039
  626MOL0     C82521   6.073   4.634  11.042  0.1329 -0.1435 -0.8442
  626MOL0     C82522   6.030   4.599  11.185 -0.3655 -0.1549  0.0059
  626MOL0     C82523   5.921   4.498  11.182 -0.5176 -0.4174  0.0444
  626MOL0     O82524   5.807   4.562  11.123 -0.3045 -0.0464 -0.4241
  626MOL0     C82525   5.680   4.510  11.142 -0.9342  1.6217 -0.3882
  626MOL0     C82526   5.655   4.384  11.205 -1.0938 -0.1816  0.8424
  626MOL0     C82527   5.528   4.331  11.216 -0.0474  0.4966 -0.0603
  626MOL0     C82528   5.421   4.411  11.173 -0.3522 -0.0162  0.5644
  626MOL0     C82529   5.286   4.354  11.210  0.6153 -0.2398 -0.8128
  626MOL0     O82530   5.183   4.449  11.207 -0.0604  0.3076 -0.4753
  626MOL0     C82531   5.064   4.398  11.238 -0.0474 -0.0576  0.2419
  626MOL0     C82532   5.022   4.397  11.376  0.8788 -0.6171  0.5591
  626MOL0     C82533   4.902   4.329  11.401  0.2154 -0.4251  0.3164
  626MOL0     C82534   4.819   4.287  11.295  0.0427 -0.3581  0.1651
  626MOL0     O82535   4.702   4.211  11.320 -1.1224  0.2320  0.0686
  626MOL0     C82536   4.612   4.265  11.414 -0.5587 -0.3530  0.6184
  626MOL0     C82537   4.488   4.178  11.444  0.1621 -0.5447 -0.2858
  626MOL0     C82538   4.386   4.212  11.329  0.7495 -0.6382 -0.4015
  626MOL0     C82539   4.253   4.139  11.343 -0.4876 -0.7989  0.2966
  626MOL0     C82540   4.177   4.132  11.208 -0.8609  0.0066 -0.7038
  626MOL0     C82541   4.056   4.220  11.209  0.2410 -0.7160 -0.8884
  626MOL0     C82542   3.979   4.208  11.082  0.8369 -0.2424  0.2874
  626MOL0     C82543   3.842   4.290  11.084 -0.5439 -0.1268  0.4742
  626MOL0    Cl82544   3.710   4.201  11.172 -0.3957 -0.1345  0.2385
  626MOL0     C82545   4.860   4.300  11.166 -0.0911  0.7113 -0.0877
  626MOL0     C82546   4.986   4.343  11.137  0.0036  0.1244 -0.0147
  626MOL0     O82547   5.273   4.238  11.214  0.0497 -0.4502 -0.0390
  626MOL0     C82548   5.439   4.533  11.112 -0.1095  0.0812 -0.1915
  626MOL0     C82549   5.564   4.582  11.089 -0.0324  0.7304  0.2458
  626MOL0     N82550   6.282   4.362  11.115 -0.0222 -0.5751 -0.8047
  626MOL0     N82551   6.405   4.357  11.170  0.1004  0.3235  0.9057
  626MOL0     C82552   7.287   5.257  10.895  0.9988  0.3341 -0.5866
  626MOL0     C82553   7.387   5.284  10.803 -0.5506 -0.4988  0.2598
  626MOL0     C82554   7.629   5.304  10.442 -0.3628  0.6072  0.1378
  626MOL0     C82555   7.764   5.271  10.462  0.0419 -0.8762  0.0816
  626MOL0     C82556   7.860   5.289  10.358 -0.3391 -0.7416  0.4675
  626MOL0     C82557   7.814   5.341  10.233 -0.2289 -0.7553  0.3195
  626MOL0     O82558   7.894   5.379  10.126  0.5317 -0.1463 -0.6840
  626MOL0     C82559   8.021   5.327  10.110  0.0251 -0.6877 -1.4415
  626MOL0     C82560   8.093   5.384   9.992 -0.1379  0.6010  0.7696
  626MOL0     C82561   8.103   5.526   9.957  0.1353  0.3186 -0.1604
  626MOL0     C82562   8.167   5.545   9.820 -0.6358 -0.4896 -1.1557
  626MOL0     C82563   8.193   5.693   9.801 -0.1744  0.1009  0.4552
  626MOL0     C82564   8.204   5.811   9.788  0.4430  0.4177  0.2483
  626MOL0     C82565   7.682   5.368  10.215  0.1689  0.2249 -0.0382
  626MOL0     C82566   7.591   5.351  10.312 -0.2110 -0.3427  0.4024
  626MOL0     H82567   7.548   4.983  10.823  1.6763  1.9256  2.5198
  626MOL0     H82568   7.376   4.940  10.976  1.3356 -0.8392 -1.6515
  626MOL0     H82569   7.306   5.004  11.182  1.9932 -0.1741 -4.1459
  626MOL0     H82570   7.190   4.916  11.092 -0.0585  0.1989 -0.4023
  626MOL0     H82571   7.088   5.107  11.300 -2.6262 -0.2906 -0.7932
  626MOL0     H82572   7.167   4.959  11.354 -2.1017  0.2288  1.0602
  626MOL0     H82573   6.918   4.971  11.187 -0.4775  0.8627  0.2591
  626MOL0     H82574   6.909   4.935  11.356  1.6168 -2.6451  1.3398
  626MOL0     H82575   7.072   4.738  11.195  2.8454  3.6124  1.2955
  626MOL0     H82576   7.014   4.725  11.365  0.5776 -0.6693 -0.6245
  626MOL0     H82577   6.881   4.592  11.219 -2.3446  0.5379  0.5300
  626MOL0     H82578   6.836   4.722  11.112  1.1258  0.8893 -1.0271
  626MOL0     H82579   6.739   4.819  11.342  0.3910 -1.1891  2.6059
  626MOL0     H82580   6.748   4.665  11.405  0.8627  0.9282  0.8026
  626MOL0     H82581   6.520   4.720  11.289 -0.5340  0.2079 -1.5002
  626MOL0     H82582   6.611   4.734  11.144  0.5665  1.1193  1.5659
  626MOL0     H82583   6.617   4.468  11.292  1.8541  2.5185  0.1531
  626MOL0     H82584   6.677   4.497  11.126  1.4277 -1.3110  1.4224
  626MOL0     H82585   6.395   4.659  11.030  1.4437 -1.2401 -0.7078
  626MOL0     H82586   6.092   4.431  10.967 -0.1405 -0.9598  0.9363
  626MOL0     H82587   6.189   4.560  10.876  0.6266 -1.5969 -0.3697
  626MOL0     H82588   5.989   4.666  10.979 -0.0439  1.0649 -0.0389
  626MOL0     H82589   6.132   4.726  11.046 -2.1269  1.3563  0.6335
  626MOL0     H82590   6.117   4.558  11.237 -0.5176  0.4128  0.7138
  626MOL0     H82591   5.993   4.688  11.236 -1.9056  0.6806 -2.4208
  626MOL0     H82592   5.909   4.475  11.288  0.3538  0.5061  0.3617
  626MOL0     H82593   5.940   4.401  11.136 -1.6294 -2.0800  2.8580
  626MOL0     H82594   5.735   4.316  11.233  0.2745 -0.0859 -2.4522
  626MOL0     H82595   5.533   4.229  11.252  0.1658  0.4491 -0.2233
  626MOL0     H82596   5.088   4.439  11.451  0.5481  3.8566 -1.2815
  626MOL0     H82597   4.883   4.315  11.507  2.5559  3.2991  1.4308
  626MOL0     H82598   4.577   4.366  11.389 -1.0077 -1.3406 -3.4143
  626MOL0     H82599   4.678   4.275  11.501  0.5954  0.5509 -0.3365
  626MOL0     H82600   4.449   4.195  11.545 -2.7883  0.5700 -1.5184
  626MOL0     H82601   4.521   4.073  11.445  0.4251 -0.4624 -0.1759
  626MOL0     H82602   4.421   4.179  11.230 -0.7576  0.4873 -1.3721
  626MOL0     H82603   4.355   4.316  11.316 -2.2192 -1.3406  0.2400
  626MOL0     H82604   4.275   4.036  11.373  2.7341 -0.3716 -0.2405
  626MOL0     H82605   4.196   4.192  11.420  0.1645  0.8728 -0.3148
  626MOL0     H82606   4.144   4.029  11.196  2.8530 -1.6291  1.5806
  626MOL0     H82607   4.239   4.141  11.119 -0.2395 -0.7840 -0.3586
  626MOL0     H82608   4.095   4.322  11.200  0.6387 -0.8076 -0.2629
  626MOL0     H82609   3.994   4.215  11.299  0.7525 -0.4997 -0.5204
  626MOL0     H82610   4.044   4.243  11.000 -1.0683 -2.3158 -2.2713
  626MOL0     H82611   3.962   4.106  11.049 -0.1061  0.6833 -2.4133
  626MOL0     H82612   3.819   4.286  10.977  2.3785 -1.5629 -0.2145
  626MOL0     H82613   3.857   4.392  11.121  1.1400 -0.6043  1.2009
  626MOL0     H82614   4.807   4.253  11.084  0.5428 -0.2765  0.0447
  626MOL0     H82615   5.000   4.341  11.029 -2.8914  1.2550 -0.5227
  626MOL0     H82616   5.358   4.599  11.080 -1.7674 -0.6732  2.1166
  626MOL0     H82617   5.596   4.667  11.029  2.2371 -1.5588 -2.0545
  626MOL0     H82618   7.215   5.337  10.905  0.7713  0.2973 -1.8555
  626MOL0     H82619   7.386   5.380  10.751 -0.5105 -0.5245  0.2116
  626MOL0     H82620   7.794   5.226  10.556  0.0288 -1.7300 -0.3139
  626MOL0     H82621   7.965   5.264  10.363  0.1557  1.3570  1.5951
  626MOL0     H82622   8.014   5.218  10.107 -1.1444 -0.6063 -2.2610
  626MOL0     H82623   8.077   5.359  10.199  0.0061 -0.9864 -1.3228
  626MOL0     H82624   8.197   5.351  10.007  0.0150  1.2784  1.2772
  626MOL0     H82625   8.041   5.330   9.914 -1.1052  1.3557  0.8707
  626MOL0     H82626   8.165   5.584  10.026 -1.5964  4.5151 -1.8001
  626MOL0     H82627   8.005   5.573   9.964  1.9009  4.1427  2.0093
  626MOL0     H82628   8.265   5.497   9.827 -0.4263  0.1249  0.7093
  626MOL0     H82629   8.107   5.505   9.738 -0.8304  0.7601 -1.6353
  626MOL0     H82630   8.201   5.916   9.764  0.0304  0.3141 -0.1663
  626MOL0     H82631   7.655   5.412  10.120  0.0221  0.4603  0.1134
  626MOL0     H82632   7.488   5.380  10.291 -0.2142  0.9461  2.0330
  627MOL0     O82633   9.243   9.891   6.104  0.3695 -0.0776  0.1717
  627MOL0     C82634   9.289   9.996   6.158  0.7623 -0.3577  0.2274
  627MOL0     O82635   9.249  10.048   6.279  0.4651 -0.1301 -0.3187
  627MOL0     C82636   9.148   9.979   6.354  0.1245 -0.2717 -0.2053
  627MOL0     C82637   9.173   9.923   6.482  0.1265 -0.7589  0.5118
  627MOL0     C82638   9.066   9.877   6.561  0.4852  0.0378 -0.1135
  627MOL0     C82639   8.930   9.897   6.517 -0.5344  0.1627  0.2150
  627MOL0     O82640   8.837   9.867   6.611 -0.0870 -0.0853  0.2449
  627MOL0     C82641   8.704   9.924   6.592 -0.4843 -0.1178  0.1260
  627MOL0     C82642   8.626   9.902   6.718  0.1387 -0.3535 -0.3832
  627MOL0     C82643   8.474   9.934   6.702  0.8424 -0.1525 -0.6447
  627MOL0     C82644   8.410   9.925   6.841 -0.4982  0.3006  0.0476
  627MOL0     C82645   8.254   9.890   6.826  0.1872  0.3808  0.3602
  627MOL0     C82646   8.195   9.842   6.957 -0.4843  0.3124  0.5717
  627MOL0     C82647   8.054   9.889   6.978 -0.7464  0.2236 -0.1251
  627MOL0     C82648   7.952   9.800   6.908 -0.7009 -1.0566 -0.4472
  627MOL0     N82649   7.832   9.878   6.889  0.5133 -0.2164  0.2942
  627MOL0     C82650   7.749   9.930   6.986  0.4175 -0.1836 -0.0860
  627MOL0     C82651   7.639   9.977   6.923 -0.3352 -0.0901  1.0286
  627MOL0     C82652   7.523  10.037   6.988 -0.4726 -0.2203 -0.8738
  627MOL0     C82653   7.416   9.926   6.991  0.8431  0.5882  0.2404
  627MOL0     C82654   7.314   9.938   7.102  0.6347 -0.2477 -0.4330
  627MOL0     C82655   7.201   9.842   7.092 -0.1353 -0.0575  0.8908
  627MOL0     O82656   7.108   9.895   6.994 -0.0149 -0.1961 -0.7957
  627MOL0     C82657   6.990   9.827   7.015  0.2085  0.5295 -0.4032
  627MOL0     C82658   6.907   9.890   7.116 -0.3577 -0.4096 -0.4084
  627MOL0     C82659   6.798   9.818   7.166 -0.1830 -0.3586 -0.0316
  627MOL0     C82660   6.767   9.687   7.119  0.3044 -0.5063  1.0982
  627MOL0     C82661   6.664   9.603   7.188  0.1694 -0.1974  0.3154
  627MOL0     O82662   6.583   9.672   7.268 -0.1960  0.9709 -0.2213
  627MOL0     C82663   6.469   9.634   7.330  0.4531 -0.5496 -0.1527
  627MOL0     C82664   6.396   9.518   7.291 -0.5463  0.0402 -0.4241
  627MOL0     C82665   6.263   9.503   7.332  0.3767 -0.0410  0.3726
  627MOL0     C82666   6.210   9.595   7.423  0.8592  1.1673 -0.5498
  627MOL0     O82667   6.080   9.569   7.482 -0.4432 -0.0344  0.1322
  627MOL0     C82668   5.989   9.475   7.419  0.8685 -0.1751 -0.1803
  627MOL0     C82669   5.854   9.475   7.498 -0.0507  0.5827  1.1770
  627MOL0     C82670   5.867   9.426   7.644  0.0196 -0.4057 -0.2143
  627MOL0     C82671   5.900   9.546   7.740  0.3297 -0.2070 -1.4332
  627MOL0     C82672   5.943   9.500   7.871 -0.5130  0.3035  0.4755
  627MOL0     C82673   6.012   9.607   7.955 -0.5179  0.0082  0.2935
  627MOL0     C82674   6.097   9.532   8.069 -0.6479  0.0852 -0.5750
  627MOL0     C82675   6.174   9.634   8.157 -0.4285  0.4369  0.4611
  627MOL0    Cl82676   6.233   9.549   8.300  0.3932  0.1101 -0.2737
  627MOL0     C82677   6.288   9.692   7.478  0.3263  0.5108  0.2629
  627MOL0     C82678   6.420   9.716   7.428  0.1831 -0.3293  0.3140
  627MOL0     O82679   6.668   9.483   7.176 -0.3731  0.4470 -0.3470
  627MOL0     C82680   6.847   9.631   7.013 -0.0705  0.3591  0.5201
  627MOL0     C82681   6.957   9.702   6.963  0.2110  0.0481  0.9032
  627MOL0     N82682   7.653   9.957   6.786  0.0244 -0.1376 -0.2396
  627MOL0     N82683   7.766   9.904   6.764 -0.0321  0.4524 -0.0541
  627MOL0     C82684   8.911   9.940   6.381  1.0767  1.3416 -1.7339
  627MOL0     C82685   9.016   9.978   6.304 -0.2326 -0.4892  0.6652
  627MOL0     C82686   9.388  10.069   6.078  0.2139 -0.0406 -0.0311
  627MOL0     C82687   9.421  10.201   6.119  0.5235  0.0878 -0.7539
  627MOL0     C82688   9.506  10.279   6.046 -0.1958 -0.1211 -0.5073
  627MOL0     C82689   9.589  10.219   5.950  0.4098 -0.3756 -0.0578
  627MOL0     O82690   9.701  10.287   5.917 -0.2944 -0.4467  0.1124
  627MOL0     C82691   9.777  10.259   5.801 -0.1760  0.5488  0.0565
  627MOL0     C82692   9.880  10.375   5.778  0.6239  0.0253 -0.6045
  627MOL0     C82693  10.016  10.359   5.850  0.3737  0.2911 -0.0365
  627MOL0     C82694  10.092  10.242   5.790 -0.2885  0.5966  0.1073
  627MOL0     C82695  10.221  10.232   5.866  0.3280  0.9036 -0.1890
  627MOL0     C82696  10.321  10.226   5.940  0.2411  0.0977 -0.7004
  627MOL0     C82697   9.562  10.090   5.910 -0.3999  0.0569 -0.0740
  627MOL0     C82698   9.453  10.019   5.971 -0.3665  0.4865  0.7723
  627MOL0     H82699   9.273   9.912   6.523  0.1790 -3.1680 -0.1317
  627MOL0     H82700   9.073   9.846   6.665 -0.7580 -1.3213 -0.3980
  627MOL0     H82701   8.655   9.873   6.508  0.6132 -0.5877 -0.2507
  627MOL0     H82702   8.722  10.030   6.577 -2.6849  0.2427 -0.3440
  627MOL0     H82703   8.664   9.966   6.798  0.4184 -0.1027 -0.7104
  627MOL0     H82704   8.641   9.796   6.742  1.6806 -0.3331 -1.0993
  627MOL0     H82705   8.427   9.868   6.628  1.0221  1.2625 -2.0900
  627MOL0     H82706   8.458  10.040   6.676 -0.9123  0.0323  0.9985
  627MOL0     H82707   8.450   9.845   6.902 -2.1296 -0.8736 -0.3681
  627MOL0     H82708   8.432  10.020   6.890  0.9583  1.5409 -2.7465
  627MOL0     H82709   8.240   9.814   6.748 -0.8023  1.1394 -0.2224
  627MOL0     H82710   8.209   9.987   6.803  0.5344  0.3175 -0.6363
  627MOL0     H82711   8.262   9.879   7.035  0.3476  0.0578 -0.0120
  627MOL0     H82712   8.190   9.733   6.967 -1.1718  0.2447 -0.3311
  627MOL0     H82713   8.024   9.889   7.084 -2.0346  1.9214 -0.4547
  627MOL0     H82714   8.047   9.995   6.955 -0.2596  1.0956  3.2216
  627MOL0     H82715   7.949   9.708   6.967  2.3539 -1.5696 -0.8846
  627MOL0     H82716   7.983   9.762   6.810 -1.7953 -2.0226 -0.4438
  627MOL0     H82717   7.769   9.940   7.093 -0.1318  2.7408 -0.1803
  627MOL0     H82718   7.490  10.123   6.930  1.2820  1.3661  0.3507
  627MOL0     H82719   7.541  10.054   7.095 -0.0985 -1.1863 -0.7735
  627MOL0     H82720   7.447   9.821   6.991  1.3644  0.7435  0.7612
  627MOL0     H82721   7.362   9.949   6.898  1.7711  1.1992 -0.1538
  627MOL0     H82722   7.354   9.929   7.204 -0.5205  2.4993  0.3749
  627MOL0     H82723   7.280  10.042   7.095 -1.6648 -0.9619 -0.7889
  627MOL0     H82724   7.161   9.826   7.193 -1.2778 -1.1799  0.2910
  627MOL0     H82725   7.244   9.747   7.057  0.2431 -0.3650  2.1382
  627MOL0     H82726   6.917   9.991   7.155  0.8216  1.8166 -5.6208
  627MOL0     H82727   6.749   9.863   7.252  1.0842  0.8543  0.0790
  627MOL0     H82728   6.438   9.458   7.211  2.0923 -0.7475  1.4225
  627MOL0     H82729   6.210   9.423   7.283  2.6266 -0.2083 -1.9889
  627MOL0     H82730   6.028   9.373   7.412 -0.7349 -0.7522 -1.0801
  627MOL0     H82731   5.960   9.483   7.314 -0.2032  0.1454  0.1280
  627MOL0     H82732   5.784   9.401   7.457 -2.2540  0.9317  4.0144
  627MOL0     H82733   5.810   9.575   7.503  1.4081  1.1963  2.8065
  627MOL0     H82734   5.948   9.353   7.650 -1.2267 -2.3416 -3.6495
  627MOL0     H82735   5.780   9.367   7.676  1.2723 -2.9480 -1.2119
  627MOL0     H82736   5.979   9.604   7.690 -1.1458  2.4379 -0.8937
  627MOL0     H82737   5.817   9.617   7.743  1.5301  1.5633 -4.9029
  627MOL0     H82738   6.032   9.442   7.849  3.5022  5.0052  2.4350
  627MOL0     H82739   5.865   9.446   7.926  0.9872  0.0287  2.4649
  627MOL0     H82740   5.934   9.671   7.998 -1.3139 -1.1659  0.6214
  627MOL0     H82741   6.080   9.674   7.901  1.9919 -0.8164  2.2372
  627MOL0     H82742   6.036   9.479   8.143  1.1538  1.1337  1.7893
  627MOL0     H82743   6.165   9.461   8.020 -1.7942 -1.5200  0.0527
  627MOL0     H82744   6.114   9.723   8.175 -0.7749  0.3532 -0.2409
  627MOL0     H82745   6.258   9.666   8.095 -0.9814 -0.0722 -0.5716
  627MOL0     H82746   6.247   9.762   7.550  0.0992 -0.0924  0.7215
  627MOL0     H82747   6.477   9.799   7.470 -0.5971  0.1102  0.5203
  627MOL0     H82748   6.826   9.532   6.973 -0.3809  0.4801  0.3755
  627MOL0     H82749   7.020   9.650   6.891  0.7027  2.0132 -0.1422
  627MOL0     H82750   8.811   9.960   6.344  0.0796  1.2357  0.7193
  627MOL0     H82751   8.992  10.022   6.208 -4.3252 -1.6546  0.9861
  627MOL0     H82752   9.371  10.233   6.210  1.6669 -2.1442  0.7690
  627MOL0     H82753   9.520  10.384   6.072  0.7137 -0.1373 -0.8864
  627MOL0     H82754   9.718  10.265   5.708 -1.8527  0.2734  1.0577
  627MOL0     H82755   9.835  10.167   5.807  5.0403  3.0037 -4.2900
  627MOL0     H82756   9.895  10.395   5.672 -1.1479  0.8312 -0.7344
  627MOL0     H82757   9.832  10.467   5.813 -1.4907 -0.4598 -2.0423
  627MOL0     H82758   9.994  10.335   5.955 -2.7047 -1.2266 -0.9190
  627MOL0     H82759  10.070  10.453   5.837 -0.8268  1.0535  0.3237
  627MOL0     H82760  10.044  10.144   5.800 -1.6877  1.3890  1.4627
  627MOL0     H82761  10.114  10.264   5.685  1.3123 -1.6397 -0.1134
  627MOL0     H82762  10.409  10.225   6.001  0.9725 -1.3770 -1.7407
  627MOL0     H82763   9.610  10.039   5.827  4.0855 -0.3392  2.4390
  627MOL0     H82764   9.413   9.921   5.949 -2.4844  0.6102  3.4867
  628MOL0     O82765  10.542   9.113   6.298 -0.0582 -0.0436 -0.0434
  628MOL0     C82766  10.595   9.051   6.204 -0.3497 -0.4416 -0.9582
  628MOL0     O82767  10.520   8.985   6.117  0.3726  0.7253 -0.0744
  628MOL0     C82768  10.385   8.999   6.120 -0.4596 -1.3105  0.6047
  628MOL0     C82769  10.314   9.099   6.035 -0.1184  0.1554 -0.1303
  628MOL0     C82770  10.179   9.104   6.053  0.4375 -0.1020  0.7956
  628MOL0     C82771  10.104   9.014   6.132  1.5175 -0.8197  0.3541
  628MOL0     O82772   9.968   9.048   6.118  0.1069 -0.1568  0.2070
  628MOL0     C82773   9.887   8.945   6.190  0.1122  0.6013  0.8663
  628MOL0     C82774   9.881   9.004   6.335  0.2088  0.4158  0.1643
  628MOL0     C82775   9.808   8.917   6.424 -0.3791  0.8428 -0.1347
  628MOL0     C82776   9.767   8.975   6.559  0.2512 -0.0041  0.3860
  628MOL0     C82777   9.670   8.879   6.632 -0.3612 -0.1831  0.2852
  628MOL0     C82778   9.742   8.769   6.710 -0.1219  0.2492  0.3175
  628MOL0     C82779   9.650   8.644   6.734 -1.0232 -0.0462  0.5551
  628MOL0     C82780   9.541   8.670   6.828  0.8182 -0.9643 -0.4784
  628MOL0     N82781   9.480   8.552   6.893 -0.5774  0.3919 -0.0308
  628MOL0     C82782   9.345   8.545   6.923  0.2639  1.0136 -0.7550
  628MOL0     C82783   9.320   8.428   6.980  0.2317  0.2429  0.1667
  628MOL0     C82784   9.190   8.375   7.036 -0.0491 -0.5432  0.1288
  628MOL0     C82785   9.080   8.392   6.934 -0.7631  0.2289  0.6235
  628MOL0     C82786   9.092   8.301   6.810 -1.1095  0.9964  0.0196
  628MOL0     C82787   8.979   8.310   6.707  0.7795 -0.1775  0.3934
  628MOL0     O82788   8.857   8.246   6.744 -0.0762  0.3557  0.9367
  628MOL0     C82789   8.746   8.284   6.681 -0.1322  0.3129  0.2393
  628MOL0     C82790   8.629   8.254   6.744  0.4696  0.2534 -1.0417
  628MOL0     C82791   8.507   8.301   6.701 -0.4773  0.2527 -0.2139
  628MOL0     C82792   8.500   8.379   6.584  0.1576 -0.2010  0.0901
  628MOL0     C82793   8.368   8.421   6.530  0.4303 -0.0178 -0.6429
  628MOL0     O82794   8.259   8.403   6.618  0.1156 -0.2184 -0.2936
  628MOL0     C82795   8.133   8.446   6.576 -0.5699 -0.5884  0.2410
  628MOL0     C82796   8.118   8.577   6.515 -0.5898 -0.6859 -0.2931
  628MOL0     C82797   7.987   8.623   6.477 -0.3046 -0.2837  0.3747
  628MOL0     C82798   7.874   8.555   6.531 -0.7371 -0.2792  0.4185
  628MOL0     O82799   7.760   8.606   6.489 -0.3333 -0.0764 -0.0788
  628MOL0     C82800   7.645   8.570   6.572 -0.1864  0.1058 -0.2907
  628MOL0     C82801   7.525   8.653   6.527 -0.6393  0.2846 -0.0176
  628MOL0     C82802   7.410   8.627   6.618 -0.2761  0.1189  0.0843
  628MOL0     C82803   7.308   8.744   6.616 -0.3036  0.2294 -0.4521
  628MOL0     C82804   7.193   8.718   6.709 -0.2289  0.0934  0.6972
  628MOL0     C82805   7.060   8.759   6.651 -0.7246  0.5974 -0.0817
  628MOL0     C82806   6.942   8.736   6.739  0.9531 -0.4864  0.4496
  628MOL0     C82807   6.802   8.728   6.672 -0.9447  0.5078  0.0764
  628MOL0    Cl82808   6.788   8.574   6.577  0.1095 -0.0801  0.6548
  628MOL0     C82809   7.892   8.431   6.591  0.8510 -0.4999 -0.6347
  628MOL0     C82810   8.018   8.379   6.617 -0.4719 -0.2185  0.0009
  628MOL0     O82811   8.369   8.479   6.423 -0.3636 -0.4508  0.2356
  628MOL0     C82812   8.614   8.401   6.509  0.0244  0.0663 -0.0218
  628MOL0     C82813   8.740   8.353   6.560  0.5711  0.3335  0.5313
  628MOL0     N82814   9.444   8.361   6.975 -0.3200  0.3553  0.4996
  628MOL0     N82815   9.529   8.434   6.926 -0.5929  0.0048  0.2356
  628MOL0     C82816  10.167   8.914   6.198 -0.6465  0.6583  0.6000
  628MOL0     C82817  10.306   8.902   6.190  0.3936  0.7689  0.0824
  628MOL0     C82818  10.738   9.031   6.179  0.2392  0.0287  0.7505
  628MOL0     C82819  10.823   9.065   6.277  0.4133  0.6370 -0.1149
  628MOL0     C82820  10.960   9.065   6.254 -0.3386  0.0554 -0.1936
  628MOL0     C82821  11.013   9.018   6.132 -0.9502  0.3285 -0.2232
  628MOL0     O82822  11.145   9.018   6.095  0.0650  0.4835 -0.0319
  628MOL0     C82823  11.245   9.038   6.204  0.1554  0.0866 -0.2062
  628MOL0     C82824  11.374   9.100   6.136  1.1702  0.5537 -0.3983
  628MOL0     C82825  11.443   8.984   6.054  0.0222  0.0511  0.0346
  628MOL0     C82826  11.555   9.046   5.954 -0.6665  0.8002 -0.0606
  628MOL0     C82827  11.679   9.078   6.031  0.5889  0.3520  0.6049
  628MOL0     C82828  11.775   9.121   6.088 -0.3197 -0.7217  0.1305
  628MOL0     C82829  10.924   8.999   6.031 -0.6359  0.9065  0.9617
  628MOL0     C82830  10.784   8.994   6.054  0.0900 -0.2073 -0.1681
  628MOL0     H82831  10.363   9.171   5.971 -1.0336 -1.3784 -2.6865
  628MOL0     H82832  10.116   9.167   5.991  1.1141  0.0835  0.2923
  628MOL0     H82833   9.915   8.842   6.167  2.1071  1.2657  0.0724
  628MOL0     H82834   9.782   8.939   6.160 -0.9048 -2.0717  4.3589
  628MOL0     H82835   9.822   9.096   6.336 -2.3315 -1.0270 -2.3281
  628MOL0     H82836   9.969   9.025   6.396 -1.0847  0.2626  2.1406
  628MOL0     H82837   9.877   8.834   6.439 -0.9171  0.2392 -0.9905
  628MOL0     H82838   9.719   8.882   6.372  0.0943 -1.4208  0.4559
  628MOL0     H82839   9.857   9.008   6.610 -0.7242 -0.4221  2.4594
  628MOL0     H82840   9.702   9.058   6.528  1.2246 -0.0537 -2.0432
  628MOL0     H82841   9.607   8.834   6.555 -1.4943  0.6420  0.6998
  628MOL0     H82842   9.605   8.943   6.693 -0.4203  1.2098 -1.1735
  628MOL0     H82843   9.786   8.805   6.803  2.4485 -1.0168 -0.3311
  628MOL0     H82844   9.826   8.723   6.658  1.0167  1.2578  1.2321
  628MOL0     H82845   9.619   8.605   6.636 -1.3063  0.1464  0.5658
  628MOL0     H82846   9.691   8.551   6.774 -1.5002 -1.5662 -2.1956
  628MOL0     H82847   9.460   8.734   6.790  0.6696 -0.7193  0.2210
  628MOL0     H82848   9.582   8.716   6.919  1.0490 -3.3072  0.6716
  628MOL0     H82849   9.283   8.634   6.932 -0.3705  0.3848  1.9918
  628MOL0     H82850   9.157   8.419   7.130 -0.1207 -0.8453  0.2447
  628MOL0     H82851   9.213   8.268   7.048  2.8405  0.0876  1.0632
  628MOL0     H82852   9.094   8.497   6.905  0.4634  0.8148  3.0817
  628MOL0     H82853   8.977   8.381   6.969 -1.9294  0.7360 -2.3326
  628MOL0     H82854   9.187   8.325   6.761 -1.1621  0.9542 -0.1010
  628MOL0     H82855   9.093   8.195   6.838  0.8381  0.9466 -0.1073
  628MOL0     H82856   9.012   8.264   6.614 -1.2370  1.3468 -1.1817
  628MOL0     H82857   8.955   8.415   6.687 -1.3747 -0.6530  0.2099
  628MOL0     H82858   8.632   8.218   6.846 -0.1865 -0.4094 -1.2493
  628MOL0     H82859   8.410   8.278   6.744 -1.9201  2.1877 -2.2152
  628MOL0     H82860   8.193   8.652   6.494  0.0722 -2.1626 -3.9454
  628MOL0     H82861   7.985   8.718   6.424  1.0816 -1.5976 -2.2009
  628MOL0     H82862   7.667   8.576   6.679 -3.0665  2.8754  0.2935
  628MOL0     H82863   7.609   8.468   6.557  1.7454 -0.6482 -0.1018
  628MOL0     H82864   7.497   8.624   6.426 -0.3481  0.4930 -0.1614
  628MOL0     H82865   7.561   8.756   6.526  1.0440 -0.2589  1.1224
  628MOL0     H82866   7.438   8.612   6.723 -1.0863  0.7583  0.3995
  628MOL0     H82867   7.367   8.535   6.576  2.6770 -0.2281 -2.5749
  628MOL0     H82868   7.355   8.839   6.642  2.2412  0.0517 -3.7866
  628MOL0     H82869   7.262   8.754   6.517 -1.2243  3.3533  0.1741
  628MOL0     H82870   7.221   8.775   6.798  0.5015  1.4224 -0.3464
  628MOL0     H82871   7.185   8.612   6.735 -0.6690  0.0134  0.2630
  628MOL0     H82872   7.040   8.694   6.565 -0.3948  0.0888  0.2243
  628MOL0     H82873   7.064   8.859   6.607  0.1256 -0.0961 -1.6747
  628MOL0     H82874   6.947   8.643   6.797 -4.6609 -1.6484 -0.4410
  628MOL0     H82875   6.942   8.820   6.809 -0.5832  0.8773 -1.1020
  628MOL0     H82876   6.783   8.811   6.603 -0.0294  0.0990 -0.6822
  628MOL0     H82877   6.724   8.713   6.748 -1.7680  1.4497 -0.5551
  628MOL0     H82878   7.809   8.373   6.629  0.0765  1.7596  1.3337
  628MOL0     H82879   8.016   8.279   6.659  4.6177 -1.0693 -1.1268
  628MOL0     H82880   8.609   8.453   6.414 -2.0673 -3.7256 -2.1922
  628MOL0     H82881   8.821   8.376   6.491 -0.5556  1.8021 -0.3509
  628MOL0     H82882  10.117   8.839   6.258  1.5515 -0.5167  1.0607
  628MOL0     H82883  10.353   8.818   6.239 -1.2070 -0.5816 -0.6118
  628MOL0     H82884  10.777   9.091   6.372  1.9066  2.4639  0.1674
  628MOL0     H82885  11.014   9.076   6.348 -0.2923 -1.0156 -0.0839
  628MOL0     H82886  11.271   8.940   6.246  0.8809 -1.3522 -3.6614
  628MOL0     H82887  11.215   9.110   6.281  1.6781  1.7369 -1.0698
  628MOL0     H82888  11.356   9.191   6.078  2.3924  0.4924 -0.9005
  628MOL0     H82889  11.450   9.131   6.208  0.0914  1.4866  0.4019
  628MOL0     H82890  11.368   8.927   5.999  1.1800 -0.3714 -1.1480
  628MOL0     H82891  11.499   8.917   6.120  0.8636 -2.0934 -2.6819
  628MOL0     H82892  11.572   8.959   5.890 -0.2274 -0.0749  1.1944
  628MOL0     H82893  11.515   9.135   5.905  0.4833  2.2858  1.5814
  628MOL0     H82894  11.850   9.163   6.152 -3.0142  1.5859  2.0570
  628MOL0     H82895  10.958   8.976   5.930  0.3176  2.4986  0.8863
  628MOL0     H82896  10.718   8.959   5.975  2.0323 -1.5844 -1.2662
  629MOL0     O82897   6.923   0.363  10.804  0.1377 -0.2522  0.1758
  629MOL0     C82898   6.826   0.405  10.736  0.1361  0.1724 -0.6182
  629MOL0     O82899   6.827   0.515  10.656  0.4024  0.2106  0.6148
  629MOL0     C82900   6.915   0.602  10.687 -0.4161 -1.5546  0.9397
  629MOL0     C82901   6.894   0.686  10.788  0.2090 -1.0115  0.1594
  629MOL0     C82902   6.987   0.778  10.827 -0.4236 -0.4458  0.3295
  629MOL0     C82903   7.107   0.795  10.754 -0.1129  0.4078 -0.7764
  629MOL0     O82904   7.212   0.875  10.792 -0.3433 -0.1619 -0.5421
  629MOL0     C82905   7.257   0.838  10.928  0.1310  0.3547  0.2868
  629MOL0     C82906   7.388   0.903  10.976  0.3967  0.7590  0.3643
  629MOL0     C82907   7.508   0.853  10.892 -0.3300  0.2929  0.3787
  629MOL0     C82908   7.636   0.919  10.958  0.3790  0.1467 -0.0105
  629MOL0     C82909   7.768   0.908  10.879 -0.6002 -0.0385  0.4585
  629MOL0     C82910   7.891   0.952  10.954 -0.6348 -0.0962 -0.6100
  629MOL0     C82911   8.007   0.965  10.872  0.0703  0.8192 -0.0271
  629MOL0     C82912   8.137   0.977  10.956  0.4740 -0.4851  0.2919
  629MOL0     N82913   8.247   0.962  10.859  0.5682 -0.3952 -0.4282
  629MOL0     C82914   8.324   1.060  10.806 -0.2298 -0.2617 -0.7361
  629MOL0     C82915   8.430   1.009  10.743  0.0673 -0.2309 -0.0542
  629MOL0     C82916   8.551   1.058  10.662 -0.0558 -0.7729  0.0628
  629MOL0     C82917   8.541   1.073  10.505  0.0761  0.3153 -0.5450
  629MOL0     C82918   8.403   1.116  10.463  0.4530 -0.2853 -0.1401
  629MOL0     C82919   8.389   1.095  10.310 -0.3912  0.2626  0.3229
  629MOL0     O82920   8.506   1.132  10.231  0.3642  0.4304 -0.2760
  629MOL0     C82921   8.489   1.136  10.093  0.2131 -0.6015 -0.6794
  629MOL0     C82922   8.578   1.211  10.020 -0.2036  0.3638  0.4169
  629MOL0     C82923   8.583   1.223   9.877  0.0705 -0.1389 -0.2355
  629MOL0     C82924   8.472   1.161   9.815  0.9547 -0.5383 -0.0496
  629MOL0     C82925   8.463   1.188   9.669  0.2729 -0.4009  0.5733
  629MOL0     O82926   8.578   1.214   9.601  0.8854  0.3666  0.1132
  629MOL0     C82927   8.593   1.213   9.457  0.3611  1.5890 -1.2709
  629MOL0     C82928   8.500   1.151   9.370 -0.4273  0.7221  0.0630
  629MOL0     C82929   8.526   1.150   9.230 -0.5971 -0.2846 -0.9226
  629MOL0     C82930   8.646   1.208   9.182 -0.0117  0.7056 -0.2115
  629MOL0     O82931   8.658   1.206   9.046 -0.0506 -0.1346  0.4560
  629MOL0     C82932   8.776   1.258   8.990 -0.0755  0.3537  0.2201
  629MOL0     C82933   8.774   1.206   8.845 -0.3127 -0.0129 -0.0933
  629MOL0     C82934   8.896   1.241   8.764  1.0303  0.3412  0.2848
  629MOL0     C82935   9.029   1.199   8.834  0.0747 -0.2124 -0.2967
  629MOL0     C82936   9.165   1.265   8.768  0.5882 -0.0625 -0.1398
  629MOL0     C82937   9.289   1.249   8.851  0.1710  0.1384  0.0489
  629MOL0     C82938   9.413   1.283   8.773 -0.8669 -0.6716  0.2960
  629MOL0     C82939   9.539   1.276   8.861 -0.2984 -0.1118  0.3962
  629MOL0    Cl82940   9.681   1.344   8.789 -0.0628  0.6784 -0.1525
  629MOL0     C82941   8.739   1.256   9.282 -0.6021 -0.7961  1.3341
  629MOL0     C82942   8.709   1.267   9.413  0.1138 -0.1978  0.2799
  629MOL0     O82943   8.354   1.170   9.619 -0.2252  0.0568  0.8201
  629MOL0     C82944   8.379   1.084   9.886  0.4781  0.4092 -0.3233
  629MOL0     C82945   8.384   1.069  10.025  0.1521 -0.2095  0.4792
  629MOL0     N82946   8.415   0.871  10.767  0.1766 -0.8658  0.5821
  629MOL0     N82947   8.305   0.843  10.827  0.5897  0.5207 -0.6690
  629MOL0     C82948   7.119   0.725  10.632 -0.0758  0.7952 -0.9389
  629MOL0     C82949   7.020   0.623  10.600  0.4062 -0.0557  0.1252
  629MOL0     C82950   6.706   0.313  10.736 -0.3280  0.3460  0.0551
  629MOL0     C82951   6.689   0.209  10.824  0.4182 -0.3729 -0.1172
  629MOL0     C82952   6.568   0.140  10.836  0.1821 -0.2147 -0.7919
  629MOL0     C82953   6.462   0.168  10.743 -0.3286  0.5658  0.1482
  629MOL0     O82954   6.349   0.087  10.752 -0.3448 -0.1402 -0.1198
  629MOL0     C82955   6.278   0.106  10.876 -1.1832 -0.0042 -0.1225
  629MOL0     C82956   6.144   0.039  10.869  0.4750  0.0133 -0.8606
  629MOL0     C82957   6.163  -0.113  10.850 -0.2303  0.2882  1.2661
  629MOL0     C82958   6.044  -0.203  10.810  0.6413 -0.2289 -0.2102
  629MOL0     C82959   5.943  -0.205  10.909 -0.7102  0.7201 -0.0703
  629MOL0     C82960   5.865  -0.198  11.006 -0.7691 -0.8189 -0.1911
  629MOL0     C82961   6.477   0.273  10.651 -0.1436 -0.5753 -0.2453
  629MOL0     C82962   6.598   0.345  10.653 -0.2721  0.2059 -0.1975
  629MOL0     H82963   6.803   0.686  10.846 -0.6106  3.4771 -0.7676
  629MOL0     H82964   6.968   0.853  10.903  0.5262  1.6420 -1.3824
  629MOL0     H82965   7.278   0.731  10.934 -1.2274  0.1012  0.6543
  629MOL0     H82966   7.178   0.861  11.000 -1.0900 -0.0863 -0.8956
  629MOL0     H82967   7.396   0.876  11.081  2.8486 -2.0965 -0.4124
  629MOL0     H82968   7.388   1.013  10.968 -0.3405  0.7953  0.8010
  629MOL0     H82969   7.503   0.902  10.794  1.7851  1.1719  0.6545
  629MOL0     H82970   7.515   0.746  10.873  1.1802  0.2257  1.1634
  629MOL0     H82971   7.602   1.023  10.966  1.0662  0.4602 -0.9731
  629MOL0     H82972   7.650   0.880  11.060  1.5070 -0.1236 -0.2559
  629MOL0     H82973   7.750   0.977  10.796  1.2415  3.3635  2.6394
  629MOL0     H82974   7.794   0.807  10.846  1.6713  0.9099 -0.9424
  629MOL0     H82975   7.905   0.882  11.037  1.2908  1.2325  0.2540
  629MOL0     H82976   7.868   1.047  11.003 -1.7871  0.2629 -1.7859
  629MOL0     H82977   8.023   0.884  10.800 -2.0386  1.4672 -1.2832
  629MOL0     H82978   7.987   1.051  10.808  2.1235  2.4327  1.3561
  629MOL0     H82979   8.141   0.898  11.032  1.8676 -1.1539 -0.4427
  629MOL0     H82980   8.132   1.078  10.996  0.2009  0.6879 -2.4794
  629MOL0     H82981   8.310   1.167  10.811 -2.8019 -0.5431 -0.3523
  629MOL0     H82982   8.626   0.979  10.675  1.3386  0.8646  2.5214
  629MOL0     H82983   8.593   1.147  10.709 -0.8654 -0.0533 -0.5276
  629MOL0     H82984   8.549   0.972  10.462 -1.7789 -0.2893  0.4185
  629MOL0     H82985   8.619   1.145  10.478  0.0889  1.1038  1.4042
  629MOL0     H82986   8.313   1.067  10.501  0.8982 -0.9566  0.0803
  629MOL0     H82987   8.389   1.222  10.485 -1.8404 -0.8241  1.3663
  629MOL0     H82988   8.308   1.158  10.274  1.7551  1.4301 -2.9775
  629MOL0     H82989   8.375   0.988  10.289 -2.3132  0.7731 -1.2010
  629MOL0     H82990   8.645   1.275  10.077 -2.9583  1.7129  2.4067
  629MOL0     H82991   8.658   1.288   9.833 -0.2265 -0.2930 -0.9720
  629MOL0     H82992   8.418   1.087   9.401  0.0036 -1.0849 -2.2162
  629MOL0     H82993   8.450   1.103   9.168 -0.0112 -3.4473  0.5318
  629MOL0     H82994   8.862   1.211   9.038  0.0923  0.0159 -0.4094
  629MOL0     H82995   8.784   1.367   8.996 -1.0206  0.3638  2.6112
  629MOL0     H82996   8.683   1.239   8.794 -0.7666  0.3350  0.9150
  629MOL0     H82997   8.767   1.097   8.856  0.5472 -0.0349  0.3224
  629MOL0     H82998   8.893   1.350   8.754  0.9129  0.3445  0.3685
  629MOL0     H82999   8.877   1.199   8.665 -0.3793  2.5336 -0.4498
  629MOL0     H83000   9.038   1.236   8.937  2.6442 -0.7411 -0.2702
  629MOL0     H83001   9.027   1.090   8.834 -2.0829 -0.2436  1.1030
  629MOL0     H83002   9.155   1.373   8.759  1.2524  0.0201  0.0672
  629MOL0     H83003   9.175   1.220   8.669  0.8371 -0.4136  0.0434
  629MOL0     H83004   9.301   1.144   8.879 -0.0521 -0.4727 -1.9868
  629MOL0     H83005   9.284   1.315   8.937 -2.3766  0.4573 -0.2788
  629MOL0     H83006   9.428   1.209   8.695  2.6788 -1.1785  1.2881
  629MOL0     H83007   9.402   1.382   8.727 -1.3536 -1.0184 -0.3390
  629MOL0     H83008   9.563   1.170   8.878  1.1574  0.2936  1.0093
  629MOL0     H83009   9.536   1.333   8.954  0.0486 -1.3498  1.1997
  629MOL0     H83010   8.822   1.311   9.238 -1.8285  1.2834  1.4485
  629MOL0     H83011   8.773   1.321   9.482  2.9719 -1.1383 -1.4306
  629MOL0     H83012   8.302   1.046   9.820 -0.5616  1.0697  0.4769
  629MOL0     H83013   8.310   1.007  10.075 -0.7709  1.2591  1.0061
  629MOL0     H83014   7.200   0.748  10.564  0.2681  2.9255  0.1051
  629MOL0     H83015   7.005   0.564  10.511 -2.0773 -0.0110  0.4445
  629MOL0     H83016   6.763   0.181  10.899 -0.8996 -0.0971  1.3486
  629MOL0     H83017   6.560   0.057  10.904 -1.9726 -0.2111 -0.9684
  629MOL0     H83018   6.262   0.213  10.893 -0.9574  0.0525 -0.2525
  629MOL0     H83019   6.336   0.062  10.958 -0.0148  2.5107  0.4923
  629MOL0     H83020   6.090   0.058  10.962  1.2178  2.6841 -0.9025
  629MOL0     H83021   6.096   0.089  10.785 -0.8708  1.0068  0.4448
  629MOL0     H83022   6.224  -0.134  10.938 -1.5535  4.0444  3.2933
  629MOL0     H83023   6.238  -0.129  10.771 -1.6172 -0.7155  0.0929
  629MOL0     H83024   6.008  -0.158  10.717  0.8502  1.5751  0.5257
  629MOL0     H83025   6.069  -0.308  10.794  0.1590 -0.1194 -1.8863
  629MOL0     H83026   5.805  -0.206  11.094 -0.0970  0.4487  0.4090
  629MOL0     H83027   6.401   0.305  10.582 -1.2805 -0.2715  1.0997
  629MOL0     H83028   6.608   0.429  10.584  1.4110  1.3552  1.3454
  630MOL0     O83029   9.189   8.210   1.318 -0.7052 -0.3590  0.0885
  630MOL0     C83030   9.268   8.210   1.413  1.0461 -0.4635  0.2262
  630MOL0     O83031   9.244   8.177   1.540 -0.6888 -0.6719  0.4839
  630MOL0     C83032   9.116   8.127   1.571 -0.2377 -0.7926  0.0709
  630MOL0     C83033   9.102   7.998   1.615 -0.2928  0.8377 -0.3198
  630MOL0     C83034   8.979   7.949   1.651 -1.2403 -0.3051 -0.3474
  630MOL0     C83035   8.865   8.027   1.629  0.9514  0.0142  0.2869
  630MOL0     O83036   8.745   7.975   1.655 -0.2466  0.1079  0.8995
  630MOL0     C83037   8.726   7.843   1.722  0.3504 -0.0753  0.3221
  630MOL0     C83038   8.573   7.845   1.767 -0.2354  0.1318 -0.3307
  630MOL0     C83039   8.485   7.853   1.637  0.0707  1.0190 -0.7638
  630MOL0     C83040   8.345   7.798   1.661  0.8234 -0.9579 -0.9667
  630MOL0     C83041   8.265   7.781   1.535  0.1681 -0.3147  0.3882
  630MOL0     C83042   8.242   7.913   1.451  1.0718 -0.7563 -0.1200
  630MOL0     C83043   8.125   7.906   1.343  0.4303 -0.5485  0.4034
  630MOL0     C83044   8.067   8.045   1.304  0.0468 -0.1601  0.8467
  630MOL0     N83045   7.968   8.080   1.400  0.0410  0.4731  0.3433
  630MOL0     C83046   7.854   8.015   1.419 -0.3513  0.2744  0.6535
  630MOL0     C83047   7.797   8.067   1.522  0.8811  0.9596 -0.9565
  630MOL0     C83048   7.673   8.011   1.589 -0.0207 -0.2662 -0.6488
  630MOL0     C83049   7.546   8.103   1.560 -0.3791  0.2476  0.0869
  630MOL0     C83050   7.519   8.110   1.411 -0.1832  0.6813  0.0841
  630MOL0     C83051   7.389   8.169   1.381 -1.1416  0.3684  0.5446
  630MOL0     O83052   7.278   8.084   1.419 -0.8494 -0.5060 -0.0750
  630MOL0     C83053   7.154   8.139   1.403 -1.1745  0.4050 -0.2832
  630MOL0     C83054   7.089   8.163   1.521  0.2913 -0.2155 -0.1107
  630MOL0     C83055   6.953   8.210   1.520  0.1376  0.3163 -0.1513
  630MOL0     C83056   6.878   8.229   1.405  0.1249 -0.0532 -0.1025
  630MOL0     C83057   6.738   8.282   1.404  0.1294  0.3338 -1.4864
  630MOL0     O83058   6.671   8.280   1.530 -0.4679 -0.0174  0.1651
  630MOL0     C83059   6.543   8.330   1.534 -0.0113  0.9263  0.3857
  630MOL0     C83060   6.499   8.449   1.486 -0.0971  0.5043  0.0203
  630MOL0     C83061   6.366   8.497   1.497  0.0419 -0.0811 -0.6581
  630MOL0     C83062   6.276   8.414   1.569  0.6228 -0.5445  0.1007
  630MOL0     O83063   6.137   8.444   1.577 -0.8689  0.3173 -0.5251
  630MOL0     C83064   6.075   8.555   1.515 -0.3134 -1.0420  0.0795
  630MOL0     C83065   5.949   8.571   1.596 -0.5683  0.5936  0.1350
  630MOL0     C83066   5.872   8.690   1.555 -0.0166 -0.4127 -0.5989
  630MOL0     C83067   5.727   8.668   1.595 -0.3646  0.3059  1.0736
  630MOL0     C83068   5.648   8.802   1.585 -0.4605 -0.0327 -0.3661
  630MOL0     C83069   5.501   8.788   1.628  1.2490  0.9139  0.1931
  630MOL0     C83070   5.427   8.916   1.617  0.0959  0.1484 -0.8660
  630MOL0     C83071   5.281   8.899   1.635 -0.1442 -0.3984  0.3285
  630MOL0    Cl83072   5.245   8.866   1.804 -0.2808  0.3575 -0.0370
  630MOL0     C83073   6.319   8.299   1.631 -0.6345 -0.6909  0.5629
  630MOL0     C83074   6.454   8.258   1.610  0.1723 -0.1623 -0.0902
  630MOL0     O83075   6.692   8.337   1.306 -0.8603 -0.4837  0.2798
  630MOL0     C83076   6.956   8.219   1.286  0.5582 -0.1690  0.4091
  630MOL0     C83077   7.086   8.179   1.288 -0.1919 -0.0087  0.0611
  630MOL0     N83078   7.876   8.177   1.558 -0.5854 -0.1259  0.1371
  630MOL0     N83079   7.983   8.178   1.486  0.1545 -0.4719 -0.5780
  630MOL0     C83080   8.873   8.156   1.566  0.1290 -0.3371  0.3052
  630MOL0     C83081   9.000   8.206   1.547 -0.8355  0.5513 -0.3644
  630MOL0     C83082   9.410   8.242   1.379  0.1787  0.1340 -0.0982
  630MOL0     C83083   9.453   8.295   1.266 -0.4119 -0.4055 -0.3798
  630MOL0     C83084   9.585   8.335   1.244  0.7945 -0.1928  0.3623
  630MOL0     C83085   9.681   8.335   1.348  0.2619  0.6904  0.4166
  630MOL0     O83086   9.815   8.356   1.323  0.3887 -0.2866 -0.4912
  630MOL0     C83087   9.864   8.380   1.194 -0.2476 -0.7459  0.6804
  630MOL0     C83088  10.019   8.358   1.193  0.5305 -0.1325  0.7476
  630MOL0     C83089  10.082   8.488   1.244  0.1884  0.5798 -0.7590
  630MOL0     C83090  10.240   8.472   1.244  0.4224  0.1930  0.5626
  630MOL0     C83091  10.288   8.458   1.104  0.3844  0.5778 -0.2631
  630MOL0     C83092  10.337   8.444   0.989 -0.1665  0.1121 -0.0564
  630MOL0     C83093   9.638   8.275   1.464  0.5375  0.5219  0.4759
  630MOL0     C83094   9.504   8.237   1.487 -0.7280  0.1919 -0.1257
  630MOL0     H83095   9.194   7.940   1.613  0.8418  2.4946 -3.1834
  630MOL0     H83096   8.968   7.843   1.673 -1.2037 -0.6783 -2.0009
  630MOL0     H83097   8.781   7.851   1.817 -0.8933  0.4935  1.0208
  630MOL0     H83098   8.755   7.759   1.659 -2.4346 -0.3003 -0.7752
  630MOL0     H83099   8.554   7.926   1.838  0.6447  0.0775 -0.0290
  630MOL0     H83100   8.553   7.754   1.824 -1.2433  1.4298  1.5116
  630MOL0     H83101   8.533   7.794   1.558  1.5955  2.3896 -0.9115
  630MOL0     H83102   8.501   7.955   1.600  1.3526  1.2565  0.3546
  630MOL0     H83103   8.361   7.701   1.710 -1.4437  0.1230  2.1709
  630MOL0     H83104   8.301   7.867   1.733  0.9395  0.0805 -1.8599
  630MOL0     H83105   8.167   7.740   1.562 -0.7253  0.3908 -1.5901
  630MOL0     H83106   8.318   7.706   1.476 -1.6230 -1.9137  0.7024
  630MOL0     H83107   8.339   7.948   1.415 -0.2580  3.4899 -0.0322
  630MOL0     H83108   8.224   7.996   1.519  3.7462  1.6037 -2.0601
  630MOL0     H83109   8.170   7.868   1.250 -2.6801  1.9592 -2.3941
  630MOL0     H83110   8.050   7.830   1.367  0.5736 -1.3228 -1.4133
  630MOL0     H83111   8.013   8.036   1.210 -0.7919 -0.1197  1.3131
  630MOL0     H83112   8.142   8.123   1.294 -0.1284  0.4362  3.4261
  630MOL0     H83113   7.808   7.929   1.371 -1.4440  0.7107  0.8979
  630MOL0     H83114   7.702   8.007   1.694 -1.1992  1.7144 -0.1860
  630MOL0     H83115   7.647   7.912   1.551 -2.4727  0.4341 -1.0155
  630MOL0     H83116   7.568   8.201   1.603  2.2985  0.0249 -0.5855
  630MOL0     H83117   7.460   8.052   1.605  0.3660 -1.1119  0.0298
  630MOL0     H83118   7.590   8.176   1.360 -1.7205 -0.1150 -3.4430
  630MOL0     H83119   7.522   8.014   1.359  1.3483  1.4421 -1.3645
  630MOL0     H83120   7.379   8.191   1.274 -0.3499  0.1442  0.4212
  630MOL0     H83121   7.381   8.270   1.421 -2.4300  0.8046 -0.7316
  630MOL0     H83122   7.133   8.137   1.617 -0.5870 -0.5075  0.2214
  630MOL0     H83123   6.911   8.217   1.620 -0.6911 -0.8939 -0.3944
  630MOL0     H83124   6.556   8.523   1.431  0.1019  1.2984  1.2556
  630MOL0     H83125   6.340   8.591   1.448  1.1833 -1.0480 -3.3325
  630MOL0     H83126   6.058   8.529   1.410  1.9721 -1.1819 -0.2987
  630MOL0     H83127   6.130   8.649   1.523 -0.8166 -0.7427  0.0865
  630MOL0     H83128   5.972   8.587   1.702  0.0182  0.9905 -0.0460
  630MOL0     H83129   5.892   8.478   1.586 -2.6917  1.9637 -1.1345
  630MOL0     H83130   5.884   8.719   1.450  1.7774  1.6705  0.1012
  630MOL0     H83131   5.910   8.774   1.614 -1.8047 -0.0739  0.1378
  630MOL0     H83132   5.687   8.593   1.527  0.8340  0.8162 -0.2459
  630MOL0     H83133   5.720   8.628   1.696  2.2183 -0.9956  0.8211
  630MOL0     H83134   5.655   8.833   1.481 -1.3183 -0.5270 -0.5818
  630MOL0     H83135   5.688   8.879   1.652 -4.8384  2.1443  0.1527
  630MOL0     H83136   5.494   8.753   1.732 -1.0724  1.5843  0.3353
  630MOL0     H83137   5.454   8.703   1.577  0.0438  0.0027  2.6297
  630MOL0     H83138   5.452   8.984   1.699 -3.0695  0.2155  0.1802
  630MOL0     H83139   5.452   8.951   1.516 -0.8469 -0.4411 -1.3175
  630MOL0     H83140   5.246   8.821   1.567 -0.5307 -0.5402  0.6796
  630MOL0     H83141   5.243   8.997   1.606 -2.0145 -2.3921 -5.2284
  630MOL0     H83142   6.243   8.251   1.692  0.7510 -1.5939  1.6311
  630MOL0     H83143   6.497   8.170   1.656  0.6594  0.0367 -0.1694
  630MOL0     H83144   6.910   8.233   1.188 -1.0774 -3.0479  0.6599
  630MOL0     H83145   7.144   8.150   1.201 -0.0090 -3.4142  1.1435
  630MOL0     H83146   8.795   8.220   1.526 -0.4404  0.1702  2.1427
  630MOL0     H83147   9.017   8.299   1.493  1.9349 -0.6365 -1.7211
  630MOL0     H83148   9.382   8.301   1.184 -0.2947 -2.6708 -0.7167
  630MOL0     H83149   9.613   8.368   1.145 -1.2758 -0.5771 -0.4090
  630MOL0     H83150   9.836   8.481   1.162 -0.3459 -0.7874  0.6356
  630MOL0     H83151   9.829   8.307   1.120  2.6961  1.0364 -2.8151
  630MOL0     H83152  10.050   8.262   1.236  1.6531  0.2439  0.8101
  630MOL0     H83153  10.039   8.351   1.086  1.5229  0.8586  0.8496
  630MOL0     H83154  10.063   8.512   1.349  0.3774 -0.7497 -0.4111
  630MOL0     H83155  10.063   8.576   1.181  3.3927  1.2792 -0.9605
  630MOL0     H83156  10.276   8.569   1.280  1.0291 -0.4573  1.7514
  630MOL0     H83157  10.283   8.398   1.312  1.1612  2.4684  2.7257
  630MOL0     H83158  10.379   8.422   0.893  0.5721 -0.1087  0.3153
  630MOL0     H83159   9.706   8.260   1.547 -0.2595 -3.3149  0.6334
  630MOL0     H83160   9.482   8.209   1.590  1.3432  1.7254  0.8371
  631MOL0     O83161   3.753   0.790   0.636  0.3966  0.4928  0.5101
  631MOL0     C83162   3.798   0.869   0.725  0.5694  0.0513 -0.1651
  631MOL0     O83163   3.721   0.915   0.830 -0.2901 -0.0211 -0.4322
  631MOL0     C83164   3.582   0.902   0.819  0.0974  0.2889  0.1331
  631MOL0     C83165   3.520   0.981   0.723 -0.1980 -1.0063 -0.1534
  631MOL0     C83166   3.383   0.974   0.699  0.9620  0.4819  0.6380
  631MOL0     C83167   3.310   0.867   0.754  0.2878 -0.7594  0.5739
  631MOL0     O83168   3.182   0.857   0.709  0.5081 -0.1400  0.0755
  631MOL0     C83169   3.089   0.759   0.755  0.0917 -0.2196 -0.9642
  631MOL0     C83170   2.956   0.791   0.684 -0.3513  0.2066  0.1707
  631MOL0     C83171   2.842   0.731   0.775  0.1900 -0.1844  0.0553
  631MOL0     C83172   2.720   0.731   0.678  0.1628 -0.1420  0.4363
  631MOL0     C83173   2.604   0.656   0.721 -0.1087  0.8465 -0.8371
  631MOL0     C83174   2.495   0.646   0.619 -0.0359  0.2418 -0.3968
  631MOL0     C83175   2.378   0.555   0.657 -0.1787  0.7719  0.4956
  631MOL0     C83176   2.265   0.551   0.558  0.4322 -0.0072 -0.6146
  631MOL0     N83177   2.154   0.475   0.621  0.0857  0.0566  0.1315
  631MOL0     C83178   2.120   0.344   0.602 -0.8521  0.5855 -0.3384
  631MOL0     C83179   2.001   0.331   0.659 -0.7010  0.5007  0.2947
  631MOL0     C83180   1.904   0.213   0.652  0.1348 -0.1231  0.2230
  631MOL0     C83181   1.753   0.260   0.637 -0.7392 -0.4885  0.2884
  631MOL0     C83182   1.659   0.148   0.595 -0.0013 -0.3152 -1.0238
  631MOL0     C83183   1.519   0.196   0.616  0.2729 -0.2512  0.3856
  631MOL0     O83184   1.499   0.286   0.499  0.0104 -0.2605 -0.6600
  631MOL0     C83185   1.371   0.338   0.489  0.8009  0.3418 -0.4391
  631MOL0     C83186   1.262   0.330   0.585  0.1950 -0.7075 -0.5897
  631MOL0     C83187   1.152   0.413   0.573  0.2298 -0.1684  0.9847
  631MOL0     C83188   1.134   0.496   0.462  0.0494 -1.2544 -0.7256
  631MOL0     C83189   1.024   0.587   0.436 -0.2479  0.1779 -0.6118
  631MOL0     O83190   0.917   0.531   0.488  0.0016 -0.4859  0.6904
  631MOL0     C83191   0.788   0.577   0.464  0.1951  0.8782  0.4786
  631MOL0     C83192   0.702   0.591   0.564 -0.0737  0.4276  0.5300
  631MOL0     C83193   0.568   0.620   0.530  0.4905 -0.4024 -0.1949
  631MOL0     C83194   0.535   0.669   0.399  0.5754 -0.4968 -1.2044
  631MOL0     O83195   0.414   0.730   0.378 -0.1142 -0.1259  0.4647
  631MOL0     C83196   0.349   0.728   0.245  0.5710  0.7629 -0.2264
  631MOL0     C83197   0.291   0.590   0.231 -0.3935  0.2254 -0.1205
  631MOL0     C83198   0.192   0.579   0.122 -0.4025  0.5069  0.9808
  631MOL0     C83199   0.057   0.651   0.142  0.0213  0.1873 -0.6698
  631MOL0     C83200  -0.054   0.576   0.215  0.3642 -1.4576 -0.2435
  631MOL0     C83201  -0.106   0.456   0.139  0.2472 -0.6837 -0.4238
  631MOL0     C83202  -0.224   0.387   0.205  1.2301  0.5544  0.2718
  631MOL0     C83203  -0.272   0.273   0.117 -0.6342  0.0797 -0.1721
  631MOL0    Cl83204  -0.416   0.193   0.185 -0.1622 -0.1412 -0.1921
  631MOL0     C83205   0.630   0.663   0.302  0.0890  0.0329  1.4878
  631MOL0     C83206   0.751   0.605   0.330  0.1210  0.2553 -0.1756
  631MOL0     O83207   1.034   0.690   0.371  0.5134 -0.1550  0.5775
  631MOL0     C83208   1.243   0.506   0.369  0.6593 -0.2319  0.6207
  631MOL0     C83209   1.355   0.424   0.374 -0.3529  0.0293 -0.0527
  631MOL0     N83210   1.969   0.443   0.727 -0.3838  0.1039  0.1782
  631MOL0     N83211   2.057   0.531   0.696  0.0602 -1.0544 -0.1759
  631MOL0     C83212   3.371   0.793   0.862  0.2635 -0.2751 -0.0397
  631MOL0     C83213   3.502   0.819   0.899 -0.1690  0.2066 -0.4529
  631MOL0     C83214   3.936   0.908   0.730  0.5178  0.4957  0.4634
  631MOL0     C83215   4.015   0.856   0.631 -0.5412  0.0626  0.4378
  631MOL0     C83216   4.149   0.901   0.625  0.2789 -0.4743 -0.3378
  631MOL0     C83217   4.192   1.008   0.706  0.8956  0.4331  0.7420
  631MOL0     O83218   4.314   1.073   0.690  0.1510  0.5738 -0.3743
  631MOL0     C83219   4.412   1.004   0.603  0.0813  0.3497 -0.2122
  631MOL0     C83220   4.548   1.075   0.620 -0.1202 -0.3837 -0.3787
  631MOL0     C83221   4.670   1.030   0.542  0.1327 -0.0887 -0.1853
  631MOL0     C83222   4.790   1.126   0.529  1.2986 -0.4347 -0.3724
  631MOL0     C83223   4.838   1.146   0.666  0.1169 -0.2689  0.2378
  631MOL0     C83224   4.869   1.150   0.779 -0.6699  0.2112  0.5793
  631MOL0     C83225   4.116   1.041   0.816 -0.0619 -0.2900 -0.2872
  631MOL0     C83226   3.992   0.982   0.835 -0.0203 -0.4631  0.4462
  631MOL0     H83227   3.577   1.054   0.666 -0.3308  0.8235  1.9310
  631MOL0     H83228   3.356   1.030   0.611  1.7200  0.1129  0.1585
  631MOL0     H83229   3.082   0.763   0.864  1.9719 -2.6473 -0.6872
  631MOL0     H83230   3.128   0.661   0.726  3.9414  1.7091 -3.0836
  631MOL0     H83231   2.949   0.735   0.590 -0.5033  0.2969  0.1284
  631MOL0     H83232   2.955   0.900   0.673  1.0002  0.2744  0.5326
  631MOL0     H83233   2.812   0.778   0.869 -0.4915  0.1917 -0.3435
  631MOL0     H83234   2.868   0.628   0.803  1.9339  0.2593  0.1771
  631MOL0     H83235   2.692   0.836   0.665  1.0645 -0.0697 -1.2595
  631MOL0     H83236   2.759   0.693   0.582  1.6869 -0.8344  1.2953
  631MOL0     H83237   2.564   0.703   0.811 -1.2808 -0.2234 -0.7861
  631MOL0     H83238   2.640   0.555   0.742 -3.5193 -0.4615 -0.6626
  631MOL0     H83239   2.551   0.617   0.530  0.0877  1.3892 -0.7118
  631MOL0     H83240   2.452   0.744   0.598 -0.5374  0.0564 -0.2559
  631MOL0     H83241   2.412   0.452   0.672 -4.2336 -1.0078 -0.9342
  631MOL0     H83242   2.333   0.585   0.752  0.1521 -0.6209  1.1190
  631MOL0     H83243   2.303   0.493   0.473  2.9813 -1.2324  1.2359
  631MOL0     H83244   2.231   0.652   0.533 -2.8283 -0.5760  1.0036
  631MOL0     H83245   2.170   0.266   0.545  0.8162  1.2047  0.2124
  631MOL0     H83246   1.920   0.176   0.753  0.9393  2.3962  1.0843
  631MOL0     H83247   1.932   0.141   0.574 -1.4499 -0.5730  0.0318
  631MOL0     H83248   1.763   0.342   0.566  1.2330 -0.6668  0.3131
  631MOL0     H83249   1.721   0.301   0.733 -2.9648 -1.1554 -0.1117
  631MOL0     H83250   1.663   0.105   0.494  1.3699 -2.6921 -0.0407
  631MOL0     H83251   1.667   0.067   0.668 -1.2540  1.3292  1.0652
  631MOL0     H83252   1.509   0.235   0.717 -0.1363 -0.4374  0.4196
  631MOL0     H83253   1.452   0.110   0.617 -1.9439  1.4002  1.0743
  631MOL0     H83254   1.277   0.283   0.681 -1.8427 -0.7111 -0.2276
  631MOL0     H83255   1.075   0.414   0.649  0.0912  0.2287  0.8432
  631MOL0     H83256   0.736   0.563   0.663  2.0123  2.3895  0.4602
  631MOL0     H83257   0.488   0.621   0.603 -2.7362  0.0695 -3.4800
  631MOL0     H83258   0.411   0.748   0.157  0.6081  0.1287 -0.3529
  631MOL0     H83259   0.275   0.808   0.243  0.2232  0.5400  1.7018
  631MOL0     H83260   0.245   0.549   0.322  0.2573  1.0149  0.5777
  631MOL0     H83261   0.381   0.536   0.200  1.0930  3.2756 -1.5255
  631MOL0     H83262   0.166   0.477   0.092  1.8717  0.3201 -0.6613
  631MOL0     H83263   0.223   0.618   0.024 -0.4836 -1.0953  0.3004
  631MOL0     H83264   0.061   0.751   0.185  0.5189  1.6617 -3.8117
  631MOL0     H83265   0.018   0.671   0.041  1.2335  1.5637 -0.9011
  631MOL0     H83266  -0.132   0.648   0.239  2.6589  1.0039  0.2561
  631MOL0     H83267  -0.018   0.545   0.314 -2.1739 -0.0173  1.2297
  631MOL0     H83268  -0.027   0.383   0.117 -1.9444 -2.9525 -1.1802
  631MOL0     H83269  -0.131   0.491   0.039  1.5268  0.6010 -0.3389
  631MOL0     H83270  -0.198   0.360   0.308 -3.1638  0.0624  1.4618
  631MOL0     H83271  -0.301   0.464   0.219 -0.6378 -0.2722 -4.0141
  631MOL0     H83272  -0.191   0.202   0.099 -0.9174 -0.6051  1.1828
  631MOL0     H83273  -0.289   0.316   0.017  2.4000  0.7849 -0.4842
  631MOL0     H83274   0.613   0.693   0.199 -3.1128  1.1247  2.2014
  631MOL0     H83275   0.824   0.591   0.251  0.1860 -1.4428  0.1385
  631MOL0     H83276   1.237   0.569   0.281 -2.5003 -1.5036 -0.2045
  631MOL0     H83277   1.442   0.447   0.313  1.8142 -1.6343  2.2163
  631MOL0     H83278   3.308   0.720   0.911 -0.1449  0.4387  0.5197
  631MOL0     H83279   3.560   0.779   0.981 -0.3285  1.1362  0.1304
  631MOL0     H83280   3.979   0.775   0.568 -0.3880  1.2322 -1.2141
  631MOL0     H83281   4.209   0.851   0.550  1.0967 -0.2447  0.1493
  631MOL0     H83282   4.379   1.005   0.498  1.8585  0.3514 -0.8140
  631MOL0     H83283   4.433   0.905   0.645 -0.4780 -0.5350 -1.8885
  631MOL0     H83284   4.524   1.182   0.615 -0.6322 -0.0208  4.7044
  631MOL0     H83285   4.569   1.067   0.727  2.4904 -1.7411 -0.9234
  631MOL0     H83286   4.649   1.014   0.436 -0.4713  1.6851 -0.3628
  631MOL0     H83287   4.713   0.938   0.582 -1.0145 -0.2423  0.7613
  631MOL0     H83288   4.872   1.078   0.475  0.7603 -2.1969  0.3341
  631MOL0     H83289   4.769   1.218   0.473  1.1009  0.4934  1.1747
  631MOL0     H83290   4.896   1.136   0.882  0.3621 -0.7015  0.2052
  631MOL0     H83291   4.156   1.124   0.874 -0.8896  0.2631 -0.4910
  631MOL0     H83292   3.937   1.010   0.925 -3.3463 -0.2933 -1.4778
  632MOL0     O83293   4.801   7.637   1.755  0.2325  0.6820 -0.3017
  632MOL0     C83294   4.747   7.741   1.727  0.5298 -0.4446 -0.8742
  632MOL0     O83295   4.627   7.749   1.665 -0.4305  0.2994 -0.5101
  632MOL0     C83296   4.554   7.634   1.656  0.8957  0.0878  0.6722
  632MOL0     C83297   4.424   7.637   1.705  0.9925 -0.0552  0.4193
  632MOL0     C83298   4.342   7.523   1.695  0.1343 -0.3808  0.1091
  632MOL0     C83299   4.388   7.408   1.624  0.1491  0.3564  0.3425
  632MOL0     O83300   4.302   7.299   1.602 -0.1437 -0.4077  0.5964
  632MOL0     C83301   4.160   7.325   1.615 -0.2107 -0.0994 -0.1110
  632MOL0     C83302   4.098   7.199   1.563 -0.5801  0.0927 -0.4015
  632MOL0     C83303   3.941   7.192   1.572  0.3689  0.2243  0.0351
  632MOL0     C83304   3.897   7.206   1.713  0.1272 -0.2491 -0.0493
  632MOL0     C83305   3.742   7.181   1.726  1.1238 -0.0126  1.0982
  632MOL0     C83306   3.686   7.192   1.867 -0.0062 -0.3258  0.6122
  632MOL0     C83307   3.734   7.079   1.966 -0.0600  0.1277 -0.5422
  632MOL0     C83308   3.655   7.084   2.096 -0.5018 -0.2930  0.7054
  632MOL0     N83309   3.514   7.051   2.073  0.6012 -0.1379 -0.7173
  632MOL0     C83310   3.469   6.919   2.045 -0.0721  0.4479 -0.2355
  632MOL0     C83311   3.341   6.937   2.006 -0.1501 -0.0318 -0.6406
  632MOL0     C83312   3.241   6.830   1.970 -0.4395  0.1512 -0.3206
  632MOL0     C83313   3.133   6.819   2.073 -0.1142  0.1298 -0.1176
  632MOL0     C83314   3.182   6.805   2.212  0.3802  0.2103 -1.1175
  632MOL0     C83315   3.084   6.756   2.318 -1.3895  0.4774  0.2647
  632MOL0     O83316   2.977   6.853   2.329 -0.5046 -0.2520 -0.3104
  632MOL0     C83317   2.882   6.826   2.424  0.0991  0.1231 -0.3969
  632MOL0     C83318   2.788   6.925   2.465 -0.2945  0.2341  0.5286
  632MOL0     C83319   2.676   6.892   2.543  0.6495 -0.6449  0.7162
  632MOL0     C83320   2.646   6.759   2.580  0.5735  0.3392 -0.4882
  632MOL0     C83321   2.519   6.736   2.645  0.2306 -0.5224 -0.8177
  632MOL0     O83322   2.449   6.847   2.679  0.4475 -0.6162 -0.3123
  632MOL0     C83323   2.329   6.831   2.735  0.5043  0.3551  0.8839
  632MOL0     C83324   2.314   6.770   2.859  0.6527 -0.3023 -0.8372
  632MOL0     C83325   2.184   6.756   2.910  0.2909 -0.2401 -0.9559
  632MOL0     C83326   2.071   6.788   2.836 -0.6715 -0.3525 -0.0149
  632MOL0     O83327   1.944   6.773   2.882  0.2287 -0.9022  0.3579
  632MOL0     C83328   1.932   6.671   2.982  0.1702 -0.4902  0.5729
  632MOL0     C83329   1.787   6.620   2.985 -0.1171 -0.2896  0.2801
  632MOL0     C83330   1.744   6.548   2.851  0.2010 -0.2860  0.3286
  632MOL0     C83331   1.596   6.501   2.849  0.0737 -0.4431  0.8110
  632MOL0     C83332   1.569   6.371   2.920  0.4699 -0.2292 -0.8766
  632MOL0     C83333   1.416   6.330   2.919 -0.8420  0.0405 -0.1439
  632MOL0     C83334   1.393   6.185   2.962  0.4575  0.0396 -0.3519
  632MOL0     C83335   1.241   6.149   2.949  0.9362 -0.1236  0.8907
  632MOL0    Cl83336   1.146   6.207   3.082  0.3735  0.2268  0.5396
  632MOL0     C83337   2.090   6.853   2.715 -0.0864 -0.5629  1.5543
  632MOL0     C83338   2.220   6.877   2.659 -0.1817  0.5463 -0.9207
  632MOL0     O83339   2.491   6.617   2.680  0.0044 -0.6258 -0.5300
  632MOL0     C83340   2.741   6.668   2.547  0.1842 -0.6822 -0.2193
  632MOL0     C83341   2.861   6.695   2.480  0.2760  0.1280 -0.0778
  632MOL0     N83342   3.311   7.071   2.009 -0.8360  0.6327  0.2023
  632MOL0     N83343   3.410   7.133   2.049  0.0834 -0.0505 -0.2240
  632MOL0     C83344   4.519   7.410   1.574  0.0198  1.1546  1.0308
  632MOL0     C83345   4.603   7.518   1.591  0.6232 -0.3334 -0.0350
  632MOL0     C83346   4.811   7.868   1.746  0.6927  0.3925  0.0089
  632MOL0     C83347   4.948   7.880   1.781  0.2103 -0.4003 -0.4195
  632MOL0     C83348   5.003   8.003   1.812  0.1172 -0.4165 -0.3824
  632MOL0     C83349   4.936   8.123   1.787 -0.3346  0.1333  1.3998
  632MOL0     O83350   4.995   8.244   1.770  0.1699  0.5197 -0.3789
  632MOL0     C83351   5.139   8.256   1.793  0.0116 -0.2550  0.5800
  632MOL0     C83352   5.179   8.404   1.765  0.3258  0.2117 -0.5055
  632MOL0     C83353   5.324   8.433   1.806 -0.4610  0.3855  0.1257
  632MOL0     C83354   5.328   8.472   1.953 -0.3927  0.2746 -0.4411
  632MOL0     C83355   5.458   8.453   2.016 -1.2431 -0.2302 -0.2443
  632MOL0     C83356   5.574   8.459   2.044 -0.1759 -0.2102 -0.2177
  632MOL0     C83357   4.803   8.113   1.750  0.7192  0.1818 -0.1589
  632MOL0     C83358   4.738   7.990   1.740  0.2215 -0.1231 -0.5503
  632MOL0     H83359   4.404   7.720   1.773 -0.3438 -1.2266  1.5194
  632MOL0     H83360   4.241   7.531   1.734 -0.1907  4.4704 -1.0676
  632MOL0     H83361   4.128   7.413   1.559  0.3826  0.8645  1.0250
  632MOL0     H83362   4.142   7.333   1.722 -0.0613 -0.5034 -0.0516
  632MOL0     H83363   4.145   7.121   1.624  1.1936  0.7796 -0.8383
  632MOL0     H83364   4.123   7.191   1.457 -2.1778  3.7808 -1.2009
  632MOL0     H83365   3.895   7.105   1.524  0.0417  0.4743 -0.1113
  632MOL0     H83366   3.902   7.272   1.509  4.3005  2.6282  0.3134
  632MOL0     H83367   3.960   7.133   1.765 -0.3470 -1.3848 -1.0233
  632MOL0     H83368   3.926   7.306   1.747  2.6390  0.2225 -3.0967
  632MOL0     H83369   3.720   7.081   1.689  0.8270 -0.2204  1.8378
  632MOL0     H83370   3.689   7.254   1.664  2.6626  1.3897  1.3431
  632MOL0     H83371   3.577   7.199   1.861  0.0174  1.3555  1.4437
  632MOL0     H83372   3.715   7.286   1.914 -1.4465  0.1340  0.6209
  632MOL0     H83373   3.706   6.980   1.929 -3.9712 -0.2152  2.5790
  632MOL0     H83374   3.839   7.089   1.992 -0.1137  0.8793 -0.5925
  632MOL0     H83375   3.684   7.178   2.144  1.0818  1.0748 -2.5881
  632MOL0     H83376   3.695   7.007   2.164  0.0561 -0.6829 -0.0446
  632MOL0     H83377   3.513   6.822   2.062 -1.2312  0.3508  2.9399
  632MOL0     H83378   3.292   6.735   1.956  0.6214  0.8764 -1.5946
  632MOL0     H83379   3.207   6.856   1.869 -0.0952  1.5936 -0.0930
  632MOL0     H83380   3.068   6.735   2.046  2.2908 -1.5663 -0.8938
  632MOL0     H83381   3.073   6.911   2.067 -0.9573 -0.4282 -0.4903
  632MOL0     H83382   3.257   6.726   2.202 -1.2430 -1.1770 -3.2870
  632MOL0     H83383   3.225   6.898   2.250 -0.3981  0.8795 -1.8252
  632MOL0     H83384   3.141   6.749   2.410  2.3050 -0.8277 -1.9176
  632MOL0     H83385   3.031   6.668   2.281 -4.1476  2.4658 -0.9207
  632MOL0     H83386   2.811   7.028   2.439  0.0909 -0.0931 -0.4694
  632MOL0     H83387   2.616   6.979   2.567  1.9531  0.4071  0.3054
  632MOL0     H83388   2.401   6.745   2.919  0.8766 -0.4278 -1.2128
  632MOL0     H83389   2.181   6.714   3.010  0.0046 -1.0811 -1.3110
  632MOL0     H83390   1.947   6.723   3.077  0.2529  5.4751 -2.2661
  632MOL0     H83391   2.006   6.592   2.967  4.8409  3.3284  1.0867
  632MOL0     H83392   1.732   6.712   3.004  2.3290  1.1658  0.8100
  632MOL0     H83393   1.772   6.546   3.064  4.3459 -3.0406 -1.0239
  632MOL0     H83394   1.805   6.463   2.821 -0.5109  0.0377 -2.2472
  632MOL0     H83395   1.748   6.617   2.767 -3.8605 -3.9529 -3.4249
  632MOL0     H83396   1.541   6.591   2.877 -2.7581 -1.9702  0.5567
  632MOL0     H83397   1.559   6.488   2.747  1.4386 -0.1824  0.2514
  632MOL0     H83398   1.596   6.382   3.025 -0.2276 -2.1497 -0.4677
  632MOL0     H83399   1.630   6.293   2.872  1.0886  0.6658 -1.5832
  632MOL0     H83400   1.384   6.341   2.815 -0.0706 -0.2824 -0.4248
  632MOL0     H83401   1.355   6.401   2.976 -1.9629 -0.6469 -0.4724
  632MOL0     H83402   1.447   6.119   2.894  1.0892  0.0089  0.1591
  632MOL0     H83403   1.441   6.152   3.055  3.6556 -0.0778 -1.9241
  632MOL0     H83404   1.222   6.042   2.945 -1.0064  0.1988 -2.8756
  632MOL0     H83405   1.198   6.195   2.859  0.1452 -3.7242 -0.7484
  632MOL0     H83406   2.003   6.886   2.660  0.5511  0.7478  1.2877
  632MOL0     H83407   2.235   6.922   2.561 -1.8055  1.7101 -0.6747
  632MOL0     H83408   2.738   6.565   2.580  0.0017 -0.1784  1.4475
  632MOL0     H83409   2.936   6.618   2.468 -0.3352 -0.2342 -1.9845
  632MOL0     H83410   4.552   7.322   1.519  0.1529  0.6279  1.9450
  632MOL0     H83411   4.703   7.513   1.548  0.4139  2.5126 -1.0756
  632MOL0     H83412   5.023   7.802   1.785  2.2281  1.4929  2.4096
  632MOL0     H83413   5.108   8.015   1.836 -0.0662  0.2349  0.1036
  632MOL0     H83414   5.190   8.190   1.723  0.5677 -0.1927  0.9212
  632MOL0     H83415   5.156   8.219   1.895 -1.3990 -2.8156 -0.0265
  632MOL0     H83416   5.157   8.412   1.658  0.5764 -1.4644 -0.7042
  632MOL0     H83417   5.118   8.467   1.831  0.9940 -1.8541  2.3037
  632MOL0     H83418   5.352   8.518   1.743 -2.9936  1.0995 -0.1480
  632MOL0     H83419   5.384   8.347   1.775  0.0086  1.8519 -3.5463
  632MOL0     H83420   5.286   8.572   1.967 -0.6056 -0.0688  1.6860
  632MOL0     H83421   5.261   8.399   2.000 -0.9721  2.2424  1.9650
  632MOL0     H83422   5.667   8.472   2.095 -0.9100 -0.3933  1.1941
  632MOL0     H83423   4.756   8.209   1.728  0.7449  0.6840  1.7904
  632MOL0     H83424   4.632   7.979   1.723 -0.1795 -0.3737  1.8160
  633MOL0     O83425   5.177   6.210   7.331 -0.4682 -0.9307 -0.1238
  633MOL0     C83426   5.216   6.096   7.323 -0.0329  0.0747  0.7836
  633MOL0     O83427   5.135   5.989   7.314  0.4298 -1.0489  0.1632
  633MOL0     C83428   5.001   6.012   7.284 -0.1744  1.0756 -0.3080
  633MOL0     C83429   4.911   5.955   7.371 -0.4281  0.6004 -0.1065
  633MOL0     C83430   4.770   5.966   7.337 -0.5502 -0.5019 -0.2178
  633MOL0     C83431   4.711   6.039   7.239 -0.9722  0.2239  0.1351
  633MOL0     O83432   4.574   6.053   7.235 -0.1867 -0.1260 -0.1173
  633MOL0     C83433   4.526   6.124   7.125  0.5049 -0.0943 -0.1092
  633MOL0     C83434   4.372   6.140   7.138  0.7523 -0.5502 -0.2556
  633MOL0     C83435   4.318   6.211   7.009 -0.6764 -0.6717 -0.0818
  633MOL0     C83436   4.168   6.176   6.991  0.3536  0.0286 -0.0564
  633MOL0     C83437   4.106   6.264   6.886  0.8448 -0.1294  0.1510
  633MOL0     C83438   4.088   6.402   6.933  0.4039  0.4718  0.1726
  633MOL0     C83439   3.997   6.483   6.845  0.4659 -1.0813  0.6187
  633MOL0     C83440   3.860   6.420   6.822  0.7173  0.1664 -0.5631
  633MOL0     N83441   3.762   6.506   6.752 -0.6023  0.0378  0.5487
  633MOL0     C83442   3.628   6.479   6.738 -0.2298 -0.1557 -0.1632
  633MOL0     C83443   3.584   6.597   6.691 -0.2440 -0.0363 -0.5828
  633MOL0     C83444   3.436   6.622   6.683  0.0555  0.0842  0.1242
  633MOL0     C83445   3.397   6.711   6.794 -0.3935 -0.4647 -0.2301
  633MOL0     C83446   3.249   6.733   6.785  0.5058  0.7234 -0.0925
  633MOL0     C83447   3.179   6.770   6.650  0.4858  0.5764  0.0809
  633MOL0     O83448   3.058   6.841   6.674 -0.8505 -0.1078 -0.6261
  633MOL0     C83449   2.935   6.782   6.655  0.0069  0.7801  0.2690
  633MOL0     C83450   2.908   6.648   6.682 -0.7049  0.6239 -0.4111
  633MOL0     C83451   2.778   6.593   6.671 -0.5890 -0.2740  0.7042
  633MOL0     C83452   2.673   6.678   6.629  0.2649 -0.7991 -1.1539
  633MOL0     C83453   2.536   6.626   6.617  0.6656  0.8414  0.4823
  633MOL0     O83454   2.441   6.715   6.572  0.4475 -0.6962  0.1361
  633MOL0     C83455   2.307   6.675   6.566  0.2415  0.2795  0.0432
  633MOL0     C83456   2.262   6.555   6.513  0.1179  0.2098 -0.0763
  633MOL0     C83457   2.125   6.532   6.485 -0.9506 -0.2496 -0.2957
  633MOL0     C83458   2.030   6.622   6.535 -0.8691 -0.5762  1.0789
  633MOL0     O83459   1.897   6.596   6.519 -1.1262 -0.0965  0.8406
  633MOL0     C83460   1.851   6.467   6.569  0.1701 -0.1532  0.2558
  633MOL0     C83461   1.751   6.403   6.475  0.0752  0.2605 -0.2410
  633MOL0     C83462   1.654   6.507   6.415  0.6208  1.0199 -0.1053
  633MOL0     C83463   1.544   6.420   6.353  0.0333  0.5914  0.6853
  633MOL0     C83464   1.447   6.491   6.256  0.5411  0.2099 -0.6010
  633MOL0     C83465   1.306   6.491   6.301 -0.2863  0.6476  0.1678
  633MOL0     C83466   1.283   6.572   6.426 -0.2589 -0.7980 -0.6051
  633MOL0     C83467   1.130   6.566   6.470 -0.5993  0.2740  0.5315
  633MOL0    Cl83468   1.132   6.683   6.612  0.2508  0.0819 -0.0143
  633MOL0     C83469   2.074   6.747   6.590  0.1991 -0.1574  0.3594
  633MOL0     C83470   2.212   6.777   6.597  0.3086 -0.0945 -0.1607
  633MOL0     O83471   2.507   6.518   6.673 -0.4911  0.0381 -0.3194
  633MOL0     C83472   2.700   6.814   6.611  0.2715  0.1643 -1.0385
  633MOL0     C83473   2.832   6.861   6.616  0.5350 -0.1246  0.3104
  633MOL0     N83474   3.691   6.688   6.667 -0.1015  0.0537 -1.1351
  633MOL0     N83475   3.804   6.624   6.705  0.4686 -0.1611  0.1176
  633MOL0     C83476   4.808   6.091   7.146  0.6501  0.0976  1.2935
  633MOL0     C83477   4.947   6.081   7.175 -0.4018 -0.6833 -0.0107
  633MOL0     C83478   5.356   6.072   7.346 -0.5062  0.6033  0.0663
  633MOL0     C83479   5.406   5.944   7.372  0.3358  0.2552 -0.6176
  633MOL0     C83480   5.537   5.929   7.405  0.1291  0.0492  0.0883
  633MOL0     C83481   5.624   6.032   7.420  0.2714 -0.3774 -0.4096
  633MOL0     O83482   5.755   6.026   7.452 -0.2060  0.0595 -0.1179
  633MOL0     C83483   5.788   5.911   7.531 -0.7355 -0.5635  1.2369
  633MOL0     C83484   5.908   5.941   7.613 -0.4161 -0.2197  0.0250
  633MOL0     C83485   5.875   6.040   7.736  0.3421 -0.4619  0.6326
  633MOL0     C83486   5.974   6.156   7.762 -0.3949 -0.2941  0.3141
  633MOL0     C83487   5.993   6.246   7.649 -0.4676 -0.0213 -0.0119
  633MOL0     C83488   6.022   6.334   7.567 -0.2371 -0.3842  0.1587
  633MOL0     C83489   5.574   6.157   7.383 -0.2473 -1.2026  0.4272
  633MOL0     C83490   5.440   6.180   7.352  0.2732  0.3951 -0.9818
  633MOL0     H83491   4.930   5.892   7.457  0.7139  1.5028  0.3320
  633MOL0     H83492   4.709   5.917   7.412  2.4777 -2.2322  1.2841
  633MOL0     H83493   4.553   6.066   7.035 -0.7036 -1.4318  0.3490
  633MOL0     H83494   4.573   6.222   7.115  1.6185 -0.6823 -1.0463
  633MOL0     H83495   4.356   6.197   7.230 -1.2990  3.2618 -2.6804
  633MOL0     H83496   4.329   6.040   7.142  0.7257 -0.5171  0.4807
  633MOL0     H83497   4.376   6.187   6.919  1.3203 -0.3800  1.0527
  633MOL0     H83498   4.326   6.319   7.019  0.0292 -0.1022 -4.5109
  633MOL0     H83499   4.168   6.069   6.965  2.9965  0.1366 -0.8070
  633MOL0     H83500   4.111   6.186   7.084 -0.7910 -2.3970 -0.4198
  633MOL0     H83501   4.012   6.224   6.847  0.2130 -0.0536  1.5189
  633MOL0     H83502   4.177   6.277   6.805  0.7562 -1.5435 -0.1762
  633MOL0     H83503   4.183   6.456   6.944 -0.0121  0.7583  3.4634
  633MOL0     H83504   4.051   6.409   7.036 -0.4177 -0.4165 -0.0495
  633MOL0     H83505   3.972   6.583   6.879 -0.2448 -0.1638 -2.2994
  633MOL0     H83506   4.047   6.494   6.748  0.3702 -1.1178  0.5657
  633MOL0     H83507   3.822   6.390   6.920  1.2415  1.2441 -0.0177
  633MOL0     H83508   3.871   6.326   6.767  0.0800 -1.2051  1.5206
  633MOL0     H83509   3.572   6.394   6.774  1.1475 -0.4925  1.3204
  633MOL0     H83510   3.374   6.533   6.691 -1.0029  0.5646 -1.9706
  633MOL0     H83511   3.421   6.669   6.585  0.5871  0.2031  0.0980
  633MOL0     H83512   3.446   6.808   6.802 -1.1189 -0.1825  1.3189
  633MOL0     H83513   3.419   6.668   6.892 -3.1922  0.4847  0.9108
  633MOL0     H83514   3.212   6.636   6.818  1.1825  1.1483  2.0912
  633MOL0     H83515   3.219   6.803   6.864  0.4553 -0.4821  0.9934
  633MOL0     H83516   3.166   6.676   6.596  1.1864  1.1601 -1.1565
  633MOL0     H83517   3.247   6.835   6.593  0.8949  0.3897  0.3518
  633MOL0     H83518   2.987   6.587   6.723 -2.5136  0.6733  3.6199
  633MOL0     H83519   2.755   6.488   6.686  0.9616 -1.3439 -3.1747
  633MOL0     H83520   2.327   6.475   6.480  1.4377 -0.4525  3.6749
  633MOL0     H83521   2.097   6.447   6.425  0.2019  0.3167 -1.7053
  633MOL0     H83522   1.795   6.487   6.661 -0.9689  0.0516 -0.4623
  633MOL0     H83523   1.927   6.390   6.587  0.4060 -0.0030 -0.0694
  633MOL0     H83524   1.703   6.333   6.544  1.2693  1.0026  1.4188
  633MOL0     H83525   1.812   6.351   6.400 -0.0444  0.3455 -0.3971
  633MOL0     H83526   1.687   6.547   6.319 -2.1018  0.7686 -1.2072
  633MOL0     H83527   1.608   6.580   6.482  1.0337  1.5382 -0.3726
  633MOL0     H83528   1.587   6.331   6.305 -1.4167 -0.4315  1.2284
  633MOL0     H83529   1.493   6.379   6.440 -0.5579  0.8718  0.4745
  633MOL0     H83530   1.466   6.445   6.158 -1.6406  1.8545 -1.8911
  633MOL0     H83531   1.476   6.596   6.247  2.5013 -0.2874 -0.4438
  633MOL0     H83532   1.285   6.385   6.322  2.6211  0.0263  0.3900
  633MOL0     H83533   1.245   6.533   6.221 -1.3769 -0.5080  0.3494
  633MOL0     H83534   1.348   6.523   6.499  0.3617 -1.7954 -1.7672
  633MOL0     H83535   1.315   6.675   6.413 -0.8012 -0.2980  1.7113
  633MOL0     H83536   1.091   6.471   6.508 -2.0948  0.9683  0.8173
  633MOL0     H83537   1.061   6.607   6.396  1.1099  0.5588 -0.9839
  633MOL0     H83538   2.004   6.826   6.617 -2.0341 -2.0195  0.3442
  633MOL0     H83539   2.239   6.879   6.622 -2.4585  0.5106  0.6308
  633MOL0     H83540   2.612   6.872   6.583 -1.5134 -2.7913 -2.0031
  633MOL0     H83541   2.850   6.967   6.606 -1.4341  0.2013 -0.2930
  633MOL0     H83542   4.772   6.147   7.060  1.5248  0.4632  1.1449
  633MOL0     H83543   5.004   6.114   7.089  0.2265 -0.7906  0.3572
  633MOL0     H83544   5.347   5.853   7.364  0.2130  0.2542  0.2123
  633MOL0     H83545   5.578   5.829   7.411 -0.9669 -0.8776 -4.1281
  633MOL0     H83546   5.818   5.832   7.461  1.7260  0.4461  1.0376
  633MOL0     H83547   5.700   5.889   7.590 -1.7742  0.0489 -0.0161
  633MOL0     H83548   5.953   5.847   7.644 -2.5672 -1.8777 -1.5368
  633MOL0     H83549   5.987   5.990   7.555 -1.2474  2.7094  1.1442
  633MOL0     H83550   5.860   5.996   7.834  0.1722  1.3668  1.4758
  633MOL0     H83551   5.786   6.100   7.715  0.3696  0.3494  2.6083
  633MOL0     H83552   5.939   6.212   7.849 -0.1818  0.1458  0.1236
  633MOL0     H83553   6.074   6.117   7.783  0.6358  1.8715 -0.2702
  633MOL0     H83554   6.049   6.414   7.501 -0.0283 -2.5005 -2.5110
  633MOL0     H83555   5.652   6.232   7.376 -1.3445  0.0717  1.2696
  633MOL0     H83556   5.405   6.278   7.324 -0.5594  0.1642 -0.7793
  634MOL0     O83557   8.799  10.030   1.074 -0.0833 -0.4569 -0.1385
  634MOL0     C83558   8.890  10.032   0.996 -0.3158  0.0616  0.5290
  634MOL0     O83559   8.882  10.013   0.864  0.5034  0.1712  0.2002
  634MOL0     C83560   8.760   9.991   0.806  0.0400  0.5183  0.2158
  634MOL0     C83561   8.663  10.087   0.814 -0.2572 -0.5311  0.7641
  634MOL0     C83562   8.548  10.068   0.739 -0.1609 -0.4422  0.1353
  634MOL0     C83563   8.527   9.964   0.650  0.0994  0.4390  0.2642
  634MOL0     O83564   8.409   9.960   0.589  0.1964 -0.2911  0.6891
  634MOL0     C83565   8.333   9.837   0.574 -0.3146  0.4123 -0.5442
  634MOL0     C83566   8.253   9.785   0.688  1.0861 -0.7414 -0.2104
  634MOL0     C83567   8.158   9.679   0.633  0.6025 -0.3861 -0.5072
  634MOL0     C83568   8.068   9.629   0.744 -0.1592 -0.2161  0.4086
  634MOL0     C83569   7.954   9.542   0.680 -0.5173  0.2181  0.8776
  634MOL0     C83570   7.856   9.477   0.783 -0.2713  1.5896  0.5124
  634MOL0     C83571   7.774   9.565   0.879  0.6364 -0.0528  0.2263
  634MOL0     C83572   7.679   9.670   0.815 -1.5573 -0.1387  0.6826
  634MOL0     N83573   7.539   9.636   0.793 -0.4439 -0.2154 -0.4106
  634MOL0     C83574   7.505   9.512   0.739 -0.0165 -0.1397 -0.9233
  634MOL0     C83575   7.376   9.503   0.770  0.4830  0.0899  0.6149
  634MOL0     C83576   7.304   9.378   0.741 -0.0843  0.2651 -0.2356
  634MOL0     C83577   7.150   9.380   0.757 -0.6561  0.4697  0.8413
  634MOL0     C83578   7.094   9.242   0.722  0.3496 -0.0224  0.4520
  634MOL0     C83579   6.940   9.266   0.701 -0.1714 -0.6453 -0.5740
  634MOL0     O83580   6.878   9.157   0.755  0.9515  0.2550 -1.0112
  634MOL0     C83581   6.743   9.150   0.744  0.4267 -0.1286  0.7659
  634MOL0     C83582   6.691   9.075   0.650  0.3823 -0.3375  0.7118
  634MOL0     C83583   6.557   9.052   0.629 -0.1612 -0.4801  0.2101
  634MOL0     C83584   6.466   9.121   0.711 -0.1557  0.8550 -0.3845
  634MOL0     C83585   6.325   9.104   0.699 -0.0398  0.0586  0.0643
  634MOL0     O83586   6.276   9.030   0.586  0.4562 -0.1880  0.2315
  634MOL0     C83587   6.145   8.978   0.595  0.0433 -0.1644  0.4656
  634MOL0     C83588   6.117   8.868   0.682 -1.9108 -0.2960  0.1111
  634MOL0     C83589   5.985   8.826   0.701  0.3650 -0.9400 -0.5908
  634MOL0     C83590   5.871   8.892   0.643 -0.4254  0.1805 -0.6713
  634MOL0     O83591   5.755   8.850   0.679  0.3979  0.2591 -0.2524
  634MOL0     C83592   5.645   8.862   0.595 -1.0218  0.1731  0.9008
  634MOL0     C83593   5.519   8.864   0.688  0.5439  0.6166  0.2030
  634MOL0     C83594   5.480   8.726   0.749 -0.9831 -0.4009 -0.9420
  634MOL0     C83595   5.355   8.732   0.844 -0.1518  0.1969  0.6247
  634MOL0     C83596   5.228   8.751   0.756  0.0967  0.8960  0.4136
  634MOL0     C83597   5.100   8.764   0.838  0.1326 -0.4296  0.0858
  634MOL0     C83598   5.026   8.630   0.834 -1.3778 -0.1782 -0.3741
  634MOL0     C83599   4.906   8.633   0.937 -0.3947 -0.4049 -0.2816
  634MOL0    Cl83600   4.798   8.764   0.892  0.1530 -0.2597 -0.1573
  634MOL0     C83601   5.902   8.989   0.550 -0.5755  0.5789 -0.3054
  634MOL0     C83602   6.038   9.035   0.535 -0.1147  0.5368 -0.2642
  634MOL0     O83603   6.257   9.125   0.799  0.4893  0.1463  0.2165
  634MOL0     C83604   6.518   9.203   0.814  0.5983  0.5928 -0.6856
  634MOL0     C83605   6.656   9.208   0.833  0.3382 -0.5542 -0.7867
  634MOL0     N83606   7.334   9.597   0.854 -0.1018 -0.6688 -0.4892
  634MOL0     N83607   7.438   9.673   0.869 -0.1603  0.0069  0.0921
  634MOL0     C83608   8.629   9.868   0.640 -0.0973 -0.0253  1.1922
  634MOL0     C83609   8.746   9.880   0.722  0.4685 -0.0912  0.5214
  634MOL0     C83610   9.025  10.051   1.046 -0.0726 -0.5683 -0.0682
  634MOL0     C83611   9.033  10.107   1.176  0.0505  0.1751  0.2117
  634MOL0     C83612   9.152  10.117   1.245 -0.9395 -0.0053 -0.3971
  634MOL0     C83613   9.274  10.085   1.175 -1.0339  0.7278  0.2781
  634MOL0     O83614   9.399  10.096   1.223  0.4915 -0.5849 -0.6435
  634MOL0     C83615   9.427  10.143   1.359  0.2145  0.4789 -0.7265
  634MOL0     C83616   9.575  10.184   1.370  0.7530  0.3850 -0.1065
  634MOL0     C83617   9.611  10.270   1.252 -0.3912 -0.2451  0.8229
  634MOL0     C83618   9.730  10.369   1.268 -0.0849 -0.5999  0.6016
  634MOL0     C83619   9.696  10.468   1.367  0.1859  0.6204  0.2862
  634MOL0     C83620   9.660  10.563   1.428 -1.2738  0.3221 -0.5172
  634MOL0     C83621   9.269  10.026   1.049  0.4346 -1.1685  0.3726
  634MOL0     C83622   9.149  10.019   0.980  0.2598 -0.4993  0.8200
  634MOL0     H83623   8.680  10.171   0.881  1.0495 -1.2051  1.3255
  634MOL0     H83624   8.471  10.144   0.750 -0.5370 -0.9633  1.3307
  634MOL0     H83625   8.397   9.758   0.532 -1.5994 -1.5437  0.9820
  634MOL0     H83626   8.264   9.854   0.491 -0.5360 -0.8601 -0.6452
  634MOL0     H83627   8.200   9.876   0.719 -0.4683 -1.0912 -1.7047
  634MOL0     H83628   8.317   9.743   0.765  1.1442 -1.9292 -0.8898
  634MOL0     H83629   8.220   9.595   0.601  3.9357  1.2179  1.2099
  634MOL0     H83630   8.099   9.727   0.555 -0.2718 -0.0582  0.3366
  634MOL0     H83631   8.129   9.564   0.807  1.1789 -1.9023 -2.4462
  634MOL0     H83632   8.029   9.715   0.799  2.5288  1.0596  0.4853
  634MOL0     H83633   7.997   9.462   0.618  1.7969  4.7893 -4.3334
  634MOL0     H83634   7.889   9.600   0.614  0.6835 -0.0480 -0.5940
  634MOL0     H83635   7.919   9.416   0.848  0.5444 -1.5407 -2.8940
  634MOL0     H83636   7.791   9.403   0.735 -0.0659 -0.4491  3.1502
  634MOL0     H83637   7.723   9.507   0.957 -3.4202 -0.9361 -2.7697
  634MOL0     H83638   7.856   9.620   0.927  3.6225 -1.1467 -3.1800
  634MOL0     H83639   7.724   9.712   0.724  1.4109 -2.3164  1.0191
  634MOL0     H83640   7.676   9.748   0.892  0.8460 -0.4944  1.2346
  634MOL0     H83641   7.570   9.438   0.693  0.8557 -0.4190  0.6880
  634MOL0     H83642   7.349   9.302   0.805  1.0718  1.6691  0.6797
  634MOL0     H83643   7.326   9.344   0.640  0.5597 -0.6932  0.2170
  634MOL0     H83644   7.121   9.455   0.682  0.3054 -0.3015 -0.3494
  634MOL0     H83645   7.128   9.414   0.859 -2.2967 -3.2159  1.8740
  634MOL0     H83646   7.120   9.207   0.622 -1.1174 -3.7124  1.1907
  634MOL0     H83647   7.111   9.159   0.791 -0.8879 -1.3668 -0.7777
  634MOL0     H83648   6.910   9.283   0.597 -0.8042  2.4182  0.0048
  634MOL0     H83649   6.911   9.360   0.749 -0.5587 -0.6806 -0.7370
  634MOL0     H83650   6.757   9.028   0.578  1.5660  0.2846  1.3579
  634MOL0     H83651   6.517   8.991   0.550 -1.4482  0.1136  0.3787
  634MOL0     H83652   6.206   8.823   0.726 -1.6039 -2.3070 -2.3339
  634MOL0     H83653   5.967   8.750   0.777  1.3960  0.9098  1.6193
  634MOL0     H83654   5.644   8.778   0.524 -1.7224 -0.9255  2.1597
  634MOL0     H83655   5.642   8.954   0.536  0.6958 -0.5109 -0.3477
  634MOL0     H83656   5.433   8.902   0.632 -1.1363 -0.5348  1.8905
  634MOL0     H83657   5.543   8.934   0.770 -1.4681  1.4877  0.0998
  634MOL0     H83658   5.563   8.690   0.809  0.0197 -2.4603 -3.3666
  634MOL0     H83659   5.467   8.657   0.665  1.3692 -2.5877  0.3702
  634MOL0     H83660   5.340   8.640   0.902  1.1324 -0.4921 -0.0699
  634MOL0     H83661   5.367   8.820   0.908  1.3133 -0.9124  1.9946
  634MOL0     H83662   5.223   8.663   0.692  0.6835  0.3703  1.0824
  634MOL0     H83663   5.227   8.839   0.690  0.3707  2.8736  2.8847
  634MOL0     H83664   5.031   8.838   0.796  1.2057 -0.1498 -1.2372
  634MOL0     H83665   5.124   8.786   0.942  1.3062  0.6239 -0.3856
  634MOL0     H83666   4.970   8.606   0.743 -2.5872 -1.0178  0.5552
  634MOL0     H83667   5.094   8.548   0.857 -0.4830  0.6063 -0.1220
  634MOL0     H83668   4.951   8.649   1.035 -2.4149  0.8811  0.4912
  634MOL0     H83669   4.858   8.535   0.941 -2.1223  0.4209  0.0226
  634MOL0     H83670   5.829   9.041   0.489 -0.2481  2.1618  0.6177
  634MOL0     H83671   6.062   9.119   0.470 -1.9739  1.4229  0.1262
  634MOL0     H83672   6.455   9.258   0.884  1.7397  0.8746  0.1479
  634MOL0     H83673   6.691   9.266   0.917 -1.7187 -2.5032  1.5894
  634MOL0     H83674   8.620   9.776   0.583 -0.4128  1.2893 -0.9856
  634MOL0     H83675   8.818   9.800   0.727  2.7674  1.9257  3.2834
  634MOL0     H83676   8.950  10.138   1.239 -0.0460  0.8138 -0.2235
  634MOL0     H83677   9.147  10.130   1.352 -3.2225  1.7970 -0.6417
  634MOL0     H83678   9.404  10.061   1.427  1.0323 -0.0331 -1.0520
  634MOL0     H83679   9.364  10.231   1.377 -0.4809 -0.5237  2.3481
  634MOL0     H83680   9.598  10.236   1.464 -0.1198 -0.7486  0.7725
  634MOL0     H83681   9.644  10.100   1.365  1.5547  0.9734  0.6906
  634MOL0     H83682   9.527  10.332   1.219  1.3075  0.7679 -1.9634
  634MOL0     H83683   9.633  10.198   1.172 -0.5246  2.6664 -2.0390
  634MOL0     H83684   9.825  10.316   1.277  0.4661  0.4465  1.1563
  634MOL0     H83685   9.735  10.428   1.176 -0.3991 -0.5237  0.6293
  634MOL0     H83686   9.624  10.649   1.482 -2.1893  1.4017 -2.7461
  634MOL0     H83687   9.357   9.980   1.005  0.8476 -1.5833  1.5916
  634MOL0     H83688   9.146   9.981   0.878 -2.1065  0.3992  0.4768
  635MOL0     O83689   2.321   3.486   2.289 -0.3534  0.2359  0.1477
  635MOL0     C83690   2.288   3.529   2.182 -0.0020 -0.8674  0.5089
  635MOL0     O83691   2.159   3.574   2.148 -0.0069 -0.4955  1.0702
  635MOL0     C83692   2.075   3.604   2.250  0.2816  0.1404  0.8452
  635MOL0     C83693   1.936   3.580   2.235 -0.4093 -0.0299  0.7447
  635MOL0     C83694   1.853   3.613   2.344  0.2112  0.7403  0.3621
  635MOL0     C83695   1.903   3.674   2.463 -0.2024  0.3882  0.4297
  635MOL0     O83696   1.817   3.714   2.563  0.0129  0.4084  0.0570
  635MOL0     C83697   1.850   3.836   2.616 -0.1031 -0.3704  0.6139
  635MOL0     C83698   1.738   3.902   2.687 -0.1650 -0.5699  0.4366
  635MOL0     C83699   1.594   3.859   2.643  0.9895 -0.2657 -0.7029
  635MOL0     C83700   1.485   3.953   2.714 -0.3109 -0.5466  0.1827
  635MOL0     C83701   1.342   3.939   2.652 -0.7492  0.3460  0.3085
  635MOL0     C83702   1.314   3.796   2.598  0.5715 -0.9048  0.1699
  635MOL0     C83703   1.166   3.772   2.583  0.4644  0.6775  0.4248
  635MOL0     C83704   1.130   3.783   2.440 -0.7730  0.3031 -0.2602
  635MOL0     N83705   0.981   3.785   2.437 -0.0858 -0.1788  0.0373
  635MOL0     C83706   0.904   3.695   2.391  1.0927  1.2605  0.0156
  635MOL0     C83707   0.775   3.737   2.390  0.0475 -0.4445  0.0562
  635MOL0     C83708   0.649   3.668   2.347  0.3273  0.2730 -0.0960
  635MOL0     C83709   0.668   3.603   2.206 -0.0494 -0.1718 -0.1978
  635MOL0     C83710   0.657   3.719   2.096  0.5063  0.2260 -0.8808
  635MOL0     C83711   0.786   3.786   2.054 -0.0413 -0.9470 -0.4569
  635MOL0     O83712   0.891   3.691   2.019 -0.3601  0.3164  0.0129
  635MOL0     C83713   1.021   3.728   1.996 -0.1157  0.5217  0.0279
  635MOL0     C83714   1.105   3.623   1.968  0.4315  0.3318  0.2419
  635MOL0     C83715   1.245   3.643   1.957  0.3669 -0.5444  0.7536
  635MOL0     C83716   1.310   3.765   1.985 -0.4314  0.1711  0.8883
  635MOL0     C83717   1.457   3.777   1.998 -0.0344 -1.3230 -0.0565
  635MOL0     O83718   1.497   3.900   2.036  0.5798  0.0530  0.6851
  635MOL0     C83719   1.634   3.922   2.060  0.8639  0.4025 -0.1537
  635MOL0     C83720   1.741   3.857   1.996  0.0711  0.9966 -0.4841
  635MOL0     C83721   1.877   3.894   2.018 -0.1659 -0.1598 -0.3115
  635MOL0     C83722   1.906   3.971   2.135 -0.0113 -0.0502  0.4083
  635MOL0     O83723   2.041   3.975   2.165 -0.3570 -0.1767  0.6720
  635MOL0     C83724   2.103   4.067   2.257  0.4080  0.0688 -0.2212
  635MOL0     C83725   2.252   4.015   2.271  0.0454 -0.4037  0.7583
  635MOL0     C83726   2.336   4.054   2.148  0.8089  0.2414  0.1527
  635MOL0     C83727   2.474   3.983   2.146  0.2200  0.2403 -0.1456
  635MOL0     C83728   2.564   4.038   2.024  0.0604  0.3825 -0.4881
  635MOL0     C83729   2.714   4.011   2.064 -0.2036 -0.2888 -0.4959
  635MOL0     C83730   2.812   4.075   1.953 -0.0352  0.3364  0.4477
  635MOL0     C83731   2.951   4.091   2.017 -0.8251  0.1365  0.2953
  635MOL0    Cl83732   3.013   3.933   2.026 -0.5899  0.0355 -0.5290
  635MOL0     C83733   1.797   4.014   2.221  0.8653 -0.9164 -0.0453
  635MOL0     C83734   1.664   3.992   2.182 -0.5298  0.0782  0.1536
  635MOL0     O83735   1.524   3.675   1.994 -0.1766  0.2856 -0.8123
  635MOL0     C83736   1.219   3.877   1.992 -0.3712 -0.3451  0.0886
  635MOL0     C83737   1.079   3.856   1.996 -0.1082  0.1754  0.0992
  635MOL0     N83738   0.772   3.866   2.440 -0.1961 -0.2428 -0.2111
  635MOL0     N83739   0.895   3.895   2.466  0.2798 -0.0025  0.5681
  635MOL0     C83740   2.042   3.707   2.461  0.9020 -0.0418  0.0787
  635MOL0     C83741   2.121   3.677   2.358 -0.4034  0.8642  0.3378
  635MOL0     C83742   2.399   3.556   2.086  0.1939 -0.2516 -0.2220
  635MOL0     C83743   2.378   3.648   1.979  0.6730 -0.2556 -0.6000
  635MOL0     C83744   2.477   3.674   1.896 -0.9286 -0.0755 -0.1432
  635MOL0     C83745   2.602   3.609   1.905  0.3630  0.1279 -0.5988
  635MOL0     O83746   2.680   3.642   1.798 -0.8597 -0.0741  0.7885
  635MOL0     C83747   2.801   3.563   1.777 -0.0390 -0.0423 -0.5006
  635MOL0     C83748   2.927   3.634   1.845  0.2742  0.7413  0.1572
  635MOL0     C83749   3.038   3.529   1.853 -0.7807 -0.7549  0.7411
  635MOL0     C83750   3.163   3.580   1.931  0.6369 -0.4987 -0.2551
  635MOL0     C83751   3.265   3.472   1.947 -0.1371  0.7988 -0.0289
  635MOL0     C83752   3.357   3.394   1.984  0.1254  0.1747 -0.1184
  635MOL0     C83753   2.629   3.520   2.008 -1.1993 -0.7110 -0.1995
  635MOL0     C83754   2.528   3.502   2.105 -0.1230  0.3591 -0.1736
  635MOL0     H83755   1.899   3.540   2.141 -5.1560 -0.0263  2.3674
  635MOL0     H83756   1.747   3.591   2.337  0.6742 -1.4388 -0.8560
  635MOL0     H83757   1.874   3.901   2.532 -0.4408 -1.2719 -0.1953
  635MOL0     H83758   1.943   3.830   2.673  0.6553  0.0831 -0.5544
  635MOL0     H83759   1.756   4.010   2.679  0.9449 -0.7698  0.1356
  635MOL0     H83760   1.750   3.877   2.793 -4.1533  2.5787  1.9233
  635MOL0     H83761   1.591   3.757   2.681  2.1179  0.2526  0.8910
  635MOL0     H83762   1.578   3.858   2.535 -1.4203  1.0169 -0.4299
  635MOL0     H83763   1.470   3.936   2.821 -0.3716  0.7482  0.3968
  635MOL0     H83764   1.525   4.055   2.713 -0.4363 -0.4627  1.5659
  635MOL0     H83765   1.333   4.019   2.578  0.5461 -0.4389 -0.7317
  635MOL0     H83766   1.272   3.964   2.733  1.6291  1.2818  2.1820
  635MOL0     H83767   1.353   3.727   2.674  0.4822  0.4763  1.5180
  635MOL0     H83768   1.364   3.773   2.503 -1.0323  1.4923 -1.3587
  635MOL0     H83769   1.151   3.668   2.616  4.1323 -0.4644 -1.0141
  635MOL0     H83770   1.101   3.841   2.637  0.8372  1.6614 -0.3645
  635MOL0     H83771   1.164   3.694   2.385 -2.7428 -1.8455  1.7567
  635MOL0     H83772   1.173   3.873   2.395 -0.9644 -0.8017 -2.8511
  635MOL0     H83773   0.939   3.595   2.366 -0.2034  1.0995 -1.3168
  635MOL0     H83774   0.567   3.739   2.347  0.2123  0.1627 -1.3349
  635MOL0     H83775   0.620   3.593   2.421  0.5116  1.1584  0.9029
  635MOL0     H83776   0.593   3.527   2.180  0.5821 -0.5188 -1.0434
  635MOL0     H83777   0.756   3.540   2.191  1.0447  2.0048 -4.6936
  635MOL0     H83778   0.615   3.665   2.011 -0.1434  1.3768 -1.3047
  635MOL0     H83779   0.591   3.801   2.125  2.5296  0.8933  2.4058
  635MOL0     H83780   0.822   3.851   2.135  0.8569 -0.4879 -1.1975
  635MOL0     H83781   0.772   3.860   1.975  0.7294  0.5060  0.7176
  635MOL0     H83782   1.071   3.520   1.971  1.8423 -0.1357  1.1695
  635MOL0     H83783   1.312   3.558   1.948 -1.6901 -2.2286  0.5807
  635MOL0     H83784   1.730   3.790   1.911  1.4268  0.1086  0.0093
  635MOL0     H83785   1.948   3.851   1.948  1.8024 -1.7775  2.4696
  635MOL0     H83786   2.060   4.071   2.358  1.9267 -3.6218  0.7347
  635MOL0     H83787   2.108   4.170   2.223  1.2603  1.4046  3.4954
  635MOL0     H83788   2.266   3.907   2.280  0.6772 -0.4854 -0.8213
  635MOL0     H83789   2.290   4.042   2.370 -2.0638 -0.7238  1.7250
  635MOL0     H83790   2.354   4.162   2.157 -0.4999  0.3069  3.3320
  635MOL0     H83791   2.290   4.028   2.052  1.6520  1.7737 -0.7240
  635MOL0     H83792   2.532   4.004   2.237  1.8190 -0.9300 -0.8406
  635MOL0     H83793   2.475   3.874   2.154  3.0884  0.2564  1.1142
  635MOL0     H83794   2.549   4.145   2.010 -2.2198  0.1246 -0.4452
  635MOL0     H83795   2.540   4.002   1.924  1.4825 -0.6078 -0.4971
  635MOL0     H83796   2.717   3.902   2.070 -2.8406 -0.3795  1.0650
  635MOL0     H83797   2.741   4.050   2.162 -1.1578  0.5233 -0.5374
  635MOL0     H83798   2.805   3.998   1.875 -0.4994 -0.2505  1.0577
  635MOL0     H83799   2.770   4.171   1.919 -2.2926 -0.9509 -0.6615
  635MOL0     H83800   2.953   4.125   2.121 -0.4908  0.4107  0.2029
  635MOL0     H83801   3.020   4.156   1.962  1.4685 -1.3086  1.2717
  635MOL0     H83802   1.806   4.075   2.310 -1.6378  0.1670 -0.4222
  635MOL0     H83803   1.581   4.028   2.241  0.5546  0.3206  1.5851
  635MOL0     H83804   1.263   3.975   2.007 -1.1865 -0.1041  1.0391
  635MOL0     H83805   1.009   3.936   2.020  0.4642  1.2783 -1.7706
  635MOL0     H83806   2.098   3.761   2.536  0.9210  1.4042 -0.9383
  635MOL0     H83807   2.222   3.716   2.362 -0.1927  0.6462 -1.7115
  635MOL0     H83808   2.278   3.682   1.959 -0.0820 -3.0178 -1.9610
  635MOL0     H83809   2.456   3.745   1.817  0.3161  0.1475 -0.2980
  635MOL0     H83810   2.831   3.551   1.673  5.3157  0.0038  0.7462
  635MOL0     H83811   2.799   3.456   1.799 -0.9678 -0.3267 -1.8644
  635MOL0     H83812   2.958   3.711   1.773 -0.1943  0.7087 -0.0834
  635MOL0     H83813   2.905   3.688   1.938  4.1475  1.6755  0.7150
  635MOL0     H83814   3.082   3.526   1.752  0.9343  2.6111  1.2595
  635MOL0     H83815   3.003   3.436   1.899  0.4301 -0.7591  1.7100
  635MOL0     H83816   3.206   3.659   1.870 -0.5793  1.8304  1.7371
  635MOL0     H83817   3.135   3.634   2.022 -1.1988 -0.4551 -0.8017
  635MOL0     H83818   3.419   3.315   2.022 -0.1138  0.3704  0.7066
  635MOL0     H83819   2.724   3.471   2.027  0.9923  3.2536  0.1689
  635MOL0     H83820   2.543   3.444   2.195 -3.4841  1.1485  1.0175
  636MOL0     O83821   3.938   8.516   2.670 -0.4208 -0.6077 -1.0788
  636MOL0     C83822   3.996   8.491   2.778  0.3548  0.5229  0.5368
  636MOL0     O83823   3.946   8.492   2.910 -0.2186 -0.2994  0.0828
  636MOL0     C83824   3.820   8.517   2.946  1.3069  0.0230 -0.2747
  636MOL0     C83825   3.773   8.472   3.069 -0.5450  0.1672 -0.1836
  636MOL0     C83826   3.649   8.512   3.118  0.3777 -0.1068 -0.1648
  636MOL0     C83827   3.560   8.584   3.040  1.0422  0.3283  0.6830
  636MOL0     O83828   3.438   8.631   3.082 -0.4494  0.0268  0.3349
  636MOL0     C83829   3.345   8.550   3.150 -0.0633  0.0251  0.1446
  636MOL0     C83830   3.225   8.539   3.059 -0.2695 -0.0212  0.1616
  636MOL0     C83831   3.159   8.675   3.027  0.0531  0.6219  0.4893
  636MOL0     C83832   3.025   8.644   2.955 -0.8984  0.2177 -0.2908
  636MOL0     C83833   2.952   8.770   2.915  0.4987  0.2324  0.5164
  636MOL0     C83834   3.028   8.856   2.821  0.2369 -0.2074 -0.9495
  636MOL0     C83835   2.921   8.949   2.765 -0.2245 -0.2646  0.5096
  636MOL0     C83836   2.977   9.052   2.668  0.3101 -1.0083  0.1191
  636MOL0     N83837   2.872   9.147   2.622 -0.2541  0.1440  0.0380
  636MOL0     C83838   2.836   9.257   2.696  0.3802 -1.0029  0.3374
  636MOL0     C83839   2.775   9.340   2.604  0.2171  0.6389  0.6973
  636MOL0     C83840   2.736   9.485   2.627  1.2353 -0.5996 -0.5288
  636MOL0     C83841   2.583   9.493   2.665  0.6324 -0.5491 -0.6740
  636MOL0     C83842   2.557   9.484   2.821  0.5796 -0.0998 -0.3818
  636MOL0     C83843   2.412   9.515   2.841  0.3313  0.7441  0.2845
  636MOL0     O83844   2.319   9.481   2.732 -0.2265  0.5953 -0.0876
  636MOL0     C83845   2.184   9.508   2.754 -0.2710 -0.2383 -0.1836
  636MOL0     C83846   2.144   9.602   2.851  0.1064 -0.8069 -0.3525
  636MOL0     C83847   2.004   9.604   2.879 -0.4515  0.6256  0.8546
  636MOL0     C83848   1.917   9.524   2.804  0.3015  0.2422  0.1795
  636MOL0     C83849   1.767   9.525   2.833  0.2463  0.7854 -0.3843
  636MOL0     O83850   1.735   9.584   2.955 -0.2551 -0.1324  0.4861
  636MOL0     C83851   1.603   9.619   2.975  0.9289  0.3622  0.2396
  636MOL0     C83852   1.558   9.751   2.954 -0.6313 -0.4088 -0.9816
  636MOL0     C83853   1.425   9.786   3.000 -0.4605 -0.0238 -0.7405
  636MOL0     C83854   1.327   9.689   3.031  0.1743  0.4834  0.0847
  636MOL0     O83855   1.195   9.717   3.061  0.3798 -0.2878  0.3821
  636MOL0     C83856   1.091   9.623   3.029 -0.2466  0.2344  0.1865
  636MOL0     C83857   0.954   9.669   3.090  0.0430  0.1281  0.4718
  636MOL0     C83858   0.953   9.713   3.242 -0.6264  0.0507  0.6764
  636MOL0     C83859   0.977   9.594   3.335  0.6186  1.0933  0.2379
  636MOL0     C83860   1.031   9.646   3.468 -0.1229 -0.4424 -0.1008
  636MOL0     C83861   1.020   9.547   3.584 -0.4293  0.1654 -0.2709
  636MOL0     C83862   0.876   9.517   3.634 -0.0293  0.1067  0.0317
  636MOL0     C83863   0.870   9.466   3.780 -0.0392 -0.1142  0.3419
  636MOL0    Cl83864   0.920   9.587   3.897  0.1619  0.0206  0.0619
  636MOL0     C83865   1.377   9.555   3.033 -0.6299  0.0637 -0.4013
  636MOL0     C83866   1.512   9.527   3.027 -0.1469  0.0729  0.5705
  636MOL0     O83867   1.690   9.480   2.749 -0.4880  0.1501  0.2020
  636MOL0     C83868   1.960   9.440   2.705 -0.1612 -0.4536 -0.6838
  636MOL0     C83869   2.098   9.419   2.698  0.0908  1.1818  0.5025
  636MOL0     N83870   2.771   9.273   2.478 -0.0041  0.1212  0.0918
  636MOL0     N83871   2.825   9.155   2.496  0.1923  0.8636  0.4086
  636MOL0     C83872   3.604   8.615   2.909 -0.3496  0.6212 -0.5047
  636MOL0     C83873   3.731   8.588   2.866  0.7967  0.6692  0.1214
  636MOL0     C83874   4.144   8.449   2.774  0.3849  0.2697  0.1519
  636MOL0     C83875   4.207   8.446   2.648 -0.6935  0.7350  0.2349
  636MOL0     C83876   4.335   8.407   2.626  0.0658  0.8239 -0.2601
  636MOL0     C83877   4.416   8.374   2.738  0.3732  1.0915  1.1026
  636MOL0     O83878   4.545   8.330   2.713  0.6519  0.6298 -0.5597
  636MOL0     C83879   4.654   8.331   2.808  0.6408 -0.3178 -0.3046
  636MOL0     C83880   4.782   8.288   2.732 -0.1382  0.0258  0.2365
  636MOL0     C83881   4.835   8.387   2.623  0.6001 -0.5054  0.3443
  636MOL0     C83882   4.868   8.321   2.485 -0.2517 -1.2935  0.3930
  636MOL0     C83883   4.745   8.301   2.417  1.2770  0.2982 -0.2412
  636MOL0     C83884   4.637   8.285   2.368  0.2524 -0.5838 -0.4826
  636MOL0     C83885   4.357   8.369   2.868 -0.5811 -0.5873  0.0374
  636MOL0     C83886   4.226   8.408   2.885  0.8844  0.0414 -0.6848
  636MOL0     H83887   3.838   8.407   3.127  0.9495  1.5448 -0.2394
  636MOL0     H83888   3.619   8.470   3.213  0.2137 -0.8690 -0.5472
  636MOL0     H83889   3.319   8.610   3.237  0.4223  2.8662 -1.5595
  636MOL0     H83890   3.363   8.446   3.180 -3.2837 -0.2077  1.6653
  636MOL0     H83891   3.155   8.475   3.114 -0.5687  0.2517  0.1009
  636MOL0     H83892   3.252   8.484   2.967  1.3059 -0.1511  0.6718
  636MOL0     H83893   3.225   8.727   2.957 -1.5096 -2.5938 -3.8253
  636MOL0     H83894   3.133   8.737   3.113  0.8228 -1.4975  2.3269
  636MOL0     H83895   3.063   8.609   2.859  0.7441 -0.5977  0.6134
  636MOL0     H83896   2.958   8.575   3.007  1.2077 -0.6311  1.4029
  636MOL0     H83897   2.927   8.818   3.009 -3.0950 -1.2625  0.4692
  636MOL0     H83898   2.855   8.744   2.872  1.7225 -2.0265 -1.1074
  636MOL0     H83899   3.069   8.792   2.742 -1.0504 -1.5473 -0.5755
  636MOL0     H83900   3.115   8.899   2.871  1.2609 -3.8221  0.7425
  636MOL0     H83901   2.847   8.890   2.710  2.2582 -1.8766 -1.3520
  636MOL0     H83902   2.877   8.994   2.854  0.8458  1.3635  0.2576
  636MOL0     H83903   3.016   9.003   2.578  2.9370  4.8128 -2.4729
  636MOL0     H83904   3.056   9.110   2.717 -0.0039  0.3352 -0.8972
  636MOL0     H83905   2.866   9.285   2.796 -0.6654 -1.9615  0.9324
  636MOL0     H83906   2.744   9.545   2.537  0.3166  2.3466  1.2233
  636MOL0     H83907   2.802   9.529   2.702  1.0132 -0.9237 -0.1358
  636MOL0     H83908   2.541   9.405   2.616  1.2505 -1.4667  0.3829
  636MOL0     H83909   2.529   9.583   2.636 -1.0783 -0.4200  2.4481
  636MOL0     H83910   2.597   9.391   2.863  0.1235 -1.2769 -2.3891
  636MOL0     H83911   2.612   9.570   2.859  2.5441  0.0190 -3.2117
  636MOL0     H83912   2.406   9.624   2.839  0.7777  0.7785  0.5552
  636MOL0     H83913   2.371   9.469   2.932 -0.3785  0.9776  0.0837
  636MOL0     H83914   2.207   9.654   2.922 -1.0895 -2.2939  1.9065
  636MOL0     H83915   1.964   9.679   2.947  0.0433  1.7247 -0.0397
  636MOL0     H83916   1.628   9.824   2.914  0.2379 -0.9975 -0.5604
  636MOL0     H83917   1.382   9.885   2.984 -0.7110 -0.1829 -1.0527
  636MOL0     H83918   1.113   9.522   3.064 -2.1116 -0.3033 -0.1062
  636MOL0     H83919   1.086   9.634   2.920  0.5049  2.7611  0.3473
  636MOL0     H83920   0.876   9.594   3.075 -0.0088  0.6688 -2.6420
  636MOL0     H83921   0.920   9.755   3.032 -1.3150 -2.1949 -2.4601
  636MOL0     H83922   0.854   9.749   3.273 -1.0019 -0.1043 -0.2760
  636MOL0     H83923   1.029   9.784   3.276  1.2175 -2.0470  1.1130
  636MOL0     H83924   0.886   9.536   3.352  1.4486 -0.7405 -1.1826
  636MOL0     H83925   1.049   9.520   3.296 -0.1882 -1.8483  3.7351
  636MOL0     H83926   0.969   9.734   3.488  0.1889  0.3468 -2.3761
  636MOL0     H83927   1.137   9.668   3.455  0.3046 -1.6971  1.0039
  636MOL0     H83928   1.073   9.599   3.665 -0.7186 -0.2354  0.1781
  636MOL0     H83929   1.066   9.452   3.556 -2.6601 -0.7114 -1.2261
  636MOL0     H83930   0.810   9.601   3.612 -2.3607 -1.5166  0.3934
  636MOL0     H83931   0.841   9.435   3.570  1.2012 -0.8739  0.5684
  636MOL0     H83932   0.936   9.378   3.788  2.1338  1.5482  1.8655
  636MOL0     H83933   0.767   9.440   3.804  0.2929  0.3389  2.5287
  636MOL0     H83934   1.305   9.474   3.027 -4.9576  3.5860 -1.3568
  636MOL0     H83935   1.539   9.422   3.031 -0.1024  0.0368 -0.4144
  636MOL0     H83936   1.898   9.375   2.644 -3.8270  1.8121  0.3070
  636MOL0     H83937   2.130   9.335   2.636 -2.7613  0.0848  0.3564
  636MOL0     H83938   3.540   8.675   2.845  2.4215  1.6770 -2.4526
  636MOL0     H83939   3.766   8.628   2.771  1.9687 -0.2437  0.1477
  636MOL0     H83940   4.145   8.481   2.566  1.1542 -0.2061 -1.6477
  636MOL0     H83941   4.364   8.419   2.522 -0.0792 -2.1131 -0.7073
  636MOL0     H83942   4.624   8.263   2.888 -3.1649  0.3964 -0.8860
  636MOL0     H83943   4.664   8.428   2.858 -1.3315  0.2483 -0.8799
  636MOL0     H83944   4.865   8.284   2.803 -0.3192  0.2190  0.4637
  636MOL0     H83945   4.775   8.193   2.680  1.5252  0.0906 -0.1632
  636MOL0     H83946   4.925   8.430   2.668  0.9742 -1.0012  0.0890
  636MOL0     H83947   4.764   8.470   2.612  1.2373  0.3058  1.9601
  636MOL0     H83948   4.932   8.393   2.432 -1.5778  1.4770  2.3157
  636MOL0     H83949   4.919   8.224   2.488  1.7334 -0.2788  1.6743
  636MOL0     H83950   4.545   8.253   2.322 -0.2380 -1.9385  1.3311
  636MOL0     H83951   4.415   8.336   2.954 -0.8620  2.6350  1.6135
  636MOL0     H83952   4.179   8.394   2.982  0.7632 -0.1520 -0.7724
  637MOL0     O83953   5.358   7.537   3.733 -0.0308 -0.0085 -0.1959
  637MOL0     C83954   5.339   7.657   3.755  0.3551  0.8794 -0.1166
  637MOL0     O83955   5.227   7.704   3.799 -0.1566  0.1835 -0.1836
  637MOL0     C83956   5.112   7.632   3.800  0.2036 -0.7421  0.5206
  637MOL0     C83957   5.047   7.603   3.925  0.7537  0.0681  0.1852
  637MOL0     C83958   4.914   7.554   3.925 -0.4148 -0.9420 -0.7228
  637MOL0     C83959   4.844   7.533   3.805 -0.6679 -0.7729  0.1873
  637MOL0     O83960   4.720   7.464   3.818 -0.6121 -0.0497  0.8902
  637MOL0     C83961   4.631   7.454   3.702 -0.0875 -0.0087 -0.4602
  637MOL0     C83962   4.497   7.394   3.737  0.2142 -0.0864  0.2884
  637MOL0     C83963   4.400   7.404   3.626  0.5158  0.2538 -0.0012
  637MOL0     C83964   4.278   7.328   3.643 -0.3020 -0.0187  0.8029
  637MOL0     C83965   4.165   7.350   3.531  0.0031 -0.3788  0.4922
  637MOL0     C83966   4.048   7.448   3.567 -0.9692  0.0670 -0.5513
  637MOL0     C83967   3.943   7.450   3.450  0.0726 -0.7515 -0.0346
  637MOL0     C83968   3.815   7.401   3.513  0.1666  0.1098  0.2684
  637MOL0     N83969   3.717   7.390   3.413 -0.1433 -0.0496  0.3261
  637MOL0     C83970   3.631   7.486   3.355  0.0151 -0.3837  0.1285
  637MOL0     C83971   3.552   7.413   3.276 -0.5010  0.6773 -0.4130
  637MOL0     C83972   3.460   7.467   3.181  0.1744 -0.2175  0.4070
  637MOL0     C83973   3.517   7.471   3.042 -0.3647  0.0893  0.4230
  637MOL0     C83974   3.403   7.488   2.937  0.7418 -0.5367  0.2268
  637MOL0     C83975   3.456   7.553   2.814  1.3356 -0.1404  0.1074
  637MOL0     O83976   3.417   7.692   2.799  0.2911 -0.5920 -0.5181
  637MOL0     C83977   3.459   7.768   2.694 -0.1349  0.2929 -0.4810
  637MOL0     C83978   3.585   7.752   2.628  0.0971  0.2674  0.2206
  637MOL0     C83979   3.635   7.854   2.550 -0.4088  0.3150  0.0604
  637MOL0     C83980   3.573   7.970   2.517  0.0164  0.3533  0.7970
  637MOL0     C83981   3.628   8.085   2.434  0.3146 -0.2372 -0.2193
  637MOL0     O83982   3.581   8.213   2.448  0.3101  0.8632  0.5024
  637MOL0     C83983   3.635   8.317   2.378 -0.3688  0.4556  0.6841
  637MOL0     C83984   3.655   8.314   2.238  0.5508  0.2790 -0.2473
  637MOL0     C83985   3.705   8.419   2.165 -0.2881 -0.2380  0.6130
  637MOL0     C83986   3.757   8.528   2.235 -0.3683 -0.5952  0.5023
  637MOL0     O83987   3.815   8.634   2.167  0.0263  0.2766  0.6619
  637MOL0     C83988   3.819   8.639   2.021 -0.0398  0.0856 -0.2654
  637MOL0     C83989   3.855   8.767   1.959  0.5733  0.4116 -0.0906
  637MOL0     C83990   3.757   8.875   2.009 -0.4627  0.3627  0.1942
  637MOL0     C83991   3.795   9.004   1.940 -0.0919  0.5657 -0.0109
  637MOL0     C83992   3.738   9.134   2.005  0.1958  0.6338  0.7666
  637MOL0     C83993   3.588   9.112   2.039  0.1010  0.0915 -0.4370
  637MOL0     C83994   3.518   9.239   2.072  0.9635 -0.1719  0.2697
  637MOL0     C83995   3.371   9.214   2.117  0.4533 -0.7187  0.2636
  637MOL0    Cl83996   3.269   9.159   1.979  0.1551 -0.1957  0.3188
  637MOL0     C83997   3.750   8.540   2.377  1.4179  0.6436 -0.3895
  637MOL0     C83998   3.687   8.433   2.445 -0.2162  0.8030  0.2541
  637MOL0     O83999   3.714   8.047   2.361 -0.7272  0.0925  0.0117
  637MOL0     C84000   3.455   7.987   2.586 -0.3489 -0.5638 -0.9898
  637MOL0     C84001   3.397   7.889   2.669  0.9152 -0.7719 -0.8681
  637MOL0     N84002   3.593   7.280   3.275  0.1583  0.1150  0.3218
  637MOL0     N84003   3.696   7.265   3.348  0.2668  0.2270 -0.1928
  637MOL0     C84004   4.906   7.568   3.680 -0.2466  1.0365 -0.8970
  637MOL0     C84005   5.042   7.615   3.681 -0.1164 -0.3166  0.2592
  637MOL0     C84006   5.450   7.756   3.733 -0.4008  0.0713  0.5714
  637MOL0     C84007   5.423   7.895   3.704  0.6595  0.6455 -0.1790
  637MOL0     C84008   5.519   7.992   3.683  0.2464 -0.0724  0.0339
  637MOL0     C84009   5.657   7.955   3.690 -0.0632  0.7239 -0.2795
  637MOL0     O84010   5.752   8.045   3.654  0.3392 -0.6140 -0.0600
  637MOL0     C84011   5.887   7.998   3.647 -0.2944  1.1207  0.5388
  637MOL0     C84012   5.959   8.092   3.552 -0.2720  0.0607  0.3725
  637MOL0     C84013   5.882   8.110   3.416  0.1698  0.4407  0.4513
  637MOL0     C84014   5.975   8.179   3.317  0.1276 -0.2707  0.2905
  637MOL0     C84015   6.052   8.087   3.231 -0.1787  0.3209 -0.1291
  637MOL0     C84016   6.114   8.022   3.150  0.8156  0.8401  0.7748
  637MOL0     C84017   5.686   7.823   3.737  0.1825  0.2298 -0.1346
  637MOL0     C84018   5.585   7.728   3.760 -0.7139 -0.2947  0.3808
  637MOL0     H84019   5.099   7.626   4.017 -0.4415  1.5391  0.5371
  637MOL0     H84020   4.872   7.525   4.020 -0.5732 -1.9619 -1.0880
  637MOL0     H84021   4.675   7.381   3.633 -1.4266 -1.3310  0.0530
  637MOL0     H84022   4.615   7.551   3.653 -0.1340 -0.3429 -1.1139
  637MOL0     H84023   4.458   7.455   3.819 -1.0072  3.1896 -2.4786
  637MOL0     H84024   4.504   7.291   3.773 -1.9824 -1.1853 -2.1024
  637MOL0     H84025   4.450   7.381   3.532 -0.7034  0.4095 -0.7013
  637MOL0     H84026   4.372   7.509   3.631  0.7634  0.3119  0.2210
  637MOL0     H84027   4.306   7.224   3.627 -0.4083  0.5643 -6.2320
  637MOL0     H84028   4.230   7.351   3.739 -0.7405  0.5186  0.4634
  637MOL0     H84029   4.127   7.249   3.513  3.3717 -1.4627 -1.4145
  637MOL0     H84030   4.198   7.384   3.433 -2.6465 -2.1238 -1.1196
  637MOL0     H84031   4.082   7.551   3.585 -1.7858  0.4669 -1.1890
  637MOL0     H84032   3.994   7.409   3.653 -2.2256 -0.3796 -1.5170
  637MOL0     H84033   3.922   7.551   3.413 -2.3964  0.7693  4.6764
  637MOL0     H84034   3.965   7.380   3.369 -2.6015 -0.9764 -0.6683
  637MOL0     H84035   3.786   7.481   3.581  1.1424  0.2241  0.5606
  637MOL0     H84036   3.821   7.301   3.559 -2.5151  0.1594  0.8981
  637MOL0     H84037   3.635   7.594   3.347  1.8290 -0.5585 -2.2046
  637MOL0     H84038   3.431   7.569   3.209 -2.3921 -0.8449  0.1965
  637MOL0     H84039   3.376   7.398   3.190  1.3490 -1.6272  0.8249
  637MOL0     H84040   3.568   7.375   3.028 -1.0794 -0.0261 -1.8229
  637MOL0     H84041   3.587   7.555   3.034 -1.3354  0.7626 -1.6806
  637MOL0     H84042   3.353   7.392   2.921 -0.0911 -0.6816  3.0504
  637MOL0     H84043   3.323   7.554   2.969  0.2293 -0.3821 -1.3079
  637MOL0     H84044   3.410   7.496   2.732  0.0534  1.9361 -0.7047
  637MOL0     H84045   3.564   7.538   2.809  1.4668  0.2286  1.4520
  637MOL0     H84046   3.653   7.674   2.661 -1.0315 -0.5776  0.6050
  637MOL0     H84047   3.734   7.839   2.507 -1.3363 -0.2040 -2.0288
  637MOL0     H84048   3.633   8.222   2.184 -1.8088  2.8324 -4.1011
  637MOL0     H84049   3.705   8.403   2.058 -5.3713 -2.1427  0.6283
  637MOL0     H84050   3.717   8.624   1.985  0.2026  0.5804 -1.1782
  637MOL0     H84051   3.870   8.550   1.982  1.7721  0.6110  0.7743
  637MOL0     H84052   3.844   8.757   1.850  1.1170 -1.6018 -0.0165
  637MOL0     H84053   3.960   8.792   1.976  0.2571  2.8865 -1.3098
  637MOL0     H84054   3.767   8.902   2.115  1.4073  4.1817 -0.7544
  637MOL0     H84055   3.653   8.851   1.986 -0.0472  0.7488 -2.3027
  637MOL0     H84056   3.904   9.015   1.930  0.2866 -1.9464  0.7253
  637MOL0     H84057   3.766   8.991   1.836 -0.4245 -1.3190  0.2801
  637MOL0     H84058   3.750   9.221   1.939 -1.1987 -0.3549 -0.8818
  637MOL0     H84059   3.784   9.161   2.101  1.1074  3.5328 -0.3646
  637MOL0     H84060   3.563   9.034   2.113 -0.6597  1.3066  0.6241
  637MOL0     H84061   3.532   9.078   1.951  0.6468 -0.8713 -0.4262
  637MOL0     H84062   3.561   9.295   2.156  1.1524 -0.5575  0.4342
  637MOL0     H84063   3.529   9.299   1.982 -0.6776  0.3632  0.3881
  637MOL0     H84064   3.340   9.315   2.147  1.8270 -0.2671  0.2334
  637MOL0     H84065   3.378   9.143   2.200 -0.8993  0.4870  1.4695
  637MOL0     H84066   3.792   8.617   2.442 -0.1423  0.7062  0.5969
  637MOL0     H84067   3.669   8.438   2.552 -0.8604  0.6408  0.1581
  637MOL0     H84068   3.401   8.080   2.571 -0.6225 -0.6055 -0.2990
  637MOL0     H84069   3.309   7.933   2.715  1.6690  2.0546 -1.8964
  637MOL0     H84070   4.859   7.558   3.583 -0.0873  0.3455 -0.9123
  637MOL0     H84071   5.089   7.647   3.589 -3.3877 -0.8382 -1.7445
  637MOL0     H84072   5.320   7.929   3.694 -0.0544 -0.2373  3.0037
  637MOL0     H84073   5.492   8.092   3.653 -1.7015 -1.2818 -2.7090
  637MOL0     H84074   5.893   7.904   3.591 -1.9111  1.5970 -0.4891
  637MOL0     H84075   5.934   7.981   3.745  2.7203  2.9648 -0.4392
  637MOL0     H84076   5.958   8.191   3.599 -1.0780  0.1363  0.2094
  637MOL0     H84077   6.058   8.048   3.541 -0.4378 -0.7438  1.8307
  637MOL0     H84078   5.791   8.169   3.432  0.1089  0.5777 -0.3725
  637MOL0     H84079   5.851   8.013   3.377  0.3835  0.0510  1.2337
  637MOL0     H84080   5.907   8.226   3.245  0.5763 -3.5549 -2.5380
  637MOL0     H84081   6.037   8.252   3.370 -1.9358  0.2066  2.2044
  637MOL0     H84082   6.180   7.979   3.078 -1.6399 -1.7578 -0.1436
  637MOL0     H84083   5.784   7.779   3.746 -1.1141 -2.6492  1.3568
  637MOL0     H84084   5.611   7.624   3.780 -0.0941 -0.2503 -0.1659
  638MOL0     O84085   7.599   1.065   2.827  0.2897  0.1777  0.4551
  638MOL0     C84086   7.644   0.956   2.802 -0.3009 -0.2187  0.0764
  638MOL0     O84087   7.574   0.851   2.741  0.5585 -0.0267  0.5626
  638MOL0     C84088   7.436   0.859   2.746  0.0211 -0.4062  0.1133
  638MOL0     C84089   7.361   0.851   2.631  0.1753 -0.6181 -0.2609
  638MOL0     C84090   7.225   0.860   2.636 -0.2947  1.0936 -0.8482
  638MOL0     C84091   7.159   0.889   2.760 -0.4603 -0.2199  0.4714
  638MOL0     O84092   7.024   0.919   2.762 -0.8318 -0.2034  0.1040
  638MOL0     C84093   6.940   0.897   2.652  1.0209  0.8530  0.4559
  638MOL0     C84094   6.802   0.935   2.688  0.8524  0.4807  0.0016
  638MOL0     C84095   6.714   0.956   2.562  0.1313 -0.1900  0.5785
  638MOL0     C84096   6.586   1.018   2.603  1.1980  0.1333  0.6146
  638MOL0     C84097   6.474   1.040   2.502  0.4717 -0.3148  1.3424
  638MOL0     C84098   6.515   1.089   2.359  0.0454 -0.6362  0.4037
  638MOL0     C84099   6.396   1.169   2.291  0.0715  0.3037 -0.3520
  638MOL0     C84100   6.287   1.082   2.231  0.0812  0.0843  0.3721
  638MOL0     N84101   6.179   1.161   2.153  0.7842  0.5812  0.0700
  638MOL0     C84102   6.200   1.278   2.089 -0.0634  0.9118 -0.0341
  638MOL0     C84103   6.089   1.290   2.016 -0.5380  0.3462  0.8503
  638MOL0     C84104   6.074   1.389   1.914 -0.4169  0.9679 -0.9649
  638MOL0     C84105   5.937   1.461   1.926  0.1939 -0.5727 -0.3631
  638MOL0     C84106   5.842   1.449   1.814  0.1895  1.2282 -0.2230
  638MOL0     C84107   5.720   1.518   1.846  0.7096  0.1843 -0.4954
  638MOL0     O84108   5.749   1.656   1.858  0.6240 -0.3846  0.4344
  638MOL0     C84109   5.629   1.735   1.877 -0.1794 -0.3347  0.1559
  638MOL0     C84110   5.491   1.682   1.881 -0.8027  0.6564  0.3646
  638MOL0     C84111   5.374   1.754   1.850  0.4172 -0.5953 -0.4792
  638MOL0     C84112   5.393   1.891   1.821  0.3150  0.3689 -0.3380
  638MOL0     C84113   5.285   1.979   1.787  0.3363  0.0304  0.0636
  638MOL0     O84114   5.167   1.913   1.751  0.6271 -0.9521 -0.1526
  638MOL0     C84115   5.058   1.992   1.728 -0.5087 -0.5065  0.0866
  638MOL0     C84116   5.065   2.099   1.634  1.7709 -0.0774  0.7813
  638MOL0     C84117   4.960   2.196   1.618  0.3998  0.2146  0.3443
  638MOL0     C84118   4.849   2.174   1.702 -0.1673  0.3432  1.2173
  638MOL0     O84119   4.737   2.254   1.698  0.6541 -0.0828 -0.2005
  638MOL0     C84120   4.722   2.344   1.593 -0.1531 -0.3358  0.6881
  638MOL0     C84121   4.587   2.407   1.599  0.3923 -0.4124 -0.1130
  638MOL0     C84122   4.479   2.293   1.595  0.0939  0.2397 -0.5230
  638MOL0     C84123   4.354   2.367   1.598  0.7309 -0.1199  0.0226
  638MOL0     C84124   4.240   2.273   1.577 -0.0797  0.2320  0.0312
  638MOL0     C84125   4.112   2.364   1.579 -0.9416 -0.3727 -0.8250
  638MOL0     C84126   3.982   2.291   1.550 -0.1145 -0.1996  0.3002
  638MOL0     C84127   3.867   2.344   1.634 -0.2306 -0.9207  0.6847
  638MOL0    Cl84128   3.808   2.490   1.547 -0.5344  0.2631 -0.3110
  638MOL0     C84129   4.844   2.080   1.797  0.6985 -0.4880  0.2043
  638MOL0     C84130   4.943   1.981   1.810 -0.2907  0.3672  0.2713
  638MOL0     O84131   5.297   2.098   1.807 -0.0187  0.4259  0.3177
  638MOL0     C84132   5.526   1.939   1.827  0.2927 -1.6052 -1.1984
  638MOL0     C84133   5.642   1.872   1.857  0.3843  0.6974 -0.0137
  638MOL0     N84134   6.013   1.176   2.033 -0.1141 -0.3487 -0.4744
  638MOL0     N84135   6.068   1.102   2.117  0.5929  0.5041  0.1524
  638MOL0     C84136   7.234   0.910   2.872 -0.3668  0.2288 -0.1128
  638MOL0     C84137   7.373   0.881   2.863  0.8493 -0.3327 -0.2316
  638MOL0     C84138   7.786   0.936   2.827 -0.1758 -0.5071  0.4113
  638MOL0     C84139   7.857   0.822   2.790  0.4375 -0.5776 -0.8738
  638MOL0     C84140   7.997   0.808   2.795  0.4608  0.1948  0.3849
  638MOL0     C84141   8.078   0.917   2.827 -0.5126 -0.3503 -0.7378
  638MOL0     O84142   8.211   0.899   2.840 -0.5482 -0.3293 -0.4058
  638MOL0     C84143   8.304   1.000   2.851  0.4037 -0.3521 -0.0063
  638MOL0     C84144   8.298   1.089   2.729 -0.7645 -0.1532 -0.3670
  638MOL0     C84145   8.409   1.200   2.757 -0.0831  0.8981 -0.0362
  638MOL0     C84146   8.400   1.319   2.662  0.6820 -0.0047  0.0932
  638MOL0     C84147   8.443   1.287   2.529  0.3429  0.1445 -0.2964
  638MOL0     C84148   8.485   1.243   2.424 -0.1735 -0.2384  0.5167
  638MOL0     C84149   8.008   1.036   2.859  0.1296  0.3777  0.7311
  638MOL0     C84150   7.870   1.046   2.862  0.4691 -0.0990  0.8199
  638MOL0     H84151   7.410   0.837   2.535 -0.3245  3.0538 -1.2128
  638MOL0     H84152   7.162   0.851   2.548 -1.0450  1.9704 -0.4231
  638MOL0     H84153   6.938   0.790   2.630  1.1543  0.4508  2.2176
  638MOL0     H84154   6.965   0.941   2.555 -2.2385  0.2916 -0.7371
  638MOL0     H84155   6.808   1.024   2.751  0.2132 -1.4891  3.0111
  638MOL0     H84156   6.769   0.853   2.751  3.2047 -0.7182 -0.2330
  638MOL0     H84157   6.711   0.861   2.509 -1.8565  0.0726  0.1431
  638MOL0     H84158   6.763   1.040   2.511 -1.6234  2.1611  2.4935
  638MOL0     H84159   6.534   0.964   2.682  0.3404 -1.4176 -0.9426
  638MOL0     H84160   6.618   1.114   2.644  2.6036  0.5720 -1.3589
  638MOL0     H84161   6.412   1.118   2.546 -0.4578 -1.4210  2.0822
  638MOL0     H84162   6.411   0.951   2.486 -0.6035  0.8636 -1.6251
  638MOL0     H84163   6.551   1.016   2.285  0.6924 -1.5817  1.6154
  638MOL0     H84164   6.594   1.163   2.372  0.0711 -0.5282 -0.3386
  638MOL0     H84165   6.351   1.227   2.372  0.2944 -0.6273  0.4715
  638MOL0     H84166   6.428   1.240   2.215  0.3960  1.4642  0.8302
  638MOL0     H84167   6.242   1.018   2.307  1.0337 -0.1532  0.7542
  638MOL0     H84168   6.338   1.021   2.156 -0.4743  2.0151 -1.6990
  638MOL0     H84169   6.283   1.348   2.087  0.6951  0.0202 -0.3595
  638MOL0     H84170   6.069   1.339   1.816 -2.1954 -1.2201  0.1317
  638MOL0     H84171   6.150   1.467   1.920 -1.6489  2.0782  1.6487
  638MOL0     H84172   5.957   1.565   1.954 -2.1392 -0.5349  1.5490
  638MOL0     H84173   5.884   1.430   2.017  0.6438  1.3143  0.5945
  638MOL0     H84174   5.882   1.497   1.725 -1.6640 -2.4400 -3.3126
  638MOL0     H84175   5.825   1.342   1.810 -2.2852  1.4903  0.9799
  638MOL0     H84176   5.675   1.470   1.933 -1.7772  0.7079 -1.4029
  638MOL0     H84177   5.643   1.503   1.769 -1.2636  2.2047  0.9795
  638MOL0     H84178   5.478   1.575   1.897  0.3178  0.1429 -1.7550
  638MOL0     H84179   5.278   1.703   1.846  0.2796 -0.5067  0.9878
  638MOL0     H84180   5.158   2.100   1.578  1.4846 -0.8660  0.2706
  638MOL0     H84181   4.971   2.291   1.566 -0.1567 -0.4101 -0.9425
  638MOL0     H84182   4.730   2.294   1.496 -0.8255 -1.1149  1.0243
  638MOL0     H84183   4.801   2.417   1.608  1.5247 -0.7442 -4.2847
  638MOL0     H84184   4.574   2.486   1.525 -0.6395 -0.2111  0.2759
  638MOL0     H84185   4.577   2.457   1.695 -2.7427  0.6590 -0.8778
  638MOL0     H84186   4.488   2.236   1.688  4.2036  0.0780 -0.8319
  638MOL0     H84187   4.490   2.226   1.509 -0.4117  0.4567 -0.7573
  638MOL0     H84188   4.340   2.423   1.691  0.3708 -1.6180  0.9035
  638MOL0     H84189   4.352   2.443   1.519 -1.8799 -1.1934 -1.0755
  638MOL0     H84190   4.228   2.207   1.664 -1.8733 -0.2974 -0.5661
  638MOL0     H84191   4.250   2.218   1.483 -1.2561 -0.5994  0.3680
  638MOL0     H84192   4.136   2.441   1.506  1.7817 -1.7756 -1.5431
  638MOL0     H84193   4.096   2.404   1.679  0.0952 -1.6867 -0.1129
  638MOL0     H84194   3.963   2.292   1.443 -0.7339  1.2470  0.4034
  638MOL0     H84195   3.999   2.184   1.563  1.9403  0.1085  0.6011
  638MOL0     H84196   3.901   2.368   1.735 -1.6411  0.6193  0.8385
  638MOL0     H84197   3.787   2.269   1.636 -0.8514 -0.2556  1.4147
  638MOL0     H84198   4.761   2.084   1.866  1.4764  0.4054  1.1350
  638MOL0     H84199   4.940   1.908   1.890  2.2844 -1.0488 -0.8137
  638MOL0     H84200   5.533   2.042   1.793 -0.7311 -1.1877 -0.2103
  638MOL0     H84201   5.743   1.907   1.842  0.3968 -0.2461 -2.7049
  638MOL0     H84202   7.201   0.959   2.963 -1.6153  1.5057 -1.2080
  638MOL0     H84203   7.423   0.904   2.956 -1.3910 -0.1873  1.0239
  638MOL0     H84204   7.798   0.736   2.760  1.4012 -1.6210  0.1371
  638MOL0     H84205   8.046   0.717   2.762 -3.3608 -1.3452 -1.5502
  638MOL0     H84206   8.404   0.955   2.847 -0.0390 -1.2826 -2.1483
  638MOL0     H84207   8.290   1.050   2.947 -2.0806  2.0271 -1.4801
  638MOL0     H84208   8.330   1.029   2.643 -0.2735 -1.6875  0.8336
  638MOL0     H84209   8.199   1.128   2.702  0.9714  2.4182 -3.6940
  638MOL0     H84210   8.511   1.160   2.746 -0.4974  0.3107 -2.1316
  638MOL0     H84211   8.400   1.245   2.857  2.0829  0.0407  0.6189
  638MOL0     H84212   8.293   1.342   2.661  1.0409  1.8348  0.4392
  638MOL0     H84213   8.448   1.410   2.699 -0.6109  0.7744 -0.0890
  638MOL0     H84214   8.517   1.206   2.329 -0.3884 -2.6665  1.3153
  638MOL0     H84215   8.059   1.119   2.905 -4.1655  1.6459  3.7933
  638MOL0     H84216   7.829   1.140   2.899  3.7313  2.0677 -0.6564
  639MOL0     O84217   3.845   4.217   4.737 -0.8427 -0.4834  0.5340
  639MOL0     C84218   3.887   4.236   4.852  0.1612  0.0404  0.7827
  639MOL0     O84219   3.810   4.236   4.963 -0.6692  0.0130 -0.1200
  639MOL0     C84220   3.671   4.245   4.955 -0.4386  0.2032  0.2246
  639MOL0     C84221   3.588   4.141   4.994 -0.6578  0.3125 -0.1158
  639MOL0     C84222   3.448   4.152   4.983  0.0713 -0.4138 -0.6338
  639MOL0     C84223   3.392   4.266   4.923 -0.2885 -0.3644  0.8590
  639MOL0     O84224   3.262   4.285   4.893  0.1394  0.5298  0.4233
  639MOL0     C84225   3.168   4.173   4.884 -0.2693  0.6294  0.1964
  639MOL0     C84226   3.040   4.230   4.843  1.6048 -0.1578  0.4193
  639MOL0     C84227   2.967   4.327   4.943 -1.1658 -0.8120  0.4138
  639MOL0     C84228   2.821   4.356   4.914 -0.3903  0.3080 -0.0805
  639MOL0     C84229   2.817   4.440   4.788 -1.1314  0.2617  0.2449
  639MOL0     C84230   2.677   4.502   4.751 -0.1724  0.1400 -0.5332
  639MOL0     C84231   2.632   4.458   4.608  0.4410 -0.0075 -0.4148
  639MOL0     C84232   2.539   4.569   4.547 -0.0159  1.0939  0.7639
  639MOL0     N84233   2.455   4.516   4.438  0.3339 -0.4957  0.3096
  639MOL0     C84234   2.495   4.451   4.320 -1.2543 -0.6200 -0.1470
  639MOL0     C84235   2.379   4.417   4.254 -0.2407 -0.3023  0.1547
  639MOL0     C84236   2.361   4.321   4.140 -0.7914 -0.0576 -0.2111
  639MOL0     C84237   2.213   4.312   4.113  0.3344 -0.3847 -0.4413
  639MOL0     C84238   2.209   4.245   3.969 -0.1948  0.0633 -0.9210
  639MOL0     C84239   2.071   4.238   3.913  1.2219 -0.5206 -0.3952
  639MOL0     O84240   2.028   4.373   3.874 -0.4853 -0.6466  0.1133
  639MOL0     C84241   1.896   4.389   3.890 -0.3620  1.0315  0.3337
  639MOL0     C84242   1.845   4.492   3.970  0.3703 -0.1771 -1.0152
  639MOL0     C84243   1.709   4.517   3.985  0.4178 -0.4868 -0.0445
  639MOL0     C84244   1.619   4.433   3.920  0.2191 -0.0550 -0.4162
  639MOL0     C84245   1.475   4.454   3.930  0.1718  0.0856 -0.3655
  639MOL0     O84246   1.400   4.365   3.870  0.3447  0.1233 -0.2227
  639MOL0     C84247   1.269   4.393   3.830 -0.4754 -0.1701  0.8300
  639MOL0     C84248   1.186   4.283   3.802 -0.2571 -0.1224 -0.0688
  639MOL0     C84249   1.053   4.299   3.770 -0.7744  0.3515  0.2212
  639MOL0     C84250   0.995   4.426   3.750 -0.2441 -0.1363 -0.0014
  639MOL0     O84251   0.868   4.459   3.713  0.0808 -0.2135 -0.1313
  639MOL0     C84252   0.773   4.349   3.711 -0.5902 -0.3688  0.2334
  639MOL0     C84253   0.636   4.418   3.678  0.2685  0.5450 -0.0844
  639MOL0     C84254   0.533   4.304   3.678 -0.3597  0.3124 -0.5425
  639MOL0     C84255   0.398   4.340   3.610 -0.1398 -0.2772 -0.7047
  639MOL0     C84256   0.305   4.221   3.575 -0.0276  0.0562 -0.1930
  639MOL0     C84257   0.157   4.270   3.570 -0.3691 -1.0780  0.0061
  639MOL0     C84258   0.068   4.159   3.527  1.2168 -0.5313  0.0413
  639MOL0     C84259  -0.067   4.218   3.497  0.7291 -0.1116  0.3910
  639MOL0    Cl84260  -0.043   4.307   3.348 -0.4071 -0.3820  0.0425
  639MOL0     C84261   1.083   4.537   3.763  0.1380 -0.3302  0.0382
  639MOL0     C84262   1.216   4.523   3.798 -1.0887  0.1041 -0.2448
  639MOL0     O84263   1.431   4.555   3.985 -0.4129 -0.2378  0.6614
  639MOL0     C84264   1.670   4.326   3.839 -0.5622  0.0604 -0.1961
  639MOL0     C84265   1.810   4.300   3.829  0.7391  0.0289  0.4546
  639MOL0     N84266   2.286   4.461   4.337 -0.2775 -0.5004 -0.9721
  639MOL0     N84267   2.317   4.529   4.443 -0.2554  0.2937  1.1968
  639MOL0     C84268   3.476   4.370   4.881  0.7652  0.2045 -0.0409
  639MOL0     C84269   3.607   4.356   4.908 -0.0515  0.1576 -0.3525
  639MOL0     C84270   4.037   4.262   4.844 -0.4532  0.3240 -0.1656
  639MOL0     C84271   4.114   4.266   4.723 -0.5777  0.3137 -0.0728
  639MOL0     C84272   4.249   4.292   4.729  0.8196 -0.2110 -0.0404
  639MOL0     C84273   4.306   4.324   4.848 -0.3708 -1.4403  1.3502
  639MOL0     O84274   4.436   4.358   4.855 -0.6419 -0.0623  0.5339
  639MOL0     C84275   4.516   4.245   4.886  1.1824  0.0818 -0.3955
  639MOL0     C84276   4.569   4.186   4.755 -0.3517 -0.9632  0.6296
  639MOL0     C84277   4.627   4.286   4.650 -0.4108 -0.3953  0.2110
  639MOL0     C84278   4.719   4.406   4.698  0.2561  0.1392 -0.4036
  639MOL0     C84279   4.845   4.351   4.745  0.3114  0.3364  0.5187
  639MOL0     C84280   4.945   4.305   4.799 -0.1107  0.2039  0.6726
  639MOL0     C84281   4.237   4.332   4.964 -0.2067  0.8961 -0.8101
  639MOL0     C84282   4.106   4.293   4.961 -0.6435  0.4175  1.3697
  639MOL0     H84283   3.637   4.047   5.013 -2.3806 -0.7850 -0.8626
  639MOL0     H84284   3.385   4.065   5.002 -0.7580  0.5540  1.4107
  639MOL0     H84285   3.148   4.122   4.978 -1.0379  0.6691  0.0592
  639MOL0     H84286   3.204   4.106   4.805 -0.0193  1.5390 -0.4900
  639MOL0     H84287   2.981   4.139   4.825  1.6285 -0.9098  3.6272
  639MOL0     H84288   3.057   4.279   4.747  1.1316 -1.8024 -0.5538
  639MOL0     H84289   3.032   4.412   4.962  0.6985 -2.0629 -0.1314
  639MOL0     H84290   2.966   4.269   5.036  1.0192 -1.4888  0.0724
  639MOL0     H84291   2.768   4.261   4.908  2.4772 -1.3287 -1.5114
  639MOL0     H84292   2.787   4.418   4.998 -0.6001  2.6782 -1.7976
  639MOL0     H84293   2.858   4.368   4.716  0.0750 -1.3060  2.3381
  639MOL0     H84294   2.880   4.526   4.813  0.3926 -1.1525  1.5240
  639MOL0     H84295   2.672   4.611   4.764 -0.9800 -0.0800  1.3198
  639MOL0     H84296   2.601   4.466   4.820 -1.4297  3.2005 -0.1606
  639MOL0     H84297   2.710   4.451   4.531  1.8448  0.6413  0.9093
  639MOL0     H84298   2.576   4.364   4.615 -0.7160  0.4489 -2.5743
  639MOL0     H84299   2.604   4.655   4.528  0.0849  1.2877  1.9277
  639MOL0     H84300   2.465   4.596   4.622  1.1966  1.9727  1.6741
  639MOL0     H84301   2.596   4.424   4.290 -0.9866 -0.3688  0.5002
  639MOL0     H84302   2.402   4.223   4.163 -2.2915 -0.6567  0.0388
  639MOL0     H84303   2.416   4.360   4.054  1.1706 -1.3199  0.4170
  639MOL0     H84304   2.164   4.410   4.118  0.0258 -0.5569 -0.0644
  639MOL0     H84305   2.165   4.261   4.197  1.7916 -0.3632  0.4474
  639MOL0     H84306   2.270   4.291   3.891 -1.7436  2.8414 -0.6194
  639MOL0     H84307   2.241   4.141   3.981 -1.0242 -0.1588 -0.5378
  639MOL0     H84308   2.000   4.194   3.984  1.5005  0.1937  0.3274
  639MOL0     H84309   2.075   4.171   3.826  0.4049  0.2146 -1.0082
  639MOL0     H84310   1.912   4.559   4.023 -1.8630  0.1115  1.7067
  639MOL0     H84311   1.679   4.592   4.058 -2.9104 -3.5139  2.0426
  639MOL0     H84312   1.217   4.180   3.816 -0.4681  0.0187  1.7316
  639MOL0     H84313   0.993   4.212   3.746 -0.8089  0.4644 -0.1009
  639MOL0     H84314   0.779   4.308   3.812 -0.3600 -1.5968 -0.2679
  639MOL0     H84315   0.802   4.278   3.633 -1.1443  0.9383 -1.2392
  639MOL0     H84316   0.626   4.450   3.574  0.8545  0.3082 -0.2174
  639MOL0     H84317   0.609   4.496   3.749 -1.6345  0.0929 -0.2795
  639MOL0     H84318   0.517   4.264   3.779 -2.4243  1.1693 -0.4802
  639MOL0     H84319   0.574   4.220   3.622 -2.9054 -1.9732  0.7653
  639MOL0     H84320   0.340   4.398   3.682  0.5904 -2.4174  1.7804
  639MOL0     H84321   0.425   4.389   3.516  0.6220 -1.8880 -1.3763
  639MOL0     H84322   0.299   4.146   3.655 -2.1891 -0.5954 -0.8806
  639MOL0     H84323   0.343   4.169   3.487  2.8446  1.2046  0.2881
  639MOL0     H84324   0.159   4.364   3.513 -1.6793 -0.3717  1.0720
  639MOL0     H84325   0.130   4.298   3.673  2.8615  2.7234  0.0832
  639MOL0     H84326   0.108   4.123   3.432  3.0239  2.8869 -0.6245
  639MOL0     H84327   0.051   4.090   3.610 -2.5887 -2.1643 -1.8125
  639MOL0     H84328  -0.090   4.284   3.581  0.3502  0.3035 -0.0315
  639MOL0     H84329  -0.143   4.139   3.489  0.6891 -0.1617  1.1483
  639MOL0     H84330   1.048   4.636   3.739  2.4341 -0.0062 -2.4265
  639MOL0     H84331   1.271   4.615   3.783 -1.1006  0.3107  0.8665
  639MOL0     H84332   1.602   4.275   3.772  0.0048 -2.7526  1.2333
  639MOL0     H84333   1.847   4.220   3.766  1.3670  1.5721 -1.2286
  639MOL0     H84334   3.436   4.457   4.830  2.7471  1.0972 -0.1649
  639MOL0     H84335   3.669   4.436   4.868 -1.8311  1.1963 -1.1451
  639MOL0     H84336   4.069   4.242   4.627 -1.0231  0.5213  0.0831
  639MOL0     H84337   4.314   4.302   4.643  0.9392 -2.0927 -0.2135
  639MOL0     H84338   4.473   4.172   4.956  0.6777 -0.7178 -1.5112
  639MOL0     H84339   4.602   4.282   4.943  1.3442  1.0140 -1.2260
  639MOL0     H84340   4.642   4.110   4.781 -0.0318 -0.4849  1.1749
  639MOL0     H84341   4.494   4.122   4.708  0.6278 -2.5156  1.1360
  639MOL0     H84342   4.546   4.320   4.586  0.1317 -0.6408 -0.6160
  639MOL0     H84343   4.688   4.229   4.580  0.2959  0.9639 -0.3292
  639MOL0     H84344   4.729   4.473   4.612 -4.1910 -1.4320 -2.4580
  639MOL0     H84345   4.675   4.458   4.785 -0.7030  2.6925 -2.2936
  639MOL0     H84346   5.020   4.247   4.849 -2.1146  0.7094  4.6482
  639MOL0     H84347   4.296   4.363   5.050 -0.3053 -0.4889 -0.2056
  639MOL0     H84348   4.049   4.309   5.052 -0.1854  2.0415  1.3932
  640MOL0     O84349   3.587   7.075   1.422  0.2978  0.3323  0.9073
  640MOL0     C84350   3.612   6.964   1.473  0.3663 -0.0940 -0.2237
  640MOL0     O84351   3.520   6.883   1.547 -0.9519  0.4630  0.9178
  640MOL0     C84352   3.390   6.916   1.556 -0.5733 -1.1988 -0.5888
  640MOL0     C84353   3.355   7.025   1.638 -0.1088  0.6815  0.7542
  640MOL0     C84354   3.229   7.059   1.664  0.4903 -0.0758 -0.0558
  640MOL0     C84355   3.121   6.974   1.626 -0.7305 -0.1709  0.1351
  640MOL0     O84356   2.982   6.983   1.664  0.4314  0.4120 -0.2654
  640MOL0     C84357   2.952   7.055   1.785 -0.2532 -0.0141  0.2622
  640MOL0     C84358   2.839   6.979   1.852  0.1231  0.0207  0.6710
  640MOL0     C84359   2.702   6.973   1.776  0.0703  0.8910  0.2118
  640MOL0     C84360   2.610   6.869   1.842  0.7244  0.0825 -0.1999
  640MOL0     C84361   2.462   6.901   1.805  0.3854 -0.1124 -0.0861
  640MOL0     C84362   2.371   6.790   1.830  0.6088 -0.7889 -0.5088
  640MOL0     C84363   2.219   6.833   1.810 -0.1355 -0.0728  0.2780
  640MOL0     C84364   2.138   6.707   1.865 -0.4991 -0.4197  0.7756
  640MOL0     N84365   1.995   6.711   1.836 -0.5233  0.3005  0.0175
  640MOL0     C84366   1.935   6.721   1.715  0.6062 -0.5204  1.5043
  640MOL0     C84367   1.808   6.750   1.742 -0.1770  0.2979  0.0454
  640MOL0     C84368   1.686   6.778   1.657 -0.3472  0.2401  0.3823
  640MOL0     C84369   1.664   6.909   1.597  1.2911  0.2203  0.7261
  640MOL0     C84370   1.576   6.917   1.470 -0.0556 -1.2589  0.6440
  640MOL0     C84371   1.437   6.947   1.513  0.2251  1.0876  0.0862
  640MOL0     O84372   1.367   6.832   1.546  0.4327  1.0846  0.5856
  640MOL0     C84373   1.237   6.826   1.558  0.5401 -0.4061  0.9572
  640MOL0     C84374   1.163   6.698   1.547 -0.0374 -0.2939  0.0766
  640MOL0     C84375   1.024   6.676   1.563 -0.0948 -0.9081 -0.2880
  640MOL0     C84376   0.954   6.799   1.598  0.3003  0.8650 -0.5387
  640MOL0     C84377   0.803   6.801   1.630 -0.3154 -0.3486  0.5431
  640MOL0     O84378   0.755   6.680   1.669  0.3230  0.1290 -0.0722
  640MOL0     C84379   0.619   6.672   1.682  0.5670 -0.1362  0.7474
  640MOL0     C84380   0.544   6.630   1.576  1.0053  0.0394 -0.1313
  640MOL0     C84381   0.404   6.637   1.582 -0.1886  0.5920  0.6327
  640MOL0     C84382   0.341   6.659   1.703  0.9698 -0.0556 -0.2806
  640MOL0     O84383   0.202   6.658   1.713 -0.3997 -1.1216  0.3409
  640MOL0     C84384   0.126   6.624   1.601 -0.1860  0.8292  0.2516
  640MOL0     C84385  -0.015   6.636   1.654  0.0096  0.8201 -0.7426
  640MOL0     C84386  -0.060   6.503   1.704  0.1828  0.0559 -0.7060
  640MOL0     C84387  -0.192   6.538   1.789  0.0597  0.4113  0.5180
  640MOL0     C84388  -0.255   6.407   1.844  0.0932  0.1468 -0.9913
  640MOL0     C84389  -0.302   6.302   1.747 -0.5164  0.0903  0.4031
  640MOL0     C84390  -0.425   6.353   1.666  0.3524  0.0247 -0.1408
  640MOL0     C84391  -0.553   6.337   1.753  0.3055 -0.1112  0.4027
  640MOL0    Cl84392  -0.692   6.362   1.641 -0.0531  0.4506  0.1590
  640MOL0     C84393   0.417   6.695   1.818 -0.4010  0.1698  0.6923
  640MOL0     C84394   0.555   6.698   1.805  0.2777 -0.8367 -0.5219
  640MOL0     O84395   0.736   6.896   1.592 -0.4478  0.1748 -0.5236
  640MOL0     C84396   1.019   6.925   1.620 -0.9149  0.3065 -0.0028
  640MOL0     C84397   1.161   6.937   1.599 -0.0257  0.2474  0.0345
  640MOL0     N84398   1.789   6.748   1.885  0.0173 -0.1918  0.5828
  640MOL0     N84399   1.910   6.742   1.936  0.1548  0.5112 -0.1760
  640MOL0     C84400   3.158   6.868   1.538  0.5919  0.4275  0.3720
  640MOL0     C84401   3.292   6.845   1.496  0.4236 -0.2181 -0.4198
  640MOL0     C84402   3.745   6.908   1.447  0.4543  0.3931  0.3136
  640MOL0     C84403   3.829   6.954   1.348  0.4924  0.0495 -0.7658
  640MOL0     C84404   3.955   6.898   1.338 -0.1870  0.4830  0.5203
  640MOL0     C84405   3.991   6.784   1.415  0.0332 -0.3710 -0.1099
  640MOL0     O84406   4.100   6.729   1.359  0.3109 -0.0148  0.1093
  640MOL0     C84407   4.163   6.620   1.428 -0.2252  0.2770 -0.0346
  640MOL0     C84408   4.312   6.601   1.397  0.0389 -0.3990 -0.4142
  640MOL0     C84409   4.392   6.737   1.399  0.5251  0.5607 -0.1229
  640MOL0     C84410   4.469   6.772   1.270 -0.3319 -0.5489 -0.7179
  640MOL0     C84411   4.589   6.684   1.260  0.5610 -0.4254 -0.7033
  640MOL0     C84412   4.692   6.610   1.254 -0.2380 -0.7505  0.4321
  640MOL0     C84413   3.908   6.736   1.514 -0.0353  0.3266  0.6269
  640MOL0     C84414   3.786   6.804   1.529 -0.2166 -0.0366 -0.0347
  640MOL0     H84415   3.438   7.083   1.677 -1.2154  2.9273 -0.0660
  640MOL0     H84416   3.209   7.142   1.731 -2.0235  1.8299 -2.8778
  640MOL0     H84417   2.917   7.149   1.742  0.8625 -0.2402 -1.2372
  640MOL0     H84418   3.035   7.075   1.853  0.7456  1.9745 -1.4279
  640MOL0     H84419   2.820   7.023   1.950 -2.5594  1.3059 -0.3211
  640MOL0     H84420   2.875   6.877   1.865  0.2308 -0.1589 -0.8125
  640MOL0     H84421   2.721   6.939   1.674  2.4440 -0.2318  0.9601
  640MOL0     H84422   2.654   7.070   1.759 -0.9549 -0.1857 -4.3451
  640MOL0     H84423   2.629   6.770   1.799 -0.2938 -0.1276 -0.1938
  640MOL0     H84424   2.621   6.867   1.950  1.3700  0.3332 -0.2577
  640MOL0     H84425   2.446   6.931   1.701 -0.9190 -0.5631 -0.0341
  640MOL0     H84426   2.435   6.990   1.862 -0.8444  0.2320 -1.1664
  640MOL0     H84427   2.374   6.765   1.936 -1.9465  1.1004  0.0992
  640MOL0     H84428   2.398   6.702   1.772  0.1352 -0.1987 -1.6612
  640MOL0     H84429   2.197   6.926   1.864  1.2866  0.0597  0.6759
  640MOL0     H84430   2.195   6.848   1.705 -0.9855  0.0159  0.4764
  640MOL0     H84431   2.159   6.686   1.970  0.0058 -1.4006  0.4899
  640MOL0     H84432   2.182   6.616   1.823  1.0801  0.1149  1.2066
  640MOL0     H84433   1.969   6.725   1.611 -2.6774 -0.1803  0.3394
  640MOL0     H84434   1.599   6.754   1.719 -1.0116 -0.5158 -0.8065
  640MOL0     H84435   1.690   6.707   1.575 -0.5811 -2.6740  2.7301
  640MOL0     H84436   1.758   6.961   1.573 -0.5759  2.8564 -1.4941
  640MOL0     H84437   1.622   6.971   1.676  0.0502  1.8376 -1.1068
  640MOL0     H84438   1.625   6.993   1.409 -0.7796 -1.9526 -0.8430
  640MOL0     H84439   1.565   6.833   1.402 -1.5067  0.2754 -1.1015
  640MOL0     H84440   1.395   7.000   1.427 -0.0830  1.5840  0.5343
  640MOL0     H84441   1.436   7.009   1.603 -1.0562  0.1783  0.7229
  640MOL0     H84442   1.234   6.619   1.526  1.1418  0.8487 -0.3900
  640MOL0     H84443   0.987   6.575   1.546 -2.8222  0.1263 -1.1041
  640MOL0     H84444   0.577   6.575   1.488  1.4437 -2.4346  1.4544
  640MOL0     H84445   0.355   6.609   1.489 -2.1080  3.6226  0.6012
  640MOL0     H84446   0.156   6.522   1.579 -2.1164 -0.0734  1.5505
  640MOL0     H84447   0.140   6.686   1.512 -0.5827  0.6421  0.0562
  640MOL0     H84448  -0.083   6.686   1.584 -3.2593 -0.1975  1.4834
  640MOL0     H84449  -0.012   6.712   1.733  2.7809 -1.3441  1.4635
  640MOL0     H84450   0.019   6.454   1.761  1.3047  0.6540 -1.6941
  640MOL0     H84451  -0.091   6.437   1.622 -1.3875 -1.8213  1.2801
  640MOL0     H84452  -0.162   6.591   1.879 -1.7882  1.1725  0.7208
  640MOL0     H84453  -0.265   6.602   1.739 -1.3372 -0.5203  1.2832
  640MOL0     H84454  -0.328   6.429   1.922  4.1120 -0.2195  3.3077
  640MOL0     H84455  -0.171   6.362   1.898  1.2384  0.4562 -2.4535
  640MOL0     H84456  -0.325   6.211   1.804  0.0030  0.3235  0.9987
  640MOL0     H84457  -0.221   6.268   1.681 -0.6175 -3.6572  1.9500
  640MOL0     H84458  -0.409   6.458   1.641  0.1294  0.7117  2.3356
  640MOL0     H84459  -0.435   6.293   1.575 -0.7993  0.5404 -0.3809
  640MOL0     H84460  -0.549   6.409   1.835  0.7478  1.0680 -0.6356
  640MOL0     H84461  -0.565   6.233   1.786 -2.4639 -0.3139 -0.9676
  640MOL0     H84462   0.362   6.721   1.907 -0.1402  0.2884  0.8187
  640MOL0     H84463   0.604   6.734   1.895 -1.0125  1.6123 -0.7256
  640MOL0     H84464   0.970   7.014   1.658  1.5453  0.5170  3.1749
  640MOL0     H84465   1.226   7.016   1.634  2.8100 -2.0091  0.1859
  640MOL0     H84466   3.082   6.795   1.513  0.5688  1.1931 -1.9538
  640MOL0     H84467   3.322   6.763   1.431 -0.7390 -1.1906  0.2293
  640MOL0     H84468   3.814   7.049   1.297  0.8835  1.0051  0.7921
  640MOL0     H84469   4.008   6.943   1.255  0.3475 -0.9252  0.0687
  640MOL0     H84470   4.127   6.525   1.386  1.7242  0.6988 -2.9534
  640MOL0     H84471   4.147   6.629   1.536 -1.9726 -2.3152  0.0219
  640MOL0     H84472   4.360   6.539   1.473 -2.5776 -0.7474  1.0621
  640MOL0     H84473   4.330   6.558   1.298  1.7848 -0.5888 -0.0518
  640MOL0     H84474   4.466   6.750   1.479  0.4406  1.4298 -0.1694
  640MOL0     H84475   4.317   6.815   1.418 -0.1958  0.0097 -0.6680
  640MOL0     H84476   4.390   6.755   1.197 -1.6452 -0.6733  0.6861
  640MOL0     H84477   4.476   6.881   1.266 -4.8217  0.0013  0.7806
  640MOL0     H84478   4.786   6.558   1.255  1.4672  2.1236  0.9054
  640MOL0     H84479   3.927   6.648   1.575 -3.7724 -0.1606  1.3497
  640MOL0     H84480   3.732   6.782   1.620 -1.0854  4.5948  0.7891
  641MOL0     O84481   3.948  10.354   8.286  0.4019 -0.0833 -0.1621
  641MOL0     C84482   3.994  10.241   8.268  0.6953 -0.8031 -0.2572
  641MOL0     O84483   3.929  10.145   8.206 -0.2616  0.0651 -0.2723
  641MOL0     C84484   3.801  10.153   8.173  0.3908  0.3963 -0.3728
  641MOL0     C84485   3.753  10.239   8.080 -0.1691  0.2578 -0.0773
  641MOL0     C84486   3.619  10.218   8.024 -0.2495  0.2732  0.2379
  641MOL0     C84487   3.542  10.106   8.055  1.1289 -0.3111  0.2853
  641MOL0     O84488   3.412  10.085   8.006 -0.5650 -0.3263 -0.2420
  641MOL0     C84489   3.332  10.205   7.991 -0.0655 -0.5239 -0.5951
  641MOL0     C84490   3.188  10.162   7.982 -0.4676  0.9418  1.0117
  641MOL0     C84491   3.147  10.110   8.119 -0.2720  0.0629 -0.2420
  641MOL0     C84492   3.009  10.051   8.103  0.8117 -0.5500  0.1030
  641MOL0     C84493   2.937  10.022   8.232  0.0938  0.1200 -0.6673
  641MOL0     C84494   2.800   9.969   8.210  0.7332 -0.1097 -0.3444
  641MOL0     C84495   2.722   9.923   8.328  0.8877 -0.0222 -0.0130
  641MOL0     C84496   2.569   9.908   8.306  0.3965  0.1856 -0.2509
  641MOL0     N84497   2.480  10.026   8.302  0.0525 -0.4430 -0.3278
  641MOL0     C84498   2.390  10.058   8.398 -0.3264 -1.1612 -0.5436
  641MOL0     C84499   2.338  10.181   8.356 -0.4328  0.1149  0.4044
  641MOL0     C84500   2.245  10.266   8.435  0.5632 -0.3113 -0.2015
  641MOL0     C84501   2.112  10.304   8.362 -0.2031 -0.7211 -0.4075
  641MOL0     C84502   2.004  10.383   8.450 -0.1166  0.3206  0.2176
  641MOL0     C84503   1.873  10.410   8.374  0.2602  0.5165  0.7127
  641MOL0     O84504   1.792  10.484   8.461  0.2846 -0.1687 -0.0358
  641MOL0     C84505   1.658  10.502   8.422 -0.2918  0.8939  0.8044
  641MOL0     C84506   1.550  10.435   8.486 -1.0459 -0.2364  0.4380
  641MOL0     C84507   1.421  10.475   8.448  0.6861 -0.5012 -0.7113
  641MOL0     C84508   1.394  10.572   8.355  0.6157 -0.2645  0.9961
  641MOL0     C84509   1.259  10.624   8.321 -0.2641 -0.1348  0.0023
  641MOL0     O84510   1.248  10.758   8.289 -0.3643  0.1182 -0.2126
  641MOL0     C84511   1.134  10.819   8.256 -0.3456  0.1190  0.0360
  641MOL0     C84512   1.048  10.780   8.150 -0.4841  0.0260 -0.6744
  641MOL0     C84513   0.917  10.841   8.129 -0.7031  0.1001 -0.2525
  641MOL0     C84514   0.868  10.938   8.219 -0.1072  0.1758 -0.9957
  641MOL0     O84515   0.741  10.977   8.217 -0.1830  0.1891 -0.3351
  641MOL0     C84516   0.724  11.096   8.140 -0.3372  0.3057 -0.4762
  641MOL0     C84517   0.601  11.166   8.186  0.1108  0.2705 -0.0074
  641MOL0     C84518   0.604  11.209   8.330 -0.8267 -0.2431  0.6556
  641MOL0     C84519   0.465  11.208   8.399  0.7565  1.3121 -0.2113
  641MOL0     C84520   0.382  11.335   8.373  0.4610 -0.6090 -0.2051
  641MOL0     C84521   0.326  11.338   8.231 -0.0829 -0.0617  0.7352
  641MOL0     C84522   0.206  11.432   8.202 -0.3234 -0.1598 -0.7523
  641MOL0     C84523   0.254  11.579   8.210 -0.6558 -0.0974 -0.3839
  641MOL0    Cl84524   0.246  11.617   8.382 -0.5936 -0.1117  0.0566
  641MOL0     C84525   0.948  10.976   8.324 -0.7096  0.1630  0.0764
  641MOL0     C84526   1.081  10.916   8.341  0.8494  0.2450  0.0516
  641MOL0     O84527   1.160  10.548   8.337 -0.4268  0.1028  0.1543
  641MOL0     C84528   1.500  10.628   8.282 -0.4075 -0.1760  0.2743
  641MOL0     C84529   1.630  10.585   8.315 -0.2606  0.5362 -0.4165
  641MOL0     N84530   2.401  10.230   8.245 -0.3211 -0.8759 -0.3289
  641MOL0     N84531   2.484  10.132   8.207 -0.2280 -0.5373  0.0280
  641MOL0     C84532   3.585  10.024   8.153  0.6637 -0.5168 -0.7892
  641MOL0     C84533   3.714  10.043   8.208  0.9104 -0.3002 -0.1980
  641MOL0     C84534   4.119  10.214   8.329  0.9153 -0.8964  0.3122
  641MOL0     C84535   4.161  10.088   8.373  0.8300  0.0878 -0.0445
  641MOL0     C84536   4.280  10.072   8.443  0.2940  0.1551  1.1589
  641MOL0     C84537   4.359  10.182   8.474  0.9586 -0.1740 -0.0872
  641MOL0     O84538   4.471  10.163   8.559 -0.1767 -0.0788  0.7736
  641MOL0     C84539   4.494  10.256   8.666  0.8432 -0.4113  0.6069
  641MOL0     C84540   4.637  10.242   8.715  0.4731  0.2346  0.6197
  641MOL0     C84541   4.658  10.317   8.839  0.3527  0.4782 -0.0475
  641MOL0     C84542   4.804  10.317   8.873 -0.1963 -0.2259  0.3949
  641MOL0     C84543   4.836  10.412   8.976  0.2834 -0.4230  0.2644
  641MOL0     C84544   4.893  10.495   9.043  0.1961  0.9134  0.1781
  641MOL0     C84545   4.322  10.305   8.422  0.2630  0.3778 -0.4833
  641MOL0     C84546   4.198  10.321   8.352  0.6371 -0.3438 -0.4961
  641MOL0     H84547   3.821  10.319   8.051  1.6343 -0.0233  2.9767
  641MOL0     H84548   3.586  10.288   7.947  2.9679  1.1567 -0.4701
  641MOL0     H84549   3.364  10.260   7.902  5.4641  0.4103  1.5707
  641MOL0     H84550   3.338  10.269   8.079 -3.4525 -0.0326 -0.6038
  641MOL0     H84551   3.198  10.077   7.914  0.4617  1.0431  1.0060
  641MOL0     H84552   3.124  10.233   7.930 -0.4470 -0.6415 -1.3610
  641MOL0     H84553   3.166  10.193   8.188  0.2003 -0.0461 -0.2401
  641MOL0     H84554   3.207  10.028   8.160  0.0194 -1.4930 -3.4363
  641MOL0     H84555   2.955  10.135   8.058  1.1087 -0.3232  0.1618
  641MOL0     H84556   3.001   9.961   8.042  0.0904  0.6715 -1.6941
  641MOL0     H84557   2.923  10.115   8.287 -3.2730 -1.4392  1.4713
  641MOL0     H84558   2.995   9.957   8.299 -0.5733 -0.2809 -0.4659
  641MOL0     H84559   2.792   9.902   8.124 -1.8481  1.8249 -1.7340
  641MOL0     H84560   2.752  10.060   8.176 -0.2605 -0.3339  0.4159
  641MOL0     H84561   2.771   9.828   8.351  0.3283 -0.2998  0.0331
  641MOL0     H84562   2.742   9.993   8.410 -2.0287  0.7871  0.1151
  641MOL0     H84563   2.539   9.846   8.391 -1.5619 -1.2806 -1.9016
  641MOL0     H84564   2.550   9.842   8.221 -1.0909  0.4095 -0.1181
  641MOL0     H84565   2.371  10.009   8.493 -0.1368 -0.4710 -0.1504
  641MOL0     H84566   2.274  10.367   8.467 -6.1170  1.3928  2.2111
  641MOL0     H84567   2.225  10.206   8.524  1.8439 -1.0585 -0.3909
  641MOL0     H84568   2.075  10.209   8.323  0.3492  0.0276 -2.9711
  641MOL0     H84569   2.139  10.359   8.271  1.2237 -0.2439  0.2781
  641MOL0     H84570   1.981  10.316   8.533 -4.6578 -1.2129 -1.9484
  641MOL0     H84571   2.041  10.476   8.493  2.8853 -1.3564  1.5681
  641MOL0     H84572   1.824  10.316   8.346  0.7165  0.4941 -0.0150
  641MOL0     H84573   1.895  10.459   8.279 -1.2157 -0.9293 -0.4411
  641MOL0     H84574   1.582  10.361   8.558  0.2502 -2.0087 -1.8428
  641MOL0     H84575   1.332  10.431   8.492  0.4591 -0.9308 -1.5842
  641MOL0     H84576   1.078  10.697   8.086  0.3225 -0.1406 -0.1052
  641MOL0     H84577   0.853  10.800   8.051 -1.7046 -0.5782  0.8929
  641MOL0     H84578   0.722  11.067   8.035  1.1561 -3.3260  0.3756
  641MOL0     H84579   0.814  11.156   8.157 -0.9533  0.7195  1.7456
  641MOL0     H84580   0.519  11.097   8.162  1.5791 -1.3723 -0.4923
  641MOL0     H84581   0.603  11.260   8.130 -1.9903 -0.0515 -0.7136
  641MOL0     H84582   0.673  11.294   8.344  1.9557 -1.5501 -3.2143
  641MOL0     H84583   0.654  11.129   8.384 -0.2497  1.0544  2.1259
  641MOL0     H84584   0.406  11.118   8.382  0.0688  0.6145  4.5498
  641MOL0     H84585   0.486  11.219   8.506  0.4262  3.0267 -0.2933
  641MOL0     H84586   0.446  11.422   8.391 -1.1822  0.2905  1.7691
  641MOL0     H84587   0.300  11.343   8.445  1.8473  1.2012  1.2717
  641MOL0     H84588   0.288  11.239   8.205 -3.8663  1.4204 -0.0509
  641MOL0     H84589   0.413  11.362   8.168 -1.6435 -5.1840 -4.2200
  641MOL0     H84590   0.172  11.413   8.100  0.0612  1.0910 -1.1250
  641MOL0     H84591   0.112  11.426   8.257 -0.2128 -1.9244 -0.6842
  641MOL0     H84592   0.194  11.646   8.149 -1.9213  1.9463  2.8614
  641MOL0     H84593   0.357  11.590   8.174 -0.0474 -1.5201  0.8268
  641MOL0     H84594   0.909  11.048   8.396 -1.8814 -0.9966  0.6410
  641MOL0     H84595   1.142  10.932   8.430  1.7319  0.7225 -0.6202
  641MOL0     H84596   1.474  10.700   8.205 -0.0945 -0.9273 -0.5483
  641MOL0     H84597   1.722  10.620   8.267  0.9714 -1.9056  0.0191
  641MOL0     H84598   3.526   9.935   8.171 -2.1761  1.5208  0.6861
  641MOL0     H84599   3.749   9.966   8.276 -1.2108 -1.7287 -0.6285
  641MOL0     H84600   4.099  10.000   8.377  0.0287  0.6475  0.3072
  641MOL0     H84601   4.322   9.978   8.479  2.4904  0.4525 -0.3891
  641MOL0     H84602   4.426  10.222   8.746  0.6989  0.3768  0.8290
  641MOL0     H84603   4.469  10.360   8.646 -0.2620 -0.8196 -0.2381
  641MOL0     H84604   4.675  10.141   8.731  0.6758 -0.0287 -1.2546
  641MOL0     H84605   4.699  10.281   8.633 -1.4269 -1.1542 -1.5654
  641MOL0     H84606   4.591  10.283   8.919 -1.4573 -2.1074 -2.4571
  641MOL0     H84607   4.637  10.420   8.808 -3.2374 -0.7854 -2.5434
  641MOL0     H84608   4.831  10.214   8.897 -0.3147 -1.1817 -3.0099
  641MOL0     H84609   4.862  10.350   8.785  2.0491 -1.1228  1.4492
  641MOL0     H84610   4.925  10.576   9.107 -1.7499  0.5129  1.7471
  641MOL0     H84611   4.388  10.390   8.427 -1.0923  1.3791  2.5344
  641MOL0     H84612   4.168  10.418   8.314  1.6892  1.0039  1.8580
  642MOL0     O84613  10.411   4.769   3.094 -0.6738 -0.9623 -0.2215
  642MOL0     C84614  10.411   4.686   3.187  0.6822  0.0932 -1.0788
  642MOL0     O84615  10.339   4.566   3.193  0.4415 -0.6210 -0.2640
  642MOL0     C84616  10.241   4.557   3.096  0.1766  0.0469  0.1148
  642MOL0     C84617  10.110   4.540   3.136 -0.2813 -0.1300 -0.9342
  642MOL0     C84618  10.004   4.512   3.042 -0.4001  0.5708  0.0576
  642MOL0     C84619  10.038   4.505   2.907  0.3283 -0.1656 -0.0644
  642MOL0     O84620   9.951   4.484   2.809  0.1859  0.6560 -0.2817
  642MOL0     C84621   9.815   4.481   2.850  0.0895  0.0193  0.0166
  642MOL0     C84622   9.734   4.457   2.727  0.8656 -0.3904 -0.7191
  642MOL0     C84623   9.580   4.469   2.763  0.7241 -0.7869  0.1251
  642MOL0     C84624   9.498   4.419   2.648  0.1209  0.1288 -0.0475
  642MOL0     C84625   9.347   4.423   2.685  0.2253  0.5693  0.2272
  642MOL0     C84626   9.259   4.346   2.585  0.8516 -0.5297  0.3399
  642MOL0     C84627   9.105   4.375   2.611 -0.0440 -0.0469  0.0148
  642MOL0     C84628   9.010   4.313   2.508  0.5620  0.9430  0.6140
  642MOL0     N84629   8.873   4.368   2.517  0.3598 -0.0763  0.4822
  642MOL0     C84630   8.787   4.328   2.611  1.0895  0.9737  0.6388
  642MOL0     C84631   8.669   4.393   2.583  0.3003  0.5285 -0.6567
  642MOL0     C84632   8.542   4.381   2.668 -0.3690 -0.6003 -0.7161
  642MOL0     C84633   8.523   4.238   2.714 -0.1673  0.0301 -0.7155
  642MOL0     C84634   8.390   4.243   2.788 -0.2444  1.3421  0.4602
  642MOL0     C84635   8.344   4.096   2.813 -0.3382 -0.4098  0.1730
  642MOL0     O84636   8.210   4.099   2.870  0.1696  0.2788  0.3685
  642MOL0     C84637   8.097   4.070   2.797 -0.8362  0.5531  0.8635
  642MOL0     C84638   7.981   4.052   2.881 -0.4496 -0.4567 -0.1777
  642MOL0     C84639   7.852   4.048   2.822  0.1774  0.0233  0.6536
  642MOL0     C84640   7.852   4.043   2.684  0.2002  0.0395 -0.1546
  642MOL0     C84641   7.719   4.039   2.618 -0.7350 -0.1421 -0.2769
  642MOL0     O84642   7.693   4.131   2.521  0.6628 -0.2358  0.6517
  642MOL0     C84643   7.577   4.117   2.451  0.3565 -0.1007 -0.5000
  642MOL0     C84644   7.581   4.057   2.322  0.1464 -1.4441 -0.4752
  642MOL0     C84645   7.455   4.042   2.255  0.1595 -0.3383  0.1994
  642MOL0     C84646   7.330   4.085   2.302  0.1390  0.2385  0.1105
  642MOL0     O84647   7.214   4.056   2.236  0.1269  0.2597  0.2579
  642MOL0     C84648   7.118   4.164   2.239 -0.5062  0.2380  0.9038
  642MOL0     C84649   7.039   4.158   2.098  0.2763  0.6838  0.1723
  642MOL0     C84650   6.893   4.192   2.129  0.9673  0.2686  1.4075
  642MOL0     C84651   6.805   4.174   2.004 -0.1725 -0.7902  0.1989
  642MOL0     C84652   6.702   4.285   1.982  0.3198 -0.1000  0.2557
  642MOL0     C84653   6.591   4.298   2.088 -0.2439  0.8379 -0.0690
  642MOL0     C84654   6.485   4.406   2.049  0.7250  0.2195  0.7874
  642MOL0     C84655   6.362   4.404   2.142  0.0293 -0.5429 -0.5897
  642MOL0    Cl84656   6.274   4.242   2.168 -0.2374  0.1638 -0.1184
  642MOL0     C84657   7.337   4.148   2.428 -0.5124 -0.4667 -0.4580
  642MOL0     C84658   7.459   4.169   2.494 -0.1935 -0.6184 -1.6276
  642MOL0     O84659   7.644   3.958   2.658  0.0440 -0.0929  0.4187
  642MOL0     C84660   7.963   4.051   2.599  0.2278 -0.1022  0.0515
  642MOL0     C84661   8.089   4.062   2.655  0.7436  0.2785 -0.0506
  642MOL0     N84662   8.686   4.472   2.476  0.3823 -0.0893  0.5036
  642MOL0     N84663   8.813   4.466   2.439  0.6976 -0.4038  0.1222
  642MOL0     C84664  10.165   4.532   2.873 -0.3809 -0.7853  0.1364
  642MOL0     C84665  10.274   4.552   2.963  0.3584  0.3747  0.5457
  642MOL0     C84666  10.515   4.707   3.293  0.0831  0.0779 -0.0295
  642MOL0     C84667  10.548   4.594   3.373 -0.0846 -0.5164 -0.0847
  642MOL0     C84668  10.661   4.604   3.461  0.1344 -0.5902  0.1403
  642MOL0     C84669  10.724   4.730   3.485  0.0282  0.6947 -0.4300
  642MOL0     O84670  10.817   4.752   3.583  0.1784  0.1556  0.0203
  642MOL0     C84671  10.879   4.645   3.665 -0.0175 -0.2295  0.5357
  642MOL0     C84672  10.944   4.698   3.803 -0.7045  0.3373 -0.6868
  642MOL0     C84673  11.079   4.775   3.776 -0.1583 -1.0054 -0.0561
  642MOL0     C84674  11.129   4.835   3.906 -0.3546  0.0312 -0.1508
  642MOL0     C84675  11.264   4.891   3.890  0.5040  0.2973  0.4136
  642MOL0     C84676  11.369   4.937   3.870 -0.0584  0.0204  0.1889
  642MOL0     C84677  10.683   4.839   3.408  0.1433  0.1366  0.4731
  642MOL0     C84678  10.579   4.823   3.317 -0.6954  0.8500 -1.2413
  642MOL0     H84679  10.078   4.568   3.236  0.6982 -0.8726 -0.4030
  642MOL0     H84680   9.904   4.502   3.083 -0.4305 -0.1082 -0.1611
  642MOL0     H84681   9.786   4.580   2.884  1.3053  0.3246  0.2134
  642MOL0     H84682   9.805   4.401   2.925 -1.0625  0.3017  0.1778
  642MOL0     H84683   9.765   4.358   2.690  0.4629 -2.0376  2.9128
  642MOL0     H84684   9.754   4.540   2.659 -0.7054  0.8359  0.2545
  642MOL0     H84685   9.552   4.572   2.785 -1.7051 -1.7801  2.0780
  642MOL0     H84686   9.549   4.415   2.853 -1.7471 -2.1083 -1.4041
  642MOL0     H84687   9.499   4.494   2.568 -1.8590  0.7357  0.4394
  642MOL0     H84688   9.536   4.324   2.609 -1.4734 -1.3430  1.8470
  642MOL0     H84689   9.328   4.527   2.713  0.3865  0.9705 -1.1147
  642MOL0     H84690   9.340   4.383   2.787  1.9742  2.2327  1.0503
  642MOL0     H84691   9.282   4.240   2.595  0.6824 -1.4196 -5.3095
  642MOL0     H84692   9.280   4.390   2.487  0.7592 -2.7142 -0.7089
  642MOL0     H84693   9.074   4.329   2.705  3.7510 -1.6180  0.6690
  642MOL0     H84694   9.088   4.483   2.609  0.7953  0.0909 -1.6463
  642MOL0     H84695   9.008   4.204   2.506 -0.1378  0.9594 -0.4906
  642MOL0     H84696   9.039   4.340   2.406 -0.4603 -0.3211 -0.0391
  642MOL0     H84697   8.802   4.257   2.691  2.7562  2.1537  1.4220
  642MOL0     H84698   8.452   4.415   2.617 -0.8036  0.7916  0.8831
  642MOL0     H84699   8.559   4.448   2.753 -1.7999  1.7785 -2.1788
  642MOL0     H84700   8.603   4.198   2.778  0.5608 -1.2334 -2.3457
  642MOL0     H84701   8.522   4.166   2.631  0.8324 -2.9342  1.6404
  642MOL0     H84702   8.413   4.298   2.879 -0.4205  3.3451 -0.6353
  642MOL0     H84703   8.306   4.295   2.740 -1.0595  0.3920  0.8275
  642MOL0     H84704   8.414   4.053   2.886  1.3668 -0.6759 -1.5444
  642MOL0     H84705   8.337   4.031   2.725  1.1174 -2.6411  1.6073
  642MOL0     H84706   7.994   4.042   2.988 -2.3144 -1.9327 -0.0523
  642MOL0     H84707   7.759   4.054   2.879 -1.3947  0.5972 -1.8144
  642MOL0     H84708   7.673   4.023   2.276  2.4629  0.3655  2.4359
  642MOL0     H84709   7.460   4.010   2.152 -2.7751  0.3791 -0.2515
  642MOL0     H84710   7.163   4.263   2.253  2.0512 -0.7432  0.1903
  642MOL0     H84711   7.057   4.132   2.324 -4.0320  1.7351 -0.8318
  642MOL0     H84712   7.037   4.057   2.057  0.3849  0.5430  0.5050
  642MOL0     H84713   7.087   4.233   2.034  0.5852  2.0478  1.9090
  642MOL0     H84714   6.897   4.297   2.161  0.1766  0.5262  0.6964
  642MOL0     H84715   6.862   4.128   2.212 -0.4928 -0.2595  0.4887
  642MOL0     H84716   6.875   4.170   1.920  1.7867  2.3484  1.5131
  642MOL0     H84717   6.759   4.075   2.015 -0.5884 -0.6422 -0.1865
  642MOL0     H84718   6.657   4.292   1.883 -0.6647 -0.5542  0.6626
  642MOL0     H84719   6.756   4.379   1.997 -0.3508  0.0743  1.7543
  642MOL0     H84720   6.642   4.326   2.180 -2.2072  0.1462  1.2962
  642MOL0     H84721   6.537   4.204   2.102 -0.7629  1.0331 -0.6858
  642MOL0     H84722   6.535   4.503   2.058 -1.6714  1.7502 -1.3629
  642MOL0     H84723   6.479   4.394   1.941  1.1650 -0.2894  0.8133
  642MOL0     H84724   6.288   4.475   2.105 -3.2183 -3.7371 -0.7734
  642MOL0     H84725   6.394   4.442   2.240  0.4927  1.5639 -1.4984
  642MOL0     H84726   7.248   4.182   2.480  1.1042 -0.1072  2.2729
  642MOL0     H84727   7.454   4.221   2.590 -2.8139  0.1531 -2.1189
  642MOL0     H84728   7.935   4.062   2.494 -0.6889 -2.6398 -0.0350
  642MOL0     H84729   8.170   4.067   2.584 -0.4489 -2.0632 -1.6910
  642MOL0     H84730  10.194   4.518   2.769  1.1324  2.2274  0.0402
  642MOL0     H84731  10.375   4.562   2.924  0.1091 -3.2957 -1.5428
  642MOL0     H84732  10.491   4.503   3.361 -2.6167  1.0022 -0.4662
  642MOL0     H84733  10.686   4.518   3.523  0.9119 -1.5327 -1.4238
  642MOL0     H84734  10.954   4.599   3.599 -1.7740 -0.4671 -1.4069
  642MOL0     H84735  10.812   4.563   3.690  0.2733 -0.6254  0.0371
  642MOL0     H84736  10.875   4.756   3.866 -1.2098  0.6410 -1.4990
  642MOL0     H84737  10.973   4.611   3.863 -0.4658  0.0861 -1.1605
  642MOL0     H84738  11.065   4.859   3.707 -0.4143 -1.9812 -1.2096
  642MOL0     H84739  11.151   4.705   3.734  3.0604  0.4097  2.6630
  642MOL0     H84740  11.051   4.902   3.944 -1.3986  1.0014 -3.5760
  642MOL0     H84741  11.147   4.744   3.964  4.0832 -0.2845 -1.6498
  642MOL0     H84742  11.467   4.981   3.864  0.0281  0.0582  1.5606
  642MOL0     H84743  10.734   4.933   3.428 -0.5661  0.9476 -1.3079
  642MOL0     H84744  10.548   4.905   3.252 -2.2998  0.1950 -1.3663
  643MOL0     O84745   0.071   6.750   4.593  0.6600  0.4207  1.4910
  643MOL0     C84746   0.124   6.697   4.495 -0.1349 -0.3656 -0.4330
  643MOL0     O84747   0.066   6.628   4.391 -0.4788 -0.6893 -0.4720
  643MOL0     C84748  -0.067   6.601   4.364 -0.5577  0.6013  0.4439
  643MOL0     C84749  -0.173   6.669   4.410 -0.1769  0.6479 -0.6394
  643MOL0     C84750  -0.300   6.638   4.368  0.5155  0.2402 -0.6738
  643MOL0     C84751  -0.327   6.533   4.285 -0.6312  1.0381 -0.2874
  643MOL0     O84752  -0.453   6.495   4.249  0.3963 -0.2926  0.0157
  643MOL0     C84753  -0.574   6.586   4.260  0.5723  0.9773  0.1246
  643MOL0     C84754  -0.682   6.531   4.162  0.7671 -0.1873 -0.8404
  643MOL0     C84755  -0.742   6.393   4.199 -0.1117 -0.1826  0.3930
  643MOL0     C84756  -0.863   6.361   4.129  0.7454  0.3961  0.5800
  643MOL0     C84757  -0.880   6.206   4.135  0.0155  0.3611  0.6511
  643MOL0     C84758  -0.967   6.148   4.019  0.3092 -0.4109 -0.2937
  643MOL0     C84759  -0.972   5.991   4.014 -1.1228 -0.5504  0.8979
  643MOL0     C84760  -0.911   5.938   3.889  0.2116  0.4519 -0.1504
  643MOL0     N84761  -0.903   5.792   3.876  0.2549  0.2567  0.6544
  643MOL0     C84762  -0.976   5.691   3.935  0.3270 -0.3129  0.3386
  643MOL0     C84763  -0.935   5.574   3.875 -0.7551  0.2100  0.2510
  643MOL0     C84764  -0.987   5.435   3.910  0.0135 -0.4609 -0.9417
  643MOL0     C84765  -1.135   5.413   3.870 -1.4301 -0.0111  0.4251
  643MOL0     C84766  -1.168   5.473   3.732 -0.7308 -0.7101  1.4390
  643MOL0     C84767  -1.316   5.450   3.704 -0.5988  0.6526  0.1797
  643MOL0     O84768  -1.337   5.304   3.694 -0.2231  0.3447  0.5737
  643MOL0     C84769  -1.445   5.267   3.617 -0.1782 -0.3770  0.5173
  643MOL0     C84770  -1.543   5.180   3.676 -0.6201  0.1745  0.6337
  643MOL0     C84771  -1.665   5.138   3.618  0.3700 -0.2481  0.5213
  643MOL0     C84772  -1.686   5.185   3.486  0.4484 -0.0717  1.6540
  643MOL0     C84773  -1.818   5.143   3.413 -0.9892  0.4251  0.1541
  643MOL0     O84774  -1.885   5.040   3.467  0.3515  0.2641 -0.3532
  643MOL0     C84775  -2.009   5.002   3.428  0.7866 -0.3729 -0.3811
  643MOL0     C84776  -2.024   4.915   3.318 -0.7707  0.1653 -0.1120
  643MOL0     C84777  -2.152   4.876   3.271  0.4380  0.4107 -0.0060
  643MOL0     C84778  -2.275   4.923   3.330 -0.9073 -0.0484 -0.7466
  643MOL0     O84779  -2.391   4.883   3.278 -0.3167  0.0389  0.3372
  643MOL0     C84780  -2.484   4.825   3.368 -0.5991 -0.7526  0.4196
  643MOL0     C84781  -2.464   4.683   3.369 -0.4893  0.6689 -0.1119
  643MOL0     C84782  -2.575   4.603   3.441  0.7730  0.0704 -0.2033
  643MOL0     C84783  -2.710   4.606   3.362 -1.1459  0.8884  0.1408
  643MOL0     C84784  -2.820   4.514   3.398  0.2118  0.2548 -0.3059
  643MOL0     C84785  -2.782   4.365   3.417  0.6948 -1.1841 -0.7572
  643MOL0     C84786  -2.766   4.299   3.271  0.5071  0.0264  0.0075
  643MOL0     C84787  -2.776   4.148   3.276  0.5292  0.1950  0.2233
  643MOL0    Cl84788  -2.639   4.084   3.355  0.5027  0.1274 -0.1427
  643MOL0     C84789  -2.248   4.990   3.457  0.5586 -0.2951  0.3391
  643MOL0     C84790  -2.117   5.037   3.497  1.0393  0.3733  0.5975
  643MOL0     O84791  -1.845   5.197   3.310  0.5068  0.1121  0.5627
  643MOL0     C84792  -1.599   5.274   3.419 -0.8620  0.2790 -0.1269
  643MOL0     C84793  -1.477   5.307   3.482 -0.5512 -0.6499 -0.6955
  643MOL0     N84794  -0.838   5.604   3.783  0.0027  0.5250  0.0183
  643MOL0     N84795  -0.808   5.730   3.792 -0.5081  0.8141 -0.3663
  643MOL0     C84796  -0.222   6.457   4.244 -0.2100 -0.2320  0.3584
  643MOL0     C84797  -0.094   6.484   4.287 -0.0018 -1.0360  0.3197
  643MOL0     C84798   0.272   6.695   4.493 -0.1671  1.1172  0.6321
  643MOL0     C84799   0.341   6.591   4.432  0.1665 -0.9288  0.4325
  643MOL0     C84800   0.482   6.585   4.430 -0.1367  0.5033  0.2968
  643MOL0     C84801   0.560   6.679   4.498 -0.0023 -0.3029 -0.8297
  643MOL0     O84802   0.697   6.666   4.516 -0.6724  0.2873 -0.7327
  643MOL0     C84803   0.771   6.765   4.578 -0.7621 -0.2422 -0.6129
  643MOL0     C84804   0.919   6.724   4.563  0.6261 -0.4223 -0.0264
  643MOL0     C84805   0.968   6.752   4.419 -0.5769 -0.1918 -0.3974
  643MOL0     C84806   1.119   6.701   4.414  0.2015  0.1335 -0.7912
  643MOL0     C84807   1.181   6.710   4.285 -0.5160 -0.8676  0.4913
  643MOL0     C84808   1.248   6.724   4.182 -0.0760  0.0988  0.2536
  643MOL0     C84809   0.489   6.791   4.554  0.0633  0.5901 -0.4887
  643MOL0     C84810   0.350   6.798   4.555 -0.5388  0.7260 -0.4294
  643MOL0     H84811  -0.172   6.751   4.480  0.0980  2.0124 -2.1952
  643MOL0     H84812  -0.387   6.696   4.398 -0.9496 -2.3672  0.4659
  643MOL0     H84813  -0.552   6.688   4.227  0.3564  0.3540 -2.1065
  643MOL0     H84814  -0.626   6.580   4.356 -0.2473  0.9370 -0.3137
  643MOL0     H84815  -0.645   6.526   4.059 -3.3789  2.2928 -2.7387
  643MOL0     H84816  -0.765   6.602   4.160 -0.6755 -1.8180 -1.2222
  643MOL0     H84817  -0.778   6.412   4.301 -1.0342  2.6475 -0.3674
  643MOL0     H84818  -0.663   6.318   4.184  1.5945  0.9985  2.6708
  643MOL0     H84819  -0.952   6.408   4.173  0.9872  0.9062  0.5312
  643MOL0     H84820  -0.857   6.397   4.026 -1.0499 -0.6124  0.0653
  643MOL0     H84821  -0.925   6.176   4.230 -0.4879  0.8896  0.5939
  643MOL0     H84822  -0.783   6.157   4.129 -0.6397 -1.3052  2.6438
  643MOL0     H84823  -0.910   6.179   3.931  0.2648 -1.7826 -0.8342
  643MOL0     H84824  -1.067   6.192   4.025  0.5611  0.1392 -0.1515
  643MOL0     H84825  -0.921   5.953   4.103  1.4307 -0.0797 -0.2532
  643MOL0     H84826  -1.075   5.958   4.002 -2.5341  3.8739 -1.4833
  643MOL0     H84827  -0.809   5.973   3.877  0.3158  1.1258  2.2781
  643MOL0     H84828  -0.966   5.990   3.809 -2.5245 -1.1371  0.5303
  643MOL0     H84829  -1.043   5.693   4.020 -0.3283 -1.1217 -0.1404
  643MOL0     H84830  -0.991   5.427   4.019 -2.6056  0.1486 -0.9352
  643MOL0     H84831  -0.918   5.358   3.873  1.2629  0.5009 -0.6999
  643MOL0     H84832  -1.209   5.453   3.941 -2.7262  0.8439 -1.3135
  643MOL0     H84833  -1.146   5.305   3.862  0.8519 -0.2154 -0.7970
  643MOL0     H84834  -1.145   5.579   3.720 -2.4913 -0.0855  3.0883
  643MOL0     H84835  -1.114   5.415   3.657 -1.7174  0.3212 -0.1426
  643MOL0     H84836  -1.336   5.511   3.615  2.7420 -0.2475 -1.3405
  643MOL0     H84837  -1.373   5.487   3.789  1.9140  0.2212  2.1678
  643MOL0     H84838  -1.528   5.130   3.771 -3.5857 -0.2608  0.9534
  643MOL0     H84839  -1.734   5.070   3.665 -2.0239  1.8914  0.2958
  643MOL0     H84840  -1.940   4.862   3.273 -0.0711  0.7085  0.5325
  643MOL0     H84841  -2.172   4.809   3.188 -3.0467  1.4415 -0.1679
  643MOL0     H84842  -2.581   4.852   3.326  1.4058  4.4793 -1.7294
  643MOL0     H84843  -2.483   4.865   3.470 -4.0530  3.3799 -0.8969
  643MOL0     H84844  -2.373   4.662   3.426 -2.1722  1.2777  2.9928
  643MOL0     H84845  -2.453   4.647   3.266 -1.2440  1.6737 -0.5577
  643MOL0     H84846  -2.587   4.643   3.543 -2.0103 -0.5015 -0.2377
  643MOL0     H84847  -2.534   4.501   3.443 -1.2102 -0.7794  2.1400
  643MOL0     H84848  -2.753   4.705   3.380 -0.5814  0.9848  1.0658
  643MOL0     H84849  -2.670   4.584   3.263  1.9602  1.1534  1.2221
  643MOL0     H84850  -2.893   4.527   3.318  0.0797  1.6272  0.0090
  643MOL0     H84851  -2.872   4.555   3.485  1.0045 -0.0271  0.3186
  643MOL0     H84852  -2.866   4.324   3.473 -1.8628  2.0680 -1.8246
  643MOL0     H84853  -2.686   4.363   3.469  0.0107  1.6418  0.8245
  643MOL0     H84854  -2.849   4.333   3.209 -0.6983  0.0703  1.5617
  643MOL0     H84855  -2.671   4.329   3.226  0.8261 -3.7413 -2.2926
  643MOL0     H84856  -2.784   4.104   3.176 -0.4865  0.1526  0.3145
  643MOL0     H84857  -2.865   4.103   3.321 -0.6810 -1.8961 -3.7786
  643MOL0     H84858  -2.334   5.021   3.517 -0.4352  3.0187 -2.4612
  643MOL0     H84859  -2.099   5.096   3.586  1.5780 -0.6629  1.2090
  643MOL0     H84860  -1.618   5.305   3.317 -1.5394 -3.6956 -1.4053
  643MOL0     H84861  -1.396   5.352   3.427  0.8745 -0.8900  1.1157
  643MOL0     H84862  -0.248   6.370   4.185 -1.4903  0.3148  0.0570
  643MOL0     H84863  -0.010   6.419   4.265  0.6792  0.4502 -1.8135
  643MOL0     H84864   0.287   6.508   4.387 -0.2874 -0.8930  0.9025
  643MOL0     H84865   0.529   6.497   4.387  1.8145  1.1895  0.8864
  643MOL0     H84866   0.746   6.773   4.684 -1.4080 -0.4074 -0.7474
  643MOL0     H84867   0.765   6.864   4.532  2.0564  1.2783  1.9480
  643MOL0     H84868   0.968   6.799   4.626  0.4433  2.4215 -3.0275
  643MOL0     H84869   0.944   6.622   4.594  0.0897 -0.4338  0.3891
  643MOL0     H84870   0.968   6.859   4.396  3.7703 -0.0128 -0.3315
  643MOL0     H84871   0.907   6.700   4.344 -1.2356  0.5194 -0.3608
  643MOL0     H84872   1.176   6.764   4.483 -0.5149 -0.5028  0.4266
  643MOL0     H84873   1.133   6.595   4.439  0.2734  0.0793 -1.0652
  643MOL0     H84874   1.315   6.745   4.101 -0.7357  1.0047 -0.0636
  643MOL0     H84875   0.550   6.856   4.617 -1.3988  1.0178  0.5278
  643MOL0     H84876   0.289   6.882   4.588  0.3571  0.8789  0.8542
  644MOL0     O84877   3.566   6.176   6.868 -0.1442 -0.0939 -0.1955
  644MOL0     C84878   3.596   6.074   6.802 -0.0397  0.0126  0.3445
  644MOL0     O84879   3.541   6.042   6.685  0.1222 -0.4838  0.1869
  644MOL0     C84880   3.457   6.134   6.638  0.0395 -0.2517  0.6253
  644MOL0     C84881   3.320   6.121   6.644 -0.7002  0.4341  0.6216
  644MOL0     C84882   3.235   6.212   6.574  0.6885  0.0890 -1.1345
  644MOL0     C84883   3.284   6.319   6.505 -0.0331 -0.2008 -0.9664
  644MOL0     O84884   3.193   6.397   6.440 -0.0349  0.0948 -0.3278
  644MOL0     C84885   3.226   6.445   6.308  0.3023 -0.4338 -0.0563
  644MOL0     C84886   3.089   6.461   6.242 -0.2510  0.2609 -0.3220
  644MOL0     C84887   2.995   6.572   6.297  0.3334 -0.1391  0.6507
  644MOL0     C84888   3.060   6.708   6.283 -0.0811 -0.1624  0.5848
  644MOL0     C84889   2.958   6.824   6.291  0.1626  0.3131  0.2061
  644MOL0     C84890   2.854   6.820   6.178 -0.2886  0.7308 -0.3991
  644MOL0     C84891   2.714   6.886   6.206  0.2110  0.0927  0.1639
  644MOL0     C84892   2.630   6.779   6.284  0.1539  0.3417 -0.2132
  644MOL0     N84893   2.568   6.679   6.187 -0.3971  0.2416  0.1379
  644MOL0     C84894   2.459   6.713   6.106 -0.0754  0.4884  0.2121
  644MOL0     C84895   2.409   6.591   6.061  0.4987 -0.1452  0.4244
  644MOL0     C84896   2.281   6.595   5.983  0.1471  0.0212 -0.5141
  644MOL0     C84897   2.167   6.600   6.078  0.0087 -0.6009 -0.3136
  644MOL0     C84898   2.035   6.651   6.024  0.2451 -0.1369  0.9044
  644MOL0     C84899   1.946   6.700   6.130  0.0402 -0.8039 -0.1150
  644MOL0     O84900   1.822   6.736   6.073 -0.6084 -0.4918  0.6300
  644MOL0     C84901   1.719   6.803   6.147  0.0828 -0.1882  0.3693
  644MOL0     C84902   1.720   6.813   6.288  1.0251 -0.0161  0.2948
  644MOL0     C84903   1.619   6.892   6.356  0.4135 -0.1380 -0.8173
  644MOL0     C84904   1.509   6.943   6.284  0.4168 -0.9808  0.5204
  644MOL0     C84905   1.395   7.014   6.351 -0.0934 -0.5992 -0.0828
  644MOL0     O84906   1.331   7.118   6.292 -0.1339 -0.1361  0.5138
  644MOL0     C84907   1.262   7.220   6.357 -0.2316 -0.1486  0.0399
  644MOL0     C84908   1.163   7.303   6.293 -0.2457  0.1029  0.1471
  644MOL0     C84909   1.086   7.400   6.363  0.7066  0.5788 -0.5776
  644MOL0     C84910   1.111   7.407   6.503  0.1430 -0.0949 -0.0335
  644MOL0     O84911   1.047   7.487   6.593 -0.0103  0.5769  0.9563
  644MOL0     C84912   0.942   7.571   6.546 -0.3946  0.5574 -0.0096
  644MOL0     C84913   0.889   7.668   6.644  0.2503 -0.0014  0.5540
  644MOL0     C84914   0.845   7.602   6.773 -0.4418  0.1893 -0.7036
  644MOL0     C84915   0.810   7.708   6.880 -0.6368 -0.1062 -0.6014
  644MOL0     C84916   0.690   7.656   6.965  0.5687 -0.8465 -0.1865
  644MOL0     C84917   0.635   7.729   7.084 -0.5633  0.2022 -0.0493
  644MOL0     C84918   0.553   7.848   7.036  0.5304 -0.5124  1.1202
  644MOL0     C84919   0.411   7.810   7.008 -0.3471 -0.2966  1.1702
  644MOL0    Cl84920   0.329   7.801   7.160 -0.5210 -0.2413 -0.1189
  644MOL0     C84921   1.215   7.340   6.561 -0.3100 -0.2111 -0.3697
  644MOL0     C84922   1.293   7.254   6.489 -0.6283  0.1668 -1.3095
  644MOL0     O84923   1.370   6.975   6.461  0.0058  0.0768 -0.4346
  644MOL0     C84924   1.506   6.915   6.151  0.3979 -0.1642  0.3624
  644MOL0     C84925   1.603   6.833   6.082 -0.1298 -0.4872 -0.4661
  644MOL0     N84926   2.490   6.493   6.112  0.9841  0.2251 -0.6918
  644MOL0     N84927   2.582   6.545   6.188  1.0138 -0.6004  0.4263
  644MOL0     C84928   3.423   6.342   6.508 -0.1903  0.0122  0.9090
  644MOL0     C84929   3.508   6.248   6.570  0.0816  0.8926  0.3825
  644MOL0     C84930   3.698   5.989   6.854  0.4403  0.1844 -0.2904
  644MOL0     C84931   3.728   5.987   6.991 -0.0766  0.1181  0.1490
  644MOL0     C84932   3.817   5.894   7.038  0.1211  0.1956 -0.5731
  644MOL0     C84933   3.881   5.804   6.951 -0.1992  0.1971 -1.0581
  644MOL0     O84934   3.977   5.717   6.988 -0.5621 -0.0959 -0.1787
  644MOL0     C84935   4.018   5.712   7.121  0.5269 -0.0128  1.0443
  644MOL0     C84936   4.161   5.661   7.146  0.2985 -0.3810  0.2681
  644MOL0     C84937   4.260   5.737   7.057 -0.5908  0.2532  0.5722
  644MOL0     C84938   4.400   5.754   7.145  0.1280 -0.0013  0.1887
  644MOL0     C84939   4.472   5.633   7.179 -0.4412  0.2636 -0.2630
  644MOL0     C84940   4.520   5.524   7.200  0.2407  0.8753 -0.0339
  644MOL0     C84941   3.853   5.815   6.816  1.0240 -0.2276 -0.2678
  644MOL0     C84942   3.752   5.903   6.762  0.4514 -0.0594  0.7671
  644MOL0     H84943   3.279   6.029   6.684  1.8488 -0.6747  0.9070
  644MOL0     H84944   3.130   6.191   6.557  0.7430 -2.2280  0.9456
  644MOL0     H84945   3.290   6.376   6.252  0.8876  1.2926 -1.6072
  644MOL0     H84946   3.281   6.539   6.316  2.3296 -1.2590 -2.6499
  644MOL0     H84947   3.037   6.365   6.246 -2.7309  1.3766 -2.6372
  644MOL0     H84948   3.094   6.488   6.136  1.6655  0.1520 -0.2858
  644MOL0     H84949   2.966   6.551   6.400 -2.7316 -0.1602 -0.1059
  644MOL0     H84950   2.906   6.568   6.233  2.5214  0.5225 -2.7027
  644MOL0     H84951   3.129   6.711   6.368  1.2043  0.4908 -0.4455
  644MOL0     H84952   3.110   6.719   6.186  0.0117  0.1997  0.6752
  644MOL0     H84953   3.006   6.922   6.285  1.5377 -0.4253 -1.9573
  644MOL0     H84954   2.902   6.809   6.384  3.4821 -3.8663  1.8427
  644MOL0     H84955   2.836   6.718   6.142 -4.3952  1.8022 -1.9165
  644MOL0     H84956   2.890   6.882   6.096  0.7500  0.0252 -0.5089
  644MOL0     H84957   2.709   6.979   6.264 -2.0951 -1.0340  1.9209
  644MOL0     H84958   2.659   6.904   6.113  0.1919 -1.7496 -0.2193
  644MOL0     H84959   2.559   6.829   6.350 -0.1185  1.0647 -1.0246
  644MOL0     H84960   2.693   6.725   6.354  0.9527  2.0214  0.4054
  644MOL0     H84961   2.420   6.810   6.080  0.3345  0.3257 -1.0877
  644MOL0     H84962   2.264   6.516   5.910 -5.2862  0.4485 -0.1390
  644MOL0     H84963   2.277   6.690   5.930 -4.3335 -0.3870 -1.2556
  644MOL0     H84964   2.194   6.675   6.153  0.2506 -0.4848 -0.5166
  644MOL0     H84965   2.154   6.495   6.105  2.7533 -1.0824 -0.5977
  644MOL0     H84966   2.048   6.739   5.960 -0.8450 -0.5529  0.0947
  644MOL0     H84967   1.987   6.571   5.967 -4.1625  1.5775  1.7891
  644MOL0     H84968   1.992   6.784   6.183 -4.9908  0.5763  2.7270
  644MOL0     H84969   1.933   6.625   6.209  4.0599 -1.2919  0.2856
  644MOL0     H84970   1.808   6.771   6.336  0.6432 -0.5528  0.5324
  644MOL0     H84971   1.622   6.921   6.461 -2.3871  1.2672 -1.0430
  644MOL0     H84972   1.137   7.298   6.188 -2.1376  1.1558  0.5185
  644MOL0     H84973   1.005   7.459   6.321  1.8154  0.9111 -2.3359
  644MOL0     H84974   0.865   7.502   6.510 -0.6208  0.6760  0.2401
  644MOL0     H84975   0.980   7.635   6.465 -0.3939  2.6229  1.5295
  644MOL0     H84976   0.807   7.732   6.610 -0.4690  1.8348  4.9724
  644MOL0     H84977   0.964   7.742   6.674 -0.7655  0.8255  1.1476
  644MOL0     H84978   0.922   7.534   6.812 -1.1469 -1.1885 -1.6286
  644MOL0     H84979   0.750   7.551   6.756 -1.3308  0.9404  1.6548
  644MOL0     H84980   0.901   7.725   6.939 -1.5759  5.3419 -0.1622
  644MOL0     H84981   0.783   7.807   6.841 -1.5759  1.1054  2.7692
  644MOL0     H84982   0.733   7.565   7.009  3.9205  0.4480 -0.4417
  644MOL0     H84983   0.604   7.645   6.898 -1.1242  0.5966  1.6354
  644MOL0     H84984   0.728   7.763   7.130 -1.4893 -1.6692  3.5604
  644MOL0     H84985   0.582   7.658   7.148 -1.6026 -0.5668 -1.6981
  644MOL0     H84986   0.558   7.917   7.121  1.4601 -1.4852  1.8843
  644MOL0     H84987   0.601   7.901   6.954  2.8137 -0.8989  2.1181
  644MOL0     H84988   0.394   7.719   6.949  0.0538 -2.6471  4.4440
  644MOL0     H84989   0.357   7.895   6.965 -0.9477 -1.0070  0.4842
  644MOL0     H84990   1.212   7.359   6.668 -0.7762  1.6224 -0.6724
  644MOL0     H84991   1.366   7.195   6.543  1.2508 -0.6226 -4.4548
  644MOL0     H84992   1.424   6.945   6.087 -0.3761 -3.7139 -0.5383
  644MOL0     H84993   1.593   6.810   5.976 -1.0863  0.5613 -0.6325
  644MOL0     H84994   3.460   6.440   6.481 -0.4318 -0.0954  0.1402
  644MOL0     H84995   3.615   6.265   6.569  0.2423  0.0901 -1.4989
  644MOL0     H84996   3.681   6.059   7.057  0.2841  2.2604 -1.8110
  644MOL0     H84997   3.837   5.891   7.144 -0.6647  1.6257 -0.3706
  644MOL0     H84998   3.950   5.661   7.189 -1.3954  1.0729  0.0198
  644MOL0     H84999   4.027   5.816   7.155  0.2989 -0.6960  3.3269
  644MOL0     H85000   4.175   5.666   7.255 -1.0653 -0.3095  0.4570
  644MOL0     H85001   4.171   5.555   7.122 -0.8502 -0.1895 -1.1556
  644MOL0     H85002   4.230   5.841   7.040  1.2543  0.8015  0.4685
  644MOL0     H85003   4.279   5.682   6.965 -2.4241 -2.1024  1.4955
  644MOL0     H85004   4.471   5.820   7.094 -1.6929  0.1435 -2.3500
  644MOL0     H85005   4.365   5.804   7.236 -0.6745 -1.6315  0.8293
  644MOL0     H85006   4.573   5.432   7.216 -2.2830 -0.1506  3.9938
  644MOL0     H85007   3.926   5.771   6.748  0.9354  0.0315 -0.5303
  644MOL0     H85008   3.743   5.897   6.654  1.2388 -2.4737  0.7656
  645MOL0     O85009   8.277   4.364  10.225  0.0190 -0.2482  0.2368
  645MOL0     C85010   8.375   4.374  10.162  1.0488 -0.1453  0.5009
  645MOL0     O85011   8.408   4.292  10.055  0.7909  0.2355  0.0235
  645MOL0     C85012   8.299   4.229  10.003  0.0978 -0.3693  0.3507
  645MOL0     C85013   8.295   4.085   9.990 -0.3156 -0.4793  0.3348
  645MOL0     C85014   8.186   4.013   9.939 -0.0514 -0.3429  0.6631
  645MOL0     C85015   8.066   4.084   9.916 -0.0038  0.6706  0.0621
  645MOL0     O85016   7.959   4.004   9.885  0.9436 -0.3529  0.4613
  645MOL0     C85017   7.821   4.045   9.874 -0.8622 -0.4257 -0.2011
  645MOL0     C85018   7.719   3.929   9.868  0.3482 -0.1524  0.5126
  645MOL0     C85019   7.579   3.965   9.929 -0.4354  1.3291  0.6644
  645MOL0     C85020   7.473   3.857   9.900  0.9530 -0.1575  0.6423
  645MOL0     C85021   7.428   3.870   9.749  0.3700 -0.4059 -0.2774
  645MOL0     C85022   7.299   3.790   9.713  0.0611 -0.4738  0.2603
  645MOL0     C85023   7.270   3.798   9.564  0.1514 -0.2319  0.9880
  645MOL0     C85024   7.141   3.742   9.525  0.7754 -0.1608 -0.3561
  645MOL0     N85025   7.017   3.800   9.585 -0.0717 -0.1147  0.6762
  645MOL0     C85026   6.976   3.793   9.719  0.1378 -0.1416 -0.8928
  645MOL0     C85027   6.857   3.851   9.720 -0.1927 -0.0206 -0.4109
  645MOL0     C85028   6.776   3.878   9.832 -0.3822  0.1232  0.3254
  645MOL0     C85029   6.632   3.898   9.788  0.8133 -0.3300  0.4589
  645MOL0     C85030   6.543   3.912   9.911 -0.2823 -0.8481  0.6980
  645MOL0     C85031   6.407   3.940   9.855  1.2247  0.2956  0.3058
  645MOL0     O85032   6.300   3.928   9.959  0.2408  0.2118  0.3373
  645MOL0     C85033   6.170   3.964   9.922 -0.4168 -0.0184  0.0131
  645MOL0     C85034   6.130   4.053   9.825 -0.2258  0.0178 -0.4721
  645MOL0     C85035   5.997   4.084   9.799  0.5798  0.0336 -0.3242
  645MOL0     C85036   5.889   4.037   9.887 -0.9688 -0.2680  0.4008
  645MOL0     C85037   5.751   4.083   9.880  1.0992  0.6192  0.2061
  645MOL0     O85038   5.665   4.021   9.965  0.8400 -0.7083 -0.2728
  645MOL0     C85039   5.526   4.030   9.955  0.7095  0.5542 -0.3690
  645MOL0     C85040   5.450   4.141   9.985  0.1562  0.9374 -0.8767
  645MOL0     C85041   5.308   4.146   9.969  0.0889 -0.3266  0.6801
  645MOL0     C85042   5.243   4.033   9.912 -0.0224  0.3724 -0.5278
  645MOL0     O85043   5.113   4.038   9.875 -0.7149 -0.2506  0.3456
  645MOL0     C85044   5.019   4.119   9.945 -0.6244 -0.5087  0.1821
  645MOL0     C85045   4.883   4.059   9.935 -0.2806 -0.4650 -0.8375
  645MOL0     C85046   4.815   4.095   9.797  0.0454 -0.2355  0.4069
  645MOL0     C85047   4.659   4.067   9.792  0.1493  0.6618  0.3218
  645MOL0     C85048   4.630   3.918   9.787  0.1861  0.3013 -0.3146
  645MOL0     C85049   4.482   3.878   9.761 -0.0460 -0.3593  0.7949
  645MOL0     C85050   4.447   3.731   9.788 -0.6711 -0.3332 -0.6353
  645MOL0     C85051   4.298   3.709   9.760  0.8284  0.3290 -1.0221
  645MOL0    Cl85052   4.262   3.543   9.821  0.0942  0.0954 -0.2222
  645MOL0     C85053   5.319   3.921   9.873 -0.3511  0.2787 -0.0381
  645MOL0     C85054   5.457   3.922   9.890  0.0977  0.6931 -0.7076
  645MOL0     O85055   5.715   4.160   9.791  0.1687  0.7400 -0.8217
  645MOL0     C85056   5.935   3.947   9.990 -0.7269  0.7638  0.4718
  645MOL0     C85057   6.066   3.903  10.000 -0.1769  0.1377 -0.5286
  645MOL0     N85058   6.821   3.893   9.588  0.1433  0.4939  0.1283
  645MOL0     N85059   6.914   3.850   9.510 -0.5826  0.9629 -0.1929
  645MOL0     C85060   8.061   4.221   9.931  0.6768  0.1977 -0.0409
  645MOL0     C85061   8.178   4.296   9.971  0.8026  0.7025 -0.0658
  645MOL0     C85062   8.471   4.468  10.205 -0.4292 -0.7203 -0.7301
  645MOL0     C85063   8.464   4.543  10.323 -0.3312 -0.0844 -0.7442
  645MOL0     C85064   8.566   4.632  10.358 -0.7132 -0.7962 -0.0742
  645MOL0     C85065   8.682   4.640  10.282 -0.3042 -0.3267 -0.5201
  645MOL0     O85066   8.776   4.726  10.335 -0.3205 -0.6426 -0.2837
  645MOL0     C85067   8.908   4.723  10.267  0.8957 -0.9159 -0.5806
  645MOL0     C85068   8.908   4.823  10.155  0.7334 -0.4873 -0.9485
  645MOL0     C85069   9.043   4.882  10.115 -1.1899 -0.1559  0.4596
  645MOL0     C85070   9.036   4.992  10.010 -0.6650  0.0837 -0.4302
  645MOL0     C85071   9.164   5.036   9.957 -0.2239 -0.9418 -0.4088
  645MOL0     C85072   9.274   5.065   9.924 -0.4204  0.1988 -0.6436
  645MOL0     C85073   8.688   4.570  10.161 -0.0296  0.9567 -0.2957
  645MOL0     C85074   8.581   4.493  10.118  0.2753  0.4801 -0.7329
  645MOL0     H85075   8.386   4.027  10.001  0.6867  0.7997 -0.7784
  645MOL0     H85076   8.201   3.909   9.912  2.8060 -0.1035  1.0162
  645MOL0     H85077   7.799   4.107   9.787 -0.1993  1.4274  0.8933
  645MOL0     H85078   7.796   4.102   9.964  0.8791  0.8943 -0.4981
  645MOL0     H85079   7.761   3.853   9.935 -0.9143  1.6728  3.5658
  645MOL0     H85080   7.718   3.885   9.768  0.2938  0.4920  0.2242
  645MOL0     H85081   7.545   4.060   9.885 -2.7108  1.9472  3.4455
  645MOL0     H85082   7.588   3.977  10.037 -1.1163  1.1110  0.7440
  645MOL0     H85083   7.519   3.759   9.914 -1.4271 -1.3345  0.6092
  645MOL0     H85084   7.391   3.871   9.971  0.7620  1.4751  0.1409
  645MOL0     H85085   7.499   3.824   9.680 -0.1659  1.3032 -2.0652
  645MOL0     H85086   7.419   3.977   9.725  2.1649 -0.0092  0.6758
  645MOL0     H85087   7.214   3.840   9.760  0.0281 -0.5850  0.3199
  645MOL0     H85088   7.310   3.691   9.758  0.2957  0.6735  2.8837
  645MOL0     H85089   7.284   3.904   9.539 -0.3427 -0.6718 -1.3623
  645MOL0     H85090   7.353   3.751   9.511 -0.1744  1.7395 -1.4507
  645MOL0     H85091   7.147   3.642   9.569  1.2177 -0.0301 -0.1246
  645MOL0     H85092   7.114   3.750   9.419 -4.3257 -0.9234  0.6429
  645MOL0     H85093   7.010   3.735   9.804 -5.6700 -0.6986  1.5254
  645MOL0     H85094   6.810   3.965   9.889 -2.5310  1.0137  0.3565
  645MOL0     H85095   6.781   3.794   9.901 -1.0739 -1.8881 -1.9339
  645MOL0     H85096   6.607   3.804   9.737 -1.5300 -0.3991  1.6473
  645MOL0     H85097   6.614   3.972   9.710 -0.3240  0.0624  1.0856
  645MOL0     H85098   6.540   3.821   9.971 -0.2713 -1.8155 -0.7273
  645MOL0     H85099   6.576   4.001   9.966  0.4799  0.0898 -1.1609
  645MOL0     H85100   6.377   3.872   9.775 -2.8478 -0.3217  2.1099
  645MOL0     H85101   6.406   4.037   9.805  0.6500 -0.3024 -0.8871
  645MOL0     H85102   6.195   4.118   9.767 -2.0562 -0.1609 -2.8997
  645MOL0     H85103   5.961   4.143   9.715  1.0448  0.0551 -0.5088
  645MOL0     H85104   5.493   4.231  10.027 -3.2261  1.6689  1.4299
  645MOL0     H85105   5.256   4.237   9.996  2.1710  0.9987  0.4324
  645MOL0     H85106   5.020   4.221   9.906  2.6467 -1.2190 -2.0212
  645MOL0     H85107   5.055   4.114  10.048  1.3282 -2.6954 -0.5060
  645MOL0     H85108   4.811   4.092  10.010  1.3313 -0.7891  0.9205
  645MOL0     H85109   4.912   3.954   9.946  2.4206 -0.0382 -2.9125
  645MOL0     H85110   4.864   4.043   9.715 -1.0765  0.0814 -0.4824
  645MOL0     H85111   4.832   4.203   9.785  0.1276 -0.4000 -1.1673
  645MOL0     H85112   4.610   4.121   9.873  0.3713  0.7784  0.3790
  645MOL0     H85113   4.618   4.106   9.698  1.9952  1.9926  0.0325
  645MOL0     H85114   4.669   3.868   9.876 -0.2612  0.7698  0.1556
  645MOL0     H85115   4.681   3.877   9.699  3.6260  1.1599  1.1302
  645MOL0     H85116   4.460   3.906   9.658  2.9963  3.2059  0.9152
  645MOL0     H85117   4.420   3.938   9.828  1.0780  0.4716  1.1184
  645MOL0     H85118   4.511   3.662   9.734  0.5002  0.0957  0.1632
  645MOL0     H85119   4.461   3.701   9.892 -0.0259  2.1746  0.0821
  645MOL0     H85120   4.276   3.722   9.654 -2.3604  0.8704 -0.4130
  645MOL0     H85121   4.232   3.783   9.806 -1.2858 -0.5054 -2.5495
  645MOL0     H85122   5.279   3.838   9.816  4.8627 -2.6545 -0.0218
  645MOL0     H85123   5.506   3.835   9.847 -1.1585 -0.5541  0.3019
  645MOL0     H85124   5.856   3.917  10.058 -1.3398  2.8598  0.7609
  645MOL0     H85125   6.095   3.826  10.070 -1.9305 -0.6311 -0.5762
  645MOL0     H85126   7.966   4.272   9.919  1.1284  0.7625 -1.4696
  645MOL0     H85127   8.179   4.403   9.986  0.5956  1.1433 -2.6764
  645MOL0     H85128   8.388   4.518  10.397 -0.1719  1.8946  0.1532
  645MOL0     H85129   8.551   4.689  10.449 -2.7490  0.7222 -1.2903
  645MOL0     H85130   8.932   4.621  10.236  2.7479 -0.9400  0.7353
  645MOL0     H85131   8.987   4.740  10.341 -0.3324  0.0869  0.5423
  645MOL0     H85132   8.874   4.776  10.062  2.8694 -0.3762 -1.8336
  645MOL0     H85133   8.830   4.898  10.167 -0.4779 -1.1035 -3.8623
  645MOL0     H85134   9.092   4.797  10.067  0.3247  0.0125  1.6193
  645MOL0     H85135   9.108   4.917  10.196 -0.1963  0.3315 -0.5136
  645MOL0     H85136   8.987   4.942   9.926  3.7366  0.3961 -3.5820
  645MOL0     H85137   8.984   5.078  10.053  0.9849  0.2091  1.4763
  645MOL0     H85138   9.376   5.086   9.897 -1.0486  0.4815 -3.0254
  645MOL0     H85139   8.780   4.564  10.104 -0.7844 -3.4997 -1.4425
  645MOL0     H85140   8.593   4.450  10.018 -0.9109  1.1837 -1.1996
  646MOL0     O85141   9.032   3.260   9.428  0.2799 -0.0833 -0.0291
  646MOL0     C85142   9.047   3.179   9.340 -0.0701  0.7687 -0.4866
  646MOL0     O85143   8.949   3.109   9.271 -0.0468  0.3364 -0.4792
  646MOL0     C85144   8.815   3.145   9.294 -0.6626  0.5331 -0.1263
  646MOL0     C85145   8.764   3.266   9.352  0.1316 -0.2212  0.8518
  646MOL0     C85146   8.630   3.285   9.374 -0.1283  0.1218 -0.8838
  646MOL0     C85147   8.533   3.189   9.330 -0.4086 -0.0602 -0.5981
  646MOL0     O85148   8.406   3.210   9.365 -0.2480  0.1691 -0.0419
  646MOL0     C85149   8.317   3.144   9.275  0.0392 -0.5890 -0.1617
  646MOL0     C85150   8.187   3.205   9.299  0.4167 -0.1949  0.1054
  646MOL0     C85151   8.106   3.179   9.178 -0.3650  0.7913  0.3889
  646MOL0     C85152   7.953   3.199   9.202 -0.4166  0.5700  0.0361
  646MOL0     C85153   7.874   3.156   9.071 -0.6341 -0.6874 -0.0331
  646MOL0     C85154   7.839   3.009   9.092  0.6691  0.2975  0.1860
  646MOL0     C85155   7.783   2.948   8.962 -1.0539 -0.6932  0.7604
  646MOL0     C85156   7.799   2.800   8.953  0.1528 -1.2052 -0.5977
  646MOL0     N85157   7.722   2.742   8.847  0.8066 -0.3940  0.5554
  646MOL0     C85158   7.600   2.675   8.861 -0.0954 -0.3540  0.0488
  646MOL0     C85159   7.552   2.663   8.739 -0.6113  0.1345  0.6429
  646MOL0     C85160   7.425   2.605   8.694 -0.3757 -0.0429  0.1315
  646MOL0     C85161   7.399   2.452   8.721 -0.1790 -0.1512  0.6980
  646MOL0     C85162   7.257   2.404   8.757 -0.9793 -0.7357  1.2759
  646MOL0     C85163   7.152   2.450   8.653  0.6494  0.1883  0.5797
  646MOL0     O85164   7.069   2.338   8.625  0.4242  0.7825  0.6018
  646MOL0     C85165   6.953   2.319   8.698  0.9401 -0.3664  0.3591
  646MOL0     C85166   6.913   2.386   8.817  0.2088  0.3603  0.1569
  646MOL0     C85167   6.790   2.353   8.879 -0.6220 -0.0708 -0.6103
  646MOL0     C85168   6.696   2.271   8.815  1.4915  0.3089  0.6982
  646MOL0     C85169   6.566   2.248   8.885 -0.5721  0.6198  0.4390
  646MOL0     O85170   6.529   2.313   9.006  0.3600  0.4345 -0.2705
  646MOL0     C85171   6.429   2.266   9.086 -0.2730 -0.5262  0.2092
  646MOL0     C85172   6.425   2.130   9.110 -0.3212 -0.5349  0.0544
  646MOL0     C85173   6.328   2.082   9.193 -0.2442 -0.3583  0.0766
  646MOL0     C85174   6.235   2.165   9.266 -0.4774 -0.8199  0.4640
  646MOL0     O85175   6.141   2.110   9.349  0.1208 -0.4164  0.0810
  646MOL0     C85176   6.124   2.188   9.474 -0.6182 -0.0973  0.4612
  646MOL0     C85177   6.033   2.132   9.578 -0.6289  0.0704 -0.3649
  646MOL0     C85178   6.070   1.980   9.609  0.0025  0.4496  0.0759
  646MOL0     C85179   5.991   1.907   9.731 -0.3030 -0.0888 -0.0988
  646MOL0     C85180   6.030   1.761   9.734  0.3635 -0.6916 -0.6749
  646MOL0     C85181   5.944   1.681   9.837  0.0381 -0.0587  0.1988
  646MOL0     C85182   5.802   1.644   9.780 -0.3313  0.4279  0.9867
  646MOL0     C85183   5.713   1.583   9.884 -0.7169 -0.2670 -0.2388
  646MOL0    Cl85184   5.815   1.475   9.988  0.6452  0.4417 -0.2613
  646MOL0     C85185   6.247   2.309   9.230  0.9147  0.7720  0.5321
  646MOL0     C85186   6.340   2.353   9.145  0.3051  0.4922  0.3936
  646MOL0     O85187   6.493   2.173   8.825  0.6068  0.0282 -0.2248
  646MOL0     C85188   6.737   2.211   8.696  0.0244 -0.7008 -0.0039
  646MOL0     C85189   6.867   2.221   8.648  0.4073  0.2816  0.6441
  646MOL0     N85190   7.631   2.725   8.646  0.1100 -0.7190 -0.1021
  646MOL0     N85191   7.730   2.771   8.720 -0.0303  0.3297 -0.2515
  646MOL0     C85192   8.576   3.076   9.269 -0.5861 -0.0292  0.1526
  646MOL0     C85193   8.717   3.053   9.249  0.0539  0.1485 -0.9536
  646MOL0     C85194   9.187   3.163   9.298  0.0823  0.2285 -0.6227
  646MOL0     C85195   9.293   3.236   9.353  0.5824  0.2610 -0.4391
  646MOL0     C85196   9.416   3.236   9.293 -0.0845 -0.2010  0.0713
  646MOL0     C85197   9.448   3.149   9.188 -0.0845  0.1813 -0.7247
  646MOL0     O85198   9.570   3.164   9.122  0.9410 -0.0745 -0.2451
  646MOL0     C85199   9.637   3.059   9.055 -0.9333  0.5154  0.5914
  646MOL0     C85200   9.778   3.089   9.023 -0.6366  1.1928 -0.0220
  646MOL0     C85201   9.859   2.981   8.940 -0.1866 -0.6510 -0.2938
  646MOL0     C85202   9.998   3.030   8.898  0.3992  0.5901  0.5222
  646MOL0     C85203  10.046   2.957   8.775 -0.9775  0.7708  0.5915
  646MOL0     C85204  10.072   2.878   8.687 -0.2525 -0.3946  0.3385
  646MOL0     C85205   9.341   3.070   9.137 -0.3979 -0.6891  1.1107
  646MOL0     C85206   9.212   3.082   9.191 -1.3829 -0.1116 -0.7901
  646MOL0     H85207   8.822   3.354   9.375 -0.5692 -0.1572  2.5518
  646MOL0     H85208   8.593   3.372   9.427  1.9482  0.0494  0.8311
  646MOL0     H85209   8.323   3.035   9.285  0.3465 -0.4894  0.8202
  646MOL0     H85210   8.351   3.163   9.173  3.1851 -0.7795  0.7471
  646MOL0     H85211   8.185   3.312   9.324 -2.1158 -0.6309  2.1723
  646MOL0     H85212   8.143   3.159   9.388 -0.8873 -1.3442 -1.0982
  646MOL0     H85213   8.132   3.076   9.151  3.1335  0.7871  3.1929
  646MOL0     H85214   8.135   3.247   9.097  1.0667  1.9034  1.7824
  646MOL0     H85215   7.925   3.139   9.289 -1.3618 -0.5919 -1.0257
  646MOL0     H85216   7.931   3.305   9.218  0.0873  0.2692  3.7317
  646MOL0     H85217   7.943   3.171   8.986  2.9715 -2.6578  2.2949
  646MOL0     H85218   7.783   3.210   9.046  1.0959  1.9941 -1.0036
  646MOL0     H85219   7.762   3.006   9.169  0.4285  3.1354  0.1465
  646MOL0     H85220   7.927   2.946   9.112  0.3347 -1.2458 -2.5591
  646MOL0     H85221   7.677   2.974   8.952 -1.1114 -1.6147 -1.5365
  646MOL0     H85222   7.839   2.995   8.882  0.3359 -1.3499  1.3113
  646MOL0     H85223   7.765   2.769   9.052 -1.9771  4.2977  0.8011
  646MOL0     H85224   7.904   2.780   8.928 -0.1858 -1.1399 -2.1594
  646MOL0     H85225   7.560   2.651   8.959 -1.3697  0.5738 -0.2263
  646MOL0     H85226   7.415   2.632   8.589 -0.1859  4.2733  1.0348
  646MOL0     H85227   7.337   2.650   8.740 -1.2221 -0.8845 -0.6182
  646MOL0     H85228   7.462   2.416   8.803  0.2328  0.6014  0.7262
  646MOL0     H85229   7.425   2.402   8.627  0.3759 -0.0784  0.8117
  646MOL0     H85230   7.248   2.295   8.758 -2.4052 -0.7013 -0.7824
  646MOL0     H85231   7.232   2.442   8.856  0.5426 -0.3038  1.5205
  646MOL0     H85232   7.206   2.485   8.565 -0.7718 -3.6219 -2.0366
  646MOL0     H85233   7.093   2.537   8.685  0.2217  0.6839 -1.4040
  646MOL0     H85234   6.974   2.462   8.864  0.9058 -0.9566  1.4816
  646MOL0     H85235   6.766   2.403   8.973  1.4938 -0.6957  0.3156
  646MOL0     H85236   6.495   2.060   9.066  1.5065  2.7254 -2.7770
  646MOL0     H85237   6.329   1.974   9.205 -0.9321 -0.3463  0.3010
  646MOL0     H85238   6.086   2.287   9.447 -0.0131 -0.0548 -0.2743
  646MOL0     H85239   6.224   2.197   9.518  0.5451  3.1413 -2.3706
  646MOL0     H85240   5.930   2.145   9.544 -1.4526 -0.8087  1.6166
  646MOL0     H85241   6.047   2.201   9.662 -0.5023  0.6253 -0.8371
  646MOL0     H85242   6.176   1.970   9.635 -0.0987 -0.2218  0.2407
  646MOL0     H85243   6.067   1.938   9.508  0.9179 -0.8657  0.5613
  646MOL0     H85244   6.000   1.954   9.829 -0.1021  1.6009 -0.8920
  646MOL0     H85245   5.885   1.920   9.709  0.1752  3.5257 -1.0412
  646MOL0     H85246   6.134   1.758   9.767  0.3174  0.3951 -0.4044
  646MOL0     H85247   6.027   1.715   9.634 -0.4105 -2.8608  0.2675
  646MOL0     H85248   5.948   1.739   9.929  2.2264  2.2218 -1.2025
  646MOL0     H85249   6.004   1.590   9.841 -1.3035 -1.0763 -1.3868
  646MOL0     H85250   5.766   1.738   9.737  0.6655  0.5466  0.3998
  646MOL0     H85251   5.825   1.582   9.694  0.4894  2.7839 -0.5842
  646MOL0     H85252   5.620   1.535   9.850 -0.9961 -1.1286  1.6050
  646MOL0     H85253   5.684   1.668   9.946  1.2350  1.6289 -1.7716
  646MOL0     H85254   6.166   2.367   9.272 -0.5892 -0.2001 -0.9394
  646MOL0     H85255   6.349   2.461   9.143  2.2317  0.4022  1.5511
  646MOL0     H85256   6.671   2.140   8.647  0.1817 -0.4792 -0.5420
  646MOL0     H85257   6.882   2.166   8.556  0.8823 -0.2581  1.0400
  646MOL0     H85258   8.509   2.995   9.242  0.5358 -1.5311  1.6550
  646MOL0     H85259   8.765   2.977   9.188  2.2035  1.0443 -0.4626
  646MOL0     H85260   9.264   3.312   9.426  0.2253  0.1955 -0.5091
  646MOL0     H85261   9.483   3.313   9.330  0.0638  0.5235 -1.6386
  646MOL0     H85262   9.585   3.036   8.961  0.5631 -0.3833 -0.0510
  646MOL0     H85263   9.618   2.975   9.122  0.6026  1.0564  1.7491
  646MOL0     H85264   9.766   3.173   8.954  0.6235  0.6470 -0.9527
  646MOL0     H85265   9.829   3.118   9.115  2.9053  0.8960 -1.7315
  646MOL0     H85266   9.797   2.958   8.853 -2.0826 -0.3241  0.9255
  646MOL0     H85267   9.872   2.887   8.994  1.7688  0.4981  1.3844
  646MOL0     H85268   9.992   3.137   8.877  1.1884  0.0947 -2.9301
  646MOL0     H85269  10.063   3.016   8.985 -2.5104  0.8582  2.8778
  646MOL0     H85270  10.105   2.820   8.603  3.6810 -0.8720  2.0198
  646MOL0     H85271   9.352   2.999   9.056  1.7147  0.2769  0.4858
  646MOL0     H85272   9.135   3.024   9.142 -0.5137 -1.5732 -0.4764
  647MOL0     O85273   0.954   1.254   4.265  0.1914 -0.4057 -0.0607
  647MOL0     C85274   0.975   1.138   4.232  0.7469  0.3861  0.4076
  647MOL0     O85275   0.880   1.040   4.201 -0.1701 -0.7024  0.6273
  647MOL0     C85276   0.745   1.049   4.214  0.6599 -0.3666 -0.2140
  647MOL0     C85277   0.668   0.935   4.238 -0.2707  0.9855  0.5347
  647MOL0     C85278   0.530   0.934   4.216 -0.5515  0.3920  0.9986
  647MOL0     C85279   0.458   1.046   4.173  0.3783 -0.2190  0.2720
  647MOL0     O85280   0.321   1.048   4.139  0.7645 -0.4727  0.0009
  647MOL0     C85281   0.238   0.926   4.153 -0.5542 -1.0655  0.0962
  647MOL0     C85282   0.202   0.911   4.307  0.1120  0.7332  0.0429
  647MOL0     C85283   0.067   0.976   4.353  0.7973 -0.4119  0.5313
  647MOL0     C85284   0.007   0.918   4.479  0.6970  0.4602  0.3417
  647MOL0     C85285  -0.091   1.013   4.547  0.2644  0.4499 -0.6356
  647MOL0     C85286  -0.203   1.052   4.459  0.3400  0.0424  1.0828
  647MOL0     C85287  -0.310   1.150   4.526 -0.1805 -0.3458  0.6461
  647MOL0     C85288  -0.386   1.080   4.636  0.3926  0.8845 -0.1899
  647MOL0     N85289  -0.460   1.184   4.711  0.1776 -0.3226  0.2609
  647MOL0     C85290  -0.598   1.196   4.723  0.5521 -0.4323  0.4463
  647MOL0     C85291  -0.621   1.267   4.832  0.3383 -0.5147 -0.5149
  647MOL0     C85292  -0.758   1.301   4.894 -0.6268 -1.0515 -0.4001
  647MOL0     C85293  -0.756   1.436   4.964  0.1723  0.0990 -0.4811
  647MOL0     C85294  -0.891   1.475   5.021  0.3243 -0.8196 -0.1125
  647MOL0     C85295  -0.953   1.380   5.126 -0.0031 -0.0991  0.1151
  647MOL0     O85296  -1.061   1.435   5.193  0.1499  0.1761 -0.4443
  647MOL0     C85297  -1.161   1.347   5.234  0.7884 -1.5563 -0.0833
  647MOL0     C85298  -1.144   1.215   5.279  0.2635 -0.0238 -1.1205
  647MOL0     C85299  -1.263   1.141   5.299  0.1061  0.1120  0.4360
  647MOL0     C85300  -1.389   1.208   5.284  0.2380  0.1253 -0.0693
  647MOL0     C85301  -1.514   1.129   5.301  1.4594  0.4119  0.4012
  647MOL0     O85302  -1.515   1.010   5.365  0.0277  0.3008 -0.2261
  647MOL0     C85303  -1.645   0.953   5.370  0.4120 -0.6022  0.2014
  647MOL0     C85304  -1.670   0.838   5.310  0.3146 -0.9908  0.7853
  647MOL0     C85305  -1.797   0.775   5.313 -0.2298 -0.1865 -0.3157
  647MOL0     C85306  -1.906   0.822   5.384 -0.4720 -1.5660  0.1946
  647MOL0     O85307  -2.033   0.773   5.380  0.3386  0.7037 -0.7356
  647MOL0     C85308  -2.049   0.631   5.370  0.1592 -0.0011 -0.4430
  647MOL0     C85309  -2.197   0.586   5.389  0.2968  0.4392 -0.2864
  647MOL0     C85310  -2.259   0.619   5.531  0.1150  0.4645  0.6125
  647MOL0     C85311  -2.406   0.601   5.537 -0.3626 -0.3330 -0.1145
  647MOL0     C85312  -2.441   0.454   5.504  0.7155  0.4572  0.3286
  647MOL0     C85313  -2.590   0.425   5.518  0.8134  0.6567 -0.2138
  647MOL0     C85314  -2.626   0.287   5.459 -0.1908 -0.2133  1.0698
  647MOL0     C85315  -2.775   0.261   5.469 -0.3399  1.0876 -0.2480
  647MOL0    Cl85316  -2.837   0.117   5.378 -0.5430 -0.3404  0.3181
  647MOL0     C85317  -1.884   0.946   5.439 -0.8684  0.9273 -0.4265
  647MOL0     C85318  -1.752   1.000   5.442 -1.0568 -0.9186 -0.3887
  647MOL0     O85319  -1.608   1.171   5.236  0.2679 -0.6909 -0.2071
  647MOL0     C85320  -1.393   1.333   5.241 -0.5809  0.0596  0.8046
  647MOL0     C85321  -1.282   1.414   5.222 -0.1935  0.4844  0.2924
  647MOL0     N85322  -0.496   1.302   4.882  0.0377  0.3020 -0.5028
  647MOL0     N85323  -0.408   1.251   4.809 -1.0968  0.5154 -0.0230
  647MOL0     C85324   0.537   1.163   4.149 -0.4826 -0.3529 -0.2121
  647MOL0     C85325   0.677   1.160   4.167 -0.0089  0.1747 -0.3534
  647MOL0     C85326   1.115   1.084   4.271  0.7990  0.1559  0.3025
  647MOL0     C85327   1.163   0.971   4.211 -0.4632  0.7508 -1.1907
  647MOL0     C85328   1.296   0.930   4.243 -0.9928  0.1910  0.2224
  647MOL0     C85329   1.376   0.990   4.344 -0.7266  0.6819  0.1370
  647MOL0     O85330   1.500   0.943   4.354 -0.1470  1.4432 -0.4116
  647MOL0     C85331   1.581   0.971   4.465  0.0209 -0.1724  0.0161
  647MOL0     C85332   1.522   0.932   4.598  0.2391 -0.1089 -0.0836
  647MOL0     C85333   1.613   0.964   4.717  0.7689  0.0014 -0.2707
  647MOL0     C85334   1.635   0.853   4.812  0.1983  0.2767  0.6924
  647MOL0     C85335   1.692   0.727   4.760  0.2781 -0.2355  0.1659
  647MOL0     C85336   1.761   0.624   4.740  0.3730  0.2004  0.1507
  647MOL0     C85337   1.317   1.101   4.403 -0.3967 -0.2629  0.3572
  647MOL0     C85338   1.196   1.146   4.370  0.5847 -0.7893 -0.4563
  647MOL0     H85339   0.706   0.841   4.274 -4.3044 -1.3687 -0.7549
  647MOL0     H85340   0.475   0.847   4.250  0.7456 -0.9843 -0.2620
  647MOL0     H85341   0.291   0.838   4.116  0.1581  0.0892 -1.7496
  647MOL0     H85342   0.144   0.939   4.099 -0.0031  0.7678 -0.4987
  647MOL0     H85343   0.279   0.954   4.371 -0.2736  2.8617 -0.8257
  647MOL0     H85344   0.189   0.805   4.329 -2.8358  0.5440 -1.9616
  647MOL0     H85345  -0.005   0.955   4.273  2.5741  1.6900 -1.7801
  647MOL0     H85346   0.077   1.084   4.361 -2.2019  0.3339 -3.0170
  647MOL0     H85347  -0.053   0.829   4.460 -0.5955  1.6346 -1.4189
  647MOL0     H85348   0.089   0.893   4.547  0.7722 -0.8850 -0.2081
  647MOL0     H85349  -0.039   1.102   4.582  3.1423 -1.0709 -0.7348
  647MOL0     H85350  -0.134   0.962   4.634  0.4687  1.8188  0.3037
  647MOL0     H85351  -0.258   0.961   4.432 -0.0223  0.9878 -1.6376
  647MOL0     H85352  -0.170   1.104   4.368  0.9671  0.5738  1.6080
  647MOL0     H85353  -0.261   1.231   4.580  0.7974 -2.3180  2.9308
  647MOL0     H85354  -0.381   1.189   4.453 -3.1726  1.0401  3.9980
  647MOL0     H85355  -0.323   1.027   4.708 -0.4662 -1.0211 -0.7957
  647MOL0     H85356  -0.455   1.004   4.599 -3.6930  4.0426  0.1758
  647MOL0     H85357  -0.674   1.147   4.663  0.9376  0.8380 -1.1627
  647MOL0     H85358  -0.776   1.220   4.965  0.4120 -0.6713  0.3228
  647MOL0     H85359  -0.832   1.311   4.814  0.0120  1.7430 -0.7357
  647MOL0     H85360  -0.707   1.502   4.891  0.1646 -1.0385 -1.5451
  647MOL0     H85361  -0.687   1.428   5.049 -2.5150 -2.1044  1.6899
  647MOL0     H85362  -0.877   1.578   5.056  1.3101 -0.9660 -0.0433
  647MOL0     H85363  -0.965   1.486   4.942  1.1565  1.4794 -0.6626
  647MOL0     H85364  -0.876   1.356   5.200 -0.1168  0.7876  0.5339
  647MOL0     H85365  -0.973   1.282   5.083  1.5278  0.0761 -1.1201
  647MOL0     H85366  -1.052   1.160   5.294 -0.4980 -1.5912 -1.9773
  647MOL0     H85367  -1.250   1.044   5.348  1.7003  0.0733  0.0054
  647MOL0     H85368  -1.590   0.795   5.250  0.8423 -0.3106  0.9849
  647MOL0     H85369  -1.813   0.692   5.244  1.9357  0.0602 -1.1834
  647MOL0     H85370  -1.999   0.587   5.457  0.3623 -1.1483 -1.1311
  647MOL0     H85371  -2.004   0.588   5.281  1.6445 -0.9042  0.6904
  647MOL0     H85372  -2.208   0.478   5.381 -0.4669  0.1663  2.9667
  647MOL0     H85373  -2.243   0.638   5.304 -0.3926 -0.4824 -0.4896
  647MOL0     H85374  -2.229   0.724   5.543  0.4356  0.3172  1.1283
  647MOL0     H85375  -2.203   0.570   5.612 -0.8169 -1.8033 -0.0544
  647MOL0     H85376  -2.433   0.631   5.639 -0.3441 -0.6703 -0.0059
  647MOL0     H85377  -2.450   0.675   5.471  0.3127  0.8244  0.6961
  647MOL0     H85378  -2.392   0.385   5.574 -0.8613  0.5749  1.6093
  647MOL0     H85379  -2.410   0.421   5.405 -2.3925 -0.9784 -0.2626
  647MOL0     H85380  -2.644   0.503   5.463  0.9559  0.0006 -1.2991
  647MOL0     H85381  -2.624   0.435   5.622 -0.1076 -1.3703 -0.2833
  647MOL0     H85382  -2.610   0.279   5.351 -0.8232 -0.4919  0.9971
  647MOL0     H85383  -2.573   0.206   5.509  0.4324 -1.9159 -2.0677
  647MOL0     H85384  -2.826   0.343   5.418 -0.5365  0.7663 -0.5716
  647MOL0     H85385  -2.812   0.256   5.572 -1.7091 -0.7869 -0.7726
  647MOL0     H85386  -1.960   1.003   5.491 -0.0900  4.0536 -2.4586
  647MOL0     H85387  -1.736   1.097   5.489  1.3527 -2.4018  2.1607
  647MOL0     H85388  -1.489   1.384   5.231 -0.4374  1.0400  3.5463
  647MOL0     H85389  -1.305   1.516   5.193 -2.8757 -0.0304  0.4098
  647MOL0     H85390   0.516   1.254   4.093  0.7473  0.9726  1.3761
  647MOL0     H85391   0.729   1.249   4.133 -0.3377  0.7293  0.5456
  647MOL0     H85392   1.110   0.909   4.140  0.8608  1.5477 -2.9320
  647MOL0     H85393   1.327   0.844   4.184 -0.0938  1.1505 -0.7366
  647MOL0     H85394   1.609   1.077   4.457 -0.6159 -0.0709 -1.2292
  647MOL0     H85395   1.677   0.920   4.452  0.6907  0.6352  1.5550
  647MOL0     H85396   1.423   0.971   4.620 -0.2628 -0.5573 -1.4303
  647MOL0     H85397   1.499   0.826   4.587 -1.3503  0.3637 -1.8907
  647MOL0     H85398   1.561   1.041   4.775 -0.5856 -1.1756  0.1567
  647MOL0     H85399   1.700   1.022   4.687  0.1518  0.5817 -0.9866
  647MOL0     H85400   1.698   0.887   4.895  0.8901  2.6289 -0.7039
  647MOL0     H85401   1.541   0.838   4.865  0.4071  2.0072  1.6509
  647MOL0     H85402   1.799   0.525   4.725 -1.5558 -0.4511 -0.7102
  647MOL0     H85403   1.366   1.153   4.485  0.4537 -0.0108 -0.3073
  647MOL0     H85404   1.166   1.241   4.413  1.0780  0.1509 -2.1078
  648MOL0     O85405   7.436   2.919   6.073  0.4371 -0.0228  0.2125
  648MOL0     C85406   7.453   2.902   6.192 -0.3052 -0.1645  0.4065
  648MOL0     O85407   7.362   2.901   6.286 -0.1530 -0.7383 -0.5421
  648MOL0     C85408   7.232   2.889   6.246 -0.1230 -0.6097  0.4265
  648MOL0     C85409   7.182   2.787   6.157 -0.0608  0.0285 -0.3487
  648MOL0     C85410   7.049   2.781   6.119 -0.1385  0.5393 -0.2723
  648MOL0     C85411   6.958   2.874   6.184  0.3914  0.2080 -0.4392
  648MOL0     O85412   6.834   2.868   6.133  0.1640  0.2157  0.7522
  648MOL0     C85413   6.744   2.971   6.175  0.3688 -0.0404 -0.4198
  648MOL0     C85414   6.624   2.954   6.084  0.4304 -0.4987 -0.3579
  648MOL0     C85415   6.505   3.010   6.169 -1.1274  0.9620  1.0096
  648MOL0     C85416   6.369   2.986   6.114 -0.1814  0.1930 -0.2086
  648MOL0     C85417   6.244   2.995   6.204  0.5048 -0.3827 -0.0918
  648MOL0     C85418   6.123   2.957   6.118 -0.1003  0.0001 -0.4237
  648MOL0     C85419   6.001   2.966   6.199 -0.3905 -0.5838  0.2544
  648MOL0     C85420   5.892   2.898   6.124  0.4868  0.0475 -0.4293
  648MOL0     N85421   5.763   2.927   6.177  0.3593  0.3271 -1.0530
  648MOL0     C85422   5.723   2.884   6.301 -0.2144 -0.4823  0.2791
  648MOL0     C85423   5.588   2.900   6.302  0.2201  0.0083  1.0673
  648MOL0     C85424   5.510   2.844   6.415 -0.0483 -0.0166 -0.5984
  648MOL0     C85425   5.367   2.844   6.372  0.5813  0.2603  0.2814
  648MOL0     C85426   5.298   2.766   6.474  0.3967 -0.0489  0.1389
  648MOL0     C85427   5.143   2.752   6.455  0.1762  0.3694 -0.5420
  648MOL0     O85428   5.102   2.662   6.566  0.2332  0.3749 -0.1048
  648MOL0     C85429   4.972   2.614   6.567 -0.5434 -0.2112 -0.2688
  648MOL0     C85430   4.920   2.594   6.695 -1.0209  0.3771  0.0136
  648MOL0     C85431   4.794   2.545   6.710  1.0279 -0.1406 -0.2679
  648MOL0     C85432   4.716   2.517   6.599 -0.2251 -0.7353  0.5661
  648MOL0     C85433   4.586   2.454   6.616  0.7883  0.3920  0.1385
  648MOL0     O85434   4.541   2.460   6.739 -1.0691  0.4716  0.1948
  648MOL0     C85435   4.416   2.421   6.769  0.3410 -0.6581 -1.0316
  648MOL0     C85436   4.315   2.503   6.732 -0.9795  0.4058  0.4805
  648MOL0     C85437   4.191   2.474   6.781  0.3026  0.5105 -0.2744
  648MOL0     C85438   4.166   2.361   6.863  0.1164  0.3463  0.5015
  648MOL0     O85439   4.043   2.347   6.921 -0.9139 -0.5466 -0.2167
  648MOL0     C85440   4.004   2.220   6.973  0.2239  0.4311  0.7058
  648MOL0     C85441   3.847   2.209   6.962 -0.3256 -0.4024 -0.2207
  648MOL0     C85442   3.806   2.198   6.818 -0.4706  0.0698 -0.1393
  648MOL0     C85443   3.675   2.137   6.813  0.7511 -0.0173 -0.1422
  648MOL0     C85444   3.620   2.129   6.667 -0.4049 -0.1204 -0.9558
  648MOL0     C85445   3.495   2.049   6.653 -0.1200 -0.6143 -0.4175
  648MOL0     C85446   3.429   2.065   6.525 -0.3765  0.5718  0.4089
  648MOL0     C85447   3.297   1.994   6.506 -0.0347 -0.0421  1.1361
  648MOL0    Cl85448   3.168   2.095   6.581 -0.2640 -0.2968 -0.1215
  648MOL0     C85449   4.274   2.279   6.906  0.5063  0.3041 -0.3806
  648MOL0     C85450   4.397   2.313   6.857  0.5881 -0.1537  0.2287
  648MOL0     O85451   4.522   2.404   6.520 -1.1863 -0.0587 -0.1957
  648MOL0     C85452   4.771   2.542   6.469  1.0037  0.3018  0.3075
  648MOL0     C85453   4.899   2.602   6.451 -1.0831  0.6320  0.1834
  648MOL0     N85454   5.548   2.948   6.174 -0.0358  0.9954 -0.2399
  648MOL0     N85455   5.653   2.964   6.104  0.2546  0.8058 -0.0150
  648MOL0     C85456   7.004   2.971   6.276  0.1531 -0.4185  0.1721
  648MOL0     C85457   7.143   2.980   6.299 -0.2857  0.4808  0.4507
  648MOL0     C85458   7.593   2.912   6.232  0.6866 -0.3287 -0.9100
  648MOL0     C85459   7.701   2.917   6.142  0.4556  0.5251  0.6018
  648MOL0     C85460   7.827   2.916   6.193 -0.6028  0.2647  0.1782
  648MOL0     C85461   7.856   2.919   6.335 -0.0868  0.7274  1.0284
  648MOL0     O85462   7.984   2.930   6.385  0.0161  0.3466  0.2596
  648MOL0     C85463   8.093   2.943   6.289  0.0974  0.3625  0.5126
  648MOL0     C85464   8.234   2.925   6.354 -0.4554  1.0912 -0.2269
  648MOL0     C85465   8.332   2.914   6.231 -0.4602  0.7833 -0.9108
  648MOL0     C85466   8.467   2.963   6.272 -0.2000 -1.0468 -0.5948
  648MOL0     C85467   8.538   2.876   6.371 -0.4541  0.5724  0.2901
  648MOL0     C85468   8.578   2.777   6.432  1.2634  0.3438 -0.3366
  648MOL0     C85469   7.748   2.891   6.416 -0.7961 -0.8953 -0.8606
  648MOL0     C85470   7.616   2.888   6.375 -0.4901 -0.1186 -0.1207
  648MOL0     H85471   7.234   2.700   6.118 -1.7428 -1.4541  0.5866
  648MOL0     H85472   7.032   2.698   6.052  0.1500  0.2885 -0.0413
  648MOL0     H85473   6.781   3.074   6.177  0.4025 -0.0286 -1.2431
  648MOL0     H85474   6.719   2.948   6.279 -0.3401  0.6925 -0.4240
  648MOL0     H85475   6.607   2.850   6.054 -0.3339 -0.8029  1.0545
  648MOL0     H85476   6.625   3.016   5.994  1.6678 -0.8071 -0.5786
  648MOL0     H85477   6.515   3.117   6.189 -0.6915  1.3588 -1.1077
  648MOL0     H85478   6.509   2.968   6.270 -0.1338 -0.5009  0.3958
  648MOL0     H85479   6.347   3.055   6.032  0.6948 -0.7110 -1.2448
  648MOL0     H85480   6.368   2.886   6.070 -0.2056 -0.1269  0.5072
  648MOL0     H85481   6.226   3.092   6.251  1.4954 -1.3981  2.5319
  648MOL0     H85482   6.265   2.926   6.285  1.7354 -0.8593 -0.7879
  648MOL0     H85483   6.147   2.863   6.069  2.0478  1.6722 -2.8041
  648MOL0     H85484   6.110   3.029   6.036 -0.8711  3.5835  2.5457
  648MOL0     H85485   6.020   2.919   6.295  2.6343  1.3303  0.7191
  648MOL0     H85486   5.982   3.067   6.236 -3.3813 -1.4742  1.3710
  648MOL0     H85487   5.914   2.791   6.132 -0.5638 -0.1856 -0.5032
  648MOL0     H85488   5.899   2.932   6.021  0.2936  2.1092  0.1969
  648MOL0     H85489   5.781   2.862   6.390 -1.2352 -2.4179  0.5313
  648MOL0     H85490   5.526   2.907   6.503  3.5962  0.0217 -1.1280
  648MOL0     H85491   5.534   2.738   6.426  1.0779 -0.1445 -3.4973
  648MOL0     H85492   5.345   2.788   6.281 -1.0200 -1.1274  1.4529
  648MOL0     H85493   5.328   2.945   6.358 -0.4607  0.1794  2.1967
  648MOL0     H85494   5.341   2.666   6.471  0.1201 -0.2319  1.7239
  648MOL0     H85495   5.309   2.815   6.571 -1.1010  0.1101  0.2538
  648MOL0     H85496   5.117   2.712   6.357  0.0507  2.7590 -1.5472
  648MOL0     H85497   5.088   2.846   6.463 -0.7685 -0.2994  1.7187
  648MOL0     H85498   4.983   2.608   6.782  0.6633 -0.5948 -0.9808
  648MOL0     H85499   4.752   2.539   6.810 -1.4943 -1.3190 -1.3052
  648MOL0     H85500   4.336   2.595   6.678  0.6794  1.0118  2.0567
  648MOL0     H85501   4.102   2.525   6.746 -0.7241 -0.7400  0.4410
  648MOL0     H85502   4.032   2.202   7.077 -0.0407 -1.5974  0.4647
  648MOL0     H85503   4.036   2.134   6.913 -3.7249  0.6551 -2.0872
  648MOL0     H85504   3.797   2.288   7.018  0.9890 -0.0838  0.5322
  648MOL0     H85505   3.810   2.113   7.001  0.3624 -0.8798 -0.7165
  648MOL0     H85506   3.877   2.145   6.753 -1.3600  1.2474 -2.1545
  648MOL0     H85507   3.794   2.301   6.784 -2.0807  0.0339  0.2282
  648MOL0     H85508   3.699   2.037   6.849 -2.4338 -0.8902 -0.1518
  648MOL0     H85509   3.603   2.187   6.879  1.7857 -0.1773  1.1269
  648MOL0     H85510   3.697   2.089   6.601 -1.0842  2.3185 -3.3873
  648MOL0     H85511   3.591   2.232   6.642 -1.2105  0.4739  1.9574
  648MOL0     H85512   3.425   2.096   6.723  2.1122  1.1763  0.7369
  648MOL0     H85513   3.516   1.945   6.680  1.0079 -0.0379  1.0445
  648MOL0     H85514   3.413   2.172   6.507  0.9243  1.1497  2.3878
  648MOL0     H85515   3.499   2.030   6.449 -1.5845  2.7378 -1.8331
  648MOL0     H85516   3.309   1.896   6.554  1.0969 -1.0929 -1.1454
  648MOL0     H85517   3.273   1.983   6.400 -0.7103 -2.8812  1.5123
  648MOL0     H85518   4.262   2.203   6.983  2.9585  1.2809  1.0754
  648MOL0     H85519   4.490   2.262   6.880  0.9775  0.9935  1.3375
  648MOL0     H85520   4.704   2.539   6.384  1.5916  1.8069 -0.2590
  648MOL0     H85521   4.927   2.627   6.349  2.0558  1.6824  1.1971
  648MOL0     H85522   6.935   3.044   6.319  0.6341  0.4235 -0.4512
  648MOL0     H85523   7.174   3.048   6.378 -1.2525  2.2340 -0.6134
  648MOL0     H85524   7.687   2.915   6.034  0.2175 -1.9857  0.6087
  648MOL0     H85525   7.904   2.913   6.117 -0.7461 -0.5305  0.0512
  648MOL0     H85526   8.079   3.037   6.235 -2.2584 -0.5951 -0.7089
  648MOL0     H85527   8.078   2.855   6.226 -6.4906 -0.4512  2.4968
  648MOL0     H85528   8.268   2.999   6.428  2.4932 -1.4755  1.2697
  648MOL0     H85529   8.226   2.827   6.403 -0.2358  2.0933  1.9484
  648MOL0     H85530   8.300   2.997   6.167 -1.2320 -1.3293 -3.3934
  648MOL0     H85531   8.335   2.817   6.182  0.2662  1.8243 -3.0671
  648MOL0     H85532   8.540   2.961   6.191  0.2933 -4.8477 -0.2620
  648MOL0     H85533   8.447   3.063   6.313  0.2276 -1.5025  0.7925
  648MOL0     H85534   8.629   2.688   6.464  0.0300 -1.8516 -3.8736
  648MOL0     H85535   7.777   2.873   6.519 -2.0849 -0.8349 -0.4713
  648MOL0     H85536   7.532   2.881   6.444 -0.3852  0.2372  0.0453
  649MOL0     O85537   3.241  10.863   4.226 -0.1744 -0.5562 -0.5369
  649MOL0     C85538   3.259  10.788   4.131 -0.3298  0.1032 -0.4422
  649MOL0     O85539   3.165  10.706   4.069 -0.5735 -0.2083 -0.0984
  649MOL0     C85540   3.032  10.724   4.083 -1.1783 -0.9988 -0.1596
  649MOL0     C85541   2.981  10.848   4.114 -0.0563  0.1191  0.1276
  649MOL0     C85542   2.849  10.876   4.140  0.3336  0.3747  0.3500
  649MOL0     C85543   2.761  10.772   4.108 -0.2483 -0.5689 -0.2422
  649MOL0     O85544   2.632  10.802   4.133 -0.0787  0.7879 -0.0128
  649MOL0     C85545   2.531  10.700   4.142 -0.2478  0.2065 -0.8040
  649MOL0     C85546   2.479  10.668   4.007 -0.3458 -1.2687 -0.0151
  649MOL0     C85547   2.341  10.597   4.004  0.3394  1.0030  0.1446
  649MOL0     C85548   2.215  10.682   4.024  1.0484  0.5796  0.1862
  649MOL0     C85549   2.198  10.786   3.914  0.1550  0.5582  0.8990
  649MOL0     C85550   2.056  10.834   3.922 -0.3219 -0.4527 -0.6483
  649MOL0     C85551   2.035  10.936   3.803  0.2973 -0.2734 -0.4666
  649MOL0     C85552   1.885  10.978   3.769  0.4911  1.0305  0.1443
  649MOL0     N85553   1.817  11.075   3.855 -0.2708  0.1240 -0.8523
  649MOL0     C85554   1.771  11.055   3.987 -0.5214 -0.1694  0.6685
  649MOL0     C85555   1.695  11.160   4.020 -0.2603 -0.2905 -0.3307
  649MOL0     C85556   1.649  11.177   4.167  0.3551  0.4264 -0.7387
  649MOL0     C85557   1.651  11.322   4.209  0.1046 -0.2183  0.1140
  649MOL0     C85558   1.555  11.386   4.311  0.0073 -0.4090 -0.3081
  649MOL0     C85559   1.413  11.387   4.273  0.1309  0.4606 -0.2814
  649MOL0     O85560   1.358  11.466   4.377  0.1195  0.5584 -0.9341
  649MOL0     C85561   1.225  11.497   4.367  0.5126  0.0603 -0.2756
  649MOL0     C85562   1.169  11.570   4.260 -0.0524 -0.6733 -0.1304
  649MOL0     C85563   1.033  11.599   4.262  0.2761 -0.0527  0.1355
  649MOL0     C85564   0.953  11.566   4.367 -0.0784 -0.2905 -0.4614
  649MOL0     C85565   0.804  11.601   4.370 -0.8569  0.1604  0.4115
  649MOL0     O85566   0.740  11.572   4.481  0.6545 -0.0453 -0.6336
  649MOL0     C85567   0.600  11.561   4.485 -0.4314 -0.4961  0.0722
  649MOL0     C85568   0.512  11.512   4.381  0.1958  0.6455 -0.1695
  649MOL0     C85569   0.373  11.506   4.408  0.2435 -1.0787 -0.7483
  649MOL0     C85570   0.327  11.547   4.544  0.5054 -0.9508 -0.7465
  649MOL0     O85571   0.191  11.560   4.593  0.0397 -0.6988 -0.2263
  649MOL0     C85572   0.096  11.492   4.508 -0.3708  0.0838 -0.0101
  649MOL0     C85573  -0.041  11.483   4.566 -0.1245  0.7432  0.7313
  649MOL0     C85574  -0.054  11.388   4.678 -0.1480  0.6127 -0.6056
  649MOL0     C85575  -0.205  11.354   4.714 -0.2862 -0.2729  0.1340
  649MOL0     C85576  -0.290  11.486   4.732 -0.5637  0.7199 -0.0812
  649MOL0     C85577  -0.418  11.464   4.810 -0.2855 -0.2625  0.2181
  649MOL0     C85578  -0.546  11.504   4.735  0.1263  0.0116 -0.1428
  649MOL0     C85579  -0.668  11.466   4.810  0.5819 -0.7307 -0.0604
  649MOL0    Cl85580  -0.708  11.591   4.929 -0.0876  0.1438 -0.1904
  649MOL0     C85581   0.423  11.573   4.645 -0.1253 -0.6889  1.0722
  649MOL0     C85582   0.556  11.586   4.612  0.0930  0.1237 -1.1556
  649MOL0     O85583   0.757  11.643   4.265  0.2343 -0.6203  0.0056
  649MOL0     C85584   1.006  11.497   4.476 -0.5607  0.1834 -0.3182
  649MOL0     C85585   1.144  11.468   4.482  0.7208  0.7728  1.4691
  649MOL0     N85586   1.706  11.244   3.916 -0.1538 -1.0099  0.8267
  649MOL0     N85587   1.783  11.201   3.818 -0.8685 -0.2772 -0.8887
  649MOL0     C85588   2.811  10.643   4.074  0.0360 -0.4524  0.5859
  649MOL0     C85589   2.945  10.619   4.058 -0.1642 -0.0860  0.3904
  649MOL0     C85590   3.398  10.751   4.093  0.6063  0.1839  0.4390
  649MOL0     C85591   3.493  10.863   4.074 -0.1552 -0.0743 -0.5761
  649MOL0     C85592   3.629  10.836   4.049  0.4356 -0.6806  0.1325
  649MOL0     C85593   3.677  10.705   4.037  1.0687  0.5780  0.8906
  649MOL0     O85594   3.809  10.666   4.017 -0.0644 -0.9014  0.5337
  649MOL0     C85595   3.915  10.758   4.051 -0.7200  0.5084  0.2124
  649MOL0     C85596   4.053  10.710   3.986 -0.5657 -0.5648  0.0627
  649MOL0     C85597   4.171  10.812   4.009 -0.8536  0.8623 -0.3033
  649MOL0     C85598   4.159  10.943   3.945 -0.0421 -0.1861 -0.7561
  649MOL0     C85599   4.283  11.020   3.938  0.3762  0.4451  0.0305
  649MOL0     C85600   4.380  11.091   3.930 -1.2307 -0.4647 -0.2416
  649MOL0     C85601   3.578  10.595   4.041 -0.4395 -0.3969  0.3450
  649MOL0     C85602   3.443  10.621   4.061  1.0620 -0.2569  0.4388
  649MOL0     H85603   3.048  10.932   4.127 -1.3803  1.5809 -1.8189
  649MOL0     H85604   2.823  10.975   4.176  0.9040 -0.1453  2.2689
  649MOL0     H85605   2.451  10.745   4.202  1.9264 -1.3493  3.7626
  649MOL0     H85606   2.570  10.612   4.194 -0.7923  0.2970 -0.2182
  649MOL0     H85607   2.547  10.603   3.951  0.2740 -1.3295  0.7788
  649MOL0     H85608   2.461  10.763   3.956 -1.8671 -0.8095  1.2857
  649MOL0     H85609   2.347  10.529   4.089  0.0453  3.2403  2.0608
  649MOL0     H85610   2.338  10.540   3.911 -1.7657 -0.8151  1.2435
  649MOL0     H85611   2.131  10.612   4.018  1.1727  0.4574 -0.1502
  649MOL0     H85612   2.210  10.728   4.123 -1.8472 -1.6471  1.2248
  649MOL0     H85613   2.214  10.748   3.813 -0.9034  0.7101  0.6679
  649MOL0     H85614   2.257  10.878   3.927 -0.3753  1.3973 -1.9572
  649MOL0     H85615   2.035  10.888   4.015 -3.5863  1.1090 -2.1103
  649MOL0     H85616   1.990  10.748   3.907 -0.4567 -0.2594 -1.2079
  649MOL0     H85617   2.090  11.029   3.824  1.8554 -1.4171  0.7240
  649MOL0     H85618   2.074  10.889   3.712 -0.0350  0.6458 -1.1026
  649MOL0     H85619   1.826  10.887   3.782  0.0970  0.9640 -1.8133
  649MOL0     H85620   1.876  11.007   3.664 -1.4742 -0.0742 -0.0411
  649MOL0     H85621   1.805  10.975   4.052  1.5743  0.7329  0.7855
  649MOL0     H85622   1.713  11.124   4.239 -0.9217  0.9635  0.8619
  649MOL0     H85623   1.550  11.133   4.187 -0.4420  1.0471 -3.0558
  649MOL0     H85624   1.622  11.376   4.119 -0.3964 -2.6499 -1.2619
  649MOL0     H85625   1.751  11.353   4.240  0.5443 -0.2176 -1.2391
  649MOL0     H85626   1.570  11.339   4.409 -0.0411  0.5697  0.1826
  649MOL0     H85627   1.601  11.485   4.322  1.0432 -0.6869 -1.9140
  649MOL0     H85628   1.372  11.286   4.262  0.7695  0.1451  0.1869
  649MOL0     H85629   1.417  11.444   4.179  1.1743  3.0919  1.2421
  649MOL0     H85630   1.237  11.589   4.178  0.7517 -0.2310  0.6146
  649MOL0     H85631   0.983  11.643   4.176  0.1669  1.2955  0.8603
  649MOL0     H85632   0.534  11.494   4.276 -2.8024  0.0357 -0.7890
  649MOL0     H85633   0.301  11.475   4.333  0.8630  1.3025 -2.4441
  649MOL0     H85634   0.131  11.389   4.499 -0.4309  0.1314 -0.8196
  649MOL0     H85635   0.108  11.525   4.405  1.6414 -0.1627  0.1033
  649MOL0     H85636  -0.103  11.435   4.490  0.9554  1.1895 -0.4710
  649MOL0     H85637  -0.070  11.586   4.590 -0.0480  0.3049  2.8977
  649MOL0     H85638  -0.006  11.434   4.765 -0.1193  2.0479 -1.3515
  649MOL0     H85639  -0.009  11.292   4.652 -0.4039  1.2048 -3.5407
  649MOL0     H85640  -0.241  11.290   4.633 -0.2689  1.0551 -0.9466
  649MOL0     H85641  -0.198  11.295   4.806  0.8433  2.7525  2.1499
  649MOL0     H85642  -0.315  11.521   4.632 -1.0038 -1.1992 -0.6849
  649MOL0     H85643  -0.225  11.563   4.774  0.6234  0.2937 -1.0788
  649MOL0     H85644  -0.420  11.528   4.899  1.2350 -0.4774  0.4282
  649MOL0     H85645  -0.425  11.356   4.829 -2.2438 -0.5495 -1.7595
  649MOL0     H85646  -0.537  11.612   4.721 -1.6670  0.5092  1.8311
  649MOL0     H85647  -0.549  11.451   4.640  0.4845 -0.1300 -0.0737
  649MOL0     H85648  -0.662  11.363   4.847  2.2599 -1.7949 -2.9652
  649MOL0     H85649  -0.754  11.472   4.742 -0.3443 -2.3137  0.9051
  649MOL0     H85650   0.385  11.608   4.740 -1.2178 -1.7030  1.0355
  649MOL0     H85651   0.622  11.612   4.695 -1.4496 -1.3048  0.6228
  649MOL0     H85652   0.943  11.469   4.560 -2.6465 -4.0953 -2.9891
  649MOL0     H85653   1.189  11.428   4.572 -0.4359  2.1148  2.6816
  649MOL0     H85654   2.745  10.560   4.053 -1.6756  1.0429 -0.2931
  649MOL0     H85655   2.983  10.520   4.032 -0.4910  0.3921 -2.2020
  649MOL0     H85656   3.464  10.966   4.095  3.0841  0.5583  1.6427
  649MOL0     H85657   3.684  10.928   4.043 -1.7451  0.8692  2.0029
  649MOL0     H85658   3.920  10.771   4.160 -2.0530  6.6181 -0.1106
  649MOL0     H85659   3.893  10.863   4.030  2.1460  0.8262 -1.8221
  649MOL0     H85660   4.074  10.606   4.011 -0.6401 -0.7517 -0.6192
  649MOL0     H85661   4.042  10.703   3.877  1.0189 -0.9635 -0.1061
  649MOL0     H85662   4.263  10.757   3.987 -0.2813  0.8444  1.9155
  649MOL0     H85663   4.176  10.823   4.117 -1.0136  0.3816 -0.2464
  649MOL0     H85664   4.125  10.929   3.843  1.3515  1.3849 -1.4803
  649MOL0     H85665   4.075  10.997   3.990 -2.4536 -2.5903 -2.0849
  649MOL0     H85666   4.460  11.162   3.919  0.2744 -2.3424 -2.3901
  649MOL0     H85667   3.613  10.493   4.028 -1.8736 -0.9956  1.0070
  649MOL0     H85668   3.376  10.537   4.049  0.8269  0.3148 -3.6784
  650MOL0     O85669   9.216   5.577   4.039 -0.5873  0.3438  0.0751
  650MOL0     C85670   9.294   5.502   3.981  0.5168  0.2390 -0.2232
  650MOL0     O85671   9.263   5.367   3.949  0.2556 -0.0984  0.3485
  650MOL0     C85672   9.129   5.317   3.954 -0.4418  0.0040 -0.4980
  650MOL0     C85673   9.010   5.393   3.947  0.0551 -0.1309  0.6799
  650MOL0     C85674   8.884   5.327   3.934  0.0112 -0.8095  0.9401
  650MOL0     C85675   8.874   5.190   3.935 -0.0535 -0.6363 -0.9661
  650MOL0     O85676   8.752   5.133   3.936  0.6270 -0.8348  0.6545
  650MOL0     C85677   8.679   5.146   3.809  0.3226  0.5890 -0.2488
  650MOL0     C85678   8.600   5.021   3.773 -0.6668 -0.1372  0.0133
  650MOL0     C85679   8.532   5.031   3.634 -0.5204  0.8389  0.2118
  650MOL0     C85680   8.405   4.945   3.623  0.7177 -0.5629 -0.1261
  650MOL0     C85681   8.353   4.945   3.474  0.1240  0.9638 -0.6890
  650MOL0     C85682   8.254   4.835   3.439  0.1236 -0.2265 -0.8119
  650MOL0     C85683   8.210   4.845   3.290  0.1480  0.4123 -0.0224
  650MOL0     C85684   8.107   4.738   3.263  0.6792  0.6161  0.2914
  650MOL0     N85685   8.061   4.753   3.123  0.4208  0.0371  0.3641
  650MOL0     C85686   8.135   4.728   3.010 -0.3449  0.3072 -0.5567
  650MOL0     C85687   8.055   4.766   2.904  0.5061  0.1229 -0.4179
  650MOL0     C85688   8.099   4.757   2.763  0.1145 -0.9327  1.2498
  650MOL0     C85689   8.255   4.768   2.741  0.5622  0.0420  0.1282
  650MOL0     C85690   8.285   4.765   2.595 -0.1323  0.0763  0.7143
  650MOL0     C85691   8.442   4.775   2.591  0.6953 -0.0265  0.0274
  650MOL0     O85692   8.501   4.895   2.652  0.1128  0.1678 -0.1013
  650MOL0     C85693   8.637   4.916   2.642  0.2121 -0.4050 -0.3181
  650MOL0     C85694   8.714   4.813   2.583 -1.7947 -0.6160 -0.1977
  650MOL0     C85695   8.851   4.836   2.571  0.6166 -0.4051 -0.1705
  650MOL0     C85696   8.907   4.951   2.627 -0.3399 -0.1467  0.0789
  650MOL0     C85697   9.050   4.964   2.620 -0.4127  0.5337  0.8186
  650MOL0     O85698   9.101   5.086   2.648  0.3744 -0.2066  0.6453
  650MOL0     C85699   9.235   5.109   2.622  0.1427  0.5318  0.8146
  650MOL0     C85700   9.304   5.091   2.493  0.0657 -0.0632 -0.2290
  650MOL0     C85701   9.439   5.135   2.482  0.2643 -0.9635 -0.2554
  650MOL0     C85702   9.499   5.206   2.585 -0.7444  0.4500 -0.4489
  650MOL0     O85703   9.629   5.237   2.570 -0.2302 -0.6041  0.9218
  650MOL0     C85704   9.685   5.309   2.680  0.1112 -0.1293 -0.2555
  650MOL0     C85705   9.836   5.343   2.659  0.2538 -0.2542 -0.0685
  650MOL0     C85706   9.931   5.231   2.700  0.2262 -0.0870 -1.3846
  650MOL0     C85707  10.085   5.260   2.690  0.7758  0.0060  0.3351
  650MOL0     C85708  10.142   5.348   2.804  0.5328  0.1744  0.0230
  650MOL0     C85709  10.288   5.386   2.774  0.9924  0.4479 -0.9018
  650MOL0     C85710  10.357   5.466   2.880 -0.0453  0.3179  0.4060
  650MOL0     C85711  10.488   5.514   2.818  0.3664 -0.2450  0.6926
  650MOL0    Cl85712  10.607   5.398   2.777  0.2114  0.3877 -0.0192
  650MOL0     C85713   9.429   5.231   2.701  0.9137 -1.0927 -0.5611
  650MOL0     C85714   9.297   5.188   2.721  0.4580  0.6868  0.3992
  650MOL0     O85715   9.117   4.877   2.579  0.4121  0.0787  0.2924
  650MOL0     C85716   8.827   5.048   2.690 -1.4910 -0.8310 -0.1427
  650MOL0     C85717   8.689   5.033   2.699 -0.0069 -0.3813  0.4849
  650MOL0     N85718   7.936   4.808   2.964  0.1776 -0.5730  0.2103
  650MOL0     N85719   7.941   4.811   3.089  0.1447  1.0298 -0.4879
  650MOL0     C85720   8.993   5.117   3.938 -0.6638  0.2881  0.1536
  650MOL0     C85721   9.115   5.175   3.948 -0.0818  0.0230  0.0648
  650MOL0     C85722   9.429   5.554   3.956  0.1472  0.1909 -1.2181
  650MOL0     C85723   9.512   5.501   3.869  0.3057  0.0144  0.2815
  650MOL0     C85724   9.632   5.552   3.842 -0.8157  0.9385  0.1002
  650MOL0     C85725   9.684   5.660   3.919  0.1776  0.5869 -0.6132
  650MOL0     O85726   9.819   5.693   3.899 -0.1077  0.0431  0.2904
  650MOL0     C85727   9.873   5.809   3.968  0.4285 -0.6427 -0.0136
  650MOL0     C85728   9.833   5.938   3.900  0.0360 -0.3681  0.5471
  650MOL0     C85729   9.919   5.993   3.789 -0.7620  0.7198 -0.1394
  650MOL0     C85730   9.966   5.891   3.686 -0.2880 -0.3769  0.5152
  650MOL0     C85731  10.062   5.937   3.580  0.1705  0.0522  0.1668
  650MOL0     C85732  10.154   5.963   3.509  0.4149  0.8286 -0.1386
  650MOL0     C85733   9.595   5.734   4.006 -0.2734  0.8526  0.5962
  650MOL0     C85734   9.471   5.668   4.028 -0.6143  0.0476  0.5183
  650MOL0     H85735   9.013   5.501   3.948 -1.0712 -0.0826  0.5228
  650MOL0     H85736   8.795   5.386   3.917  1.8884  2.7434  2.4074
  650MOL0     H85737   8.737   5.159   3.717  0.7294 -2.9460 -0.6515
  650MOL0     H85738   8.606   5.224   3.828 -1.0266 -0.3569 -1.3989
  650MOL0     H85739   8.522   4.993   3.846 -0.6359  0.3920  0.2577
  650MOL0     H85740   8.673   4.942   3.759  1.5143  1.9017 -0.7674
  650MOL0     H85741   8.611   5.008   3.562 -1.1211  1.9677 -0.8319
  650MOL0     H85742   8.508   5.135   3.610  0.2737  1.1855  0.8832
  650MOL0     H85743   8.411   4.843   3.663  2.2358  0.1100  1.5580
  650MOL0     H85744   8.325   4.996   3.677 -1.3004 -1.3344 -2.2465
  650MOL0     H85745   8.438   4.921   3.410  0.5584  0.9022 -0.0978
  650MOL0     H85746   8.307   5.043   3.459  0.6081  1.4766  0.9478
  650MOL0     H85747   8.173   4.843   3.511  1.7872  0.5352  1.0902
  650MOL0     H85748   8.303   4.740   3.462  1.3068  1.0743  2.7275
  650MOL0     H85749   8.170   4.943   3.261  0.2780  0.4018 -0.2415
  650MOL0     H85750   8.301   4.822   3.234 -0.0575 -1.7503  0.4678
  650MOL0     H85751   8.025   4.754   3.333 -1.2476  0.6781 -1.8506
  650MOL0     H85752   8.141   4.635   3.256  1.8279  0.7204  3.1297
  650MOL0     H85753   8.238   4.694   3.003 -0.3932  0.4461 -2.8839
  650MOL0     H85754   8.055   4.846   2.717 -0.5793 -0.4785  2.7646
  650MOL0     H85755   8.054   4.672   2.711  1.6719 -0.2543 -1.4324
  650MOL0     H85756   8.298   4.683   2.793 -0.4586  0.8422  2.4013
  650MOL0     H85757   8.281   4.863   2.789 -0.1484 -0.0340  0.6669
  650MOL0     H85758   8.248   4.672   2.552 -0.7208  0.7989 -0.3800
  650MOL0     H85759   8.242   4.849   2.540 -3.5502 -1.2499  1.1367
  650MOL0     H85760   8.463   4.772   2.483 -2.6564 -0.6799 -0.7235
  650MOL0     H85761   8.489   4.687   2.637  2.2494  1.3853  1.2639
  650MOL0     H85762   8.665   4.727   2.539 -4.9525  1.0449 -0.1560
  650MOL0     H85763   8.904   4.761   2.513  1.8612  2.0337 -2.3530
  650MOL0     H85764   9.250   5.041   2.413  1.5655 -0.9774 -0.6934
  650MOL0     H85765   9.499   5.116   2.394  1.6327 -1.0011  0.6441
  650MOL0     H85766   9.680   5.253   2.774  0.4859  2.7934  1.6112
  650MOL0     H85767   9.629   5.402   2.693 -0.0774 -0.1187 -1.0987
  650MOL0     H85768   9.858   5.436   2.713 -0.2656  0.4148 -0.9795
  650MOL0     H85769   9.852   5.359   2.552  1.3895  3.4997  0.5174
  650MOL0     H85770   9.909   5.146   2.634  0.0415 -0.6812 -0.5645
  650MOL0     H85771   9.908   5.204   2.803 -2.8614 -2.8283 -2.5793
  650MOL0     H85772  10.133   5.162   2.691  0.5946 -0.1175 -1.2488
  650MOL0     H85773  10.107   5.317   2.600 -0.9485  0.5102  0.1816
  650MOL0     H85774  10.139   5.292   2.898  0.8624  0.8324  0.4300
  650MOL0     H85775  10.086   5.441   2.813  0.6174  0.4478 -1.7892
  650MOL0     H85776  10.286   5.440   2.678  2.1227 -0.7432 -1.6250
  650MOL0     H85777  10.343   5.293   2.760 -0.0847 -0.3556  0.0688
  650MOL0     H85778  10.298   5.553   2.911 -0.0100  0.5827 -0.2507
  650MOL0     H85779  10.384   5.404   2.966 -2.3232  1.0815  1.7659
  650MOL0     H85780  10.539   5.571   2.896  2.7746  2.2573 -2.4289
  650MOL0     H85781  10.475   5.578   2.731  3.1686 -1.5778 -0.8739
  650MOL0     H85782   9.480   5.284   2.780  0.0088 -1.1647  0.0852
  650MOL0     H85783   9.236   5.232   2.799  1.1841  0.7439  0.9437
  650MOL0     H85784   8.865   5.145   2.723  2.2716 -1.7262 -1.2812
  650MOL0     H85785   8.619   5.101   2.748 -2.0287 -2.0274  0.0461
  650MOL0     H85786   8.985   5.009   3.933 -4.3733  0.4041  0.5928
  650MOL0     H85787   9.200   5.108   3.955 -0.5599 -0.6703 -0.6830
  650MOL0     H85788   9.501   5.411   3.809  0.8114 -0.6894  1.2142
  650MOL0     H85789   9.692   5.526   3.755 -0.5446  0.7988  0.3283
  650MOL0     H85790   9.982   5.800   3.970  0.4591 -0.3672 -0.2166
  650MOL0     H85791   9.839   5.805   4.072 -1.4208  1.9997 -0.4072
  650MOL0     H85792   9.733   5.929   3.855 -0.2518  0.1364  1.0742
  650MOL0     H85793   9.812   6.010   3.979 -3.1633 -0.0903 -0.3715
  650MOL0     H85794   9.995   6.060   3.831 -0.9142  1.1209 -0.4962
  650MOL0     H85795   9.857   6.061   3.730  2.6460  2.7930 -1.6148
  650MOL0     H85796  10.016   5.803   3.729  3.2010 -0.1498 -2.5014
  650MOL0     H85797   9.883   5.853   3.625  1.1478 -0.3869 -1.5646
  650MOL0     H85798  10.230   6.008   3.448  0.7456 -0.0294 -0.3823
  650MOL0     H85799   9.623   5.819   4.067  1.5056  0.7758 -0.0450
  650MOL0     H85800   9.413   5.710   4.110 -1.4255  0.5281 -0.2776
  651MOL0     O85801   7.269  11.279   3.252  0.5705  0.8761 -0.4825
  651MOL0     C85802   7.269  11.387   3.302 -1.3762  0.0312  0.1134
  651MOL0     O85803   7.172  11.458   3.347 -0.1305 -0.3051 -0.1126
  651MOL0     C85804   7.046  11.405   3.335  0.0659 -0.1632 -0.5028
  651MOL0     C85805   6.985  11.361   3.218 -0.6691  0.6308  0.7192
  651MOL0     C85806   6.852  11.311   3.209 -0.3734  0.2728 -0.6047
  651MOL0     C85807   6.781  11.303   3.327 -0.5181  0.2459 -0.3226
  651MOL0     O85808   6.646  11.265   3.330 -0.0052  0.5956 -0.2717
  651MOL0     C85809   6.589  11.183   3.232 -0.8444  1.5936 -0.1042
  651MOL0     C85810   6.459  11.131   3.298  0.2189  0.2846 -1.1283
  651MOL0     C85811   6.380  11.040   3.204 -0.8360 -0.3044 -0.4053
  651MOL0     C85812   6.247  10.984   3.257  0.3791  0.3968  0.0579
  651MOL0     C85813   6.169  10.898   3.150 -0.3304  0.0654 -0.4785
  651MOL0     C85814   6.078  10.974   3.039 -0.2066  0.2575 -0.4694
  651MOL0     C85815   5.980  11.070   3.097  0.5130 -0.8819 -0.2792
  651MOL0     C85816   5.833  11.039   3.064  0.6085  0.0814  0.0718
  651MOL0     N85817   5.774  10.925   3.148  0.1747  0.5173  0.5425
  651MOL0     C85818   5.760  10.930   3.286  0.3754 -0.3472  0.1744
  651MOL0     C85819   5.736  10.808   3.333  0.4359 -0.4505 -0.3043
  651MOL0     C85820   5.752  10.756   3.469  0.7761  0.5596  0.4530
  651MOL0     C85821   5.626  10.731   3.539 -0.1459  0.1890 -0.2115
  651MOL0     C85822   5.536  10.622   3.482  0.3924 -0.1259  0.0013
  651MOL0     C85823   5.415  10.595   3.564 -0.9143  0.2584  0.4787
  651MOL0     O85824   5.352  10.476   3.515  0.3563 -0.5141  0.4315
  651MOL0     C85825   5.220  10.458   3.539 -0.4730  0.0095 -0.4685
  651MOL0     C85826   5.134  10.545   3.613  0.3081  0.9147  0.1837
  651MOL0     C85827   5.003  10.502   3.634 -0.1736  0.0511 -0.1406
  651MOL0     C85828   4.952  10.384   3.564  0.2233 -0.5185  0.1301
  651MOL0     C85829   4.812  10.327   3.569  0.0973 -0.4508 -0.6016
  651MOL0     O85830   4.744  10.368   3.683 -0.1956 -0.3704 -0.2038
  651MOL0     C85831   4.624  10.324   3.720  0.4322 -0.5655 -0.4411
  651MOL0     C85832   4.541  10.412   3.794  0.2388 -0.8053 -0.0003
  651MOL0     C85833   4.409  10.386   3.822  0.1015 -0.5982 -0.7284
  651MOL0     C85834   4.359  10.259   3.779  0.1228  0.0276  0.0936
  651MOL0     O85835   4.234  10.221   3.817  0.1326 -0.3829  0.2643
  651MOL0     C85836   4.144  10.232   3.709  0.2047  0.3058 -0.3519
  651MOL0     C85837   4.044  10.343   3.728  0.3773  1.3543  0.0631
  651MOL0     C85838   3.924  10.326   3.635  0.1533 -0.2696 -0.1635
  651MOL0     C85839   3.834  10.446   3.637  0.3891 -0.6061  0.0946
  651MOL0     C85840   3.712  10.397   3.555 -0.4005 -0.3964 -0.0577
  651MOL0     C85841   3.618  10.511   3.528  0.4188 -1.1197  1.6958
  651MOL0     C85842   3.476  10.484   3.578 -0.0290 -0.2307 -0.9541
  651MOL0     C85843   3.479  10.473   3.734  0.4184  0.1392  0.4848
  651MOL0    Cl85844   3.310  10.431   3.778  0.0130 -0.0560  0.2249
  651MOL0     C85845   4.442  10.165   3.715  0.0599  0.4445  0.4166
  651MOL0     C85846   4.569  10.199   3.689 -0.7151 -0.6956 -0.3771
  651MOL0     O85847   4.763  10.258   3.474  0.5968  0.2399  0.1920
  651MOL0     C85848   5.039  10.317   3.477 -0.4075  0.2473  0.9359
  651MOL0     C85849   5.170  10.359   3.467 -0.0473  0.0543 -0.1983
  651MOL0     N85850   5.711  10.730   3.224  0.0505  0.0575  0.4189
  651MOL0     N85851   5.718  10.804   3.113  0.5568  0.5155  0.9552
  651MOL0     C85852   6.843  11.352   3.447  0.4751  0.2944  0.7481
  651MOL0     C85853   6.971  11.399   3.454 -0.4294 -0.4363  0.7999
  651MOL0     C85854   7.401  11.457   3.307 -0.0303  0.7969  0.5993
  651MOL0     C85855   7.420  11.588   3.277 -0.3617  0.4391  0.2113
  651MOL0     C85856   7.548  11.647   3.264  0.3849 -0.0383  0.4430
  651MOL0     C85857   7.663  11.565   3.287 -0.5331 -0.8100 -0.4596
  651MOL0     O85858   7.789  11.623   3.284 -0.0576 -0.0957  0.3990
  651MOL0     C85859   7.801  11.767   3.273 -0.1475  0.8159 -0.2930
  651MOL0     C85860   7.760  11.823   3.405  0.3278  0.0257 -0.7712
  651MOL0     C85861   7.869  11.832   3.510 -0.0359 -0.4012  0.3491
  651MOL0     C85862   7.961  11.949   3.459 -0.5874 -0.9376  0.0661
  651MOL0     C85863   8.072  11.985   3.549 -0.6668 -0.1533 -0.0106
  651MOL0     C85864   8.152  12.016   3.628  0.9294  0.1987 -0.0975
  651MOL0     C85865   7.648  11.433   3.323 -0.2861 -0.1626  0.3120
  651MOL0     C85866   7.522  11.378   3.332  0.5623 -0.1208  0.2646
  651MOL0     H85867   7.038  11.356   3.124 -1.7860  1.8782 -0.0104
  651MOL0     H85868   6.801  11.299   3.114  0.4828  2.4670 -1.4063
  651MOL0     H85869   6.654  11.097   3.211 -2.2795  0.5017 -0.2651
  651MOL0     H85870   6.574  11.233   3.136 -2.1543  0.2828 -0.6285
  651MOL0     H85871   6.403  11.217   3.337  0.1701  0.2251 -1.0648
  651MOL0     H85872   6.491  11.071   3.384  2.2243  0.9277 -1.3812
  651MOL0     H85873   6.453  10.971   3.160 -0.6214 -2.3656  2.9110
  651MOL0     H85874   6.355  11.110   3.123  1.7562  0.3969 -0.7169
  651MOL0     H85875   6.260  10.921   3.345 -0.3549 -1.0997 -0.8738
  651MOL0     H85876   6.183  11.068   3.288  0.1486  1.2864 -2.5322
  651MOL0     H85877   6.104  10.826   3.200  2.5559 -1.9451  0.6760
  651MOL0     H85878   6.248  10.834   3.108 -0.2010 -1.0928  1.3938
  651MOL0     H85879   6.021  10.904   2.977 -0.0324  0.9060 -1.3793
  651MOL0     H85880   6.133  11.029   2.963  1.0349 -3.0544 -2.1899
  651MOL0     H85881   5.989  11.083   3.205 -1.1256  1.3247 -0.3414
  651MOL0     H85882   6.000  11.172   3.062  0.8742 -0.0940  2.0468
  651MOL0     H85883   5.814  11.024   2.957 -1.3060  3.1135 -0.1351
  651MOL0     H85884   5.782  11.134   3.077  1.3446  0.4114  0.6297
  651MOL0     H85885   5.763  11.024   3.339 -1.6746  0.0204 -0.2753
  651MOL0     H85886   5.804  10.833   3.527  0.5537  0.1189  1.2478
  651MOL0     H85887   5.812  10.665   3.475 -0.9158 -0.7088 -0.9146
  651MOL0     H85888   5.556  10.815   3.529 -3.3258 -2.3326 -0.8884
  651MOL0     H85889   5.655  10.710   3.642 -1.3392  0.1554  0.1379
  651MOL0     H85890   5.503  10.642   3.380  1.1916  0.6966 -0.1049
  651MOL0     H85891   5.585  10.524   3.485 -0.8821 -0.7912  3.2570
  651MOL0     H85892   5.357  10.688   3.572  1.6773  1.8613  2.0831
  651MOL0     H85893   5.442  10.572   3.667 -3.4564 -3.2354  0.5639
  651MOL0     H85894   5.172  10.628   3.672 -1.6207  2.1197 -0.1718
  651MOL0     H85895   4.935  10.551   3.703  1.8281  0.2590  1.8099
  651MOL0     H85896   4.584  10.505   3.830 -0.5052  0.3911 -2.0711
  651MOL0     H85897   4.341  10.451   3.876 -3.3851 -0.4415 -4.7460
  651MOL0     H85898   4.076  10.146   3.707 -0.8717  1.1097  0.2864
  651MOL0     H85899   4.196  10.248   3.615 -0.1991  0.1201 -0.6113
  651MOL0     H85900   4.100  10.432   3.700  1.6889  0.0538 -1.6579
  651MOL0     H85901   4.011  10.341   3.833  3.3054  2.9978  1.1343
  651MOL0     H85902   3.863  10.238   3.657  0.4181  0.2948  3.3530
  651MOL0     H85903   3.956  10.305   3.532  0.7800 -0.9439  0.1626
  651MOL0     H85904   3.807  10.463   3.742 -1.7238 -0.7974 -0.3810
  651MOL0     H85905   3.878  10.520   3.570 -1.4476 -0.1692 -0.6882
  651MOL0     H85906   3.655  10.316   3.600  1.8210 -0.0749  3.7245
  651MOL0     H85907   3.750  10.357   3.460  0.5676 -0.7463  0.4596
  651MOL0     H85908   3.617  10.526   3.420  2.1820  1.7075  1.9776
  651MOL0     H85909   3.656  10.607   3.565 -3.9780  3.0822 -3.0633
  651MOL0     H85910   3.417  10.565   3.536  1.3641 -0.0795 -2.7400
  651MOL0     H85911   3.441  10.392   3.531  0.8019  0.0654 -2.1843
  651MOL0     H85912   3.511  10.565   3.784  3.5081 -0.5698 -0.0079
  651MOL0     H85913   3.561  10.411   3.771  1.2434  0.4401 -0.7819
  651MOL0     H85914   4.413  10.062   3.695  1.4063  0.4651 -2.0629
  651MOL0     H85915   4.625  10.124   3.634 -0.4517 -1.2528  0.6247
  651MOL0     H85916   5.014  10.227   3.422  0.7952 -0.3129  1.2823
  651MOL0     H85917   5.243  10.297   3.416  1.5792 -0.1590  2.1885
  651MOL0     H85918   6.798  11.342   3.546 -1.0020  3.1731  0.4763
  651MOL0     H85919   7.007  11.446   3.545 -0.8833  0.7459  0.3813
  651MOL0     H85920   7.331  11.636   3.237  0.1698 -0.2739 -1.9277
  651MOL0     H85921   7.547  11.750   3.230 -0.4876 -0.7434 -1.9177
  651MOL0     H85922   7.739  11.807   3.193 -1.2750 -1.2748 -0.5439
  651MOL0     H85923   7.906  11.791   3.253  0.5062 -0.4343  1.3436
  651MOL0     H85924   7.734  11.928   3.390  1.8588  0.5232 -0.1865
  651MOL0     H85925   7.680  11.765   3.452  1.1664 -0.3879  0.1739
  651MOL0     H85926   7.911  11.731   3.507 -2.3206 -1.4288  0.8282
  651MOL0     H85927   7.824  11.847   3.609 -2.1447 -3.2325 -0.0498
  651MOL0     H85928   8.009  11.930   3.363 -0.7000 -0.3093 -0.1234
  651MOL0     H85929   7.903  12.041   3.448  0.7187 -0.1425 -0.3752
  651MOL0     H85930   8.223  12.037   3.705 -0.5096 -0.4757  1.4539
  651MOL0     H85931   7.739  11.377   3.342  0.3258  1.3513  2.1487
  651MOL0     H85932   7.509  11.271   3.349 -1.3682 -0.3119 -1.9362
  652MOL0     O85933  10.451   1.335   8.022 -0.6786  0.7844  0.1482
  652MOL0     C85934  10.513   1.395   8.111  0.6709  0.2949 -0.0574
  652MOL0     O85935  10.474   1.511   8.167  0.4711 -0.2945  0.0213
  652MOL0     C85936  10.342   1.554   8.156  0.4674  0.0503 -0.1762
  652MOL0     C85937  10.280   1.595   8.272  0.0392 -0.2843 -0.5615
  652MOL0     C85938  10.145   1.616   8.279  0.1389 -0.5160  0.4938
  652MOL0     C85939  10.064   1.625   8.166 -1.0214 -0.2496 -0.2128
  652MOL0     O85940   9.932   1.665   8.172  0.3236 -0.2862 -0.1920
  652MOL0     C85941   9.839   1.589   8.093  0.1478 -0.0638 -0.3420
  652MOL0     C85942   9.709   1.665   8.094 -0.0165 -0.1832  0.0824
  652MOL0     C85943   9.598   1.582   8.045  0.3309  0.5621  0.4759
  652MOL0     C85944   9.567   1.582   7.896  0.8285 -0.2576  0.8969
  652MOL0     C85945   9.446   1.498   7.855  0.2725  0.3549 -0.3035
  652MOL0     C85946   9.412   1.525   7.702 -1.0869 -0.5672  0.0745
  652MOL0     C85947   9.278   1.479   7.656 -0.7424  0.3522  0.9725
  652MOL0     C85948   9.247   1.325   7.678 -0.2692 -0.2529 -0.1899
  652MOL0     N85949   9.102   1.291   7.662  0.4587 -0.7756  0.3341
  652MOL0     C85950   9.013   1.350   7.564 -0.5939 -0.2524 -0.3692
  652MOL0     C85951   8.892   1.295   7.588 -0.3280  0.7514  0.9276
  652MOL0     C85952   8.760   1.329   7.531 -0.0346 -0.4474 -0.6299
  652MOL0     C85953   8.670   1.218   7.478  0.0919 -0.7635 -0.4755
  652MOL0     C85954   8.689   1.206   7.318 -0.2069  0.0210 -0.3516
  652MOL0     C85955   8.605   1.094   7.255  0.4282 -0.0928 -0.3556
  652MOL0     O85956   8.617   1.100   7.113 -0.4510 -0.8036  0.4384
  652MOL0     C85957   8.528   1.019   7.048  0.9943 -0.6089  0.0004
  652MOL0     C85958   8.389   1.051   7.017 -0.0362 -0.6873  0.0182
  652MOL0     C85959   8.314   0.974   6.937  0.6488 -0.8277  0.0910
  652MOL0     C85960   8.372   0.869   6.863  0.3371  0.5947  0.1523
  652MOL0     C85961   8.283   0.782   6.776  0.2732  0.0094  0.8286
  652MOL0     O85962   8.156   0.782   6.809  0.5148 -0.1359 -0.2022
  652MOL0     C85963   8.080   0.687   6.759 -0.2408  0.5561 -0.2215
  652MOL0     C85964   8.119   0.553   6.759  0.3451  0.4822 -0.0105
  652MOL0     C85965   8.039   0.458   6.696  0.2454  0.1451  0.5557
  652MOL0     C85966   7.908   0.486   6.645  0.0611 -0.1602 -0.1858
  652MOL0     O85967   7.822   0.387   6.601 -0.3458 -0.5472 -0.1498
  652MOL0     C85968   7.792   0.281   6.693  0.0658  0.3096 -0.8870
  652MOL0     C85969   7.660   0.220   6.653  1.0824  0.0385 -0.0052
  652MOL0     C85970   7.541   0.315   6.639  0.5504 -0.9381 -0.3295
  652MOL0     C85971   7.416   0.237   6.606  0.0467 -0.6116 -0.3310
  652MOL0     C85972   7.417   0.177   6.470  0.5315 -0.2395  0.5845
  652MOL0     C85973   7.275   0.111   6.452 -0.3280  0.4867 -0.3691
  652MOL0     C85974   7.243   0.046   6.309 -1.0340  0.2683 -0.3870
  652MOL0     C85975   7.094   0.027   6.301 -0.1694  0.2660  0.4470
  652MOL0    Cl85976   7.042  -0.115   6.377  0.0326 -0.1801  0.0362
  652MOL0     C85977   7.869   0.620   6.658  0.5790  0.3370  0.3778
  652MOL0     C85978   7.961   0.711   6.711 -0.2214  0.1357  0.1022
  652MOL0     O85979   8.341   0.715   6.690  0.3523 -0.9336  0.0004
  652MOL0     C85980   8.506   0.831   6.895 -0.7489 -0.1071  0.0631
  652MOL0     C85981   8.578   0.908   6.990  0.2068  1.0140  0.9665
  652MOL0     N85982   8.908   1.191   7.689  0.0276  0.0458  0.3200
  652MOL0     N85983   9.034   1.189   7.720 -0.2157  0.4049 -0.0487
  652MOL0     C85984  10.128   1.607   8.038  0.3745 -0.2584  0.1890
  652MOL0     C85985  10.264   1.564   8.037  0.3661  0.3331  0.2828
  652MOL0     C85986  10.653   1.355   8.139  0.2112  0.2041 -0.2309
  652MOL0     C85987  10.718   1.389   8.259 -0.7192  0.4964  0.6309
  652MOL0     C85988  10.854   1.378   8.282  0.3285  0.0922 -0.2529
  652MOL0     C85989  10.935   1.305   8.190  0.0861  0.3917  0.1607
  652MOL0     O85990  11.072   1.296   8.209 -0.3398 -0.7749 -0.2366
  652MOL0     C85991  11.140   1.176   8.170 -0.6700 -0.8280  0.1607
  652MOL0     C85992  11.193   1.100   8.292  0.7343 -0.0268 -0.3060
  652MOL0     C85993  11.277   1.185   8.383  0.1950 -0.2984 -0.5646
  652MOL0     C85994  11.361   1.113   8.493 -0.4432 -0.8101  0.0176
  652MOL0     C85995  11.446   1.004   8.443 -0.6117 -0.2687 -0.3647
  652MOL0     C85996  11.530   0.925   8.412 -0.2269  0.2044  0.5878
  652MOL0     C85997  10.872   1.256   8.074  0.1134  0.0915  0.0256
  652MOL0     C85998  10.733   1.291   8.040 -1.0507  0.3281 -0.2611
  652MOL0     H85999  10.339   1.604   8.362 -0.0667 -2.3509 -0.2299
  652MOL0     H86000  10.096   1.629   8.375 -0.0287  0.7247  0.2685
  652MOL0     H86001   9.828   1.492   8.143 -1.1858  0.5691  0.6335
  652MOL0     H86002   9.866   1.584   7.987  0.1447 -1.2498 -0.3025
  652MOL0     H86003   9.724   1.754   8.033 -0.0002 -1.4295 -1.8139
  652MOL0     H86004   9.690   1.692   8.199 -1.9430 -1.6047  0.1566
  652MOL0     H86005   9.503   1.614   8.089 -1.0337 -1.9679 -0.4221
  652MOL0     H86006   9.617   1.479   8.077  1.3244  0.4907 -0.3218
  652MOL0     H86007   9.548   1.688   7.879  0.2429 -0.4763  0.1457
  652MOL0     H86008   9.659   1.557   7.842  0.9322  0.4644  0.7272
  652MOL0     H86009   9.367   1.526   7.926 -0.9115 -0.2689 -1.3481
  652MOL0     H86010   9.476   1.395   7.874  2.9803  1.0867 -0.0788
  652MOL0     H86011   9.481   1.471   7.636 -2.5283  0.2174 -2.1649
  652MOL0     H86012   9.418   1.633   7.690  1.7866  0.0921  4.8076
  652MOL0     H86013   9.204   1.547   7.698  0.2770  1.1838  1.4822
  652MOL0     H86014   9.279   1.508   7.550  1.5098 -0.1029  0.8117
  652MOL0     H86015   9.276   1.296   7.779  0.1644 -1.7449 -0.7073
  652MOL0     H86016   9.307   1.259   7.615  0.1240  1.1492 -1.3455
  652MOL0     H86017   9.030   1.436   7.500 -1.2723  1.6367  1.8257
  652MOL0     H86018   8.762   1.412   7.461 -0.2279  0.0694 -0.0301
  652MOL0     H86019   8.699   1.360   7.616 -0.4195 -2.4586 -0.1162
  652MOL0     H86020   8.568   1.245   7.506  1.0116  0.5755  1.9462
  652MOL0     H86021   8.698   1.120   7.518  2.8721 -0.6843 -1.9365
  652MOL0     H86022   8.675   1.303   7.270  4.6516  0.0578 -2.2721
  652MOL0     H86023   8.794   1.183   7.298 -0.0661  0.5117 -0.1932
  652MOL0     H86024   8.500   1.108   7.284  0.8223  1.2220  0.4890
  652MOL0     H86025   8.635   1.001   7.303  0.3990  0.8050  1.4772
  652MOL0     H86026   8.338   1.131   7.069  0.4252 -0.4991  0.1942
  652MOL0     H86027   8.209   1.003   6.930  1.2900  1.2908 -2.4943
  652MOL0     H86028   8.210   0.513   6.801 -0.1563  1.5018  2.1773
  652MOL0     H86029   8.063   0.352   6.693 -1.3098 -0.2213 -0.3333
  652MOL0     H86030   7.785   0.330   6.791  0.4906  1.9706 -1.6519
  652MOL0     H86031   7.877   0.212   6.704  0.8691  1.5608  1.8108
  652MOL0     H86032   7.623   0.146   6.724  0.1475 -0.2728 -0.7911
  652MOL0     H86033   7.672   0.167   6.558  1.5726 -0.4421  0.3140
  652MOL0     H86034   7.559   0.386   6.557 -0.3294 -0.0406  0.2267
  652MOL0     H86035   7.516   0.369   6.731  2.3059  0.4476 -0.6040
  652MOL0     H86036   7.402   0.159   6.682 -0.7909  0.0305  0.1895
  652MOL0     H86037   7.339   0.314   6.604  0.4536 -0.1994 -0.2823
  652MOL0     H86038   7.491   0.096   6.468  1.2614  0.4069  0.8948
  652MOL0     H86039   7.441   0.255   6.397 -0.3765 -1.9709 -1.6856
  652MOL0     H86040   7.209   0.198   6.455 -2.3197 -0.9813  1.1555
  652MOL0     H86041   7.259   0.048   6.540  2.6569 -1.3528 -0.9950
  652MOL0     H86042   7.268   0.112   6.225 -3.7249  0.1409 -1.3995
  652MOL0     H86043   7.293  -0.051   6.310 -0.5671  0.5098  0.7439
  652MOL0     H86044   7.067   0.012   6.196  1.4634 -2.6828  0.3503
  652MOL0     H86045   7.041   0.117   6.335  1.4350  1.9727 -1.3259
  652MOL0     H86046   7.771   0.659   6.633  0.5081 -1.1614 -2.0787
  652MOL0     H86047   7.929   0.815   6.710  1.3989  0.6821 -1.1093
  652MOL0     H86048   8.557   0.751   6.842 -0.7775  0.3811 -0.7146
  652MOL0     H86049   8.674   0.870   7.023  0.2153 -1.3823 -1.4141
  652MOL0     H86050  10.076   1.607   7.942  0.2748  0.1549  0.2380
  652MOL0     H86051  10.319   1.560   7.943 -0.0783  1.0829 -0.0232
  652MOL0     H86052  10.659   1.434   8.338  0.2544 -0.3069  1.8672
  652MOL0     H86053  10.891   1.405   8.380 -0.8875  2.4231 -0.3837
  652MOL0     H86054  11.223   1.215   8.110 -1.0249  1.0245  0.8148
  652MOL0     H86055  11.091   1.113   8.095 -1.9425  0.7250 -0.3800
  652MOL0     H86056  11.105   1.056   8.341  0.7193 -0.8481 -1.0427
  652MOL0     H86057  11.260   1.023   8.253  0.9876 -0.7390  1.4544
  652MOL0     H86058  11.223   1.267   8.432  0.6889  0.8558 -1.8941
  652MOL0     H86059  11.352   1.238   8.323  1.0796  1.3759  1.8429
  652MOL0     H86060  11.418   1.190   8.547 -0.7792 -1.1330  0.8416
  652MOL0     H86061  11.292   1.067   8.564 -0.0053  1.0370  1.7443
  652MOL0     H86062  11.608   0.866   8.367  0.1916  3.1815 -3.1468
  652MOL0     H86063  10.930   1.205   7.998  1.0146 -2.8039  2.5128
  652MOL0     H86064  10.695   1.258   7.943  2.2861  0.1548 -1.6371
  653MOL0     O86065   2.519   6.400   0.217 -0.4249  0.3482  0.3709
  653MOL0     C86066   2.571   6.474   0.301  0.9024 -0.1005  0.2354
  653MOL0     O86067   2.574   6.446   0.432  0.4251  0.1947 -0.3245
  653MOL0     C86068   2.508   6.335   0.478  0.9323 -1.2538 -0.5478
  653MOL0     C86069   2.368   6.328   0.486  0.7791 -0.1986  0.3755
  653MOL0     C86070   2.310   6.217   0.544 -0.2819 -0.1346  0.0653
  653MOL0     C86071   2.390   6.111   0.600  0.6631 -0.2110  0.4488
  653MOL0     O86072   2.333   6.003   0.661  0.3462 -0.1424  0.3326
  653MOL0     C86073   2.199   5.993   0.704 -0.2288  0.3162 -0.4209
  653MOL0     C86074   2.129   5.868   0.650 -1.0769 -1.1358 -0.7065
  653MOL0     C86075   1.991   5.861   0.710  0.2199 -0.1722 -0.0403
  653MOL0     C86076   1.898   5.963   0.644 -0.6014  0.4415  0.3261
  653MOL0     C86077   1.748   5.927   0.666 -0.3549  0.4630  0.5330
  653MOL0     C86078   1.657   6.037   0.617  0.4542  0.0488  0.5280
  653MOL0     C86079   1.679   6.077   0.468 -0.8372 -0.3184  0.3400
  653MOL0     C86080   1.653   5.966   0.366  0.9056 -0.1367  0.2846
  653MOL0     N86081   1.514   5.918   0.369  0.0407  0.0604 -0.6381
  653MOL0     C86082   1.471   5.817   0.453  0.0474  0.3121  0.5937
  653MOL0     C86083   1.337   5.814   0.446 -0.3716 -0.0146 -0.6410
  653MOL0     C86084   1.243   5.713   0.503 -0.0244 -0.0289 -0.1465
  653MOL0     C86085   1.211   5.726   0.652  0.6292 -0.0787 -0.2112
  653MOL0     C86086   1.112   5.840   0.663  0.3413  0.6864  0.4888
  653MOL0     C86087   1.071   5.849   0.812 -0.1207 -0.2142 -0.2367
  653MOL0     O86088   0.994   5.964   0.843  0.5355  0.8377 -0.3856
  653MOL0     C86089   0.863   5.977   0.788  0.6328 -0.2749 -0.4847
  653MOL0     C86090   0.806   6.107   0.781 -0.4747  0.5574 -0.6469
  653MOL0     C86091   0.674   6.118   0.728  0.7165  0.3457  0.7459
  653MOL0     C86092   0.595   6.007   0.680  0.8722  0.6045 -0.3124
  653MOL0     C86093   0.460   6.024   0.631 -0.1085  0.4987  0.1433
  653MOL0     O86094   0.391   5.911   0.585  0.3046  0.2249  0.5777
  653MOL0     C86095   0.257   5.924   0.557 -0.2535 -0.7812  0.2194
  653MOL0     C86096   0.209   5.927   0.420 -0.1067 -0.4466 -0.4282
  653MOL0     C86097   0.071   5.950   0.396  0.7444  0.3715 -0.3440
  653MOL0     C86098  -0.021   5.966   0.498 -1.0523  0.1584  0.0343
  653MOL0     O86099  -0.156   5.973   0.469 -0.6573 -0.4349  0.0371
  653MOL0     C86100  -0.236   6.042   0.560  0.4619 -0.5282 -0.5581
  653MOL0     C86101  -0.386   6.018   0.540 -0.7023 -0.3528  0.9350
  653MOL0     C86102  -0.465   6.037   0.663  0.3094 -0.4746 -1.0458
  653MOL0     C86103  -0.617   6.038   0.635  1.0272 -0.8606  0.6893
  653MOL0     C86104  -0.703   6.121   0.733 -0.2025  0.1133  0.3024
  653MOL0     C86105  -0.850   6.096   0.702  1.0966 -0.0572 -0.2123
  653MOL0     C86106  -0.922   6.172   0.825  0.9236 -0.2596  0.5585
  653MOL0     C86107  -1.064   6.232   0.786  0.2162  0.2959 -0.0431
  653MOL0    Cl86108  -1.127   6.323   0.924 -0.0432 -0.2880 -0.3345
  653MOL0     C86109   0.028   5.957   0.635  0.1919  0.0372 -0.6098
  653MOL0     C86110   0.166   5.937   0.661  0.2445  0.9413  0.6171
  653MOL0     O86111   0.413   6.137   0.644  0.5425  0.5553  0.7309
  653MOL0     C86112   0.658   5.880   0.689  0.8425  0.2905 -0.8906
  653MOL0     C86113   0.786   5.867   0.744  0.4751 -0.4379  0.1276
  653MOL0     N86114   1.303   5.915   0.368  1.3583  0.7001 -0.2956
  653MOL0     N86115   1.404   5.976   0.317  0.4035 -0.4662  0.6407
  653MOL0     C86116   2.523   6.131   0.598  0.2943 -0.5132  0.0195
  653MOL0     C86117   2.583   6.240   0.543  0.2389 -0.0845 -0.5500
  653MOL0     C86118   2.618   6.605   0.256 -0.5980  0.5205  1.2764
  653MOL0     C86119   2.662   6.707   0.337 -0.8272  0.0001 -1.4831
  653MOL0     C86120   2.700   6.834   0.293 -0.0464  0.8276  0.2756
  653MOL0     C86121   2.709   6.856   0.155  0.7486  0.0599  0.2667
  653MOL0     O86122   2.733   6.989   0.120 -0.0270  0.5363  0.2680
  653MOL0     C86123   2.803   7.007  -0.004 -0.0209  0.1016 -0.4133
  653MOL0     C86124   2.952   6.970   0.022 -0.3072  0.0569  0.7842
  653MOL0     C86125   3.035   6.961  -0.115 -0.3498  0.8951 -1.2477
  653MOL0     C86126   3.183   6.916  -0.090  0.9946 -0.1500 -0.2008
  653MOL0     C86127   3.252   6.961   0.036  0.4299 -0.6053  0.8302
  653MOL0     C86128   3.315   7.021   0.120 -0.5818 -0.4043  0.6510
  653MOL0     C86129   2.676   6.749   0.074  0.0640  0.0678 -0.6322
  653MOL0     C86130   2.626   6.624   0.113 -0.3609  0.3491  0.1810
  653MOL0     H86131   2.312   6.406   0.434 -1.4492 -2.6488 -1.1834
  653MOL0     H86132   2.204   6.201   0.533 -0.1600 -0.3367 -0.8603
  653MOL0     H86133   2.137   6.078   0.673 -1.0830 -0.3278 -0.5253
  653MOL0     H86134   2.215   5.994   0.812  1.5331  0.3936 -0.6613
  653MOL0     H86135   2.199   5.792   0.687 -0.0148  0.5838  0.9744
  653MOL0     H86136   2.127   5.866   0.541 -1.9385 -0.3928 -0.7126
  653MOL0     H86137   1.985   5.879   0.818  0.0324 -1.6479  0.2179
  653MOL0     H86138   1.962   5.755   0.701  1.2265 -0.6210  1.5831
  653MOL0     H86139   1.911   6.066   0.680  1.5504  1.3661 -2.6870
  653MOL0     H86140   1.922   5.961   0.537  2.1949 -0.6193  0.9095
  653MOL0     H86141   1.729   5.920   0.774  0.3469  0.0997  0.6410
  653MOL0     H86142   1.731   5.831   0.616  0.4117  0.8167 -0.4426
  653MOL0     H86143   1.685   6.131   0.665  2.6384 -0.4243  0.3181
  653MOL0     H86144   1.558   5.995   0.636  0.9407 -0.9093  1.0265
  653MOL0     H86145   1.617   6.162   0.438 -0.1479 -0.0984 -0.4911
  653MOL0     H86146   1.784   6.107   0.457 -0.5427 -1.7928 -1.1494
  653MOL0     H86147   1.707   5.875   0.397 -1.4764 -2.1299 -1.0658
  653MOL0     H86148   1.682   5.999   0.266 -2.5446  0.3849 -0.6479
  653MOL0     H86149   1.531   5.736   0.492 -0.8200 -1.9942 -2.4922
  653MOL0     H86150   1.295   5.619   0.486 -0.7581 -0.1548 -1.8747
  653MOL0     H86151   1.151   5.707   0.444 -2.8913  2.0938  3.6448
  653MOL0     H86152   1.298   5.736   0.717 -0.0148 -0.1210  0.6830
  653MOL0     H86153   1.154   5.639   0.685  2.4697 -1.1516  0.2389
  653MOL0     H86154   1.155   5.936   0.630 -0.0393  0.9294  0.6958
  653MOL0     H86155   1.037   5.828   0.584  3.0722 -2.0127 -1.9890
  653MOL0     H86156   1.156   5.851   0.881  0.7151 -0.9401 -1.2021
  653MOL0     H86157   1.019   5.754   0.829  3.0474 -2.1227 -0.3569
  653MOL0     H86158   0.854   6.201   0.807 -1.8037  1.4146 -1.1388
  653MOL0     H86159   0.631   6.217   0.720 -1.1475 -0.5441 -1.3633
  653MOL0     H86160   0.278   5.917   0.337 -1.3229 -1.6577 -1.3548
  653MOL0     H86161   0.009   5.949   0.307 -3.8672  1.2735  2.5246
  653MOL0     H86162  -0.215   6.149   0.554  0.4397 -0.4808  0.1976
  653MOL0     H86163  -0.223   6.002   0.661 -0.5281  1.1152  0.2557
  653MOL0     H86164  -0.401   5.918   0.497  0.4043  0.0341 -0.4123
  653MOL0     H86165  -0.406   6.095   0.465  2.6348 -0.1446  0.0906
  653MOL0     H86166  -0.456   6.131   0.719 -0.7746  0.6080 -2.6047
  653MOL0     H86167  -0.442   5.960   0.736  0.5126 -0.6425 -1.2876
  653MOL0     H86168  -0.635   6.086   0.539 -0.7108 -3.0750 -0.1881
  653MOL0     H86169  -0.642   5.932   0.634  1.4450 -0.9615  0.6348
  653MOL0     H86170  -0.679   6.228   0.730 -1.0142  0.3877  1.9497
  653MOL0     H86171  -0.663   6.101   0.833 -0.4665  2.5663  0.9853
  653MOL0     H86172  -0.872   5.989   0.702  2.5102 -0.3683 -0.2269
  653MOL0     H86173  -0.871   6.134   0.602 -0.7214 -1.5621 -0.4610
  653MOL0     H86174  -0.940   6.091   0.896 -1.2357 -0.6650 -0.3678
  653MOL0     H86175  -0.863   6.248   0.877  0.1996  0.5388  0.2512
  653MOL0     H86176  -1.124   6.144   0.760  1.1120 -0.1736 -0.5538
  653MOL0     H86177  -1.058   6.291   0.695 -0.8070 -1.6336 -1.4496
  653MOL0     H86178  -0.047   5.953   0.714 -1.4953 -3.2892 -2.1793
  653MOL0     H86179   0.205   5.922   0.761 -0.1430  1.8294  0.9115
  653MOL0     H86180   0.608   5.786   0.667  0.4045 -0.5253  2.9461
  653MOL0     H86181   0.815   5.764   0.765 -1.3140 -0.5678  2.3543
  653MOL0     H86182   2.577   6.046   0.639  0.7455  0.5541  1.7578
  653MOL0     H86183   2.691   6.249   0.540  0.1833  2.6602  1.4260
  653MOL0     H86184   2.657   6.701   0.445  1.1283 -2.2980 -1.4464
  653MOL0     H86185   2.730   6.914   0.361  1.3971 -0.3028  1.0419
  653MOL0     H86186   2.801   7.113  -0.030  2.7854  0.6003  1.0010
  653MOL0     H86187   2.755   6.957  -0.088 -0.4512 -2.2513  1.1404
  653MOL0     H86188   3.007   7.047   0.077 -2.2752  0.9394  1.6127
  653MOL0     H86189   2.965   6.875   0.075  0.9217  0.8140  1.9154
  653MOL0     H86190   3.035   7.052  -0.175 -1.5455  2.9238  1.6234
  653MOL0     H86191   2.975   6.894  -0.179 -0.9376 -0.6517  0.8109
  653MOL0     H86192   3.198   6.808  -0.094 -2.4670 -0.7584  0.2830
  653MOL0     H86193   3.235   6.971  -0.169 -0.0219  1.4198  0.1690
  653MOL0     H86194   3.361   7.074   0.202 -0.8720 -0.5517  0.9136
  653MOL0     H86195   2.687   6.745  -0.034  1.1275  0.7177 -0.5575
  653MOL0     H86196   2.606   6.541   0.045 -1.1282 -1.5624  2.5845
  654MOL0     O86197   5.891   3.838   0.229  0.1574  0.5760 -0.1745
  654MOL0     C86198   5.883   3.824   0.349 -0.0229 -0.7803  0.4883
  654MOL0     O86199   5.785   3.753   0.420 -0.0427 -0.4831  0.0559
  654MOL0     C86200   5.675   3.699   0.358  0.5939 -0.5188  0.9195
  654MOL0     C86201   5.660   3.602   0.258  0.4984 -0.0011 -0.7792
  654MOL0     C86202   5.538   3.537   0.211 -0.8063 -0.5448 -0.6401
  654MOL0     C86203   5.425   3.589   0.260  0.6588 -0.8146  0.4475
  654MOL0     O86204   5.303   3.533   0.226 -0.5672  0.3771 -0.5928
  654MOL0     C86205   5.193   3.621   0.215 -0.4583  0.4243  0.0370
  654MOL0     C86206   5.073   3.558   0.150  0.3267  0.1239 -0.4585
  654MOL0     C86207   5.112   3.528   0.003  0.5446  0.5308 -1.0885
  654MOL0     C86208   4.978   3.492  -0.064  0.4332 -0.4189  0.4056
  654MOL0     C86209   5.000   3.405  -0.184 -0.1643 -0.1285  0.4673
  654MOL0     C86210   4.868   3.357  -0.251  0.5982 -0.2969  0.4494
  654MOL0     C86211   4.744   3.362  -0.158 -0.8222  0.0407  0.3314
  654MOL0     C86212   4.619   3.310  -0.221 -1.2112 -0.6034 -0.2789
  654MOL0     N86213   4.495   3.354  -0.154 -0.4653  0.7290  0.1366
  654MOL0     C86214   4.484   3.360  -0.014 -1.1884  0.2017 -0.4045
  654MOL0     C86215   4.356   3.379   0.008  0.0290  0.0138  0.0154
  654MOL0     C86216   4.289   3.404   0.142  0.1249 -0.7451  0.7941
  654MOL0     C86217   4.127   3.425   0.148 -1.0780  0.1685 -0.2368
  654MOL0     C86218   4.094   3.552   0.079  0.6559  0.4782 -0.4277
  654MOL0     C86219   3.947   3.572   0.067 -0.3041 -0.1528 -0.2151
  654MOL0     O86220   3.935   3.703   0.027 -0.2946  0.3409  0.1638
  654MOL0     C86221   3.807   3.756   0.044  0.0945  0.4399  0.2084
  654MOL0     C86222   3.692   3.678   0.065 -0.0043  0.2557 -0.3238
  654MOL0     C86223   3.569   3.727   0.090  1.1873 -0.1119 -0.0357
  654MOL0     C86224   3.558   3.863   0.133  0.3661 -0.1096  0.1120
  654MOL0     C86225   3.433   3.916   0.190  0.7334  0.5699  0.4239
  654MOL0     O86226   3.325   3.856   0.148  0.1320 -0.4680  0.2653
  654MOL0     C86227   3.207   3.904   0.192  0.3256  0.0584  0.6663
  654MOL0     C86228   3.159   4.017   0.123  0.2279  0.7051  0.5844
  654MOL0     C86229   3.036   4.070   0.148  0.1464 -0.6003  0.5512
  654MOL0     C86230   2.960   4.024   0.251 -0.3974  0.4018 -0.2887
  654MOL0     O86231   2.844   4.086   0.280  0.3591  0.0327  0.6318
  654MOL0     C86232   2.865   4.177   0.385 -0.3591 -0.4472 -0.3296
  654MOL0     C86233   2.740   4.180   0.476 -0.0085 -0.6020 -0.7802
  654MOL0     C86234   2.631   4.258   0.404  0.9250 -0.2058 -0.1574
  654MOL0     C86235   2.503   4.264   0.498 -0.6730  0.7337 -0.6447
  654MOL0     C86236   2.404   4.371   0.454  0.0272  0.4949  0.8196
  654MOL0     C86237   2.298   4.401   0.561 -0.2408 -0.3264  0.8879
  654MOL0     C86238   2.178   4.491   0.523 -0.1689  0.3601 -0.5008
  654MOL0     C86239   2.138   4.479   0.378 -0.9083 -0.1498  1.0537
  654MOL0    Cl86240   1.979   4.544   0.354 -0.4828 -0.1348  0.2864
  654MOL0     C86241   2.996   3.903   0.311  1.0828 -0.8863  0.2954
  654MOL0     C86242   3.127   3.852   0.288  0.6422  0.8288  0.0794
  654MOL0     O86243   3.441   4.016   0.264  0.2600 -0.0382 -0.8341
  654MOL0     C86244   3.678   3.941   0.117 -0.7796 -0.2183  0.1023
  654MOL0     C86245   3.802   3.889   0.067  1.1866 -0.8416  0.2074
  654MOL0     N86246   4.289   3.368  -0.114  0.3564  0.5217 -0.2545
  654MOL0     N86247   4.373   3.347  -0.209 -0.5980 -0.0290 -0.6328
  654MOL0     C86248   5.430   3.697   0.355  0.1795  0.2551 -0.6957
  654MOL0     C86249   5.550   3.751   0.396 -1.2811  0.1627  0.0335
  654MOL0     C86250   6.007   3.868   0.435  0.1868 -0.0545  0.5909
  654MOL0     C86251   5.982   3.950   0.546 -0.0011  0.3140  0.2131
  654MOL0     C86252   6.091   3.979   0.626  0.2800  0.0331 -0.1380
  654MOL0     C86253   6.226   3.931   0.599  1.0167 -0.1734  0.4919
  654MOL0     O86254   6.332   3.949   0.683 -0.3708  0.1359 -0.0611
  654MOL0     C86255   6.343   3.849   0.789 -0.0544 -0.0540  1.2476
  654MOL0     C86256   6.499   3.847   0.820  0.4912 -0.1622 -0.1794
  654MOL0     C86257   6.541   3.733   0.918 -0.6971 -0.1586  0.3808
  654MOL0     C86258   6.692   3.742   0.945 -0.0236  0.2688  0.3424
  654MOL0     C86259   6.744   3.646   1.044 -0.3372  0.3307  0.6050
  654MOL0     C86260   6.783   3.569   1.123  0.6062 -0.4498 -0.9402
  654MOL0     C86261   6.243   3.860   0.481  0.6109 -0.0297 -0.3542
  654MOL0     C86262   6.132   3.825   0.397 -0.0254 -0.1900 -0.2626
  654MOL0     H86263   5.756   3.558   0.234  0.8259 -1.3366  2.4365
  654MOL0     H86264   5.533   3.453   0.144  0.2323 -0.8133 -0.4012
  654MOL0     H86265   5.222   3.705   0.151  2.9005 -2.3062 -2.4649
  654MOL0     H86266   5.171   3.648   0.318  2.3247  2.5204  0.1967
  654MOL0     H86267   4.994   3.633   0.161  1.0099  1.1917 -2.3628
  654MOL0     H86268   5.040   3.463   0.193 -1.2681 -0.1028 -2.0920
  654MOL0     H86269   5.189   3.451   0.008  1.0394  1.1026  2.8575
  654MOL0     H86270   5.163   3.604  -0.057  2.4538 -0.8231 -1.2733
  654MOL0     H86271   4.911   3.455   0.014  1.1705 -3.7291 -0.4025
  654MOL0     H86272   4.949   3.593  -0.095  2.8715  0.5077  0.9316
  654MOL0     H86273   5.054   3.317  -0.146  1.5758  1.1381  1.0307
  654MOL0     H86274   5.057   3.454  -0.263  0.2934 -1.1384  0.1556
  654MOL0     H86275   4.874   3.253  -0.286  2.3577  0.4709 -1.8129
  654MOL0     H86276   4.836   3.419  -0.335  0.3298 -0.5914  0.3305
  654MOL0     H86277   4.770   3.309  -0.066  0.0400  0.7034  0.4816
  654MOL0     H86278   4.713   3.463  -0.131 -0.9517 -0.3545  1.7756
  654MOL0     H86279   4.609   3.201  -0.226 -2.9788 -0.4875 -0.1321
  654MOL0     H86280   4.614   3.341  -0.326  1.6261  0.1990 -0.2505
  654MOL0     H86281   4.559   3.338   0.061 -0.7441  1.7734 -0.3604
  654MOL0     H86282   4.336   3.492   0.186  1.1871 -1.7933  1.8357
  654MOL0     H86283   4.310   3.318   0.207 -1.2696  0.2558  2.6661
  654MOL0     H86284   4.085   3.438   0.248  1.1000 -0.4789  0.8232
  654MOL0     H86285   4.082   3.332   0.114 -1.8702  0.5008 -0.1180
  654MOL0     H86286   4.144   3.631   0.135  3.3301 -2.1068  1.1659
  654MOL0     H86287   4.132   3.543  -0.023  1.5979 -1.3156  0.0300
  654MOL0     H86288   3.899   3.552   0.163  0.2019 -1.2664 -0.1766
  654MOL0     H86289   3.897   3.514  -0.012  1.5927 -0.1877 -1.4529
  654MOL0     H86290   3.705   3.573   0.038  1.6401  0.7096 -1.4692
  654MOL0     H86291   3.478   3.669   0.096  1.8251 -1.2579 -0.9197
  654MOL0     H86292   3.216   4.055   0.039  1.1337  0.3596  1.0296
  654MOL0     H86293   3.004   4.149   0.080  0.7118 -1.1832 -0.4320
  654MOL0     H86294   2.890   4.276   0.348 -2.0090  0.0459 -0.1956
  654MOL0     H86295   2.943   4.146   0.456 -2.1979  1.4537  2.7428
  654MOL0     H86296   2.773   4.222   0.571  4.2914  0.6995 -2.5896
  654MOL0     H86297   2.709   4.076   0.491  1.8062 -0.7087  3.6459
  654MOL0     H86298   2.595   4.195   0.322 -0.1106  1.1825 -0.8263
  654MOL0     H86299   2.672   4.354   0.370  2.1503 -0.2299  1.1681
  654MOL0     H86300   2.457   4.165   0.486 -2.0672  1.2357  0.2132
  654MOL0     H86301   2.533   4.269   0.603  1.4078  3.5157 -1.2583
  654MOL0     H86302   2.359   4.333   0.362 -0.4920  0.7791  0.9528
  654MOL0     H86303   2.462   4.462   0.441  0.5292  0.3672  2.0849
  654MOL0     H86304   2.359   4.432   0.647  4.7665 -3.0987 -1.2490
  654MOL0     H86305   2.260   4.303   0.587 -2.1783 -0.1996 -1.1827
  654MOL0     H86306   2.089   4.460   0.578 -1.8105  3.5907 -1.0500
  654MOL0     H86307   2.179   4.593   0.564 -3.7714  0.7388 -1.0168
  654MOL0     H86308   2.136   4.372   0.353  0.8122  0.2630 -1.1648
  654MOL0     H86309   2.200   4.537   0.310 -1.5385  0.4787  1.0071
  654MOL0     H86310   2.926   3.845   0.370  2.1143 -2.0627  0.4018
  654MOL0     H86311   3.142   3.764   0.351 -0.0520 -0.9008 -2.0295
  654MOL0     H86312   3.676   4.046   0.144  2.2347 -0.1323  0.2494
  654MOL0     H86313   3.895   3.945   0.067  2.9281 -3.5486  1.3182
  654MOL0     H86314   5.342   3.753   0.385  0.4124  1.3411 -1.9724
  654MOL0     H86315   5.530   3.835   0.462  0.5763  0.8682 -0.2480
  654MOL0     H86316   5.894   4.011   0.561  1.6472  2.8951  0.0906
  654MOL0     H86317   6.063   4.036   0.714  0.7011 -1.8616  1.2628
  654MOL0     H86318   6.320   3.747   0.756  3.4247 -0.8619  0.9287
  654MOL0     H86319   6.287   3.879   0.878 -1.0417 -1.0860  0.9982
  654MOL0     H86320   6.546   3.848   0.721 -0.9980  4.1162 -1.0760
  654MOL0     H86321   6.523   3.944   0.866 -0.9112 -0.8829  2.2381
  654MOL0     H86322   6.516   3.641   0.865 -0.1304  1.0948 -2.2391
  654MOL0     H86323   6.491   3.726   1.015 -0.5135  1.3489  0.6157
  654MOL0     H86324   6.736   3.731   0.846  0.8675  0.6787  0.6872
  654MOL0     H86325   6.720   3.842   0.980  1.8753 -1.3197  3.7517
  654MOL0     H86326   6.812   3.501   1.201 -1.9567  0.1436  0.6581
  654MOL0     H86327   6.343   3.825   0.456 -0.2179 -0.4946 -3.4174
  654MOL0     H86328   6.148   3.756   0.316 -1.3795 -1.0787  0.1854
  655MOL0     O86329   0.572   9.366   0.662  0.1876  0.8724  0.4431
  655MOL0     C86330   0.615   9.256   0.711  1.1691 -0.2632  0.7605
  655MOL0     O86331   0.572   9.207   0.831  0.7873  0.0027  0.3107
  655MOL0     C86332   0.449   9.251   0.886  0.2533  1.5801 -0.3015
  655MOL0     C86333   0.377   9.148   0.952  0.0486 -0.4391 -0.6731
  655MOL0     C86334   0.255   9.182   1.017  0.8137 -0.5109  0.7486
  655MOL0     C86335   0.204   9.313   1.022  0.3696  0.9138 -0.0410
  655MOL0     O86336   0.079   9.341   1.075 -0.3163 -0.0306 -0.5412
  655MOL0     C86337   0.030   9.258   1.180 -0.5515  0.0349 -0.3024
  655MOL0     C86338  -0.094   9.316   1.236 -0.4243 -1.0388  0.0540
  655MOL0     C86339  -0.218   9.306   1.151 -0.1322 -0.5191  0.3966
  655MOL0     C86340  -0.339   9.348   1.231  0.0253  0.7441 -0.0143
  655MOL0     C86341  -0.468   9.285   1.175 -0.0645 -0.7570 -0.8686
  655MOL0     C86342  -0.587   9.328   1.259 -0.0256  0.2697 -0.3801
  655MOL0     C86343  -0.723   9.285   1.202  0.7283  0.7020  0.2876
  655MOL0     C86344  -0.831   9.296   1.299 -0.7801  0.4297  0.3955
  655MOL0     N86345  -0.949   9.214   1.265 -1.0974  0.5261 -0.0834
  655MOL0     C86346  -1.009   9.118   1.337  0.3419 -1.0414  0.0641
  655MOL0     C86347  -1.062   9.036   1.243 -0.4775  0.2310 -0.5066
  655MOL0     C86348  -1.128   8.901   1.268 -0.0560 -0.4935  0.0652
  655MOL0     C86349  -1.277   8.912   1.297 -0.2730  0.0605  1.4629
  655MOL0     C86350  -1.349   8.963   1.171 -0.4315 -0.0760 -0.2415
  655MOL0     C86351  -1.494   8.979   1.198  0.0224 -0.1332 -0.4424
  655MOL0     O86352  -1.547   8.850   1.202  0.3293 -0.3823  0.5108
  655MOL0     C86353  -1.682   8.837   1.215  0.7655  0.4447  0.6257
  655MOL0     C86354  -1.786   8.929   1.194  0.4203  0.2532  0.5578
  655MOL0     C86355  -1.923   8.889   1.203 -0.8478  0.1533  0.2509
  655MOL0     C86356  -1.952   8.768   1.259  0.7543  0.4134  0.9916
  655MOL0     C86357  -2.089   8.732   1.289  1.1295  0.6641  0.0150
  655MOL0     O86358  -2.115   8.603   1.341  0.8077  0.1762  0.0158
  655MOL0     C86359  -2.249   8.574   1.357 -0.3069 -0.5874  0.2544
  655MOL0     C86360  -2.317   8.596   1.477  0.3494 -0.7057  0.3737
  655MOL0     C86361  -2.448   8.548   1.499 -0.8439  0.4647 -0.0555
  655MOL0     C86362  -2.508   8.471   1.395  0.1574 -0.5247  0.1229
  655MOL0     O86363  -2.643   8.431   1.413 -0.4303 -0.4585 -0.3516
  655MOL0     C86364  -2.752   8.497   1.349  0.0536 -0.1765 -0.4522
  655MOL0     C86365  -2.855   8.524   1.459  0.0572 -0.1361  0.4084
  655MOL0     C86366  -2.986   8.578   1.403 -0.8070  0.1099  0.3088
  655MOL0     C86367  -3.095   8.595   1.510 -0.3775  0.0909 -0.2811
  655MOL0     C86368  -3.233   8.603   1.442  0.3726  0.4199 -0.3366
  655MOL0     C86369  -3.353   8.643   1.534  0.1171 -0.1660  0.2257
  655MOL0     C86370  -3.488   8.628   1.474  0.7303 -0.2217  0.3389
  655MOL0     C86371  -3.550   8.484   1.472 -1.4870  0.4718 -0.0547
  655MOL0    Cl86372  -3.712   8.505   1.411 -0.0119  0.3467 -0.1337
  655MOL0     C86373  -2.444   8.445   1.275 -0.0800 -0.3918  0.3508
  655MOL0     C86374  -2.313   8.497   1.256 -0.0571 -0.6412 -0.9129
  655MOL0     O86375  -2.178   8.812   1.264 -0.6849 -0.4369  0.0106
  655MOL0     C86376  -1.851   8.674   1.288  0.2345 -0.6773  1.3847
  655MOL0     C86377  -1.718   8.707   1.256 -0.1170  0.5685 -0.0387
  655MOL0     N86378  -1.033   9.081   1.123  0.9122 -0.6941  0.2178
  655MOL0     N86379  -0.975   9.191   1.134  0.2531 -0.7326  0.6531
  655MOL0     C86380   0.285   9.411   0.962 -0.0027  0.6316 -0.1464
  655MOL0     C86381   0.408   9.377   0.900  0.2725 -0.7532 -0.0543
  655MOL0     C86382   0.729   9.184   0.656  0.4786  0.4176  1.0726
  655MOL0     C86383   0.797   9.082   0.725  1.0467  0.4264 -0.1453
  655MOL0     C86384   0.893   9.005   0.653 -0.4739 -0.0794  0.6920
  655MOL0     C86385   0.928   9.033   0.525 -0.6405 -0.3443  1.2700
  655MOL0     O86386   1.025   8.948   0.469  0.8016 -0.0384 -0.3153
  655MOL0     C86387   1.099   8.979   0.345 -0.0028 -0.4258  0.4622
  655MOL0     C86388   1.248   8.941   0.347 -0.3590 -0.2300 -0.0303
  655MOL0     C86389   1.327   9.039   0.430  0.7474  0.0944  0.1578
  655MOL0     C86390   1.468   8.983   0.475  0.5694 -0.1353 -1.4764
  655MOL0     C86391   1.542   8.944   0.362 -0.4797 -0.1117  0.2833
  655MOL0     C86392   1.601   8.911   0.257  0.1165 -0.1816  0.0976
  655MOL0     C86393   0.866   9.140   0.458 -0.9463  0.2931 -0.1810
  655MOL0     C86394   0.764   9.213   0.521 -0.5823 -0.6210  0.1502
  655MOL0     H86395   0.414   9.047   0.968 -1.0002 -0.4519  2.2450
  655MOL0     H86396   0.200   9.101   1.065  0.0451  0.0045  0.7414
  655MOL0     H86397   0.105   9.236   1.256 -0.6179 -1.1843 -0.5642
  655MOL0     H86398   0.007   9.157   1.144 -0.0778 -0.6844  1.3222
  655MOL0     H86399  -0.066   9.420   1.256 -0.8592 -0.5894 -1.5188
  655MOL0     H86400  -0.113   9.273   1.335 -0.6220 -3.8362 -1.1196
  655MOL0     H86401  -0.222   9.200   1.126  1.1686 -0.6959  0.8740
  655MOL0     H86402  -0.203   9.370   1.064  1.8349  0.1005  1.1249
  655MOL0     H86403  -0.327   9.309   1.333 -1.3381  0.8437  0.1943
  655MOL0     H86404  -0.354   9.456   1.241 -1.4097  0.4990  0.5983
  655MOL0     H86405  -0.451   9.177   1.168  0.6755 -0.8993  2.0828
  655MOL0     H86406  -0.473   9.324   1.073 -0.7397  1.4552 -0.0439
  655MOL0     H86407  -0.596   9.437   1.264 -3.0012  0.3762 -3.7304
  655MOL0     H86408  -0.582   9.285   1.359 -0.3777  1.0839  0.0008
  655MOL0     H86409  -0.745   9.348   1.115  0.1729 -1.5386 -1.3033
  655MOL0     H86410  -0.711   9.186   1.157  2.1619  1.7217 -1.7510
  655MOL0     H86411  -0.862   9.401   1.305 -2.3645 -0.0777  2.0740
  655MOL0     H86412  -0.793   9.274   1.400 -3.0097  0.6813  1.3542
  655MOL0     H86413  -0.998   9.093   1.442 -0.2016 -0.4087  0.2808
  655MOL0     H86414  -1.087   8.855   1.359 -3.2104 -2.4529  0.6252
  655MOL0     H86415  -1.105   8.831   1.186  0.1134 -1.8705  1.2507
  655MOL0     H86416  -1.287   8.980   1.381  1.5229  0.7688  1.1584
  655MOL0     H86417  -1.313   8.814   1.329  1.8002 -1.6312 -0.9426
  655MOL0     H86418  -1.319   9.066   1.150 -1.6866  0.1289 -1.0628
  655MOL0     H86419  -1.344   8.899   1.083 -2.5567 -1.2034  0.4025
  655MOL0     H86420  -1.541   9.045   1.125 -3.5997 -0.4772  1.3305
  655MOL0     H86421  -1.501   9.025   1.297  0.4191 -1.8022  0.4082
  655MOL0     H86422  -1.772   9.028   1.151 -0.5387  0.1929  0.0818
  655MOL0     H86423  -2.003   8.952   1.164 -0.2267  0.7638 -0.0558
  655MOL0     H86424  -2.273   8.654   1.558 -1.1959  3.5684 -1.5280
  655MOL0     H86425  -2.502   8.573   1.590 -0.3119  3.1608 -0.4068
  655MOL0     H86426  -2.802   8.442   1.268 -1.1797  2.5341 -1.6892
  655MOL0     H86427  -2.726   8.594   1.305  1.5636 -0.5383 -0.3788
  655MOL0     H86428  -2.801   8.592   1.525 -0.5452  2.5739 -1.7187
  655MOL0     H86429  -2.888   8.430   1.506  0.8365 -1.1353 -0.9533
  655MOL0     H86430  -3.036   8.520   1.324 -1.9167  1.1947  0.1866
  655MOL0     H86431  -2.960   8.672   1.355 -0.4221 -0.2989 -0.3089
  655MOL0     H86432  -3.083   8.510   1.578  2.3394  1.2434  0.8419
  655MOL0     H86433  -3.078   8.685   1.570  0.7594 -1.2615  1.5512
  655MOL0     H86434  -3.259   8.506   1.401 -1.6876 -0.1854  2.1431
  655MOL0     H86435  -3.228   8.671   1.357 -5.0361  3.3599  1.2463
  655MOL0     H86436  -3.331   8.743   1.572  1.7973 -1.0307  1.6922
  655MOL0     H86437  -3.353   8.580   1.624  1.0592  0.7227  0.8672
  655MOL0     H86438  -3.551   8.693   1.536  3.0278 -1.4059  4.2968
  655MOL0     H86439  -3.485   8.666   1.371  0.0526 -3.8830 -1.1807
  655MOL0     H86440  -3.544   8.438   1.571  3.8580 -0.1961 -0.3562
  655MOL0     H86441  -3.497   8.421   1.399 -1.7419  0.8722 -0.5962
  655MOL0     H86442  -2.481   8.384   1.193 -0.9863  0.9466 -0.2678
  655MOL0     H86443  -2.261   8.474   1.163  0.4759 -0.5217 -0.6525
  655MOL0     H86444  -1.868   8.577   1.332  3.0822 -2.6123 -1.3837
  655MOL0     H86445  -1.643   8.634   1.283  0.7924  2.6956  3.8546
  655MOL0     H86446   0.257   9.515   0.975  0.4070  0.6176  1.0333
  655MOL0     H86447   0.469   9.457   0.858 -2.6912  1.6350 -0.1321
  655MOL0     H86448   0.762   9.047   0.822  1.1868  0.0444 -0.2299
  655MOL0     H86449   0.951   8.928   0.703 -0.3135  0.6967  1.7238
  655MOL0     H86450   1.092   9.081   0.306  2.4585  0.1203  1.2887
  655MOL0     H86451   1.050   8.920   0.267  1.6551  0.1098 -1.0469
  655MOL0     H86452   1.257   8.842   0.393 -0.1199  0.6089  1.8390
  655MOL0     H86453   1.287   8.944   0.245 -0.4550 -1.0008 -0.0999
  655MOL0     H86454   1.266   9.068   0.515  1.4355  2.5229 -0.1067
  655MOL0     H86455   1.343   9.132   0.375 -0.7946  0.0528 -0.4270
  655MOL0     H86456   1.521   9.062   0.530  1.2490 -1.6685  0.1710
  655MOL0     H86457   1.466   8.903   0.550  0.0072  0.0553 -1.2816
  655MOL0     H86458   1.648   8.862   0.174 -0.2052 -3.8981  1.9181
  655MOL0     H86459   0.893   9.169   0.357  0.8482  0.3379  0.2667
  655MOL0     H86460   0.726   9.302   0.472  1.3311 -1.2507 -2.7909
  656MOL0     O86461   9.367   2.003   7.772  0.1926 -0.0257 -0.1027
  656MOL0     C86462   9.429   2.030   7.878  0.2298  0.5759 -0.5621
  656MOL0     O86463   9.369   2.040   8.001  0.4099 -0.4629  0.2167
  656MOL0     C86464   9.249   1.987   8.017 -0.2762 -0.2532 -0.5373
  656MOL0     C86465   9.132   2.067   8.010 -0.5218 -0.1375  0.3266
  656MOL0     C86466   9.009   2.002   8.027  0.5894  0.6440 -0.7590
  656MOL0     C86467   9.000   1.868   8.079  0.0879  0.6495  0.0585
  656MOL0     O86468   8.871   1.821   8.089 -0.4352  0.3756 -0.0919
  656MOL0     C86469   8.866   1.698   8.165  0.8165 -0.0692 -0.0742
  656MOL0     C86470   8.708   1.686   8.205 -0.2165 -0.5463 -0.0083
  656MOL0     C86471   8.613   1.710   8.086  0.0466 -0.2385 -0.1646
  656MOL0     C86472   8.630   1.593   7.985 -0.0938 -0.4950  0.4725
  656MOL0     C86473   8.566   1.594   7.848 -0.3616 -0.6746  0.4030
  656MOL0     C86474   8.576   1.725   7.763  0.0505 -0.4254  0.0046
  656MOL0     C86475   8.488   1.732   7.632 -0.1699 -0.0150 -0.0093
  656MOL0     C86476   8.400   1.869   7.618  0.6359 -0.0752 -0.6256
  656MOL0     N86477   8.306   1.871   7.728  0.4851  0.2459 -0.1524
  656MOL0     C86478   8.326   1.918   7.855  0.4485  0.5023  0.2769
  656MOL0     C86479   8.205   1.912   7.911  0.0432 -0.4989  0.2079
  656MOL0     C86480   8.180   1.963   8.049  0.0594  0.9137 -0.4865
  656MOL0     C86481   8.049   1.902   8.101  0.2194  0.5350  0.2221
  656MOL0     C86482   7.946   1.998   8.050 -0.6853  0.1400  1.1459
  656MOL0     C86483   7.804   1.961   8.089 -0.5808  0.4091  0.1778
  656MOL0     O86484   7.767   2.059   8.184 -0.8509  0.1411  0.0765
  656MOL0     C86485   7.654   2.037   8.262 -0.7114 -0.3904  0.6280
  656MOL0     C86486   7.660   2.097   8.387 -0.4177  0.0134  0.4053
  656MOL0     C86487   7.563   2.069   8.475  0.3494 -0.5600  0.4534
  656MOL0     C86488   7.455   1.986   8.441  0.9889  0.2487  0.2752
  656MOL0     C86489   7.344   1.941   8.536 -0.4532 -0.5062  0.1794
  656MOL0     O86490   7.362   1.994   8.659 -0.7901 -0.4879 -0.0429
  656MOL0     C86491   7.279   1.961   8.760 -1.1024 -0.1993 -0.3066
  656MOL0     C86492   7.153   2.030   8.752 -0.6597  0.4815  0.9176
  656MOL0     C86493   7.057   2.021   8.851 -0.1874  0.3950 -0.2927
  656MOL0     C86494   7.088   1.939   8.960 -0.3053 -0.2768 -1.0074
  656MOL0     O86495   7.003   1.921   9.068  0.5570  0.4905 -0.4464
  656MOL0     C86496   6.919   2.031   9.112  0.3648  0.2253  1.1888
  656MOL0     C86497   6.855   2.002   9.248  0.3587 -0.4051  0.0084
  656MOL0     C86498   6.768   2.127   9.281  0.3478 -0.2152  0.5204
  656MOL0     C86499   6.737   2.140   9.425  0.2951 -0.0204 -0.3171
  656MOL0     C86500   6.675   2.274   9.466  0.2280 -0.2336  0.1427
  656MOL0     C86501   6.654   2.283   9.615  0.9237  0.0123  0.4116
  656MOL0     C86502   6.790   2.289   9.694 -0.6337  0.2283 -0.0529
  656MOL0     C86503   6.756   2.280   9.847  0.1021 -0.4683  1.1250
  656MOL0    Cl86504   6.664   2.127   9.887 -0.0025 -0.1393 -0.1833
  656MOL0     C86505   7.206   1.860   8.962  0.4933  0.0179 -1.1733
  656MOL0     C86506   7.306   1.873   8.865 -0.1923 -0.3941 -0.5454
  656MOL0     O86507   7.265   1.858   8.493 -0.6400 -0.3304 -0.1221
  656MOL0     C86508   7.429   1.957   8.301  0.5934  0.3414  0.4228
  656MOL0     C86509   7.539   1.978   8.212  0.6368  0.1860 -0.1071
  656MOL0     N86510   8.117   1.838   7.826  0.7301 -1.1316  0.4951
  656MOL0     N86511   8.182   1.818   7.715  0.1399 -0.4933 -1.4664
  656MOL0     C86512   9.119   1.793   8.090  0.3044  0.0454  0.7115
  656MOL0     C86513   9.244   1.850   8.065 -0.2462 -0.9120 -0.1388
  656MOL0     C86514   9.581   2.048   7.874 -0.0366 -0.9306  0.4239
  656MOL0     C86515   9.651   2.046   7.997 -0.5768 -0.4511  0.4315
  656MOL0     C86516   9.793   2.050   8.009  0.4319  0.9086 -0.1190
  656MOL0     C86517   9.871   2.048   7.894  0.1441  0.0700  0.3874
  656MOL0     O86518  10.006   2.038   7.884  0.1885 -0.0553 -0.1929
  656MOL0     C86519  10.059   1.921   7.945  0.1863  0.0302  0.0457
  656MOL0     C86520  10.193   1.975   8.000 -0.1823 -0.2613 -0.8633
  656MOL0     C86521  10.288   2.020   7.899  0.1919 -0.7158  0.6723
  656MOL0     C86522  10.331   1.916   7.796 -0.2956 -0.0255 -0.5120
  656MOL0     C86523  10.439   1.979   7.719  0.5347 -0.8480  0.5618
  656MOL0     C86524  10.531   2.036   7.656  0.4941  0.6309  0.6116
  656MOL0     C86525   9.802   2.056   7.768  0.6870 -0.6172 -0.2476
  656MOL0     C86526   9.664   2.049   7.754  0.2242 -0.0818 -0.5011
  656MOL0     H86527   9.146   2.171   7.983 -0.7140  0.4979  2.5101
  656MOL0     H86528   8.913   2.043   8.000 -1.6256 -3.1279  0.6275
  656MOL0     H86529   8.922   1.719   8.257 -1.6715  2.8131  0.9431
  656MOL0     H86530   8.895   1.603   8.119 -0.0372 -1.6780  2.4907
  656MOL0     H86531   8.682   1.750   8.290 -2.2169 -1.8194  0.4187
  656MOL0     H86532   8.709   1.585   8.247 -0.1541 -1.6195 -2.4496
  656MOL0     H86533   8.635   1.809   8.043 -1.5763  1.1916  2.0808
  656MOL0     H86534   8.508   1.708   8.116  0.0665 -1.0572 -0.1511
  656MOL0     H86535   8.738   1.607   7.972 -0.6638  3.2093 -1.9451
  656MOL0     H86536   8.617   1.499   8.038  0.0984 -1.5232 -1.2324
  656MOL0     H86537   8.460   1.570   7.859 -0.0633 -1.8414  0.8190
  656MOL0     H86538   8.627   1.513   7.805  1.5170  0.9997 -0.2907
  656MOL0     H86539   8.680   1.730   7.730 -0.7897 -0.1796 -2.9264
  656MOL0     H86540   8.553   1.809   7.829 -0.5658 -0.0114 -0.7195
  656MOL0     H86541   8.559   1.735   7.549 -0.0490 -0.3672  0.0795
  656MOL0     H86542   8.428   1.641   7.627  0.6027 -0.6698  1.7633
  656MOL0     H86543   8.341   1.868   7.526  1.2596 -0.7814 -1.0294
  656MOL0     H86544   8.465   1.956   7.619  0.1349  0.3744  2.3563
  656MOL0     H86545   8.420   1.960   7.889 -0.1637  1.9606  0.2431
  656MOL0     H86546   8.194   2.071   8.057  4.0900  0.3792  2.8293
  656MOL0     H86547   8.265   1.922   8.105 -1.3710 -0.8329  0.5502
  656MOL0     H86548   8.063   1.894   8.209  2.9373 -3.9233 -0.2018
  656MOL0     H86549   8.031   1.802   8.060 -0.6469  1.5015 -1.9318
  656MOL0     H86550   7.974   2.099   8.081  1.9331  0.8128 -2.6455
  656MOL0     H86551   7.948   2.003   7.941 -4.7043 -4.1109  0.5295
  656MOL0     H86552   7.806   1.863   8.136  0.6782  1.1793  1.8206
  656MOL0     H86553   7.737   1.964   8.002 -0.6431  1.6182  0.2398
  656MOL0     H86554   7.741   2.163   8.414 -1.5359  1.6543 -0.1436
  656MOL0     H86555   7.591   2.100   8.575  0.5249  1.0602 -0.0613
  656MOL0     H86556   7.138   2.090   8.662  1.4580  0.7691  0.7062
  656MOL0     H86557   6.962   2.074   8.846  0.9861  2.5212 -1.2398
  656MOL0     H86558   6.842   2.042   9.035 -0.6766  3.0406  2.4916
  656MOL0     H86559   6.980   2.121   9.110 -0.6572  0.9537 -1.5905
  656MOL0     H86560   6.940   1.992   9.317  1.7212  0.9023 -1.4042
  656MOL0     H86561   6.804   1.906   9.248 -0.4716  0.0118  1.1837
  656MOL0     H86562   6.675   2.124   9.224 -0.3403 -0.9730  1.6365
  656MOL0     H86563   6.831   2.213   9.259  1.5235 -0.6702  1.8731
  656MOL0     H86564   6.654   2.075   9.452 -0.6634 -0.0332 -2.9690
  656MOL0     H86565   6.828   2.119   9.481 -0.0792 -0.2853  0.2007
  656MOL0     H86566   6.580   2.295   9.415 -0.1231  0.1269  0.9124
  656MOL0     H86567   6.744   2.348   9.426  1.0225 -1.1948 -0.2922
  656MOL0     H86568   6.603   2.188   9.636  1.0509 -0.2215 -0.3023
  656MOL0     H86569   6.588   2.367   9.635 -1.2215 -1.3076 -0.6951
  656MOL0     H86570   6.866   2.218   9.660  0.2990  1.1526  0.0522
  656MOL0     H86571   6.826   2.392   9.680  0.0692 -0.0088 -0.0133
  656MOL0     H86572   6.689   2.363   9.873 -2.0070 -1.2800 -1.2766
  656MOL0     H86573   6.843   2.285   9.912 -0.4729  0.4620  1.8427
  656MOL0     H86574   7.215   1.792   9.047  1.8547  2.4644  0.7695
  656MOL0     H86575   7.385   1.805   8.897 -1.3977 -0.6534  2.1810
  656MOL0     H86576   7.336   1.913   8.266  0.9007  0.0627 -0.0611
  656MOL0     H86577   7.525   1.949   8.108  0.4413  0.2210 -0.0912
  656MOL0     H86578   9.113   1.687   8.115 -2.7839  0.5097  2.3633
  656MOL0     H86579   9.334   1.792   8.083  0.9149  0.7343 -0.3816
  656MOL0     H86580   9.593   2.048   8.089 -0.7791  3.0415  0.3771
  656MOL0     H86581   9.845   2.042   8.104 -1.0345  2.2807  0.8517
  656MOL0     H86582  10.075   1.839   7.875 -2.6494 -1.2269  0.7524
  656MOL0     H86583  10.009   1.891   8.038  2.3632 -0.7594  1.0413
  656MOL0     H86584  10.176   2.045   8.082 -0.6326 -2.5714  1.1548
  656MOL0     H86585  10.234   1.887   8.051 -2.8178  0.1987  2.3793
  656MOL0     H86586  10.382   2.062   7.936 -0.2056  1.4770 -0.6615
  656MOL0     H86587  10.255   2.099   7.832 -0.9765 -1.2466  0.5912
  656MOL0     H86588  10.369   1.830   7.852 -2.0590  0.0884  0.9554
  656MOL0     H86589  10.257   1.873   7.728 -1.8401 -1.1467  1.7414
  656MOL0     H86590  10.593   2.095   7.592 -1.2523  1.1958 -0.6538
  656MOL0     H86591   9.857   2.066   7.675 -1.4876  0.5895 -1.4815
  656MOL0     H86592   9.617   2.038   7.656 -1.2661  1.2254  0.0400
  657MOL0     O86593   4.312  10.724   6.467  0.3200 -0.0156  0.5651
  657MOL0     C86594   4.290  10.600   6.469  0.3821 -0.3747 -0.9324
  657MOL0     O86595   4.387  10.507   6.426 -0.3916 -0.5641  0.1184
  657MOL0     C86596   4.505  10.552   6.395 -0.4051  0.0707  0.2601
  657MOL0     C86597   4.530  10.605   6.266 -0.6481  0.7369 -0.0875
  657MOL0     C86598   4.663  10.637   6.221 -0.3682 -0.4217 -0.1729
  657MOL0     C86599   4.766  10.633   6.322 -0.7418 -0.3427  0.2546
  657MOL0     O86600   4.897  10.654   6.300 -0.6672  0.2321 -0.4624
  657MOL0     C86601   4.938  10.673   6.164 -0.7265 -0.7905  0.1589
  657MOL0     C86602   5.082  10.649   6.153  0.6824 -0.1978  0.7859
  657MOL0     C86603   5.123  10.602   6.011  0.5332  0.5746 -0.3569
  657MOL0     C86604   5.076  10.694   5.896 -0.1577 -0.2031 -0.1002
  657MOL0     C86605   5.099  10.626   5.771 -0.6702  0.7602 -0.7296
  657MOL0     C86606   5.051  10.708   5.648  0.6037 -0.9705  0.6540
  657MOL0     C86607   5.055  10.640   5.510  0.1400  0.3391  0.4238
  657MOL0     C86608   5.074  10.726   5.381 -0.6597 -0.1104  0.9584
  657MOL0     N86609   5.197  10.808   5.386  0.2804 -0.3396  0.6023
  657MOL0     C86610   5.320  10.761   5.362 -0.4091  0.1720  0.1720
  657MOL0     C86611   5.404  10.862   5.388 -0.3459 -0.2497  0.1028
  657MOL0     C86612   5.559  10.866   5.382 -0.4848  0.3814  0.4693
  657MOL0     C86613   5.612  10.934   5.259 -0.2305  1.1854 -0.0263
  657MOL0     C86614   5.765  10.922   5.214  0.3052  0.5799  0.3913
  657MOL0     C86615   5.861  10.963   5.322  0.1933  0.2507 -0.3127
  657MOL0     O86616   5.994  10.946   5.275 -0.3498  0.4713  0.9009
  657MOL0     C86617   6.066  11.042   5.201 -0.4474  0.8737 -0.3288
  657MOL0     C86618   6.197  11.012   5.182  0.1371  0.3684 -0.0835
  657MOL0     C86619   6.282  11.088   5.099 -0.4124 -0.0625 -0.3923
  657MOL0     C86620   6.236  11.203   5.036  0.4286  0.5617  0.8807
  657MOL0     C86621   6.321  11.278   4.942 -0.2157 -0.2995 -0.0929
  657MOL0     O86622   6.453  11.260   4.955  0.2654 -0.4074 -0.0508
  657MOL0     C86623   6.541  11.338   4.889  0.6569  0.0149 -0.8206
  657MOL0     C86624   6.536  11.348   4.761  0.1215  0.2023  0.1657
  657MOL0     C86625   6.632  11.425   4.691  0.6626  0.2281 -0.0384
  657MOL0     C86626   6.746  11.484   4.754  0.5068 -0.3160 -1.0462
  657MOL0     O86627   6.858  11.540   4.690  0.2228  0.5403 -0.0490
  657MOL0     C86628   6.896  11.458   4.579  0.0956  0.0155  0.5023
  657MOL0     C86629   7.025  11.511   4.523  0.4531 -0.2225  0.1608
  657MOL0     C86630   7.135  11.484   4.637 -0.1287  0.3231  0.7702
  657MOL0     C86631   7.264  11.556   4.591  0.1819 -0.6412 -0.2266
  657MOL0     C86632   7.388  11.539   4.691 -0.8878 -0.1621  0.2871
  657MOL0     C86633   7.505  11.638   4.667  0.9083  0.3874  0.2762
  657MOL0     C86634   7.563  11.632   4.527  0.2336 -0.0369 -0.2076
  657MOL0     C86635   7.681  11.717   4.512 -0.7699 -0.3324  0.3828
  657MOL0    Cl86636   7.639  11.903   4.531  0.2830 -0.3693 -0.7266
  657MOL0     C86637   6.755  11.464   4.892 -0.5347 -0.3764  0.5245
  657MOL0     C86638   6.657  11.386   4.951  0.4187 -0.5148 -0.9415
  657MOL0     O86639   6.269  11.349   4.859  0.8461  0.0378  0.7581
  657MOL0     C86640   6.098  11.233   5.055  0.0726  0.3752  0.8298
  657MOL0     C86641   6.008  11.151   5.135 -0.0866 -0.1217  0.1652
  657MOL0     N86642   5.332  10.975   5.421 -0.5271  0.1651 -0.5803
  657MOL0     N86643   5.206  10.939   5.431  0.3333  0.4050 -0.1069
  657MOL0     C86644   4.732  10.589   6.455  0.6223 -0.0985 -0.9526
  657MOL0     C86645   4.607  10.543   6.490 -0.8813  0.5377  0.2163
  657MOL0     C86646   4.162  10.545   6.510  0.3469 -0.0697 -0.4225
  657MOL0     C86647   4.058  10.630   6.541 -0.0896  0.9895  0.5699
  657MOL0     C86648   3.929  10.578   6.568  0.7856 -0.1478 -0.0758
  657MOL0     C86649   3.900  10.446   6.552 -0.0675 -0.2945 -0.2290
  657MOL0     O86650   3.777  10.405   6.588 -0.1098 -0.3441 -0.4405
  657MOL0     C86651   3.668  10.450   6.508 -0.6808  0.2846 -0.2460
  657MOL0     C86652   3.543  10.380   6.553  1.1284  0.6347  0.5639
  657MOL0     C86653   3.554  10.227   6.533 -0.6790 -0.2699  0.1857
  657MOL0     C86654   3.420  10.153   6.539  0.4374 -0.6933 -0.0875
  657MOL0     C86655   3.432  10.009   6.538  0.5215  0.4107 -0.9299
  657MOL0     C86656   3.435   9.885   6.544 -0.3669 -1.0762  0.1852
  657MOL0     C86657   4.001  10.357   6.521 -0.2575 -1.0461  0.2517
  657MOL0     C86658   4.133  10.404   6.509  0.1014 -0.5024  0.2382
  657MOL0     H86659   4.448  10.607   6.195 -0.5029  0.5229 -0.2621
  657MOL0     H86660   4.673  10.674   6.120 -0.4177  0.8386  0.2673
  657MOL0     H86661   4.915  10.773   6.126 -0.9830 -0.6590  0.6508
  657MOL0     H86662   4.879  10.604   6.103 -0.4011 -1.0496  0.1297
  657MOL0     H86663   5.109  10.574   6.228  1.6569 -0.0592  0.5917
  657MOL0     H86664   5.142  10.738   6.174  0.5645  0.5817 -1.8589
  657MOL0     H86665   5.080  10.505   5.987 -2.8264  0.9446  3.1941
  657MOL0     H86666   5.230  10.594   5.994  0.5017 -0.2509 -0.2159
  657MOL0     H86667   4.970  10.718   5.904 -0.3825 -1.1476 -0.0847
  657MOL0     H86668   5.128  10.790   5.905  0.5859 -0.7250  1.8364
  657MOL0     H86669   5.052  10.528   5.761  1.6850 -0.2085 -3.3396
  657MOL0     H86670   5.207  10.613   5.761 -0.5635  0.4005  0.6802
  657MOL0     H86671   5.113  10.797   5.658 -1.2443  0.1891  2.8752
  657MOL0     H86672   4.944  10.726   5.664  0.7837  0.6338  0.1557
  657MOL0     H86673   5.140  10.573   5.518  0.9606  1.3710  0.5986
  657MOL0     H86674   4.966  10.577   5.498  1.9260 -1.9119 -2.1285
  657MOL0     H86675   4.984  10.786   5.365 -0.0933  0.4638 -0.2559
  657MOL0     H86676   5.084  10.662   5.293 -1.5940  0.5468  0.3537
  657MOL0     H86677   5.345  10.659   5.335  0.2026 -0.4606  2.8188
  657MOL0     H86678   5.590  10.761   5.380 -1.9627 -0.0660 -0.7668
  657MOL0     H86679   5.594  10.919   5.471 -2.6169  1.0760  0.9530
  657MOL0     H86680   5.583  11.039   5.272 -0.0129  1.0031  2.4382
  657MOL0     H86681   5.547  10.886   5.185 -3.2632  0.8179  2.6557
  657MOL0     H86682   5.790  10.819   5.186 -0.5179 -0.2733  2.5970
  657MOL0     H86683   5.778  10.992   5.131 -3.1967  0.8919 -0.0150
  657MOL0     H86684   5.850  10.892   5.405 -1.0474  2.8052  1.8696
  657MOL0     H86685   5.841  11.065   5.358 -0.0363  0.3218 -0.6450
  657MOL0     H86686   6.240  10.920   5.219 -0.5191  0.9240  2.2059
  657MOL0     H86687   6.384  11.055   5.082  0.4530  2.0927  0.2380
  657MOL0     H86688   6.447  11.313   4.710 -1.1440  1.1528  1.6059
  657MOL0     H86689   6.611  11.437   4.585  1.2457 -1.6218 -0.3975
  657MOL0     H86690   6.818  11.475   4.504  0.1126  0.0017  0.4814
  657MOL0     H86691   6.900  11.350   4.596  2.4023 -0.4455 -2.2837
  657MOL0     H86692   7.015  11.619   4.506 -1.9921 -0.4593 -0.2716
  657MOL0     H86693   7.052  11.478   4.422  0.2312  2.8679 -1.0123
  657MOL0     H86694   7.156  11.378   4.655 -1.4262 -0.4174 -1.6029
  657MOL0     H86695   7.095  11.532   4.727 -3.0532 -0.4655  0.0037
  657MOL0     H86696   7.289  11.517   4.492 -0.7819  1.2369 -1.2809
  657MOL0     H86697   7.254  11.665   4.581 -1.2613 -0.8849 -1.9337
  657MOL0     H86698   7.425  11.436   4.686  2.0106  0.7001  1.7420
  657MOL0     H86699   7.368  11.553   4.797  0.5708  3.4793  0.2341
  657MOL0     H86700   7.585  11.610   4.737  0.7516  0.2858  0.4139
  657MOL0     H86701   7.474  11.738   4.700  3.0017  0.5418  2.0433
  657MOL0     H86702   7.598  11.534   4.494  2.1322  0.5164  0.0392
  657MOL0     H86703   7.492  11.657   4.447 -0.0591 -0.6121 -0.1337
  657MOL0     H86704   7.727  11.688   4.418 -0.1053 -2.0973  1.2080
  657MOL0     H86705   7.742  11.696   4.600  0.7269  1.2228 -0.2291
  657MOL0     H86706   6.837  11.503   4.952  0.9665  3.0707 -3.3384
  657MOL0     H86707   6.654  11.366   5.058  0.0119 -0.1393 -0.8816
  657MOL0     H86708   6.066  11.329   5.015 -0.1427 -0.0273  0.0085
  657MOL0     H86709   5.904  11.179   5.153  0.7476  3.1896  0.5054
  657MOL0     H86710   4.812  10.573   6.527  1.5025 -0.2444 -1.9427
  657MOL0     H86711   4.586  10.491   6.582  2.0856 -2.8156 -0.8032
  657MOL0     H86712   4.085  10.735   6.549  4.2322 -0.0578  2.8694
  657MOL0     H86713   3.849  10.648   6.591 -0.9888 -1.8561 -0.7732
  657MOL0     H86714   3.706  10.441   6.406  0.5042 -2.8874  0.3668
  657MOL0     H86715   3.655  10.555   6.535 -0.0877  1.0548 -2.7421
  657MOL0     H86716   3.529  10.407   6.659  2.3000 -0.3088  0.9847
  657MOL0     H86717   3.463  10.417   6.489  1.5813  0.7339  0.0524
  657MOL0     H86718   3.619  10.182   6.609  1.2445  1.5662 -0.2858
  657MOL0     H86719   3.592  10.221   6.431 -0.4843 -1.1807  0.3058
  657MOL0     H86720   3.375  10.179   6.635  0.0502  1.1239 -0.7022
  657MOL0     H86721   3.355  10.185   6.457  1.8062  2.5076 -0.1005
  657MOL0     H86722   3.429   9.779   6.557  0.1665 -1.1242  0.0819
  657MOL0     H86723   3.992  10.250   6.507  3.2172 -1.6573  1.4148
  657MOL0     H86724   4.223  10.344   6.501  0.8697  0.5625  0.7300
  658MOL0     O86725   4.286   8.300   9.355 -0.2323  0.4606  0.1841
  658MOL0     C86726   4.320   8.332   9.237 -0.5518 -0.4115 -0.8522
  658MOL0     O86727   4.247   8.304   9.129  0.0517  0.2865 -0.0244
  658MOL0     C86728   4.118   8.260   9.127  0.2078  0.3572 -0.1501
  658MOL0     C86729   4.056   8.269   9.001 -0.1920 -0.1862 -0.2912
  658MOL0     C86730   3.919   8.252   8.998  0.1764 -0.4189  0.0363
  658MOL0     C86731   3.839   8.211   9.103 -1.0877  0.2881  0.6435
  658MOL0     O86732   3.715   8.181   9.077  0.8077  0.0549 -0.6510
  658MOL0     C86733   3.615   8.218   9.175 -0.3933 -0.2509  0.6168
  658MOL0     C86734   3.469   8.184   9.121 -0.5695 -0.8612 -0.1032
  658MOL0     C86735   3.411   8.299   9.028  0.4752  0.4370 -0.1401
  658MOL0     C86736   3.474   8.306   8.880 -0.1526  0.0657 -0.3768
  658MOL0     C86737   3.593   8.408   8.875  0.2765  1.2083 -0.2480
  658MOL0     C86738   3.683   8.377   8.759 -0.8678  0.4138  0.7001
  658MOL0     C86739   3.626   8.416   8.625  0.2223 -1.2709  0.2476
  658MOL0     C86740   3.603   8.568   8.620  0.8939  0.2730  0.1397
  658MOL0     N86741   3.555   8.603   8.493  0.4986 -0.0304  0.4709
  658MOL0     C86742   3.427   8.596   8.454 -0.1111  0.5260  0.8091
  658MOL0     C86743   3.426   8.629   8.324  0.0712 -0.1776  0.5804
  658MOL0     C86744   3.311   8.636   8.230  0.1395 -0.8023  0.0935
  658MOL0     C86745   3.335   8.553   8.105 -0.3437  1.9045  0.0623
  658MOL0     C86746   3.228   8.571   7.996 -0.1330 -0.1766  0.1267
  658MOL0     C86747   3.097   8.503   8.016 -1.2434  0.5355  0.5833
  658MOL0     O86748   3.027   8.550   8.134  0.0498  0.8134 -1.3087
  658MOL0     C86749   2.903   8.609   8.121 -0.0747  0.3972 -0.2925
  658MOL0     C86750   2.873   8.720   8.040 -0.5690  0.3909 -0.0326
  658MOL0     C86751   2.746   8.752   8.012  0.4854  0.4466  0.1460
  658MOL0     C86752   2.639   8.700   8.084  0.0580  0.2939  0.1556
  658MOL0     C86753   2.501   8.728   8.062  0.7290  0.4555  0.3822
  658MOL0     O86754   2.414   8.713   8.163 -0.8793 -0.5582  0.3104
  658MOL0     C86755   2.286   8.759   8.148 -1.0097  0.1895 -0.6521
  658MOL0     C86756   2.199   8.712   8.244 -0.4056  0.2156 -0.4519
  658MOL0     C86757   2.075   8.766   8.265 -0.7789 -0.7056  0.7460
  658MOL0     C86758   2.021   8.868   8.178 -0.5727 -0.5238 -0.1940
  658MOL0     O86759   1.885   8.889   8.186  0.1288 -0.0314  1.0813
  658MOL0     C86760   1.824   8.909   8.053 -0.7388 -0.5137 -0.3251
  658MOL0     C86761   1.671   8.917   8.075 -0.1068  0.2759 -0.1507
  658MOL0     C86762   1.582   8.895   7.946 -0.7452 -0.6626 -0.5318
  658MOL0     C86763   1.572   8.739   7.919  0.3929 -0.2063  0.1901
  658MOL0     C86764   1.475   8.665   8.002  0.4796 -0.1499 -0.7511
  658MOL0     C86765   1.447   8.531   7.942  0.3568  0.8626 -0.5397
  658MOL0     C86766   1.353   8.438   8.029 -0.0899 -0.5028  0.0418
  658MOL0     C86767   1.276   8.333   7.949  0.0986  0.5021  0.4817
  658MOL0    Cl86768   1.185   8.419   7.827 -0.3318  0.6869  0.4646
  658MOL0     C86769   2.113   8.931   8.097 -0.0594  0.3749  0.5024
  658MOL0     C86770   2.243   8.877   8.080 -0.1657  0.2135 -1.1064
  658MOL0     O86771   2.471   8.783   7.953 -0.1882 -0.2553 -0.5554
  658MOL0     C86772   2.673   8.616   8.195  0.1149 -0.2992  0.6377
  658MOL0     C86773   2.803   8.565   8.206  0.0799 -0.6647  1.2232
  658MOL0     N86774   3.555   8.661   8.295 -0.7545 -0.1522  0.7655
  658MOL0     N86775   3.636   8.650   8.398  0.6501  0.0322 -0.2110
  658MOL0     C86776   3.908   8.190   9.236  0.2162  0.4127  0.0436
  658MOL0     C86777   4.048   8.209   9.242 -0.5297 -1.2663 -0.0303
  658MOL0     C86778   4.450   8.408   9.212  0.2357  0.0371 -0.1088
  658MOL0     C86779   4.540   8.426   9.318 -0.1897 -0.1783  1.0123
  658MOL0     C86780   4.651   8.512   9.303  0.1451 -0.1219  0.3242
  658MOL0     C86781   4.672   8.589   9.193 -1.1311 -1.3302  0.0898
  658MOL0     O86782   4.764   8.688   9.179 -0.6340  0.0486 -0.5631
  658MOL0     C86783   4.870   8.703   9.272  0.0155 -0.4722  0.0503
  658MOL0     C86784   4.989   8.611   9.237 -0.2916 -0.1663 -0.5018
  658MOL0     C86785   5.117   8.627   9.324 -0.4188 -0.1186 -0.1511
  658MOL0     C86786   5.235   8.517   9.302  0.7886  1.4560 -0.1320
  658MOL0     C86787   5.180   8.383   9.332  0.2236  0.4843 -0.8397
  658MOL0     C86788   5.140   8.273   9.365  0.2147  0.2263 -0.3440
  658MOL0     C86789   4.585   8.563   9.087 -0.4472 -0.2286 -0.3345
  658MOL0     C86790   4.475   8.477   9.094  0.3720  0.3574  0.7734
  658MOL0     H86791   4.119   8.302   8.918  0.3473  0.5481  0.4018
  658MOL0     H86792   3.870   8.257   8.901  1.8521 -0.2729 -0.8389
  658MOL0     H86793   3.617   8.321   9.214 -1.9550  1.0540 -2.3569
  658MOL0     H86794   3.625   8.162   9.267  2.3237 -0.7096  0.1247
  658MOL0     H86795   3.398   8.182   9.204 -1.2798 -3.6152 -0.6857
  658MOL0     H86796   3.465   8.087   9.072 -0.4850 -1.0303  0.2228
  658MOL0     H86797   3.428   8.396   9.076  2.5039  1.5287 -2.7925
  658MOL0     H86798   3.304   8.284   9.009  0.2617 -0.0726  1.3586
  658MOL0     H86799   3.509   8.205   8.857 -1.5616 -1.2576  2.6160
  658MOL0     H86800   3.395   8.333   8.810 -1.7413 -0.2250  1.2231
  658MOL0     H86801   3.649   8.392   8.967 -0.0980 -1.9933 -0.4712
  658MOL0     H86802   3.561   8.513   8.873  1.6325  1.6427 -2.2350
  658MOL0     H86803   3.710   8.272   8.747 -1.0369  0.3714  0.6837
  658MOL0     H86804   3.772   8.439   8.776 -1.4549  1.6580 -0.5792
  658MOL0     H86805   3.697   8.401   8.543  1.1867  1.6897  0.4360
  658MOL0     H86806   3.541   8.352   8.600  0.6000 -0.7237 -2.8612
  658MOL0     H86807   3.691   8.626   8.650 -1.0992  2.3707  2.2869
  658MOL0     H86808   3.518   8.594   8.682  0.1451 -1.6231 -0.0113
  658MOL0     H86809   3.340   8.577   8.517  1.5839 -4.6791  2.0618
  658MOL0     H86810   3.318   8.738   8.190 -0.2868 -0.7011  0.2670
  658MOL0     H86811   3.218   8.616   8.283 -0.6598  2.7739  0.3042
  658MOL0     H86812   3.349   8.448   8.134  3.4441  2.3424  0.3007
  658MOL0     H86813   3.430   8.580   8.059 -0.4569  3.2742  0.5916
  658MOL0     H86814   3.203   8.675   7.970  1.4705  0.2311  0.1238
  658MOL0     H86815   3.281   8.539   7.906  1.0135  4.0215 -0.9135
  658MOL0     H86816   3.120   8.397   8.032  0.3016  0.9963  1.6587
  658MOL0     H86817   3.043   8.526   7.924 -2.1432  3.6219  1.7580
  658MOL0     H86818   2.955   8.763   7.984  0.1088  1.0430  1.4091
  658MOL0     H86819   2.722   8.824   7.934 -2.7466 -0.1822  0.4293
  658MOL0     H86820   2.234   8.634   8.311  0.7381  1.4858  0.4857
  658MOL0     H86821   2.011   8.720   8.340 -1.9027 -2.5465 -1.2520
  658MOL0     H86822   1.844   8.827   7.983  2.2939 -1.7018  1.6914
  658MOL0     H86823   1.867   8.999   8.009  0.0430 -1.1987 -0.9769
  658MOL0     H86824   1.654   9.018   8.114  1.7919 -0.1375  2.0017
  658MOL0     H86825   1.647   8.844   8.153  2.2137  1.7612  2.1160
  658MOL0     H86826   1.640   8.936   7.862  1.6147 -2.6331  0.0080
  658MOL0     H86827   1.481   8.936   7.945 -0.5909 -0.2069 -2.9588
  658MOL0     H86828   1.543   8.726   7.814 -0.0821 -2.6802  0.5854
  658MOL0     H86829   1.673   8.700   7.937  1.4970  2.2942 -0.0644
  658MOL0     H86830   1.381   8.719   8.020 -0.0035 -1.1976 -0.0560
  658MOL0     H86831   1.513   8.649   8.103  0.0118 -0.7518 -0.6638
  658MOL0     H86832   1.539   8.474   7.925 -0.4853 -1.0873  0.9684
  658MOL0     H86833   1.403   8.541   7.843  0.7777 -2.1039 -1.1139
  658MOL0     H86834   1.410   8.389   8.108 -0.6371 -1.3066 -0.0495
  658MOL0     H86835   1.286   8.503   8.087 -0.0611 -1.8249  1.6079
  658MOL0     H86836   1.208   8.276   8.012  2.3517 -1.9969  0.8397
  658MOL0     H86837   1.357   8.270   7.911 -0.4704  0.6933 -1.1303
  658MOL0     H86838   2.075   9.016   8.041  0.5438  0.1760 -0.2248
  658MOL0     H86839   2.308   8.925   8.007 -0.5171 -1.8326 -2.9010
  658MOL0     H86840   2.598   8.582   8.265 -3.0463  1.9009 -1.4189
  658MOL0     H86841   2.827   8.498   8.288 -1.3757 -0.1049  2.1455
  658MOL0     H86842   3.855   8.161   9.326 -3.2089  1.2230 -1.5341
  658MOL0     H86843   4.096   8.208   9.340  2.9182  2.9495 -1.3679
  658MOL0     H86844   4.536   8.384   9.418  0.9683  0.4432  1.3364
  658MOL0     H86845   4.719   8.527   9.386  0.7371  1.3627 -0.3930
  658MOL0     H86846   4.839   8.689   9.377  1.4099 -1.0219  0.4113
  658MOL0     H86847   4.904   8.806   9.277 -1.9565  0.2214  0.2190
  658MOL0     H86848   4.944   8.512   9.247  1.5064 -0.9034  0.7316
  658MOL0     H86849   5.014   8.631   9.132 -1.3887  0.1827 -0.7141
  658MOL0     H86850   5.086   8.629   9.429 -2.4053  4.0441 -0.6090
  658MOL0     H86851   5.162   8.726   9.308  0.9533 -0.6458  0.2701
  658MOL0     H86852   5.283   8.518   9.204  0.9028 -1.0565 -0.1591
  658MOL0     H86853   5.316   8.534   9.374 -0.8756 -0.0225  2.2622
  658MOL0     H86854   5.114   8.173   9.395  0.3739  0.7058  1.4807
  658MOL0     H86855   4.596   8.616   8.993 -1.6733  1.6444  0.5230
  658MOL0     H86856   4.405   8.476   9.012  1.0084  1.7540  0.1687
  659MOL0     O86857   1.838  10.388   8.025  1.3287  0.0064 -0.8559
  659MOL0     C86858   1.870  10.459   7.925 -0.4257 -0.1995  0.0045
  659MOL0     O86859   1.788  10.532   7.846  0.1783 -0.0024  0.1574
  659MOL0     C86860   1.653  10.525   7.868 -0.6446 -0.1039  0.6098
  659MOL0     C86861   1.587  10.650   7.897  0.0064  0.1453 -0.1817
  659MOL0     C86862   1.453  10.656   7.905  1.3454  0.3582  0.4117
  659MOL0     C86863   1.379  10.542   7.872  0.9755  0.5918 -0.4725
  659MOL0     O86864   1.238  10.538   7.875 -0.4478  0.2198  0.0482
  659MOL0     C86865   1.178  10.441   7.964 -0.7212 -0.4741 -0.7783
  659MOL0     C86866   1.030  10.458   7.926  0.6107 -0.2605  0.7789
  659MOL0     C86867   0.995  10.359   7.809  0.1365  0.6876 -0.3561
  659MOL0     C86868   0.851  10.386   7.766 -1.0052 -0.5509 -0.3447
  659MOL0     C86869   0.744  10.336   7.858  2.3798 -0.5323  0.9751
  659MOL0     C86870   0.606  10.382   7.822  0.5319 -1.0438  1.1026
  659MOL0     C86871   0.499  10.338   7.920  0.4363  0.0914  0.6791
  659MOL0     C86872   0.354  10.385   7.893  0.7169  0.3331  0.1282
  659MOL0     N86873   0.341  10.533   7.873  1.1214  0.5722 -0.1094
  659MOL0     C86874   0.411  10.626   7.939  0.2666 -0.1797  0.0812
  659MOL0     C86875   0.404  10.734   7.863 -0.7536  0.2065  0.0470
  659MOL0     C86876   0.482  10.861   7.882 -0.5373 -0.2031  0.9276
  659MOL0     C86877   0.597  10.880   7.772  0.0902 -0.6340 -0.0212
  659MOL0     C86878   0.693  10.759   7.767  0.8330  0.3799  0.8053
  659MOL0     C86879   0.827  10.808   7.708 -0.4025 -0.3593 -1.0940
  659MOL0     O86880   0.809  10.884   7.582 -0.3932  0.3664 -0.0823
  659MOL0     C86881   0.923  10.935   7.519 -0.2394  0.6782 -0.2287
  659MOL0     C86882   1.060  10.894   7.549 -0.8790  0.1484 -0.5265
  659MOL0     C86883   1.166  10.945   7.478 -0.0319 -0.6047 -0.0249
  659MOL0     C86884   1.137  11.065   7.404  0.2701 -0.8386  0.1126
  659MOL0     C86885   1.254  11.138   7.353 -0.6030  0.3509  0.2517
  659MOL0     O86886   1.372  11.076   7.357  0.0403  0.2176 -1.2729
  659MOL0     C86887   1.494  11.131   7.372 -0.4758  0.2120  1.0482
  659MOL0     C86888   1.530  11.236   7.454  0.3102 -0.1317 -0.1199
  659MOL0     C86889   1.664  11.274   7.474  0.5427  0.0117  0.6375
  659MOL0     C86890   1.766  11.203   7.406  0.3755 -1.0820  0.1113
  659MOL0     O86891   1.905  11.230   7.412 -0.0955 -0.2391 -0.2137
  659MOL0     C86892   1.951  11.348   7.477 -0.3687 -1.0065 -0.0037
  659MOL0     C86893   2.103  11.362   7.487  0.4853 -0.1087 -0.0507
  659MOL0     C86894   2.190  11.310   7.364 -0.3045 -0.9726 -0.9372
  659MOL0     C86895   2.192  11.397   7.235  0.2054  0.5523 -0.4859
  659MOL0     C86896   2.322  11.380   7.147 -0.5347 -1.0448  0.4239
  659MOL0     C86897   2.300  11.270   7.046 -0.0858  0.2441 -0.7130
  659MOL0     C86898   2.403  11.279   6.932 -0.1910 -0.2343  0.4434
  659MOL0     C86899   2.544  11.260   6.990  1.3997 -0.7104  1.0339
  659MOL0    Cl86900   2.673  11.267   6.871 -0.2368  0.2300  0.1035
  659MOL0     C86901   1.733  11.103   7.322  0.2027  0.4479  0.0403
  659MOL0     C86902   1.601  11.063   7.306  0.2877  0.0075  0.4754
  659MOL0     O86903   1.245  11.264   7.325 -0.5789 -0.2586 -0.2429
  659MOL0     C86904   1.012  11.116   7.388  0.8673 -0.5316  0.0872
  659MOL0     C86905   0.907  11.046   7.441 -0.7183 -0.1764  0.0218
  659MOL0     N86906   0.320  10.707   7.754  0.1781  0.3151 -0.4512
  659MOL0     N86907   0.287  10.587   7.765  0.1222  0.2281 -0.3690
  659MOL0     C86908   1.448  10.426   7.834 -0.2073  0.8489  0.4315
  659MOL0     C86909   1.586  10.417   7.835  0.1271  0.1568  0.5678
  659MOL0     C86910   2.017  10.455   7.906  0.1880 -0.7673 -0.0202
  659MOL0     C86911   2.067  10.548   7.816  0.5707 -0.5331 -0.2013
  659MOL0     C86912   2.207  10.564   7.799  1.6920  0.0066  0.4619
  659MOL0     C86913   2.295  10.478   7.867 -0.6195 -1.1723 -0.4767
  659MOL0     O86914   2.430  10.489   7.866 -0.6176  0.5911 -0.2207
  659MOL0     C86915   2.507  10.381   7.813 -0.7107 -0.2896  0.9566
  659MOL0     C86916   2.530  10.406   7.658 -0.2686 -0.6742 -0.4171
  659MOL0     C86917   2.459  10.297   7.579  0.1484 -1.0778  0.4369
  659MOL0     C86918   2.484  10.321   7.426  0.1244 -0.0449  0.1785
  659MOL0     C86919   2.455  10.184   7.366 -0.4668 -0.8290 -0.6237
  659MOL0     C86920   2.433  10.084   7.308  0.6680 -0.6085  0.2267
  659MOL0     C86921   2.241  10.378   7.946  0.0525 -0.0581  0.1314
  659MOL0     C86922   2.105  10.371   7.977 -1.1504  0.3637 -0.8588
  659MOL0     H86923   1.645  10.740   7.915  1.5520 -0.7217 -0.7038
  659MOL0     H86924   1.409  10.752   7.931  3.7205  0.6338  4.1355
  659MOL0     H86925   1.185  10.465   8.070  0.4251 -2.3097 -0.3921
  659MOL0     H86926   1.209  10.338   7.945 -2.1324 -0.9348 -0.6453
  659MOL0     H86927   1.012  10.561   7.895  2.9527  0.0347  0.1619
  659MOL0     H86928   0.956  10.437   8.004  0.7256  0.0748  0.9779
  659MOL0     H86929   1.010  10.256   7.843  1.6783  1.0677  0.2002
  659MOL0     H86930   1.062  10.369   7.723 -1.0063 -2.1664 -1.6942
  659MOL0     H86931   0.847  10.493   7.742 -1.7553 -0.2912  0.8661
  659MOL0     H86932   0.833  10.341   7.668 -2.1612 -2.9249  0.8652
  659MOL0     H86933   0.758  10.370   7.961  0.9767 -2.3483  1.8254
  659MOL0     H86934   0.736  10.226   7.856  0.2580 -0.6026  4.7600
  659MOL0     H86935   0.586  10.340   7.723  0.5605 -1.2004  1.1631
  659MOL0     H86936   0.592  10.490   7.828 -3.0959 -1.3680  0.4342
  659MOL0     H86937   0.498  10.228   7.920 -1.4876  0.0730  0.0771
  659MOL0     H86938   0.513  10.387   8.017  2.9394  0.2399  0.3277
  659MOL0     H86939   0.290  10.360   7.979 -0.5152 -0.4356 -0.9831
  659MOL0     H86940   0.304  10.334   7.810 -0.5592  1.7999 -0.0553
  659MOL0     H86941   0.473  10.620   8.028 -2.1829  0.8418  1.9662
  659MOL0     H86942   0.531  10.876   7.979 -0.0628  1.5518  0.4605
  659MOL0     H86943   0.412  10.945   7.870  1.5160  1.2737 -2.0999
  659MOL0     H86944   0.651  10.973   7.794  1.9860 -0.8306 -3.2484
  659MOL0     H86945   0.553  10.882   7.672 -2.3331  1.7069  0.9635
  659MOL0     H86946   0.708  10.706   7.862  2.1322  0.2107  0.5293
  659MOL0     H86947   0.647  10.696   7.691 -1.7567  3.4204 -0.3708
  659MOL0     H86948   0.891  10.719   7.699  0.9359  0.0035  3.0140
  659MOL0     H86949   0.876  10.863   7.789  2.5695 -3.5534 -0.4500
  659MOL0     H86950   1.070  10.818   7.626 -2.2482 -1.1778 -1.5842
  659MOL0     H86951   1.268  10.910   7.492  0.6729  0.0324 -2.9515
  659MOL0     H86952   1.452  11.294   7.502  1.7238  2.0082 -0.2439
  659MOL0     H86953   1.684  11.357   7.540  2.4279 -0.0130  0.1417
  659MOL0     H86954   1.898  11.360   7.572 -0.1349 -3.0641  0.4492
  659MOL0     H86955   1.926  11.433   7.414 -1.3615 -1.3353 -0.0727
  659MOL0     H86956   2.131  11.296   7.570 -1.0340 -0.5937  0.0959
  659MOL0     H86957   2.124  11.468   7.504 -0.4944  0.2033 -0.7175
  659MOL0     H86958   2.160  11.210   7.332  1.7976 -0.6192 -4.6165
  659MOL0     H86959   2.293  11.306   7.400 -0.2907  2.9972 -0.0931
  659MOL0     H86960   2.104  11.377   7.174 -0.3364  0.4385  0.3125
  659MOL0     H86961   2.201  11.502   7.265  0.5309  0.2860  0.3951
  659MOL0     H86962   2.409  11.363   7.211 -0.5001 -0.7902  0.4467
  659MOL0     H86963   2.337  11.468   7.083 -2.6815 -1.0860 -0.2185
  659MOL0     H86964   2.200  11.276   7.004 -1.4963 -0.7693  2.2644
  659MOL0     H86965   2.329  11.176   7.093  0.3746  1.0558  0.7169
  659MOL0     H86966   2.393  11.195   6.863  2.1054 -2.4547  2.5848
  659MOL0     H86967   2.404  11.371   6.872 -1.7591 -1.5556 -1.7679
  659MOL0     H86968   2.557  11.165   7.043 -0.1215 -0.8295  1.2518
  659MOL0     H86969   2.569  11.345   7.053  1.8872  1.8254 -2.3119
  659MOL0     H86970   1.807  11.057   7.258 -1.2522  2.1121 -3.0711
  659MOL0     H86971   1.581  10.974   7.248 -0.0541  1.7693 -2.3140
  659MOL0     H86972   1.002  11.211   7.336 -1.2181 -0.2932  0.8141
  659MOL0     H86973   0.806  11.075   7.415 -2.4216 -5.1181  0.1589
  659MOL0     H86974   1.394  10.345   7.785 -0.7017  0.2957  1.8377
  659MOL0     H86975   1.642  10.332   7.797 -0.0888  1.0096 -1.8096
  659MOL0     H86976   2.013  10.629   7.768 -0.1447 -0.7290  0.2426
  659MOL0     H86977   2.247  10.642   7.735 -0.3013  0.1926 -0.6434
  659MOL0     H86978   2.480  10.277   7.831  1.7875 -1.1830  0.0316
  659MOL0     H86979   2.608  10.388   7.856 -0.5700 -0.7099  0.7043
  659MOL0     H86980   2.486  10.501   7.625  0.9063 -0.5368 -1.6669
  659MOL0     H86981   2.638  10.415   7.642  0.0935 -0.8179  1.6447
  659MOL0     H86982   2.352  10.286   7.601  0.5263  0.9132  3.9910
  659MOL0     H86983   2.509  10.204   7.607  0.0661 -1.3013 -0.1346
  659MOL0     H86984   2.420  10.396   7.381 -1.9286 -1.3384  0.8288
  659MOL0     H86985   2.590  10.344   7.406  0.1313 -1.0000 -1.0092
  659MOL0     H86986   2.409   9.991   7.259  0.2149 -0.5385  0.3061
  659MOL0     H86987   2.316  10.315   7.993  3.2048  3.0125 -0.4087
  659MOL0     H86988   2.077  10.295   8.049  1.0733  2.6208  2.7073
  660MOL0     O86989   1.825   5.938   7.535  0.2247 -0.1527 -0.6702
  660MOL0     C86990   1.733   5.860   7.508  0.0128 -0.9425 -0.2728
  660MOL0     O86991   1.745   5.739   7.452 -0.2279 -0.0428 -0.0985
  660MOL0     C86992   1.848   5.696   7.371 -0.1144 -0.6786  0.5866
  660MOL0     C86993   1.873   5.559   7.374 -0.1577  0.0187 -0.7931
  660MOL0     C86994   1.977   5.501   7.297 -0.0719 -0.2386 -0.4391
  660MOL0     C86995   2.063   5.590   7.218 -0.9398  0.0702  1.0772
  660MOL0     O86996   2.175   5.549   7.141  0.2320  0.2529 -0.6458
  660MOL0     C86997   2.235   5.425   7.168 -0.5315 -1.0258  0.0025
  660MOL0     C86998   2.305   5.381   7.046 -0.0879  0.4558 -0.8207
  660MOL0     C86999   2.395   5.249   7.056 -0.2003  0.1986 -0.2309
  660MOL0     C87000   2.466   5.229   6.913  0.1132  0.0790 -0.4072
  660MOL0     C87001   2.553   5.097   6.920  0.2605  0.5236 -0.3953
  660MOL0     C87002   2.692   5.113   6.855 -0.5341 -0.2352  0.0935
  660MOL0     C87003   2.783   4.982   6.871 -0.1015 -0.2285  0.0473
  660MOL0     C87004   2.903   4.998   6.783  0.0428  0.0198  0.6828
  660MOL0     N87005   2.994   4.899   6.821 -0.1423 -0.0296 -0.2296
  660MOL0     C87006   3.115   4.881   6.757  0.5632 -0.0490  0.2373
  660MOL0     C87007   3.161   4.769   6.808 -0.5579  0.9522 -0.6134
  660MOL0     C87008   3.314   4.737   6.789  0.1039 -1.0819  0.0304
  660MOL0     C87009   3.356   4.600   6.826  0.8072  0.4776 -0.4568
  660MOL0     C87010   3.361   4.589   6.981 -0.0878 -0.4142  0.5694
  660MOL0     C87011   3.350   4.445   7.036 -0.3940  0.3499  1.0792
  660MOL0     O87012   3.229   4.373   7.023 -0.6904  0.2439  0.3758
  660MOL0     C87013   3.140   4.398   7.123  0.0173  0.3150 -0.3124
  660MOL0     C87014   3.156   4.360   7.264  0.2117 -0.4223  0.8220
  660MOL0     C87015   3.063   4.391   7.356  1.1101 -0.1260 -0.0194
  660MOL0     C87016   2.935   4.437   7.325 -0.9388 -0.2849  0.2445
  660MOL0     C87017   2.838   4.461   7.432  0.5145 -0.1197 -0.5864
  660MOL0     O87018   2.853   4.383   7.548 -0.3416 -0.1057 -0.3820
  660MOL0     C87019   2.774   4.378   7.658  0.6724  0.6760 -0.1348
  660MOL0     C87020   2.820   4.375   7.783 -0.3671  0.3176  0.0536
  660MOL0     C87021   2.740   4.376   7.900 -0.4501 -0.6546 -0.0671
  660MOL0     C87022   2.605   4.399   7.886  0.6721  0.7979  0.3033
  660MOL0     O87023   2.536   4.409   8.010  0.1847 -0.2928  0.2756
  660MOL0     C87024   2.394   4.457   8.002 -0.5760 -0.9465 -0.0047
  660MOL0     C87025   2.326   4.461   8.133  0.4643 -1.0693 -0.4730
  660MOL0     C87026   2.191   4.535   8.130 -0.3720 -1.2895  0.2776
  660MOL0     C87027   2.088   4.456   8.053  0.9424 -0.1964  0.1229
  660MOL0     C87028   1.956   4.528   8.029 -0.0138  1.1861 -0.1589
  660MOL0     C87029   1.890   4.573   8.157  0.4668  0.0540 -0.0986
  660MOL0     C87030   1.748   4.631   8.144  0.2199 -0.1152 -0.4714
  660MOL0     C87031   1.736   4.776   8.165 -0.3525  1.4992 -0.2216
  660MOL0    Cl87032   1.571   4.823   8.145 -0.5381  0.0043  0.0214
  660MOL0     C87033   2.547   4.406   7.757  0.3229  0.5259 -0.3011
  660MOL0     C87034   2.632   4.387   7.645  0.2435  0.3272  0.3141
  660MOL0     O87035   2.756   4.552   7.419  0.3895  0.2899  0.3725
  660MOL0     C87036   2.916   4.472   7.189  0.4354  1.1376  0.0006
  660MOL0     C87037   3.016   4.447   7.098 -0.1026  0.2158 -0.0319
  660MOL0     N87038   3.064   4.713   6.891  0.4158 -0.5031 -0.4581
  660MOL0     N87039   2.961   4.786   6.899 -0.9161  0.8992 -0.1708
  660MOL0     C87040   2.038   5.729   7.214 -1.0597  0.2873  0.2953
  660MOL0     C87041   1.930   5.773   7.287 -0.6168  0.2343  0.1644
  660MOL0     C87042   1.599   5.908   7.545 -0.8537 -0.3075  0.6470
  660MOL0     C87043   1.570   6.042   7.590 -0.8065  0.5361  0.0395
  660MOL0     C87044   1.440   6.076   7.614 -0.3484  0.4403 -0.9415
  660MOL0     C87045   1.328   5.990   7.605  0.3548 -0.1407  0.2943
  660MOL0     O87046   1.204   6.053   7.622 -0.3419  0.0902 -0.1825
  660MOL0     C87047   1.082   5.979   7.623  0.1709 -0.2478  0.1265
  660MOL0     C87048   0.981   6.067   7.692  0.1401 -0.1386  0.3154
  660MOL0     C87049   0.837   6.002   7.691 -0.4801  0.1862 -0.2259
  660MOL0     C87050   0.759   6.101   7.781  0.9145 -0.2478  0.8892
  660MOL0     C87051   0.632   6.041   7.816  0.9458 -0.3568  0.3446
  660MOL0     C87052   0.522   6.003   7.845 -0.8207 -0.1799  0.3419
  660MOL0     C87053   1.360   5.859   7.557 -0.5345 -0.1936  0.5165
  660MOL0     C87054   1.492   5.822   7.527  0.1458 -0.5161 -0.0508
  660MOL0     H87055   1.804   5.502   7.437 -0.5336  0.0652 -1.1619
  660MOL0     H87056   1.999   5.395   7.292  3.0598  0.2908 -0.0310
  660MOL0     H87057   2.166   5.344   7.193 -0.6407 -1.1029 -0.5379
  660MOL0     H87058   2.299   5.451   7.253 -1.1307  0.9155 -0.0831
  660MOL0     H87059   2.376   5.461   7.025  1.8347 -1.1290 -0.7187
  660MOL0     H87060   2.235   5.379   6.962 -0.6095 -1.8164 -0.3962
  660MOL0     H87061   2.339   5.163   7.094  2.4687 -2.9971 -2.8935
  660MOL0     H87062   2.476   5.258   7.129 -0.3995  0.9897 -0.0927
  660MOL0     H87063   2.396   5.220   6.830 -0.3886  1.2228 -0.1367
  660MOL0     H87064   2.534   5.313   6.895  2.6537 -1.9004 -0.6304
  660MOL0     H87065   2.500   5.022   6.860  3.0428  0.6599 -3.2296
  660MOL0     H87066   2.562   5.063   7.024 -3.0729  2.8210  0.8169
  660MOL0     H87067   2.741   5.198   6.903  0.6817 -0.7425 -0.2203
  660MOL0     H87068   2.675   5.133   6.749 -1.5782  2.6745  0.7119
  660MOL0     H87069   2.814   4.989   6.976  1.2334  0.9293 -0.3974
  660MOL0     H87070   2.725   4.893   6.842 -0.4894  0.3284 -0.9367
  660MOL0     H87071   2.954   5.094   6.795  0.1539  0.0965 -0.2941
  660MOL0     H87072   2.865   4.982   6.681  2.8013 -0.3773 -0.3931
  660MOL0     H87073   3.166   4.956   6.698 -2.0727  0.6132 -1.3339
  660MOL0     H87074   3.379   4.806   6.844 -1.4057  1.2854 -0.9755
  660MOL0     H87075   3.337   4.751   6.683 -2.5684 -0.6548 -0.5684
  660MOL0     H87076   3.453   4.577   6.780  0.1870  1.8748 -2.6362
  660MOL0     H87077   3.286   4.526   6.786 -1.7830  3.6173 -2.2298
  660MOL0     H87078   3.455   4.628   7.021 -0.3047  0.1049  0.5831
  660MOL0     H87079   3.288   4.654   7.030 -0.5626 -1.3054  1.0695
  660MOL0     H87080   3.385   4.441   7.140 -0.1038 -3.8303  0.9592
  660MOL0     H87081   3.425   4.387   6.982 -1.1961 -0.0726  0.4106
  660MOL0     H87082   3.249   4.311   7.292 -0.0877 -1.0424  0.7350
  660MOL0     H87083   3.099   4.364   7.455  0.0653  0.3559  0.5061
  660MOL0     H87084   2.927   4.358   7.793 -0.0486  1.6692 -0.7928
  660MOL0     H87085   2.786   4.370   7.998 -1.7955 -0.0066  0.6237
  660MOL0     H87086   2.331   4.395   7.936 -2.8477 -2.1464  3.0402
  660MOL0     H87087   2.387   4.558   7.961  0.6773 -0.1202  1.6989
  660MOL0     H87088   2.389   4.525   8.195 -2.4765  2.2903 -0.6881
  660MOL0     H87089   2.324   4.366   8.188  0.2546  0.2639  1.9212
  660MOL0     H87090   2.201   4.635   8.087  1.2732 -1.7674 -0.5216
  660MOL0     H87091   2.165   4.552   8.235  1.2910  1.8932  0.2757
  660MOL0     H87092   2.127   4.413   7.960  0.8091 -1.3831  0.5966
  660MOL0     H87093   2.078   4.364   8.111  1.1382 -1.0537 -1.1626
  660MOL0     H87094   1.885   4.458   7.984 -0.1700  2.5538 -2.1626
  660MOL0     H87095   1.966   4.605   7.951  0.0527  0.6160 -0.7201
  660MOL0     H87096   1.955   4.654   8.192 -0.3552  0.4956  0.4408
  660MOL0     H87097   1.883   4.491   8.229  1.9636 -1.1954 -1.2979
  660MOL0     H87098   1.716   4.614   8.041 -0.7318  2.0324 -0.5866
  660MOL0     H87099   1.687   4.588   8.224 -1.8586  0.4753 -1.6596
  660MOL0     H87100   1.804   4.826   8.095 -0.1971  0.7076 -0.6449
  660MOL0     H87101   1.770   4.800   8.266 -1.6849  1.6014  0.2300
  660MOL0     H87102   2.442   4.417   7.730  0.5014 -0.9780 -1.7923
  660MOL0     H87103   2.601   4.375   7.542 -0.4201 -1.4422  0.6702
  660MOL0     H87104   2.819   4.507   7.155 -0.3386  1.7539  2.6194
  660MOL0     H87105   3.003   4.466   6.992  2.3202  1.1086 -0.2347
  660MOL0     H87106   2.097   5.795   7.151  1.5866 -0.7554  1.5360
  660MOL0     H87107   1.919   5.881   7.281  0.2136  0.2917 -0.4677
  660MOL0     H87108   1.652   6.114   7.594 -0.8288  0.5154  1.8620
  660MOL0     H87109   1.441   6.181   7.641 -0.1132 -0.1006  1.3943
  660MOL0     H87110   1.083   5.880   7.668 -0.8215 -0.4804 -0.3499
  660MOL0     H87111   1.053   5.968   7.518 -0.5601 -0.7704  0.3819
  660MOL0     H87112   1.024   6.075   7.792  0.4708  0.4164  0.1320
  660MOL0     H87113   0.969   6.164   7.643 -0.4288 -0.6918 -0.6703
  660MOL0     H87114   0.833   5.899   7.729 -0.6674 -0.1331 -1.0821
  660MOL0     H87115   0.793   6.003   7.591  1.1527 -0.1097 -0.9894
  660MOL0     H87116   0.813   6.105   7.876  3.8261 -2.0173 -0.5189
  660MOL0     H87117   0.746   6.195   7.726 -0.2375 -0.9378 -0.0783
  660MOL0     H87118   0.418   5.983   7.862 -2.2054  4.7225 -0.7814
  660MOL0     H87119   1.274   5.794   7.542 -1.0671  0.3563  1.0947
  660MOL0     H87120   1.503   5.718   7.498  1.0124 -0.1067 -1.2911
  661MOL0     O87121   2.581   7.275   3.655 -0.5761  0.8272 -0.1673
  661MOL0     C87122   2.595   7.213   3.763  0.4019  1.5636 -0.1897
  661MOL0     O87123   2.496   7.153   3.836 -0.4804  0.7543  0.0242
  661MOL0     C87124   2.365   7.192   3.827  0.8737  0.8884 -0.6961
  661MOL0     C87125   2.308   7.263   3.934 -0.5240  0.3150 -0.2293
  661MOL0     C87126   2.173   7.305   3.937 -0.0007  0.5715 -0.5941
  661MOL0     C87127   2.095   7.283   3.828  0.3161  1.2089  0.0731
  661MOL0     O87128   1.967   7.324   3.819  0.1679  0.1455  0.1976
  661MOL0     C87129   1.888   7.294   3.938 -0.8191  0.2697 -0.3381
  661MOL0     C87130   1.746   7.285   3.908 -0.2597 -0.2672  0.4615
  661MOL0     C87131   1.713   7.147   3.843 -0.2529 -0.2132 -0.7400
  661MOL0     C87132   1.563   7.144   3.807  0.2678 -0.4915 -0.8652
  661MOL0     C87133   1.531   7.020   3.730 -0.4890 -0.2862  0.1552
  661MOL0     C87134   1.494   6.912   3.827 -0.1286 -0.2306 -0.4749
  661MOL0     C87135   1.457   6.773   3.754  0.1787  0.0645 -0.4941
  661MOL0     C87136   1.342   6.770   3.661  0.3227  0.3559  0.6064
  661MOL0     N87137   1.213   6.804   3.725  0.2057  0.3919 -0.3733
  661MOL0     C87138   1.123   6.715   3.781  0.7693 -0.5556  0.0204
  661MOL0     C87139   1.033   6.792   3.838 -0.0322  0.3018 -0.6327
  661MOL0     C87140   0.930   6.749   3.936 -0.2064  0.1615 -0.3225
  661MOL0     C87141   0.802   6.820   3.914  0.6447 -0.0490  0.1877
  661MOL0     C87142   0.689   6.732   3.968  0.1709 -0.7285  0.0872
  661MOL0     C87143   0.549   6.784   3.931  0.3172 -0.7009  0.6938
  661MOL0     O87144   0.451   6.680   3.972  0.2891 -0.1616  0.5099
  661MOL0     C87145   0.316   6.702   3.944  0.0681 -1.1588  0.4279
  661MOL0     C87146   0.279   6.732   3.813  0.1845 -0.4143 -0.6278
  661MOL0     C87147   0.146   6.722   3.766  0.1877 -0.0033  0.1635
  661MOL0     C87148   0.037   6.691   3.860 -0.7714 -0.7744  0.2995
  661MOL0     C87149  -0.110   6.689   3.821  0.6119 -0.3016 -0.3258
  661MOL0     O87150  -0.204   6.641   3.914  0.9344 -0.0842 -0.4569
  661MOL0     C87151  -0.330   6.699   3.888 -0.0020 -0.1346 -0.0036
  661MOL0     C87152  -0.431   6.613   3.853 -0.0999  0.6836  0.5296
  661MOL0     C87153  -0.556   6.656   3.821 -1.0480  0.7046 -0.1257
  661MOL0     C87154  -0.577   6.796   3.815  0.1048  0.2998  0.2680
  661MOL0     O87155  -0.702   6.837   3.782 -0.5831  0.1779 -0.0050
  661MOL0     C87156  -0.733   6.976   3.815  0.0887 -0.3303  0.0890
  661MOL0     C87157  -0.885   6.980   3.847 -0.3110 -0.0407  0.6733
  661MOL0     C87158  -0.921   6.875   3.943  0.1022  0.5166 -0.5489
  661MOL0     C87159  -1.048   6.909   4.018 -0.4494  0.2542  0.6526
  661MOL0     C87160  -1.182   6.873   3.944  0.3232  0.0975 -0.0656
  661MOL0     C87161  -1.292   6.871   4.049  0.3636 -0.6981  0.2857
  661MOL0     C87162  -1.279   6.766   4.157  0.2379 -0.2562 -0.1751
  661MOL0     C87163  -1.406   6.745   4.236  0.4646 -0.6844  0.1981
  661MOL0    Cl87164  -1.523   6.668   4.140 -0.0664 -0.3134  0.3433
  661MOL0     C87165  -0.468   6.883   3.841 -0.2019 -0.1214  0.3318
  661MOL0     C87166  -0.351   6.839   3.898  0.0375  0.2739  0.3823
  661MOL0     O87167  -0.133   6.721   3.702  0.2144 -0.2435 -1.1196
  661MOL0     C87168   0.079   6.659   3.990  0.1010  0.0779 -0.1059
  661MOL0     C87169   0.213   6.675   4.033  1.1890 -0.3331  0.5496
  661MOL0     N87170   1.059   6.924   3.798 -0.2856  0.2835 -0.3063
  661MOL0     N87171   1.171   6.929   3.730 -0.3047 -0.5067 -0.9177
  661MOL0     C87172   2.146   7.206   3.719 -0.1769 -0.2785 -0.5042
  661MOL0     C87173   2.279   7.165   3.718 -0.1645  0.2206  0.1868
  661MOL0     C87174   2.740   7.195   3.810  0.3456  0.1987  1.0507
  661MOL0     C87175   2.863   7.225   3.740  0.2245  1.2202  0.0023
  661MOL0     C87176   2.989   7.216   3.791  0.2126  0.3236 -0.2601
  661MOL0     C87177   3.000   7.173   3.926  0.0927 -0.7208  0.0736
  661MOL0     O87178   3.113   7.160   3.998 -1.1013  0.5043 -0.2070
  661MOL0     C87179   3.221   7.239   3.946 -0.8052 -0.9080 -0.4386
  661MOL0     C87180   3.348   7.222   4.039 -0.1404 -0.3756 -0.6999
  661MOL0     C87181   3.414   7.357   4.079 -0.1033  0.4780  0.0989
  661MOL0     C87182   3.544   7.349   4.162 -1.0301 -0.6038  0.2499
  661MOL0     C87183   3.658   7.305   4.081  0.8769  0.5070 -0.6713
  661MOL0     C87184   3.759   7.281   4.015 -0.7513  0.3147 -0.1714
  661MOL0     C87185   2.888   7.136   3.996 -0.4653  1.0802  0.1510
  661MOL0     C87186   2.765   7.150   3.936 -0.5696  0.0651  0.1202
  661MOL0     H87187   2.363   7.280   4.027 -1.2915 -2.4912  0.8491
  661MOL0     H87188   2.142   7.351   4.030  1.8188  0.5101  0.0928
  661MOL0     H87189   1.898   7.373   4.013  0.5360  2.0204 -2.2323
  661MOL0     H87190   1.927   7.202   3.982  1.1415 -0.4020 -3.2050
  661MOL0     H87191   1.726   7.367   3.839  3.2277 -0.6154 -1.1659
  661MOL0     H87192   1.692   7.302   4.002 -1.3684 -0.3947 -0.1393
  661MOL0     H87193   1.748   7.078   3.920  0.6074  1.3495  0.3128
  661MOL0     H87194   1.778   7.130   3.756  1.4511  2.0488  0.0119
  661MOL0     H87195   1.492   7.157   3.890  0.9865 -1.5256 -0.0640
  661MOL0     H87196   1.545   7.233   3.745  1.1462  0.9298  0.8139
  661MOL0     H87197   1.622   6.990   3.677  0.8063 -0.5770  2.3928
  661MOL0     H87198   1.448   7.038   3.661 -1.3857 -0.8510  1.0597
  661MOL0     H87199   1.402   6.944   3.878 -0.0764 -0.6180 -0.1344
  661MOL0     H87200   1.562   6.895   3.911 -1.4139 -1.7233  0.3119
  661MOL0     H87201   1.545   6.736   3.701  2.4424  1.2896  2.1460
  661MOL0     H87202   1.432   6.706   3.837  0.1421 -0.3156 -0.8135
  661MOL0     H87203   1.333   6.670   3.616  1.0058  1.0474 -1.1452
  661MOL0     H87204   1.359   6.850   3.588  2.9742 -0.1923  0.5144
  661MOL0     H87205   1.134   6.608   3.795 -1.7054 -0.6193  2.3776
  661MOL0     H87206   0.967   6.783   4.033  0.1059  0.4266 -0.5325
  661MOL0     H87207   0.923   6.640   3.936 -0.3363  0.1653 -1.1751
  661MOL0     H87208   0.786   6.845   3.809  1.5770 -1.3691 -0.2946
  661MOL0     H87209   0.807   6.917   3.965 -0.4299 -0.1599  0.5360
  661MOL0     H87210   0.706   6.628   3.936  0.3293 -0.3084 -1.2384
  661MOL0     H87211   0.691   6.729   4.077 -2.9691  0.2888  0.2516
  661MOL0     H87212   0.547   6.802   3.823  0.4759  2.5019  1.1231
  661MOL0     H87213   0.524   6.878   3.983 -1.0728 -2.0085  2.5707
  661MOL0     H87214   0.358   6.768   3.749  0.4565  2.3935  1.0936
  661MOL0     H87215   0.126   6.733   3.660  4.0926 -0.9287 -0.8414
  661MOL0     H87216  -0.417   6.506   3.847 -2.1125  0.4730 -1.7284
  661MOL0     H87217  -0.642   6.589   3.818  0.0342 -1.0816  3.3671
  661MOL0     H87218  -0.704   7.048   3.737  0.3106 -0.0218  0.4557
  661MOL0     H87219  -0.679   6.997   3.908  1.5182 -6.9920  1.2412
  661MOL0     H87220  -0.945   6.969   3.757  0.4957 -1.1468  0.2453
  661MOL0     H87221  -0.908   7.079   3.888 -1.4923  0.6924 -1.5804
  661MOL0     H87222  -0.840   6.860   4.014  2.4593 -1.6937 -3.4738
  661MOL0     H87223  -0.927   6.776   3.898 -4.0066 -0.1542  1.0102
  661MOL0     H87224  -1.038   6.854   4.112  0.5686  2.6945  2.0651
  661MOL0     H87225  -1.041   7.014   4.048  4.3852 -0.3040  2.3353
  661MOL0     H87226  -1.178   6.771   3.905  1.3718 -0.6284  1.8395
  661MOL0     H87227  -1.191   6.941   3.859 -2.6438  1.1632  0.9492
  661MOL0     H87228  -1.385   6.866   3.990  1.8693 -0.1286 -2.2865
  661MOL0     H87229  -1.302   6.966   4.103 -0.1771  0.6865 -2.0791
  661MOL0     H87230  -1.231   6.675   4.121 -0.5635  0.2106 -2.5596
  661MOL0     H87231  -1.210   6.804   4.234 -1.3328 -0.0134  1.1645
  661MOL0     H87232  -1.439   6.844   4.269  3.0477  0.9378 -1.7498
  661MOL0     H87233  -1.390   6.689   4.328  0.5864 -3.2121 -1.2703
  661MOL0     H87234  -0.476   6.991   3.841  3.6595  0.3039  0.0908
  661MOL0     H87235  -0.272   6.907   3.928  2.0997 -2.3674  1.2628
  661MOL0     H87236   0.006   6.628   4.064  0.3428  0.8534  0.4791
  661MOL0     H87237   0.226   6.649   4.137  0.7011  0.2215  0.7481
  661MOL0     H87238   2.085   7.188   3.631 -1.0315  1.4502 -0.2994
  661MOL0     H87239   2.323   7.103   3.640 -2.8915 -1.1162 -0.4089
  661MOL0     H87240   2.858   7.264   3.639  1.2304 -1.9321 -1.3823
  661MOL0     H87241   3.076   7.234   3.728  1.6125 -2.2436  0.7434
  661MOL0     H87242   3.199   7.346   3.938  0.0857 -0.4892  1.9966
  661MOL0     H87243   3.241   7.191   3.849 -1.4155 -3.1450  0.4768
  661MOL0     H87244   3.318   7.166   4.128 -1.4473  1.2962 -0.0359
  661MOL0     H87245   3.424   7.157   3.994  2.4634  0.5131  2.0820
  661MOL0     H87246   3.337   7.417   4.129  0.0328 -0.2804  1.2734
  661MOL0     H87247   3.433   7.413   3.987 -0.2395 -0.2121 -0.3582
  661MOL0     H87248   3.572   7.447   4.199  1.4634 -1.0286 -0.3239
  661MOL0     H87249   3.534   7.288   4.252 -0.4026  2.1681  2.3108
  661MOL0     H87250   3.848   7.265   3.958  0.3527 -2.9313  2.1877
  661MOL0     H87251   2.910   7.099   4.096 -1.4667 -1.2667 -0.4179
  661MOL0     H87252   2.683   7.116   3.998  1.6607 -0.7862  2.8208
  662MOL0     O87253   4.490   6.135   8.423 -0.0878 -1.1778 -0.4671
  662MOL0     C87254   4.484   6.212   8.519 -0.5142  0.0611 -0.4548
  662MOL0     O87255   4.384   6.296   8.544  0.1476  0.3484 -0.5117
  662MOL0     C87256   4.274   6.312   8.454 -2.1058 -0.0996 -0.1019
  662MOL0     C87257   4.181   6.401   8.501 -0.0183  0.0802  0.0371
  662MOL0     C87258   4.061   6.424   8.431 -0.2279 -0.1416 -0.6446
  662MOL0     C87259   4.041   6.365   8.310  0.9464  0.7212  0.8816
  662MOL0     O87260   3.936   6.402   8.230 -0.0878  0.5734 -0.1546
  662MOL0     C87261   3.812   6.443   8.286  0.2863  0.6755  0.4397
  662MOL0     C87262   3.707   6.453   8.182  0.7908  0.3758  0.9495
  662MOL0     C87263   3.562   6.460   8.246  0.0700 -0.6480 -0.3185
  662MOL0     C87264   3.456   6.485   8.140  0.1169 -0.0117  0.0035
  662MOL0     C87265   3.321   6.513   8.207  0.6164 -0.6859 -0.0523
  662MOL0     C87266   3.203   6.554   8.116 -0.8191 -0.2701 -0.1837
  662MOL0     C87267   3.086   6.624   8.187 -0.3270 -0.4208 -0.7242
  662MOL0     C87268   2.967   6.639   8.086  0.1313  0.4366  0.1252
  662MOL0     N87269   2.849   6.693   8.152  0.8425 -0.1085 -0.3477
  662MOL0     C87270   2.847   6.820   8.208  0.2081  0.2495  0.5669
  662MOL0     C87271   2.719   6.836   8.257 -0.2606 -0.8661  0.6887
  662MOL0     C87272   2.664   6.957   8.325  0.0355  0.5709  0.7977
  662MOL0     C87273   2.611   6.922   8.465 -0.0203  0.4987  0.3144
  662MOL0     C87274   2.538   7.042   8.539  0.6555 -0.1179  1.2867
  662MOL0     C87275   2.394   7.045   8.482  0.4633  0.6048  0.1031
  662MOL0     O87276   2.331   7.155   8.552 -0.2169 -0.0972  0.2231
  662MOL0     C87277   2.205   7.191   8.523  0.0356 -0.0217  0.0264
  662MOL0     C87278   2.118   7.212   8.637  0.7077 -1.4560 -0.0327
  662MOL0     C87279   1.985   7.248   8.612 -0.9190  0.1044 -0.9546
  662MOL0     C87280   1.937   7.271   8.482  0.0616 -0.0556 -1.1347
  662MOL0     C87281   1.798   7.311   8.456  0.4033 -0.5671 -0.3268
  662MOL0     O87282   1.724   7.299   8.573  0.2873  0.0801 -0.3914
  662MOL0     C87283   1.591   7.319   8.550  0.0303 -0.3442  0.4050
  662MOL0     C87284   1.496   7.208   8.581 -0.3354  0.1776 -0.0904
  662MOL0     C87285   1.361   7.250   8.588 -0.3031  0.1709  0.7111
  662MOL0     C87286   1.314   7.372   8.552  1.2916 -0.8749 -0.6406
  662MOL0     O87287   1.173   7.387   8.538 -0.3579  0.7501 -0.4051
  662MOL0     C87288   1.128   7.515   8.501 -0.8759 -0.5665 -0.4297
  662MOL0     C87289   0.986   7.527   8.518  0.6603  0.4441 -0.0589
  662MOL0     C87290   0.938   7.643   8.430  0.1655 -0.0563  0.3265
  662MOL0     C87291   0.794   7.641   8.430  0.2511 -0.2701 -0.0836
  662MOL0     C87292   0.737   7.726   8.317  1.0463 -0.2169 -0.5299
  662MOL0     C87293   0.748   7.882   8.336  0.1539 -0.1064 -0.7005
  662MOL0     C87294   0.649   7.947   8.240  0.9302 -0.4607 -0.2193
  662MOL0     C87295   0.650   8.104   8.248  1.1805 -0.2489  0.4373
  662MOL0    Cl87296   0.521   8.147   8.133  0.0618 -0.4733 -0.0353
  662MOL0     C87297   1.409   7.476   8.528  0.6610 -0.0960 -0.1502
  662MOL0     C87298   1.542   7.448   8.526 -0.4836 -0.4130  0.3771
  662MOL0     O87299   1.770   7.364   8.347 -1.2437 -1.0383  0.3614
  662MOL0     C87300   2.031   7.255   8.374 -0.5535  0.5858 -0.2341
  662MOL0     C87301   2.166   7.212   8.393 -0.9117  1.0424 -0.1412
  662MOL0     N87302   2.653   6.723   8.229 -0.6568  0.0126  0.2231
  662MOL0     N87303   2.730   6.630   8.171  0.1253 -0.0916 -0.1550
  662MOL0     C87304   4.131   6.281   8.258  1.2093  1.0259  0.2228
  662MOL0     C87305   4.248   6.251   8.332 -0.0217 -0.1203  1.0925
  662MOL0     C87306   4.587   6.201   8.622 -0.7462  0.5030  0.1378
  662MOL0     C87307   4.577   6.261   8.749 -0.1260  0.3068 -0.5102
  662MOL0     C87308   4.684   6.266   8.843 -0.8574 -0.2113 -0.6766
  662MOL0     C87309   4.804   6.196   8.810  0.7161  0.1411 -0.0322
  662MOL0     O87310   4.924   6.211   8.872  0.1426  0.4582  0.1627
  662MOL0     C87311   4.919   6.258   9.008 -0.4133 -0.8431  0.5845
  662MOL0     C87312   5.036   6.219   9.085 -0.1616  0.1707 -0.0815
  662MOL0     C87313   5.168   6.276   9.034  0.6592 -0.7936  0.0225
  662MOL0     C87314   5.302   6.214   9.087  0.2715  0.6408 -1.1853
  662MOL0     C87315   5.308   6.070   9.051  0.2926 -0.2563 -0.5199
  662MOL0     C87316   5.300   5.958   9.008  0.4326  0.1052 -0.5403
  662MOL0     C87317   4.808   6.116   8.694 -0.8597 -0.4023 -0.3370
  662MOL0     C87318   4.706   6.122   8.598  1.1146 -0.0854  0.2954
  662MOL0     H87319   4.187   6.458   8.592 -0.4498  1.6681 -0.8933
  662MOL0     H87320   3.990   6.495   8.474 -1.6170 -0.2054 -2.6882
  662MOL0     H87321   3.813   6.538   8.341  0.9598  2.7429 -2.8713
  662MOL0     H87322   3.768   6.373   8.358 -3.0482 -0.4816 -2.4734
  662MOL0     H87323   3.702   6.370   8.111 -1.9182  1.5192 -0.3551
  662MOL0     H87324   3.720   6.540   8.116 -0.0396 -0.1614  0.0599
  662MOL0     H87325   3.566   6.535   8.326  0.5180 -1.9171  0.9097
  662MOL0     H87326   3.534   6.364   8.292 -4.9484 -0.7989 -2.9811
  662MOL0     H87327   3.479   6.576   8.085 -0.2908  1.8488  2.6923
  662MOL0     H87328   3.447   6.403   8.069 -1.8207  1.3708 -1.4537
  662MOL0     H87329   3.332   6.593   8.281  0.7441  1.2045 -2.0384
  662MOL0     H87330   3.289   6.420   8.256  0.6342 -0.6027  0.1173
  662MOL0     H87331   3.147   6.476   8.064 -1.1962 -0.0324 -0.1398
  662MOL0     H87332   3.239   6.621   8.037 -0.5962 -0.2616 -0.0747
  662MOL0     H87333   3.060   6.567   8.277 -1.3603 -0.1144 -0.8057
  662MOL0     H87334   3.117   6.721   8.225 -0.4049 -1.4427  2.1502
  662MOL0     H87335   2.951   6.542   8.036 -0.0517  0.2092  0.6176
  662MOL0     H87336   2.997   6.713   8.012 -2.1033  0.4214 -0.8842
  662MOL0     H87337   2.925   6.895   8.203 -1.8980  2.5842  1.1043
  662MOL0     H87338   2.580   6.992   8.264  0.5952  0.8602  0.1711
  662MOL0     H87339   2.740   7.034   8.344  0.3156  0.5869 -0.3401
  662MOL0     H87340   2.696   6.899   8.530 -0.9093  2.0063  2.1170
  662MOL0     H87341   2.549   6.832   8.459 -1.9143  1.7625 -0.2263
  662MOL0     H87342   2.532   7.006   8.642  2.0516 -0.8590  1.1330
  662MOL0     H87343   2.579   7.142   8.524 -1.8850  0.6305 -1.6732
  662MOL0     H87344   2.333   6.955   8.493  0.4570  0.2540 -2.3348
  662MOL0     H87345   2.400   7.056   8.373  1.1047 -0.8104 -0.0222
  662MOL0     H87346   2.157   7.194   8.736  0.0464 -1.6998  0.1885
  662MOL0     H87347   1.930   7.257   8.705  1.9266  0.6675  0.8262
  662MOL0     H87348   1.527   7.108   8.611 -2.1121  0.2228  2.1380
  662MOL0     H87349   1.295   7.167   8.614  1.8838 -1.0095  2.9266
  662MOL0     H87350   1.152   7.534   8.396 -1.6554  1.6338 -0.2726
  662MOL0     H87351   1.175   7.599   8.553  1.4176 -1.5968 -0.7191
  662MOL0     H87352   0.949   7.541   8.620 -1.0382  0.0745 -0.5960
  662MOL0     H87353   0.941   7.433   8.485 -0.0625  1.5153 -2.3621
  662MOL0     H87354   0.966   7.619   8.327 -2.6661 -1.0339 -0.2931
  662MOL0     H87355   0.989   7.735   8.459 -1.2053  1.1559 -0.9747
  662MOL0     H87356   0.773   7.536   8.405 -0.3033 -0.1269 -0.2361
  662MOL0     H87357   0.757   7.648   8.533  2.6367 -3.1547  1.1403
  662MOL0     H87358   0.629   7.707   8.323  0.7395  1.6277  0.8644
  662MOL0     H87359   0.778   7.692   8.222  2.6404 -1.2898  0.5018
  662MOL0     H87360   0.844   7.915   8.296  0.0108  0.5416 -0.5059
  662MOL0     H87361   0.745   7.917   8.440 -0.7476 -1.5414 -0.2054
  662MOL0     H87362   0.684   7.922   8.139  3.6447 -0.4105  0.6068
  662MOL0     H87363   0.551   7.907   8.264  1.5910 -0.6940  2.4230
  662MOL0     H87364   0.740   8.160   8.221  0.2408  1.4444  0.7395
  662MOL0     H87365   0.629   8.142   8.348  1.2823  2.1968 -0.4227
  662MOL0     H87366   1.373   7.574   8.500 -5.3816 -1.5626  0.9471
  662MOL0     H87367   1.609   7.532   8.508  0.2249 -0.3450  3.0161
  662MOL0     H87368   2.005   7.288   8.274 -2.7283  0.0695  0.1112
  662MOL0     H87369   2.230   7.207   8.305  0.6275  0.2588  0.9667
  662MOL0     H87370   4.110   6.235   8.162  2.7001  0.7867 -0.0118
  662MOL0     H87371   4.318   6.176   8.297 -2.3698 -3.0953  2.2883
  662MOL0     H87372   4.481   6.303   8.777 -0.0600  0.8619 -1.0902
  662MOL0     H87373   4.675   6.327   8.933  1.2789 -1.5569  0.5551
  662MOL0     H87374   4.824   6.233   9.056 -0.5451 -2.1288 -0.2645
  662MOL0     H87375   4.927   6.367   9.010  1.0761 -0.8385 -1.6210
  662MOL0     H87376   5.018   6.258   9.185  1.2447 -0.8606  0.6141
  662MOL0     H87377   5.047   6.110   9.097 -0.8358 -0.0961 -1.6570
  662MOL0     H87378   5.173   6.385   9.047 -3.1433 -0.1011 -2.6111
  662MOL0     H87379   5.174   6.265   8.925  3.7424  1.9011 -0.2235
  662MOL0     H87380   5.389   6.255   9.035  1.7481  1.0652  1.4709
  662MOL0     H87381   5.310   6.231   9.195 -1.9914  1.3360 -1.0782
  662MOL0     H87382   5.276   5.858   8.977 -0.2966  0.3260 -0.7016
  662MOL0     H87383   4.897   6.055   8.684  0.9502  1.3246  3.2974
  662MOL0     H87384   4.720   6.075   8.502 -1.5186 -0.1463 -0.1306
  663MOL0     O87385   6.697   1.703   0.455 -0.9842  0.0318 -0.2366
  663MOL0     C87386   6.744   1.796   0.528  1.1160  0.7118 -0.7747
  663MOL0     O87387   6.668   1.895   0.570  0.0492 -0.4975 -0.1118
  663MOL0     C87388   6.539   1.892   0.542 -0.1780  0.0543 -0.7239
  663MOL0     C87389   6.468   1.983   0.457 -0.5790  0.6941 -0.3694
  663MOL0     C87390   6.333   1.986   0.447  0.5007  0.4768  1.1725
  663MOL0     C87391   6.250   1.888   0.508 -0.2763  0.4634 -0.5426
  663MOL0     O87392   6.116   1.871   0.484 -0.4321  0.1972  0.5369
  663MOL0     C87393   6.073   1.892   0.350 -0.1270  0.4716 -0.9473
  663MOL0     C87394   5.932   1.851   0.338  0.6177 -0.1276 -0.1409
  663MOL0     C87395   5.827   1.938   0.410 -0.4728 -0.3418 -0.2863
  663MOL0     C87396   5.685   1.946   0.340 -0.0156 -0.0612  0.1259
  663MOL0     C87397   5.591   2.041   0.415  0.4245  0.6824  0.1551
  663MOL0     C87398   5.472   2.065   0.323 -0.0030  0.3770 -0.2546
  663MOL0     C87399   5.376   2.155   0.408 -0.2518  0.5224  0.0568
  663MOL0     C87400   5.288   2.219   0.302 -0.7057  0.8460  1.1948
  663MOL0     N87401   5.188   2.320   0.348  0.6877 -0.3522  1.2298
  663MOL0     C87402   5.149   2.350   0.474  0.3735 -0.7952  0.1052
  663MOL0     C87403   5.028   2.411   0.469 -1.1536  0.2169 -0.1326
  663MOL0     C87404   4.937   2.451   0.576 -0.0981 -0.2459  0.0155
  663MOL0     C87405   4.995   2.579   0.642  0.4970  0.6514  0.6567
  663MOL0     C87406   4.940   2.608   0.779 -0.0566 -0.5094  0.3041
  663MOL0     C87407   4.786   2.618   0.799 -0.1857 -0.9555 -0.2354
  663MOL0     O87408   4.701   2.516   0.742 -0.5928 -0.3802  0.6677
  663MOL0     C87409   4.568   2.533   0.762 -0.3918 -0.3488  0.2128
  663MOL0     C87410   4.490   2.441   0.705 -0.7901  0.1445 -0.2080
  663MOL0     C87411   4.351   2.462   0.706 -0.0179 -0.1509 -0.5061
  663MOL0     C87412   4.294   2.569   0.773 -1.2332 -0.3333 -0.7533
  663MOL0     C87413   4.146   2.581   0.776 -0.2645 -0.0880 -0.5408
  663MOL0     O87414   4.092   2.675   0.858 -0.3033  0.3811  0.4452
  663MOL0     C87415   3.954   2.688   0.860 -0.2034 -0.7764  0.5486
  663MOL0     C87416   3.869   2.606   0.931 -0.4667 -0.4994  0.3534
  663MOL0     C87417   3.732   2.641   0.949  0.6162  0.0841 -0.3981
  663MOL0     C87418   3.671   2.751   0.884  0.3051  0.3540 -0.5295
  663MOL0     O87419   3.535   2.774   0.894 -0.3294  0.3601  0.2708
  663MOL0     C87420   3.445   2.673   0.850  0.5426 -0.3315 -0.2344
  663MOL0     C87421   3.303   2.727   0.836 -0.6404  0.0626 -0.6130
  663MOL0     C87422   3.264   2.780   0.964  0.0941  0.3349 -0.0644
  663MOL0     C87423   3.120   2.825   0.990  0.5081 -0.1536  0.3043
  663MOL0     C87424   3.064   2.927   0.889 -0.9211  0.1873  0.7949
  663MOL0     C87425   2.926   2.966   0.905 -0.5310 -0.3068  0.1493
  663MOL0     C87426   2.884   3.086   0.806 -0.2284 -0.2411 -0.5836
  663MOL0     C87427   2.743   3.136   0.830  0.0892 -0.7684 -0.0810
  663MOL0    Cl87428   2.738   3.230   0.990 -0.4111 -0.2588  0.1871
  663MOL0     C87429   3.751   2.824   0.806 -1.5897 -0.1003  1.1003
  663MOL0     C87430   3.895   2.800   0.797  0.1256  0.4860 -1.1167
  663MOL0     O87431   4.083   2.499   0.712  0.3385 -0.8304  0.0521
  663MOL0     C87432   4.371   2.663   0.836  0.1986 -0.3664 -0.6215
  663MOL0     C87433   4.507   2.635   0.841  0.0651 -0.1616 -0.2860
  663MOL0     N87434   4.997   2.419   0.330 -0.6431  0.0030  0.5718
  663MOL0     N87435   5.087   2.361   0.256 -0.0286  0.2561 -0.3493
  663MOL0     C87436   6.322   1.795   0.586  0.3530 -1.2438 -0.3518
  663MOL0     C87437   6.459   1.802   0.614  0.1054  0.5088  0.5764
  663MOL0     C87438   6.879   1.789   0.576 -0.4204 -0.0409 -1.1040
  663MOL0     C87439   6.919   1.817   0.707 -0.0066  0.2416 -0.6146
  663MOL0     C87440   7.054   1.821   0.748  0.2551  0.3512  0.3322
  663MOL0     C87441   7.158   1.789   0.654 -0.5446  0.3704  0.9764
  663MOL0     O87442   7.296   1.792   0.677  0.0237 -0.5673 -0.7922
  663MOL0     C87443   7.326   1.831   0.808 -0.7075 -0.3875 -1.0831
  663MOL0     C87444   7.487   1.820   0.843  0.2840  0.8185  0.6775
  663MOL0     C87445   7.536   1.665   0.837 -0.2959 -1.2202  0.6252
  663MOL0     C87446   7.683   1.649   0.867 -0.0081  0.6174 -0.3044
  663MOL0     C87447   7.761   1.722   0.764 -0.7753  0.7140  0.4890
  663MOL0     C87448   7.824   1.764   0.673 -0.6147  0.6694 -0.3900
  663MOL0     C87449   7.119   1.767   0.524  0.9594  0.2491  0.0368
  663MOL0     C87450   6.985   1.773   0.482  0.1750  0.7983  0.1610
  663MOL0     H87451   6.538   2.051   0.410  1.0905 -0.2902  0.5831
  663MOL0     H87452   6.286   2.058   0.380  1.3210  0.8173  0.9462
  663MOL0     H87453   6.123   1.821   0.284  0.3418 -1.7367  1.6440
  663MOL0     H87454   6.095   1.995   0.319  1.6559  0.1606 -0.7892
  663MOL0     H87455   5.910   1.749   0.373 -0.4863 -0.3764 -1.4797
  663MOL0     H87456   5.902   1.855   0.233 -3.5742  0.1081  0.8872
  663MOL0     H87457   5.871   2.038   0.425  0.5231 -1.1296  2.7274
  663MOL0     H87458   5.810   1.895   0.509  2.0654 -0.0090  0.3819
  663MOL0     H87459   5.692   1.977   0.235  0.1863  1.9475  0.6916
  663MOL0     H87460   5.642   1.845   0.339  0.9200 -0.5424  2.3738
  663MOL0     H87461   5.647   2.130   0.446 -0.1439  0.9129  0.5240
  663MOL0     H87462   5.558   1.998   0.510  3.2656 -1.0635  0.4754
  663MOL0     H87463   5.414   1.975   0.300 -1.6198  1.6194 -1.2707
  663MOL0     H87464   5.515   2.111   0.234 -0.7048 -2.5407 -2.2366
  663MOL0     H87465   5.313   2.101   0.479  1.3510  1.1239  2.0272
  663MOL0     H87466   5.422   2.231   0.472  0.0799 -0.7341  1.3443
  663MOL0     H87467   5.239   2.136   0.251  1.9100 -0.3564  0.4722
  663MOL0     H87468   5.348   2.267   0.223  1.0635 -1.9523  0.6898
  663MOL0     H87469   5.212   2.328   0.559  3.2329  4.8507 -0.1073
  663MOL0     H87470   4.906   2.369   0.642 -2.7386 -0.8085 -1.7865
  663MOL0     H87471   4.845   2.480   0.525 -0.0422  0.9736  0.5713
  663MOL0     H87472   4.969   2.665   0.580  1.5151 -0.0592 -0.8132
  663MOL0     H87473   5.104   2.572   0.653  0.3315 -2.7898  1.5840
  663MOL0     H87474   4.973   2.531   0.850  0.0986  2.3459  3.6378
  663MOL0     H87475   4.983   2.700   0.821  0.7935 -1.6564  2.1240
  663MOL0     H87476   4.748   2.713   0.763  0.1836  0.1479  2.0764
  663MOL0     H87477   4.774   2.614   0.908 -0.8832 -1.9923 -0.3368
  663MOL0     H87478   4.523   2.361   0.639 -0.3773 -0.6878  0.9728
  663MOL0     H87479   4.287   2.405   0.639 -1.2807  2.7668 -1.9871
  663MOL0     H87480   3.911   2.522   0.986  0.3003 -0.9103 -0.8294
  663MOL0     H87481   3.667   2.580   1.010 -0.7451 -1.2491 -3.0033
  663MOL0     H87482   3.460   2.585   0.914 -0.4080  0.3122  0.9297
  663MOL0     H87483   3.472   2.646   0.748 -0.5183 -0.9529 -0.3627
  663MOL0     H87484   3.254   2.634   0.806  0.4943 -0.6054 -0.4610
  663MOL0     H87485   3.300   2.789   0.747  2.2014  0.8957 -0.2344
  663MOL0     H87486   3.324   2.870   0.977 -2.2807  1.9671  0.2025
  663MOL0     H87487   3.283   2.709   1.045 -0.4085  0.0839 -0.1593
  663MOL0     H87488   3.049   2.744   1.008 -0.6238  1.2617  2.7850
  663MOL0     H87489   3.122   2.875   1.087 -0.0491 -0.3223  0.4086
  663MOL0     H87490   3.069   2.879   0.790  1.3197  0.2379  0.8331
  663MOL0     H87491   3.126   3.017   0.888 -0.4054 -0.1627  0.8993
  663MOL0     H87492   2.911   2.992   1.010 -2.1666  1.1040 -0.3959
  663MOL0     H87493   2.858   2.880   0.907  0.8835 -1.4671  2.1180
  663MOL0     H87494   2.953   3.169   0.823 -0.6270 -0.5159  3.3196
  663MOL0     H87495   2.885   3.050   0.703  1.1006 -0.0397 -0.6495
  663MOL0     H87496   2.682   3.045   0.838  0.6804 -1.0333  2.1572
  663MOL0     H87497   2.709   3.202   0.750 -2.3654 -2.2905 -0.3988
  663MOL0     H87498   3.713   2.905   0.744  1.1768  0.2084 -0.3801
  663MOL0     H87499   3.968   2.861   0.745  1.3065  1.3356  1.3842
  663MOL0     H87500   4.332   2.746   0.894 -1.2840 -3.8356  3.8863
  663MOL0     H87501   4.559   2.709   0.901  2.4315 -0.2164 -2.1329
  663MOL0     H87502   6.266   1.714   0.633 -0.9820 -0.7397 -1.0030
  663MOL0     H87503   6.499   1.731   0.685  0.7261  1.2324  0.9735
  663MOL0     H87504   6.842   1.843   0.779 -0.8222 -2.2839 -0.4638
  663MOL0     H87505   7.066   1.833   0.855  1.2700 -0.0137  0.2706
  663MOL0     H87506   7.285   1.769   0.889  2.1820 -1.8625 -0.6023
  663MOL0     H87507   7.308   1.936   0.831  4.1731  0.0683  2.3238
  663MOL0     H87508   7.535   1.886   0.771  1.3884 -0.3782  0.2765
  663MOL0     H87509   7.495   1.868   0.941  0.1595 -0.7610  1.4950
  663MOL0     H87510   7.519   1.636   0.733  2.4086  2.9174 -1.2264
  663MOL0     H87511   7.486   1.613   0.920  2.3830  2.2306  4.8648
  663MOL0     H87512   7.716   1.686   0.964 -0.9324 -2.4416  1.2896
  663MOL0     H87513   7.721   1.547   0.869  2.3869  1.2486 -3.6238
  663MOL0     H87514   7.886   1.794   0.591 -2.7307  0.3430 -2.2130
  663MOL0     H87515   7.196   1.748   0.450 -0.2794  0.9366 -1.4947
  663MOL0     H87516   6.948   1.751   0.383 -0.1849  1.5474  0.1309
  664MOL0     O87517   7.161   7.439   8.642 -0.3045  0.6795 -0.0399
  664MOL0     C87518   7.206   7.482   8.751  0.4149  0.4166  0.0899
  664MOL0     O87519   7.142   7.472   8.873  0.1684 -0.6958 -0.2167
  664MOL0     C87520   7.019   7.427   8.886  0.3775  0.2881  1.0993
  664MOL0     C87521   6.993   7.383   9.017  0.3083  0.1749 -0.0460
  664MOL0     C87522   6.863   7.351   9.058 -0.3171  0.0346  0.5657
  664MOL0     C87523   6.753   7.355   8.962 -0.6607 -0.3851  0.4321
  664MOL0     O87524   6.627   7.322   9.014 -0.5374 -0.2560  0.4308
  664MOL0     C87525   6.553   7.230   8.932 -0.4908  1.3398  0.5668
  664MOL0     C87526   6.469   7.142   9.026  0.5164  0.5477  0.6090
  664MOL0     C87527   6.374   7.226   9.119 -0.1701 -1.3291  0.3781
  664MOL0     C87528   6.295   7.131   9.205 -0.1179 -0.0706 -0.4275
  664MOL0     C87529   6.202   7.194   9.307  0.0856  0.2908 -0.1637
  664MOL0     C87530   6.094   7.288   9.251 -0.0835  0.0390  0.2480
  664MOL0     C87531   5.995   7.318   9.367 -0.1621  0.1915 -0.1266
  664MOL0     C87532   6.062   7.374   9.494 -0.0995  0.9088  0.3052
  664MOL0     N87533   5.967   7.409   9.604 -0.0777 -0.6567 -0.3408
  664MOL0     C87534   6.024   7.446   9.726  1.2095  0.4185  0.4530
  664MOL0     C87535   5.912   7.483   9.794 -0.9799 -0.6018  0.3444
  664MOL0     C87536   5.910   7.526   9.941 -0.1119  0.5700 -0.3015
  664MOL0     C87537   5.962   7.664   9.967  0.1393 -0.1690 -0.6328
  664MOL0     C87538   5.996   7.687  10.119  0.6242 -0.1490 -1.6671
  664MOL0     C87539   6.075   7.816  10.145  0.2882  1.1545  0.2252
  664MOL0     O87540   6.070   7.860  10.282  0.2924 -0.2230  0.1657
  664MOL0     C87541   6.190   7.841  10.354  0.1419 -0.3599  0.0417
  664MOL0     C87542   6.240   7.951  10.420 -0.0980  0.6169  0.1191
  664MOL0     C87543   6.350   7.931  10.511  0.9268 -0.3961 -0.1547
  664MOL0     C87544   6.402   7.804  10.524 -0.7583  0.7615  0.6753
  664MOL0     C87545   6.526   7.780  10.605 -1.0609 -0.0319  0.5860
  664MOL0     O87546   6.593   7.896  10.640  0.4075  0.2297 -0.0201
  664MOL0     C87547   6.719   7.887  10.705 -0.3136 -0.7516 -0.2253
  664MOL0     C87548   6.822   7.810  10.658 -0.7560  0.0680 -0.4131
  664MOL0     C87549   6.955   7.818  10.711  0.1284  0.4955 -0.0326
  664MOL0     C87550   6.984   7.925  10.811  1.0320 -0.2361  0.5131
  664MOL0     O87551   7.111   7.956  10.870  0.4214  0.2610  0.7699
  664MOL0     C87552   7.221   7.863  10.848  0.1971 -0.4895 -0.2721
  664MOL0     C87553   7.343   7.924  10.913 -0.2539  0.6145 -0.0129
  664MOL0     C87554   7.469   7.845  10.875 -0.8496 -0.3114  0.1259
  664MOL0     C87555   7.599   7.906  10.937 -0.1720  0.1016  0.2853
  664MOL0     C87556   7.720   7.821  10.899 -0.0509  0.0744  0.5629
  664MOL0     C87557   7.847   7.875  10.960  0.5935 -0.6143  0.5547
  664MOL0     C87558   7.874   8.007  10.898  1.1880 -0.5524  0.8330
  664MOL0     C87559   8.018   8.053  10.910  0.0771 -0.1174  0.9659
  664MOL0    Cl87560   8.049   8.088  11.088  0.3378  0.1648  0.1429
  664MOL0     C87561   6.876   7.999  10.866  0.0366 -0.8453 -0.0841
  664MOL0     C87562   6.748   7.985  10.802 -0.0472 -0.6620  0.2641
  664MOL0     O87563   6.557   7.671  10.645 -0.8555 -0.2598  0.4467
  664MOL0     C87564   6.354   7.698  10.448 -0.1727 -0.0311  0.4655
  664MOL0     C87565   6.247   7.717  10.366 -0.0261  1.0878  0.0969
  664MOL0     N87566   5.802   7.486   9.711 -0.0995 -0.0906  0.0636
  664MOL0     N87567   5.834   7.432   9.601  0.5222 -0.0307  0.4631
  664MOL0     C87568   6.783   7.395   8.828  0.7553 -0.8002 -0.3337
  664MOL0     C87569   6.914   7.434   8.788 -1.0187  0.0239 -0.1014
  664MOL0     C87570   7.331   7.548   8.744 -0.3055  0.6079 -0.4257
  664MOL0     C87571   7.405   7.569   8.621  0.1618 -0.8122 -0.0643
  664MOL0     C87572   7.531   7.639   8.628 -1.0095 -0.0139 -0.0179
  664MOL0     C87573   7.581   7.679   8.754  0.3347  0.7717  1.3493
  664MOL0     O87574   7.697   7.752   8.770  0.0081  0.0186 -0.8271
  664MOL0     C87575   7.763   7.802   8.650 -0.9169  0.4349 -0.8264
  664MOL0     C87576   7.884   7.872   8.702 -0.0271  0.3872 -0.4826
  664MOL0     C87577   7.959   7.936   8.586 -0.4475 -0.0756  0.0490
  664MOL0     C87578   8.068   8.043   8.617  0.2295 -1.2673 -0.3571
  664MOL0     C87579   8.158   7.988   8.725 -0.4847 -0.4114 -0.7120
  664MOL0     C87580   8.233   7.927   8.801 -0.5851  0.2650  0.3105
  664MOL0     C87581   7.500   7.663   8.869 -0.5376 -0.1145  0.2714
  664MOL0     C87582   7.381   7.596   8.871  0.7390  0.7350 -0.0469
  664MOL0     H87583   7.077   7.396   9.085  0.4650  0.3329 -0.2689
  664MOL0     H87584   6.850   7.328   9.163 -1.7686 -1.1878  0.1497
  664MOL0     H87585   6.616   7.178   8.860  1.3910  1.4671  2.0396
  664MOL0     H87586   6.484   7.287   8.869 -1.2093 -1.4382 -1.3542
  664MOL0     H87587   6.544   7.083   9.079  2.5783 -0.8167 -3.4246
  664MOL0     H87588   6.405   7.070   8.974  0.2315  2.9128 -2.6507
  664MOL0     H87589   6.306   7.280   9.053  3.9034  2.9211 -0.8951
  664MOL0     H87590   6.423   7.291   9.192 -0.3120 -0.2689 -0.4551
  664MOL0     H87591   6.237   7.074   9.132 -0.9915  1.2725 -0.7992
  664MOL0     H87592   6.372   7.077   9.261  0.5540  1.5163  0.2257
  664MOL0     H87593   6.276   7.229   9.379 -0.4384 -0.2685  0.6621
  664MOL0     H87594   6.144   7.113   9.353 -1.7843  0.9669 -1.2246
  664MOL0     H87595   6.049   7.236   9.167  0.5080 -3.0037  1.6711
  664MOL0     H87596   6.148   7.377   9.219 -0.5489 -0.1462 -1.1145
  664MOL0     H87597   5.929   7.400   9.337 -0.4153  1.4186  3.3209
  664MOL0     H87598   5.936   7.229   9.389  0.2775 -0.5114 -1.6193
  664MOL0     H87599   6.114   7.468   9.478 -1.1388  1.5415  0.5476
  664MOL0     H87600   6.128   7.295   9.532  2.9628  2.3546 -1.5978
  664MOL0     H87601   6.125   7.444   9.766  1.8411  1.7428 -0.9579
  664MOL0     H87602   5.970   7.449   9.991 -0.6038 -0.6105 -1.4996
  664MOL0     H87603   5.808   7.523   9.981 -0.2425  1.1203 -0.5911
  664MOL0     H87604   5.886   7.740   9.950  0.3175  0.7974  2.4130
  664MOL0     H87605   6.050   7.682   9.903  0.2137 -5.5747 -2.5365
  664MOL0     H87606   5.900   7.697  10.170  1.9448 -2.4839  1.6058
  664MOL0     H87607   6.062   7.605  10.150  2.2402  2.0702  1.3210
  664MOL0     H87608   6.039   7.896  10.079 -0.5590  1.2483  0.7845
  664MOL0     H87609   6.180   7.796  10.120 -0.2353 -0.7105 -0.6547
  664MOL0     H87610   6.191   8.047  10.402  1.0354  1.3317  0.7126
  664MOL0     H87611   6.383   8.017  10.569 -1.6817  1.4362 -1.1650
  664MOL0     H87612   6.808   7.742  10.574 -1.6864  0.6381 -0.7423
  664MOL0     H87613   7.031   7.749  10.676 -2.8992 -1.4920 -3.3591
  664MOL0     H87614   7.256   7.851  10.745  0.5809  3.3202 -0.7257
  664MOL0     H87615   7.191   7.770  10.897 -1.3867  1.4757  2.8094
  664MOL0     H87616   7.329   7.926  11.022  2.5136  1.6385  0.3918
  664MOL0     H87617   7.338   8.028  10.880  2.9940  0.9629  0.2782
  664MOL0     H87618   7.471   7.852  10.766 -1.3764  2.3229  0.2232
  664MOL0     H87619   7.457   7.742  10.913 -1.9230  0.8652  3.3358
  664MOL0     H87620   7.609   8.007  10.896  0.2332 -0.1123 -0.1429
  664MOL0     H87621   7.600   7.909  11.047  2.2944  0.9658  0.2995
  664MOL0     H87622   7.723   7.826  10.790 -2.4110  1.7878  0.4964
  664MOL0     H87623   7.706   7.720  10.937 -0.2756 -0.8275 -1.8141
  664MOL0     H87624   7.935   7.812  10.942  0.4606 -0.5799 -0.2472
  664MOL0     H87625   7.818   7.896  11.064 -0.8192  2.1379 -0.2855
  664MOL0     H87626   7.838   8.020  10.796  2.4231  3.2964  0.7235
  664MOL0     H87627   7.819   8.087  10.950  1.0715  1.7548 -2.5480
  664MOL0     H87628   8.029   8.155  10.872  2.1352 -0.5983  0.1412
  664MOL0     H87629   8.095   7.984  10.875 -0.2146  0.3221 -0.5759
  664MOL0     H87630   6.888   8.067  10.949 -2.5623  0.3195 -0.5454
  664MOL0     H87631   6.662   8.046  10.825  2.2949  3.6192 -1.2413
  664MOL0     H87632   6.397   7.600  10.464  4.5802  1.8267  0.6012
  664MOL0     H87633   6.206   7.627  10.319  1.7196 -0.4627  1.3986
  664MOL0     H87634   6.701   7.401   8.757  0.5687  4.2272 -0.0559
  664MOL0     H87635   6.946   7.467   8.690  3.6488  0.3173  1.3049
  664MOL0     H87636   7.374   7.538   8.522 -1.0940 -0.4430  0.1969
  664MOL0     H87637   7.598   7.646   8.543  1.1400 -0.1300  1.5877
  664MOL0     H87638   7.698   7.863   8.587 -1.3778  0.4817 -0.3170
  664MOL0     H87639   7.793   7.716   8.591  0.8384 -0.2671  0.9616
  664MOL0     H87640   7.850   7.948   8.772 -3.3246  0.6347 -2.1822
  664MOL0     H87641   7.948   7.798   8.752 -0.8770  0.1961  0.3398
  664MOL0     H87642   7.888   7.995   8.526 -1.0400  0.9949  1.7338
  664MOL0     H87643   8.006   7.854   8.531  4.5511  2.2540  0.3155
  664MOL0     H87644   8.135   8.063   8.533  0.6469 -1.8138 -0.1590
  664MOL0     H87645   8.024   8.130   8.667  1.2364 -1.9314  1.7842
  664MOL0     H87646   8.305   7.864   8.850  1.8331  1.9464 -0.8700
  664MOL0     H87647   7.526   7.702   8.967 -0.1625  0.3820 -0.0259
  664MOL0     H87648   7.327   7.583   8.964  2.6113  0.2040  1.0145
  665MOL0     O87649   4.934   0.549   9.825 -0.5028  0.2582  0.6223
  665MOL0     C87650   4.987   0.645   9.878 -0.7430 -0.5183  0.2730
  665MOL0     O87651   4.957   0.778   9.863  0.0048  0.4781 -0.0239
  665MOL0     C87652   4.869   0.820   9.764 -0.3471  0.5043  0.2294
  665MOL0     C87653   4.736   0.776   9.753 -0.6997 -0.8332 -0.1814
  665MOL0     C87654   4.657   0.838   9.654 -0.4476  0.4267  0.5936
  665MOL0     C87655   4.714   0.919   9.560  0.5176  0.4962  0.2294
  665MOL0     O87656   4.641   0.974   9.455  0.0225  0.1845 -0.4890
  665MOL0     C87657   4.501   1.004   9.472 -0.8216 -0.0425 -0.3731
  665MOL0     C87658   4.480   1.120   9.366  1.0143 -0.1011 -0.3712
  665MOL0     C87659   4.550   1.251   9.419  0.5824 -0.0977 -0.6184
  665MOL0     C87660   4.459   1.304   9.531 -0.1325  0.2028 -0.2581
  665MOL0     C87661   4.478   1.453   9.542  0.3227  0.0707  0.3516
  665MOL0     C87662   4.422   1.525   9.667  0.4444  0.0240 -0.5095
  665MOL0     C87663   4.474   1.672   9.679  0.3860  0.4277 -0.3844
  665MOL0     C87664   4.434   1.735   9.806  0.0215  0.2260 -0.4771
  665MOL0     N87665   4.285   1.735   9.817 -0.6239 -0.7288 -0.4270
  665MOL0     C87666   4.208   1.653   9.887 -0.5578  0.5028  0.6509
  665MOL0     C87667   4.080   1.692   9.862  0.2703 -0.1067  0.4945
  665MOL0     C87668   3.949   1.624   9.906  0.3224 -0.2357  0.2907
  665MOL0     C87669   3.824   1.687   9.835  0.0137  0.0033  0.3972
  665MOL0     C87670   3.702   1.614   9.879  0.9271  0.3345  0.2634
  665MOL0     C87671   3.569   1.658   9.796 -0.4966  0.3528  0.2565
  665MOL0     O87672   3.457   1.578   9.806  0.0650 -0.7165  0.4154
  665MOL0     C87673   3.327   1.628   9.771 -0.2146  0.1777 -0.3618
  665MOL0     C87674   3.305   1.738   9.687  0.4339 -0.6031  0.7105
  665MOL0     C87675   3.172   1.776   9.655  0.2848 -0.4430 -1.3531
  665MOL0     C87676   3.060   1.697   9.692  0.8465 -0.6604  0.3298
  665MOL0     C87677   2.932   1.750   9.659  0.2123 -0.2900 -0.5003
  665MOL0     O87678   2.925   1.884   9.640 -0.4551 -0.1918 -0.3512
  665MOL0     C87679   2.810   1.936   9.598 -0.7569 -0.5978  0.4501
  665MOL0     C87680   2.799   1.973   9.460  0.6978 -0.1236 -0.4682
  665MOL0     C87681   2.684   2.033   9.416  0.0319  0.2189  0.5455
  665MOL0     C87682   2.582   2.067   9.507  0.3650 -1.0720 -0.6706
  665MOL0     O87683   2.459   2.129   9.473  0.1590  0.1205 -0.2948
  665MOL0     C87684   2.402   2.099   9.344  0.2307 -0.7648 -0.3512
  665MOL0     C87685   2.246   2.100   9.369  0.8700 -0.3331  0.3657
  665MOL0     C87686   2.192   2.223   9.419 -0.7208  0.5737 -0.5079
  665MOL0     C87687   2.044   2.215   9.441 -0.2448  0.4723  0.3296
  665MOL0     C87688   1.989   2.344   9.495 -0.1280  0.3092 -0.6164
  665MOL0     C87689   1.844   2.342   9.516  1.1704 -0.0511 -0.2606
  665MOL0     C87690   1.789   2.460   9.597 -0.3267 -0.2355  0.1358
  665MOL0     C87691   1.639   2.456   9.602  0.5341 -0.0587  0.5990
  665MOL0    Cl87692   1.579   2.600   9.699 -0.0554 -0.1849 -0.3523
  665MOL0     C87693   2.597   2.028   9.637  0.5129 -0.0558 -0.5204
  665MOL0     C87694   2.710   1.971   9.691  0.0694 -0.5005  1.1230
  665MOL0     O87695   2.840   1.676   9.641 -0.6315  0.0330 -0.4141
  665MOL0     C87696   3.089   1.576   9.762 -0.5862  0.4470 -0.2578
  665MOL0     C87697   3.218   1.546   9.801  0.6208  1.2645  0.3207
  665MOL0     N87698   4.084   1.800   9.776 -0.0749  0.3822 -0.3352
  665MOL0     N87699   4.207   1.822   9.746  0.0826 -0.0739 -0.5887
  665MOL0     C87700   4.848   0.957   9.570  0.2516 -0.2104  1.1038
  665MOL0     C87701   4.922   0.914   9.675  0.2254  0.1401  1.1046
  665MOL0     C87702   5.105   0.618   9.959 -0.3167 -0.4114 -1.1013
  665MOL0     C87703   5.218   0.698   9.964  0.6631  0.5579  0.6843
  665MOL0     C87704   5.329   0.674  10.042  0.4771  0.2663 -0.3375
  665MOL0     C87705   5.323   0.567  10.130 -1.0042  0.3019  0.1350
  665MOL0     O87706   5.431   0.532  10.209  0.3219  0.6441 -0.4091
  665MOL0     C87707   5.556   0.502  10.147 -0.3139  0.0859 -0.4213
  665MOL0     C87708   5.672   0.586  10.196  0.5824  0.3664 -0.2843
  665MOL0     C87709   5.754   0.516  10.310  0.2296  0.5111  0.3505
  665MOL0     C87710   5.836   0.614  10.392  0.1423  0.4392  0.1142
  665MOL0     C87711   5.952   0.674  10.319 -0.1254  0.4815 -0.4891
  665MOL0     C87712   6.040   0.705  10.244  0.0610  0.3868  0.1159
  665MOL0     C87713   5.209   0.483  10.132 -0.2228 -0.1301 -0.4440
  665MOL0     C87714   5.101   0.509  10.051  0.3583 -0.1634  0.0105
  665MOL0     H87715   4.701   0.701   9.824  0.7150 -0.0845  1.3852
  665MOL0     H87716   4.555   0.805   9.641  0.2086 -0.6669 -3.0937
  665MOL0     H87717   4.486   1.040   9.574 -1.8326 -2.3766  0.3639
  665MOL0     H87718   4.437   0.918   9.448  0.7270 -0.1513 -4.9698
  665MOL0     H87719   4.373   1.136   9.350 -0.0263 -3.3634  2.2071
  665MOL0     H87720   4.525   1.085   9.273 -0.4061  0.0424 -1.1355
  665MOL0     H87721   4.565   1.317   9.334 -0.0832 -0.7852 -1.2934
  665MOL0     H87722   4.648   1.223   9.459  1.3009  2.5284 -0.3859
  665MOL0     H87723   4.351   1.288   9.524 -0.6494  0.4197  4.1455
  665MOL0     H87724   4.488   1.247   9.620 -1.5057  0.5513  0.4518
  665MOL0     H87725   4.440   1.491   9.446  0.0320 -2.8214 -0.7736
  665MOL0     H87726   4.585   1.475   9.544  0.7863 -1.6262  4.7014
  665MOL0     H87727   4.454   1.457   9.746  2.3880  0.1333 -1.1480
  665MOL0     H87728   4.313   1.529   9.671  0.3458  2.0087 -2.9605
  665MOL0     H87729   4.583   1.663   9.677  0.2219 -4.3142 -2.3081
  665MOL0     H87730   4.432   1.733   9.599 -0.4107 -1.5250 -1.5257
  665MOL0     H87731   4.473   1.837   9.800  2.1584 -0.5891 -1.1914
  665MOL0     H87732   4.472   1.683   9.895 -1.6272 -1.6250 -0.7737
  665MOL0     H87733   4.225   1.558   9.935 -1.6875 -0.8531 -1.4741
  665MOL0     H87734   3.934   1.632  10.015 -1.0908  3.2575 -0.0281
  665MOL0     H87735   3.951   1.521   9.869 -0.1238  0.6112 -2.3040
  665MOL0     H87736   3.826   1.668   9.727 -2.4166 -2.3796  0.6697
  665MOL0     H87737   3.822   1.794   9.853  1.0195  0.3981 -1.5262
  665MOL0     H87738   3.710   1.506   9.867 -1.8341 -0.1664  2.1207
  665MOL0     H87739   3.684   1.630   9.986 -2.3531 -0.4999 -0.0512
  665MOL0     H87740   3.610   1.663   9.695  1.1156 -0.2208  0.8365
  665MOL0     H87741   3.555   1.763   9.824 -2.4851  1.4687 -4.1120
  665MOL0     H87742   3.395   1.779   9.642  0.6146 -0.3003  1.3339
  665MOL0     H87743   3.170   1.869   9.599  0.3193  0.7976  0.6220
  665MOL0     H87744   2.870   1.948   9.381  0.6753  1.2705 -0.9503
  665MOL0     H87745   2.665   2.050   9.311 -1.9604 -0.5186  0.7266
  665MOL0     H87746   2.427   1.998   9.309  1.9781 -0.6820  0.5124
  665MOL0     H87747   2.430   2.179   9.275 -1.2866  0.3675  0.2895
  665MOL0     H87748   2.219   2.023   9.441  0.6943  0.3167  1.0063
  665MOL0     H87749   2.195   2.073   9.276  0.1368  0.3883  0.5447
  665MOL0     H87750   2.215   2.299   9.344  0.6727  1.5626  0.8492
  665MOL0     H87751   2.245   2.255   9.510 -3.1478 -0.2445  1.3060
  665MOL0     H87752   2.003   2.217   9.339  4.1198  2.7864 -1.6504
  665MOL0     H87753   2.012   2.133   9.507 -0.9496 -1.4919 -2.2781
  665MOL0     H87754   2.014   2.419   9.419  2.1951 -0.8623 -1.1254
  665MOL0     H87755   2.046   2.362   9.587  0.5506  0.9985 -1.1574
  665MOL0     H87756   1.818   2.251   9.571  1.0533 -0.7116 -1.3820
  665MOL0     H87757   1.791   2.340   9.420 -1.4756 -0.5095  1.1248
  665MOL0     H87758   1.827   2.455   9.700  0.0892  3.0959  0.2313
  665MOL0     H87759   1.825   2.550   9.548  0.2125 -1.9110 -2.7930
  665MOL0     H87760   1.596   2.371   9.655 -1.0901  1.3868  1.6740
  665MOL0     H87761   1.592   2.458   9.503 -0.9063  3.1177  1.2425
  665MOL0     H87762   2.513   2.051   9.702  0.7993  2.8852 -1.0399
  665MOL0     H87763   2.704   1.944   9.796 -0.2406 -3.2873  0.4754
  665MOL0     H87764   3.012   1.505   9.791  1.7874 -2.1669  0.1204
  665MOL0     H87765   3.239   1.465   9.870 -0.6098  1.9026  1.5048
  665MOL0     H87766   4.896   1.022   9.498 -1.0478 -1.8093 -1.3557
  665MOL0     H87767   5.027   0.943   9.675 -0.0453  1.7657 -2.6682
  665MOL0     H87768   5.217   0.776   9.890 -1.0475  0.6155  0.7209
  665MOL0     H87769   5.412   0.742  10.025  0.8547 -0.0775  0.1118
  665MOL0     H87770   5.559   0.526  10.040  1.9389 -0.1773 -0.4761
  665MOL0     H87771   5.585   0.398  10.160 -0.8252 -0.1800 -1.3593
  665MOL0     H87772   5.746   0.606  10.119  2.8476 -0.9001  1.4441
  665MOL0     H87773   5.637   0.684  10.231  1.0049  0.6797 -0.7206
  665MOL0     H87774   5.816   0.435  10.272 -3.3262 -0.8365 -3.3950
  665MOL0     H87775   5.679   0.482  10.382  0.3497  0.9463  0.6847
  665MOL0     H87776   5.777   0.697  10.431  0.4269  1.4901 -1.5971
  665MOL0     H87777   5.877   0.562  10.479  1.2552 -1.2282 -1.3158
  665MOL0     H87778   6.114   0.737  10.172  0.3394  2.1925  1.1253
  665MOL0     H87779   5.213   0.405  10.208  2.3649 -1.2013 -1.5629
  665MOL0     H87780   4.999   0.473  10.069 -1.2635  4.5869  2.0543
  666MOL0     O87781   1.669   5.743   1.317 -0.0947 -0.2505  0.1624
  666MOL0     C87782   1.707   5.827   1.399  0.0290  0.0954  0.1574
  666MOL0     O87783   1.651   5.854   1.525 -0.0172  0.2027 -0.0666
  666MOL0     C87784   1.521   5.829   1.551 -0.7483  0.1574  0.7687
  666MOL0     C87785   1.430   5.919   1.515  0.2096 -0.7000  0.4812
  666MOL0     C87786   1.298   5.910   1.547  1.1377  0.3970 -0.3374
  666MOL0     C87787   1.247   5.800   1.622  0.7981 -0.4349  0.4745
  666MOL0     O87788   1.108   5.783   1.649  0.6373 -0.1251 -0.0904
  666MOL0     C87789   1.044   5.901   1.683 -0.7085 -0.6507 -0.1130
  666MOL0     C87790   0.918   5.884   1.754 -0.7102  0.0439  0.7766
  666MOL0     C87791   0.814   5.795   1.676  0.4919  0.6764  0.1671
  666MOL0     C87792   0.672   5.822   1.737 -0.0367 -0.1850  0.5886
  666MOL0     C87793   0.559   5.735   1.662  0.8573 -0.3286  0.2590
  666MOL0     C87794   0.417   5.775   1.705  0.5549 -0.0392 -0.2674
  666MOL0     C87795   0.379   5.795   1.861  1.1537 -0.8872 -0.0713
  666MOL0     C87796   0.370   5.670   1.937  0.2728  0.7052 -0.5630
  666MOL0     N87797   0.354   5.699   2.088  0.4977 -0.2419  0.3055
  666MOL0     C87798   0.393   5.620   2.195 -0.0518  1.0816 -0.4011
  666MOL0     C87799   0.388   5.704   2.302 -0.1302  0.1696 -0.3446
  666MOL0     C87800   0.416   5.679   2.455 -1.2485 -0.6641  0.1939
  666MOL0     C87801   0.340   5.561   2.507  0.5656 -0.3901 -0.4978
  666MOL0     C87802   0.188   5.585   2.514 -0.0695 -0.3672 -0.7494
  666MOL0     C87803   0.154   5.684   2.620  0.2551  0.2082  0.3340
  666MOL0     O87804   0.007   5.693   2.634  0.6972  0.1805 -0.8980
  666MOL0     C87805  -0.065   5.790   2.579  0.4991  0.0148  0.2007
  666MOL0     C87806  -0.188   5.821   2.628  0.1574 -1.1128 -0.1708
  666MOL0     C87807  -0.267   5.927   2.580  0.3996 -0.3960  0.2271
  666MOL0     C87808  -0.229   5.995   2.469 -0.3331 -0.6303  0.2143
  666MOL0     C87809  -0.310   6.109   2.429  0.1342 -0.2237  0.2848
  666MOL0     O87810  -0.411   6.146   2.511 -0.5467 -0.3937 -0.7125
  666MOL0     C87811  -0.457   6.274   2.502  0.2193 -0.0996  0.0740
  666MOL0     C87812  -0.593   6.290   2.497 -0.1178 -0.2750  1.0625
  666MOL0     C87813  -0.638   6.424   2.502  0.1305 -0.3603 -0.0069
  666MOL0     C87814  -0.557   6.534   2.524 -0.4512  0.3434  0.0394
  666MOL0     O87815  -0.603   6.650   2.561 -0.5213 -0.4543 -0.2223
  666MOL0     C87816  -0.571   6.670   2.694 -0.1553  0.1114 -0.6699
  666MOL0     C87817  -0.680   6.754   2.753  0.3742 -0.0370 -0.0834
  666MOL0     C87818  -0.823   6.709   2.717  0.0213  0.3657 -0.0086
  666MOL0     C87819  -0.931   6.753   2.812  0.1225  0.2576  0.5129
  666MOL0     C87820  -0.960   6.906   2.797 -0.8381 -0.2580 -0.4318
  666MOL0     C87821  -1.084   6.957   2.882  0.1460 -0.1090 -1.1870
  666MOL0     C87822  -1.210   6.888   2.829 -0.4028 -0.1254  0.0165
  666MOL0     C87823  -1.335   6.966   2.857  0.3835  0.3537  0.0638
  666MOL0    Cl87824  -1.338   6.994   3.030  0.3634  0.2769 -0.0331
  666MOL0     C87825  -0.418   6.511   2.529 -0.4652  0.0716 -1.1051
  666MOL0     C87826  -0.370   6.385   2.515 -1.0027  0.7075  0.6120
  666MOL0     O87827  -0.293   6.153   2.317  0.2153 -0.1796  0.1262
  666MOL0     C87828  -0.101   5.951   2.407 -0.9952 -0.5649  0.4235
  666MOL0     C87829  -0.022   5.862   2.469 -0.8215 -0.0943 -0.4599
  666MOL0     N87830   0.321   5.822   2.259  0.7878  1.0557  0.6097
  666MOL0     N87831   0.298   5.814   2.133 -0.2905  0.3173  1.0469
  666MOL0     C87832   1.346   5.704   1.658  0.0660  0.4912 -0.0220
  666MOL0     C87833   1.482   5.715   1.619 -0.1956 -0.1282  0.5880
  666MOL0     C87834   1.828   5.912   1.356  1.0838 -0.0813 -1.2178
  666MOL0     C87835   1.902   5.893   1.235  0.2864  0.4353 -0.0616
  666MOL0     C87836   2.019   5.960   1.215 -0.1180  1.0179 -0.7951
  666MOL0     C87837   2.052   6.065   1.298 -0.9094  0.2344 -0.2926
  666MOL0     O87838   2.153   6.156   1.274  0.4496  0.2427  0.0722
  666MOL0     C87839   2.242   6.138   1.163 -0.6873  0.0139  0.7315
  666MOL0     C87840   2.347   6.243   1.186 -0.3620 -0.7415  0.3077
  666MOL0     C87841   2.472   6.241   1.100 -0.0636 -0.0407 -0.2880
  666MOL0     C87842   2.435   6.237   0.947 -0.0246 -0.7380 -0.1821
  666MOL0     C87843   2.379   6.362   0.914  0.3078  0.7183  0.7328
  666MOL0     C87844   2.341   6.471   0.884  0.5258  0.6471  0.5292
  666MOL0     C87845   1.988   6.089   1.413  0.5588  0.3938  0.4552
  666MOL0     C87846   1.872   6.012   1.447  0.0517 -0.0587 -0.1014
  666MOL0     H87847   1.457   6.011   1.465  0.6174  0.4539  2.7115
  666MOL0     H87848   1.237   5.992   1.511  5.1195  3.9421  0.1607
  666MOL0     H87849   1.036   5.965   1.595  1.9551 -1.4301 -1.0074
  666MOL0     H87850   1.113   5.965   1.738 -4.8193  0.2333  4.7843
  666MOL0     H87851   0.881   5.983   1.782  0.0850  0.1126  1.6362
  666MOL0     H87852   0.938   5.830   1.847  0.9460  0.4883  0.7089
  666MOL0     H87853   0.837   5.688   1.682  0.3135  0.6757  1.0891
  666MOL0     H87854   0.799   5.821   1.571 -0.1551 -2.5058 -0.6548
  666MOL0     H87855   0.680   5.790   1.841 -1.0372 -1.0383  0.4169
  666MOL0     H87856   0.651   5.929   1.729 -0.0039 -0.3271 -2.6280
  666MOL0     H87857   0.585   5.631   1.685 -1.3310 -0.8939  0.3774
  666MOL0     H87858   0.567   5.740   1.553  2.1288 -4.2148  0.0137
  666MOL0     H87859   0.347   5.699   1.669 -0.2385  1.6099 -2.4263
  666MOL0     H87860   0.387   5.865   1.651 -0.5090 -0.4363 -0.3613
  666MOL0     H87861   0.462   5.855   1.901  1.5180 -0.9926 -0.6684
  666MOL0     H87862   0.289   5.855   1.877  1.6506  0.5961 -2.4430
  666MOL0     H87863   0.460   5.614   1.913 -1.4421 -2.6284  0.1841
  666MOL0     H87864   0.274   5.627   1.906 -2.2447  3.6587  2.3354
  666MOL0     H87865   0.437   5.521   2.188 -2.1387 -0.1396  1.9196
  666MOL0     H87866   0.402   5.773   2.509  0.2604  0.1596 -0.7662
  666MOL0     H87867   0.522   5.651   2.465 -1.4873 -1.1390  1.6372
  666MOL0     H87868   0.373   5.523   2.604 -1.4407 -0.4180  0.2179
  666MOL0     H87869   0.347   5.475   2.440  2.5911 -1.5462  1.0669
  666MOL0     H87870   0.136   5.613   2.422 -0.6618  1.0531 -0.0219
  666MOL0     H87871   0.135   5.494   2.544 -1.4975  0.4077 -0.8391
  666MOL0     H87872   0.190   5.782   2.587  1.7033 -0.2076  0.6136
  666MOL0     H87873   0.201   5.649   2.712 -0.3234 -4.7334 -0.9493
  666MOL0     H87874  -0.210   5.757   2.712 -2.0190  2.0760  1.9268
  666MOL0     H87875  -0.358   5.942   2.638  1.9514 -0.8786  2.9877
  666MOL0     H87876  -0.665   6.209   2.485 -0.5713  0.2257  0.2942
  666MOL0     H87877  -0.743   6.451   2.503 -0.1612 -0.8574 -3.7565
  666MOL0     H87878  -0.475   6.723   2.694  2.5054 -4.1813 -2.0561
  666MOL0     H87879  -0.545   6.577   2.745  1.2152  1.0152  0.3776
  666MOL0     H87880  -0.669   6.857   2.721 -0.3147  0.4341  1.1223
  666MOL0     H87881  -0.663   6.747   2.862  2.0210  1.5483 -0.1885
  666MOL0     H87882  -0.819   6.600   2.721  2.4594  0.3614 -0.8736
  666MOL0     H87883  -0.850   6.734   2.614 -4.2246 -1.0338  0.5752
  666MOL0     H87884  -1.023   6.699   2.791  2.1778 -2.6046 -2.2106
  666MOL0     H87885  -0.892   6.729   2.911  2.8186 -2.5466 -1.0362
  666MOL0     H87886  -0.976   6.937   2.693  0.1678  2.4879  0.1289
  666MOL0     H87887  -0.878   6.963   2.842  0.7297 -2.6442 -0.0791
  666MOL0     H87888  -1.093   7.066   2.887  2.1324  0.0496  2.1644
  666MOL0     H87889  -1.071   6.913   2.982 -1.4901 -1.3581 -1.4820
  666MOL0     H87890  -1.198   6.874   2.722 -0.6935 -0.9810  0.0889
  666MOL0     H87891  -1.211   6.788   2.874 -1.4480 -0.6772 -1.1872
  666MOL0     H87892  -1.427   6.922   2.817  1.6731  0.8992 -3.8848
  666MOL0     H87893  -1.333   7.064   2.808  0.0231  1.0185  1.3268
  666MOL0     H87894  -0.358   6.602   2.533 -0.6322  0.1757 -0.9061
  666MOL0     H87895  -0.264   6.361   2.520 -0.9882  0.8829  1.2471
  666MOL0     H87896  -0.062   6.003   2.321 -1.2220 -1.3162 -0.1505
  666MOL0     H87897   0.076   5.838   2.427  0.1193  1.5872  0.7053
  666MOL0     H87898   1.311   5.615   1.710 -0.9063 -0.1604 -1.7174
  666MOL0     H87899   1.554   5.644   1.659 -1.3436  0.4284  4.0278
  666MOL0     H87900   1.856   5.822   1.167 -0.4360 -0.1979  1.0522
  666MOL0     H87901   2.081   5.948   1.126  1.6501  0.2966  0.4862
  666MOL0     H87902   2.198   6.141   1.063  1.0104 -3.2336 -0.2752
  666MOL0     H87903   2.286   6.038   1.166  0.8946  0.6049 -0.7963
  666MOL0     H87904   2.300   6.342   1.181 -0.2610 -0.7381 -1.0222
  666MOL0     H87905   2.386   6.218   1.285  1.2161 -0.0635 -0.1156
  666MOL0     H87906   2.531   6.154   1.129 -1.5515 -0.1846  2.6448
  666MOL0     H87907   2.536   6.328   1.122  2.6576 -1.5641 -1.7226
  666MOL0     H87908   2.526   6.228   0.887  0.8678 -1.3960  1.2068
  666MOL0     H87909   2.361   6.161   0.921  0.1206 -1.0005  0.1661
  666MOL0     H87910   2.314   6.574   0.873  0.4194  0.6998  1.2354
  666MOL0     H87911   2.016   6.163   1.487 -1.6431 -3.4289  5.8248
  666MOL0     H87912   1.809   6.029   1.534 -1.4049 -2.3522 -0.6164
  667MOL0     O87913   0.165   6.015   8.135  0.3565  0.5343  0.4090
  667MOL0     C87914   0.178   5.900   8.168  0.3700  0.6360 -1.1033
  667MOL0     O87915   0.087   5.799   8.158 -0.4767  0.6625 -0.5481
  667MOL0     C87916  -0.039   5.822   8.095 -0.1023  0.3190 -0.7012
  667MOL0     C87917  -0.067   5.917   7.998  1.1706 -0.2171  0.3214
  667MOL0     C87918  -0.198   5.918   7.942 -0.5054 -0.0130 -0.3948
  667MOL0     C87919  -0.302   5.844   7.992  0.0016  0.1556  0.5769
  667MOL0     O87920  -0.426   5.863   7.939  0.7577  0.1882 -0.2082
  667MOL0     C87921  -0.510   5.750   7.904  0.3243  0.7797  0.6646
  667MOL0     C87922  -0.611   5.789   7.786 -0.4687 -0.0797  0.1856
  667MOL0     C87923  -0.734   5.853   7.845 -0.2827 -1.0820 -0.7526
  667MOL0     C87924  -0.815   5.937   7.743  0.8206 -0.3704  0.6138
  667MOL0     C87925  -0.918   6.032   7.816 -0.6311 -0.6369  0.2430
  667MOL0     C87926  -1.003   6.108   7.710 -0.8352 -0.1791 -0.1829
  667MOL0     C87927  -1.084   6.217   7.781 -0.3849 -1.1515  0.1489
  667MOL0     C87928  -1.167   6.154   7.904 -0.2971 -1.2174  0.5462
  667MOL0     N87929  -1.263   6.050   7.863  0.2488  0.5032 -0.2985
  667MOL0     C87930  -1.249   5.915   7.854 -0.2436  0.0615  0.2063
  667MOL0     C87931  -1.362   5.875   7.788 -0.0024  0.5316  0.3543
  667MOL0     C87932  -1.376   5.734   7.735 -0.3209  0.0203 -0.3104
  667MOL0     C87933  -1.397   5.656   7.859 -0.0586  0.6358  0.5251
  667MOL0     C87934  -1.404   5.509   7.833  0.1168  0.4437 -0.3861
  667MOL0     C87935  -1.537   5.463   7.768  0.1333  0.1289 -0.7001
  667MOL0     O87936  -1.608   5.378   7.860 -0.3911  0.1212  0.2270
  667MOL0     C87937  -1.739   5.380   7.843 -0.1164  0.4368  0.0211
  667MOL0     C87938  -1.815   5.482   7.894 -0.1806 -0.0535  0.1391
  667MOL0     C87939  -1.951   5.492   7.868 -0.0147  0.2143  0.3263
  667MOL0     C87940  -2.013   5.386   7.803  0.7474 -0.7822 -0.0204
  667MOL0     C87941  -2.164   5.383   7.790  0.6919  0.2945 -1.2834
  667MOL0     O87942  -2.229   5.274   7.749 -0.1607 -0.9161 -0.4868
  667MOL0     C87943  -2.366   5.301   7.725  0.0948 -0.3335 -0.3489
  667MOL0     C87944  -2.471   5.296   7.824  0.0787  1.4435 -0.3410
  667MOL0     C87945  -2.594   5.336   7.799  1.1684  0.2366 -0.0880
  667MOL0     C87946  -2.628   5.396   7.669 -0.5897 -0.3036 -1.0310
  667MOL0     O87947  -2.744   5.458   7.634  0.8823  0.7152  0.3098
  667MOL0     C87948  -2.824   5.514   7.738  0.5673 -0.2649 -0.9425
  667MOL0     C87949  -2.951   5.559   7.673 -0.2025  0.0084  0.3247
  667MOL0     C87950  -3.035   5.442   7.637  0.8012 -0.0282 -0.0174
  667MOL0     C87951  -3.178   5.468   7.582 -0.4752  0.8336  0.2745
  667MOL0     C87952  -3.263   5.348   7.555 -0.5638  0.6210 -0.2883
  667MOL0     C87953  -3.386   5.406   7.474 -0.0596 -0.8314  0.7554
  667MOL0     C87954  -3.354   5.443   7.320 -0.0552  0.6918  0.2532
  667MOL0     C87955  -3.473   5.474   7.236  1.0826 -0.1911 -0.4779
  667MOL0    Cl87956  -3.576   5.588   7.324 -0.1115 -0.5459 -0.3282
  667MOL0     C87957  -2.526   5.407   7.582 -0.5859  0.1754 -0.2074
  667MOL0     C87958  -2.398   5.358   7.603 -0.2962 -0.1484 -0.5411
  667MOL0     O87959  -2.224   5.489   7.822 -0.1122 -0.0085  0.1183
  667MOL0     C87960  -1.936   5.280   7.754  1.1174 -0.3374 -0.1077
  667MOL0     C87961  -1.796   5.279   7.771 -0.4051  0.8105  0.0624
  667MOL0     N87962  -1.439   5.983   7.754  0.0557  0.3215  0.3021
  667MOL0     N87963  -1.384   6.081   7.816 -0.3153 -0.1144  0.1316
  667MOL0     C87964  -0.263   5.751   8.087 -0.6466 -0.1839 -0.2631
  667MOL0     C87965  -0.138   5.731   8.134  0.4931 -0.1878  0.0763
  667MOL0     C87966   0.303   5.852   8.230  0.6348 -0.6617 -0.2142
  667MOL0     C87967   0.419   5.926   8.219  0.3683 -0.2983  0.0759
  667MOL0     C87968   0.543   5.873   8.258  0.6532 -0.8297 -0.7266
  667MOL0     C87969   0.557   5.752   8.316  0.5886  0.9793 -0.5438
  667MOL0     O87970   0.674   5.696   8.358  0.4080  0.6309  0.5342
  667MOL0     C87971   0.761   5.770   8.449  0.3760 -0.1332  0.5540
  667MOL0     C87972   0.885   5.702   8.497 -0.3514 -0.5591  0.2765
  667MOL0     C87973   0.999   5.698   8.391 -0.4600  0.3838  0.4018
  667MOL0     C87974   1.060   5.839   8.372 -0.2616  0.9209 -0.1578
  667MOL0     C87975   1.100   5.915   8.493  0.7801  0.4070 -0.4330
  667MOL0     C87976   1.128   5.991   8.582  0.0994 -0.1484 -0.0492
  667MOL0     C87977   0.439   5.676   8.342  0.3337  0.5341 -0.0375
  667MOL0     C87978   0.316   5.726   8.297 -0.1075  0.3812 -0.4636
  667MOL0     H87979   0.002   5.996   7.968  0.2656  0.9462  1.2433
  667MOL0     H87980  -0.227   5.990   7.866  1.6762  0.7497 -0.5651
  667MOL0     H87981  -0.558   5.712   7.995  1.4768 -2.3139  0.0675
  667MOL0     H87982  -0.462   5.667   7.853 -2.7168 -0.3513 -0.5828
  667MOL0     H87983  -0.635   5.712   7.713 -0.3051 -0.9938  1.0676
  667MOL0     H87984  -0.559   5.865   7.728 -1.1091  1.0213  1.0083
  667MOL0     H87985  -0.705   5.914   7.931  2.5686  1.2800 -3.1737
  667MOL0     H87986  -0.798   5.771   7.879 -0.4438 -0.3614  0.8048
  667MOL0     H87987  -0.750   6.006   7.689  0.6025 -0.6756 -0.0413
  667MOL0     H87988  -0.865   5.874   7.669  1.9627  1.4273 -1.8090
  667MOL0     H87989  -0.871   6.107   7.880 -2.3095  0.5245  0.1829
  667MOL0     H87990  -0.976   5.970   7.884 -1.4983 -1.9019 -1.5562
  667MOL0     H87991  -1.071   6.037   7.661 -2.0436 -1.8105  3.4680
  667MOL0     H87992  -0.936   6.151   7.635  0.0435  0.9974  1.2271
  667MOL0     H87993  -1.018   6.295   7.820  0.7153 -1.3833 -1.1572
  667MOL0     H87994  -1.140   6.273   7.705  0.6201 -0.0483  0.1987
  667MOL0     H87995  -1.224   6.233   7.953 -1.3938 -1.5477 -0.1577
  667MOL0     H87996  -1.096   6.110   7.975  3.6967  2.2773 -0.8782
  667MOL0     H87997  -1.168   5.850   7.888 -0.5616 -1.4846 -1.7741
  667MOL0     H87998  -1.290   5.694   7.681 -2.2196 -0.9059 -2.8527
  667MOL0     H87999  -1.463   5.720   7.670  0.8279  0.5953 -2.0268
  667MOL0     H88000  -1.495   5.688   7.895 -0.1314 -0.2672  1.1528
  667MOL0     H88001  -1.318   5.677   7.932 -0.0490 -0.7601  0.9467
  667MOL0     H88002  -1.321   5.484   7.767  0.4732 -0.3664  0.3561
  667MOL0     H88003  -1.385   5.452   7.924 -4.4112 -0.3703  0.2762
  667MOL0     H88004  -1.518   5.413   7.673  1.4095 -0.6211 -0.0833
  667MOL0     H88005  -1.600   5.552   7.756 -0.3302  0.2467  1.9095
  667MOL0     H88006  -1.757   5.544   7.961  0.2145 -0.0692 -0.1839
  667MOL0     H88007  -1.996   5.578   7.916  1.9729  1.0703  0.7912
  667MOL0     H88008  -2.451   5.258   7.924 -0.4476  4.9746  1.2459
  667MOL0     H88009  -2.669   5.320   7.876 -0.6275  0.9129 -1.6114
  667MOL0     H88010  -2.778   5.604   7.779 -2.5259  1.1551 -0.2921
  667MOL0     H88011  -2.845   5.432   7.807  0.9239 -0.9940 -1.6845
  667MOL0     H88012  -2.925   5.627   7.592 -2.7158  3.1945  1.9655
  667MOL0     H88013  -3.002   5.612   7.754  2.1161  0.0080  1.8779
  667MOL0     H88014  -3.035   5.379   7.727 -0.7968  1.8188  1.3565
  667MOL0     H88015  -2.991   5.379   7.559 -2.5541  2.6473 -4.5729
  667MOL0     H88016  -3.230   5.545   7.640 -1.8756  0.7878 -0.8681
  667MOL0     H88017  -3.153   5.507   7.483  2.7736  0.6678  0.9268
  667MOL0     H88018  -3.304   5.315   7.651 -0.1200  1.8397  0.3391
  667MOL0     H88019  -3.200   5.267   7.517  1.3139  1.6111  0.6077
  667MOL0     H88020  -3.425   5.496   7.523  0.4539 -0.9880  1.4613
  667MOL0     H88021  -3.468   5.334   7.481 -2.4168  1.6882  0.7262
  667MOL0     H88022  -3.299   5.536   7.305  3.8288 -1.6943 -1.8568
  667MOL0     H88023  -3.288   5.368   7.277 -0.7212 -0.0035  0.4048
  667MOL0     H88024  -3.528   5.382   7.213 -0.2065 -0.0298  1.7523
  667MOL0     H88025  -3.432   5.533   7.153 -1.7024  1.1564 -1.0180
  667MOL0     H88026  -2.542   5.454   7.485 -1.0719 -0.8797 -0.6566
  667MOL0     H88027  -2.313   5.386   7.541  1.0050 -0.7108  0.9199
  667MOL0     H88028  -1.989   5.203   7.697 -1.3649 -0.7991  2.6223
  667MOL0     H88029  -1.742   5.199   7.722 -1.3806 -0.4958  1.0443
  667MOL0     H88030  -0.348   5.692   8.120 -1.4402  0.8431 -0.3943
  667MOL0     H88031  -0.125   5.647   8.201 -0.6196 -0.9203 -0.6015
  667MOL0     H88032   0.417   6.021   8.165 -0.1867 -0.2136  0.2404
  667MOL0     H88033   0.633   5.932   8.249 -1.4645  2.4422 -2.6409
  667MOL0     H88034   0.700   5.787   8.538  2.4437  0.4205  1.9319
  667MOL0     H88035   0.791   5.861   8.397  1.9404 -0.2317  1.2353
  667MOL0     H88036   0.912   5.751   8.591  0.4268 -1.4633  0.5399
  667MOL0     H88037   0.846   5.602   8.519 -0.8176 -1.1987 -2.9677
  667MOL0     H88038   0.954   5.657   8.300  1.3296 -0.7568 -0.0157
  667MOL0     H88039   1.076   5.623   8.409  0.7762  1.8663  1.5281
  667MOL0     H88040   1.154   5.814   8.320  0.9654  2.1057  1.4069
  667MOL0     H88041   1.002   5.903   8.304 -1.7894  0.4369  0.6532
  667MOL0     H88042   1.152   6.064   8.657 -2.8414  1.9606 -0.9472
  667MOL0     H88043   0.458   5.577   8.382  0.7014  0.5342 -0.2079
  667MOL0     H88044   0.231   5.658   8.289  0.2442 -0.1405  0.1325
  668MOL0     O88045   1.399   2.551   6.146  0.5797  0.0346  0.6668
  668MOL0     C88046   1.315   2.471   6.102  0.1722 -0.4512  0.3579
  668MOL0     O88047   1.331   2.387   5.994  0.0830 -0.4628  0.8457
  668MOL0     C88048   1.449   2.391   5.927 -0.1791  0.4426  0.5604
  668MOL0     C88049   1.439   2.393   5.788  0.2928  0.7474 -0.4507
  668MOL0     C88050   1.548   2.394   5.700  0.1853 -0.2431 -1.1640
  668MOL0     C88051   1.674   2.416   5.752 -0.3232  0.0961 -0.0783
  668MOL0     O88052   1.776   2.442   5.660  0.6460  0.4151 -0.1885
  668MOL0     C88053   1.893   2.501   5.711 -1.2966  0.6102  1.0860
  668MOL0     C88054   1.982   2.523   5.591 -0.0326 -0.4842 -0.3063
  668MOL0     C88055   2.116   2.572   5.644 -0.4958 -0.1102  0.2822
  668MOL0     C88056   2.201   2.633   5.525 -0.4501  0.4119  0.3064
  668MOL0     C88057   2.317   2.717   5.579 -0.2615  0.3744 -0.1921
  668MOL0     C88058   2.410   2.625   5.645  0.0567 -0.5303 -0.0201
  668MOL0     C88059   2.548   2.689   5.671 -0.7971  1.2166 -0.2674
  668MOL0     C88060   2.646   2.584   5.724 -0.4356 -0.0053  0.2312
  668MOL0     N88061   2.591   2.503   5.837  0.6946  1.1618 -0.0409
  668MOL0     C88062   2.554   2.548   5.966  0.0352  0.7048  0.2291
  668MOL0     C88063   2.515   2.438   6.036  0.3210 -1.1570 -0.1298
  668MOL0     C88064   2.467   2.432   6.182 -0.0429 -0.0794  0.0846
  668MOL0     C88065   2.313   2.425   6.185 -0.9417 -0.5069 -0.7436
  668MOL0     C88066   2.252   2.473   6.321  0.4134  0.1447  0.0761
  668MOL0     C88067   2.101   2.441   6.330 -0.6200 -0.3415 -0.3458
  668MOL0     O88068   2.055   2.543   6.417  0.6332 -0.5420 -0.2460
  668MOL0     C88069   1.921   2.559   6.446  0.1636  1.2036 -0.7698
  668MOL0     C88070   1.828   2.460   6.395 -0.3446  0.6362  0.1009
  668MOL0     C88071   1.691   2.474   6.425 -0.3312 -0.2420 -0.2982
  668MOL0     C88072   1.648   2.590   6.485 -1.1169 -0.3494  0.4439
  668MOL0     C88073   1.501   2.610   6.512 -0.2355 -0.6805  1.0465
  668MOL0     O88074   1.454   2.741   6.514 -0.0470 -0.1149  0.4924
  668MOL0     C88075   1.317   2.754   6.545 -0.8612 -0.1016  0.2102
  668MOL0     C88076   1.231   2.823   6.462 -0.6100  0.2450 -0.7481
  668MOL0     C88077   1.103   2.860   6.499  1.3486  0.1546 -0.3683
  668MOL0     C88078   1.049   2.801   6.606 -0.0139 -0.0562 -0.0547
  668MOL0     O88079   0.918   2.839   6.631 -0.3161  0.2475 -0.1367
  668MOL0     C88080   0.870   2.827   6.769 -0.4415 -0.1519  0.6043
  668MOL0     C88081   0.746   2.913   6.817  0.4446 -0.5199 -0.1732
  668MOL0     C88082   0.675   2.848   6.933  0.4543  0.1979  0.9305
  668MOL0     C88083   0.575   2.951   6.983 -0.0590 -0.3439  0.0130
  668MOL0     C88084   0.453   2.975   6.897  0.1644 -0.1674  0.0967
  668MOL0     C88085   0.345   2.866   6.894 -0.2603 -0.0296 -0.6558
  668MOL0     C88086   0.245   2.912   6.797  1.1142  0.0018  0.4310
  668MOL0     C88087   0.141   2.801   6.776 -0.3992 -0.4463 -0.1427
  668MOL0    Cl88088   0.223   2.705   6.648  0.6182  0.0073  0.1257
  668MOL0     C88089   1.128   2.730   6.696 -0.4214 -0.4843 -0.4611
  668MOL0     C88090   1.262   2.706   6.661  0.8789 -0.0368  0.6807
  668MOL0     O88091   1.440   2.508   6.534  0.1667 -0.2234 -0.4564
  668MOL0     C88092   1.734   2.698   6.523 -1.1836  0.3735  0.0938
  668MOL0     C88093   1.872   2.672   6.511  0.1601 -0.1412 -0.2583
  668MOL0     N88094   2.551   2.330   5.957  0.7981 -0.4702 -0.0533
  668MOL0     N88095   2.583   2.364   5.841 -0.9234  0.2893  0.5335
  668MOL0     C88096   1.686   2.417   5.895 -0.4301 -1.3301  0.4848
  668MOL0     C88097   1.577   2.409   5.982 -0.3425  0.4088  0.6476
  668MOL0     C88098   1.176   2.496   6.142 -0.3616 -0.1569  0.1543
  668MOL0     C88099   1.147   2.539   6.273 -0.0295 -0.4738 -0.7292
  668MOL0     C88100   1.025   2.594   6.305  0.7847  0.6541  0.1855
  668MOL0     C88101   0.922   2.605   6.203 -0.3317 -0.5142  0.2925
  668MOL0     O88102   0.805   2.679   6.208  0.1147 -0.1157 -0.5039
  668MOL0     C88103   0.792   2.787   6.294 -0.5423  0.2442 -0.5929
  668MOL0     C88104   0.651   2.841   6.306  0.1136  0.0020 -0.1138
  668MOL0     C88105   0.633   2.970   6.393  0.7866 -0.0214  0.5787
  668MOL0     C88106   0.511   3.046   6.340 -0.6092 -0.2270  0.8199
  668MOL0     C88107   0.384   2.991   6.367  0.6626  0.1118  0.1982
  668MOL0     C88108   0.274   2.948   6.390  0.0726  0.6641  0.2932
  668MOL0     C88109   0.948   2.552   6.079 -0.0111  0.0585 -0.5332
  668MOL0     C88110   1.070   2.494   6.047 -1.1386  0.3495  0.4378
  668MOL0     H88111   1.344   2.393   5.736  0.6932  1.1775 -1.1934
  668MOL0     H88112   1.528   2.387   5.594 -1.6823 -0.1521 -0.8596
  668MOL0     H88113   1.948   2.433   5.776  0.6508 -1.8977 -2.8249
  668MOL0     H88114   1.878   2.598   5.759  1.1433  0.6334  1.9505
  668MOL0     H88115   1.930   2.599   5.532 -1.0101 -0.2058  0.8777
  668MOL0     H88116   1.993   2.422   5.548 -0.1903 -1.8884  2.6859
  668MOL0     H88117   2.162   2.479   5.678 -0.4757 -0.7466 -1.3706
  668MOL0     H88118   2.103   2.644   5.725  0.7379 -0.1910  0.5623
  668MOL0     H88119   2.235   2.564   5.447 -0.2654  3.1703 -2.2347
  668MOL0     H88120   2.143   2.714   5.479  1.0091  2.3244  1.6788
  668MOL0     H88121   2.284   2.798   5.644 -0.3329 -0.3746  0.7410
  668MOL0     H88122   2.356   2.760   5.487 -2.7284 -1.5783 -2.3218
  668MOL0     H88123   2.435   2.537   5.585  1.6476  0.3264 -0.6776
  668MOL0     H88124   2.375   2.592   5.743  0.9333 -2.0122 -0.1656
  668MOL0     H88125   2.577   2.730   5.574  0.7448 -0.3187 -0.5018
  668MOL0     H88126   2.537   2.775   5.739 -1.4686  2.4191 -1.8367
  668MOL0     H88127   2.725   2.649   5.763 -0.3343  1.1748 -1.8469
  668MOL0     H88128   2.689   2.527   5.642  0.9554  1.1017  0.1600
  668MOL0     H88129   2.555   2.650   6.002  0.4616  0.6939  0.2554
  668MOL0     H88130   2.480   2.533   6.222 -2.1835 -0.6518  2.4683
  668MOL0     H88131   2.524   2.358   6.239  1.2482  0.5476 -0.3480
  668MOL0     H88132   2.290   2.319   6.177  1.0814 -1.1861  1.5300
  668MOL0     H88133   2.279   2.482   6.097  1.5080 -0.6827 -1.8633
  668MOL0     H88134   2.305   2.437   6.410 -2.2937  2.1160  2.6901
  668MOL0     H88135   2.258   2.582   6.322  0.5132  0.2521 -2.9343
  668MOL0     H88136   2.095   2.339   6.368 -2.1680 -0.2430 -0.2632
  668MOL0     H88137   2.055   2.448   6.231 -1.8139 -3.6772 -0.1541
  668MOL0     H88138   1.860   2.368   6.348  3.7855  1.9768 -0.1041
  668MOL0     H88139   1.625   2.396   6.389 -1.2079 -0.2433  1.2166
  668MOL0     H88140   1.268   2.865   6.369  0.3915 -1.1701 -1.0303
  668MOL0     H88141   1.028   2.926   6.457 -0.9930 -0.9634  1.8164
  668MOL0     H88142   0.947   2.843   6.845 -0.0649 -0.2655  0.2567
  668MOL0     H88143   0.845   2.721   6.774 -0.7354 -0.0751  0.7175
  668MOL0     H88144   0.680   2.918   6.729 -0.1362 -0.1671  0.2763
  668MOL0     H88145   0.780   3.013   6.843  2.7044 -1.7943  2.1947
  668MOL0     H88146   0.749   2.830   7.012  0.2864 -1.2645  0.7683
  668MOL0     H88147   0.623   2.753   6.916 -1.3275  1.2398  0.2595
  668MOL0     H88148   0.538   2.933   7.085 -0.9690 -0.5699 -0.3516
  668MOL0     H88149   0.629   3.046   6.992 -0.8781 -0.0120  2.0235
  668MOL0     H88150   0.480   2.998   6.794 -0.8275  2.3504  0.3123
  668MOL0     H88151   0.401   3.061   6.940  1.1770  0.9613 -0.8558
  668MOL0     H88152   0.304   2.838   6.992  2.0083 -1.2142  0.0481
  668MOL0     H88153   0.403   2.784   6.850 -1.0139 -1.1688  0.4047
  668MOL0     H88154   0.194   3.002   6.833 -0.6523 -0.0066 -1.8223
  668MOL0     H88155   0.282   2.946   6.700 -0.4584  0.8375  0.0868
  668MOL0     H88156   0.053   2.842   6.726 -0.0872  0.0858 -0.2642
  668MOL0     H88157   0.116   2.747   6.867  2.2336 -1.4761  0.0659
  668MOL0     H88158   1.086   2.684   6.784  0.8385  1.6824  1.3680
  668MOL0     H88159   1.326   2.656   6.733 -0.5639  0.4745  2.4227
  668MOL0     H88160   1.694   2.787   6.571 -3.1295  1.7364 -3.6655
  668MOL0     H88161   1.942   2.747   6.545 -0.2963  1.1352 -1.9972
  668MOL0     H88162   1.781   2.424   5.945 -1.3723  1.0485  2.1608
  668MOL0     H88163   1.596   2.422   6.088  1.0823  1.1185  0.3273
  668MOL0     H88164   1.218   2.540   6.356 -0.4451  0.2560 -0.3769
  668MOL0     H88165   1.020   2.634   6.406  2.2194  1.0806  0.1115
  668MOL0     H88166   0.849   2.866   6.245 -0.9089  0.6830 -0.3229
  668MOL0     H88167   0.822   2.778   6.399  1.5005  1.8319 -0.9865
  668MOL0     H88168   0.618   2.861   6.204  2.5814 -0.6189 -1.0981
  668MOL0     H88169   0.588   2.762   6.350  0.9702 -0.8160 -0.3370
  668MOL0     H88170   0.719   3.035   6.379  0.3450  0.9914  2.3096
  668MOL0     H88171   0.629   2.940   6.498 -0.0424 -3.9436 -0.4002
  668MOL0     H88172   0.515   3.140   6.397 -2.5118  0.0496  0.5682
  668MOL0     H88173   0.512   3.070   6.233  0.3805 -0.4456  0.7641
  668MOL0     H88174   0.175   2.913   6.411  0.1293 -0.1269 -0.7129
  668MOL0     H88175   0.869   2.554   6.004 -3.0915  4.5876  2.2818
  668MOL0     H88176   1.093   2.455   5.948 -2.7906 -1.8612  0.8314
  669MOL0     O88177   5.243   8.283   3.777 -0.1623  0.5414  0.1896
  669MOL0     C88178   5.273   8.284   3.896  0.2011 -0.3652 -1.1387
  669MOL0     O88179   5.184   8.280   3.998 -0.5363  0.8459  0.1641
  669MOL0     C88180   5.049   8.286   3.976  0.1293 -0.0082  0.2562
  669MOL0     C88181   4.977   8.376   4.050  0.7801 -0.8917 -0.0098
  669MOL0     C88182   4.846   8.393   4.023  0.9609  1.0944  0.2760
  669MOL0     C88183   4.775   8.317   3.931  0.0768  0.6028 -0.6501
  669MOL0     O88184   4.644   8.343   3.903  0.4133 -0.2486 -0.1350
  669MOL0     C88185   4.542   8.255   3.878 -0.4114  0.0708  0.0357
  669MOL0     C88186   4.413   8.324   3.891 -0.7576  0.2147 -0.5624
  669MOL0     C88187   4.382   8.390   3.757 -0.4144  0.5997 -0.7957
  669MOL0     C88188   4.253   8.469   3.784  0.9446 -0.3135 -0.4657
  669MOL0     C88189   4.133   8.371   3.805 -0.1314  0.2514 -0.8204
  669MOL0     C88190   4.008   8.462   3.846 -0.5708 -0.8088 -0.0742
  669MOL0     C88191   3.890   8.380   3.893  0.7408 -0.2060 -0.5442
  669MOL0     C88192   3.763   8.463   3.928  0.2290  0.0029  0.0770
  669MOL0     N88193   3.670   8.385   4.023  0.1643  0.2033 -0.7038
  669MOL0     C88194   3.566   8.430   4.101  0.7623 -0.0308 -0.3551
  669MOL0     C88195   3.519   8.320   4.171  0.0353  0.5479 -0.0469
  669MOL0     C88196   3.400   8.346   4.271  0.1239  0.5082  0.3030
  669MOL0     C88197   3.286   8.250   4.243 -0.3177 -0.4381 -0.0175
  669MOL0     C88198   3.167   8.276   4.333 -0.2420 -0.5597  0.2215
  669MOL0     C88199   3.038   8.200   4.305 -0.6294 -0.4264  0.3953
  669MOL0     O88200   3.007   8.188   4.170 -0.3146 -0.7959  0.4723
  669MOL0     C88201   2.896   8.257   4.124 -0.4139 -0.6846  0.2650
  669MOL0     C88202   2.887   8.391   4.152 -0.3440  0.6839  0.4187
  669MOL0     C88203   2.780   8.465   4.121  0.2231  0.2075 -0.4803
  669MOL0     C88204   2.666   8.403   4.057 -0.8025  0.6507  0.4684
  669MOL0     C88205   2.535   8.477   4.031 -0.3102 -0.4549 -0.0287
  669MOL0     O88206   2.427   8.420   3.980  0.4211 -0.4550  0.3127
  669MOL0     C88207   2.344   8.499   3.910 -0.2213  0.0453  1.0773
  669MOL0     C88208   2.231   8.560   3.964 -0.4902 -0.4314  0.0334
  669MOL0     C88209   2.156   8.648   3.889 -0.2638 -0.5159 -0.7428
  669MOL0     C88210   2.186   8.681   3.757  0.3605  0.2722 -0.3822
  669MOL0     O88211   2.113   8.759   3.680 -0.0930 -0.6995  0.2042
  669MOL0     C88212   1.969   8.767   3.698 -0.4403 -0.2594 -0.8081
  669MOL0     C88213   1.911   8.879   3.605 -0.1832 -0.2976 -0.5112
  669MOL0     C88214   1.771   8.850   3.545  0.0515  0.3212 -0.5947
  669MOL0     C88215   1.728   8.954   3.452  0.2510 -1.3014  0.4315
  669MOL0     C88216   1.580   8.961   3.421 -0.3153 -0.5104 -0.1938
  669MOL0     C88217   1.550   9.079   3.330  0.6719 -0.3852 -0.6047
  669MOL0     C88218   1.409   9.076   3.282 -0.0564 -0.1223  0.1246
  669MOL0     C88219   1.360   9.217   3.235  0.7474  0.4624  0.3804
  669MOL0    Cl88220   1.317   9.335   3.362  0.5161 -0.1476 -0.2081
  669MOL0     C88221   2.298   8.627   3.699 -0.2559 -0.6643  0.9228
  669MOL0     C88222   2.378   8.541   3.771 -0.7074  0.9545 -0.8916
  669MOL0     O88223   2.546   8.600   4.049 -0.7450  0.0140  0.0430
  669MOL0     C88224   2.682   8.268   4.021 -0.1664  0.2028  0.1987
  669MOL0     C88225   2.801   8.200   4.050  0.2379  0.6696 -0.1799
  669MOL0     N88226   3.593   8.207   4.148  0.6032 -0.0485  0.0022
  669MOL0     N88227   3.679   8.249   4.056 -0.6994 -0.3858 -0.4386
  669MOL0     C88228   4.847   8.221   3.861  0.3797 -0.0774 -0.2315
  669MOL0     C88229   4.980   8.201   3.882 -0.6878 -0.5456  0.1033
  669MOL0     C88230   5.418   8.289   3.944  0.8324  0.4010 -0.0865
  669MOL0     C88231   5.518   8.291   3.844  0.2965 -0.1104  0.5186
  669MOL0     C88232   5.656   8.296   3.886 -0.5758 -0.0105 -0.0183
  669MOL0     C88233   5.697   8.298   4.018 -0.1320 -0.5540  0.8617
  669MOL0     O88234   5.828   8.310   4.049  0.2647  0.4007  0.2320
  669MOL0     C88235   5.866   8.343   4.185  0.1927  0.8786  0.6264
  669MOL0     C88236   6.006   8.402   4.173  0.1146  0.1145 -0.2078
  669MOL0     C88237   6.097   8.340   4.064  0.2040  0.0228  0.9072
  669MOL0     C88238   6.234   8.342   4.113  0.2601  0.1754  0.4761
  669MOL0     C88239   6.328   8.281   4.008 -0.4236 -0.7364 -0.5091
  669MOL0     C88240   6.411   8.245   3.925 -0.6558 -0.3015 -1.1019
  669MOL0     C88241   5.601   8.294   4.115  0.1221 -0.2037 -0.1487
  669MOL0     C88242   5.460   8.280   4.078 -0.6226 -0.0204  0.1457
  669MOL0     H88243   5.020   8.450   4.117 -3.9431  1.8949  0.3601
  669MOL0     H88244   4.794   8.467   4.083  0.2200 -0.5693  1.7974
  669MOL0     H88245   4.534   8.181   3.958 -5.3945 -0.3677 -0.5550
  669MOL0     H88246   4.550   8.203   3.782  0.9055  0.4407 -0.0708
  669MOL0     H88247   4.414   8.389   3.979 -1.9964 -3.0488  2.0563
  669MOL0     H88248   4.340   8.248   3.922 -0.0808 -0.4043 -0.4589
  669MOL0     H88249   4.368   8.312   3.682 -2.5456 -0.9934  1.1200
  669MOL0     H88250   4.465   8.451   3.720 -0.8576  1.0394 -1.0799
  669MOL0     H88251   4.263   8.533   3.872  0.4430  0.1096 -0.7111
  669MOL0     H88252   4.226   8.540   3.705 -0.5804  1.3061  1.3919
  669MOL0     H88253   4.151   8.301   3.887 -0.7088 -0.0094 -0.9162
  669MOL0     H88254   4.112   8.311   3.715  2.4114 -1.5640 -0.3070
  669MOL0     H88255   3.986   8.536   3.768  0.7038  1.3564  1.5002
  669MOL0     H88256   4.040   8.524   3.929  0.5487  0.4494 -1.3882
  669MOL0     H88257   3.860   8.312   3.813  0.4188  0.6239 -1.1389
  669MOL0     H88258   3.922   8.328   3.984 -0.6966  1.4009  0.9658
  669MOL0     H88259   3.706   8.496   3.841  0.4155  2.6673  0.8733
  669MOL0     H88260   3.799   8.556   3.973 -1.5994  0.6582  0.2626
  669MOL0     H88261   3.528   8.532   4.104  2.2528  0.5943 -1.3589
  669MOL0     H88262   3.377   8.451   4.253 -4.2487 -0.0290  1.5964
  669MOL0     H88263   3.441   8.341   4.373  1.6633  0.3714 -0.2901
  669MOL0     H88264   3.318   8.146   4.249 -0.0018 -0.4370 -1.4208
  669MOL0     H88265   3.249   8.286   4.147 -1.5231 -0.1033  0.5461
  669MOL0     H88266   3.202   8.252   4.434  2.6739  1.7899 -0.0917
  669MOL0     H88267   3.151   8.384   4.329 -3.2811 -0.9318 -0.1580
  669MOL0     H88268   2.958   8.247   4.364 -0.6384  2.5665 -1.7522
  669MOL0     H88269   3.055   8.100   4.346 -0.2970 -0.4239  0.2693
  669MOL0     H88270   2.978   8.437   4.191 -0.0849  2.5078 -2.0925
  669MOL0     H88271   2.767   8.567   4.155 -3.1070  0.1283 -1.1361
  669MOL0     H88272   2.198   8.543   4.066  0.3780 -1.3626  0.1681
  669MOL0     H88273   2.069   8.693   3.935  0.4727 -0.7196  0.9495
  669MOL0     H88274   1.935   8.787   3.800  0.7644  0.6048 -0.5593
  669MOL0     H88275   1.918   8.672   3.681 -2.2078  0.4510  0.2228
  669MOL0     H88276   1.981   8.893   3.523  0.5353  0.4063  0.2017
  669MOL0     H88277   1.902   8.975   3.656  2.5149  0.9827 -2.2372
  669MOL0     H88278   1.687   8.845   3.615  0.0670  0.6153 -0.5573
  669MOL0     H88279   1.799   8.757   3.494  0.1457 -0.6798  1.1920
  669MOL0     H88280   1.758   9.055   3.484 -1.1123 -0.2071 -1.5054
  669MOL0     H88281   1.775   8.927   3.357 -3.1742 -1.6666 -1.3221
  669MOL0     H88282   1.514   8.968   3.509 -1.5089 -1.7896 -0.9382
  669MOL0     H88283   1.551   8.872   3.364  1.3429 -0.0376 -1.8615
  669MOL0     H88284   1.628   9.088   3.255  1.4907 -1.6531  0.0622
  669MOL0     H88285   1.558   9.171   3.389  3.0831 -1.0375  0.1991
  669MOL0     H88286   1.397   9.004   3.201 -1.3466  1.0081 -0.7322
  669MOL0     H88287   1.340   9.042   3.360 -0.1526 -2.0575 -0.7464
  669MOL0     H88288   1.279   9.209   3.161  0.7289 -0.1580  0.4555
  669MOL0     H88289   1.441   9.245   3.167 -1.3219 -2.3071 -3.6575
  669MOL0     H88290   2.331   8.669   3.605 -1.4865 -2.7648 -0.5096
  669MOL0     H88291   2.468   8.502   3.725 -0.3197 -0.7976  1.2034
  669MOL0     H88292   2.600   8.220   3.969 -0.2454  0.6954 -0.1394
  669MOL0     H88293   2.819   8.098   4.017 -0.3358 -0.1085  1.7675
  669MOL0     H88294   4.797   8.161   3.785 -1.3340  0.9712  0.0121
  669MOL0     H88295   5.029   8.128   3.819  2.7666  1.5504  0.0779
  669MOL0     H88296   5.493   8.290   3.738  0.3028  0.8643  0.4986
  669MOL0     H88297   5.742   8.278   3.822  1.1557  1.3994  1.7693
  669MOL0     H88298   5.861   8.259   4.255  1.4138 -1.0377 -1.4580
  669MOL0     H88299   5.798   8.425   4.207  1.2048  2.5195 -1.8969
  669MOL0     H88300   5.999   8.511   4.178  1.7246  0.2337  0.3887
  669MOL0     H88301   6.053   8.372   4.268 -0.6163  2.1341  0.8554
  669MOL0     H88302   6.068   8.386   3.969 -0.1908 -1.5635  0.2212
  669MOL0     H88303   6.077   8.232   4.055  0.9200 -0.0752  0.3807
  669MOL0     H88304   6.264   8.446   4.129 -0.6930  0.3544  1.1775
  669MOL0     H88305   6.234   8.283   4.205 -1.5157 -1.8176 -0.7117
  669MOL0     H88306   6.478   8.207   3.851 -1.8338 -2.6054 -1.0851
  669MOL0     H88307   5.626   8.305   4.220  0.6248  2.1956 -0.4695
  669MOL0     H88308   5.385   8.269   4.156 -2.8298 -2.6261 -2.1181
  670MOL0     O88309   9.683   6.984   7.337 -0.2120 -0.7903 -0.2851
  670MOL0     C88310   9.702   7.105   7.332  0.5821  0.2574 -0.0739
  670MOL0     O88311   9.611   7.194   7.277 -0.1984 -0.0034  0.2831
  670MOL0     C88312   9.489   7.169   7.233  0.4271 -0.6169  0.1612
  670MOL0     C88313   9.418   7.278   7.185 -0.0288 -0.3107 -0.1593
  670MOL0     C88314   9.286   7.271   7.135  0.5171  0.8320  0.0672
  670MOL0     C88315   9.207   7.158   7.145  0.3897 -0.0460 -0.3954
  670MOL0     O88316   9.081   7.175   7.102  0.1494  0.4446 -0.1394
  670MOL0     C88317   8.989   7.093   7.179 -0.4287 -0.6108 -0.0189
  670MOL0     C88318   8.842   7.104   7.120  0.4712  0.0446 -0.7355
  670MOL0     C88319   8.769   7.236   7.169  0.7627 -0.3087  0.3762
  670MOL0     C88320   8.627   7.220   7.115  0.4775 -0.6670 -0.1776
  670MOL0     C88321   8.538   7.353   7.141 -0.2889 -0.6560 -0.6380
  670MOL0     C88322   8.414   7.350   7.052 -0.0930 -0.2222  0.0425
  670MOL0     C88323   8.342   7.484   7.034  0.2163  0.3410 -0.2527
  670MOL0     C88324   8.245   7.516   7.155 -0.3637 -0.1746  0.1628
  670MOL0     N88325   8.116   7.578   7.120  0.3297  0.0868  0.5194
  670MOL0     C88326   8.001   7.509   7.084 -0.0511  0.8187 -0.0866
  670MOL0     C88327   7.898   7.587   7.100  0.2634 -0.2323  1.1890
  670MOL0     C88328   7.763   7.554   7.026  0.5531  0.0966  0.3631
  670MOL0     C88329   7.663   7.512   7.129  0.2206 -0.0874  0.0721
  670MOL0     C88330   7.523   7.476   7.082 -0.0530 -0.2146  0.2388
  670MOL0     C88331   7.519   7.344   6.996  0.1432 -1.0274  0.3375
  670MOL0     O88332   7.408   7.266   7.041  0.8105 -0.3465 -0.1608
  670MOL0     C88333   7.282   7.293   6.990  0.3172 -0.8301 -0.3500
  670MOL0     C88334   7.236   7.415   6.943 -0.3984 -0.0623 -0.0752
  670MOL0     C88335   7.099   7.426   6.909  0.3431 -0.5388  0.0756
  670MOL0     C88336   7.014   7.320   6.935 -0.2317  0.1130 -0.2888
  670MOL0     C88337   6.874   7.340   6.929 -0.9423  0.0449  0.3118
  670MOL0     O88338   6.792   7.242   6.983 -0.0838  0.5018  0.5102
  670MOL0     C88339   6.658   7.237   6.953 -0.0301 -0.1845  0.1161
  670MOL0     C88340   6.566   7.206   7.048  0.2355  0.7166 -0.4113
  670MOL0     C88341   6.429   7.211   7.016 -0.4903 -0.7122 -0.4378
  670MOL0     C88342   6.383   7.254   6.897 -0.0793  0.0973 -0.0356
  670MOL0     O88343   6.248   7.264   6.883 -0.5367  0.0969 -0.1581
  670MOL0     C88344   6.192   7.365   6.802 -0.3748  0.6634  0.2461
  670MOL0     C88345   6.047   7.402   6.852  0.4943 -0.1604 -0.2743
  670MOL0     C88346   6.034   7.557   6.860 -0.4467 -0.2797  0.8284
  670MOL0     C88347   5.892   7.604   6.912 -0.0425  0.1405  0.2715
  670MOL0     C88348   5.864   7.573   7.058  0.4950 -0.8492 -0.0447
  670MOL0     C88349   5.749   7.666   7.112  1.2761  0.0459 -0.2971
  670MOL0     C88350   5.610   7.644   7.042  0.2649  0.2752 -1.0453
  670MOL0     C88351   5.501   7.736   7.089  0.0519 -0.3483 -0.9351
  670MOL0    Cl88352   5.458   7.697   7.257  0.2714 -0.1142 -0.4610
  670MOL0     C88353   6.480   7.283   6.800  0.7548 -0.2350  0.6248
  670MOL0     C88354   6.610   7.264   6.828 -0.5174 -0.3724  0.8005
  670MOL0     O88355   6.835   7.451   6.889  0.6954  0.3736  0.4083
  670MOL0     C88356   7.056   7.194   6.984  0.4416  0.1667 -0.5638
  670MOL0     C88357   7.195   7.189   7.024  0.0119  0.5868  0.4478
  670MOL0     N88358   7.941   7.701   7.157 -0.1769 -0.7391  1.1152
  670MOL0     N88359   8.069   7.698   7.157  0.1329  0.3193 -0.7385
  670MOL0     C88360   9.275   7.047   7.203 -0.1782 -0.2965 -0.5452
  670MOL0     C88361   9.411   7.055   7.252  0.3813  0.5440  0.4742
  670MOL0     C88362   9.823   7.159   7.394 -0.3475  0.8492 -0.7389
  670MOL0     C88363   9.950   7.095   7.382  0.3032  0.1704  0.3228
  670MOL0     C88364  10.069   7.153   7.435  0.0424  0.8451  0.8389
  670MOL0     C88365  10.063   7.283   7.496  0.2838 -0.1159 -0.2120
  670MOL0     O88366  10.165   7.355   7.550 -0.4309 -1.1573 -0.2554
  670MOL0     C88367  10.298   7.310   7.517  0.9116 -0.0324 -0.3335
  670MOL0     C88368  10.395   7.410   7.572 -0.6494 -0.4236  0.5391
  670MOL0     C88369  10.403   7.545   7.492 -0.1975  0.1607 -0.8067
  670MOL0     C88370  10.498   7.646   7.566  0.0116 -0.8290  0.9870
  670MOL0     C88371  10.645   7.609   7.544  0.0787 -0.1476 -0.1833
  670MOL0     C88372  10.766   7.603   7.533  0.6146 -0.1386 -0.5788
  670MOL0     C88373   9.936   7.344   7.512  0.0788  0.7266  0.3298
  670MOL0     C88374   9.815   7.281   7.465 -0.1841  0.5065  0.1336
  670MOL0     H88375   9.458   7.379   7.182 -0.6128  0.0297  1.8000
  670MOL0     H88376   9.236   7.354   7.087  1.1139 -0.0005 -2.1360
  670MOL0     H88377   9.004   7.104   7.287  1.9703 -0.1194 -0.3478
  670MOL0     H88378   9.016   6.988   7.167 -2.8200 -1.0634 -2.3840
  670MOL0     H88379   8.790   7.009   7.137  1.9214 -1.1187 -2.4776
  670MOL0     H88380   8.852   7.102   7.011 -0.2929 -2.0104 -0.8199
  670MOL0     H88381   8.828   7.322   7.138  2.0927 -1.6080 -0.8551
  670MOL0     H88382   8.759   7.237   7.278  3.0456 -1.8913  0.6706
  670MOL0     H88383   8.640   7.194   7.009  2.0282  0.9608 -0.4534
  670MOL0     H88384   8.573   7.142   7.169 -0.1866  0.0964  0.2883
  670MOL0     H88385   8.591   7.446   7.119  0.3924 -0.9435 -0.2558
  670MOL0     H88386   8.498   7.354   7.243  1.3333 -0.8245  0.0397
  670MOL0     H88387   8.347   7.268   7.081  0.8011 -2.0132 -2.6392
  670MOL0     H88388   8.451   7.325   6.953 -0.3672  0.5798 -0.2704
  670MOL0     H88389   8.420   7.560   7.035  0.5249  0.0480 -1.2931
  670MOL0     H88390   8.286   7.489   6.940  0.6996 -0.2228 -0.5827
  670MOL0     H88391   8.300   7.585   7.220 -0.9544 -0.5098  1.0357
  670MOL0     H88392   8.226   7.422   7.208  1.0080 -0.4512  0.2099
  670MOL0     H88393   8.002   7.407   7.048  3.1924  0.4835  0.6083
  670MOL0     H88394   7.778   7.473   6.953  2.9363  0.3536  0.4926
  670MOL0     H88395   7.728   7.644   6.975  2.2382  0.5802 -0.0008
  670MOL0     H88396   7.661   7.588   7.207  0.9451 -0.4400  0.4479
  670MOL0     H88397   7.720   7.430   7.174  0.6643  1.9521  3.5657
  670MOL0     H88398   7.452   7.461   7.164 -1.4332 -0.0992 -0.8900
  670MOL0     H88399   7.485   7.565   7.030 -1.3928 -0.3961  0.8615
  670MOL0     H88400   7.609   7.284   7.007  1.3167  0.4117 -0.9305
  670MOL0     H88401   7.529   7.378   6.892  1.9740  1.8876  1.3475
  670MOL0     H88402   7.301   7.501   6.944 -0.6836  0.5256 -4.9507
  670MOL0     H88403   7.071   7.527   6.880 -2.1280 -1.7027 -1.9053
  670MOL0     H88404   6.598   7.182   7.149 -0.8923 -2.6282 -0.7267
  670MOL0     H88405   6.360   7.180   7.095 -1.6897  0.3146 -1.0443
  670MOL0     H88406   6.191   7.338   6.696  0.8356  0.4067  0.2897
  670MOL0     H88407   6.254   7.454   6.818 -0.0274  0.0979  2.4235
  670MOL0     H88408   6.030   7.358   6.951 -2.6546 -0.2629 -0.7757
  670MOL0     H88409   5.964   7.365   6.791 -1.0462 -0.1655  1.7067
  670MOL0     H88410   6.052   7.595   6.759 -0.7483 -1.2177  0.4107
  670MOL0     H88411   6.095   7.591   6.944  1.5999 -1.1356 -0.2323
  670MOL0     H88412   5.888   7.713   6.902  0.9330  0.2704  1.0766
  670MOL0     H88413   5.825   7.559   6.839 -3.3370  1.7384  2.0937
  670MOL0     H88414   5.952   7.597   7.118 -0.2915  0.1567  0.7603
  670MOL0     H88415   5.844   7.467   7.077 -0.0982 -0.4205  1.9477
  670MOL0     H88416   5.770   7.772   7.093 -2.0539  1.8955  4.2664
  670MOL0     H88417   5.742   7.637   7.217 -0.2660 -4.3619 -1.3901
  670MOL0     H88418   5.614   7.668   6.936  0.6569  2.1881 -0.6305
  670MOL0     H88419   5.583   7.538   7.049 -2.3780  0.9539  1.1307
  670MOL0     H88420   5.418   7.723   7.019 -0.0318  2.5140 -1.4752
  670MOL0     H88421   5.537   7.839   7.091 -1.1549  0.0866 -0.9028
  670MOL0     H88422   6.440   7.313   6.703  0.2887  0.5817  1.0586
  670MOL0     H88423   6.681   7.281   6.748 -0.2994  1.5767  1.3489
  670MOL0     H88424   6.992   7.110   7.011  0.8014  0.5960  1.8595
  670MOL0     H88425   7.233   7.107   7.083  0.7072  0.6484  0.0939
  670MOL0     H88426   9.222   6.956   7.229  0.1580 -0.4429 -0.3769
  670MOL0     H88427   9.447   6.963   7.297  1.2200  0.3363 -0.5932
  670MOL0     H88428   9.951   6.995   7.340 -0.4177  0.5675 -0.6822
  670MOL0     H88429  10.160   7.094   7.441 -0.0966  0.6640  1.1708
  670MOL0     H88430  10.307   7.298   7.409  0.5461 -2.0848 -0.1723
  670MOL0     H88431  10.306   7.214   7.569 -3.4004  0.5227  1.8095
  670MOL0     H88432  10.379   7.440   7.676 -1.4659 -0.0985  0.3251
  670MOL0     H88433  10.495   7.365   7.574 -0.5988 -0.3111  1.7814
  670MOL0     H88434  10.305   7.590   7.472 -0.5418  1.2922  2.7031
  670MOL0     H88435  10.454   7.521   7.398  0.6546  0.2209 -0.3713
  670MOL0     H88436  10.487   7.740   7.511 -5.4450  0.2935  3.2960
  670MOL0     H88437  10.479   7.669   7.671  0.8278  2.2372  0.5659
  670MOL0     H88438  10.873   7.603   7.524  0.6761  1.1610  0.0306
  670MOL0     H88439   9.921   7.443   7.554  0.3124 -0.1043  2.5118
  670MOL0     H88440   9.719   7.332   7.464 -0.1260  0.6111 -1.0188
  671MOL0     O88441   6.192   1.455   7.317 -0.4594  0.7624  0.3133
  671MOL0     C88442   6.247   1.436   7.431 -0.3628 -0.1670  1.7521
  671MOL0     O88443   6.199   1.362   7.538 -0.2696  0.2219  0.4043
  671MOL0     C88444   6.070   1.304   7.525 -0.8306 -0.1296 -0.3097
  671MOL0     C88445   6.033   1.222   7.419 -1.1622 -0.2037  0.3737
  671MOL0     C88446   5.898   1.191   7.389 -0.5902  1.4136 -0.6450
  671MOL0     C88447   5.803   1.237   7.481  0.6239  0.6306 -0.9722
  671MOL0     O88448   5.680   1.178   7.454 -0.4537  0.2405 -0.1728
  671MOL0     C88449   5.564   1.257   7.487 -0.4434  0.0262 -0.2706
  671MOL0     C88450   5.440   1.187   7.424 -0.1332  0.1150  0.0297
  671MOL0     C88451   5.307   1.232   7.478 -0.0185 -0.3936 -0.2150
  671MOL0     C88452   5.242   1.145   7.585 -0.7068  0.1311  0.4147
  671MOL0     C88453   5.097   1.194   7.617  0.4061 -0.6208  0.1452
  671MOL0     C88454   5.054   1.142   7.758  0.3182  0.4755  0.3395
  671MOL0     C88455   4.906   1.175   7.782 -0.1769 -0.5526  0.2484
  671MOL0     C88456   4.816   1.075   7.713 -0.0405  0.9189  0.7720
  671MOL0     N88457   4.677   1.088   7.736 -0.5587 -0.0805  0.5635
  671MOL0     C88458   4.581   0.990   7.739  1.4058 -0.2552  0.6361
  671MOL0     C88459   4.473   1.061   7.788 -0.2802 -0.6266 -1.0902
  671MOL0     C88460   4.340   1.000   7.809  0.3625  1.1869 -0.6470
  671MOL0     C88461   4.283   1.028   7.950  0.0441 -0.7696 -0.4758
  671MOL0     C88462   4.168   0.937   7.970  0.1568  0.3420 -0.1815
  671MOL0     C88463   4.081   0.993   8.082 -0.1329  0.8023 -0.4397
  671MOL0     O88464   3.973   0.903   8.093  0.2782  0.7172 -0.2053
  671MOL0     C88465   3.846   0.937   8.119  0.5871  0.6691 -0.1811
  671MOL0     C88466   3.761   0.830   8.135 -0.2575 -0.3201 -0.1468
  671MOL0     C88467   3.622   0.839   8.152 -0.1997 -0.9082 -0.7384
  671MOL0     C88468   3.566   0.965   8.172 -0.4877  0.3196 -0.1656
  671MOL0     C88469   3.421   0.973   8.193  0.2945 -0.1650 -0.1738
  671MOL0     O88470   3.368   1.101   8.188  0.3359 -0.5606  0.3915
  671MOL0     C88471   3.232   1.116   8.211 -0.6295  0.4291  0.7550
  671MOL0     C88472   3.207   1.243   8.274 -0.1307  0.2463 -0.0678
  671MOL0     C88473   3.076   1.282   8.301  0.2226 -0.8457 -0.0250
  671MOL0     C88474   2.965   1.206   8.256 -0.0912 -0.1293 -0.4376
  671MOL0     O88475   2.831   1.243   8.297 -0.7436 -1.0881 -0.3511
  671MOL0     C88476   2.737   1.218   8.191  1.3086 -0.1136 -0.4520
  671MOL0     C88477   2.705   1.352   8.119 -0.8734 -0.2783 -0.0447
  671MOL0     C88478   2.579   1.353   8.033  0.2302 -0.0549  0.0685
  671MOL0     C88479   2.589   1.268   7.901  0.2076  0.2597 -1.0369
  671MOL0     C88480   2.461   1.282   7.819  0.4677 -0.0813  0.6678
  671MOL0     C88481   2.360   1.179   7.851 -0.1298  0.5819 -0.6518
  671MOL0     C88482   2.228   1.205   7.766 -0.6221  1.0204 -0.3817
  671MOL0     C88483   2.206   1.094   7.661 -0.2600  0.1054 -0.6393
  671MOL0    Cl88484   2.191   0.941   7.731  0.1042  0.4720 -0.2061
  671MOL0     C88485   2.993   1.078   8.206  0.1732  0.0973 -0.8613
  671MOL0     C88486   3.124   1.032   8.177 -0.0037  0.2156 -0.4930
  671MOL0     O88487   3.360   0.873   8.214  0.6054  0.0918  0.7730
  671MOL0     C88488   3.656   1.078   8.164 -0.3119  0.6725  0.8606
  671MOL0     C88489   3.785   1.061   8.124 -0.5693  0.4926 -0.1453
  671MOL0     N88490   4.509   1.193   7.823  0.0797 -0.0395  0.4849
  671MOL0     N88491   4.632   1.212   7.777 -0.1520  0.4099 -0.0766
  671MOL0     C88492   5.841   1.304   7.600  0.3108  1.3212 -0.1245
  671MOL0     C88493   5.974   1.336   7.618  0.8214 -0.0633  0.6822
  671MOL0     C88494   6.380   1.491   7.456 -0.1910 -0.5072  0.7621
  671MOL0     C88495   6.462   1.525   7.347 -0.0425  0.5234 -0.7719
  671MOL0     C88496   6.587   1.589   7.376 -0.5013  0.0587 -0.1025
  671MOL0     C88497   6.641   1.599   7.501  1.0676  0.2604 -0.0106
  671MOL0     O88498   6.755   1.673   7.530  0.2764  0.2005  0.4243
  671MOL0     C88499   6.865   1.675   7.441 -0.0849 -0.1846  0.6618
  671MOL0     C88500   6.996   1.743   7.501  0.7619  0.9740  0.6435
  671MOL0     C88501   7.036   1.676   7.635  0.5766 -0.6403  0.4954
  671MOL0     C88502   7.120   1.544   7.629  0.5192 -0.2510  0.1788
  671MOL0     C88503   7.255   1.564   7.570 -0.2452  0.5497  1.3507
  671MOL0     C88504   7.365   1.584   7.527 -0.5438 -0.0387  0.0488
  671MOL0     C88505   6.561   1.565   7.607  0.2889 -0.2988  0.7760
  671MOL0     C88506   6.428   1.515   7.584 -0.2088 -0.3694  0.6057
  671MOL0     H88507   6.104   1.187   7.344 -0.7869  0.0791  0.5922
  671MOL0     H88508   5.850   1.146   7.302  0.2149 -1.5927  0.3580
  671MOL0     H88509   5.576   1.357   7.444  0.2851 -1.0327 -2.7321
  671MOL0     H88510   5.543   1.247   7.594  1.5663 -1.6277  0.0313
  671MOL0     H88511   5.438   1.079   7.405 -1.8080  0.2900 -0.9911
  671MOL0     H88512   5.440   1.229   7.323 -3.0981  1.6853  0.5956
  671MOL0     H88513   5.235   1.241   7.396  0.3266  1.7497 -0.3371
  671MOL0     H88514   5.314   1.333   7.520 -1.4320  0.9796 -2.9525
  671MOL0     H88515   5.228   1.041   7.553  0.4180  0.4475 -1.2046
  671MOL0     H88516   5.304   1.149   7.675  0.5717 -1.2514 -0.3585
  671MOL0     H88517   5.024   1.165   7.541  1.6682 -3.4118 -0.1250
  671MOL0     H88518   5.101   1.304   7.622 -0.5421 -0.6271  1.6801
  671MOL0     H88519   5.118   1.185   7.835  0.6153 -2.4044  1.8403
  671MOL0     H88520   5.063   1.033   7.768 -0.6548  0.2203 -1.1979
  671MOL0     H88521   4.876   1.182   7.887  1.2990 -1.4355  0.7545
  671MOL0     H88522   4.893   1.277   7.745 -1.6152  0.1200  2.3916
  671MOL0     H88523   4.843   0.971   7.734 -4.1976 -0.2875  0.9497
  671MOL0     H88524   4.836   1.087   7.606 -0.7337 -1.8451  0.2535
  671MOL0     H88525   4.585   0.890   7.697  0.6375 -0.2250  0.4738
  671MOL0     H88526   4.348   0.893   7.788 -1.5483  1.0456 -0.7893
  671MOL0     H88527   4.272   1.038   7.732 -0.4925 -2.7118 -2.0346
  671MOL0     H88528   4.252   1.133   7.949  0.2202 -0.6780  1.1741
  671MOL0     H88529   4.362   1.012   8.025 -2.3698  2.7002  3.2810
  671MOL0     H88530   4.106   0.936   7.880  2.4878  3.5015 -2.0391
  671MOL0     H88531   4.207   0.838   7.994  2.7539  0.8621 -1.8120
  671MOL0     H88532   4.057   1.097   8.059  1.7965  1.4267  0.1548
  671MOL0     H88533   4.141   0.988   8.173  1.4048  2.1205 -1.3186
  671MOL0     H88534   3.811   0.733   8.131  1.3206  0.4732 -3.4588
  671MOL0     H88535   3.566   0.748   8.172  1.1188 -1.8073 -1.0182
  671MOL0     H88536   3.279   1.313   8.315 -2.5738  3.2228 -0.5047
  671MOL0     H88537   3.056   1.377   8.349 -1.2362 -0.8999 -0.4730
  671MOL0     H88538   2.647   1.189   8.245  0.1115  0.6081 -1.9752
  671MOL0     H88539   2.767   1.143   8.116  1.7887 -1.1838  0.7817
  671MOL0     H88540   2.786   1.384   8.052 -0.8087 -3.0328 -1.4222
  671MOL0     H88541   2.709   1.428   8.198 -2.8988 -1.9218  1.7303
  671MOL0     H88542   2.552   1.455   8.004  1.3022  0.3332  0.3601
  671MOL0     H88543   2.501   1.303   8.091 -0.5090  0.9477 -0.0337
  671MOL0     H88544   2.681   1.299   7.850  2.2755 -4.7435 -0.9748
  671MOL0     H88545   2.599   1.161   7.925 -1.9480  0.4262  0.9068
  671MOL0     H88546   2.484   1.249   7.717 -1.5294 -0.5616  0.3193
  671MOL0     H88547   2.418   1.382   7.819  0.6840  0.0326 -0.5706
  671MOL0     H88548   2.337   1.208   7.954 -1.2576 -0.6989 -0.5240
  671MOL0     H88549   2.396   1.076   7.850  0.2027  0.5187  3.2621
  671MOL0     H88550   2.152   1.202   7.844 -0.0425 -3.6266  0.2925
  671MOL0     H88551   2.230   1.296   7.706  0.2608  1.7655  0.7436
  671MOL0     H88552   2.292   1.091   7.595 -1.2935 -1.6741 -1.9783
  671MOL0     H88553   2.113   1.115   7.607 -0.9071 -0.0590  0.3699
  671MOL0     H88554   2.910   1.011   8.186  0.6598 -1.1859  1.1129
  671MOL0     H88555   3.140   0.933   8.136 -1.5062 -0.0778 -0.4280
  671MOL0     H88556   3.631   1.184   8.164 -1.7025  0.6299 -4.7098
  671MOL0     H88557   3.836   1.155   8.108  0.9187 -0.2318  0.2145
  671MOL0     H88558   5.776   1.330   7.683  0.5590 -1.3049  0.9681
  671MOL0     H88559   6.012   1.393   7.701  3.2513 -0.2724 -0.1993
  671MOL0     H88560   6.419   1.505   7.250 -2.2346 -0.3068  0.3105
  671MOL0     H88561   6.648   1.603   7.287 -1.1917 -2.4498 -1.0786
  671MOL0     H88562   6.835   1.722   7.346 -0.2682 -0.9214  0.3451
  671MOL0     H88563   6.882   1.572   7.408  0.4444  0.3115 -0.7038
  671MOL0     H88564   7.075   1.728   7.427  0.7606  0.7916  0.6793
  671MOL0     H88565   6.973   1.848   7.522  0.1928  1.0334 -0.2368
  671MOL0     H88566   6.945   1.659   7.694  0.3502  2.7785  1.3577
  671MOL0     H88567   7.098   1.752   7.684  2.9075 -2.5973  0.7736
  671MOL0     H88568   7.142   1.527   7.735  0.4556  2.4148  0.6922
  671MOL0     H88569   7.059   1.464   7.584  2.1794 -0.8335 -1.1218
  671MOL0     H88570   7.454   1.591   7.468 -0.7951 -1.5733 -0.5810
  671MOL0     H88571   6.606   1.565   7.706  0.0362  0.7854  0.9072
  671MOL0     H88572   6.363   1.496   7.669 -0.3440 -1.3645  0.2952
  672MOL0     O88573   4.563   6.591  10.633 -0.1118  0.1699  0.1548
  672MOL0     C88574   4.633   6.489  10.618 -0.4308 -0.4521 -0.2637
  672MOL0     O88575   4.585   6.364  10.618 -0.2632 -0.2853 -0.1906
  672MOL0     C88576   4.454   6.343  10.655 -0.1394 -1.2046  0.8966
  672MOL0     C88577   4.364   6.301  10.558  0.0131 -0.5849  0.4466
  672MOL0     C88578   4.230   6.298  10.581  0.2172 -0.1782  0.5641
  672MOL0     C88579   4.179   6.351  10.702 -0.3627 -0.3802 -1.1848
  672MOL0     O88580   4.053   6.375  10.733 -0.6099  0.3486 -0.9687
  672MOL0     C88581   3.955   6.281  10.692 -0.5012  0.4873  0.5292
  672MOL0     C88582   3.842   6.276  10.801 -0.2237 -1.0659  0.2848
  672MOL0     C88583   3.886   6.187  10.919  0.4368  0.8451 -0.5587
  672MOL0     C88584   3.792   6.215  11.030 -0.1208  0.1014 -0.3798
  672MOL0     C88585   3.801   6.129  11.157 -0.4509 -0.1740 -0.3647
  672MOL0     C88586   3.716   6.182  11.269  0.7558 -0.3619  0.5566
  672MOL0     C88587   3.718   6.097  11.391  0.4217  0.4710  0.1869
  672MOL0     C88588   3.615   6.163  11.479 -0.0583  0.1105  0.7129
  672MOL0     N88589   3.574   6.070  11.587  0.0842 -0.6397 -0.2266
  672MOL0     C88590   3.448   6.012  11.597 -0.5308  0.0395  0.6412
  672MOL0     C88591   3.459   5.912  11.689  0.2576  0.0767  0.0541
  672MOL0     C88592   3.359   5.810  11.740 -0.1033  0.5279  0.0883
  672MOL0     C88593   3.235   5.782  11.658  0.1770 -0.3752  0.3199
  672MOL0     C88594   3.140   5.694  11.743 -0.1361 -0.2216 -0.3124
  672MOL0     C88595   3.000   5.698  11.684  0.0336 -0.2884  0.5707
  672MOL0     O88596   2.946   5.829  11.666 -0.0368  0.1989  0.4283
  672MOL0     C88597   2.813   5.849  11.628  0.1944  0.5208  0.6513
  672MOL0     C88598   2.728   5.745  11.581 -0.1504 -0.0416  0.8842
  672MOL0     C88599   2.588   5.771  11.570 -0.0850 -0.1740 -0.5099
  672MOL0     C88600   2.534   5.900  11.587  0.6496 -0.1680  0.9027
  672MOL0     C88601   2.395   5.922  11.547 -0.5672 -0.3864 -0.7762
  672MOL0     O88602   2.326   6.027  11.593 -0.5196 -0.2314 -0.0697
  672MOL0     C88603   2.211   6.072  11.543  0.0592  0.1136 -0.8014
  672MOL0     C88604   2.102   5.985  11.550  0.4050  0.1929 -0.5319
  672MOL0     C88605   1.987   6.023  11.485 -0.4217  0.9054  0.4731
  672MOL0     C88606   1.979   6.140  11.409  0.0449 -0.3627 -0.4688
  672MOL0     O88607   1.864   6.163  11.339  0.0555  0.3172  1.3142
  672MOL0     C88608   1.831   6.292  11.294  0.0875  0.4390  0.5760
  672MOL0     C88609   1.686   6.311  11.239  0.6774  0.1693  1.0757
  672MOL0     C88610   1.573   6.299  11.345 -0.3828 -0.3578 -0.2198
  672MOL0     C88611   1.446   6.360  11.296 -0.7695  0.3545  0.3835
  672MOL0     C88612   1.315   6.336  11.376 -0.1217  0.5202  0.1326
  672MOL0     C88613   1.298   6.424  11.502  0.6191 -0.0608 -0.4932
  672MOL0     C88614   1.381   6.355  11.616 -0.0377 -1.0075  0.3418
  672MOL0     C88615   1.342   6.395  11.759 -0.3560  0.1970  0.2760
  672MOL0    Cl88616   1.397   6.272  11.882 -0.1861 -0.3726  0.0841
  672MOL0     C88617   2.094   6.230  11.404 -0.5196 -0.3557 -0.6219
  672MOL0     C88618   2.209   6.195  11.484  0.7187  0.0613  0.2470
  672MOL0     O88619   2.351   5.844  11.464  0.6225  0.5485  0.1897
  672MOL0     C88620   2.629   6.003  11.623  0.1772  0.6563  0.4345
  672MOL0     C88621   2.756   5.976  11.646  0.2123 -0.0601  0.1300
  672MOL0     N88622   3.588   5.921  11.736 -0.2740 -0.2610 -0.6878
  672MOL0     N88623   3.651   6.020  11.691  0.6656 -0.8057 -0.3229
  672MOL0     C88624   4.278   6.387  10.804  0.2565  0.8587  0.4903
  672MOL0     C88625   4.413   6.376  10.789 -0.1746 -0.8717  0.5958
  672MOL0     C88626   4.780   6.510  10.608  0.3125 -0.1180 -0.0113
  672MOL0     C88627   4.828   6.643  10.592 -0.7390  0.1860  0.3985
  672MOL0     C88628   4.965   6.669  10.578 -0.1862  0.3538 -0.3683
  672MOL0     C88629   5.051   6.557  10.577 -0.5985 -1.0019 -0.4306
  672MOL0     O88630   5.185   6.589  10.570  1.0194  0.0275  0.1616
  672MOL0     C88631   5.290   6.499  10.607  0.0690 -0.3893 -0.6637
  672MOL0     C88632   5.429   6.575  10.600  0.2727 -0.5374 -0.2502
  672MOL0     C88633   5.544   6.488  10.654  0.9122 -0.0615  0.4515
  672MOL0     C88634   5.679   6.564  10.657 -0.1589  0.5606  0.3972
  672MOL0     C88635   5.778   6.490  10.747 -0.1121  0.5197  0.7488
  672MOL0     C88636   5.852   6.420  10.826 -0.1049 -0.6770 -0.6982
  672MOL0     C88637   5.000   6.427  10.594  0.3349 -0.0232 -1.2959
  672MOL0     C88638   4.869   6.405  10.602  0.6465  0.2464 -0.4330
  672MOL0     H88639   4.404   6.277  10.459 -2.3437  0.1748 -0.7635
  672MOL0     H88640   4.158   6.254  10.512 -1.6658  3.0015  0.3080
  672MOL0     H88641   3.996   6.182  10.671 -2.9704 -0.4425 -0.2562
  672MOL0     H88642   3.894   6.313  10.607 -1.0838  0.1191  0.7996
  672MOL0     H88643   3.751   6.236  10.756  0.8939 -1.9846 -1.2530
  672MOL0     H88644   3.812   6.371  10.846 -0.3269 -1.3633  0.8501
  672MOL0     H88645   3.988   6.211  10.950  0.3172  0.3767  0.2269
  672MOL0     H88646   3.886   6.081  10.892  1.7564  0.4922  0.7640
  672MOL0     H88647   3.787   6.317  11.069 -0.0272 -0.9645  2.6867
  672MOL0     H88648   3.688   6.190  11.005 -1.1270 -1.2393  4.1880
  672MOL0     H88649   3.902   6.103  11.189 -1.3732 -0.4062  2.7175
  672MOL0     H88650   3.756   6.035  11.122 -1.4286  0.8502 -1.9584
  672MOL0     H88651   3.616   6.188  11.226  1.5788 -1.8996 -1.8056
  672MOL0     H88652   3.765   6.279  11.280  1.7247  0.0808 -4.7770
  672MOL0     H88653   3.694   5.996  11.359  2.7655  0.3821 -1.5002
  672MOL0     H88654   3.820   6.111  11.428 -0.0585  1.6478  1.1319
  672MOL0     H88655   3.532   6.208  11.424 -0.0481 -1.0289 -0.2670
  672MOL0     H88656   3.667   6.243  11.533 -1.5278 -0.5751  3.2957
  672MOL0     H88657   3.364   6.034  11.532  0.8705 -2.6247 -2.2851
  672MOL0     H88658   3.337   5.835  11.844 -1.3809 -0.4946  0.0922
  672MOL0     H88659   3.415   5.716  11.738 -0.0723  0.5559 -1.6468
  672MOL0     H88660   3.263   5.723  11.570 -1.6351 -1.5388  0.4770
  672MOL0     H88661   3.191   5.879  11.633  2.5807  1.3694  2.3464
  672MOL0     H88662   3.174   5.590  11.751 -1.3549 -0.9316 -3.1776
  672MOL0     H88663   3.133   5.738  11.843  1.6941  0.2642 -0.3716
  672MOL0     H88664   2.932   5.643  11.749 -0.8852  0.5155  0.3092
  672MOL0     H88665   3.015   5.637  11.594  1.0570  2.6009 -1.3585
  672MOL0     H88666   2.781   5.651  11.569  2.9533  1.3832  2.3708
  672MOL0     H88667   2.518   5.689  11.562 -1.0893  0.7663 -1.8660
  672MOL0     H88668   2.099   5.897  11.613 -0.3591  1.1492  0.8339
  672MOL0     H88669   1.911   5.946  11.491 -0.3847  0.8677  0.4557
  672MOL0     H88670   1.894   6.313  11.207 -2.3040 -0.7547 -1.5719
  672MOL0     H88671   1.859   6.364  11.371 -0.6676  0.3964  0.8949
  672MOL0     H88672   1.666   6.234  11.164 -0.9202  2.0728 -0.5618
  672MOL0     H88673   1.686   6.399  11.174 -2.1179 -2.3859 -2.8220
  672MOL0     H88674   1.618   6.334  11.439  0.0036 -0.9013 -0.1938
  672MOL0     H88675   1.547   6.197  11.374 -1.5417  0.1084  0.4812
  672MOL0     H88676   1.458   6.468  11.300  1.4075  0.1065  2.0637
  672MOL0     H88677   1.430   6.320  11.195 -2.3154 -1.3811  1.2567
  672MOL0     H88678   1.286   6.232  11.395  0.0384 -0.1510 -2.8042
  672MOL0     H88679   1.234   6.371  11.313 -1.4714 -2.6944 -0.1079
  672MOL0     H88680   1.192   6.429  11.525  0.2030  1.1066 -2.4354
  672MOL0     H88681   1.329   6.525  11.472  3.5635 -1.4631 -2.7473
  672MOL0     H88682   1.359   6.248  11.613  1.0435 -1.2290 -1.9672
  672MOL0     H88683   1.488   6.367  11.599  0.0137 -1.3564  0.4251
  672MOL0     H88684   1.234   6.413  11.769 -0.8450 -2.7387  1.2650
  672MOL0     H88685   1.384   6.494  11.774 -1.9476  0.7170  1.5531
  672MOL0     H88686   2.098   6.323  11.348  0.6441 -0.7212 -1.1755
  672MOL0     H88687   2.296   6.260  11.488 -1.0343  2.5742  0.0952
  672MOL0     H88688   2.610   6.109  11.613  1.4932  1.0425  1.7306
  672MOL0     H88689   2.814   6.059  11.686  0.2247  0.2620 -0.5390
  672MOL0     H88690   4.233   6.445  10.884  1.7709  2.4705  0.2562
  672MOL0     H88691   4.478   6.399  10.873  0.1511 -1.4086  0.5007
  672MOL0     H88692   4.762   6.728  10.579 -1.2569 -0.2749 -0.0653
  672MOL0     H88693   5.023   6.759  10.559  1.0173 -0.3822 -0.3424
  672MOL0     H88694   5.298   6.412  10.541  2.1584 -1.3025  0.6866
  672MOL0     H88695   5.283   6.463  10.710  1.4629  3.7743  1.0488
  672MOL0     H88696   5.451   6.597  10.495 -2.4605  1.1212 -0.5658
  672MOL0     H88697   5.414   6.668  10.656  1.4306 -1.5781  1.8972
  672MOL0     H88698   5.550   6.400  10.588  1.8499 -1.2002  1.9906
  672MOL0     H88699   5.528   6.446  10.754  2.7206 -2.0781 -0.0252
  672MOL0     H88700   5.729   6.579  10.561  0.0650 -0.9114  0.2607
  672MOL0     H88701   5.652   6.658  10.706 -0.2299 -0.5617  2.6675
  672MOL0     H88702   5.908   6.361  10.895  0.0388  0.1139 -0.1293
  672MOL0     H88703   5.067   6.341  10.591  1.5215  0.9020 -2.3627
  672MOL0     H88704   4.827   6.305  10.604 -3.1869  1.7077 -0.2120
  673MOL0     O88705   2.717   1.024   1.304  0.0093 -0.2738 -0.2733
  673MOL0     C88706   2.799   1.108   1.341 -0.4433 -0.4929  0.4132
  673MOL0     O88707   2.776   1.234   1.345 -0.3313  0.2352 -0.2081
  673MOL0     C88708   2.648   1.296   1.343 -0.1819  0.0121 -0.5077
  673MOL0     C88709   2.532   1.235   1.404  0.5841  0.0059  0.3263
  673MOL0     C88710   2.401   1.284   1.382  0.2685 -0.3973  0.1561
  673MOL0     C88711   2.378   1.399   1.309  0.0003  0.7243  1.1612
  673MOL0     O88712   2.265   1.463   1.275 -0.3013  0.0890 -0.5935
  673MOL0     C88713   2.132   1.429   1.323  0.3152 -0.3810  0.1163
  673MOL0     C88714   2.118   1.480   1.463 -0.4463 -0.1175 -0.2588
  673MOL0     C88715   1.971   1.455   1.505 -0.0072  0.2328 -0.3010
  673MOL0     C88716   1.857   1.504   1.424  0.5819  0.3943  0.1318
  673MOL0     C88717   1.789   1.392   1.337 -0.6739 -0.0343 -0.2040
  673MOL0     C88718   1.718   1.453   1.207  0.1270 -0.0400  0.3007
  673MOL0     C88719   1.610   1.362   1.154  0.0515  0.0490  0.4338
  673MOL0     C88720   1.470   1.400   1.210 -0.4028  0.9858  0.4307
  673MOL0     N88721   1.415   1.510   1.135 -0.1965  0.8166  0.3163
  673MOL0     C88722   1.347   1.611   1.204 -0.8647  0.1933  0.8157
  673MOL0     C88723   1.313   1.697   1.105  0.0074 -0.1428  0.3645
  673MOL0     C88724   1.232   1.819   1.136 -0.2453  0.3628  0.1885
  673MOL0     C88725   1.090   1.800   1.189  0.5667 -0.2136 -0.2086
  673MOL0     C88726   0.992   1.803   1.078  0.8169  0.0134 -0.0381
  673MOL0     C88727   0.850   1.779   1.134 -0.0043 -0.6179 -0.2356
  673MOL0     O88728   0.759   1.777   1.026 -0.3844  0.6761 -0.5923
  673MOL0     C88729   0.630   1.737   1.044 -0.1651  0.4417  0.4305
  673MOL0     C88730   0.557   1.723   0.927 -0.7355  0.1317 -0.1909
  673MOL0     C88731   0.425   1.669   0.927 -0.6184 -0.2511 -0.3710
  673MOL0     C88732   0.359   1.664   1.054 -0.4862  0.3112  0.5166
  673MOL0     C88733   0.220   1.637   1.058 -0.3646  0.1817 -0.6928
  673MOL0     O88734   0.163   1.613   1.182  0.8304  0.2885  0.2454
  673MOL0     C88735   0.027   1.590   1.188 -0.0820 -0.4448 -0.0106
  673MOL0     C88736  -0.035   1.466   1.155  0.3268  0.2677  0.1922
  673MOL0     C88737  -0.175   1.450   1.165 -0.1995  0.3043 -0.3736
  673MOL0     C88738  -0.243   1.559   1.212  0.3519 -0.8406  0.6249
  673MOL0     O88739  -0.380   1.533   1.217 -0.0607 -0.3288  0.1475
  673MOL0     C88740  -0.471   1.638   1.181 -0.1450 -0.1745  0.5133
  673MOL0     C88741  -0.591   1.580   1.123  0.3007  0.2583 -0.2547
  673MOL0     C88742  -0.681   1.674   1.050  0.2979  0.5332  0.2847
  673MOL0     C88743  -0.794   1.602   0.966  0.0772 -0.9069  0.5043
  673MOL0     C88744  -0.869   1.699   0.873 -0.1845  0.6863  0.2098
  673MOL0     C88745  -0.958   1.612   0.786  0.6045 -1.1436 -0.2728
  673MOL0     C88746  -1.086   1.568   0.866 -0.5595 -0.8599 -0.2581
  673MOL0     C88747  -1.184   1.508   0.773 -0.2992 -0.1249 -0.0692
  673MOL0    Cl88748  -1.320   1.442   0.871 -0.4304 -0.1002 -0.1585
  673MOL0     C88749  -0.190   1.678   1.252 -0.5968 -0.2869  0.2009
  673MOL0     C88750  -0.053   1.692   1.240  0.3726  0.2892  0.1348
  673MOL0     O88751   0.160   1.627   0.953 -0.2822 -0.0287 -0.2762
  673MOL0     C88752   0.441   1.671   1.176 -0.2495 -0.8770 -0.8094
  673MOL0     C88753   0.573   1.714   1.169  0.4674  0.6237 -0.7878
  673MOL0     N88754   1.351   1.647   0.978  0.2574 -0.7886 -0.8577
  673MOL0     N88755   1.410   1.539   1.000 -0.2354  0.4351  0.5772
  673MOL0     C88756   2.489   1.452   1.241 -0.3166 -0.0716 -0.2733
  673MOL0     C88757   2.627   1.404   1.257 -0.3928  0.0101 -0.1052
  673MOL0     C88758   2.939   1.070   1.362 -0.4724 -0.9509  0.6671
  673MOL0     C88759   3.001   0.948   1.321 -0.4359  0.4592 -0.5108
  673MOL0     C88760   3.136   0.919   1.341 -0.7351  0.8158 -0.8242
  673MOL0     C88761   3.220   1.016   1.393  0.9198 -0.3714  0.4296
  673MOL0     O88762   3.356   0.984   1.426  0.3724 -0.1119 -0.3375
  673MOL0     C88763   3.400   0.851   1.425  1.1528 -0.9104  0.2652
  673MOL0     C88764   3.513   0.836   1.515 -0.7954  0.3781  0.2566
  673MOL0     C88765   3.634   0.915   1.469 -0.7906 -0.3498  0.4782
  673MOL0     C88766   3.761   0.863   1.530  0.1990 -0.0472 -0.4400
  673MOL0     C88767   3.780   0.935   1.663 -0.5909 -0.3790  0.1713
  673MOL0     C88768   3.823   0.986   1.766 -0.3028  0.8261  0.1485
  673MOL0     C88769   3.169   1.132   1.423 -0.4929  0.0366  0.6611
  673MOL0     C88770   3.034   1.163   1.418  0.9267  0.7282  0.1090
  673MOL0     H88771   2.544   1.138   1.452  0.8681  0.9209  2.1957
  673MOL0     H88772   2.323   1.222   1.426 -2.6663  0.7101 -3.0459
  673MOL0     H88773   2.098   1.326   1.328  1.3606 -0.6974  1.5714
  673MOL0     H88774   2.070   1.484   1.251  0.1070 -1.6632 -0.7058
  673MOL0     H88775   2.149   1.585   1.458  1.8818 -0.7150  0.4462
  673MOL0     H88776   2.189   1.431   1.530 -0.5607  1.9840  1.5108
  673MOL0     H88777   1.953   1.504   1.601  0.8640 -2.4214  1.3033
  673MOL0     H88778   1.955   1.349   1.523 -0.2577  0.3345  0.0923
  673MOL0     H88779   1.781   1.552   1.485  1.1556  1.3961  0.0822
  673MOL0     H88780   1.897   1.584   1.360 -0.5198 -0.0031 -1.1083
  673MOL0     H88781   1.714   1.344   1.400 -1.4057  0.7026 -0.5037
  673MOL0     H88782   1.858   1.315   1.301  0.1720  1.6050 -2.3118
  673MOL0     H88783   1.794   1.464   1.130 -1.1563  1.4113 -0.8103
  673MOL0     H88784   1.663   1.543   1.235 -1.2045  0.2403 -2.7497
  673MOL0     H88785   1.605   1.358   1.045 -0.2913  2.3357  0.3251
  673MOL0     H88786   1.630   1.259   1.186 -1.4690  0.4271  2.7796
  673MOL0     H88787   1.469   1.413   1.318  0.2667 -1.3658  0.7680
  673MOL0     H88788   1.401   1.321   1.179  0.4398 -0.4978  2.1539
  673MOL0     H88789   1.317   1.608   1.308  0.7268 -3.0202  1.3249
  673MOL0     H88790   1.229   1.886   1.049  1.9282  1.0117  0.5436
  673MOL0     H88791   1.294   1.870   1.211 -0.6359 -1.7854  2.0588
  673MOL0     H88792   1.067   1.884   1.256  2.4280 -0.2898  0.5808
  673MOL0     H88793   1.071   1.707   1.243 -0.2495  0.2734  0.3683
  673MOL0     H88794   0.989   1.904   1.036 -0.4086 -0.0973 -0.2731
  673MOL0     H88795   1.010   1.723   1.006  0.0944 -2.0152  1.9267
  673MOL0     H88796   0.820   1.857   1.204  0.7689 -0.3998 -0.1357
  673MOL0     H88797   0.852   1.681   1.183 -1.2272 -0.3747  0.3209
  673MOL0     H88798   0.600   1.741   0.828 -1.1945 -3.7299 -1.2424
  673MOL0     H88799   0.369   1.650   0.836 -0.3648  0.1414 -0.6115
  673MOL0     H88800   0.031   1.384   1.129 -1.1330 -1.5814  1.9703
  673MOL0     H88801  -0.223   1.355   1.146  0.2713 -0.0585  0.2233
  673MOL0     H88802  -0.422   1.687   1.096 -0.2877 -2.1554 -0.7774
  673MOL0     H88803  -0.490   1.707   1.263 -1.3570  2.6368 -1.9416
  673MOL0     H88804  -0.645   1.521   1.199  3.0209 -1.6054  0.3921
  673MOL0     H88805  -0.551   1.509   1.050 -0.0303 -1.3946  1.0812
  673MOL0     H88806  -0.631   1.735   0.973 -1.2033  0.8640 -0.4595
  673MOL0     H88807  -0.728   1.739   1.123 -0.0084 -0.0211  0.5896
  673MOL0     H88808  -0.762   1.509   0.919  0.9033 -0.9938  1.2047
  673MOL0     H88809  -0.868   1.555   1.031 -1.3553  0.5029 -0.0427
  673MOL0     H88810  -0.796   1.748   0.807 -1.6591 -0.6523 -2.5744
  673MOL0     H88811  -0.928   1.771   0.931 -3.6922  0.2981 -2.5274
  673MOL0     H88812  -0.906   1.531   0.733  0.5535  0.4168 -2.9364
  673MOL0     H88813  -0.997   1.678   0.708  1.3639  0.5474  0.7177
  673MOL0     H88814  -1.049   1.495   0.939  1.8169  0.4779 -0.0026
  673MOL0     H88815  -1.122   1.662   0.909  0.1509 -1.5812  2.0513
  673MOL0     H88816  -1.131   1.437   0.709 -0.9166  0.4415 -1.2303
  673MOL0     H88817  -1.221   1.582   0.702 -1.9655 -2.7662 -2.1467
  673MOL0     H88818  -0.240   1.764   1.294  3.0798  2.8090 -1.1365
  673MOL0     H88819  -0.009   1.784   1.276  1.5745 -0.6094  1.0560
  673MOL0     H88820   0.396   1.654   1.273  1.8444  1.4206  0.6568
  673MOL0     H88821   0.614   1.731   1.268 -2.8208  1.7883  0.5192
  673MOL0     H88822   2.453   1.534   1.179 -3.0629 -0.2927  0.8693
  673MOL0     H88823   2.714   1.453   1.215  2.4675  0.0325  5.0663
  673MOL0     H88824   2.928   0.874   1.289 -1.0123  1.1175 -0.7321
  673MOL0     H88825   3.172   0.823   1.306  0.2796 -0.2320  2.7498
  673MOL0     H88826   3.425   0.844   1.318 -0.4617  1.6285 -0.3620
  673MOL0     H88827   3.333   0.779   1.472  2.2686 -1.3471  1.2425
  673MOL0     H88828   3.497   0.863   1.620  1.8204 -0.5057  0.9672
  673MOL0     H88829   3.529   0.728   1.522 -1.7140  0.0127 -2.2157
  673MOL0     H88830   3.617   1.020   1.493  1.5990  0.0390  0.7474
  673MOL0     H88831   3.646   0.902   1.361 -2.0480 -0.6462  0.3552
  673MOL0     H88832   3.752   0.755   1.547  0.4649  0.3636  3.1593
  673MOL0     H88833   3.843   0.880   1.459 -0.8140 -1.3377 -1.9602
  673MOL0     H88834   3.884   1.028   1.843  0.7450 -2.3896  1.2605
  673MOL0     H88835   3.239   1.200   1.469  0.7706 -0.7836  0.0237
  673MOL0     H88836   3.002   1.264   1.443 -0.0550  0.1397  1.3028
  674MOL0     O88837   9.186   6.220   9.989  0.0814 -0.2133 -0.1012
  674MOL0     C88838   9.162   6.143   9.900 -0.4762  0.3390  0.2303
  674MOL0     O88839   9.245   6.109   9.796  0.2973 -0.0509  0.3721
  674MOL0     C88840   9.376   6.133   9.791 -0.5190 -0.5704  0.2624
  674MOL0     C88841   9.437   6.099   9.670  0.1872  0.1332  0.2372
  674MOL0     C88842   9.570   6.121   9.641  0.7401  0.1965 -0.8465
  674MOL0     C88843   9.661   6.151   9.737  0.3061  0.0623  0.1573
  674MOL0     O88844   9.791   6.163   9.700 -0.3064  0.5811 -0.1522
  674MOL0     C88845   9.880   6.052   9.752  1.0353 -0.1066 -0.0470
  674MOL0     C88846   9.976   6.018   9.638  0.2581  0.4940 -0.3658
  674MOL0     C88847  10.058   5.901   9.675 -0.0460 -0.2731  0.2106
  674MOL0     C88848  10.129   5.860   9.537 -0.6084  1.0232 -0.7780
  674MOL0     C88849  10.207   5.733   9.559  0.5638  1.0687  0.3401
  674MOL0     C88850  10.242   5.673   9.416 -0.1287 -0.3907 -0.6649
  674MOL0     C88851  10.317   5.542   9.433 -0.3320  0.0537  0.1825
  674MOL0     C88852  10.382   5.488   9.300 -0.7239 -0.6841  0.2277
  674MOL0     N88853  10.274   5.459   9.211 -0.6759 -0.8284 -0.1639
  674MOL0     C88854  10.245   5.532   9.099 -0.7956 -0.3078  0.1144
  674MOL0     C88855  10.139   5.474   9.046  0.9047  0.4838  0.1960
  674MOL0     C88856  10.056   5.517   8.920  0.3870 -0.0670 -0.4270
  674MOL0     C88857   9.904   5.525   8.950 -0.7227  0.5032 -0.5945
  674MOL0     C88858   9.868   5.625   9.050  0.2587  0.3326 -0.2630
  674MOL0     C88859   9.721   5.623   9.071 -0.5070  0.4422  0.0113
  674MOL0     O88860   9.687   5.710   9.178  0.2383  0.8724  0.0646
  674MOL0     C88861   9.555   5.708   9.231  0.6589  0.1002  0.5192
  674MOL0     C88862   9.465   5.605   9.203  0.0971 -0.5026 -0.4552
  674MOL0     C88863   9.337   5.608   9.256  0.2944  0.4114  0.3157
  674MOL0     C88864   9.293   5.703   9.340  0.6008 -0.2464  0.2560
  674MOL0     C88865   9.156   5.723   9.386 -0.5149 -0.2381  0.3949
  674MOL0     O88866   9.070   5.626   9.365  0.6785  0.7755 -0.3353
  674MOL0     C88867   8.941   5.643   9.405  0.1988  0.1080 -0.0142
  674MOL0     C88868   8.864   5.754   9.361 -0.5142  0.1822 -0.3191
  674MOL0     C88869   8.735   5.773   9.405  0.1574  0.4764  0.2623
  674MOL0     C88870   8.672   5.667   9.482 -0.0277 -0.9259  0.1807
  674MOL0     O88871   8.536   5.692   9.505  0.0009  0.1224  0.1212
  674MOL0     C88872   8.457   5.601   9.577 -0.2368  0.3129  0.4159
  674MOL0     C88873   8.421   5.487   9.477  0.6489 -0.5001  0.2429
  674MOL0     C88874   8.324   5.384   9.527  0.1579 -0.3316  0.2190
  674MOL0     C88875   8.304   5.278   9.429 -0.3010  0.3468  0.8680
  674MOL0     C88876   8.232   5.152   9.486 -0.8757 -0.3655  0.0368
  674MOL0     C88877   8.087   5.168   9.529 -0.4245 -0.6794  0.3017
  674MOL0     C88878   8.037   5.028   9.565 -0.5964  0.4883  0.1578
  674MOL0     C88879   7.886   5.009   9.561  0.4102  0.4493 -0.3950
  674MOL0    Cl88880   7.827   5.122   9.670  0.3971  0.3754 -0.1667
  674MOL0     C88881   8.745   5.554   9.512  0.1751 -0.7280  0.1660
  674MOL0     C88882   8.880   5.548   9.486 -0.3731 -0.7347 -1.2421
  674MOL0     O88883   9.135   5.830   9.445 -0.5516 -0.0363  0.2754
  674MOL0     C88884   9.383   5.811   9.372 -0.5512  0.2305  0.1448
  674MOL0     C88885   9.513   5.814   9.317  0.3146 -0.8265 -0.7999
  674MOL0     N88886  10.101   5.365   9.123  0.3502 -0.0148  0.2032
  674MOL0     N88887  10.172   5.364   9.224  0.2440  0.0151  0.5490
  674MOL0     C88888   9.609   6.186   9.863 -0.1041  0.4081  1.1434
  674MOL0     C88889   9.466   6.178   9.892  0.4247 -0.9619 -0.0496
  674MOL0     C88890   9.025   6.075   9.884  0.2533 -0.5570 -0.3948
  674MOL0     C88891   8.931   6.103   9.980  0.4089 -0.4122 -0.5607
  674MOL0     C88892   8.797   6.074   9.954 -0.1351 -0.0330 -0.4595
  674MOL0     C88893   8.765   5.984   9.854  0.2167  0.3168  0.1680
  674MOL0     O88894   8.633   5.943   9.843  0.2890  0.1514 -0.0586
  674MOL0     C88895   8.577   5.875   9.959 -0.2604 -0.3498  0.2692
  674MOL0     C88896   8.595   5.720   9.942  0.5880  1.0233 -0.3923
  674MOL0     C88897   8.502   5.660  10.059 -0.0583 -0.2136 -0.1334
  674MOL0     C88898   8.540   5.516  10.088 -0.3059 -0.2606  0.0957
  674MOL0     C88899   8.449   5.471  10.199  1.2305 -1.5157  0.1438
  674MOL0     C88900   8.357   5.449  10.278 -0.7850 -0.2748 -0.6494
  674MOL0     C88901   8.867   5.937   9.764 -0.4018  0.1522 -0.2974
  674MOL0     C88902   8.995   5.987   9.778  0.0098  0.1554  0.1662
  674MOL0     H88903   9.365   6.068   9.595 -1.0400  3.6724 -0.2362
  674MOL0     H88904   9.604   6.102   9.540 -0.4773  0.2402 -1.2917
  674MOL0     H88905   9.829   5.959   9.779  0.6927 -0.1467 -0.8155
  674MOL0     H88906   9.934   6.094   9.837  1.3397  0.8049 -0.6770
  674MOL0     H88907  10.039   6.104   9.615 -2.4089  2.2769 -1.5215
  674MOL0     H88908   9.916   5.993   9.550 -0.1650 -0.5820  0.2028
  674MOL0     H88909   9.989   5.822   9.707  0.9990 -0.7282  1.4139
  674MOL0     H88910  10.131   5.924   9.753 -0.4402  2.5302 -0.1573
  674MOL0     H88911  10.060   5.841   9.454 -0.4489 -3.5805 -0.1596
  674MOL0     H88912  10.196   5.940   9.505  1.7066 -0.4985  0.0521
  674MOL0     H88913  10.150   5.659   9.616  2.3463  0.3517  1.2785
  674MOL0     H88914  10.301   5.759   9.608 -0.0095  0.4116  1.8608
  674MOL0     H88915  10.308   5.740   9.360 -0.5905  0.6494 -0.0061
  674MOL0     H88916  10.150   5.653   9.360 -0.3403 -1.5590  0.0681
  674MOL0     H88917  10.401   5.553   9.501  0.9423 -0.8950 -1.1597
  674MOL0     H88918  10.258   5.464   9.482 -0.1431 -0.4611 -0.3813
  674MOL0     H88919  10.433   5.395   9.326 -1.3162 -1.0239  0.1808
  674MOL0     H88920  10.461   5.554   9.263 -1.1388 -0.4480 -0.2403
  674MOL0     H88921  10.299   5.615   9.056  2.7852 -3.7090 -2.7746
  674MOL0     H88922  10.080   5.451   8.837  2.2770  2.8612 -2.3929
  674MOL0     H88923  10.087   5.617   8.891  0.9518  1.2641  3.9411
  674MOL0     H88924   9.861   5.426   8.968 -0.3548  0.8328  2.7060
  674MOL0     H88925   9.852   5.551   8.857 -1.4689 -0.9985 -0.6259
  674MOL0     H88926   9.932   5.625   9.139  0.1881 -0.0695 -0.2082
  674MOL0     H88927   9.902   5.720   9.009  2.0552  0.2999  1.0427
  674MOL0     H88928   9.682   5.522   9.089 -1.1394  0.4287 -1.3112
  674MOL0     H88929   9.665   5.658   8.984 -1.5068 -1.8800 -0.3474
  674MOL0     H88930   9.483   5.525   9.132  0.9000  0.8234 -1.8096
  674MOL0     H88931   9.268   5.534   9.219  0.6982  0.5817 -0.8185
  674MOL0     H88932   8.903   5.827   9.291  0.4301  1.0353  1.0537
  674MOL0     H88933   8.678   5.860   9.372  1.8284  1.7553  0.6136
  674MOL0     H88934   8.361   5.642   9.608 -0.5257 -0.3132  0.3567
  674MOL0     H88935   8.509   5.569   9.667  0.3318  1.4681  0.5205
  674MOL0     H88936   8.506   5.424   9.445  0.4158 -0.6751 -0.0388
  674MOL0     H88937   8.386   5.542   9.389  0.4225  3.5439  2.6223
  674MOL0     H88938   8.231   5.438   9.548 -0.3462 -0.2072 -2.0828
  674MOL0     H88939   8.352   5.335   9.621  2.7394  2.1811  0.9061
  674MOL0     H88940   8.241   5.311   9.346  1.4872  2.4330  0.2645
  674MOL0     H88941   8.401   5.255   9.386  0.3503  1.4390  1.7020
  674MOL0     H88942   8.285   5.104   9.569  0.4224  3.2095  1.4493
  674MOL0     H88943   8.232   5.086   9.399 -1.8089  0.3488 -0.5258
  674MOL0     H88944   8.030   5.209   9.445 -0.2632 -0.4127  0.3220
  674MOL0     H88945   8.080   5.245   9.606  2.0764  1.3768 -1.3620
  674MOL0     H88946   8.085   4.951   9.503  0.0515  2.0057 -1.2914
  674MOL0     H88947   8.079   5.003   9.663  0.5641 -1.3390 -0.7362
  674MOL0     H88948   7.855   4.914   9.606  3.0165 -0.7227 -0.9143
  674MOL0     H88949   7.857   5.016   9.456  0.6319 -1.9219 -0.6574
  674MOL0     H88950   8.693   5.467   9.552  0.0649 -0.8594 -0.2592
  674MOL0     H88951   8.927   5.461   9.530 -1.7214 -0.3363  1.1536
  674MOL0     H88952   9.356   5.895   9.436 -0.2270 -0.6086  1.4129
  674MOL0     H88953   9.582   5.894   9.342  0.1724 -1.0704  0.4264
  674MOL0     H88954   9.675   6.213   9.944 -0.1100  0.4780  1.1243
  674MOL0     H88955   9.427   6.208   9.988  1.4508  2.7677 -0.6465
  674MOL0     H88956   8.960   6.151  10.073  0.1747 -0.8676 -0.2461
  674MOL0     H88957   8.722   6.113  10.022 -0.5674 -2.4431  0.5714
  674MOL0     H88958   8.469   5.895   9.960  0.0601  1.5234  0.8671
  674MOL0     H88959   8.621   5.909  10.053 -1.5084 -0.6613  0.9899
  674MOL0     H88960   8.573   5.693   9.839 -1.3112  1.5664 -0.1546
  674MOL0     H88961   8.699   5.695   9.968  0.2829  1.0543  0.9050
  674MOL0     H88962   8.401   5.661  10.018  0.3908  1.2478 -1.3272
  674MOL0     H88963   8.510   5.709  10.157 -0.4697  0.7593 -0.5726
  674MOL0     H88964   8.521   5.455  10.000  1.3013  0.5537 -0.8618
  674MOL0     H88965   8.648   5.502  10.104  0.2803  0.3744 -2.7513
  674MOL0     H88966   8.277   5.444  10.350 -1.8715 -1.4829 -1.9038
  674MOL0     H88967   8.847   5.859   9.691  0.2908  0.9995 -1.4181
  674MOL0     H88968   9.072   5.950   9.711  0.8714  1.3936  0.4378
  675MOL0     O88969   5.983   1.868   4.268  0.6061 -0.2167 -0.5874
  675MOL0     C88970   6.002   1.800   4.368  0.2774 -0.6687  0.1846
  675MOL0     O88971   5.939   1.672   4.394 -0.0630  0.1056 -0.1796
  675MOL0     C88972   5.854   1.611   4.309 -0.4510  0.3162 -0.0237
  675MOL0     C88973   5.903   1.569   4.183 -0.6593  0.3151  0.6389
  675MOL0     C88974   5.826   1.496   4.094 -0.0243 -0.5641 -0.1578
  675MOL0     C88975   5.694   1.466   4.127 -0.5977 -0.1220 -0.7302
  675MOL0     O88976   5.632   1.390   4.036  0.3171  0.0417 -0.2735
  675MOL0     C88977   5.494   1.377   4.051  0.2122 -1.1974 -0.0132
  675MOL0     C88978   5.449   1.268   3.955 -1.1827 -0.1305 -0.6874
  675MOL0     C88979   5.301   1.276   3.910  0.1715  0.5264 -0.7853
  675MOL0     C88980   5.241   1.141   3.904  0.2044 -0.2633 -0.1448
  675MOL0     C88981   5.088   1.143   3.858 -0.2370  0.0203  0.4621
  675MOL0     C88982   4.993   1.243   3.917 -0.1633  0.1225  0.3918
  675MOL0     C88983   4.853   1.226   3.859  0.5266  0.3392  0.8071
  675MOL0     C88984   4.744   1.291   3.935 -0.2004 -0.6468 -0.2702
  675MOL0     N88985   4.713   1.227   4.069  0.6098 -1.0428  0.2372
  675MOL0     C88986   4.639   1.285   4.159  0.4512 -0.4135  0.2215
  675MOL0     C88987   4.617   1.191   4.256 -0.7504 -0.3017  0.4506
  675MOL0     C88988   4.576   1.204   4.402  0.1230 -1.1595  0.1203
  675MOL0     C88989   4.438   1.283   4.407  1.1489 -0.2775  0.7777
  675MOL0     C88990   4.367   1.269   4.543 -0.3293  0.6174 -1.1065
  675MOL0     C88991   4.217   1.246   4.541  0.5022  0.1219  0.2437
  675MOL0     O88992   4.188   1.114   4.484  0.1734 -0.2859  0.3201
  675MOL0     C88993   4.060   1.064   4.482 -0.6485 -0.5962  0.3542
  675MOL0     C88994   4.045   0.943   4.426  0.3930  0.7473 -0.2586
  675MOL0     C88995   3.914   0.895   4.413  0.5166  0.3627  1.2461
  675MOL0     C88996   3.796   0.963   4.453 -0.7444 -0.7050  0.6654
  675MOL0     C88997   3.667   0.887   4.447 -0.6919 -0.3056  0.1856
  675MOL0     O88998   3.558   0.940   4.514 -0.4895 -0.1774 -0.2947
  675MOL0     C88999   3.434   0.882   4.504  0.2066  0.0709  0.6005
  675MOL0     C89000   3.413   0.747   4.540  0.5345 -0.1059 -1.2891
  675MOL0     C89001   3.283   0.704   4.542  0.1438  0.4110  0.3061
  675MOL0     C89002   3.178   0.788   4.481  0.0440 -0.7830 -0.1994
  675MOL0     O89003   3.054   0.741   4.477  0.4526  0.1122  0.4192
  675MOL0     C89004   2.937   0.833   4.482 -0.5620 -0.3329  0.8177
  675MOL0     C89005   2.808   0.750   4.501 -0.2800 -0.4496 -0.5741
  675MOL0     C89006   2.691   0.839   4.528  1.3326  0.6767 -0.0328
  675MOL0     C89007   2.558   0.757   4.502 -0.3137 -0.0404 -0.2004
  675MOL0     C89008   2.442   0.841   4.546  0.3143  0.6979 -0.5809
  675MOL0     C89009   2.304   0.774   4.505 -0.1896  0.0490 -0.1581
  675MOL0     C89010   2.198   0.874   4.535  0.7206  0.5386 -0.5966
  675MOL0     C89011   2.045   0.820   4.539  0.3634  0.0684  0.8468
  675MOL0    Cl89012   2.006   0.754   4.370 -0.4650 -0.2061 -0.4380
  675MOL0     C89013   3.214   0.919   4.436  0.5306  0.7776  0.1865
  675MOL0     C89014   3.338   0.961   4.450  0.9758  0.0857 -0.6289
  675MOL0     O89015   3.664   0.793   4.371  0.0142  0.6836 -0.1265
  675MOL0     C89016   3.817   1.072   4.534 -0.0864  0.2729 -1.1533
  675MOL0     C89017   3.942   1.130   4.534 -0.6791  0.2176  0.5473
  675MOL0     N89018   4.674   1.073   4.202  0.3530 -0.2281 -1.0392
  675MOL0     N89019   4.733   1.099   4.094 -0.1105 -0.1722  0.4722
  675MOL0     C89020   5.641   1.522   4.249 -0.3827  0.4071  0.1781
  675MOL0     C89021   5.721   1.590   4.341  0.5819 -0.4075  0.2384
  675MOL0     C89022   6.112   1.835   4.460 -0.0503  0.1179  0.5983
  675MOL0     C89023   6.203   1.933   4.420 -0.0773 -0.4146  0.0198
  675MOL0     C89024   6.313   1.978   4.503  1.0202 -0.2119 -0.1506
  675MOL0     C89025   6.325   1.912   4.623 -1.1542  0.9120 -0.2886
  675MOL0     O89026   6.435   1.953   4.695  0.4149  0.3257  0.1298
  675MOL0     C89027   6.476   1.880   4.819 -0.1925  0.1313 -0.5816
  675MOL0     C89028   6.584   1.950   4.891  0.5179  0.9141 -0.1160
  675MOL0     C89029   6.543   2.082   4.948 -0.1925 -0.5894  0.1557
  675MOL0     C89030   6.672   2.170   4.985 -0.5750 -0.1066  0.5033
  675MOL0     C89031   6.746   2.116   5.104  0.3332 -0.0400  0.1928
  675MOL0     C89032   6.800   2.078   5.209  1.3873 -0.7458  0.2499
  675MOL0     C89033   6.239   1.807   4.669  0.5340 -0.6985  0.3249
  675MOL0     C89034   6.130   1.770   4.586  1.3444  0.4139 -0.1736
  675MOL0     H89035   6.006   1.595   4.156 -0.9140  0.3326 -0.3867
  675MOL0     H89036   5.876   1.452   4.009 -0.2265 -3.7395  1.2262
  675MOL0     H89037   5.438   1.470   4.035 -1.0004 -1.7773  0.7149
  675MOL0     H89038   5.468   1.338   4.149 -1.0722 -1.7951 -0.5637
  675MOL0     H89039   5.473   1.168   3.992  2.1283  0.5523 -0.6532
  675MOL0     H89040   5.509   1.267   3.863 -2.2314 -2.5208 -1.4227
  675MOL0     H89041   5.287   1.331   3.816 -2.5968  2.5493  0.6741
  675MOL0     H89042   5.252   1.347   3.977 -0.5249 -1.9857  1.5269
  675MOL0     H89043   5.300   1.081   3.834  1.3705  1.3033 -0.5733
  675MOL0     H89044   5.261   1.100   4.003 -1.2173 -0.0826  0.2316
  675MOL0     H89045   5.044   1.043   3.847 -1.0411  0.4737 -0.5650
  675MOL0     H89046   5.098   1.165   3.751 -1.6993 -3.8416 -0.6362
  675MOL0     H89047   5.025   1.345   3.896 -0.1255  0.3648  1.5485
  675MOL0     H89048   4.985   1.232   4.026  0.1738  2.4725  0.7005
  675MOL0     H89049   4.851   1.260   3.755  0.5852 -1.7625  0.0709
  675MOL0     H89050   4.829   1.119   3.853 -1.8123  0.4153  4.8809
  675MOL0     H89051   4.656   1.276   3.872  0.2299  1.3754 -1.4332
  675MOL0     H89052   4.764   1.399   3.938 -2.3845 -0.2265  0.8634
  675MOL0     H89053   4.608   1.389   4.161 -1.3146 -0.9117  0.8696
  675MOL0     H89054   4.650   1.259   4.461 -1.3620  0.9304  0.1743
  675MOL0     H89055   4.580   1.105   4.446  1.8136 -1.7598 -1.2697
  675MOL0     H89056   4.370   1.237   4.335 -1.2430 -1.3172  3.5090
  675MOL0     H89057   4.467   1.386   4.383  1.6850 -0.3941  0.9185
  675MOL0     H89058   4.412   1.186   4.599  1.6358  1.4771 -1.3364
  675MOL0     H89059   4.389   1.360   4.600 -0.8477  0.4245 -0.5887
  675MOL0     H89060   4.179   1.322   4.472 -1.8561 -0.9959  0.1941
  675MOL0     H89061   4.180   1.262   4.643  1.3877 -1.9145  0.9433
  675MOL0     H89062   4.123   0.885   4.379 -1.6903 -1.0682 -1.6221
  675MOL0     H89063   3.894   0.805   4.355  0.5678 -0.9026  3.1115
  675MOL0     H89064   3.493   0.692   4.589 -2.0599 -0.7732  2.6732
  675MOL0     H89065   3.271   0.605   4.587  0.3827 -0.3734 -1.2969
  675MOL0     H89066   2.918   0.888   4.389 -2.6147  2.8377  2.9108
  675MOL0     H89067   2.960   0.912   4.553  1.1070 -2.8866  3.3054
  675MOL0     H89068   2.811   0.686   4.589 -1.1973 -1.4884 -1.2693
  675MOL0     H89069   2.793   0.679   4.418 -3.0452 -2.1079  1.1940
  675MOL0     H89070   2.696   0.931   4.469 -0.8342  0.7468 -0.1677
  675MOL0     H89071   2.676   0.867   4.633 -2.3037  2.3469 -0.8627
  675MOL0     H89072   2.556   0.725   4.398  0.1433 -0.0906 -0.1945
  675MOL0     H89073   2.561   0.663   4.557  0.6610  2.1315  3.9208
  675MOL0     H89074   2.438   0.942   4.503 -3.9984  1.1489  0.3766
  675MOL0     H89075   2.451   0.845   4.655  1.3662 -1.0814 -0.5760
  675MOL0     H89076   2.286   0.688   4.569  0.2527 -0.3482 -0.5505
  675MOL0     H89077   2.305   0.725   4.407  3.0872  3.0167 -1.8470
  675MOL0     H89078   2.217   0.930   4.627  1.5241 -0.3662 -0.2017
  675MOL0     H89079   2.211   0.952   4.459  0.4105  1.2309  0.0486
  675MOL0     H89080   1.987   0.910   4.559 -0.6420 -0.9244  2.7803
  675MOL0     H89081   2.024   0.745   4.616  2.1017  0.1973  1.4920
  675MOL0     H89082   3.137   0.971   4.381 -1.1918  2.0452  3.4909
  675MOL0     H89083   3.374   1.061   4.431 -0.0104  0.5532 -0.1107
  675MOL0     H89084   3.731   1.129   4.568  1.2981  2.0971 -0.4883
  675MOL0     H89085   3.964   1.221   4.589 -1.9196  0.5229  0.5782
  675MOL0     H89086   5.540   1.510   4.287  0.1139 -1.9587  0.9153
  675MOL0     H89087   5.677   1.636   4.429  0.0007  1.1182 -0.8089
  675MOL0     H89088   6.187   1.976   4.322 -0.4984  0.6765  0.5426
  675MOL0     H89089   6.375   2.062   4.472 -0.2365  0.5065 -0.8089
  675MOL0     H89090   6.502   1.776   4.795  1.2180 -0.0347  1.3979
  675MOL0     H89091   6.391   1.873   4.887  0.6858 -3.0455  0.3778
  675MOL0     H89092   6.631   1.887   4.967  0.9168  3.3159  1.7550
  675MOL0     H89093   6.661   1.973   4.817  1.0776 -2.3652 -0.7261
  675MOL0     H89094   6.474   2.058   5.029 -0.8195 -2.0705 -0.7744
  675MOL0     H89095   6.486   2.140   4.875 -1.1565 -0.1711  1.2099
  675MOL0     H89096   6.722   2.194   4.891 -3.2247  0.8541 -0.7573
  675MOL0     H89097   6.633   2.266   5.020 -0.8711  0.3990 -1.1241
  675MOL0     H89098   6.841   2.038   5.300 -0.7450 -0.3520  1.4555
  675MOL0     H89099   6.253   1.751   4.762  0.8690 -0.1526  0.6086
  675MOL0     H89100   6.069   1.687   4.621  0.7776  0.5720 -0.7590
  676MOL0     O89101  11.290   3.833  10.929 -0.5621 -0.4055  0.3752
  676MOL0     C89102  11.193   3.901  10.924 -0.7592  1.0890  0.2253
  676MOL0     O89103  11.185   4.035  10.930 -0.1278  0.5188  0.2148
  676MOL0     C89104  11.314   4.090  10.936  0.4743  0.5112  1.0476
  676MOL0     C89105  11.350   4.176  10.832 -0.6323  1.0443 -0.1908
  676MOL0     C89106  11.463   4.254  10.843 -0.3813 -0.0129  0.5464
  676MOL0     C89107  11.551   4.238  10.952  0.2552 -0.3641 -0.2362
  676MOL0     O89108  11.663   4.316  10.980  0.4596 -0.6618 -0.0108
  676MOL0     C89109  11.739   4.340  10.852 -1.4531 -0.8602  0.3998
  676MOL0     C89110  11.880   4.407  10.875  0.4584 -0.0113  0.1649
  676MOL0     C89111  11.962   4.397  10.745 -1.0672  0.6905 -0.5064
  676MOL0     C89112  12.093   4.458  10.773  0.1423  0.0024 -1.1637
  676MOL0     C89113  12.179   4.448  10.657 -1.1178 -0.8409  0.1646
  676MOL0     C89114  12.305   4.530  10.675 -0.5263  0.2014  0.7506
  676MOL0     C89115  12.375   4.524  10.534  0.6805 -0.2145 -0.2194
  676MOL0     C89116  12.518   4.580  10.524 -0.1577 -0.6134 -0.0719
  676MOL0     N89117  12.519   4.697  10.438 -0.7580 -0.6836 -0.9389
  676MOL0     C89118  12.493   4.831  10.469  0.1431  0.3816  0.6231
  676MOL0     C89119  12.480   4.882  10.350  0.1988  0.9066  0.5984
  676MOL0     C89120  12.449   5.022  10.303 -0.6314 -0.5101  0.2187
  676MOL0     C89121  12.307   5.061  10.330  0.3834 -0.4322  0.6090
  676MOL0     C89122  12.207   4.982  10.232 -0.2220  0.4809  0.3481
  676MOL0     C89123  12.064   5.040  10.252  0.5322  0.5793  0.0464
  676MOL0     O89124  11.981   4.948  10.164 -0.6619 -0.7871 -0.1762
  676MOL0     C89125  11.847   4.951  10.204 -0.0141 -0.4801 -0.8716
  676MOL0     C89126  11.763   4.853  10.151  0.3124 -0.4579  0.1431
  676MOL0     C89127  11.629   4.858  10.184 -0.0703  0.6990  0.3458
  676MOL0     C89128  11.583   4.949  10.282  0.3483 -0.4290 -0.0861
  676MOL0     C89129  11.440   4.939  10.319  0.1224 -1.1984  0.8448
  676MOL0     O89130  11.398   5.016  10.421  0.4565 -0.2470 -0.8615
  676MOL0     C89131  11.265   5.030  10.463  0.9511  0.4917 -0.5896
  676MOL0     C89132  11.218   4.953  10.567  1.0256 -0.7739 -0.7222
  676MOL0     C89133  11.089   4.974  10.608 -0.0928  0.0954  0.4120
  676MOL0     C89134  10.997   5.050  10.536 -0.4797  0.6391  0.3992
  676MOL0     O89135  10.862   5.052  10.584 -1.2199 -0.0275  0.5206
  676MOL0     C89136  10.751   5.132  10.532  1.0821  0.1303  0.2091
  676MOL0     C89137  10.617   5.101  10.597 -0.0305 -0.2130  0.4096
  676MOL0     C89138  10.599   5.133  10.746 -0.2596  1.1443 -0.0483
  676MOL0     C89139  10.459   5.105  10.796  0.9192  0.9894  0.6109
  676MOL0     C89140  10.448   5.098  10.945  0.6595  0.2043 -0.8932
  676MOL0     C89141  10.304   5.052  10.983 -0.0901  0.8889 -0.1903
  676MOL0     C89142  10.299   5.025  11.140 -0.1438  0.2539 -0.4662
  676MOL0     C89143  10.163   4.963  11.180  0.2255  0.3079 -0.0500
  676MOL0    Cl89144  10.125   4.812  11.089 -0.4780 -0.0898 -0.1983
  676MOL0     C89145  11.041   5.115  10.421 -0.6270  0.4436  0.1118
  676MOL0     C89146  11.178   5.113  10.390 -0.4844 -1.4977 -0.8524
  676MOL0     O89147  11.367   4.855  10.260 -0.0522  0.0043 -0.3486
  676MOL0     C89148  11.666   5.053  10.329  0.1517  0.7902  0.4298
  676MOL0     C89149  11.799   5.050  10.299  0.0874  0.0029 -0.5865
  676MOL0     N89150  12.502   4.791  10.248 -0.1986  0.0298 -0.8754
  676MOL0     N89151  12.532   4.677  10.306  0.2776 -0.0192  0.5500
  676MOL0     C89152  11.518   4.153  11.056 -0.9370 -0.2988  0.2238
  676MOL0     C89153  11.401   4.076  11.050 -0.8516  0.5809  0.1791
  676MOL0     C89154  11.074   3.833  10.890  0.2924  0.1536  0.0871
  676MOL0     C89155  10.963   3.904  10.814 -0.2024  0.3308 -0.3235
  676MOL0     C89156  10.849   3.829  10.771  0.2699 -0.3302 -0.2710
  676MOL0     C89157  10.838   3.691  10.798  0.7641 -0.1492 -0.6562
  676MOL0     O89158  10.741   3.606  10.755  0.4841 -0.3240  0.2020
  676MOL0     C89159  10.630   3.646  10.681  0.6391  0.1843  0.2767
  676MOL0     C89160  10.539   3.525  10.631  0.2656  0.6142 -0.8657
  676MOL0     C89161  10.474   3.447  10.739  0.6493 -0.0600 -0.7696
  676MOL0     C89162  10.365   3.345  10.706 -0.3399 -0.6795  0.0642
  676MOL0     C89163  10.409   3.257  10.596  0.2097 -0.2726  0.2309
  676MOL0     C89164  10.448   3.192  10.500  0.0039 -0.1179 -0.4812
  676MOL0     C89165  10.943   3.625  10.865  0.5732 -0.5695  0.5640
  676MOL0     C89166  11.064   3.691  10.891 -0.1125 -0.0802 -0.1491
  676MOL0     H89167  11.281   4.199  10.751 -1.6092 -0.5679  0.1455
  676MOL0     H89168  11.486   4.329  10.768 -2.1851  3.3584  3.0971
  676MOL0     H89169  11.678   4.408  10.792  1.6513  0.5813 -1.3226
  676MOL0     H89170  11.751   4.244  10.800  1.1767  0.1359 -0.9815
  676MOL0     H89171  11.927   4.348  10.954 -1.0080  1.7531  2.4609
  676MOL0     H89172  11.873   4.511  10.908 -0.3426  0.7752 -2.2424
  676MOL0     H89173  11.913   4.458  10.668 -0.9104  0.8570 -0.4718
  676MOL0     H89174  11.972   4.293  10.710 -4.6465  0.4387 -1.2173
  676MOL0     H89175  12.084   4.564  10.797 -2.9806 -0.3078 -0.5314
  676MOL0     H89176  12.130   4.410  10.865 -1.7850  1.8782  0.7085
  676MOL0     H89177  12.120   4.482  10.571  1.9962  1.8885 -1.1205
  676MOL0     H89178  12.203   4.343  10.638 -1.7489 -0.8784 -0.4762
  676MOL0     H89179  12.367   4.486  10.754 -0.0518  1.8001  1.3165
  676MOL0     H89180  12.278   4.631  10.709 -2.5322 -0.6441  1.7605
  676MOL0     H89181  12.387   4.420  10.500  0.0566 -0.3489 -0.0409
  676MOL0     H89182  12.300   4.572  10.470 -0.3839 -0.1274  1.0552
  676MOL0     H89183  12.580   4.501  10.483  0.7023  0.4006 -0.7623
  676MOL0     H89184  12.559   4.609  10.622 -4.1424  0.2187  1.5690
  676MOL0     H89185  12.462   4.885  10.558 -1.5671 -1.8710  1.4900
  676MOL0     H89186  12.479   5.018  10.198 -1.2547 -0.6648  0.0399
  676MOL0     H89187  12.519   5.095  10.343 -2.9746  1.6959  0.5494
  676MOL0     H89188  12.309   5.168  10.307  1.9541  0.3247  3.7059
  676MOL0     H89189  12.276   5.053  10.435  0.6594  0.7111  0.7923
  676MOL0     H89190  12.225   4.985  10.124 -3.4942 -0.9880 -0.3791
  676MOL0     H89191  12.211   4.878  10.267  2.6293  0.6409  0.7306
  676MOL0     H89192  12.054   5.146  10.227 -0.5605 -0.0869 -2.7105
  676MOL0     H89193  12.049   5.024  10.359  1.0843 -0.9545 -0.0778
  676MOL0     H89194  11.813   4.772  10.098  1.2477  0.6001 -0.6393
  676MOL0     H89195  11.567   4.774  10.153  0.8895 -0.0269  0.3636
  676MOL0     H89196  11.275   4.888  10.633  1.2904 -0.5787 -0.7552
  676MOL0     H89197  11.054   4.928  10.700  3.0194 -4.2582 -0.2180
  676MOL0     H89198  10.747   5.104  10.427  0.6511 -1.3076  0.5919
  676MOL0     H89199  10.772   5.239  10.548  0.8350  0.4341 -1.3476
  676MOL0     H89200  10.589   4.996  10.582  1.2214 -0.5289  0.1910
  676MOL0     H89201  10.545   5.163  10.542 -2.7342 -2.9673  0.5778
  676MOL0     H89202  10.619   5.240  10.763 -0.4518  0.8844  2.0995
  676MOL0     H89203  10.673   5.080  10.806 -0.9100 -1.6471 -1.5481
  676MOL0     H89204  10.396   5.186  10.758  2.7113  1.7045 -1.0238
  676MOL0     H89205  10.424   5.012  10.751 -0.1668  1.3588  0.6732
  676MOL0     H89206  10.465   5.189  11.004 -3.6316  0.7721 -0.2055
  676MOL0     H89207  10.523   5.028  10.982 -0.6645 -0.5059  0.5982
  676MOL0     H89208  10.286   4.957  10.932 -2.2075  1.4511 -0.5888
  676MOL0     H89209  10.231   5.125  10.947 -1.1207  0.0991  0.2559
  676MOL0     H89210  10.375   4.956  11.178 -1.1754  0.2786  1.7829
  676MOL0     H89211  10.310   5.116  11.199 -1.8070 -0.9206  1.7876
  676MOL0     H89212  10.084   5.037  11.164  0.0827  0.8116  2.5190
  676MOL0     H89213  10.159   4.948  11.288 -1.6402  0.4904 -0.0698
  676MOL0     H89214  10.968   5.178  10.370 -2.0193 -1.2362 -0.0773
  676MOL0     H89215  11.221   5.177  10.314  1.8822 -2.1370 -0.1531
  676MOL0     H89216  11.623   5.128  10.395 -0.0659 -0.2518  1.5142
  676MOL0     H89217  11.852   5.136  10.336 -1.2503  0.0997  1.2377
  676MOL0     H89218  11.582   4.136  11.142  0.3084 -1.4585 -0.8704
  676MOL0     H89219  11.376   4.005  11.128  2.4467 -1.1436 -0.1509
  676MOL0     H89220  10.975   4.008  10.788  1.4387 -0.0289 -1.1805
  676MOL0     H89221  10.761   3.881  10.736  0.2859 -1.1426 -1.5929
  676MOL0     H89222  10.661   3.702  10.592 -0.4023 -1.2798 -1.0813
  676MOL0     H89223  10.563   3.718  10.730  1.3809  0.6045  0.6854
  676MOL0     H89224  10.472   3.553  10.549 -1.5630  0.3532  0.4892
  676MOL0     H89225  10.606   3.454  10.582  0.7160 -1.1468  2.0862
  676MOL0     H89226  10.430   3.512  10.814 -0.0357  0.3252 -1.4973
  676MOL0     H89227  10.547   3.374  10.776  2.2195 -0.3233 -4.0064
  676MOL0     H89228  10.338   3.285  10.794 -0.8897 -1.3932 -0.5781
  676MOL0     H89229  10.278   3.396  10.665  0.0104 -2.9351 -4.0707
  676MOL0     H89230  10.485   3.147  10.409  1.9312  1.0686 -0.3403
  676MOL0     H89231  10.923   3.520  10.884  0.9797 -0.3590  2.3485
  676MOL0     H89232  11.147   3.640  10.937  0.1850  1.5903  1.2796
  677MOL0     O89233   5.680   7.408   3.708 -0.7896 -0.0420 -0.2100
  677MOL0     C89234   5.734   7.311   3.765  0.1377  0.2587  0.1845
  677MOL0     O89235   5.688   7.180   3.744 -0.2932 -0.8790 -0.7095
  677MOL0     C89236   5.611   7.146   3.647  0.0990 -0.5292  0.3183
  677MOL0     C89237   5.476   7.183   3.664 -0.1224  0.1054  1.2161
  677MOL0     C89238   5.375   7.125   3.584 -0.2066 -0.1130 -0.6444
  677MOL0     C89239   5.410   7.035   3.482  0.2408  0.1251 -0.1921
  677MOL0     O89240   5.316   6.982   3.401  0.0810 -0.4110 -0.0152
  677MOL0     C89241   5.203   7.077   3.368 -0.4774  0.7227 -0.0564
  677MOL0     C89242   5.143   7.034   3.231 -0.1996  0.2081 -0.4546
  677MOL0     C89243   5.235   7.060   3.116 -0.8325  0.2093 -0.2268
  677MOL0     C89244   5.235   7.209   3.080 -0.1268 -0.2848  0.0568
  677MOL0     C89245   5.352   7.240   2.980  0.4245 -0.0445 -0.6143
  677MOL0     C89246   5.499   7.261   3.047  0.0381 -0.0192 -0.0714
  677MOL0     C89247   5.600   7.252   2.933  0.8126 -0.3611  0.7754
  677MOL0     C89248   5.601   7.375   2.844  0.7709  0.5553  0.0209
  677MOL0     N89249   5.659   7.490   2.923 -0.0151 -0.3646 -0.5371
  677MOL0     C89250   5.766   7.500   3.010  0.5089  0.4581  0.4199
  677MOL0     C89251   5.764   7.629   3.062 -1.0282  0.2538  0.0848
  677MOL0     C89252   5.861   7.713   3.142 -0.7650  0.9572 -0.3938
  677MOL0     C89253   5.921   7.634   3.252  0.2148  0.2647  0.5767
  677MOL0     C89254   5.824   7.570   3.352  0.0787  0.5221  0.1465
  677MOL0     C89255   5.724   7.672   3.416 -0.1341  1.0782  0.3632
  677MOL0     O89256   5.604   7.691   3.333  0.1771  0.9210  0.3375
  677MOL0     C89257   5.494   7.624   3.353  0.3820  0.1063  0.1919
  677MOL0     C89258   5.391   7.666   3.264 -0.4703 -0.0123  0.1238
  677MOL0     C89259   5.262   7.611   3.268 -0.3595 -0.0304 -0.3100
  677MOL0     C89260   5.232   7.509   3.353 -0.6962  0.2021 -0.2528
  677MOL0     C89261   5.100   7.441   3.351 -0.1815 -0.2596 -0.2751
  677MOL0     O89262   5.020   7.481   3.246 -0.8307 -0.3582  0.2442
  677MOL0     C89263   4.889   7.444   3.248 -0.3023 -0.0317  0.3170
  677MOL0     C89264   4.847   7.334   3.181 -0.7160  0.0212  0.1768
  677MOL0     C89265   4.715   7.291   3.175 -0.0141 -0.6606 -1.2534
  677MOL0     C89266   4.612   7.368   3.238 -0.4350 -0.2431  0.0378
  677MOL0     O89267   4.476   7.342   3.253 -0.2029 -0.0487  0.0544
  677MOL0     C89268   4.428   7.233   3.174  0.6930 -0.0914  0.0218
  677MOL0     C89269   4.278   7.212   3.229  0.2319  1.1096 -0.3497
  677MOL0     C89270   4.227   7.080   3.184  0.1483 -0.1224 -0.4006
  677MOL0     C89271   4.070   7.081   3.201 -0.3203 -0.4915  0.0611
  677MOL0     C89272   4.003   6.958   3.142  0.1951  0.4854 -0.1359
  677MOL0     C89273   3.852   6.955   3.122 -0.8093  0.7345  0.6142
  677MOL0     C89274   3.810   7.048   3.007 -0.5288 -0.1957 -0.6174
  677MOL0     C89275   3.663   7.071   3.024 -0.2522  1.2167  0.3243
  677MOL0    Cl89276   3.602   7.147   2.870 -0.1663  0.1101 -0.6099
  677MOL0     C89277   4.658   7.485   3.296  0.1943 -0.4768  0.2558
  677MOL0     C89278   4.798   7.522   3.309 -0.3044  0.0372  0.3430
  677MOL0     O89279   5.061   7.377   3.447 -0.1728 -0.6383  0.4479
  677MOL0     C89280   5.327   7.475   3.446 -0.8390  0.5850 -0.4510
  677MOL0     C89281   5.455   7.528   3.449 -0.0084  0.1775 -0.4464
  677MOL0     N89282   5.659   7.691   3.003 -0.1712  0.1812  1.0133
  677MOL0     N89283   5.598   7.610   2.925  0.4313 -0.0064  0.3578
  677MOL0     C89284   5.542   7.007   3.464  0.1914  0.2331  0.0567
  677MOL0     C89285   5.641   7.055   3.542 -0.6620  0.3586  0.2827
  677MOL0     C89286   5.857   7.333   3.830 -0.8408  0.3046  0.3507
  677MOL0     C89287   5.953   7.235   3.835  0.6495  0.0303 -0.0708
  677MOL0     C89288   6.079   7.253   3.883 -0.4432 -0.3698  0.4145
  677MOL0     C89289   6.116   7.371   3.942 -0.1395 -1.0911 -0.1008
  677MOL0     O89290   6.232   7.365   4.005  0.3255 -0.2647 -0.5524
  677MOL0     C89291   6.251   7.444   4.131 -0.1659 -0.3182  0.0675
  677MOL0     C89292   6.343   7.559   4.094 -0.0709  0.4716 -0.2288
  677MOL0     C89293   6.404   7.618   4.220  0.9127 -0.3545 -0.0257
  677MOL0     C89294   6.497   7.741   4.186  0.5157 -0.4977  0.4484
  677MOL0     C89295   6.416   7.855   4.149 -0.2026  0.2030  0.6282
  677MOL0     C89296   6.347   7.950   4.120  0.7663  0.8243  0.2256
  677MOL0     C89297   6.030   7.480   3.928  0.1260 -0.3631 -0.0736
  677MOL0     C89298   5.900   7.463   3.873  0.2939  0.3541 -0.4024
  677MOL0     H89299   5.454   7.253   3.744 -1.7821  0.5479  0.4230
  677MOL0     H89300   5.275   7.162   3.600  0.0544  0.7503 -0.9208
  677MOL0     H89301   5.237   7.180   3.360  0.7217  0.4581  1.1257
  677MOL0     H89302   5.119   7.048   3.431  1.6126 -2.4632  1.6022
  677MOL0     H89303   5.052   7.093   3.216 -0.0300  0.1031 -2.0633
  677MOL0     H89304   5.117   6.928   3.235  3.2677 -0.7244  0.0747
  677MOL0     H89305   5.203   6.992   3.037 -1.7975 -0.5531  0.7875
  677MOL0     H89306   5.335   7.028   3.143 -1.1299 -0.9727 -0.4516
  677MOL0     H89307   5.143   7.218   3.021  1.7268 -1.2918 -3.2443
  677MOL0     H89308   5.232   7.270   3.171  1.5813  2.3768 -1.5366
  677MOL0     H89309   5.327   7.332   2.927  4.5447  1.9634  0.5471
  677MOL0     H89310   5.360   7.151   2.916  0.0769  0.6898 -1.7068
  677MOL0     H89311   5.510   7.173   3.112 -0.9141 -0.5018 -0.5309
  677MOL0     H89312   5.483   7.351   3.107 -0.7266 -1.3558  1.8351
  677MOL0     H89313   5.697   7.232   2.980  1.5178 -1.5590 -1.0725
  677MOL0     H89314   5.574   7.168   2.868 -0.1175  0.8641 -0.4893
  677MOL0     H89315   5.500   7.404   2.815 -0.1303 -2.1768  0.2161
  677MOL0     H89316   5.677   7.367   2.765  1.2165 -0.1470  0.5034
  677MOL0     H89317   5.844   7.426   3.023  1.4293  1.2533 -0.3927
  677MOL0     H89318   5.800   7.795   3.180  0.1478  1.5356 -0.1218
  677MOL0     H89319   5.939   7.752   3.075 -0.5225 -0.4837 -0.9762
  677MOL0     H89320   5.987   7.698   3.311  0.1751 -0.6110  1.5991
  677MOL0     H89321   5.986   7.558   3.209  0.0712  0.3201  0.2564
  677MOL0     H89322   5.764   7.494   3.301 -0.2616 -1.0640  2.7176
  677MOL0     H89323   5.880   7.514   3.428  1.4539  1.1526 -0.3764
  677MOL0     H89324   5.764   7.774   3.423 -0.7447  1.2900  0.8465
  677MOL0     H89325   5.698   7.633   3.515 -1.2248 -2.6136 -1.1822
  677MOL0     H89326   5.410   7.741   3.188  0.5954 -1.8573 -1.5295
  677MOL0     H89327   5.193   7.664   3.204  0.2483 -0.2392 -1.1540
  677MOL0     H89328   4.925   7.280   3.128 -0.2887  1.1263 -0.3518
  677MOL0     H89329   4.686   7.198   3.126 -1.3205 -0.4448 -0.9329
  677MOL0     H89330   4.490   7.143   3.175 -0.0553 -0.8000 -3.7239
  677MOL0     H89331   4.426   7.259   3.068 -1.6833  4.5651  0.9429
  677MOL0     H89332   4.205   7.289   3.203 -1.0747  0.8454  2.2346
  677MOL0     H89333   4.288   7.216   3.338  1.4767 -0.8961 -0.3508
  677MOL0     H89334   4.274   7.001   3.242  0.7459  0.0769 -0.6060
  677MOL0     H89335   4.251   7.073   3.077  0.2461 -0.3731 -0.3640
  677MOL0     H89336   4.044   7.093   3.306  0.9405  1.2015  0.2222
  677MOL0     H89337   4.025   7.161   3.140 -0.2377 -1.5775 -1.4947
  677MOL0     H89338   4.021   6.874   3.209 -0.8606  1.2416  1.1730
  677MOL0     H89339   4.045   6.946   3.042  0.5931  2.5504 -0.2737
  677MOL0     H89340   3.819   6.985   3.222  0.5623  2.5722  0.5801
  677MOL0     H89341   3.812   6.855   3.107 -2.2192  1.6290 -2.1492
  677MOL0     H89342   3.862   7.144   3.015  1.5874 -1.3911  1.3275
  677MOL0     H89343   3.825   7.008   2.906 -1.8696  2.1337 -1.8127
  677MOL0     H89344   3.655   7.132   3.114 -0.8778  0.6053  0.6889
  677MOL0     H89345   3.606   6.979   3.040 -0.1612  1.3029  1.1639
  677MOL0     H89346   4.579   7.548   3.335  0.2675 -1.0754  1.4068
  677MOL0     H89347   4.835   7.610   3.361  2.8425 -1.5492  1.0712
  677MOL0     H89348   5.307   7.393   3.514 -0.8346 -1.0350 -2.3197
  677MOL0     H89349   5.526   7.506   3.528  2.0552  1.1879 -1.9318
  677MOL0     H89350   5.562   6.929   3.391 -2.4305 -0.2012 -0.2981
  677MOL0     H89351   5.748   7.039   3.530 -0.6429 -1.3898  2.1418
  677MOL0     H89352   5.948   7.140   3.782  3.4663 -0.6009  0.6477
  677MOL0     H89353   6.154   7.176   3.895  0.6146  0.6355  0.4507
  677MOL0     H89354   6.302   7.384   4.207 -2.7701 -1.0214  1.3690
  677MOL0     H89355   6.153   7.473   4.169 -0.2245 -2.1498  1.4136
  677MOL0     H89356   6.427   7.540   4.027 -0.1437  2.3883 -0.9516
  677MOL0     H89357   6.279   7.627   4.036 -0.4020 -0.7218 -1.3086
  677MOL0     H89358   6.460   7.538   4.269 -0.8833 -1.2404  0.6524
  677MOL0     H89359   6.329   7.643   4.295  1.1535 -0.6175  0.3087
  677MOL0     H89360   6.554   7.776   4.272 -0.6467 -0.0587  1.0682
  677MOL0     H89361   6.571   7.729   4.107 -0.9811  0.6880 -1.2308
  677MOL0     H89362   6.293   8.037   4.088  3.3323  1.9314 -1.4213
  677MOL0     H89363   6.053   7.576   3.973 -0.8946 -0.3604  0.4533
  677MOL0     H89364   5.840   7.553   3.870  0.9942  0.9099  1.2768
  678MOL0     O89365   2.671   0.793   3.514 -0.2023  0.2088  0.3215
  678MOL0     C89366   2.709   0.891   3.450 -0.3646  0.4188  0.7324
  678MOL0     O89367   2.672   0.932   3.320 -0.9267  0.6172  0.2309
  678MOL0     C89368   2.579   0.869   3.249 -0.3737 -0.5804  0.3957
  678MOL0     C89369   2.587   0.736   3.216 -0.0774  1.1491 -0.0688
  678MOL0     C89370   2.497   0.684   3.123  1.4412 -0.3083 -0.2539
  678MOL0     C89371   2.381   0.759   3.083 -0.4391  0.2971  0.7224
  678MOL0     O89372   2.270   0.698   3.033  0.6887  0.8246 -0.3707
  678MOL0     C89373   2.152   0.768   3.015  0.3400  1.0658  0.2967
  678MOL0     C89374   2.040   0.670   2.973 -0.3562 -0.4777  0.3504
  678MOL0     C89375   1.901   0.731   2.964  0.4066  0.5913  0.3809
  678MOL0     C89376   1.800   0.617   2.924  0.6618 -0.2568  0.9430
  678MOL0     C89377   1.659   0.662   2.959  0.5403 -0.3176  0.1040
  678MOL0     C89378   1.559   0.577   2.891  0.1222  0.1701  0.1168
  678MOL0     C89379   1.417   0.607   2.941 -0.1872 -0.3011 -0.1724
  678MOL0     C89380   1.317   0.501   2.874  1.3989 -0.4650 -0.0332
  678MOL0     N89381   1.195   0.467   2.951 -0.7446 -0.3608 -0.2239
  678MOL0     C89382   1.183   0.458   3.083  0.3032 -0.8317 -0.1989
  678MOL0     C89383   1.050   0.448   3.108  0.9244 -1.1947  0.6105
  678MOL0     C89384   0.978   0.462   3.239  0.1879  0.3757 -0.5645
  678MOL0     C89385   0.845   0.382   3.256 -0.3268 -0.1102  0.3873
  678MOL0     C89386   0.722   0.453   3.192 -0.2286  0.1673  0.0312
  678MOL0     C89387   0.584   0.412   3.241 -0.0054  0.4895 -0.4851
  678MOL0     O89388   0.536   0.504   3.342 -0.4102  0.6147 -0.4541
  678MOL0     C89389   0.415   0.465   3.397 -0.3629 -0.3173 -0.2879
  678MOL0     C89390   0.415   0.426   3.527 -1.1052  0.5902  0.6230
  678MOL0     C89391   0.296   0.410   3.599  0.2813 -1.4517  0.2016
  678MOL0     C89392   0.173   0.425   3.532 -0.1399 -0.2349  0.6933
  678MOL0     C89393   0.043   0.437   3.607 -0.4495  0.1313  0.3524
  678MOL0     O89394  -0.073   0.438   3.542  0.3081 -0.1792  0.2940
  678MOL0     C89395  -0.201   0.474   3.596 -0.2398 -0.9616  0.3551
  678MOL0     C89396  -0.264   0.380   3.679 -0.5483 -0.0617  0.1789
  678MOL0     C89397  -0.397   0.397   3.721 -0.7785  0.6058  0.0980
  678MOL0     C89398  -0.459   0.523   3.700 -0.7632  0.5770 -0.5810
  678MOL0     O89399  -0.577   0.565   3.751 -0.3912 -0.3487 -0.2697
  678MOL0     C89400  -0.645   0.473   3.834  0.3033  0.4315 -0.9353
  678MOL0     C89401  -0.780   0.536   3.846  0.1033 -0.0238  0.2398
  678MOL0     C89402  -0.866   0.457   3.938 -0.1549 -0.4518  0.1381
  678MOL0     C89403  -0.924   0.328   3.867 -0.2753 -0.7055 -0.3948
  678MOL0     C89404  -1.039   0.263   3.956 -0.5606 -0.3229 -0.8404
  678MOL0     C89405  -1.166   0.353   3.970  0.7565  0.1743  0.7475
  678MOL0     C89406  -1.293   0.287   4.046  0.2760 -0.2784  0.4222
  678MOL0     C89407  -1.391   0.390   4.107  0.2231 -0.2734 -0.1215
  678MOL0    Cl89408  -1.509   0.296   4.214  0.2723  0.0014 -0.0743
  678MOL0     C89409  -0.385   0.618   3.638  0.2258 -0.6932 -0.4953
  678MOL0     C89410  -0.257   0.595   3.581 -0.1364 -0.7596  0.7531
  678MOL0     O89411   0.056   0.441   3.722  0.4144  0.4856  0.3751
  678MOL0     C89412   0.175   0.448   3.386 -0.3095  0.0744  0.3423
  678MOL0     C89413   0.299   0.469   3.326 -0.4852  0.3330 -0.6807
  678MOL0     N89414   0.989   0.437   2.981 -0.2455  0.2545  0.3484
  678MOL0     N89415   1.079   0.448   2.890 -0.3563 -0.5307 -0.0537
  678MOL0     C89416   2.392   0.899   3.098  0.2674  0.4894 -0.6885
  678MOL0     C89417   2.492   0.951   3.178 -0.3281 -0.4016  0.6886
  678MOL0     C89418   2.828   0.965   3.497 -0.4666 -0.5374  0.2286
  678MOL0     C89419   2.904   1.060   3.419  0.0322 -0.3470 -0.2396
  678MOL0     C89420   3.027   1.113   3.466 -0.1738  0.7690 -0.2294
  678MOL0     C89421   3.059   1.097   3.596 -0.7088 -0.9773  0.4298
  678MOL0     O89422   3.171   1.149   3.656  0.0139  0.1876 -0.0295
  678MOL0     C89423   3.285   1.190   3.565 -0.5189  0.2195 -0.0862
  678MOL0     C89424   3.416   1.226   3.645 -0.4705 -0.9412 -0.3401
  678MOL0     C89425   3.521   1.258   3.538 -0.8287 -0.2031 -0.2716
  678MOL0     C89426   3.652   1.275   3.602  0.1048 -0.6859  0.6804
  678MOL0     C89427   3.749   1.322   3.496 -0.2320  0.5345  0.4449
  678MOL0     C89428   3.826   1.335   3.401 -0.4656 -0.1506  0.3810
  678MOL0     C89429   2.989   1.011   3.677  0.0728 -0.0774  0.5387
  678MOL0     C89430   2.871   0.943   3.630  0.6760 -0.2529  0.5879
  678MOL0     H89431   2.643   0.671   3.282 -0.1272  2.1290  0.9806
  678MOL0     H89432   2.486   0.578   3.099 -0.8050 -0.8962  2.8385
  678MOL0     H89433   2.160   0.851   2.944 -0.5387 -0.4668 -1.6955
  678MOL0     H89434   2.127   0.812   3.112  0.8638 -2.7266  2.3373
  678MOL0     H89435   2.037   0.597   3.054  0.9333 -0.2260  0.6607
  678MOL0     H89436   2.068   0.637   2.873 -1.4991  2.5107 -1.0799
  678MOL0     H89437   1.890   0.810   2.888 -0.7551  0.1430  0.0711
  678MOL0     H89438   1.883   0.779   3.060  0.5493  0.7825  0.3149
  678MOL0     H89439   1.802   0.624   2.814 -0.1347  2.8245  1.0121
  678MOL0     H89440   1.814   0.520   2.971  0.6813  0.5017  2.5598
  678MOL0     H89441   1.643   0.768   2.933 -0.6200 -0.1389  1.3914
  678MOL0     H89442   1.642   0.662   3.067  0.6318  0.0408  0.1221
  678MOL0     H89443   1.593   0.473   2.890 -0.7742 -0.1806 -2.0088
  678MOL0     H89444   1.577   0.611   2.788  0.4267 -1.1515 -0.2987
  678MOL0     H89445   1.415   0.593   3.049  2.2323 -3.1202 -0.3601
  678MOL0     H89446   1.395   0.711   2.913  1.1661 -0.0178 -0.2488
  678MOL0     H89447   1.369   0.412   2.837  1.3276 -1.4449  2.1008
  678MOL0     H89448   1.273   0.546   2.785  0.7427  1.2493  1.1191
  678MOL0     H89449   1.257   0.475   3.160  1.2321  2.8822 -1.7089
  678MOL0     H89450   0.967   0.569   3.260 -4.8063  0.5632 -2.6958
  678MOL0     H89451   1.045   0.410   3.308 -2.3591 -1.1801  0.9264
  678MOL0     H89452   0.826   0.370   3.363 -3.3992 -0.6325 -0.1365
  678MOL0     H89453   0.858   0.287   3.204  1.6071  1.8257 -3.0582
  678MOL0     H89454   0.728   0.561   3.208 -1.0543  0.2168  0.0199
  678MOL0     H89455   0.730   0.430   3.085  1.9324  1.2280 -0.0914
  678MOL0     H89456   0.582   0.308   3.272  0.5876  0.3311 -0.9441
  678MOL0     H89457   0.523   0.427   3.152  1.6288 -1.2941 -1.9940
  678MOL0     H89458   0.517   0.419   3.563 -0.4731 -0.1070 -1.1804
  678MOL0     H89459   0.294   0.407   3.708 -1.3799  3.6661  0.5892
  678MOL0     H89460  -0.211   0.289   3.705 -1.3012 -0.1608  1.4504
  678MOL0     H89461  -0.444   0.310   3.766  2.7560 -3.1475 -2.7401
  678MOL0     H89462  -0.593   0.445   3.925 -0.8836  0.8745 -0.0980
  678MOL0     H89463  -0.660   0.379   3.781  0.6818  0.7793 -1.6777
  678MOL0     H89464  -0.818   0.531   3.743  3.1145  1.2476 -1.0464
  678MOL0     H89465  -0.770   0.643   3.867 -1.6288  0.2274 -0.0444
  678MOL0     H89466  -0.950   0.520   3.968 -1.5147 -2.3631  0.5842
  678MOL0     H89467  -0.823   0.420   4.032  1.2764 -2.1843 -1.1292
  678MOL0     H89468  -0.966   0.359   3.771  0.9598  0.2164 -0.6632
  678MOL0     H89469  -0.839   0.263   3.845 -0.8159 -1.6106  0.1228
  678MOL0     H89470  -1.007   0.246   4.059  0.9587  1.3520 -0.9807
  678MOL0     H89471  -1.069   0.169   3.908  1.4711 -1.4025 -0.1401
  678MOL0     H89472  -1.196   0.386   3.871  1.1654  0.0387  0.5783
  678MOL0     H89473  -1.143   0.437   4.036 -3.6645  2.1947  0.0640
  678MOL0     H89474  -1.353   0.221   3.983  1.1697 -1.3422  0.6619
  678MOL0     H89475  -1.255   0.232   4.132  1.5420  0.3114  0.2687
  678MOL0     H89476  -1.446   0.438   4.025  1.2981  1.7692  0.2717
  678MOL0     H89477  -1.343   0.472   4.162 -0.6147  0.0265  0.1688
  678MOL0     H89478  -0.427   0.718   3.637  1.9589  0.0706 -1.0652
  678MOL0     H89479  -0.210   0.684   3.539 -1.8844 -0.2168 -0.1582
  678MOL0     H89480   0.083   0.460   3.329  1.5819  3.3342 -2.3355
  678MOL0     H89481   0.305   0.505   3.224 -1.5720  2.0612 -0.1693
  678MOL0     H89482   2.319   0.972   3.065 -0.0800 -0.8771 -3.3126
  678MOL0     H89483   2.493   1.055   3.210  0.9521  0.1799 -1.0553
  678MOL0     H89484   2.866   1.071   3.317  1.0020 -0.4658 -0.6260
  678MOL0     H89485   3.081   1.170   3.392  0.1854 -2.3347 -2.5832
  678MOL0     H89486   3.247   1.266   3.497 -2.8456 -1.4643 -0.7831
  678MOL0     H89487   3.316   1.105   3.502 -1.3690 -0.1745  0.0171
  678MOL0     H89488   3.397   1.319   3.698  1.2616 -0.8636  0.2198
  678MOL0     H89489   3.457   1.150   3.713  0.3309  1.3308  1.8433
  678MOL0     H89490   3.486   1.349   3.490 -0.4658  1.5213  2.4796
  678MOL0     H89491   3.527   1.181   3.461  0.5437 -1.5756  1.1229
  678MOL0     H89492   3.643   1.351   3.680 -2.8030  0.6678 -0.8045
  678MOL0     H89493   3.682   1.176   3.636  1.3420 -0.2344  0.9577
  678MOL0     H89494   3.890   1.337   3.315 -2.0904  0.4404 -0.8710
  678MOL0     H89495   3.038   0.994   3.773 -0.8269  1.0103  1.2200
  678MOL0     H89496   2.829   0.878   3.707 -0.6701  0.9347  0.9016
  679MOL0     O89497   1.790   9.160   8.986 -0.9385  0.2459  0.0860
  679MOL0     C89498   1.814   9.056   9.046 -0.1521 -0.5857 -0.4994
  679MOL0     O89499   1.922   8.974   9.022  0.3292 -0.0460  0.0310
  679MOL0     C89500   2.007   9.020   8.919  0.3143  0.6752  0.3595
  679MOL0     C89501   1.958   9.011   8.787  0.0784 -0.3060  0.2668
  679MOL0     C89502   2.038   9.060   8.680  0.5620  0.2480 -0.2999
  679MOL0     C89503   2.172   9.115   8.704  1.0458  0.1384 -0.8237
  679MOL0     O89504   2.226   9.159   8.587 -0.0791  0.0207  0.3602
  679MOL0     C89505   2.367   9.193   8.563  0.2502 -0.2011  0.3815
  679MOL0     C89506   2.419   9.113   8.445 -0.3803 -0.6239  0.5127
  679MOL0     C89507   2.421   8.956   8.466 -0.4727  0.7572 -0.5247
  679MOL0     C89508   2.533   8.901   8.568  0.5251 -0.7649 -0.1062
  679MOL0     C89509   2.466   8.883   8.703  0.3380  0.3075  0.1147
  679MOL0     C89510   2.414   8.737   8.716 -0.1933  0.2505 -0.3318
  679MOL0     C89511   2.275   8.732   8.782  0.1923  0.3034  0.3451
  679MOL0     C89512   2.239   8.589   8.766  0.9539 -0.1592  0.0959
  679MOL0     N89513   2.153   8.543   8.646 -0.3949  0.9298 -0.4603
  679MOL0     C89514   2.026   8.584   8.608 -0.2274 -0.1876 -0.2746
  679MOL0     C89515   1.983   8.490   8.519 -0.0155 -0.5431 -0.4419
  679MOL0     C89516   1.852   8.484   8.445 -0.4668  0.9558  0.1858
  679MOL0     C89517   1.765   8.378   8.529  0.3762 -1.0478 -0.3598
  679MOL0     C89518   1.628   8.363   8.468  0.6653  0.3488  0.0172
  679MOL0     C89519   1.548   8.489   8.492  0.6301  0.3042 -0.8970
  679MOL0     O89520   1.411   8.461   8.465 -0.1034  0.2439 -0.9580
  679MOL0     C89521   1.310   8.555   8.487 -0.1286 -0.4480 -0.2946
  679MOL0     C89522   1.310   8.616   8.608  0.5650  0.0335  0.2351
  679MOL0     C89523   1.211   8.709   8.640  0.6938  0.2716 -0.3311
  679MOL0     C89524   1.109   8.728   8.552  0.3527 -0.9559  0.0645
  679MOL0     C89525   1.009   8.836   8.584  0.4317  0.6323 -0.4418
  679MOL0     O89526   0.928   8.884   8.479  0.2782  0.3021  0.0534
  679MOL0     C89527   0.805   8.944   8.511  0.3234  0.4872  0.6570
  679MOL0     C89528   0.744   9.019   8.404 -0.2287 -1.3217 -0.3188
  679MOL0     C89529   0.631   9.088   8.423 -0.0938  0.4187 -1.4890
  679MOL0     C89530   0.553   9.067   8.536  0.1986  0.3523  0.2110
  679MOL0     O89531   0.427   9.128   8.549  0.0335 -0.8778 -0.2363
  679MOL0     C89532   0.350   9.155   8.425  0.2895 -0.3266 -0.7014
  679MOL0     C89533   0.206   9.103   8.442  0.3972  0.5427 -1.0141
  679MOL0     C89534   0.102   9.156   8.346  0.5657  0.3329 -0.0557
  679MOL0     C89535  -0.037   9.112   8.394  0.5598 -0.9806 -0.4649
  679MOL0     C89536  -0.149   9.199   8.344  0.8503 -1.5759  0.1404
  679MOL0     C89537  -0.288   9.125   8.345 -0.0847  0.0732  0.6683
  679MOL0     C89538  -0.395   9.202   8.263 -0.8517 -0.9670  0.4238
  679MOL0     C89539  -0.381   9.163   8.118  0.2233  0.2535 -0.3611
  679MOL0    Cl89540  -0.402   8.988   8.075  0.5375  0.0956 -0.1406
  679MOL0     C89541   0.602   8.988   8.643  0.2357  0.4088 -0.0542
  679MOL0     C89542   0.729   8.931   8.635  0.0607 -0.1575  0.2139
  679MOL0     O89543   1.007   8.877   8.702 -0.5256  0.1127  0.0653
  679MOL0     C89544   1.107   8.669   8.426 -0.0362  0.3689 -0.9109
  679MOL0     C89545   1.210   8.572   8.395  1.1850 -0.9739  0.4799
  679MOL0     N89546   2.073   8.385   8.512  0.5862  0.1512  0.7261
  679MOL0     N89547   2.176   8.424   8.581 -0.0446 -0.3615  0.1639
  679MOL0     C89548   2.218   9.109   8.839  0.4714 -0.8101 -0.7296
  679MOL0     C89549   2.133   9.073   8.945 -0.1469  0.0790 -0.6610
  679MOL0     C89550   1.709   9.006   9.144 -0.5778 -0.2733  0.8220
  679MOL0     C89551   1.720   8.885   9.211 -0.8512 -0.5704 -0.4039
  679MOL0     C89552   1.623   8.840   9.295  0.5258  0.5393 -0.6655
  679MOL0     C89553   1.501   8.905   9.317  0.1406 -0.3002  0.8405
  679MOL0     O89554   1.394   8.861   9.395  0.2383  1.6904 -0.2836
  679MOL0     C89555   1.391   8.743   9.468  0.1644  0.1400 -0.8991
  679MOL0     C89556   1.387   8.621   9.373 -0.1653  0.4087  0.8503
  679MOL0     C89557   1.347   8.490   9.442  0.4835 -0.3978 -0.0573
  679MOL0     C89558   1.294   8.393   9.336 -0.3956 -0.6589 -0.1259
  679MOL0     C89559   1.406   8.340   9.262 -0.5415 -0.1982 -0.0233
  679MOL0     C89560   1.504   8.299   9.195 -0.0155 -0.0129  0.1146
  679MOL0     C89561   1.491   9.030   9.252 -0.7868  0.0955 -0.4693
  679MOL0     C89562   1.593   9.083   9.168 -0.5970  0.2502 -0.1579
  679MOL0     H89563   1.857   8.979   8.765  0.2311 -2.6166  2.4806
  679MOL0     H89564   1.999   9.064   8.579  0.7800  2.3042 -0.3422
  679MOL0     H89565   2.434   9.172   8.647  1.6846 -0.3599 -0.7545
  679MOL0     H89566   2.359   9.299   8.538 -0.4063 -0.3957 -0.2785
  679MOL0     H89567   2.526   9.133   8.434 -0.4793 -0.4806 -0.2393
  679MOL0     H89568   2.356   9.130   8.357  0.5591  0.7464  0.0556
  679MOL0     H89569   2.436   8.930   8.361  0.4111  2.7334 -0.9398
  679MOL0     H89570   2.322   8.912   8.481 -1.4327  3.0909  0.4990
  679MOL0     H89571   2.588   8.816   8.527 -0.8282 -0.3991 -3.0201
  679MOL0     H89572   2.605   8.981   8.583  0.3214 -0.4956 -0.5286
  679MOL0     H89573   2.383   8.953   8.717 -0.1151 -0.3881  1.0171
  679MOL0     H89574   2.533   8.902   8.787  0.4218 -0.0062  0.1225
  679MOL0     H89575   2.485   8.687   8.783 -0.7046  2.4386  1.9894
  679MOL0     H89576   2.411   8.688   8.618 -0.6312 -2.4322  0.9110
  679MOL0     H89577   2.288   8.762   8.887  0.2144 -1.6482  0.9398
  679MOL0     H89578   2.199   8.791   8.731 -0.1155 -1.4451 -1.3108
  679MOL0     H89579   2.174   8.564   8.850 -0.0859  2.9450  0.3363
  679MOL0     H89580   2.329   8.529   8.777  1.7354  0.2365 -3.0432
  679MOL0     H89581   1.982   8.678   8.638  0.1020  1.1690 -3.6367
  679MOL0     H89582   1.862   8.437   8.347 -1.9116  2.3991 -0.7000
  679MOL0     H89583   1.800   8.580   8.437 -2.0304  0.3583  2.1425
  679MOL0     H89584   1.750   8.421   8.629 -0.1618 -1.9544 -0.0386
  679MOL0     H89585   1.816   8.281   8.531  0.5484 -1.1091 -3.3555
  679MOL0     H89586   1.616   8.353   8.360 -2.5462  1.2138  0.1789
  679MOL0     H89587   1.580   8.278   8.518 -2.5176  1.1696 -1.3584
  679MOL0     H89588   1.573   8.569   8.422 -2.2124  2.1304 -0.0129
  679MOL0     H89589   1.573   8.532   8.590 -0.3762  0.8689 -0.8711
  679MOL0     H89590   1.393   8.585   8.672  0.2608  1.2092  1.2451
  679MOL0     H89591   1.206   8.757   8.737 -2.1897 -0.8014  0.1473
  679MOL0     H89592   0.793   9.027   8.308  1.5984 -1.3405  0.5586
  679MOL0     H89593   0.595   9.152   8.343 -0.7561  1.8250 -0.1215
  679MOL0     H89594   0.382   9.109   8.331 -0.1981 -0.4770 -0.7943
  679MOL0     H89595   0.346   9.263   8.413 -0.0768 -0.4071 -1.3195
  679MOL0     H89596   0.179   9.126   8.546 -0.9261 -1.4870 -0.8633
  679MOL0     H89597   0.207   8.994   8.435 -0.3493  0.2258  2.1399
  679MOL0     H89598   0.122   9.124   8.243 -0.5704  0.3641 -0.2948
  679MOL0     H89599   0.103   9.265   8.349 -1.3486  0.3753  0.2907
  679MOL0     H89600  -0.055   9.006   8.371  4.4649 -1.7802 -0.6203
  679MOL0     H89601  -0.046   9.116   8.503 -0.7739 -1.1208 -0.5531
  679MOL0     H89602  -0.135   9.209   8.236 -1.6607 -4.7049 -0.6389
  679MOL0     H89603  -0.162   9.292   8.400 -0.8428 -0.6014 -1.6986
  679MOL0     H89604  -0.322   9.122   8.449 -0.2166 -0.2633  0.6170
  679MOL0     H89605  -0.276   9.023   8.308 -0.6136  0.4015 -0.4571
  679MOL0     H89606  -0.495   9.168   8.292 -0.7085 -1.7031  0.0821
  679MOL0     H89607  -0.376   9.308   8.284  3.8469 -1.4613 -0.2460
  679MOL0     H89608  -0.284   9.185   8.074  0.1591 -1.6159 -1.5762
  679MOL0     H89609  -0.449   9.221   8.056  1.6476  2.5508  0.1136
  679MOL0     H89610   0.536   8.974   8.728 -2.4213 -0.7236 -2.1701
  679MOL0     H89611   0.766   8.869   8.715  0.9862  0.0792 -0.0216
  679MOL0     H89612   1.024   8.681   8.357 -1.9165  1.7885  1.4353
  679MOL0     H89613   1.218   8.522   8.299 -1.0568  1.9995 -1.4330
  679MOL0     H89614   2.320   9.142   8.859 -0.1336 -0.2165  1.6402
  679MOL0     H89615   2.161   9.076   9.050  0.4488  0.0250 -0.8170
  679MOL0     H89616   1.801   8.813   9.203  2.0764  2.3354  0.8802
  679MOL0     H89617   1.647   8.750   9.351 -0.3920 -0.3324 -1.6317
  679MOL0     H89618   1.301   8.741   9.530 -0.7640 -2.5447 -2.1418
  679MOL0     H89619   1.476   8.743   9.537  0.9695  0.6407 -1.8517
  679MOL0     H89620   1.333   8.656   9.284  1.3842  1.7185  0.3789
  679MOL0     H89621   1.492   8.595   9.353 -0.2304 -1.3353  2.5139
  679MOL0     H89622   1.268   8.517   9.512 -0.9041 -0.8810 -1.3811
  679MOL0     H89623   1.431   8.448   9.497  1.3077  2.9293  1.4862
  679MOL0     H89624   1.234   8.316   9.386  0.2642 -1.8346 -1.0898
  679MOL0     H89625   1.241   8.449   9.258  1.0539 -0.2428 -0.8333
  679MOL0     H89626   1.590   8.269   9.140 -0.5888  0.9728 -1.3884
  679MOL0     H89627   1.400   9.087   9.264 -1.3703  0.1119 -3.8263
  679MOL0     H89628   1.575   9.180   9.125 -2.6151  0.3794  0.8358
  680MOL0     O89629   3.354   6.896  10.868  0.2238 -0.2876 -0.7091
  680MOL0     C89630   3.335   6.856  10.754 -0.7354 -0.1309 -1.0520
  680MOL0     O89631   3.429   6.846  10.650  0.9847  0.0463  0.1845
  680MOL0     C89632   3.560   6.833  10.693 -0.8006 -0.5801 -0.0328
  680MOL0     C89633   3.624   6.714  10.711  0.7558  0.5438  0.3542
  680MOL0     C89634   3.759   6.713  10.728 -0.3398  0.4270 -0.7452
  680MOL0     C89635   3.835   6.835  10.736  0.3569  0.0855  0.0695
  680MOL0     O89636   3.962   6.834  10.792  0.1089  0.1663 -0.4775
  680MOL0     C89637   4.060   6.733  10.748  0.4242 -0.2576  0.4592
  680MOL0     C89638   4.185   6.725  10.835 -0.1753  0.5846 -0.3953
  680MOL0     C89639   4.236   6.860  10.871  0.0678 -0.0402 -0.4606
  680MOL0     C89640   4.374   6.822  10.933 -0.2959 -0.6149  0.0506
  680MOL0     C89641   4.441   6.951  10.972 -0.7676 -0.3141 -0.3816
  680MOL0     C89642   4.578   6.921  11.038 -0.4690 -0.8472  0.2245
  680MOL0     C89643   4.692   7.005  10.987  0.5096  0.2316 -0.3364
  680MOL0     C89644   4.752   6.955  10.854  1.0612  0.8494 -0.4286
  680MOL0     N89645   4.802   7.044  10.759 -0.8103  0.8742  0.0891
  680MOL0     C89646   4.763   7.173  10.734 -0.0587 -0.4178  1.3133
  680MOL0     C89647   4.847   7.217  10.627 -0.3423  0.1149 -0.0097
  680MOL0     C89648   4.856   7.361  10.576 -0.0130 -0.8822  0.6191
  680MOL0     C89649   4.718   7.389  10.510 -0.2389 -0.7871  0.4715
  680MOL0     C89650   4.723   7.537  10.468 -0.1779  0.4024  0.0765
  680MOL0     C89651   4.592   7.572  10.409 -0.4294 -0.9676 -0.4421
  680MOL0     O89652   4.492   7.566  10.507 -0.0088  0.7485 -0.0134
  680MOL0     C89653   4.370   7.612  10.483 -0.2642 -0.2938  0.2592
  680MOL0     C89654   4.260   7.528  10.475  0.6019  0.2265 -0.9633
  680MOL0     C89655   4.136   7.587  10.454  0.3928 -0.3408  0.6155
  680MOL0     C89656   4.110   7.726  10.437  0.7402  0.1944  0.1966
  680MOL0     C89657   3.972   7.767  10.410  0.1999  0.1230 -0.4031
  680MOL0     O89658   3.964   7.905  10.379 -0.5891 -0.0240  0.3768
  680MOL0     C89659   3.843   7.971  10.344 -0.2424  0.2187  0.0793
  680MOL0     C89660   3.854   8.097  10.283 -0.7473 -0.3172  0.1056
  680MOL0     C89661   3.744   8.181  10.269  0.1163  0.6125  0.0956
  680MOL0     C89662   3.613   8.138  10.307 -0.6167 -0.3490 -0.1018
  680MOL0     O89663   3.507   8.222  10.306 -1.1660 -0.0547 -0.0242
  680MOL0     C89664   3.425   8.225  10.186 -0.7700  0.4598  0.7772
  680MOL0     C89665   3.286   8.276  10.217  0.7441  0.3934  0.5935
  680MOL0     C89666   3.215   8.172  10.309 -0.0862  1.2963 -0.7802
  680MOL0     C89667   3.083   8.227  10.354  0.4545 -0.1124  0.3766
  680MOL0     C89668   3.018   8.110  10.428  0.8375  0.3137  0.1015
  680MOL0     C89669   2.870   8.132  10.429  0.1723 -0.2443  0.9583
  680MOL0     C89670   2.796   8.018  10.491 -0.8623  0.8273  0.4246
  680MOL0     C89671   2.646   8.049  10.497  0.9142  0.2751 -0.5521
  680MOL0    Cl89672   2.624   8.184  10.603  0.1100 -0.1374 -0.1395
  680MOL0     C89673   3.601   8.011  10.362  0.3425 -0.6353  0.0570
  680MOL0     C89674   3.711   7.930  10.370  0.4299 -0.3431  0.4189
  680MOL0     O89675   3.880   7.681  10.410 -0.8714 -0.8459  0.0871
  680MOL0     C89676   4.219   7.809  10.463 -0.2952 -0.2754 -1.0434
  680MOL0     C89677   4.347   7.751  10.477 -1.2418  0.7928  0.9406
  680MOL0     N89678   4.925   7.111  10.595 -0.0945 -0.8539  0.9341
  680MOL0     N89679   4.911   7.009  10.673 -0.5158  0.7224 -0.4449
  680MOL0     C89680   3.765   6.954  10.718 -0.0005 -0.3087  0.6235
  680MOL0     C89681   3.631   6.949  10.696  1.0830 -0.8283  0.2155
  680MOL0     C89682   3.205   6.829  10.704 -0.3471  1.1895  0.2968
  680MOL0     C89683   3.190   6.746  10.591  0.8189  0.3208  0.1682
  680MOL0     C89684   3.069   6.719  10.534 -0.8179 -0.5548  0.0106
  680MOL0     C89685   2.954   6.772  10.585  0.1921  0.2992 -0.2195
  680MOL0     O89686   2.827   6.756  10.531 -0.1202  0.2991  0.0237
  680MOL0     C89687   2.811   6.632  10.451  1.1758 -0.1047  0.1908
  680MOL0     C89688   2.670   6.580  10.464 -0.4416 -0.1574  0.2459
  680MOL0     C89689   2.558   6.681  10.388  0.3911  0.0506 -0.1852
  680MOL0     C89690   2.411   6.651  10.414  0.8250 -0.2053  0.1779
  680MOL0     C89691   2.366   6.553  10.319  1.0932 -0.3863  0.1651
  680MOL0     C89692   2.305   6.479  10.241 -0.6796 -0.6106 -0.5795
  680MOL0     C89693   2.968   6.840  10.707  0.8045 -1.1430  0.5378
  680MOL0     C89694   3.090   6.873  10.766  0.0067 -0.0899 -0.1656
  680MOL0     H89695   3.559   6.628  10.704  1.6814 -0.3086  1.6908
  680MOL0     H89696   3.813   6.622  10.755 -0.6795  0.8958  1.7520
  680MOL0     H89697   4.094   6.761  10.648 -1.6244  1.3644  0.1348
  680MOL0     H89698   4.018   6.632  10.751  1.3561 -0.6588  2.8233
  680MOL0     H89699   4.256   6.674  10.770  1.6370  0.9981  1.1813
  680MOL0     H89700   4.154   6.676  10.927 -0.8175  1.4419 -0.1407
  680MOL0     H89701   4.171   6.922  10.932  0.2876  0.7482 -1.0058
  680MOL0     H89702   4.255   6.906  10.773  3.9523 -1.2217 -0.4445
  680MOL0     H89703   4.344   6.762  11.018 -1.5099  0.0156  0.0879
  680MOL0     H89704   4.443   6.769  10.866 -2.2629 -0.1693 -2.4942
  680MOL0     H89705   4.375   7.006  11.038  0.2378  0.3014  0.1358
  680MOL0     H89706   4.451   7.009  10.880 -0.2209 -0.8236 -0.6549
  680MOL0     H89707   4.599   6.814  11.034 -0.6982 -0.9802  1.9511
  680MOL0     H89708   4.563   6.947  11.143 -0.8944 -2.6229  0.6328
  680MOL0     H89709   4.655   7.107  10.974  1.8990  1.3962  3.5572
  680MOL0     H89710   4.771   7.014  11.061  0.8101  0.6967 -0.7076
  680MOL0     H89711   4.684   6.886  10.803 -0.2717  1.2760  0.7042
  680MOL0     H89712   4.836   6.890  10.879 -0.0921 -1.2704 -1.7047
  680MOL0     H89713   4.698   7.235  10.794  0.0263 -2.0502  3.1770
  680MOL0     H89714   4.937   7.350  10.503 -0.9739 -1.2923 -0.4164
  680MOL0     H89715   4.877   7.429  10.659 -0.7193  2.8198 -1.9950
  680MOL0     H89716   4.643   7.367  10.586  0.5984 -0.1874  1.4846
  680MOL0     H89717   4.712   7.323  10.422  1.7688 -1.4168  0.7655
  680MOL0     H89718   4.758   7.595  10.554 -3.2702 -1.0637  2.5577
  680MOL0     H89719   4.805   7.556  10.399 -0.4995  0.8232 -0.2026
  680MOL0     H89720   4.567   7.503  10.328  0.5657  0.0150 -1.6458
  680MOL0     H89721   4.594   7.672  10.364  1.1259 -0.5175  0.5364
  680MOL0     H89722   4.257   7.421  10.491  0.9924  0.0684 -1.8403
  680MOL0     H89723   4.055   7.514  10.451  0.2807 -0.2701  1.5572
  680MOL0     H89724   3.952   8.137  10.261 -0.7042 -0.3619  0.2174
  680MOL0     H89725   3.756   8.279  10.224 -0.4030 -0.3867 -2.3835
  680MOL0     H89726   3.415   8.127  10.138 -0.5174  0.0131  1.6365
  680MOL0     H89727   3.476   8.295  10.118 -0.3853 -1.6744 -1.2911
  680MOL0     H89728   3.228   8.287  10.125 -0.3609 -2.6808  0.7973
  680MOL0     H89729   3.298   8.373  10.267  1.4322  1.6728 -1.8780
  680MOL0     H89730   3.282   8.172  10.396 -3.6464 -1.3875  2.3008
  680MOL0     H89731   3.211   8.067  10.280 -0.6807  1.1178 -0.0791
  680MOL0     H89732   3.101   8.308  10.425  1.9304  1.5111 -1.7333
  680MOL0     H89733   3.024   8.257  10.267  3.1681 -1.7065 -2.2314
  680MOL0     H89734   3.056   8.091  10.529  1.8248  0.1505 -0.2856
  680MOL0     H89735   3.038   8.014  10.379  1.9097  1.7168 -2.4103
  680MOL0     H89736   2.836   8.140  10.325 -0.3825 -0.7436  1.0978
  680MOL0     H89737   2.840   8.227  10.474 -0.8714 -0.3569  0.5173
  680MOL0     H89738   2.822   7.935  10.424 -2.7561 -0.0712  0.7348
  680MOL0     H89739   2.835   7.999  10.591  1.0973  1.3550 -0.1915
  680MOL0     H89740   2.581   7.972  10.538 -0.9938  2.0199 -0.1577
  680MOL0     H89741   2.607   8.076  10.398  0.9741 -0.2144 -0.7172
  680MOL0     H89742   3.507   7.964  10.390  0.3626 -1.7465 -1.6008
  680MOL0     H89743   3.678   7.831  10.399 -1.6356  0.9927  3.0301
  680MOL0     H89744   4.196   7.915  10.459 -0.4017 -0.1936  0.8066
  680MOL0     H89745   4.428   7.817  10.508 -0.6380 -0.1048  1.3207
  680MOL0     H89746   3.820   7.047  10.732  0.6595 -0.2947 -1.6935
  680MOL0     H89747   3.581   7.045  10.684  1.8490 -0.2597  1.3771
  680MOL0     H89748   3.276   6.690  10.556  0.5077 -0.3198  0.4040
  680MOL0     H89749   3.071   6.653  10.448 -1.9765  0.0789 -0.5227
  680MOL0     H89750   2.878   6.552  10.485 -2.3790 -2.1079  3.3466
  680MOL0     H89751   2.829   6.659  10.347 -0.6448  0.0868 -0.1162
  680MOL0     H89752   2.676   6.491  10.401  1.3385  1.3458 -1.8508
  680MOL0     H89753   2.646   6.551  10.566  1.1404  0.2605  0.7656
  680MOL0     H89754   2.587   6.684  10.282 -0.9899  1.3341 -0.5471
  680MOL0     H89755   2.577   6.783  10.423 -0.8611 -0.3835  1.9001
  680MOL0     H89756   2.401   6.623  10.520 -0.3441 -1.2294 -0.1802
  680MOL0     H89757   2.346   6.737  10.395  1.0521 -0.3689 -1.4819
  680MOL0     H89758   2.279   6.396  10.179  1.3081 -2.4947  0.9380
  680MOL0     H89759   2.876   6.877  10.752  1.8422 -1.6348  3.2536
  680MOL0     H89760   3.091   6.934  10.856  1.5805  0.8726 -0.7856
  681MOL0     O89761   5.720   3.988   5.160 -0.1718 -0.7117 -0.3896
  681MOL0     C89762   5.785   3.908   5.224  0.0978  0.1562  1.0680
  681MOL0     O89763   5.733   3.791   5.258  0.3528  0.6080 -0.0892
  681MOL0     C89764   5.600   3.774   5.232  0.0164  0.6722  0.4341
  681MOL0     C89765   5.503   3.796   5.323 -0.5140 -0.2843 -0.2034
  681MOL0     C89766   5.367   3.772   5.289 -0.1862 -0.0967  0.6528
  681MOL0     C89767   5.337   3.730   5.161  0.2718 -0.3487  0.7160
  681MOL0     O89768   5.207   3.705   5.135 -0.2148  0.3371 -1.4099
  681MOL0     C89769   5.169   3.583   5.072 -0.1250  0.1005 -0.6128
  681MOL0     C89770   5.024   3.574   5.060  0.2609 -0.6885 -0.3146
  681MOL0     C89771   4.959   3.556   5.198  0.8292  0.2123  0.4236
  681MOL0     C89772   4.801   3.538   5.176 -0.9453  0.1334 -0.0982
  681MOL0     C89773   4.721   3.604   5.287  0.0752 -0.2109 -0.2243
  681MOL0     C89774   4.578   3.585   5.251 -0.2485  0.4876 -0.2279
  681MOL0     C89775   4.490   3.622   5.369  0.3411 -0.2223 -0.0345
  681MOL0     C89776   4.338   3.656   5.335 -0.1713 -0.4987  1.1052
  681MOL0     N89777   4.254   3.660   5.451  0.5099 -0.3875 -0.0243
  681MOL0     C89778   4.241   3.769   5.535  0.0692 -0.1029 -0.2508
  681MOL0     C89779   4.126   3.738   5.604  0.1209 -0.1374  0.4026
  681MOL0     C89780   4.052   3.830   5.701 -0.9158  0.2197 -0.0619
  681MOL0     C89781   3.905   3.788   5.711  0.2679  0.2084 -0.3708
  681MOL0     C89782   3.849   3.848   5.835  0.3325  0.5224  0.6527
  681MOL0     C89783   3.703   3.828   5.842 -0.3766  0.0809  0.6640
  681MOL0     O89784   3.638   3.891   5.957  0.1467 -0.2421  1.1333
  681MOL0     C89785   3.506   3.852   5.970 -1.2003  0.2838 -0.4546
  681MOL0     C89786   3.442   3.903   6.080 -0.1768  0.2955  0.1645
  681MOL0     C89787   3.311   3.876   6.122 -0.6126 -0.2280 -0.4030
  681MOL0     C89788   3.237   3.791   6.040 -0.4826  0.0583 -0.5638
  681MOL0     C89789   3.098   3.746   6.074  0.8270  0.0048  0.3596
  681MOL0     O89790   3.054   3.798   6.190 -0.2339  0.2188  0.2584
  681MOL0     C89791   2.919   3.794   6.203 -0.1189 -0.6842 -0.3101
  681MOL0     C89792   2.825   3.852   6.118 -0.4672 -0.6597 -1.1228
  681MOL0     C89793   2.685   3.856   6.155 -1.0007  0.7397 -1.0524
  681MOL0     C89794   2.638   3.777   6.259  0.0948  0.0154 -0.9788
  681MOL0     O89795   2.509   3.742   6.283  0.2194 -0.2093  0.6245
  681MOL0     C89796   2.412   3.820   6.210 -0.0153  0.8664  0.5860
  681MOL0     C89797   2.269   3.754   6.219  0.7558 -0.1186  0.3685
  681MOL0     C89798   2.152   3.835   6.167  1.4506 -0.9226 -0.1663
  681MOL0     C89799   2.148   3.892   6.019  0.7815 -0.8611  0.2080
  681MOL0     C89800   2.101   4.034   6.016 -0.5358  0.2688 -0.5029
  681MOL0     C89801   1.959   4.058   6.071 -0.8935 -0.2367  1.0572
  681MOL0     C89802   1.911   4.206   6.051 -0.2727 -1.5026 -0.4388
  681MOL0     C89803   1.768   4.227   6.013  0.6488  0.1313  0.0684
  681MOL0    Cl89804   1.717   4.402   6.001  0.0652  0.3225 -0.0479
  681MOL0     C89805   2.729   3.689   6.324  0.2248 -0.5047 -0.4904
  681MOL0     C89806   2.869   3.705   6.305  0.8533 -1.2698  0.3586
  681MOL0     O89807   3.039   3.660   6.007  0.0107 -0.4645  0.5864
  681MOL0     C89808   3.289   3.747   5.916 -0.1317  0.6007 -0.5507
  681MOL0     C89809   3.429   3.763   5.887 -0.1328 -0.0035 -0.5979
  681MOL0     N89810   4.089   3.607   5.583  0.0624 -0.3055 -0.0798
  681MOL0     N89811   4.153   3.568   5.475 -0.2656 -0.1190 -0.1752
  681MOL0     C89812   5.436   3.708   5.059  0.2671 -0.6640 -0.5363
  681MOL0     C89813   5.572   3.734   5.098  0.9127 -0.3160 -0.5764
  681MOL0     C89814   5.923   3.945   5.260 -0.1643 -0.2626 -1.3123
  681MOL0     C89815   6.021   3.848   5.273 -0.0267 -0.8416  0.1657
  681MOL0     C89816   6.162   3.886   5.295  1.2498  0.0953 -0.5388
  681MOL0     C89817   6.202   4.021   5.303  0.7014  0.3489 -0.4299
  681MOL0     O89818   6.325   4.071   5.331  0.1011  0.1519  0.0525
  681MOL0     C89819   6.430   3.983   5.324  0.0680  0.3264 -1.0246
  681MOL0     C89820   6.552   4.053   5.378  0.4277  1.0380  0.6310
  681MOL0     C89821   6.680   3.980   5.346 -0.4825  0.0502  0.3735
  681MOL0     C89822   6.798   4.075   5.351  0.0163 -0.0836 -0.9798
  681MOL0     C89823   6.928   4.022   5.329 -0.7811  0.6131 -0.4872
  681MOL0     C89824   7.040   3.980   5.311  0.0826  0.0386 -0.0690
  681MOL0     C89825   6.099   4.106   5.295 -0.5737 -1.1578 -0.8150
  681MOL0     C89826   5.967   4.077   5.266 -0.4067  0.0852 -0.5644
  681MOL0     H89827   5.538   3.829   5.420  1.3939  0.7981 -1.2014
  681MOL0     H89828   5.280   3.788   5.352 -2.7711 -1.5950 -2.2213
  681MOL0     H89829   5.208   3.498   5.128 -1.4386 -2.2113 -2.9981
  681MOL0     H89830   5.214   3.576   4.973 -0.4872 -2.3964 -0.6537
  681MOL0     H89831   5.004   3.484   5.002  2.5245  0.9173 -3.9253
  681MOL0     H89832   4.982   3.650   4.993 -1.5707 -1.3912 -0.0370
  681MOL0     H89833   4.981   3.646   5.256 -0.4255  0.8318 -0.0219
  681MOL0     H89834   5.006   3.465   5.237  1.6748  1.0702  1.4616
  681MOL0     H89835   4.776   3.601   5.091  0.9542  2.4842  0.9630
  681MOL0     H89836   4.774   3.436   5.145  1.5337 -0.2050 -1.3528
  681MOL0     H89837   4.755   3.708   5.288  0.1351 -0.1860 -2.1757
  681MOL0     H89838   4.739   3.561   5.386 -0.4159  2.5153  1.1380
  681MOL0     H89839   4.554   3.484   5.217  0.0520  0.3072  0.0862
  681MOL0     H89840   4.554   3.653   5.168 -1.6063  0.6480  0.2686
  681MOL0     H89841   4.505   3.553   5.452 -1.6721  1.1578  1.6000
  681MOL0     H89842   4.515   3.722   5.406 -1.6886  0.2822  0.0865
  681MOL0     H89843   4.318   3.568   5.272  1.9491  0.4850 -1.0761
  681MOL0     H89844   4.329   3.741   5.267  1.0737 -0.7555  0.5878
  681MOL0     H89845   4.300   3.860   5.539  0.8604 -0.6746  1.9228
  681MOL0     H89846   4.072   3.937   5.684  0.4722  0.0241  0.2351
  681MOL0     H89847   4.107   3.811   5.793 -0.5899  1.3440 -0.0099
  681MOL0     H89848   3.893   3.680   5.713 -0.1156  0.1502 -2.5423
  681MOL0     H89849   3.856   3.834   5.624 -0.5155  1.3771  0.6509
  681MOL0     H89850   3.888   3.790   5.919  1.7555 -1.3195 -1.1978
  681MOL0     H89851   3.875   3.954   5.833 -0.3372  0.6853 -0.6172
  681MOL0     H89852   3.689   3.720   5.838 -0.6594 -0.1065  4.0936
  681MOL0     H89853   3.662   3.877   5.753 -0.4135  0.8360  1.0848
  681MOL0     H89854   3.501   3.970   6.143 -0.7268  1.5112 -0.5656
  681MOL0     H89855   3.271   3.920   6.213 -0.3162  2.5342 -1.4993
  681MOL0     H89856   2.870   3.921   6.047  0.5013  2.3587  2.1648
  681MOL0     H89857   2.621   3.893   6.076 -1.6308 -1.7500 -1.7924
  681MOL0     H89858   2.434   3.811   6.103 -0.5514 -2.5062  0.6392
  681MOL0     H89859   2.409   3.920   6.254 -0.2251  0.7916  0.7415
  681MOL0     H89860   2.248   3.727   6.323  3.0015 -1.6862  0.4891
  681MOL0     H89861   2.270   3.656   6.170  0.4075 -1.7481  3.3753
  681MOL0     H89862   2.144   3.922   6.232  0.5749  0.4445 -2.0375
  681MOL0     H89863   2.069   3.764   6.180 -0.4484  1.3741  0.9647
  681MOL0     H89864   2.246   3.880   5.972  0.1622 -2.1352 -0.8676
  681MOL0     H89865   2.076   3.831   5.963 -2.7514  3.2113 -0.1825
  681MOL0     H89866   2.106   4.063   5.910  1.5276  1.4272 -0.1433
  681MOL0     H89867   2.180   4.093   6.063 -1.5122  2.2119 -1.1940
  681MOL0     H89868   1.959   4.022   6.174  1.1242 -0.6696  0.9361
  681MOL0     H89869   1.893   3.992   6.013 -0.9510 -0.9327  1.8891
  681MOL0     H89870   1.931   4.252   6.148  2.8230 -0.5167 -1.4137
  681MOL0     H89871   1.976   4.250   5.975 -2.5638  1.7443 -0.7219
  681MOL0     H89872   1.699   4.189   6.089 -1.9174  1.1399 -1.6165
  681MOL0     H89873   1.740   4.176   5.920 -0.6609  1.7779 -0.4918
  681MOL0     H89874   2.692   3.618   6.397 -0.8936 -0.3635 -0.9081
  681MOL0     H89875   2.936   3.650   6.370  0.6254  0.5623  2.2270
  681MOL0     H89876   3.243   3.683   5.841 -0.5104  0.5918 -0.3114
  681MOL0     H89877   3.461   3.719   5.793 -1.4453 -0.1993 -0.9672
  681MOL0     H89878   5.408   3.689   4.956  0.6849 -0.3722 -0.7071
  681MOL0     H89879   5.652   3.724   5.025  1.6568 -0.8377  0.2911
  681MOL0     H89880   5.998   3.744   5.259 -0.4444 -0.8938  1.1602
  681MOL0     H89881   6.216   3.792   5.293 -2.3398 -2.1969 -1.0105
  681MOL0     H89882   6.450   3.962   5.219  1.0459 -2.0980 -0.4279
  681MOL0     H89883   6.408   3.888   5.373 -3.0478  0.8688 -1.1610
  681MOL0     H89884   6.557   4.147   5.323  0.9119 -0.7942 -2.6990
  681MOL0     H89885   6.541   4.082   5.483 -0.6516  1.4202  0.4307
  681MOL0     H89886   6.680   3.935   5.246  2.0043 -1.0902  0.8312
  681MOL0     H89887   6.690   3.905   5.424 -2.7081  1.8136  2.5130
  681MOL0     H89888   6.785   4.162   5.285  1.8514  1.7255  0.9067
  681MOL0     H89889   6.815   4.125   5.447  1.8442  2.2809 -2.4141
  681MOL0     H89890   7.135   3.948   5.274 -0.6502 -1.7539 -0.4947
  681MOL0     H89891   6.128   4.202   5.337 -1.0436 -1.2859 -0.1819
  681MOL0     H89892   5.893   4.155   5.257  1.7905  2.1275 -2.2804
  682MOL0     O89893   8.118   8.127   5.405 -0.3092 -0.4731  0.1048
  682MOL0     C89894   8.137   8.128   5.527  0.9745 -0.6147  0.8322
  682MOL0     O89895   8.035   8.123   5.621 -0.0837 -0.3928 -0.4456
  682MOL0     C89896   7.916   8.089   5.577  0.5423  1.7735 -0.2300
  682MOL0     C89897   7.851   7.987   5.649  0.8774 -0.2571 -1.0207
  682MOL0     C89898   7.721   7.951   5.614  0.0468  0.7022 -0.6938
  682MOL0     C89899   7.657   8.021   5.516 -0.2825  0.3671 -0.3576
  682MOL0     O89900   7.528   7.976   5.505  0.5035 -0.4915  0.3737
  682MOL0     C89901   7.465   8.015   5.380  1.4380 -0.3125 -0.7450
  682MOL0     C89902   7.318   7.960   5.374 -0.3644 -0.1408  0.5754
  682MOL0     C89903   7.253   7.983   5.241 -0.0643  0.1866 -0.3887
  682MOL0     C89904   7.100   7.952   5.248  0.0673  0.4244  0.3473
  682MOL0     C89905   7.030   8.025   5.137 -0.1646  0.2438 -0.1013
  682MOL0     C89906   7.016   7.949   5.015  0.3098  0.3836 -0.8921
  682MOL0     C89907   6.968   8.041   4.896 -0.1569 -0.6584 -0.2533
  682MOL0     C89908   6.989   7.984   4.754  0.4055  0.1610  0.7245
  682MOL0     N89909   6.897   7.869   4.732 -0.8512  0.3830 -0.0891
  682MOL0     C89910   6.808   7.861   4.628  0.5575  1.3616  0.0643
  682MOL0     C89911   6.755   7.734   4.640 -0.2832  0.7847  0.3413
  682MOL0     C89912   6.653   7.685   4.537 -0.0717  0.4938 -0.4062
  682MOL0     C89913   6.529   7.757   4.564  0.3094 -0.2189 -0.9205
  682MOL0     C89914   6.456   7.687   4.684 -0.8506 -0.5234 -0.2479
  682MOL0     C89915   6.306   7.692   4.648  0.4427  0.5536  0.1080
  682MOL0     O89916   6.279   7.586   4.545 -0.7424  0.1810 -0.5036
  682MOL0     C89917   6.151   7.559   4.516  0.5445  1.1444 -0.4288
  682MOL0     C89918   6.121   7.424   4.492 -0.0360 -0.2036  1.2108
  682MOL0     C89919   5.991   7.377   4.473 -0.1171 -0.2398  0.1077
  682MOL0     C89920   5.884   7.472   4.473 -0.1161 -0.0519 -0.1333
  682MOL0     C89921   5.746   7.440   4.426  0.3871 -0.7787 -0.6771
  682MOL0     O89922   5.729   7.312   4.388 -0.4220 -0.3241 -0.4025
  682MOL0     C89923   5.623   7.268   4.312 -0.1949  0.0755 -0.1863
  682MOL0     C89924   5.559   7.349   4.223 -0.0214 -0.0708  0.1862
  682MOL0     C89925   5.445   7.301   4.156 -0.5554  1.2188  0.7879
  682MOL0     C89926   5.395   7.177   4.172 -0.1304  0.7007  0.3307
  682MOL0     O89927   5.299   7.119   4.094  0.6248 -0.3620  0.2747
  682MOL0     C89928   5.243   7.205   3.986  0.1205  0.3422  0.1481
  682MOL0     C89929   5.138   7.124   3.910 -0.6858 -0.9736  0.5639
  682MOL0     C89930   5.042   7.214   3.846  0.3084  0.3823  0.4608
  682MOL0     C89931   4.959   7.165   3.725 -0.1791  0.3970  0.3176
  682MOL0     C89932   4.850   7.078   3.771 -0.2171 -0.2362 -0.4476
  682MOL0     C89933   4.770   7.012   3.657 -0.8666  0.1087  0.2009
  682MOL0     C89934   4.725   7.095   3.534  0.2597 -1.1652  0.0292
  682MOL0     C89935   4.662   7.003   3.434  0.7245 -0.8677 -0.7457
  682MOL0    Cl89936   4.494   6.981   3.494 -0.2119 -0.0997  0.2499
  682MOL0     C89937   5.455   7.092   4.253 -0.4312 -1.1645  0.0448
  682MOL0     C89938   5.572   7.139   4.325  0.3947  0.2882  0.6894
  682MOL0     O89939   5.664   7.532   4.411 -0.2131 -0.0614  0.4596
  682MOL0     C89940   5.914   7.611   4.505 -0.2137  0.7250 -1.0124
  682MOL0     C89941   6.048   7.655   4.531 -0.1984 -0.2854  0.2737
  682MOL0     N89942   6.802   7.680   4.761 -0.2579 -0.3463  0.1286
  682MOL0     N89943   6.882   7.763   4.815 -0.5791  0.9530  0.3484
  682MOL0     C89944   7.714   8.126   5.447  0.2230  1.3515  0.3574
  682MOL0     C89945   7.846   8.161   5.476  0.4660 -0.6021  0.4318
  682MOL0     C89946   8.275   8.123   5.569  0.8333 -0.7966 -0.9652
  682MOL0     C89947   8.382   8.110   5.475 -0.8048 -0.0384  0.0422
  682MOL0     C89948   8.515   8.105   5.514 -0.7270 -0.1606  0.9074
  682MOL0     C89949   8.554   8.132   5.647 -0.0514  0.7237 -0.5457
  682MOL0     O89950   8.681   8.147   5.688 -0.1001 -0.1215  0.5260
  682MOL0     C89951   8.787   8.167   5.584  0.6870 -0.2050 -0.2196
  682MOL0     C89952   8.906   8.237   5.660  0.9604  0.3227 -0.5060
  682MOL0     C89953   9.033   8.194   5.593  0.3667  0.1410  0.2303
  682MOL0     C89954   9.154   8.169   5.698  0.0970  0.5711 -0.7525
  682MOL0     C89955   9.281   8.134   5.631 -0.3991  0.2705 -0.2944
  682MOL0     C89956   9.370   8.091   5.569 -0.1597 -0.1689 -0.3450
  682MOL0     C89957   8.453   8.137   5.739  0.0712  0.3724  0.3086
  682MOL0     C89958   8.316   8.125   5.703 -0.1781  0.6475 -0.1466
  682MOL0     H89959   7.898   7.943   5.736  2.5105  1.7057 -0.8243
  682MOL0     H89960   7.664   7.875   5.666  0.6934 -0.8620 -2.1859
  682MOL0     H89961   7.521   7.973   5.296  1.9828 -2.1777  0.4857
  682MOL0     H89962   7.451   8.124   5.377 -5.3092 -0.6982  0.7543
  682MOL0     H89963   7.247   8.003   5.445  1.5877  2.6233  1.0233
  682MOL0     H89964   7.331   7.852   5.385 -3.1510 -0.6968 -0.7787
  682MOL0     H89965   7.306   7.919   5.169  1.8975  0.1359  1.0358
  682MOL0     H89966   7.262   8.086   5.207  0.4343  0.0830 -0.5834
  682MOL0     H89967   7.084   7.844   5.241  0.1585  0.4690 -0.5582
  682MOL0     H89968   7.057   7.977   5.346 -4.4158 -1.1796 -0.9830
  682MOL0     H89969   7.082   8.121   5.124  0.4574  0.5300  3.3902
  682MOL0     H89970   6.925   8.040   5.166  0.2283  0.4287  1.3143
  682MOL0     H89971   6.944   7.868   5.028  1.1214  0.0449  2.3097
  682MOL0     H89972   7.112   7.898   5.005  0.6286  0.9349 -0.7010
  682MOL0     H89973   6.870   8.087   4.910 -0.0404  0.3731 -2.5103
  682MOL0     H89974   7.037   8.125   4.901 -0.6616 -0.0943 -2.2043
  682MOL0     H89975   7.089   7.943   4.737 -1.1808 -2.6055 -3.2850
  682MOL0     H89976   6.969   8.062   4.679 -1.3569  0.0027  0.9950
  682MOL0     H89977   6.787   7.928   4.546 -0.1975  1.3607  0.2540
  682MOL0     H89978   6.641   7.577   4.548 -0.9357  0.5947 -0.3386
  682MOL0     H89979   6.688   7.713   4.437 -0.1404  2.4715  0.0849
  682MOL0     H89980   6.464   7.743   4.477  1.9887  1.8584 -2.6286
  682MOL0     H89981   6.541   7.864   4.582 -2.4111  0.1802 -1.0054
  682MOL0     H89982   6.488   7.583   4.694  2.5363  0.3837 -0.2031
  682MOL0     H89983   6.477   7.735   4.781 -0.4525 -2.2493  0.5704
  682MOL0     H89984   6.281   7.794   4.617 -3.5791  0.0834  1.2140
  682MOL0     H89985   6.246   7.664   4.736 -1.7618 -1.1583 -1.8193
  682MOL0     H89986   6.208   7.359   4.497 -0.9716 -1.4262  3.0066
  682MOL0     H89987   5.982   7.269   4.466  1.7751 -0.3960 -0.5999
  682MOL0     H89988   5.578   7.451   4.191 -2.2166  0.5356  0.6541
  682MOL0     H89989   5.394   7.361   4.081 -0.7538 -2.7129 -2.5873
  682MOL0     H89990   5.331   7.238   3.930  0.7626  1.8199  1.9163
  682MOL0     H89991   5.200   7.295   4.032  3.1460  0.6684  2.6713
  682MOL0     H89992   5.075   7.062   3.974 -4.5732 -0.1371 -2.1018
  682MOL0     H89993   5.191   7.055   3.844 -1.6431 -0.3194 -0.9327
  682MOL0     H89994   5.082   7.309   3.811 -1.6949  1.2228  0.3609
  682MOL0     H89995   4.980   7.237   3.932  0.7248 -1.6877  1.3909
  682MOL0     H89996   4.907   7.247   3.675 -0.1729 -1.0361 -2.1880
  682MOL0     H89997   5.011   7.118   3.642 -0.8788 -0.7324  0.4943
  682MOL0     H89998   4.775   7.135   3.828 -1.2779 -1.4859 -0.5274
  682MOL0     H89999   4.889   7.004   3.842  3.7727 -0.0385 -2.1820
  682MOL0     H90000   4.687   6.967   3.713  0.7840 -1.7506  1.2910
  682MOL0     H90001   4.838   6.933   3.623 -0.7906  1.0808 -2.0395
  682MOL0     H90002   4.655   7.169   3.573 -0.2287 -1.7747  0.3223
  682MOL0     H90003   4.817   7.126   3.484 -0.3011 -0.6296 -0.6975
  682MOL0     H90004   4.723   6.913   3.432  1.9961 -0.0499  0.0098
  682MOL0     H90005   4.662   7.048   3.334 -2.1424 -1.7414 -1.2307
  682MOL0     H90006   5.416   6.992   4.264 -2.3699 -0.6454 -1.4379
  682MOL0     H90007   5.624   7.071   4.391  1.9284 -0.8641 -1.5767
  682MOL0     H90008   5.832   7.683   4.497  1.6599  3.2016  0.5298
  682MOL0     H90009   6.060   7.758   4.560 -0.6788  0.5507 -2.2275
  682MOL0     H90010   7.657   8.171   5.366 -0.7391  2.9903  1.8700
  682MOL0     H90011   7.899   8.236   5.419  0.2748  1.6615  3.0019
  682MOL0     H90012   8.358   8.105   5.369  2.0624 -1.3039 -0.6408
  682MOL0     H90013   8.586   8.097   5.432 -0.9955 -1.1702  0.7509
  682MOL0     H90014   8.755   8.233   5.503  1.1131 -0.6088 -0.7234
  682MOL0     H90015   8.816   8.069   5.545  3.9502  0.4777  0.2046
  682MOL0     H90016   8.899   8.346   5.651  2.1799  0.3692 -1.0975
  682MOL0     H90017   8.897   8.215   5.767  0.6865 -0.4157 -0.6777
  682MOL0     H90018   9.066   8.257   5.509  1.9253 -0.5170  0.3187
  682MOL0     H90019   9.029   8.095   5.547 -2.5333  0.5082 -0.5089
  682MOL0     H90020   9.175   8.268   5.741  2.6217  0.4929 -1.6380
  682MOL0     H90021   9.138   8.098   5.779  0.0216  0.4362 -0.8858
  682MOL0     H90022   9.446   8.036   5.517  0.4912 -0.5285  0.9463
  682MOL0     H90023   8.475   8.149   5.845 -0.5162 -3.8986  1.0942
  682MOL0     H90024   8.242   8.143   5.780  0.5851 -0.0764  0.7778
  683MOL0     O90025   7.630   4.580   8.001  0.4627 -0.3160  0.2557
  683MOL0     C90026   7.623   4.570   8.126 -0.2516 -0.3279 -0.0907
  683MOL0     O90027   7.519   4.593   8.202  0.1991 -1.0864 -0.0029
  683MOL0     C90028   7.396   4.625   8.174 -0.3909 -0.5386 -0.3037
  683MOL0     C90029   7.317   4.688   8.276  0.9655  0.5552  0.6578
  683MOL0     C90030   7.179   4.704   8.267 -0.9274  0.0801 -0.0133
  683MOL0     C90031   7.120   4.659   8.151 -0.1303 -1.0438 -0.1706
  683MOL0     O90032   6.991   4.660   8.116 -0.2062 -0.3826 -0.2307
  683MOL0     C90033   6.913   4.726   8.207 -0.4276 -0.1132  0.4352
  683MOL0     C90034   6.769   4.747   8.159 -0.0020  0.3517 -0.1266
  683MOL0     C90035   6.691   4.861   8.241 -0.3206  1.0826 -0.1451
  683MOL0     C90036   6.546   4.881   8.169 -0.4015 -0.1854  0.3274
  683MOL0     C90037   6.463   4.968   8.269  0.1484  0.0380  0.7303
  683MOL0     C90038   6.310   4.974   8.214 -0.3585 -0.2971 -0.5085
  683MOL0     C90039   6.229   5.043   8.315  0.0947 -0.4976 -0.5127
  683MOL0     C90040   6.111   5.107   8.249  0.4737 -0.4947  1.0192
  683MOL0     N90041   6.002   5.155   8.341 -0.2749 -0.2490 -0.3905
  683MOL0     C90042   5.953   5.070   8.431 -0.2364  0.0650 -0.0944
  683MOL0     C90043   5.874   5.154   8.504 -0.1733  0.3705 -0.9457
  683MOL0     C90044   5.794   5.116   8.629  0.3596  0.4570  0.6210
  683MOL0     C90045   5.850   5.166   8.754 -0.3930  0.2255 -0.6097
  683MOL0     C90046   5.992   5.124   8.761 -0.0956  0.3340 -0.4681
  683MOL0     C90047   6.031   4.969   8.757  0.2560 -0.4803  0.3224
  683MOL0     O90048   6.162   4.957   8.708 -0.2514 -0.3451  0.4631
  683MOL0     C90049   6.279   4.966   8.779  1.0831  1.0457 -1.0062
  683MOL0     C90050   6.285   4.985   8.922  0.9095 -0.2274 -0.2582
  683MOL0     C90051   6.405   4.970   8.989  0.7151  0.0023 -0.0525
  683MOL0     C90052   6.522   4.932   8.922 -0.7740  1.0772 -0.0475
  683MOL0     C90053   6.643   4.902   8.998  0.8727  0.7095 -0.1503
  683MOL0     O90054   6.757   4.885   8.926  0.1396  0.0493  0.4978
  683MOL0     C90055   6.869   4.899   9.001  0.3789 -0.1913  0.6486
  683MOL0     C90056   6.955   4.999   8.962 -0.0067 -0.1296  0.4488
  683MOL0     C90057   7.084   5.013   9.029  0.3084  1.2587 -0.7013
  683MOL0     C90058   7.112   4.928   9.142  0.6447  0.3995 -0.2090
  683MOL0     O90059   7.243   4.934   9.185  0.3830  0.1923 -0.2700
  683MOL0     C90060   7.251   5.038   9.286  0.0293 -0.4091  0.6910
  683MOL0     C90061   7.306   4.975   9.406  0.1213  0.8136  0.8646
  683MOL0     C90062   7.337   5.066   9.523  0.0040  0.4590 -0.4967
  683MOL0     C90063   7.449   5.163   9.491  0.6530 -0.2237  0.0521
  683MOL0     C90064   7.511   5.224   9.618 -1.1485  0.5380  0.2338
  683MOL0     C90065   7.399   5.295   9.698  1.0575 -0.5723 -0.5820
  683MOL0     C90066   7.462   5.389   9.806  0.1570 -0.1852  0.4316
  683MOL0     C90067   7.362   5.475   9.892 -0.0651  0.2231  0.1339
  683MOL0    Cl90068   7.306   5.632   9.819  0.1087  0.4476 -0.3012
  683MOL0     C90069   7.023   4.827   9.169 -0.4571 -0.9393  0.0834
  683MOL0     C90070   6.899   4.821   9.109  0.0696 -0.6731  0.4248
  683MOL0     O90071   6.632   4.888   9.120  0.0255  0.4583 -0.1118
  683MOL0     C90072   6.517   4.927   8.779  0.3237  0.1020 -0.3252
  683MOL0     C90073   6.395   4.940   8.710 -0.0230  0.4270  0.7591
  683MOL0     N90074   5.883   5.283   8.451  0.0167 -0.6890 -0.4642
  683MOL0     N90075   5.963   5.281   8.357  0.7522 -0.5719  0.6471
  683MOL0     C90076   7.190   4.587   8.051  0.5291  0.5587  0.4563
  683MOL0     C90077   7.328   4.569   8.068  0.1742 -0.1636 -1.0169
  683MOL0     C90078   7.746   4.529   8.197 -0.4854 -0.0345  0.1781
  683MOL0     C90079   7.865   4.496   8.131  0.2305 -0.3451 -0.3005
  683MOL0     C90080   7.964   4.430   8.210 -0.7603 -0.3716  0.4827
  683MOL0     C90081   7.952   4.409   8.347 -0.9759 -0.2714 -1.1078
  683MOL0     O90082   8.058   4.353   8.408 -0.4063 -0.4303 -0.0560
  683MOL0     C90083   8.083   4.364   8.550 -0.8380 -0.1923  0.3434
  683MOL0     C90084   8.043   4.232   8.622  0.0268 -0.3563 -0.0501
  683MOL0     C90085   8.075   4.106   8.538  0.6676  0.3262  0.5781
  683MOL0     C90086   8.023   3.977   8.597  0.2484 -0.2362 -0.5624
  683MOL0     C90087   8.046   3.950   8.737 -1.0987 -0.0130 -0.1797
  683MOL0     C90088   8.058   3.941   8.856  1.1749  1.7711 -0.2737
  683MOL0     C90089   7.840   4.447   8.420 -0.5462 -0.1044 -0.5735
  683MOL0     C90090   7.737   4.502   8.338 -0.1386 -0.3512  0.1344
  683MOL0     H90091   7.366   4.716   8.369 -0.1728  0.6766  1.2386
  683MOL0     H90092   7.134   4.739   8.359  1.5528 -0.8477  1.6739
  683MOL0     H90093   6.951   4.828   8.214 -1.9604  0.5852 -0.9196
  683MOL0     H90094   6.916   4.665   8.298 -2.3144  0.5619  1.0028
  683MOL0     H90095   6.713   4.655   8.171  0.4813  0.1618  0.7976
  683MOL0     H90096   6.769   4.774   8.053 -1.2028 -1.1739 -0.5398
  683MOL0     H90097   6.748   4.954   8.237 -0.4718  1.3071  2.0796
  683MOL0     H90098   6.683   4.833   8.346  1.7003 -1.6235 -0.5731
  683MOL0     H90099   6.565   4.934   8.076  4.4547  0.7242  1.5613
  683MOL0     H90100   6.500   4.784   8.152 -1.0403  0.1089  0.3492
  683MOL0     H90101   6.505   5.068   8.284 -1.5457  0.6727  1.4947
  683MOL0     H90102   6.463   4.918   8.367  0.6802 -0.4531  0.4830
  683MOL0     H90103   6.272   4.874   8.192 -1.1210 -0.1475  0.0839
  683MOL0     H90104   6.310   5.021   8.115  3.3428 -3.1412 -2.0574
  683MOL0     H90105   6.203   4.974   8.396  2.4026  0.1382  0.8605
  683MOL0     H90106   6.291   5.117   8.366 -1.8776 -1.0631  3.0475
  683MOL0     H90107   6.068   5.030   8.184  0.3895  0.3095  0.0969
  683MOL0     H90108   6.150   5.188   8.186 -3.2513 -0.3292 -1.3322
  683MOL0     H90109   5.962   4.962   8.435  0.9123 -0.0433 -3.2483
  683MOL0     H90110   5.781   5.008   8.635  1.4180  0.1734 -1.4226
  683MOL0     H90111   5.692   5.154   8.617  0.1667 -0.4003 -0.5365
  683MOL0     H90112   5.792   5.119   8.835  0.0620 -3.8350 -2.3784
  683MOL0     H90113   5.841   5.274   8.769  1.3336  0.0838  2.0356
  683MOL0     H90114   6.062   5.176   8.695  2.0340 -0.0808  1.3590
  683MOL0     H90115   6.030   5.155   8.859  0.8528 -1.8166 -0.0984
  683MOL0     H90116   5.960   4.919   8.690 -1.5306 -1.5279  2.8540
  683MOL0     H90117   6.024   4.914   8.851  1.6148 -3.4908 -1.1907
  683MOL0     H90118   6.198   4.999   8.985  0.2711  0.7471 -1.3331
  683MOL0     H90119   6.394   4.992   9.095  0.3988  1.5425 -0.3678
  683MOL0     H90120   6.934   5.055   8.872 -0.2886  1.7708  1.6537
  683MOL0     H90121   7.161   5.086   9.003 -0.4168  3.8810  3.5374
  683MOL0     H90122   7.156   5.086   9.311  1.0785  1.8878  0.5699
  683MOL0     H90123   7.312   5.123   9.253  0.4912 -1.7457 -2.1359
  683MOL0     H90124   7.394   4.917   9.377  0.7800  1.0483  2.2804
  683MOL0     H90125   7.234   4.900   9.438  0.3702 -0.1422 -0.7263
  683MOL0     H90126   7.352   5.009   9.614 -1.5692  0.7129 -0.0532
  683MOL0     H90127   7.251   5.132   9.535 -0.7073 -0.0988 -2.1615
  683MOL0     H90128   7.522   5.102   9.438  0.3315 -2.0060  1.5713
  683MOL0     H90129   7.410   5.243   9.427 -2.2455 -1.6833 -0.1716
  683MOL0     H90130   7.587   5.298   9.594 -2.2272  1.3465 -0.7674
  683MOL0     H90131   7.565   5.146   9.673 -0.0798  1.6434  0.7959
  683MOL0     H90132   7.339   5.228   9.760 -1.6286  0.0828 -2.2886
  683MOL0     H90133   7.329   5.345   9.630  2.5289 -1.1378 -2.6013
  683MOL0     H90134   7.525   5.326   9.870  1.3125  1.3970  0.9229
  683MOL0     H90135   7.529   5.454   9.749 -0.2634 -0.1317 -0.0115
  683MOL0     H90136   7.414   5.504   9.984 -2.0953 -0.7337  1.6621
  683MOL0     H90137   7.277   5.409   9.911  0.2069 -0.2164 -0.1545
  683MOL0     H90138   7.043   4.746   9.239 -2.5229 -0.6581  1.0439
  683MOL0     H90139   6.838   4.733   9.130 -1.3155 -0.7595 -3.2236
  683MOL0     H90140   6.604   4.913   8.716 -1.0729 -1.9242 -1.9207
  683MOL0     H90141   6.390   4.935   8.601 -2.5829 -0.3282  0.8316
  683MOL0     H90142   7.143   4.557   7.958  0.0203 -0.4619  1.0253
  683MOL0     H90143   7.383   4.511   7.993  0.7545 -0.6791 -0.2085
  683MOL0     H90144   7.872   4.491   8.023  0.7442  0.4432 -0.3107
  683MOL0     H90145   8.050   4.410   8.147 -0.5561  0.1592  0.5899
  683MOL0     H90146   8.038   4.453   8.593 -1.4048 -0.2796 -0.0567
  683MOL0     H90147   8.189   4.377   8.572 -0.8203  1.5958 -0.5487
  683MOL0     H90148   8.097   4.217   8.716  0.5777 -0.6751 -0.4057
  683MOL0     H90149   7.937   4.228   8.647 -0.0310  0.2744 -0.1749
  683MOL0     H90150   8.180   4.099   8.510  0.0039  1.2825 -2.5082
  683MOL0     H90151   8.026   4.121   8.441 -0.3157 -0.1797  0.9832
  683MOL0     H90152   7.919   3.965   8.566 -0.2790 -0.2080  1.1098
  683MOL0     H90153   8.087   3.904   8.545  0.2849  0.7168 -1.8919
  683MOL0     H90154   8.084   3.929   8.959  0.5905 -1.3971 -0.3766
  683MOL0     H90155   7.833   4.425   8.526 -2.7463 -1.5521 -0.9570
  683MOL0     H90156   7.637   4.516   8.378 -1.3238 -2.3254 -1.9261
  684MOL0     O90157   8.616  11.195  10.172 -0.8765  0.7379 -0.4207
  684MOL0     C90158   8.690  11.133  10.248  0.3527  0.7610  0.0447
  684MOL0     O90159   8.649  11.054  10.353  0.1021 -0.0313  0.2336
  684MOL0     C90160   8.514  11.018  10.356 -0.4431  0.7911  0.6264
  684MOL0     C90161   8.476  10.901  10.295 -1.2080 -0.2966 -0.3568
  684MOL0     C90162   8.343  10.861  10.302  0.5579 -0.6864  0.4035
  684MOL0     C90163   8.247  10.946  10.361  1.0844 -0.7946  0.2240
  684MOL0     O90164   8.114  10.899  10.351 -0.1078  0.1262  0.1402
  684MOL0     C90165   8.025  10.986  10.270  0.1424  0.2126  0.6796
  684MOL0     C90166   7.955  10.905  10.161  0.6435 -0.5668  0.6202
  684MOL0     C90167   7.849  10.809  10.219 -0.2888 -0.1170 -0.6719
  684MOL0     C90168   7.767  10.735  10.118 -0.1671 -0.0649 -0.1043
  684MOL0     C90169   7.644  10.669  10.182 -0.3486  0.4361 -0.2554
  684MOL0     C90170   7.542  10.599  10.081 -0.3257 -0.0128  0.4295
  684MOL0     C90171   7.431  10.533  10.160  0.3493 -0.7965 -0.5724
  684MOL0     C90172   7.329  10.630  10.218 -0.7731  0.7702  0.9960
  684MOL0     N90173   7.192  10.578  10.221 -0.7846  0.8316  0.1682
  684MOL0     C90174   7.104  10.625  10.313 -0.0300 -0.2491 -0.0422
  684MOL0     C90175   6.990  10.558  10.291  0.2385 -0.1623  0.2386
  684MOL0     C90176   6.866  10.569  10.384 -0.7213 -0.5399  0.1780
  684MOL0     C90177   6.751  10.480  10.331 -0.5721 -0.4584  0.1301
  684MOL0     C90178   6.631  10.488  10.426 -0.2765  0.3589  0.1287
  684MOL0     C90179   6.518  10.404  10.386  0.5345  0.1250 -0.1228
  684MOL0     O90180   6.431  10.477  10.295 -0.6297 -0.1412 -0.1895
  684MOL0     C90181   6.296  10.461  10.306  0.7396 -0.6672 -0.0906
  684MOL0     C90182   6.221  10.484  10.188  0.8263 -0.2084  0.7735
  684MOL0     C90183   6.084  10.462  10.178 -0.8177  0.7041  0.0441
  684MOL0     C90184   6.016  10.418  10.289  0.4479  0.0427  0.5220
  684MOL0     C90185   5.872  10.386  10.284  0.0248  0.5367 -0.4385
  684MOL0     O90186   5.818  10.371  10.161 -0.4066 -0.0420  0.1364
  684MOL0     C90187   5.682  10.342  10.143  0.0573 -0.1470 -0.1942
  684MOL0     C90188   5.580  10.391  10.215  0.4972 -0.6865 -1.0199
  684MOL0     C90189   5.447  10.362  10.180  0.4719  0.2972 -0.0006
  684MOL0     C90190   5.415  10.277  10.062  0.1698  0.9530  0.9463
  684MOL0     O90191   5.291  10.261  10.008 -0.8889 -0.0124 -0.2645
  684MOL0     C90192   5.177  10.243  10.093  0.1343 -0.3855 -0.2749
  684MOL0     C90193   5.045  10.240  10.021  0.2773  0.4846  0.2007
  684MOL0     C90194   4.939  10.268  10.132 -0.7994 -0.3323 -0.2853
  684MOL0     C90195   4.800  10.252  10.063 -0.5838 -0.1156 -0.6097
  684MOL0     C90196   4.677  10.276  10.138 -0.7723 -0.1317  0.0970
  684MOL0     C90197   4.641  10.172  10.252  1.2879 -0.3545 -0.3602
  684MOL0     C90198   4.492  10.192  10.307  0.7446  0.2985  0.2587
  684MOL0     C90199   4.390  10.155  10.207  0.3339 -0.1094  0.2138
  684MOL0    Cl90200   4.225  10.162  10.261  0.2903  0.0660 -0.0966
  684MOL0     C90201   5.521  10.223   9.994  0.5280 -0.4732 -0.3559
  684MOL0     C90202   5.653  10.253  10.037  0.1487 -0.1490 -0.1078
  684MOL0     O90203   5.814  10.387  10.392  0.1698 -0.1410 -0.2419
  684MOL0     C90204   6.090  10.393  10.409 -0.7897  0.1891 -0.2738
  684MOL0     C90205   6.223  10.419  10.419 -0.5211 -0.1689  0.0594
  684MOL0     N90206   7.012  10.474  10.191  0.0382  0.1542  0.1802
  684MOL0     N90207   7.138  10.477  10.148 -0.5476  0.0672  0.5075
  684MOL0     C90208   8.297  11.068  10.407  0.9314  0.0517 -0.0565
  684MOL0     C90209   8.425  11.106  10.410  0.2517  0.5807  0.1459
  684MOL0     C90210   8.832  11.167  10.239  0.4310  0.7810  0.5506
  684MOL0     C90211   8.919  11.157  10.349  0.0520  0.7278  0.0552
  684MOL0     C90212   9.061  11.189  10.337  0.4955 -0.4277 -0.5547
  684MOL0     C90213   9.114  11.235  10.216 -0.4907  0.3164 -0.2149
  684MOL0     O90214   9.238  11.285  10.196 -0.4383  0.0568 -0.1083
  684MOL0     C90215   9.285  11.389  10.288 -0.1348 -0.5266 -0.4661
  684MOL0     C90216   9.192  11.515  10.274 -0.0201  0.3660  0.2780
  684MOL0     C90217   9.205  11.604  10.396 -0.0388  1.6020 -0.2333
  684MOL0     C90218   9.101  11.711  10.401  0.1841 -1.5156  0.2632
  684MOL0     C90219   9.130  11.809  10.506  0.4116 -0.1113 -0.3028
  684MOL0     C90220   9.146  11.878  10.604 -0.2575 -0.7323 -0.8077
  684MOL0     C90221   9.027  11.254  10.116  0.2644  0.5139  0.4045
  684MOL0     C90222   8.889  11.222  10.123 -0.4819  0.6790 -0.3579
  684MOL0     H90223   8.559  10.838  10.263  1.2252  1.6476  1.6012
  684MOL0     H90224   8.304  10.769  10.258 -3.7728  0.4255  1.4421
  684MOL0     H90225   8.080  11.065  10.219  1.1707 -0.3417  0.9034
  684MOL0     H90226   7.945  11.045  10.316 -1.6209 -1.0858 -0.5814
  684MOL0     H90227   8.027  10.854  10.097 -0.4451 -0.0635 -1.0836
  684MOL0     H90228   7.905  10.975  10.094  0.4991 -0.9171  0.3563
  684MOL0     H90229   7.793  10.871  10.289 -0.4158 -1.4998  0.4801
  684MOL0     H90230   7.907  10.735  10.275 -0.7931  0.8039  1.1469
  684MOL0     H90231   7.737  10.811  10.045  2.2918  2.6111  1.4602
  684MOL0     H90232   7.835  10.664  10.070  0.9684  2.0200 -1.7603
  684MOL0     H90233   7.585  10.742  10.239  2.5418  1.2860  1.9144
  684MOL0     H90234   7.681  10.595  10.254 -0.5863  0.1733 -0.4038
  684MOL0     H90235   7.606  10.532  10.023  0.5519  0.0811  1.2647
  684MOL0     H90236   7.501  10.669  10.007  2.7114 -0.9999 -2.4241
  684MOL0     H90237   7.386  10.468  10.085  1.7169 -1.4389 -0.8678
  684MOL0     H90238   7.469  10.480  10.247 -2.2761  0.5047  1.4984
  684MOL0     H90239   7.328  10.715  10.149 -0.1346 -1.1684 -1.5937
  684MOL0     H90240   7.361  10.646  10.321  4.2881  2.1502 -0.5127
  684MOL0     H90241   7.117  10.695  10.395 -1.3773 -0.4634  0.3640
  684MOL0     H90242   6.827  10.671  10.387 -1.0304 -0.6508  0.0279
  684MOL0     H90243   6.891  10.534  10.485 -0.0560 -3.7452 -0.9583
  684MOL0     H90244   6.783  10.376  10.321 -1.9546 -0.9498  0.5627
  684MOL0     H90245   6.728  10.513  10.230  3.3807 -0.3584 -0.8769
  684MOL0     H90246   6.679  10.450  10.517 -0.3915  1.5221  0.6862
  684MOL0     H90247   6.615  10.593  10.452  1.0652  0.4251  0.7614
  684MOL0     H90248   6.467  10.365  10.475  0.3331  1.9075  0.5836
  684MOL0     H90249   6.560  10.328  10.320  1.1724  0.6594 -0.3429
  684MOL0     H90250   6.283  10.525  10.109 -1.4798  2.5375  0.2179
  684MOL0     H90251   6.021  10.484  10.092 -0.5020 -1.5929 -0.8332
  684MOL0     H90252   5.596  10.452  10.304  1.3172 -2.0256 -0.2230
  684MOL0     H90253   5.370  10.401  10.246  1.3225  3.7531 -0.8608
  684MOL0     H90254   5.172  10.312  10.178 -1.0248 -3.1281  2.0789
  684MOL0     H90255   5.190  10.153  10.155  2.3863  0.6603  0.8959
  684MOL0     H90256   5.047  10.134   9.996 -2.2979  0.4233  0.0021
  684MOL0     H90257   5.029  10.305   9.935 -1.3188 -0.7394 -0.4734
  684MOL0     H90258   4.954  10.368  10.175  1.2261 -2.3813  4.4912
  684MOL0     H90259   4.948  10.203  10.219 -0.2647  0.6575  0.4180
  684MOL0     H90260   4.793  10.311   9.971 -2.7968  0.2677 -0.2663
  684MOL0     H90261   4.791  10.148  10.032  0.8071 -0.5576  0.3630
  684MOL0     H90262   4.598  10.271  10.062 -1.3215 -0.3887  0.6784
  684MOL0     H90263   4.683  10.377  10.180 -3.9490  0.5368 -0.7669
  684MOL0     H90264   4.712  10.195  10.332 -0.0963 -1.6622  1.3221
  684MOL0     H90265   4.661  10.068  10.226 -0.0932 -1.2573  1.8137
  684MOL0     H90266   4.469  10.125  10.391  2.4860  1.5770  1.8303
  684MOL0     H90267   4.483  10.293  10.347  1.8678  0.5979 -0.2021
  684MOL0     H90268   4.424  10.064  10.157  0.8677  0.5102 -0.5975
  684MOL0     H90269   4.398  10.221  10.120 -1.3577 -0.2644 -0.0965
  684MOL0     H90270   5.499  10.153   9.915  0.8997 -1.7815  0.6623
  684MOL0     H90271   5.733  10.207   9.979  0.8650  0.5463  0.3110
  684MOL0     H90272   6.045  10.342  10.493 -1.7099  1.1872 -0.1391
  684MOL0     H90273   6.266  10.419  10.519 -0.8353  2.4002  0.2604
  684MOL0     H90274   8.222  11.136  10.446  0.9124 -0.2235  0.3802
  684MOL0     H90275   8.447  11.201  10.457 -0.6419 -1.4243  5.3220
  684MOL0     H90276   8.883  11.118  10.444  0.1886  2.1053  0.6935
  684MOL0     H90277   9.113  11.181  10.432  1.0199  0.9778 -0.7065
  684MOL0     H90278   9.391  11.413  10.276  0.5056 -1.9188  1.7719
  684MOL0     H90279   9.295  11.356  10.392  4.9695  1.3634 -0.0769
  684MOL0     H90280   9.235  11.557  10.183  2.6066  0.4923  1.4755
  684MOL0     H90281   9.089  11.481  10.263  0.2758 -1.6277  2.5532
  684MOL0     H90282   9.308  11.640  10.397 -0.2632  2.5322 -2.9234
  684MOL0     H90283   9.187  11.537  10.481  1.9936  0.2360 -0.8325
  684MOL0     H90284   9.109  11.765  10.307  0.0860 -1.4066  0.3179
  684MOL0     H90285   9.000  11.670  10.404 -0.8296  0.3617 -3.1821
  684MOL0     H90286   9.167  11.939  10.689  1.9709  1.2618 -2.6360
  684MOL0     H90287   9.063  11.299  10.024  2.2694 -0.8822  0.4580
  684MOL0     H90288   8.830  11.243  10.035  1.5406 -1.9579 -2.5005
  685MOL0     O90289   1.791   0.626   1.819  0.7830 -0.5949  0.0280
  685MOL0     C90290   1.843   0.689   1.913 -0.0488 -0.2882 -0.2586
  685MOL0     O90291   1.786   0.803   1.976  0.0084 -0.2126  0.3704
  685MOL0     C90292   1.664   0.844   1.932 -0.2189 -0.6444 -0.7388
  685MOL0     C90293   1.646   0.924   1.817 -0.8719 -0.2080 -0.0712
  685MOL0     C90294   1.512   0.959   1.777  0.3172  0.6030 -0.0330
  685MOL0     C90295   1.401   0.920   1.845 -0.0908 -0.3444 -0.0362
  685MOL0     O90296   1.269   0.954   1.811  0.2593 -0.2650 -0.1119
  685MOL0     C90297   1.237   1.007   1.685  0.0847  0.3902  1.1614
  685MOL0     C90298   1.083   1.005   1.672 -0.4142  0.2052 -0.7376
  685MOL0     C90299   1.015   1.102   1.765  0.5836 -0.2281  0.7721
  685MOL0     C90300   0.869   1.093   1.749 -0.0651  0.0833  0.0558
  685MOL0     C90301   0.796   1.211   1.822 -0.2144 -1.3497 -1.1414
  685MOL0     C90302   0.648   1.188   1.840  0.3570 -0.3261  0.3381
  685MOL0     C90303   0.576   1.104   1.728 -0.5938  0.5236  0.1245
  685MOL0     C90304   0.552   1.190   1.604  0.1781  0.8573 -1.1822
  685MOL0     N90305   0.466   1.311   1.618  0.2814  0.2523 -0.6783
  685MOL0     C90306   0.348   1.334   1.685  0.7794 -0.3046 -0.9487
  685MOL0     C90307   0.308   1.457   1.656  0.5125 -0.7979 -0.2652
  685MOL0     C90308   0.190   1.534   1.711 -0.0964  0.3573  0.1180
  685MOL0     C90309   0.062   1.453   1.694  0.3822  1.0980 -0.5082
  685MOL0     C90310   0.032   1.423   1.548 -0.5797 -0.7847 -0.3337
  685MOL0     C90311  -0.101   1.357   1.520 -0.3011  0.2255  0.7043
  685MOL0     O90312  -0.205   1.441   1.568 -0.1534  0.8387  0.9614
  685MOL0     C90313  -0.337   1.412   1.536 -0.3773  0.0967 -0.3816
  685MOL0     C90314  -0.378   1.301   1.463  0.4431 -0.1906  0.6877
  685MOL0     C90315  -0.507   1.273   1.441  0.0959 -0.8845  0.9843
  685MOL0     C90316  -0.605   1.357   1.487  0.2960 -1.0508  0.6719
  685MOL0     C90317  -0.755   1.329   1.460  0.1407  0.1456  0.2190
  685MOL0     O90318  -0.775   1.203   1.403  0.7305 -0.3360 -1.0105
  685MOL0     C90319  -0.903   1.173   1.357 -0.7300 -1.0390  0.4492
  685MOL0     C90320  -1.015   1.132   1.427 -0.3175  0.0088  0.5101
  685MOL0     C90321  -1.133   1.104   1.355  0.6866  0.3336 -0.8202
  685MOL0     C90322  -1.149   1.117   1.218 -0.1599 -0.0614  0.9176
  685MOL0     O90323  -1.266   1.101   1.151 -0.2076 -0.1982 -0.0690
  685MOL0     C90324  -1.274   1.083   1.012 -0.6601 -0.2147  0.0715
  685MOL0     C90325  -1.423   1.078   0.988  0.1850  0.5891 -0.7545
  685MOL0     C90326  -1.481   0.956   1.054 -0.5342 -0.0624 -0.0922
  685MOL0     C90327  -1.632   0.926   1.017  0.2241 -0.4429  0.2224
  685MOL0     C90328  -1.672   0.787   1.073  0.4366 -0.1279  0.6083
  685MOL0     C90329  -1.798   0.731   0.999 -0.8162  0.8292 -0.2148
  685MOL0     C90330  -1.866   0.606   1.063  0.5736 -0.6459  0.2342
  685MOL0     C90331  -1.772   0.481   1.054  0.2978  0.2140  0.4971
  685MOL0    Cl90332  -1.798   0.427   0.884 -0.2881 -0.3988 -0.1482
  685MOL0     C90333  -1.036   1.166   1.149  0.4548  0.1886 -0.6533
  685MOL0     C90334  -0.912   1.182   1.207  0.4242 -0.3556 -1.0982
  685MOL0     O90335  -0.842   1.413   1.492  0.0802  0.8566  0.3518
  685MOL0     C90336  -0.567   1.474   1.560  0.3948  0.6919 -0.3343
  685MOL0     C90337  -0.433   1.497   1.586 -0.0173 -0.0368 -0.4447
  685MOL0     N90338   0.407   1.517   1.578  0.5269 -0.4155  0.0581
  685MOL0     N90339   0.498   1.430   1.560  0.7166 -0.3992 -0.8185
  685MOL0     C90340   1.423   0.850   1.971 -0.1926  0.6254  0.2961
  685MOL0     C90341   1.550   0.805   2.007 -0.2741 -0.4529 -1.0595
  685MOL0     C90342   1.984   0.647   1.955 -0.0277 -1.3766  0.4733
  685MOL0     C90343   2.048   0.727   2.055  0.0594  0.5056  0.5203
  685MOL0     C90344   2.176   0.682   2.100 -0.6904  0.2873  0.3705
  685MOL0     C90345   2.244   0.573   2.041  0.2822 -0.3984  0.0195
  685MOL0     O90346   2.369   0.526   2.077 -0.7267  0.1141  0.2395
  685MOL0     C90347   2.446   0.593   2.186 -1.3504 -0.1154  0.1340
  685MOL0     C90348   2.556   0.489   2.225 -0.2973  0.0458  0.3573
  685MOL0     C90349   2.650   0.526   2.341 -0.7652 -0.0069  0.5160
  685MOL0     C90350   2.789   0.461   2.326  0.0851  0.6391  0.0200
  685MOL0     C90351   2.875   0.497   2.437  0.5602 -0.0085 -0.0248
  685MOL0     C90352   2.931   0.539   2.531 -0.6620 -0.8851 -0.0016
  685MOL0     C90353   2.177   0.511   1.947  0.4912  0.2040  0.4501
  685MOL0     C90354   2.047   0.535   1.905  0.2527 -0.6230 -0.3363
  685MOL0     H90355   1.734   0.965   1.768 -0.6410  0.5548  0.9606
  685MOL0     H90356   1.503   1.025   1.692 -0.2904  1.5819  0.7762
  685MOL0     H90357   1.287   0.954   1.603 -2.3996 -0.4747  0.0919
  685MOL0     H90358   1.261   1.113   1.681 -0.3274  0.5538  2.6581
  685MOL0     H90359   1.042   0.904   1.671 -0.6790  0.3071 -1.6384
  685MOL0     H90360   1.073   1.052   1.573 -3.5636  2.9264  0.6748
  685MOL0     H90361   1.050   1.203   1.741 -1.3026  1.4107  4.2197
  685MOL0     H90362   1.040   1.078   1.868  1.9403 -0.0040  0.5147
  685MOL0     H90363   0.849   1.101   1.642  0.7218 -0.4276 -0.1400
  685MOL0     H90364   0.842   0.998   1.797  0.8509  0.5104  1.4784
  685MOL0     H90365   0.808   1.298   1.757 -0.5773 -0.1589  0.3243
  685MOL0     H90366   0.842   1.238   1.918 -0.7077  1.3000 -1.5839
  685MOL0     H90367   0.607   1.288   1.855  0.0624 -0.0261 -2.0941
  685MOL0     H90368   0.631   1.129   1.931  1.1767 -1.3661 -0.1522
  685MOL0     H90369   0.625   1.008   1.710  0.8620  0.6052  3.0649
  685MOL0     H90370   0.480   1.086   1.777 -0.3338  0.5931  0.6699
  685MOL0     H90371   0.520   1.137   1.513  1.8151 -0.9073 -0.7983
  685MOL0     H90372   0.653   1.227   1.584  0.1656  1.6600  0.1415
  685MOL0     H90373   0.290   1.266   1.748  0.2580  0.2952 -0.7763
  685MOL0     H90374   0.178   1.631   1.661  1.9556  1.0223  0.8196
  685MOL0     H90375   0.217   1.550   1.816 -1.0206  1.5383  0.1951
  685MOL0     H90376  -0.014   1.516   1.741  1.2098  2.2958 -0.7395
  685MOL0     H90377   0.075   1.350   1.729 -1.0999 -0.3995 -3.8956
  685MOL0     H90378   0.037   1.520   1.497 -2.1768  1.3541  3.1883
  685MOL0     H90379   0.100   1.349   1.504 -0.4176  0.7712 -2.9226
  685MOL0     H90380  -0.101   1.272   1.589 -0.4884  0.3048  0.7997
  685MOL0     H90381  -0.122   1.317   1.421 -1.1144 -2.3427  1.8256
  685MOL0     H90382  -0.309   1.234   1.413 -0.9293 -1.5393  0.5176
  685MOL0     H90383  -0.529   1.183   1.383 -3.0187  0.3954 -0.0559
  685MOL0     H90384  -1.013   1.127   1.536  0.8427 -1.5340  0.4457
  685MOL0     H90385  -1.212   1.060   1.415  1.2712 -1.9697 -1.5959
  685MOL0     H90386  -1.223   0.994   0.974  0.9383  1.1547 -1.0999
  685MOL0     H90387  -1.238   1.165   0.949 -2.8245 -0.8595 -2.1750
  685MOL0     H90388  -1.450   1.070   0.882 -2.4626  3.0412 -0.4008
  685MOL0     H90389  -1.480   1.165   1.023 -1.1259  0.6668 -2.9239
  685MOL0     H90390  -1.459   0.960   1.161  1.2223  0.1346 -0.4285
  685MOL0     H90391  -1.426   0.866   1.025 -0.5111 -1.5065  3.9023
  685MOL0     H90392  -1.697   1.007   1.051  0.4889 -0.6236  1.1891
  685MOL0     H90393  -1.635   0.940   0.909  0.9260  4.6625  0.6425
  685MOL0     H90394  -1.699   0.812   1.176  2.6184 -0.8888  1.4261
  685MOL0     H90395  -1.593   0.712   1.081  0.5430 -0.0977 -0.1084
  685MOL0     H90396  -1.762   0.718   0.897 -0.2294 -1.1609  0.1924
  685MOL0     H90397  -1.870   0.813   1.001 -2.6198 -0.5633 -2.5433
  685MOL0     H90398  -1.892   0.638   1.164  0.4060 -0.3229  0.0929
  685MOL0     H90399  -1.959   0.589   1.009 -0.0172 -0.3694  1.1532
  685MOL0     H90400  -1.805   0.397   1.116 -2.2132 -0.3509 -1.4242
  685MOL0     H90401  -1.667   0.506   1.066  0.8186 -2.0512  1.1051
  685MOL0     H90402  -1.041   1.169   1.041 -0.7648 -1.1806 -0.6728
  685MOL0     H90403  -0.822   1.203   1.149 -1.0747  1.5698 -2.8550
  685MOL0     H90404  -0.650   1.541   1.584 -1.9034 -0.7580 -3.4421
  685MOL0     H90405  -0.414   1.585   1.646 -1.9098  0.0068  0.1496
  685MOL0     H90406   1.340   0.830   2.038  1.5324 -1.0438  2.0253
  685MOL0     H90407   1.570   0.752   2.099  0.3606 -1.9679 -2.0297
  685MOL0     H90408   2.016   0.822   2.097  1.0032  0.8986  0.3695
  685MOL0     H90409   2.201   0.739   2.189 -1.3334 -0.2052  0.8809
  685MOL0     H90410   2.371   0.614   2.262  1.0072  4.0175  1.6390
  685MOL0     H90411   2.482   0.693   2.158 -1.1926 -0.4683 -0.9949
  685MOL0     H90412   2.499   0.397   2.241 -1.3852  0.2792 -1.7422
  685MOL0     H90413   2.615   0.471   2.134  1.9658 -3.1367  2.2651
  685MOL0     H90414   2.614   0.484   2.435  0.4722  1.1274  1.5474
  685MOL0     H90415   2.658   0.635   2.350 -2.5645  0.2084 -0.0347
  685MOL0     H90416   2.785   0.352   2.325 -1.3925  0.6771  0.3645
  685MOL0     H90417   2.835   0.494   2.232  0.0051  0.8300  0.0477
  685MOL0     H90418   2.976   0.589   2.614 -0.9299 -1.7244  0.6612
  685MOL0     H90419   2.233   0.432   1.897 -0.9423 -2.2038  2.4475
  685MOL0     H90420   1.998   0.487   1.821 -1.3147 -0.1955  0.2871
  686MOL0     O90421   2.872   5.029   2.453  0.0801 -0.4365 -0.5430
  686MOL0     C90422   2.921   5.080   2.558 -0.1783  0.0187 -0.5442
  686MOL0     O90423   2.856   5.140   2.664 -0.2165 -0.0551 -0.3313
  686MOL0     C90424   2.723   5.167   2.656 -0.3891  0.1600  0.5640
  686MOL0     C90425   2.664   5.234   2.543 -0.5733 -0.1199 -0.3647
  686MOL0     C90426   2.529   5.268   2.542 -0.0483 -0.0672  0.2062
  686MOL0     C90427   2.456   5.245   2.657 -0.8350 -1.4098  0.1980
  686MOL0     O90428   2.328   5.284   2.661  0.0936  0.7673  0.1349
  686MOL0     C90429   2.308   5.426   2.675 -0.4035 -0.3853 -0.3989
  686MOL0     C90430   2.157   5.464   2.681 -0.2904 -0.5784  0.9366
  686MOL0     C90431   2.139   5.613   2.705  0.1039 -0.7213 -0.7379
  686MOL0     C90432   2.000   5.669   2.663 -0.4258  0.1416 -0.5713
  686MOL0     C90433   1.972   5.806   2.723  0.1753 -0.6491 -0.1826
  686MOL0     C90434   1.831   5.852   2.710 -0.6129  0.1770  0.3098
  686MOL0     C90435   1.726   5.771   2.784  0.6855  0.1373  0.2088
  686MOL0     C90436   1.598   5.850   2.812 -0.1382  0.2573 -0.2168
  686MOL0     N90437   1.498   5.754   2.872  0.3317  0.5329 -0.9543
  686MOL0     C90438   1.380   5.740   2.816  0.2838  0.3681  0.6200
  686MOL0     C90439   1.298   5.683   2.912  0.2386 -0.1858  0.6125
  686MOL0     C90440   1.146   5.652   2.894 -0.5437 -0.1388 -0.8506
  686MOL0     C90441   1.047   5.761   2.947  0.2358 -0.3140  0.1381
  686MOL0     C90442   1.074   5.804   3.093  1.0338  0.4202  0.1083
  686MOL0     C90443   0.956   5.875   3.168 -0.7844  0.6294 -1.0266
  686MOL0     O90444   0.835   5.824   3.109 -0.4929 -0.2639 -0.2334
  686MOL0     C90445   0.718   5.835   3.183 -0.5871  0.5591  1.3809
  686MOL0     C90446   0.685   5.961   3.237 -0.3143  0.6720 -1.6442
  686MOL0     C90447   0.570   5.969   3.315 -1.2445 -0.0490  0.2239
  686MOL0     C90448   0.477   5.861   3.316 -0.6113 -0.2323 -0.8647
  686MOL0     C90449   0.342   5.890   3.369 -0.6843  0.6949 -0.0469
  686MOL0     O90450   0.255   5.778   3.393 -0.1250  0.1946  0.0966
  686MOL0     C90451   0.128   5.796   3.442 -0.7350 -0.1070  0.5507
  686MOL0     C90452   0.032   5.697   3.414  0.7370  0.8595  0.5834
  686MOL0     C90453  -0.101   5.702   3.462  0.9912  0.3359  1.0237
  686MOL0     C90454  -0.141   5.812   3.540 -0.9798 -0.9671 -0.5539
  686MOL0     O90455  -0.267   5.807   3.583  0.6652 -0.0950  0.0084
  686MOL0     C90456  -0.300   5.725   3.693 -0.0310  0.5736  0.0661
  686MOL0     C90457  -0.429   5.771   3.749  0.1082 -0.7270 -0.3765
  686MOL0     C90458  -0.434   5.922   3.800 -0.6808 -0.0838  0.5693
  686MOL0     C90459  -0.364   5.927   3.933  0.1429  0.0627  0.0709
  686MOL0     C90460  -0.432   6.031   4.019 -0.0216 -0.2492  0.3935
  686MOL0     C90461  -0.415   6.177   3.971  0.2525 -0.0483  0.0359
  686MOL0     C90462  -0.267   6.223   3.961  0.3246  0.5872 -0.2848
  686MOL0     C90463  -0.189   6.188   3.832  0.4055  0.4854 -0.6325
  686MOL0    Cl90464  -0.064   6.320   3.810  0.0303 -0.0907  1.0183
  686MOL0     C90465  -0.045   5.904   3.572 -0.1954 -0.6609  0.2159
  686MOL0     C90466   0.083   5.900   3.526 -0.3278 -0.3373  0.8603
  686MOL0     O90467   0.319   6.011   3.391  0.4384 -0.4253 -0.9861
  686MOL0     C90468   0.520   5.733   3.258 -0.1060 -0.8686 -1.3565
  686MOL0     C90469   0.640   5.725   3.189  0.2882  0.7697 -0.2231
  686MOL0     N90470   1.375   5.660   3.028  0.1230 -0.0338 -0.1451
  686MOL0     N90471   1.496   5.705   3.004  0.0156 -0.5250 -0.0191
  686MOL0     C90472   2.505   5.178   2.762 -0.6358 -0.3023  0.1409
  686MOL0     C90473   2.640   5.149   2.769 -0.2923  0.3786  0.5984
  686MOL0     C90474   3.062   5.062   2.581 -0.3660 -0.0513  0.6989
  686MOL0     C90475   3.137   4.992   2.487  0.2257  0.6595 -0.1502
  686MOL0     C90476   3.278   4.970   2.498 -0.8474  0.8955  0.1868
  686MOL0     C90477   3.348   5.012   2.609  0.0955 -0.4234  0.3702
  686MOL0     O90478   3.484   4.984   2.627  0.5188 -0.8488 -0.2360
  686MOL0     C90479   3.567   4.952   2.514  0.2386 -0.5380  0.0473
  686MOL0     C90480   3.708   4.994   2.545 -0.1915  0.6232  0.2923
  686MOL0     C90481   3.813   4.924   2.445  0.4412 -0.0619 -0.7627
  686MOL0     C90482   3.962   4.941   2.482  0.6454  0.3734 -0.4127
  686MOL0     C90483   3.980   4.904   2.615  0.1018 -0.5173 -1.5944
  686MOL0     C90484   4.016   4.889   2.730  0.2066  0.1407 -0.3596
  686MOL0     C90485   3.271   5.082   2.703  0.5589 -1.0491 -0.3509
  686MOL0     C90486   3.129   5.100   2.696 -0.1183  0.2030  0.0320
  686MOL0     H90487   2.731   5.256   2.460  0.2544  0.7166  0.4939
  686MOL0     H90488   2.491   5.318   2.453  3.1926  1.0848 -0.6521
  686MOL0     H90489   2.364   5.482   2.600 -0.1961 -1.4262 -1.0561
  686MOL0     H90490   2.350   5.450   2.772 -0.6162 -0.9583 -0.1559
  686MOL0     H90491   2.111   5.404   2.760  0.2701 -0.9723  0.9652
  686MOL0     H90492   2.113   5.437   2.584  1.0053  1.6673 -0.3887
  686MOL0     H90493   2.218   5.662   2.649 -1.0405  0.9851 -0.9363
  686MOL0     H90494   2.150   5.631   2.813  1.6490 -0.3973 -0.9274
  686MOL0     H90495   1.987   5.667   2.554  2.7941  1.0012 -1.0800
  686MOL0     H90496   1.924   5.603   2.706  0.1581  0.6915  1.4267
  686MOL0     H90497   2.034   5.881   2.674 -1.5062  0.2065 -1.0538
  686MOL0     H90498   1.992   5.818   2.830 -0.4677  0.5413 -0.1823
  686MOL0     H90499   1.813   5.831   2.604 -1.5364  1.2585  0.2332
  686MOL0     H90500   1.833   5.960   2.728 -1.0870  0.7461 -2.6338
  686MOL0     H90501   1.696   5.687   2.720  0.0065  1.2913 -1.0508
  686MOL0     H90502   1.761   5.742   2.883  1.4321 -0.1515 -0.1328
  686MOL0     H90503   1.563   5.893   2.718  0.6696  0.5591 -0.3826
  686MOL0     H90504   1.622   5.927   2.886 -1.0946  1.3938 -1.0476
  686MOL0     H90505   1.351   5.766   2.715 -0.6804 -0.0876  0.7666
  686MOL0     H90506   1.140   5.550   2.933 -0.5988  0.5127  0.9361
  686MOL0     H90507   1.124   5.639   2.787  2.5064 -1.4249 -1.4261
  686MOL0     H90508   0.947   5.719   2.931  0.7183 -1.9729  1.2453
  686MOL0     H90509   1.069   5.840   2.874 -1.9527  1.8751  1.6793
  686MOL0     H90510   1.104   5.726   3.163 -1.8127  0.3577  1.3879
  686MOL0     H90511   1.156   5.876   3.089  1.7198 -0.2083  1.7973
  686MOL0     H90512   0.978   5.983   3.168  0.8625  0.4140  1.8821
  686MOL0     H90513   0.972   5.857   3.275  1.5819  3.1629 -0.8200
  686MOL0     H90514   0.761   6.038   3.224  0.8141  0.8234  3.6742
  686MOL0     H90515   0.555   6.062   3.370  1.1539 -0.9853  2.6911
  686MOL0     H90516   0.059   5.619   3.344 -0.5450  0.0319  0.9649
  686MOL0     H90517  -0.174   5.628   3.430  1.2871  0.4317  0.0930
  686MOL0     H90518  -0.224   5.731   3.772  0.0617  0.5747 -0.0229
  686MOL0     H90519  -0.320   5.621   3.668 -1.4280  0.7914  0.1920
  686MOL0     H90520  -0.453   5.713   3.839  1.2448  0.2078  0.5426
  686MOL0     H90521  -0.510   5.764   3.675 -1.1080 -2.8001  1.0136
  686MOL0     H90522  -0.539   5.955   3.805 -0.4129  0.6311  1.8059
  686MOL0     H90523  -0.383   5.990   3.731 -0.2024 -2.1296 -1.2163
  686MOL0     H90524  -0.373   5.833   3.988 -4.0547  0.1863 -0.1113
  686MOL0     H90525  -0.256   5.941   3.919  0.3192  0.4036  1.5826
  686MOL0     H90526  -0.386   6.020   4.118 -2.3307 -1.4958  1.4137
  686MOL0     H90527  -0.540   6.017   4.027  0.3113 -3.2041  0.9286
  686MOL0     H90528  -0.467   6.248   4.036  0.7987  1.0890 -0.7328
  686MOL0     H90529  -0.471   6.193   3.879  0.5258 -0.0451 -0.1311
  686MOL0     H90530  -0.269   6.330   3.983  0.5046  0.4684  0.3311
  686MOL0     H90531  -0.223   6.168   4.045 -3.5314 -0.0208  1.5747
  686MOL0     H90532  -0.254   6.192   3.744  0.5232 -1.5317 -0.8715
  686MOL0     H90533  -0.142   6.089   3.826 -0.5574 -0.0247 -0.0071
  686MOL0     H90534  -0.081   5.987   3.632  0.1317 -1.0695  0.9955
  686MOL0     H90535   0.136   5.990   3.557  0.1428 -1.8875  5.2162
  686MOL0     H90536   0.448   5.652   3.255  0.1103 -1.0373 -3.7086
  686MOL0     H90537   0.667   5.628   3.150 -1.4507 -1.3665  3.3576
  686MOL0     H90538   2.436   5.159   2.844 -0.4240 -1.2241  0.1196
  686MOL0     H90539   2.683   5.108   2.860  4.0412  1.1492 -0.8653
  686MOL0     H90540   3.093   4.961   2.392  3.2765 -0.9013 -1.1900
  686MOL0     H90541   3.329   4.915   2.419 -1.5742 -1.1686  1.0965
  686MOL0     H90542   3.533   5.004   2.424  2.7260 -0.2593 -0.8150
  686MOL0     H90543   3.569   4.844   2.498 -0.3285 -0.5160 -0.2103
  686MOL0     H90544   3.703   5.099   2.513 -1.0600  0.0684 -1.5183
  686MOL0     H90545   3.736   4.974   2.649  2.4717  1.5047 -0.1835
  686MOL0     H90546   3.785   4.963   2.346 -1.9668 -2.2433 -1.0538
  686MOL0     H90547   3.788   4.818   2.443 -0.4107  0.0075  2.0465
  686MOL0     H90548   4.021   4.876   2.418 -1.6943 -2.4600  0.0989
  686MOL0     H90549   4.003   5.042   2.477  2.4080 -0.1874  1.3650
  686MOL0     H90550   4.047   4.883   2.833 -0.2959 -0.0180 -0.2163
  686MOL0     H90551   3.319   5.113   2.794 -1.2152  0.3303  0.1715
  686MOL0     H90552   3.080   5.141   2.784 -1.3835 -1.5842  0.2160
  687MOL0     O90553   4.290  10.126  11.180 -0.3365 -0.3949 -0.0642
  687MOL0     C90554   4.353  10.086  11.081 -0.2708  0.8745 -0.9611
  687MOL0     O90555   4.299  10.025  10.974  0.1709  0.8574 -0.1181
  687MOL0     C90556   4.161  10.011  10.971 -0.7539 -0.1201  0.6947
  687MOL0     C90557   4.106   9.879  10.947  0.0362 -0.2944  0.0357
  687MOL0     C90558   3.964   9.874  10.943 -0.6092  0.6295 -0.3945
  687MOL0     C90559   3.880   9.972  10.987  0.1838  0.9724  0.2528
  687MOL0     O90560   3.749   9.938  10.998  0.1450  0.1736 -0.1883
  687MOL0     C90561   3.651  10.042  10.982  0.1769 -0.0743 -0.1687
  687MOL0     C90562   3.512   9.981  11.014 -0.1065  0.4974 -0.5578
  687MOL0     C90563   3.471   9.865  10.921  0.3090 -0.7732  0.8703
  687MOL0     C90564   3.362   9.781  10.981 -0.2234  1.0804 -0.1357
  687MOL0     C90565   3.240   9.855  11.031  0.8234 -0.8350  0.5315
  687MOL0     C90566   3.162   9.917  10.910  0.5414 -0.6979 -1.2824
  687MOL0     C90567   3.058  10.024  10.954 -0.4923 -0.4607 -0.0855
  687MOL0     C90568   2.939   9.956  11.032  0.0399 -0.8426  0.9276
  687MOL0     N90569   2.827  10.053  11.048 -0.8386  0.1857 -0.0885
  687MOL0     C90570   2.733  10.091  10.961 -0.2051 -0.0235 -0.0588
  687MOL0     C90571   2.669  10.194  11.018 -0.5366  0.7865 -0.7310
  687MOL0     C90572   2.554  10.256  10.955  0.1484 -0.7405  0.0518
  687MOL0     C90573   2.436  10.158  10.953  0.4349  0.0745  0.2690
  687MOL0     C90574   2.383  10.129  11.094 -0.0241 -0.1501 -0.1107
  687MOL0     C90575   2.242  10.082  11.097  0.2680  0.1622  0.0281
  687MOL0     O90576   2.203  10.081  11.237  0.2460 -0.1500  0.0564
  687MOL0     C90577   2.081  10.026  11.275 -0.9809  0.4417  0.3183
  687MOL0     C90578   1.977   9.984  11.193 -0.1638 -0.0790 -0.6667
  687MOL0     C90579   1.856   9.931  11.235 -0.7644  0.7023  0.3814
  687MOL0     C90580   1.830   9.924  11.373 -0.3138  0.0959 -0.1256
  687MOL0     C90581   1.708   9.858  11.420  0.2928 -0.4458 -0.7603
  687MOL0     O90582   1.688   9.852  11.558 -0.3989 -0.5876 -0.1007
  687MOL0     C90583   1.579   9.785  11.610 -0.3829 -0.9515  0.5283
  687MOL0     C90584   1.601   9.740  11.744  0.6319  1.3708  0.6930
  687MOL0     C90585   1.498   9.672  11.804  0.7262  0.2262  0.6257
  687MOL0     C90586   1.375   9.665  11.746  1.2181 -0.3429 -0.2331
  687MOL0     O90587   1.274   9.611  11.823 -0.5254  0.2819 -0.2199
  687MOL0     C90588   1.278   9.468  11.832  1.9459  0.0821  0.1521
  687MOL0     C90589   1.143   9.425  11.786  0.2447  0.0516  0.3559
  687MOL0     C90590   1.027   9.479  11.866 -0.4684 -0.0100 -0.2217
  687MOL0     C90591   1.010   9.424  12.010  0.3881  0.3711  1.1710
  687MOL0     C90592   0.922   9.512  12.085 -0.2489 -0.0994 -0.1144
  687MOL0     C90593   0.915   9.477  12.232 -0.5095  0.9785 -0.4646
  687MOL0     C90594   0.843   9.587  12.312  0.7369  1.1730  0.1449
  687MOL0     C90595   0.696   9.539  12.345  0.1039 -0.8052 -0.9363
  687MOL0    Cl90596   0.591   9.684  12.352 -0.2117  0.1250  0.0899
  687MOL0     C90597   1.346   9.726  11.615  0.4722 -0.6563 -0.6487
  687MOL0     C90598   1.452   9.781  11.555 -0.7862  0.5312  0.5070
  687MOL0     O90599   1.648   9.807  11.335 -0.0437  0.9073  0.4402
  687MOL0     C90600   1.927   9.966  11.460  0.0260  0.4561  0.4202
  687MOL0     C90601   2.052  10.016  11.410  0.4230 -0.6068 -0.6186
  687MOL0     N90602   2.716  10.209  11.143 -0.2800  0.5949 -0.2096
  687MOL0     N90603   2.818  10.130  11.155  0.4581  0.2507  0.1788
  687MOL0     C90604   3.933  10.101  11.010 -0.2876 -0.4628  0.9145
  687MOL0     C90605   4.072  10.116  10.999  0.4665  1.4005 -0.1289
  687MOL0     C90606   4.495  10.107  11.080  0.7701 -1.3581  1.6726
  687MOL0     C90607   4.556  10.188  11.191  0.3284  0.1703 -0.0420
  687MOL0     C90608   4.695  10.197  11.195  0.7055 -0.3069  0.5900
  687MOL0     C90609   4.777  10.141  11.092 -0.7416 -0.0573 -0.0644
  687MOL0     O90610   4.917  10.137  11.088  0.4085 -0.7680  0.1724
  687MOL0     C90611   4.986  10.195  11.195  0.3083 -0.1158 -0.2106
  687MOL0     C90612   5.135  10.181  11.179 -0.2563 -0.4978 -0.6149
  687MOL0     C90613   5.186  10.260  11.054  0.3073  0.0765  0.3725
  687MOL0     C90614   5.341  10.259  11.046 -0.0115 -0.2746 -0.1959
  687MOL0     C90615   5.402  10.349  11.139  0.3973 -0.0526  0.2950
  687MOL0     C90616   5.460  10.416  11.220  0.1191 -0.5266 -0.3072
  687MOL0     C90617   4.715  10.074  10.990 -0.5116 -0.5734 -0.1072
  687MOL0     C90618   4.581  10.057  10.980  0.7085  0.5137  0.2892
  687MOL0     H90619   4.157   9.786  10.926 -1.3572 -0.7554 -1.5051
  687MOL0     H90620   3.921   9.774  10.939 -0.2294  0.3945  0.9980
  687MOL0     H90621   3.659  10.080  10.880  0.3245  1.0552  0.2511
  687MOL0     H90622   3.671  10.118  11.058 -3.2241  0.5699  0.2227
  687MOL0     H90623   3.437  10.061  11.009 -2.0043 -0.8764  2.8568
  687MOL0     H90624   3.523   9.937  11.114  1.6759 -2.5783 -1.9827
  687MOL0     H90625   3.557   9.798  10.909 -0.6379 -1.8494 -0.0666
  687MOL0     H90626   3.438   9.907  10.825 -0.6457 -1.1208  1.0407
  687MOL0     H90627   3.326   9.709  10.907 -1.5804 -0.7623  2.1673
  687MOL0     H90628   3.412   9.726  11.060 -0.0636  0.8515 -0.3955
  687MOL0     H90629   3.263   9.943  11.092 -1.1507  1.0602 -1.2854
  687MOL0     H90630   3.159   9.798  11.079 -2.1958  2.0814 -0.6720
  687MOL0     H90631   3.113   9.842  10.847  0.3103  0.3887 -2.4301
  687MOL0     H90632   3.234   9.972  10.848  0.9214 -0.1597 -0.3948
  687MOL0     H90633   3.110  10.097  11.016  2.0979 -1.9594 -0.3195
  687MOL0     H90634   3.018  10.077  10.867 -2.4992 -2.6335 -0.5867
  687MOL0     H90635   2.974   9.926  11.131 -0.7752 -1.2730  1.0914
  687MOL0     H90636   2.899   9.872  10.975  1.1824 -1.2858  0.7677
  687MOL0     H90637   2.717  10.052  10.861 -1.4242  1.3843 -0.4540
  687MOL0     H90638   2.580  10.275  10.851  0.0915 -1.6236 -0.1335
  687MOL0     H90639   2.530  10.349  11.007 -1.4631  0.7724 -3.1343
  687MOL0     H90640   2.481  10.070  10.905  2.2946  0.8752  0.4828
  687MOL0     H90641   2.356  10.194  10.887 -0.3080  0.9689  1.6106
  687MOL0     H90642   2.452  10.058  11.141 -1.0254 -0.9499  0.1852
  687MOL0     H90643   2.380  10.223  11.151 -3.3945  1.0311 -1.9294
  687MOL0     H90644   2.242   9.979  11.062  0.6420 -0.2444  1.1717
  687MOL0     H90645   2.182  10.150  11.036  4.0746  5.7837  1.7868
  687MOL0     H90646   2.007   9.978  11.089  1.1878  0.2388 -0.3097
  687MOL0     H90647   1.791   9.889  11.160  0.2653  1.4367 -0.9758
  687MOL0     H90648   1.699   9.749  11.789  1.7310  3.5398 -1.8557
  687MOL0     H90649   1.504   9.635  11.906  0.1548  0.9720  0.9363
  687MOL0     H90650   1.317   9.421  11.923 -0.1348 -0.8102  0.6356
  687MOL0     H90651   1.349   9.425  11.761  1.9854  0.0552  0.2070
  687MOL0     H90652   1.137   9.315  11.785 -0.3146  0.0704  1.1231
  687MOL0     H90653   1.130   9.462  11.684  0.4568 -1.0341 -0.0817
  687MOL0     H90654   0.935   9.463  11.808 -0.2080 -0.5582 -0.4864
  687MOL0     H90655   1.043   9.586  11.882 -1.3539  0.3273 -1.4464
  687MOL0     H90656   0.975   9.320  12.011  1.2344 -0.0204 -1.3000
  687MOL0     H90657   1.104   9.420  12.065 -0.0054 -1.2697  1.7913
  687MOL0     H90658   0.821   9.515  12.044 -0.9344  0.7584  1.5506
  687MOL0     H90659   0.950   9.618  12.078  0.6270 -0.3372 -0.4159
  687MOL0     H90660   1.020   9.491  12.262 -0.8321  2.4129  0.0527
  687MOL0     H90661   0.881   9.373  12.234  1.8637 -0.0256 -3.6872
  687MOL0     H90662   0.887   9.604  12.411  0.5002 -1.8972  0.9041
  687MOL0     H90663   0.834   9.672  12.244 -0.9487 -0.7551 -2.2412
  687MOL0     H90664   0.688   9.484  12.439 -0.1278 -0.9063 -1.0151
  687MOL0     H90665   0.646   9.476  12.271 -3.6402 -1.3248  1.7730
  687MOL0     H90666   1.248   9.736  11.569  0.0401  2.3937  0.6714
  687MOL0     H90667   1.432   9.824  11.458 -1.3741 -1.0692 -0.1065
  687MOL0     H90668   1.910   9.955  11.566 -0.2172  1.1690  0.4629
  687MOL0     H90669   2.125  10.033  11.489 -1.1734  1.3830  0.5146
  687MOL0     H90670   3.867  10.182  11.040 -1.0268  0.2589 -2.2451
  687MOL0     H90671   4.112  10.215  11.018 -0.1043  2.1131 -2.3835
  687MOL0     H90672   4.492  10.236  11.264 -1.7686  1.6387 -2.6421
  687MOL0     H90673   4.734  10.243  11.285  2.5304 -1.2382  0.3314
  687MOL0     H90674   4.952  10.139  11.282 -3.2573  0.6502 -0.9344
  687MOL0     H90675   4.965  10.302  11.208  0.4595 -0.2286  1.0320
  687MOL0     H90676   5.179  10.215  11.273 -0.4519 -3.3128  0.5908
  687MOL0     H90677   5.149  10.073  11.167 -1.3014 -0.7526  0.2745
  687MOL0     H90678   5.139  10.358  11.055 -2.6469 -1.0929  4.3380
  687MOL0     H90679   5.152  10.203  10.967  0.3221 -1.3520  1.2693
  687MOL0     H90680   5.377  10.158  11.066 -0.3743 -0.1899  0.9053
  687MOL0     H90681   5.366  10.287  10.943 -1.7158  3.3954  0.2319
  687MOL0     H90682   5.511  10.471  11.297  1.4163 -1.7261 -0.2654
  687MOL0     H90683   4.768  10.020  10.912  1.0161 -0.7725  1.0179
  687MOL0     H90684   4.535  10.003  10.898  0.0549  1.2915  0.1311
  688MOL0     O90685   5.542  10.765   1.965  0.7493  0.1803 -0.1714
  688MOL0     C90686   5.587  10.822   1.865  0.5807  1.4041  0.0665
  688MOL0     O90687   5.518  10.845   1.748 -0.2939  0.4678 -0.3708
  688MOL0     C90688   5.385  10.831   1.741  0.3668 -0.2152 -0.2227
  688MOL0     C90689   5.334  10.770   1.625  0.6692 -0.3906  0.2649
  688MOL0     C90690   5.198  10.760   1.596 -0.3363 -0.4807 -1.0375
  688MOL0     C90691   5.108  10.809   1.696 -0.6382 -0.1223 -0.0639
  688MOL0     O90692   4.969  10.808   1.687  0.2274 -0.0431  0.5151
  688MOL0     C90693   4.915  10.694   1.610  0.6436  0.1301  0.6277
  688MOL0     C90694   4.759  10.670   1.628  0.5519 -0.6554 -0.3812
  688MOL0     C90695   4.695  10.660   1.767 -0.4422 -0.4461 -0.0616
  688MOL0     C90696   4.544  10.636   1.757  0.2837  0.5802  0.8985
  688MOL0     C90697   4.470  10.708   1.862  0.2001 -0.7403  0.8192
  688MOL0     C90698   4.323  10.680   1.844 -0.0899  0.2875  0.2552
  688MOL0     C90699   4.234  10.763   1.929 -0.5268  0.3187 -0.7370
  688MOL0     C90700   4.250  10.908   1.878  0.5103 -0.2338  0.7570
  688MOL0     N90701   4.126  10.987   1.899 -0.1018  0.8525 -0.1342
  688MOL0     C90702   4.018  10.988   1.821  0.3655  0.2266  0.4757
  688MOL0     C90703   3.913  11.030   1.894  0.2692  0.7336 -0.0737
  688MOL0     C90704   3.776  11.062   1.841  0.0073  0.1193  0.1335
  688MOL0     C90705   3.660  11.050   1.942  0.2521  1.3415  0.1543
  688MOL0     C90706   3.515  11.033   1.874  0.1898 -0.8422 -0.5548
  688MOL0     C90707   3.493  11.146   1.773 -0.1574  0.3797 -0.9044
  688MOL0     O90708   3.368  11.121   1.710 -0.0268 -0.2704  0.5452
  688MOL0     C90709   3.248  11.156   1.772 -0.1885 -0.3816  0.1901
  688MOL0     C90710   3.223  11.197   1.898  0.2641  0.9698 -0.7762
  688MOL0     C90711   3.093  11.221   1.926 -0.3307  0.3261 -0.7638
  688MOL0     C90712   2.992  11.212   1.838  0.8434 -0.0035  0.7978
  688MOL0     C90713   2.849  11.211   1.869 -0.1885 -0.1053 -0.2861
  688MOL0     O90714   2.756  11.183   1.769  0.6913  0.2847  0.4263
  688MOL0     C90715   2.623  11.175   1.810  0.6540 -0.2055  0.6007
  688MOL0     C90716   2.557  11.058   1.781  0.8747 -0.3157  0.0262
  688MOL0     C90717   2.428  11.037   1.835  0.0221 -0.9107 -0.0143
  688MOL0     C90718   2.363  11.145   1.900 -0.4703  0.3487 -0.0408
  688MOL0     O90719   2.246  11.131   1.956  0.2158  0.3574  0.0359
  688MOL0     C90720   2.150  11.026   1.936 -0.6135 -0.4622  0.3266
  688MOL0     C90721   2.033  11.043   2.029  0.1088 -0.2762 -0.1577
  688MOL0     C90722   1.969  11.185   2.033  0.2689  0.0609  0.6705
  688MOL0     C90723   1.933  11.261   1.907  0.7578  0.0982  1.0207
  688MOL0     C90724   1.815  11.356   1.938  0.0554 -0.3121 -0.4821
  688MOL0     C90725   1.848  11.469   2.046 -1.1142  0.1876 -0.5843
  688MOL0     C90726   1.752  11.583   2.001 -0.5596  0.7955  0.0849
  688MOL0     C90727   1.615  11.559   2.049  0.2084  0.0359  1.7807
  688MOL0    Cl90728   1.591  11.556   2.232 -0.1227  0.3434  0.7087
  688MOL0     C90729   2.421  11.262   1.926 -0.2879 -1.1458  0.4527
  688MOL0     C90730   2.558  11.273   1.883 -0.4931 -0.7744 -0.3644
  688MOL0     O90731   2.822  11.226   1.991 -0.5810  0.0692 -0.3886
  688MOL0     C90732   3.019  11.183   1.702  0.9557  0.1636 -0.5014
  688MOL0     C90733   3.152  11.145   1.674 -0.0722  0.3825 -1.3315
  688MOL0     N90734   3.949  11.034   2.023 -0.2069 -0.1419  0.2652
  688MOL0     N90735   4.079  11.010   2.028  0.4554 -0.7175 -0.0188
  688MOL0     C90736   5.157  10.869   1.808  0.5166 -0.1356  0.4608
  688MOL0     C90737   5.294  10.867   1.836 -0.2252 -0.0218 -0.0749
  688MOL0     C90738   5.726  10.873   1.865 -0.5892  0.5522  0.1673
  688MOL0     C90739   5.793  10.921   1.755  0.4588 -0.3871 -0.6938
  688MOL0     C90740   5.921  10.970   1.764 -0.2343  0.1288 -0.2749
  688MOL0     C90741   5.988  10.967   1.879 -0.4957 -0.0737 -0.5759
  688MOL0     O90742   6.110  11.022   1.878 -0.0361  0.0328  0.1423
  688MOL0     C90743   6.179  11.041   2.003  0.7783  0.7361 -0.0960
  688MOL0     C90744   6.301  11.136   1.988 -0.2892  0.6326 -0.0971
  688MOL0     C90745   6.401  11.131   1.866  0.4604 -0.0524 -0.0273
  688MOL0     C90746   6.522  11.218   1.910  0.8593  1.2198  0.3660
  688MOL0     C90747   6.623  11.240   1.807  1.1454 -0.2872  0.7816
  688MOL0     C90748   6.716  11.251   1.736  0.0831  0.0849 -0.1003
  688MOL0     C90749   5.922  10.918   1.996 -0.4134 -0.0036  0.3015
  688MOL0     C90750   5.795  10.863   1.986  0.1584 -1.2992  0.2960
  688MOL0     H90751   5.412  10.746   1.553  1.5078 -1.3610  1.4625
  688MOL0     H90752   5.155  10.721   1.504 -0.1277 -0.0537 -1.3222
  688MOL0     H90753   4.969  10.607   1.647  0.6971  0.8847  2.4338
  688MOL0     H90754   4.928  10.713   1.503  0.7938  2.0061  0.9414
  688MOL0     H90755   4.744  10.574   1.578  2.1506  0.2034 -2.7147
  688MOL0     H90756   4.705  10.744   1.568  0.3235  0.3330  0.9992
  688MOL0     H90757   4.724  10.745   1.829  0.5258 -0.7763 -0.0475
  688MOL0     H90758   4.749  10.583   1.822  0.2801 -1.8843 -2.6332
  688MOL0     H90759   4.505  10.670   1.660 -0.6019  0.7367  1.2982
  688MOL0     H90760   4.532  10.528   1.767 -0.4286  0.5257 -0.3320
  688MOL0     H90761   4.484  10.814   1.836 -0.4109 -0.8115  0.1401
  688MOL0     H90762   4.505  10.681   1.961  0.2886 -2.4664  0.3374
  688MOL0     H90763   4.305  10.582   1.890 -2.4229  1.0984  1.2118
  688MOL0     H90764   4.302  10.677   1.737  1.2753  1.3549 -0.0795
  688MOL0     H90765   4.136  10.721   1.906  0.5006 -0.9349 -3.2315
  688MOL0     H90766   4.256  10.766   2.036  2.4220  3.7406 -1.2362
  688MOL0     H90767   4.280  10.899   1.773 -3.3861  1.4240 -0.6616
  688MOL0     H90768   4.326  10.964   1.933 -1.6540 -0.8640  4.7353
  688MOL0     H90769   4.021  10.960   1.717 -1.2622 -0.8475  0.6817
  688MOL0     H90770   3.762  10.980   1.770 -1.8247 -1.4900  2.2099
  688MOL0     H90771   3.767  11.164   1.800 -5.0150  0.6028  1.6908
  688MOL0     H90772   3.665  11.130   2.017  0.2871 -0.3534  2.0304
  688MOL0     H90773   3.675  10.955   1.993  0.5224  0.3614 -1.6608
  688MOL0     H90774   3.498  10.934   1.832 -0.0064 -1.5147  1.0469
  688MOL0     H90775   3.446  11.039   1.958  1.0337 -1.0532  0.1698
  688MOL0     H90776   3.576  11.140   1.701  1.9676  1.8720  1.2554
  688MOL0     H90777   3.509  11.246   1.813  1.7161  0.7792 -2.4976
  688MOL0     H90778   3.297  11.212   1.976 -0.6970  1.8740 -0.0178
  688MOL0     H90779   3.063  11.256   2.025 -1.6099  2.9000 -1.9457
  688MOL0     H90780   2.608  10.982   1.723  1.4921 -0.9312  1.3243
  688MOL0     H90781   2.371  10.946   1.824  0.3992 -1.2892  1.0470
  688MOL0     H90782   2.200  10.930   1.955 -0.6189 -0.5867 -0.2809
  688MOL0     H90783   2.111  11.021   1.834 -0.7191 -1.3649  0.4002
  688MOL0     H90784   2.062  11.009   2.129 -0.7755 -2.6253 -0.6523
  688MOL0     H90785   1.957  10.970   2.000  0.3577 -0.5020 -0.2405
  688MOL0     H90786   2.053  11.247   2.065  1.2351 -0.2035 -1.1858
  688MOL0     H90787   1.882  11.191   2.099  0.7749  1.6320  1.2319
  688MOL0     H90788   2.019  11.312   1.863 -1.6017  3.5547 -0.0716
  688MOL0     H90789   1.909  11.188   1.829  2.1576  1.4862 -0.7983
  688MOL0     H90790   1.718  11.310   1.962 -0.4341  0.8926 -0.0694
  688MOL0     H90791   1.792  11.406   1.844  1.2947  1.2757  0.0194
  688MOL0     H90792   1.952  11.503   2.038  0.1268 -2.7103  1.3605
  688MOL0     H90793   1.832  11.438   2.150 -0.0088  0.2088 -0.3935
  688MOL0     H90794   1.786  11.679   2.042 -0.5132  1.4449 -1.4315
  688MOL0     H90795   1.761  11.610   1.896 -1.4094  1.8504  0.2643
  688MOL0     H90796   1.559  11.478   2.001  0.7617  0.5300  0.2392
  688MOL0     H90797   1.567  11.644   2.001  1.6558 -1.0734 -2.0537
  688MOL0     H90798   2.374  11.346   1.975  0.8603 -0.8964  1.1683
  688MOL0     H90799   2.616  11.359   1.916 -3.0428  1.1342 -0.5862
  688MOL0     H90800   2.945  11.184   1.623  0.5189 -1.1815 -0.1493
  688MOL0     H90801   3.171  11.104   1.576 -0.7671  0.3662 -1.4685
  688MOL0     H90802   5.087  10.900   1.885 -1.5183 -0.7987 -1.0269
  688MOL0     H90803   5.344  10.901   1.927 -0.3926  3.0588 -1.0278
  688MOL0     H90804   5.745  10.908   1.659 -0.4210 -0.1805 -0.2833
  688MOL0     H90805   5.975  10.997   1.674 -0.8002  0.8844 -0.3948
  688MOL0     H90806   6.204  10.941   2.041  0.7424 -0.2295 -2.4610
  688MOL0     H90807   6.109  11.085   2.075  1.6871  0.1726  1.1831
  688MOL0     H90808   6.246  11.230   1.981 -3.4055 -0.9280  1.0277
  688MOL0     H90809   6.364  11.131   2.076 -1.4514 -3.1952  0.7042
  688MOL0     H90810   6.353  11.162   1.773  2.7849 -1.4523 -1.8094
  688MOL0     H90811   6.438  11.031   1.840  1.5321  0.4606 -0.5636
  688MOL0     H90812   6.499  11.313   1.960  1.1874  0.4737  2.0043
  688MOL0     H90813   6.574  11.152   1.979 -0.5425 -0.0762  0.2368
  688MOL0     H90814   6.803  11.259   1.674 -0.3225 -1.0649 -0.8540
  688MOL0     H90815   5.981  10.920   2.088  1.0455  2.6486 -0.5701
  688MOL0     H90816   5.749  10.816   2.073 -5.4155 -2.7189 -2.9030
  689MOL0     O90817   6.593   4.825   3.442 -0.7910  0.7513 -0.3007
  689MOL0     C90818   6.587   4.920   3.525 -0.3201  0.5175 -0.6850
  689MOL0     O90819   6.471   4.961   3.585  0.5839  0.1134  0.6462
  689MOL0     C90820   6.343   4.939   3.522 -0.4848 -0.3983  0.1603
  689MOL0     C90821   6.262   5.053   3.509  0.2632 -0.5116 -0.1344
  689MOL0     C90822   6.127   5.036   3.467 -0.0725 -0.6290  0.6820
  689MOL0     C90823   6.065   4.907   3.440 -0.8462  0.2923  0.2978
  689MOL0     O90824   5.929   4.887   3.418 -0.0439 -0.2060  0.5850
  689MOL0     C90825   5.873   4.765   3.361 -0.5872 -0.2187  0.3135
  689MOL0     C90826   5.728   4.800   3.356  0.0150 -0.1017 -0.7665
  689MOL0     C90827   5.639   4.706   3.285  1.7138  0.1501 -0.7896
  689MOL0     C90828   5.494   4.746   3.310  0.7758  0.0571 -0.1392
  689MOL0     C90829   5.401   4.673   3.208  0.0061 -0.2594 -0.2424
  689MOL0     C90830   5.276   4.746   3.185  0.3663 -0.7049 -0.7282
  689MOL0     C90831   5.192   4.664   3.096 -0.2073 -0.5712  0.2694
  689MOL0     C90832   5.162   4.726   2.960  0.1365  0.2757 -0.5749
  689MOL0     N90833   5.268   4.717   2.867  0.1572 -0.1457 -0.5818
  689MOL0     C90834   5.383   4.796   2.852  0.7756  1.1072  0.2981
  689MOL0     C90835   5.469   4.726   2.773 -0.3438 -0.1244  0.5411
  689MOL0     C90836   5.595   4.776   2.701  0.1009 -0.0596  0.5340
  689MOL0     C90837   5.729   4.771   2.778  0.4540 -0.1270  0.6477
  689MOL0     C90838   5.737   4.874   2.895 -0.4644 -0.2715  0.0160
  689MOL0     C90839   5.873   4.877   2.968  0.0507 -0.0930  0.2689
  689MOL0     O90840   5.988   4.909   2.888 -0.7363 -0.8951 -0.2420
  689MOL0     C90841   6.107   4.941   2.948  0.4616  0.4963  0.6295
  689MOL0     C90842   6.209   4.946   2.856 -0.3900 -0.2455  0.1659
  689MOL0     C90843   6.332   4.974   2.908 -0.1391 -0.0098  0.2289
  689MOL0     C90844   6.366   4.976   3.044 -0.2417 -0.8074 -0.4010
  689MOL0     C90845   6.501   5.000   3.095  1.3337  0.4633  0.1835
  689MOL0     O90846   6.594   4.998   3.007 -0.7569  0.0650  0.7451
  689MOL0     C90847   6.722   5.026   3.042 -0.5650  1.2794 -0.0038
  689MOL0     C90848   6.781   5.115   2.954  0.3758  0.2882  0.2740
  689MOL0     C90849   6.919   5.143   2.960 -0.6899  0.1154  0.4626
  689MOL0     C90850   7.000   5.066   3.051  0.2383 -0.2310 -0.3073
  689MOL0     O90851   7.131   5.089   3.086  0.6317 -0.4748 -0.1884
  689MOL0     C90852   7.189   5.219   3.068 -0.7801 -0.2196 -0.1666
  689MOL0     C90853   7.314   5.240   3.149  0.5242  0.1558  0.2826
  689MOL0     C90854   7.437   5.153   3.097  0.5938 -0.4928 -0.3374
  689MOL0     C90855   7.551   5.157   3.200  0.5457 -0.1292  0.6128
  689MOL0     C90856   7.682   5.127   3.141 -0.5216 -0.2159  0.3831
  689MOL0     C90857   7.788   5.117   3.245 -0.0805 -0.3335 -0.5770
  689MOL0     C90858   7.842   5.258   3.277  0.5342 -0.2643 -0.4309
  689MOL0     C90859   7.929   5.261   3.398 -0.1892  0.1061 -0.1509
  689MOL0    Cl90860   8.086   5.186   3.353 -1.1162 -0.0793  0.3589
  689MOL0     C90861   6.942   4.972   3.133  0.3809  0.1596 -0.2610
  689MOL0     C90862   6.800   4.951   3.132 -0.6224  0.5089  0.3391
  689MOL0     O90863   6.513   5.036   3.213  0.3644 -0.2437 -0.2730
  689MOL0     C90864   6.252   4.973   3.130 -1.2200  0.0706 -0.0557
  689MOL0     C90865   6.130   4.952   3.084 -0.5330  0.0917  0.0028
  689MOL0     N90866   5.414   4.599   2.758 -1.0180 -0.4196 -0.4823
  689MOL0     N90867   5.302   4.593   2.814  0.6673  0.0006 -0.7143
  689MOL0     C90868   6.152   4.792   3.458 -0.0553  0.1430  0.2795
  689MOL0     C90869   6.288   4.812   3.492  0.3600  0.3982 -0.2069
  689MOL0     C90870   6.709   4.981   3.573  0.6698  0.2353 -0.1709
  689MOL0     C90871   6.694   5.067   3.683  0.0223 -0.6148 -0.2443
  689MOL0     C90872   6.810   5.121   3.737  0.5900 -0.2014  0.0694
  689MOL0     C90873   6.940   5.085   3.687  0.2674 -1.0499 -1.3121
  689MOL0     O90874   7.045   5.153   3.733  0.2097  0.3504  0.7198
  689MOL0     C90875   7.031   5.286   3.792 -0.0993 -0.1482 -0.9852
  689MOL0     C90876   7.149   5.375   3.752  0.3420 -0.4270  0.5809
  689MOL0     C90877   7.293   5.310   3.759 -0.1421  0.3376  0.1440
  689MOL0     C90878   7.399   5.415   3.754 -0.3866  1.3890 -0.1835
  689MOL0     C90879   7.523   5.359   3.690  0.7908 -0.8685 -0.6938
  689MOL0     C90880   7.622   5.326   3.623  0.7101  0.0211  0.4195
  689MOL0     C90881   6.950   5.002   3.584 -0.6000 -0.9891 -0.0990
  689MOL0     C90882   6.831   4.940   3.530 -0.9972 -0.0168 -0.1556
  689MOL0     H90883   6.297   5.141   3.562  5.8527 -4.1252  3.1711
  689MOL0     H90884   6.056   5.117   3.461  0.8830  0.2107  0.4488
  689MOL0     H90885   5.890   4.672   3.416 -0.3289  0.0265  0.6506
  689MOL0     H90886   5.918   4.755   3.262  1.3832  3.2202  0.7153
  689MOL0     H90887   5.711   4.903   3.325 -0.3340  0.7929  2.0964
  689MOL0     H90888   5.715   4.792   3.464  1.4928 -4.0567 -0.6844
  689MOL0     H90889   5.657   4.604   3.320  1.6900  0.0219 -1.1493
  689MOL0     H90890   5.653   4.702   3.176  0.0663  0.9908 -1.0556
  689MOL0     H90891   5.465   4.738   3.416  0.4037 -0.1354 -0.2537
  689MOL0     H90892   5.474   4.850   3.282  2.0453  1.4874  3.6227
  689MOL0     H90893   5.382   4.577   3.258 -1.7790  0.6957  1.0509
  689MOL0     H90894   5.453   4.667   3.112 -0.5329  1.1389 -0.6424
  689MOL0     H90895   5.299   4.844   3.143  0.4047  0.2376  1.3778
  689MOL0     H90896   5.223   4.767   3.278  2.5313 -2.0686  0.9274
  689MOL0     H90897   5.242   4.567   3.088  0.0469 -0.6078  1.8853
  689MOL0     H90898   5.089   4.661   3.134 -1.7063  2.3850 -2.9675
  689MOL0     H90899   5.114   4.825   2.965  1.1226  0.9891 -3.4653
  689MOL0     H90900   5.079   4.666   2.922 -0.6645  1.4785 -0.7879
  689MOL0     H90901   5.411   4.890   2.900 -1.3565  1.8695  0.1473
  689MOL0     H90902   5.582   4.878   2.664 -1.0095 -0.7981 -1.3027
  689MOL0     H90903   5.612   4.711   2.614  2.9388  1.2080 -0.0032
  689MOL0     H90904   5.804   4.795   2.702  1.4889  3.0286  2.4906
  689MOL0     H90905   5.740   4.672   2.823 -4.3184 -0.5902  1.3211
  689MOL0     H90906   5.716   4.974   2.857  1.7013  0.7913  1.3809
  689MOL0     H90907   5.660   4.848   2.968 -1.0033 -2.2362 -1.1645
  689MOL0     H90908   5.886   4.780   3.016 -2.2510 -0.8441 -0.5337
  689MOL0     H90909   5.855   4.964   3.032 -0.6672  0.3802 -0.5608
  689MOL0     H90910   6.189   4.943   2.749 -1.9658 -0.8425  0.4555
  689MOL0     H90911   6.414   4.973   2.837  1.7643  2.0668  2.2616
  689MOL0     H90912   6.725   5.155   2.871 -1.3835  0.8021  1.6318
  689MOL0     H90913   6.964   5.216   2.892 -3.5065  0.6444 -1.0209
  689MOL0     H90914   7.124   5.304   3.090 -0.8285 -0.7996  2.1382
  689MOL0     H90915   7.201   5.234   2.960  2.6093  0.7271  0.2319
  689MOL0     H90916   7.305   5.218   3.256  1.1501 -0.8617  0.1383
  689MOL0     H90917   7.337   5.347   3.144 -1.2830  0.5848  0.3375
  689MOL0     H90918   7.467   5.202   3.004 -2.1255 -1.3479 -1.7522
  689MOL0     H90919   7.412   5.053   3.061 -0.7408 -0.6134  0.8329
  689MOL0     H90920   7.557   5.257   3.245  2.7563 -0.9072  2.2129
  689MOL0     H90921   7.521   5.084   3.276 -1.3273 -0.9937 -0.8348
  689MOL0     H90922   7.707   5.195   3.059 -0.5949 -0.9198 -0.2339
  689MOL0     H90923   7.691   5.028   3.093  0.6478  0.2159 -0.3507
  689MOL0     H90924   7.871   5.052   3.215  1.5223  2.6221 -3.1967
  689MOL0     H90925   7.758   5.075   3.342  0.9612  3.0116  1.3994
  689MOL0     H90926   7.888   5.307   3.191  2.0959 -0.7129  0.1060
  689MOL0     H90927   7.753   5.318   3.298 -0.3987 -0.4245 -3.5218
  689MOL0     H90928   7.897   5.198   3.481 -0.9801  1.3400  0.5022
  689MOL0     H90929   7.928   5.365   3.432 -0.5038  0.7172 -1.9316
  689MOL0     H90930   7.006   4.910   3.195  0.8099  0.1061 -0.7575
  689MOL0     H90931   6.763   4.872   3.196  1.6518 -1.6350 -0.8073
  689MOL0     H90932   6.276   4.983   3.236  2.1824  0.6609 -0.7521
  689MOL0     H90933   6.044   4.942   3.150 -2.7101  3.0607 -2.1507
  689MOL0     H90934   6.112   4.692   3.447 -0.5464  0.4468 -0.8709
  689MOL0     H90935   6.341   4.721   3.520  0.7090  0.7885  0.4107
  689MOL0     H90936   6.599   5.101   3.723  0.9283  0.5137  1.0588
  689MOL0     H90937   6.802   5.199   3.811 -0.7895  0.6508 -0.9386
  689MOL0     H90938   7.016   5.272   3.899 -1.6721  0.3038 -1.1249
  689MOL0     H90939   6.936   5.336   3.769 -0.8358 -0.4630  1.1423
  689MOL0     H90940   7.142   5.411   3.650 -0.4671  2.7266  1.6542
  689MOL0     H90941   7.152   5.461   3.819 -2.5548 -0.6571  1.1089
  689MOL0     H90942   7.288   5.239   3.677 -3.3567  1.2195 -0.5504
  689MOL0     H90943   7.310   5.245   3.846 -2.5744  0.1999  0.5787
  689MOL0     H90944   7.365   5.503   3.699 -2.0580  1.0320  0.2367
  689MOL0     H90945   7.432   5.443   3.855  0.2083  2.2174 -0.6015
  689MOL0     H90946   7.698   5.302   3.551  2.0789  1.8287  1.1763
  689MOL0     H90947   7.048   4.986   3.539 -0.7481 -1.5228 -0.2434
  689MOL0     H90948   6.850   4.866   3.453  0.0934  0.4780 -0.3819
  690MOL0     O90949   3.991   0.966  11.281 -0.3514 -0.3247 -0.5495
  690MOL0     C90950   4.022   0.891  11.371  0.6767  0.6982  0.6409
  690MOL0     O90951   3.939   0.847  11.462 -0.3007  0.8665 -0.1933
  690MOL0     C90952   3.805   0.896  11.476 -0.0557  0.6545 -0.5669
  690MOL0     C90953   3.726   0.915  11.366  0.2386  0.3132  0.1545
  690MOL0     C90954   3.606   0.976  11.376 -0.5007  0.1411  0.4846
  690MOL0     C90955   3.553   1.026  11.490 -0.4227  0.8448 -0.8416
  690MOL0     O90956   3.422   1.076  11.503  0.5268  0.8686 -0.0023
  690MOL0     C90957   3.369   1.142  11.399 -0.2046 -0.0552  0.5507
  690MOL0     C90958   3.231   1.201  11.448  0.1638  0.6130 -0.0482
  690MOL0     C90959   3.206   1.327  11.361  0.5236  0.0600 -0.3675
  690MOL0     C90960   3.061   1.376  11.373  0.5504 -0.2641  0.6178
  690MOL0     C90961   3.027   1.424  11.517 -0.1401 -0.4197 -0.4887
  690MOL0     C90962   2.938   1.549  11.511  0.1391 -0.0192  1.1042
  690MOL0     C90963   2.878   1.562  11.647  1.0402  0.3880  0.2914
  690MOL0     C90964   2.803   1.688  11.676  0.2540 -0.3694  0.5234
  690MOL0     N90965   2.676   1.699  11.599 -0.1085  0.5058 -0.6914
  690MOL0     C90966   2.566   1.640  11.634 -0.2054  0.1038 -0.2778
  690MOL0     C90967   2.474   1.673  11.539 -0.4628  0.0870 -0.2430
  690MOL0     C90968   2.345   1.605  11.514 -0.3921  0.0559 -1.1819
  690MOL0     C90969   2.221   1.696  11.522 -0.2004 -0.6645 -0.4136
  690MOL0     C90970   2.189   1.738  11.673 -0.1584  0.2366  0.8866
  690MOL0     C90971   2.041   1.765  11.698 -0.1409  0.4489 -0.0680
  690MOL0     O90972   1.994   1.845  11.592  0.0397 -0.1301  0.0937
  690MOL0     C90973   1.876   1.910  11.598 -0.4426  0.3619 -0.5384
  690MOL0     C90974   1.805   1.925  11.479 -0.5391 -0.1785 -0.5677
  690MOL0     C90975   1.676   1.980  11.472 -0.3922 -0.6323  0.0481
  690MOL0     C90976   1.632   2.041  11.587 -0.2042 -0.8558  0.1008
  690MOL0     C90977   1.494   2.090  11.576  0.2945  0.2556  0.3559
  690MOL0     O90978   1.419   2.037  11.484  0.3811 -0.3610 -0.8055
  690MOL0     C90979   1.284   2.077  11.468 -0.2653 -0.2789 -1.0208
  690MOL0     C90980   1.187   2.034  11.559  1.4092 -0.3662 -0.0750
  690MOL0     C90981   1.055   2.083  11.544 -1.1895  0.6959  0.0413
  690MOL0     C90982   1.024   2.182  11.451  0.9721  0.6018  0.3817
  690MOL0     O90983   0.892   2.211  11.428 -0.4116 -0.8670 -0.0909
  690MOL0     C90984   0.843   2.296  11.529  0.4611  0.1966  0.5151
  690MOL0     C90985   0.694   2.253  11.546  0.7471 -0.0425 -0.1103
  690MOL0     C90986   0.592   2.303  11.445  0.2078 -0.0974 -0.8037
  690MOL0     C90987   0.449   2.273  11.487 -0.2031 -0.0343 -0.3501
  690MOL0     C90988   0.360   2.309  11.366 -0.2646 -0.0314  0.2163
  690MOL0     C90989   0.206   2.331  11.394  0.5801 -0.3678 -0.3860
  690MOL0     C90990   0.119   2.332  11.270 -0.1269  0.0238 -0.6544
  690MOL0     C90991  -0.025   2.388  11.276 -0.2028 -0.5337  0.5808
  690MOL0    Cl90992  -0.060   2.476  11.422 -0.0129 -0.0001 -0.2741
  690MOL0     C90993   1.121   2.218  11.356 -0.2836  0.3743  0.5799
  690MOL0     C90994   1.249   2.159  11.366 -0.5687 -0.2285  0.0125
  690MOL0     O90995   1.461   2.192  11.639 -0.0468 -0.2170 -0.4369
  690MOL0     C90996   1.702   2.037  11.704 -0.3474 -0.1404  0.4025
  690MOL0     C90997   1.822   1.961  11.714  0.8379 -0.2008  0.0669
  690MOL0     N90998   2.536   1.751  11.446 -0.0483 -0.0387  0.1561
  690MOL0     N90999   2.660   1.767  11.482  0.6649 -0.3042  0.0316
  690MOL0     C91000   3.623   0.993  11.610  0.2034  0.0018 -0.5027
  690MOL0     C91001   3.751   0.926  11.604  0.5537 -1.0652 -0.5376
  690MOL0     C91002   4.163   0.846  11.366 -0.2163 -0.1779  0.2269
  690MOL0     C91003   4.215   0.772  11.474 -0.1938 -0.3893  0.5095
  690MOL0     C91004   4.350   0.735  11.474  0.0626  0.5155 -0.6855
  690MOL0     C91005   4.440   0.776  11.370  0.9007  0.0839 -0.1083
  690MOL0     O91006   4.557   0.729  11.339 -0.1607  0.0450  0.3071
  690MOL0     C91007   4.654   0.717  11.445 -0.5846  0.4759  0.2773
  690MOL0     C91008   4.766   0.627  11.388 -1.1959 -0.0847 -0.1655
  690MOL0     C91009   4.865   0.592  11.493 -0.0406 -0.2546  0.2402
  690MOL0     C91010   4.999   0.543  11.432  0.9596  0.0021 -0.2375
  690MOL0     C91011   5.099   0.528  11.530  0.3792 -0.4595 -0.7691
  690MOL0     C91012   5.194   0.504  11.601  0.1560 -0.7727 -0.2855
  690MOL0     C91013   4.386   0.850  11.265 -0.8648  1.2172 -0.2880
  690MOL0     C91014   4.253   0.875  11.257  0.1026 -0.1037  0.6202
  690MOL0     H91015   3.762   0.881  11.270  1.0120 -3.8101  1.7021
  690MOL0     H91016   3.551   0.975  11.282 -0.6483 -2.5562  0.5343
  690MOL0     H91017   3.347   1.082  11.311  2.3045  1.8118 -1.4998
  690MOL0     H91018   3.431   1.223  11.358 -0.0274 -1.9780 -3.3859
  690MOL0     H91019   3.243   1.224  11.555 -0.8405 -0.4872  0.3260
  690MOL0     H91020   3.154   1.124  11.439 -0.3239  1.0057  0.6343
  690MOL0     H91021   3.206   1.303  11.255  0.9622  1.0030 -0.5932
  690MOL0     H91022   3.289   1.397  11.376  1.4928 -1.2625  0.5781
  690MOL0     H91023   3.050   1.449  11.293  2.2061  0.1505  0.7337
  690MOL0     H91024   2.992   1.292  11.363 -0.9070  0.7003  2.1551
  690MOL0     H91025   3.118   1.457  11.567 -0.4272 -0.6958  0.2364
  690MOL0     H91026   2.978   1.348  11.580 -0.5391  2.1854  2.5575
  690MOL0     H91027   2.865   1.540  11.430 -0.7313  2.3797  1.5490
  690MOL0     H91028   2.993   1.642  11.497 -0.5335  0.0765 -1.4710
  690MOL0     H91029   2.809   1.480  11.669 -1.0537  1.9540 -0.1195
  690MOL0     H91030   2.951   1.552  11.728  0.2822  0.7221  1.0273
  690MOL0     H91031   2.866   1.776  11.657 -2.5224  1.3731 -1.5357
  690MOL0     H91032   2.787   1.693  11.784  2.3745  0.9465  0.8328
  690MOL0     H91033   2.556   1.573  11.718 -1.5605  1.1273  0.4098
  690MOL0     H91034   2.325   1.517  11.576  0.4126 -0.0835 -1.1138
  690MOL0     H91035   2.348   1.565  11.413  3.3014 -0.0824 -1.1368
  690MOL0     H91036   2.133   1.642  11.487 -0.1436 -1.8592  1.2195
  690MOL0     H91037   2.219   1.775  11.445 -0.4298 -1.2418 -1.0108
  690MOL0     H91038   2.217   1.660  11.744 -0.8407 -0.7106  0.1461
  690MOL0     H91039   2.242   1.827  11.709 -0.7805  1.6298 -1.4109
  690MOL0     H91040   2.036   1.815  11.794 -0.9753  3.2850 -1.4862
  690MOL0     H91041   2.000   1.663  11.696  1.3701 -0.1851  0.1445
  690MOL0     H91042   1.848   1.886  11.387 -0.0684  0.5435 -0.6628
  690MOL0     H91043   1.637   1.990  11.372  1.2364 -0.8116 -0.6378
  690MOL0     H91044   1.221   1.964  11.634  1.1676  1.1493  1.5097
  690MOL0     H91045   0.984   2.061  11.623  0.2875 -2.3426  0.6597
  690MOL0     H91046   0.841   2.403  11.504  0.4054  0.1744  0.4227
  690MOL0     H91047   0.894   2.271  11.622  0.3979 -1.1000  0.2170
  690MOL0     H91048   0.666   2.295  11.643  2.3755 -0.4996  0.5964
  690MOL0     H91049   0.692   2.145  11.564  1.2085  0.3043  2.4451
  690MOL0     H91050   0.612   2.260  11.347 -1.7255  1.2796 -1.8716
  690MOL0     H91051   0.619   2.409  11.437 -2.3969  0.5080 -3.1062
  690MOL0     H91052   0.436   2.166  11.509 -0.5768  0.2577  0.9591
  690MOL0     H91053   0.420   2.323  11.580  0.1647  0.9214 -0.7444
  690MOL0     H91054   0.367   2.218  11.306 -2.6733 -2.1581  2.8361
  690MOL0     H91055   0.397   2.394  11.309 -0.8742  0.8176  1.0496
  690MOL0     H91056   0.199   2.429  11.442 -0.6334  0.4503 -2.1103
  690MOL0     H91057   0.169   2.260  11.468  0.0136  0.6284  0.3068
  690MOL0     H91058   0.154   2.419  11.213  0.4890  0.2460  0.0358
  690MOL0     H91059   0.116   2.243  11.207 -2.1790  0.4221 -1.1736
  690MOL0     H91060  -0.098   2.306  11.277 -1.9284  0.9417  0.4471
  690MOL0     H91061  -0.047   2.450  11.189 -0.4658  0.1423  1.1114
  690MOL0     H91062   1.109   2.278  11.266  2.5719  0.5828  0.2278
  690MOL0     H91063   1.324   2.181  11.291 -3.0325 -1.0161 -2.8336
  690MOL0     H91064   1.662   2.093  11.788  0.1089 -0.7677  1.0488
  690MOL0     H91065   1.856   1.952  11.817 -1.3124  0.8220  0.9397
  690MOL0     H91066   3.565   1.018  11.698 -1.0881  0.7923 -1.5412
  690MOL0     H91067   3.798   0.924  11.702 -1.8807  2.2455  0.9057
  690MOL0     H91068   4.153   0.729  11.553 -0.5489 -1.6206 -0.4013
  690MOL0     H91069   4.382   0.666  11.551  0.8545 -4.4984 -5.0039
  690MOL0     H91070   4.620   0.671  11.538  1.0215  0.7076  0.9957
  690MOL0     H91071   4.697   0.813  11.474 -1.3080 -0.3170  4.6192
  690MOL0     H91072   4.724   0.528  11.368  1.4095 -1.1803 -0.5333
  690MOL0     H91073   4.819   0.678  11.308 -1.6337 -1.3154 -1.2675
  690MOL0     H91074   4.812   0.529  11.566  0.2912 -1.7091 -0.7310
  690MOL0     H91075   4.879   0.682  11.553 -0.8323  0.8008 -1.1044
  690MOL0     H91076   4.987   0.446  11.382  1.0415  0.0873 -0.4232
  690MOL0     H91077   5.034   0.613  11.355  3.9559 -1.1929 -0.0915
  690MOL0     H91078   5.275   0.492  11.669 -1.5586 -1.5735  1.7323
  690MOL0     H91079   4.444   0.872  11.176 -0.9477  0.4251 -0.5434
  690MOL0     H91080   4.221   0.924  11.165  3.8446  1.2889 -0.1160
  691MOL0     O91081   4.663   9.679   2.846  1.5874  0.1342 -0.4337
  691MOL0     C91082   4.772   9.635   2.830  0.0726 -0.3406  0.0134
  691MOL0     O91083   4.840   9.631   2.717  0.1529 -0.0271  0.0003
  691MOL0     C91084   4.813   9.709   2.606 -0.1234  0.0565 -0.7783
  691MOL0     C91085   4.862   9.670   2.483 -0.1538  0.4737  0.5732
  691MOL0     C91086   4.837   9.751   2.367 -0.2360 -0.4105 -0.4261
  691MOL0     C91087   4.772   9.875   2.373 -0.2709  0.7038 -0.2175
  691MOL0     O91088   4.760   9.956   2.267 -0.0069 -0.3648  0.4120
  691MOL0     C91089   4.886   9.971   2.199 -0.9503  0.2555 -1.6918
  691MOL0     C91090   4.894  10.098   2.113 -0.1306 -0.3527  0.4470
  691MOL0     C91091   4.910  10.226   2.204  0.4078  0.3232  0.7129
  691MOL0     C91092   5.049  10.239   2.280 -0.0176  0.1649 -0.4316
  691MOL0     C91093   5.053  10.371   2.354  0.1173 -0.3180  0.5713
  691MOL0     C91094   4.942  10.380   2.456 -0.3736 -0.1799 -0.3668
  691MOL0     C91095   4.931  10.275   2.565  0.1667  0.7672 -0.4987
  691MOL0     C91096   4.848  10.328   2.680 -0.2718  0.0801 -0.4988
  691MOL0     N91097   4.719  10.394   2.628 -0.3580  0.5733 -0.4225
  691MOL0     C91098   4.609  10.342   2.555 -0.3166  0.2115  0.4018
  691MOL0     C91099   4.531  10.455   2.546 -0.5646 -0.9798  0.3423
  691MOL0     C91100   4.401  10.434   2.477 -0.0323  0.6973 -0.3093
  691MOL0     C91101   4.402  10.496   2.334 -0.0598  0.7534 -0.1907
  691MOL0     C91102   4.301  10.426   2.250 -0.2259  0.9489  0.3036
  691MOL0     C91103   4.154  10.455   2.306  0.2518 -1.2857 -0.2336
  691MOL0     O91104   4.122  10.594   2.265 -0.7690 -0.2965 -0.6087
  691MOL0     C91105   3.993  10.633   2.274  0.2670  0.7044  0.8148
  691MOL0     C91106   3.955  10.723   2.174  0.4012  0.0341 -0.4499
  691MOL0     C91107   3.814  10.754   2.163  0.5352 -0.1288  0.6047
  691MOL0     C91108   3.726  10.721   2.259  0.4120 -0.4063  0.1090
  691MOL0     C91109   3.588  10.762   2.255  0.7640  0.4589  0.9158
  691MOL0     O91110   3.527  10.763   2.374 -0.3090  0.1126  0.6383
  691MOL0     C91111   3.396  10.803   2.374  0.6023  0.0663 -0.1271
  691MOL0     C91112   3.292  10.708   2.368  0.0928  0.2704  0.4856
  691MOL0     C91113   3.170  10.749   2.345  0.3438 -0.2208 -0.5004
  691MOL0     C91114   3.133  10.885   2.309  0.5234  0.5367 -0.4633
  691MOL0     O91115   3.001  10.910   2.291 -0.5219 -0.4160  0.1517
  691MOL0     C91116   2.963  10.973   2.167  0.0239  0.0927  0.1244
  691MOL0     C91117   2.980  10.897   2.037  0.0346 -0.7375 -0.4503
  691MOL0     C91118   3.114  10.837   2.005 -0.6628 -0.0526 -0.4431
  691MOL0     C91119   3.121  10.777   1.873 -0.0308 -0.1228 -0.2574
  691MOL0     C91120   3.262  10.741   1.824 -0.1423 -0.1748  0.5444
  691MOL0     C91121   3.328  10.623   1.901 -0.1050  0.6333  0.6215
  691MOL0     C91122   3.471  10.612   1.842  1.0779  0.0472 -0.0528
  691MOL0     C91123   3.523  10.469   1.848 -0.7849  0.6591  0.0102
  691MOL0    Cl91124   3.701  10.474   1.802 -0.2991  0.2840  0.1138
  691MOL0     C91125   3.236  10.967   2.296 -0.4098 -0.2968 -1.0663
  691MOL0     C91126   3.365  10.930   2.335 -0.4223  0.5913  0.1995
  691MOL0     O91127   3.545  10.803   2.145  0.6255 -0.2579  0.0129
  691MOL0     C91128   3.768  10.636   2.364  0.1897 -0.0846 -0.1694
  691MOL0     C91129   3.896  10.585   2.366  0.4177  0.1174 -0.2504
  691MOL0     N91130   4.577  10.563   2.624 -0.5073 -0.4468  0.7820
  691MOL0     N91131   4.691  10.522   2.668  0.0167 -0.4156  0.1977
  691MOL0     C91132   4.722   9.906   2.499  1.3708 -0.6999  0.6865
  691MOL0     C91133   4.747   9.823   2.610  0.3191 -0.8473  0.2906
  691MOL0     C91134   4.828   9.553   2.935 -0.2130 -0.5434 -0.1939
  691MOL0     C91135   4.774   9.565   3.067  0.3821  0.0138  0.6697
  691MOL0     C91136   4.845   9.514   3.174 -0.2463 -0.2468 -0.2966
  691MOL0     C91137   4.954   9.420   3.152 -0.0808  0.5040  0.5715
  691MOL0     O91138   5.008   9.371   3.271  0.6178 -0.1072 -0.0162
  691MOL0     C91139   5.135   9.316   3.261  0.1717  0.0716  0.3886
  691MOL0     C91140   5.124   9.166   3.246  0.2708 -0.3848  0.2540
  691MOL0     C91141   5.258   9.103   3.226  0.6071 -0.3688  0.1483
  691MOL0     C91142   5.251   8.951   3.195  0.0022 -0.0828 -0.8057
  691MOL0     C91143   5.150   8.881   3.276  1.1680  0.0800 -0.4867
  691MOL0     C91144   5.069   8.822   3.348 -0.0286 -0.8777 -0.0936
  691MOL0     C91145   5.007   9.403   3.020  1.0339 -0.2843  0.2532
  691MOL0     C91146   4.940   9.470   2.923  0.5241 -0.0691 -0.2827
  691MOL0     H91147   4.932   9.588   2.470  0.3136  0.3668  3.1993
  691MOL0     H91148   4.892   9.723   2.278 -1.7501  0.1164 -1.5935
  691MOL0     H91149   4.900   9.879   2.141 -0.8475 -1.6451  1.1604
  691MOL0     H91150   4.968   9.969   2.271  0.6641  1.6522 -3.3546
  691MOL0     H91151   4.805  10.105   2.049 -1.7780  3.7965  2.7717
  691MOL0     H91152   4.982  10.099   2.048  0.2695 -0.0145  0.9830
  691MOL0     H91153   4.832  10.240   2.279 -0.0256  3.5401 -0.1763
  691MOL0     H91154   4.893  10.305   2.131 -2.0380 -0.1596  0.6813
  691MOL0     H91155   5.064  10.149   2.340  0.2736  0.3098 -0.2873
  691MOL0     H91156   5.135  10.232   2.212 -0.8226 -0.4151 -1.4131
  691MOL0     H91157   5.034  10.459   2.291 -0.6794 -1.4692 -0.8495
  691MOL0     H91158   5.155  10.379   2.393  1.3217 -0.9410 -2.1916
  691MOL0     H91159   4.845  10.402   2.410 -0.4128  0.5353  0.0474
  691MOL0     H91160   4.968  10.470   2.513 -0.2367 -1.6699  2.0627
  691MOL0     H91161   4.884  10.185   2.525 -0.9571  0.6398  1.0215
  691MOL0     H91162   5.025  10.243   2.611  1.6050  2.3510 -2.1753
  691MOL0     H91163   4.912  10.397   2.735 -0.0586  0.0294 -0.6787
  691MOL0     H91164   4.824  10.253   2.756 -1.5955 -0.5439 -1.4916
  691MOL0     H91165   4.590  10.245   2.511 -1.8628  0.1891  1.0639
  691MOL0     H91166   4.331  10.494   2.536 -0.0643 -0.3871  0.7962
  691MOL0     H91167   4.379  10.327   2.480 -0.3919  0.7509  2.7669
  691MOL0     H91168   4.501  10.486   2.290 -1.1025 -0.3748 -2.4435
  691MOL0     H91169   4.373  10.601   2.327 -2.2568  0.2312  0.3019
  691MOL0     H91170   4.313  10.468   2.150 -0.8762  0.1095 -0.1493
  691MOL0     H91171   4.321  10.319   2.238  2.0855  1.0536  2.4467
  691MOL0     H91172   4.138  10.444   2.414  0.5703 -1.3179 -0.1887
  691MOL0     H91173   4.091  10.382   2.254 -2.1012  0.3570  0.1311
  691MOL0     H91174   4.015  10.752   2.088  0.1135  0.4577 -0.5076
  691MOL0     H91175   3.786  10.808   2.073  3.3597  3.0789  1.4722
  691MOL0     H91176   3.303  10.602   2.386 -0.5801 -0.3466 -2.2466
  691MOL0     H91177   3.093  10.672   2.353  0.3448 -0.1364  0.4072
  691MOL0     H91178   3.003  11.075   2.168  1.7702 -0.3327  5.2786
  691MOL0     H91179   2.856  10.995   2.174 -0.7230 -0.1052 -5.6995
  691MOL0     H91180   2.950  10.965   1.957 -2.7103 -1.2463  0.0433
  691MOL0     H91181   2.918  10.807   2.027 -0.3134 -0.2468 -3.6609
  691MOL0     H91182   3.154  10.765   2.077 -2.1272 -2.3150 -1.8079
  691MOL0     H91183   3.191  10.915   2.009  2.6628 -3.0706 -0.3683
  691MOL0     H91184   3.072  10.679   1.873  1.5660 -0.9508 -0.2181
  691MOL0     H91185   3.072  10.844   1.801 -0.7559  0.1700  0.4945
  691MOL0     H91186   3.311  10.838   1.835 -2.6781  1.0746  1.9046
  691MOL0     H91187   3.257  10.719   1.717  1.3639  2.6589 -0.1952
  691MOL0     H91188   3.275  10.527   1.899  1.4897 -0.2785 -0.3005
  691MOL0     H91189   3.331  10.658   2.005  0.9217 -0.2737  0.9191
  691MOL0     H91190   3.462  10.637   1.736 -1.3383 -3.5211 -0.8698
  691MOL0     H91191   3.547  10.679   1.884  3.2679 -1.1785 -1.8809
  691MOL0     H91192   3.464  10.402   1.784  2.6350  0.3500 -3.1825
  691MOL0     H91193   3.524  10.433   1.951 -1.7275  0.6785  0.0347
  691MOL0     H91194   3.221  11.068   2.258 -1.8501 -0.1198 -0.1109
  691MOL0     H91195   3.440  11.009   2.324 -0.1065  0.5319  1.7015
  691MOL0     H91196   3.710  10.590   2.443  2.6299 -1.1227  1.1529
  691MOL0     H91197   3.932  10.523   2.447  0.1543  2.1358  1.5017
  691MOL0     H91198   4.665   9.998   2.507  1.8028 -0.0336 -2.4349
  691MOL0     H91199   4.702   9.864   2.700 -1.1318  1.9383 -1.5475
  691MOL0     H91200   4.690   9.628   3.096  0.4629  0.0150  0.9008
  691MOL0     H91201   4.817   9.538   3.276  2.6356 -0.3280  0.5955
  691MOL0     H91202   5.180   9.329   3.360  0.6755 -0.1295  0.1872
  691MOL0     H91203   5.183   9.375   3.182 -0.7793 -0.6191 -0.7484
  691MOL0     H91204   5.069   9.132   3.334 -2.7136  1.6681 -0.6813
  691MOL0     H91205   5.066   9.143   3.156  2.2413  1.1711 -1.5071
  691MOL0     H91206   5.334   9.135   3.299  1.1355 -2.2639  0.4702
  691MOL0     H91207   5.293   9.148   3.132 -1.0651  0.1670 -0.2449
  691MOL0     H91208   5.242   8.913   3.093 -1.1350  3.0976 -1.9886
  691MOL0     H91209   5.339   8.914   3.249 -0.8130  1.0029  1.4301
  691MOL0     H91210   5.011   8.762   3.415 -0.1990  0.1147  0.6786
  691MOL0     H91211   5.101   9.353   3.001  0.8115 -0.9698  0.9216
  691MOL0     H91212   4.987   9.466   2.825 -2.3378 -0.2410 -1.7471
  692MOL0     O91213   1.200   0.429   2.383  0.5610  0.4376 -0.1859
  692MOL0     C91214   1.194   0.346   2.474 -0.0602 -0.6128  0.1746
  692MOL0     O91215   1.082   0.303   2.534  1.0310  0.0777 -0.8809
  692MOL0     C91216   0.963   0.329   2.472  0.7761 -0.1533  0.0402
  692MOL0     C91217   0.873   0.403   2.537 -0.7853 -0.1793  0.0616
  692MOL0     C91218   0.761   0.443   2.473  0.0194 -0.0683 -0.7920
  692MOL0     C91219   0.718   0.390   2.356  0.0464  0.4290  0.5145
  692MOL0     O91220   0.619   0.455   2.278 -0.6752  0.4779 -0.0271
  692MOL0     C91221   0.501   0.377   2.262  0.4244 -0.2269 -0.0717
  692MOL0     C91222   0.444   0.349   2.405  0.1457  0.2467  0.9503
  692MOL0     C91223   0.298   0.353   2.421  0.2306 -0.1096  0.8377
  692MOL0     C91224   0.204   0.291   2.319  0.2601 -0.3943 -0.4367
  692MOL0     C91225   0.060   0.310   2.387  0.3841  0.5380  0.6246
  692MOL0     C91226  -0.037   0.256   2.276 -0.0934 -0.1378  0.4371
  692MOL0     C91227  -0.178   0.242   2.333 -0.4980  0.2968  0.1236
  692MOL0     C91228  -0.285   0.213   2.224 -0.3821 -0.4316 -0.8240
  692MOL0     N91229  -0.426   0.220   2.276  0.6766  1.2080 -0.1296
  692MOL0     C91230  -0.473   0.130   2.366  0.2622 -0.9382 -0.3249
  692MOL0     C91231  -0.565   0.195   2.440 -0.2140 -0.6539  0.3030
  692MOL0     C91232  -0.619   0.140   2.564 -0.1739  0.6581 -0.4569
  692MOL0     C91233  -0.762   0.193   2.600 -0.7793 -0.0488  0.0870
  692MOL0     C91234  -0.861   0.154   2.483 -0.9392  0.5960  0.0755
  692MOL0     C91235  -0.975   0.258   2.481 -0.3588  0.3738  0.4385
  692MOL0     O91236  -1.087   0.222   2.400 -0.7212 -0.4182 -0.1179
  692MOL0     C91237  -1.191   0.313   2.395  0.1694 -0.0120  0.2095
  692MOL0     C91238  -1.192   0.442   2.468 -0.5796  0.0146  0.3482
  692MOL0     C91239  -1.312   0.512   2.465  0.4777  0.1901  0.7438
  692MOL0     C91240  -1.433   0.461   2.400 -0.4494 -0.1369  0.7084
  692MOL0     C91241  -1.568   0.523   2.414 -0.9340  0.2919  0.6799
  692MOL0     O91242  -1.590   0.640   2.486  0.0792  0.4826  0.3154
  692MOL0     C91243  -1.717   0.689   2.502  0.1368  0.3123  0.4250
  692MOL0     C91244  -1.835   0.693   2.411  0.3023  0.7809  0.2790
  692MOL0     C91245  -1.962   0.733   2.462 -0.1992  0.5110  0.8311
  692MOL0     C91246  -1.971   0.781   2.591  0.0724 -0.5755 -0.3241
  692MOL0     O91247  -2.099   0.823   2.621  0.1901  0.5979 -0.4746
  692MOL0     C91248  -2.117   0.866   2.752  0.2070 -0.2646  0.5624
  692MOL0     C91249  -2.256   0.877   2.801 -0.3014  0.2131 -1.1348
  692MOL0     C91250  -2.296   0.753   2.880  1.1870  0.2460 -0.7247
  692MOL0     C91251  -2.449   0.758   2.916 -0.7651 -0.2210  0.0988
  692MOL0     C91252  -2.499   0.624   2.964 -0.2158 -0.1434 -0.0237
  692MOL0     C91253  -2.655   0.596   2.944  0.3819  0.0776  0.1535
  692MOL0     C91254  -2.703   0.474   3.016 -0.6386  0.4515  0.2400
  692MOL0     C91255  -2.661   0.345   2.938  0.0628 -0.4669 -0.1465
  692MOL0    Cl91256  -2.743   0.209   3.025  0.1501 -0.0023  0.0038
  692MOL0     C91257  -1.854   0.801   2.668  0.6884  0.7184  0.0856
  692MOL0     C91258  -1.734   0.742   2.627  1.0454 -0.1425 -0.0287
  692MOL0     O91259  -1.659   0.451   2.361  0.5848  0.8950 -0.4579
  692MOL0     C91260  -1.420   0.344   2.322 -0.2018  1.1772 -0.3800
  692MOL0     C91261  -1.300   0.267   2.324  0.0472 -0.5902  0.2742
  692MOL0     N91262  -0.581   0.321   2.385  0.2921 -0.3691 -0.2325
  692MOL0     N91263  -0.512   0.327   2.277 -0.7508 -0.9540  0.3277
  692MOL0     C91264   0.800   0.295   2.296  0.5903  0.3131  0.3255
  692MOL0     C91265   0.924   0.261   2.355  0.5012  0.0917 -0.2577
  692MOL0     C91266   1.323   0.309   2.548 -0.9378  0.0389 -0.1730
  692MOL0     C91267   1.326   0.208   2.650 -0.2812  0.0964 -0.5715
  692MOL0     C91268   1.457   0.179   2.695  0.0503 -0.5138 -0.0479
  692MOL0     C91269   1.576   0.229   2.649 -0.1672  0.4132  1.1806
  692MOL0     O91270   1.692   0.215   2.724  0.4732 -0.4044 -0.2424
  692MOL0     C91271   1.823   0.255   2.671 -0.0545  0.6117 -0.6869
  692MOL0     C91272   1.948   0.194   2.744 -0.6203 -0.2538  0.4434
  692MOL0     C91273   1.996   0.258   2.869 -0.4279 -0.1179 -0.3845
  692MOL0     C91274   1.904   0.241   2.990  0.1740  0.5358 -0.5988
  692MOL0     C91275   1.870   0.100   3.013  0.0814 -0.4167 -0.5616
  692MOL0     C91276   1.838  -0.023   3.019  0.7013  0.0213  0.6637
  692MOL0     C91277   1.564   0.336   2.552 -0.1866  0.6906  0.5980
  692MOL0     C91278   1.443   0.371   2.506 -0.2052  0.7691  1.1284
  692MOL0     H91279   0.898   0.439   2.636  1.2388 -1.9214  0.2512
  692MOL0     H91280   0.693   0.518   2.511  0.4293  0.1756 -0.5327
  692MOL0     H91281   0.530   0.288   2.206  0.3965 -1.3171  1.5572
  692MOL0     H91282   0.435   0.436   2.198  0.3329  0.9388  1.0524
  692MOL0     H91283   0.485   0.429   2.467 -0.1656  1.8295 -0.7904
  692MOL0     H91284   0.469   0.246   2.433 -2.3996 -1.0529 -1.0837
  692MOL0     H91285   0.283   0.460   2.407  4.3701  0.3178 -2.1573
  692MOL0     H91286   0.280   0.320   2.524 -3.2249 -1.1860  0.0306
  692MOL0     H91287   0.212   0.347   2.225 -0.5423  2.4791  1.0783
  692MOL0     H91288   0.227   0.185   2.302 -0.3954 -0.5707 -0.2706
  692MOL0     H91289   0.037   0.416   2.399  2.2778  0.8919  1.5474
  692MOL0     H91290   0.040   0.255   2.479 -2.8741  0.1285 -0.1947
  692MOL0     H91291   0.001   0.162   2.234 -0.6034  1.0252 -2.9105
  692MOL0     H91292  -0.046   0.327   2.194 -3.1966 -0.5239  0.3488
  692MOL0     H91293  -0.176   0.153   2.397 -0.2225  0.3710  0.2188
  692MOL0     H91294  -0.212   0.326   2.395 -2.3688 -1.9240  2.3054
  692MOL0     H91295  -0.270   0.113   2.184 -1.2748  0.5025 -3.7183
  692MOL0     H91296  -0.259   0.285   2.146 -0.0204  0.3930  0.0227
  692MOL0     H91297  -0.432   0.032   2.388 -0.0778 -1.0772 -0.2967
  692MOL0     H91298  -0.546   0.167   2.642  0.0938 -3.2269  0.8580
  692MOL0     H91299  -0.619   0.031   2.574  2.6246  0.5410 -0.9468
  692MOL0     H91300  -0.761   0.302   2.609  2.1062  0.0444 -0.5033
  692MOL0     H91301  -0.798   0.140   2.689 -0.5084 -0.1844  0.1162
  692MOL0     H91302  -0.813   0.156   2.385  0.2687  0.2618  0.6493
  692MOL0     H91303  -0.906   0.058   2.508  1.8740 -0.4852  1.3490
  692MOL0     H91304  -0.928   0.351   2.450  0.1167  1.2350  3.5054
  692MOL0     H91305  -1.009   0.263   2.584 -2.6261 -0.5822 -0.1857
  692MOL0     H91306  -1.116   0.481   2.534  2.1964 -3.2541 -0.5918
  692MOL0     H91307  -1.311   0.612   2.507  2.1159  1.7379 -2.6114
  692MOL0     H91308  -1.833   0.654   2.310  1.6617  0.9411  0.2275
  692MOL0     H91309  -2.050   0.719   2.400 -0.7727 -0.9168  1.9285
  692MOL0     H91310  -2.072   0.966   2.762 -0.1094  0.2576 -2.2868
  692MOL0     H91311  -2.056   0.799   2.813  3.9272 -0.2476 -2.6696
  692MOL0     H91312  -2.319   0.889   2.712  1.0348  3.3040 -1.7991
  692MOL0     H91313  -2.258   0.964   2.866  4.3785  0.8029 -1.4452
  692MOL0     H91314  -2.235   0.741   2.970  0.0990 -1.0829 -0.1262
  692MOL0     H91315  -2.275   0.666   2.817  2.1949 -0.8970  1.0992
  692MOL0     H91316  -2.459   0.830   2.998  3.0303  2.3101 -1.4041
  692MOL0     H91317  -2.506   0.796   2.831  1.1073  1.4094 -0.4904
  692MOL0     H91318  -2.465   0.606   3.066 -0.3035 -0.7660 -0.0967
  692MOL0     H91319  -2.462   0.546   2.896 -2.3519  0.6980 -2.3313
  692MOL0     H91320  -2.674   0.581   2.837  1.9223 -0.3230 -0.0930
  692MOL0     H91321  -2.716   0.679   2.982  0.6433  0.5874 -0.5110
  692MOL0     H91322  -2.674   0.485   3.121  0.5648 -1.2158  0.1287
  692MOL0     H91323  -2.813   0.473   3.013 -0.6301  0.3963 -0.0691
  692MOL0     H91324  -2.555   0.319   2.942  1.1502  2.6929 -2.9726
  692MOL0     H91325  -2.686   0.356   2.832  0.4596  0.1745 -0.1775
  692MOL0     H91326  -1.840   0.861   2.757 -0.3668  1.6881 -0.3786
  692MOL0     H91327  -1.648   0.766   2.689  0.6852  0.2049  0.3424
  692MOL0     H91328  -1.500   0.301   2.262  1.9479  0.0395 -2.6172
  692MOL0     H91329  -1.305   0.168   2.278  0.3575 -0.0438 -0.9938
  692MOL0     H91330   0.775   0.255   2.198  0.9015  1.1321 -0.0956
  692MOL0     H91331   0.982   0.189   2.297 -1.9425 -1.9991 -0.2463
  692MOL0     H91332   1.239   0.157   2.691  0.8571 -1.5304 -0.1046
  692MOL0     H91333   1.463   0.101   2.769 -1.0329  0.7650  1.4671
  692MOL0     H91334   1.844   0.362   2.683  2.6875 -0.0419  1.4536
  692MOL0     H91335   1.823   0.223   2.567  0.6084 -1.6478 -0.0603
  692MOL0     H91336   1.933   0.087   2.760  1.0646 -0.8860 -1.7098
  692MOL0     H91337   2.026   0.190   2.668 -1.6825 -0.9622 -0.6277
  692MOL0     H91338   1.998   0.362   2.835  1.4748 -0.1647 -0.5375
  692MOL0     H91339   2.103   0.243   2.889 -0.1246  3.1135  1.0378
  692MOL0     H91340   1.956   0.280   3.078 -2.4204  1.0611  0.8151
  692MOL0     H91341   1.811   0.297   2.973 -0.3863 -0.7105 -1.8250
  692MOL0     H91342   1.807  -0.126   3.020 -2.3166  0.7138 -2.0756
  692MOL0     H91343   1.652   0.381   2.506  0.9097 -2.6469 -0.9362
  692MOL0     H91344   1.440   0.444   2.426  0.7181 -0.6416 -0.2658
  693MOL0     O91345  11.283   7.024   9.652  0.8340  0.2933  0.6489
  693MOL0     C91346  11.362   7.099   9.701  0.1419 -0.1562 -0.5259
  693MOL0     O91347  11.332   7.213   9.763  0.3361  0.0298 -0.0640
  693MOL0     C91348  11.201   7.261   9.777 -0.3379  0.8383  0.7066
  693MOL0     C91349  11.069   7.203   9.727 -0.5960 -0.9150 -0.1907
  693MOL0     C91350  10.949   7.275   9.740  0.0066 -0.0687  0.6850
  693MOL0     C91351  10.942   7.399   9.810  0.1970 -0.6031  0.0026
  693MOL0     O91352  10.835   7.477   9.846 -0.5144  1.0442 -0.4699
  693MOL0     C91353  10.704   7.426   9.843 -0.0965 -0.0207  0.0557
  693MOL0     C91354  10.597   7.526   9.893  0.1801  0.0813  0.5274
  693MOL0     C91355  10.458   7.472   9.876 -0.0132  0.5864  0.2817
  693MOL0     C91356  10.364   7.584   9.931 -0.7046  0.5240  0.5967
  693MOL0     C91357  10.222   7.528   9.969  0.4473 -0.2502  0.5350
  693MOL0     C91358  10.119   7.630   9.936  0.3001 -0.5450  0.1545
  693MOL0     C91359   9.984   7.585   9.984  0.6749 -0.2259 -0.1399
  693MOL0     C91360   9.937   7.678  10.103 -0.1838  0.0259  1.0018
  693MOL0     N91361   9.794   7.659  10.113  0.1941  0.0189  0.5089
  693MOL0     C91362   9.726   7.573  10.197  0.3791 -0.2293  0.9429
  693MOL0     C91363   9.599   7.573  10.161 -0.0759  0.3871  0.1030
  693MOL0     C91364   9.490   7.487  10.219  0.1112 -0.2655  0.1206
  693MOL0     C91365   9.352   7.559  10.237 -0.1928 -0.5391  0.3506
  693MOL0     C91366   9.293   7.616  10.111 -0.2156 -0.1678 -0.0626
  693MOL0     C91367   9.136   7.636  10.135 -0.2060 -0.2499  0.2491
  693MOL0     O91368   9.066   7.517  10.097  0.1551  0.3514 -0.5934
  693MOL0     C91369   8.938   7.527  10.059 -0.2827  0.0640  0.8409
  693MOL0     C91370   8.851   7.633  10.098 -0.8532  0.0510  1.4024
  693MOL0     C91371   8.719   7.631  10.055 -0.1262  0.4685 -1.1043
  693MOL0     C91372   8.664   7.535   9.967 -0.7010  0.2722  0.3471
  693MOL0     C91373   8.523   7.550   9.915  0.5233 -0.9626 -0.4738
  693MOL0     O91374   8.440   7.657   9.962 -0.0595  0.1154 -0.5778
  693MOL0     C91375   8.309   7.663   9.909  0.4146  1.0131  0.7935
  693MOL0     C91376   8.194   7.632   9.984  0.2242  0.8642  0.1855
  693MOL0     C91377   8.067   7.675   9.943 -0.2737  0.2473  0.3751
  693MOL0     C91378   8.040   7.724   9.815 -0.5272  0.3900  0.4249
  693MOL0     O91379   7.910   7.773   9.783  0.1832 -1.8162 -0.5277
  693MOL0     C91380   7.845   7.727   9.665  0.2169 -0.2948  0.4079
  693MOL0     C91381   7.775   7.596   9.707 -0.2420  0.3720 -0.4834
  693MOL0     C91382   7.693   7.549   9.580  0.8492 -0.3848 -0.1170
  693MOL0     C91383   7.593   7.438   9.607  0.2149  0.0781  0.7154
  693MOL0     C91384   7.541   7.380   9.482  0.1442  0.5157 -1.0270
  693MOL0     C91385   7.429   7.277   9.499 -1.0054  0.0222  0.5087
  693MOL0     C91386   7.287   7.331   9.500  0.0302  0.3003 -0.3240
  693MOL0     C91387   7.181   7.224   9.444 -0.3555 -0.8768 -0.5673
  693MOL0    Cl91388   7.037   7.313   9.402 -0.2825  0.2076 -0.7058
  693MOL0     C91389   8.158   7.736   9.726  0.2725 -0.1300 -0.1724
  693MOL0     C91390   8.286   7.714   9.781  0.6702 -0.2678 -1.0952
  693MOL0     O91391   8.491   7.480   9.825 -0.1625  0.0097  0.0372
  693MOL0     C91392   8.752   7.435   9.927  0.7540  0.5953 -0.4697
  693MOL0     C91393   8.880   7.428   9.977 -0.0242  0.3026 -0.4792
  693MOL0     N91394   9.587   7.670  10.057  0.6153  0.1147  0.0640
  693MOL0     N91395   9.703   7.723  10.035  0.3083  0.3492  0.1254
  693MOL0     C91396  11.066   7.450   9.860 -0.4011  0.2831  0.1764
  693MOL0     C91397  11.189   7.390   9.842 -0.4778  0.7237  0.3359
  693MOL0     C91398  11.510   7.069   9.683 -0.7948  0.1390 -0.4764
  693MOL0     C91399  11.609   7.154   9.731 -0.1669 -0.8295 -0.2511
  693MOL0     C91400  11.744   7.120   9.715 -0.4087  0.3417 -0.0895
  693MOL0     C91401  11.789   7.002   9.666  0.4188  0.2645  0.0967
  693MOL0     O91402  11.923   6.967   9.642  0.1221  0.3149  0.2138
  693MOL0     C91403  11.972   6.869   9.545  0.3407 -1.4783  0.3004
  693MOL0     C91404  12.123   6.849   9.554 -0.6982  0.0493  0.2798
  693MOL0     C91405  12.164   6.824   9.705 -0.7006 -0.5102  0.2215
  693MOL0     C91406  12.094   6.699   9.767 -0.2101  0.1714 -0.0785
  693MOL0     C91407  12.186   6.582   9.788 -0.7971 -0.8562 -0.0924
  693MOL0     C91408  12.273   6.503   9.795 -0.5257 -0.6528 -0.0050
  693MOL0     C91409  11.688   6.915   9.622 -0.5330  0.0498 -0.3606
  693MOL0     C91410  11.551   6.946   9.633 -0.4871  0.5506 -0.8617
  693MOL0     H91411  11.057   7.102   9.687  0.4729 -1.4337  0.7657
  693MOL0     H91412  10.858   7.226   9.707 -0.4729 -0.6309  2.6761
  693MOL0     H91413  10.692   7.345   9.915  2.9844  0.1337  0.8535
  693MOL0     H91414  10.682   7.387   9.743  2.3672 -3.5497  0.7106
  693MOL0     H91415  10.603   7.622   9.840  0.6744 -0.4345 -0.3788
  693MOL0     H91416  10.628   7.541   9.997  0.7263 -1.9307  0.6958
  693MOL0     H91417  10.442   7.384   9.939  0.6936 -0.4469 -0.9311
  693MOL0     H91418  10.427   7.447   9.774 -1.0971  2.2053  0.1657
  693MOL0     H91419  10.417   7.641  10.009 -0.2639  0.6902  0.1831
  693MOL0     H91420  10.351   7.651   9.845 -2.2916  0.5882  0.8588
  693MOL0     H91421  10.222   7.497  10.075 -1.8181 -0.0526  0.6373
  693MOL0     H91422  10.200   7.440   9.908 -1.9634 -2.1310  3.7525
  693MOL0     H91423  10.116   7.632   9.826 -2.3228  3.1766  0.1025
  693MOL0     H91424  10.150   7.727   9.975  6.8448 -1.6257 -1.1325
  693MOL0     H91425   9.914   7.596   9.901  1.0047 -1.2054 -0.5572
  693MOL0     H91426   9.988   7.483  10.023  1.3406  0.0424  0.5243
  693MOL0     H91427   9.950   7.777  10.058 -1.9459 -1.3767 -3.1442
  693MOL0     H91428   9.977   7.655  10.202 -1.0318 -2.8540  0.7568
  693MOL0     H91429   9.777   7.513  10.272  1.4159 -1.0738 -0.3799
  693MOL0     H91430   9.525   7.445  10.314  1.4505  3.1095  1.2812
  693MOL0     H91431   9.478   7.408  10.145 -1.5218 -0.0545  0.1230
  693MOL0     H91432   9.373   7.645  10.302  0.0731  0.8792 -1.5188
  693MOL0     H91433   9.289   7.485  10.287 -1.0120  1.2799  2.1696
  693MOL0     H91434   9.323   7.721  10.105 -1.0426  0.0267 -1.0640
  693MOL0     H91435   9.332   7.567  10.021  1.9102  2.2193 -0.5949
  693MOL0     H91436   9.104   7.725  10.080  2.4425  1.9799  2.0594
  693MOL0     H91437   9.129   7.656  10.242 -0.9367 -5.4785  1.4538
  693MOL0     H91438   8.876   7.719  10.159 -0.6549  1.2415 -0.3142
  693MOL0     H91439   8.656   7.702  10.106  2.2278  0.3031  2.3787
  693MOL0     H91440   8.196   7.587  10.083  0.1461  2.1439  0.7878
  693MOL0     H91441   7.989   7.668  10.017 -3.8107  1.3795 -2.8829
  693MOL0     H91442   7.918   7.721   9.584  1.7457  2.7002  1.4071
  693MOL0     H91443   7.763   7.798   9.649 -1.9101 -2.3280  1.5019
  693MOL0     H91444   7.702   7.610   9.787  0.1772 -3.1799  0.7139
  693MOL0     H91445   7.847   7.520   9.739  0.0024  0.1955 -1.4303
  693MOL0     H91446   7.755   7.498   9.506 -0.2314 -0.4920 -0.9840
  693MOL0     H91447   7.646   7.640   9.542  0.4919  0.2316  1.6907
  693MOL0     H91448   7.654   7.359   9.652  1.6994 -1.1128 -2.9197
  693MOL0     H91449   7.519   7.469   9.681  0.7118 -1.0868  1.7301
  693MOL0     H91450   7.631   7.338   9.435  2.0649  2.9052  0.3089
  693MOL0     H91451   7.513   7.468   9.423  1.5331  2.7797  1.5199
  693MOL0     H91452   7.446   7.223   9.592  1.0518 -2.6017 -1.2493
  693MOL0     H91453   7.426   7.211   9.412 -5.5049  0.0081  0.4280
  693MOL0     H91454   7.255   7.365   9.599  1.3810  2.7485 -0.6411
  693MOL0     H91455   7.272   7.421   9.440  1.8646 -0.1103 -1.4727
  693MOL0     H91456   7.150   7.141   9.508 -0.1244 -1.0339 -0.6589
  693MOL0     H91457   7.216   7.168   9.357  0.5466 -0.4620 -0.4870
  693MOL0     H91458   8.145   7.764   9.621  0.1613 -5.3427 -1.8021
  693MOL0     H91459   8.376   7.730   9.722 -0.4797  1.7652 -2.4259
  693MOL0     H91460   8.714   7.357   9.860  1.7040 -0.8512  0.6050
  693MOL0     H91461   8.934   7.344   9.934  0.8998  0.6443 -0.0154
  693MOL0     H91462  11.068   7.534   9.929 -0.5544 -1.4083  2.3273
  693MOL0     H91463  11.287   7.423   9.876  0.4623 -0.9464 -0.6440
  693MOL0     H91464  11.571   7.251   9.762  0.4608  0.5034 -3.2744
  693MOL0     H91465  11.821   7.180   9.763  2.1889 -2.3999 -0.5702
  693MOL0     H91466  11.959   6.907   9.443  3.5960  3.2202  1.2793
  693MOL0     H91467  11.921   6.774   9.559  0.7151 -1.9627 -1.3478
  693MOL0     H91468  12.156   6.768   9.489  1.8630 -0.5119  2.1450
  693MOL0     H91469  12.172   6.939   9.514  1.0726 -0.2545  1.7045
  693MOL0     H91470  12.121   6.906   9.764 -2.0262  0.9224 -2.5712
  693MOL0     H91471  12.273   6.834   9.705 -0.7080 -0.3746  0.7703
  693MOL0     H91472  12.057   6.728   9.866  1.1721  1.6147  0.0464
  693MOL0     H91473  12.010   6.669   9.703 -0.3956 -3.3368  1.5650
  693MOL0     H91474  12.358   6.438   9.796  0.7321  0.7877 -2.9391
  693MOL0     H91475  11.712   6.815   9.588 -0.8959 -0.5677  1.1049
  693MOL0     H91476  11.469   6.883   9.599 -1.7009  1.2985  0.5660
  694MOL0     O91477   3.312  10.162   5.434  0.6451  0.4204  0.2816
  694MOL0     C91478   3.367  10.058   5.394 -0.5639  0.1931  0.5930
  694MOL0     O91479   3.299   9.945   5.345 -0.0528  0.0834 -0.5859
  694MOL0     C91480   3.163   9.929   5.372  1.3290  0.0551  0.2241
  694MOL0     C91481   3.114   9.949   5.500  0.4413 -0.0617 -1.4562
  694MOL0     C91482   2.975   9.944   5.518  0.8513  0.1774 -0.3986
  694MOL0     C91483   2.888   9.908   5.414  0.9437  0.3138  0.6312
  694MOL0     O91484   2.756   9.889   5.431 -0.4426  0.3363 -0.4553
  694MOL0     C91485   2.703   9.962   5.541  0.7095 -0.1857  0.2205
  694MOL0     C91486   2.546   9.952   5.541 -0.7662 -0.0392  0.0647
  694MOL0     C91487   2.453  10.052   5.616  0.0202 -0.3379 -0.1918
  694MOL0     C91488   2.310  10.000   5.623 -0.9295 -0.1868  0.1467
  694MOL0     C91489   2.228  10.079   5.726 -0.8413 -0.5438 -1.0241
  694MOL0     C91490   2.206  10.219   5.689 -0.7733  0.8879 -0.3232
  694MOL0     C91491   2.095  10.281   5.772  0.6929 -0.2701  0.5390
  694MOL0     C91492   1.948  10.242   5.749 -0.5144  0.3963  0.3568
  694MOL0     N91493   1.904  10.104   5.778  0.4020  0.1134 -0.2341
  694MOL0     C91494   1.860  10.064   5.902 -0.0483  0.1178 -0.5769
  694MOL0     C91495   1.779   9.958   5.867 -0.1023  0.5766  0.1253
  694MOL0     C91496   1.676   9.896   5.953  0.1078  0.1032  0.3201
  694MOL0     C91497   1.541   9.973   5.938  0.8356  0.4616  0.5000
  694MOL0     C91498   1.475   9.947   5.812  0.2628 -0.6672  0.2695
  694MOL0     C91499   1.458   9.799   5.769  0.0892 -1.3875  0.5071
  694MOL0     O91500   1.391   9.801   5.643  0.7258 -0.2289  0.1761
  694MOL0     C91501   1.267   9.738   5.625  0.2077 -0.9456 -0.1032
  694MOL0     C91502   1.204   9.643   5.706  0.3050 -0.4656 -0.9406
  694MOL0     C91503   1.075   9.591   5.679 -0.2093 -0.1239 -0.3913
  694MOL0     C91504   1.003   9.616   5.563 -0.3207  0.7751  0.3794
  694MOL0     C91505   0.875   9.554   5.532 -0.9603 -0.4142 -0.2533
  694MOL0     O91506   0.826   9.460   5.608 -0.6462 -0.1716 -0.1287
  694MOL0     C91507   0.690   9.427   5.618 -0.2063  0.4481 -0.1876
  694MOL0     C91508   0.576   9.491   5.566 -0.3875  0.3701 -0.0889
  694MOL0     C91509   0.453   9.446   5.581 -0.0838  0.0590 -0.2765
  694MOL0     C91510   0.426   9.339   5.667 -0.5098 -0.1764  0.6632
  694MOL0     O91511   0.302   9.294   5.688 -0.8468 -0.2289  0.1311
  694MOL0     C91512   0.192   9.343   5.616  0.6484 -0.3239 -0.5203
  694MOL0     C91513   0.073   9.286   5.681 -0.0264 -0.6010 -0.5731
  694MOL0     C91514   0.063   9.140   5.640  0.0392 -0.4720 -0.6691
  694MOL0     C91515  -0.049   9.078   5.722  1.0013  0.2595 -0.5024
  694MOL0     C91516  -0.074   8.934   5.677  0.0639  0.1348  1.0399
  694MOL0     C91517  -0.197   8.869   5.737 -0.5036  0.2280  0.5050
  694MOL0     C91518  -0.219   8.729   5.682  0.2251  0.2884 -0.1331
  694MOL0     C91519  -0.361   8.679   5.697  0.3377  0.0063  0.5264
  694MOL0    Cl91520  -0.399   8.633   5.866 -0.0709 -0.0310 -0.0221
  694MOL0     C91521   0.535   9.282   5.740 -0.4588  0.9505 -0.0290
  694MOL0     C91522   0.669   9.316   5.706  0.2885 -1.0732  0.5526
  694MOL0     O91523   0.824   9.601   5.427  0.2453  1.0470 -0.0555
  694MOL0     C91524   1.067   9.717   5.484 -0.9557 -0.3346 -0.2193
  694MOL0     C91525   1.194   9.776   5.516 -0.7776  0.3861  0.9901
  694MOL0     N91526   1.797   9.920   5.736 -0.4381 -0.3293  0.1962
  694MOL0     N91527   1.884   9.999   5.687 -0.3828 -1.2131 -0.4964
  694MOL0     C91528   2.934   9.884   5.286 -1.0950 -0.0949  0.3072
  694MOL0     C91529   3.070   9.896   5.265  0.1551 -0.3739 -0.0927
  694MOL0     C91530   3.519  10.049   5.386 -0.0333 -0.1879  0.4235
  694MOL0     C91531   3.574   9.944   5.315  0.7296 -0.7843  0.2968
  694MOL0     C91532   3.711   9.936   5.293 -0.1693 -0.0527 -1.0596
  694MOL0     C91533   3.796  10.040   5.344  0.4577 -0.1633  1.5995
  694MOL0     O91534   3.929  10.020   5.306  0.3214  0.5021 -0.6897
  694MOL0     C91535   4.021  10.082   5.384 -0.4464 -0.2885 -0.8154
  694MOL0     C91536   4.152  10.007   5.365  0.3377  0.3255  0.3340
  694MOL0     C91537   4.278  10.064   5.431 -0.2017  0.5495  0.0170
  694MOL0     C91538   4.384   9.961   5.438 -0.3674  0.0028  0.4101
  694MOL0     C91539   4.434   9.924   5.306  0.0793  0.0101 -0.5777
  694MOL0     C91540   4.487   9.875   5.205  0.0243 -0.4499  0.1036
  694MOL0     C91541   3.746  10.152   5.406 -0.5602  0.1023 -0.0506
  694MOL0     C91542   3.605  10.148   5.429 -0.9983 -0.9773 -0.3450
  694MOL0     H91543   3.190   9.974   5.573 -1.6980 -0.7897  1.1850
  694MOL0     H91544   2.937   9.966   5.617  0.3843 -0.8586 -0.3388
  694MOL0     H91545   2.733  10.067   5.539  0.0472  0.1178  2.8476
  694MOL0     H91546   2.737   9.926   5.638 -0.7283 -0.2033  0.7309
  694MOL0     H91547   2.519   9.856   5.587 -2.0457  0.8631  1.2770
  694MOL0     H91548   2.524   9.952   5.434  4.3111 -1.4056 -1.2856
  694MOL0     H91549   2.457  10.149   5.565  2.0702 -0.2936 -0.0062
  694MOL0     H91550   2.482  10.076   5.719 -1.1054 -2.0270  0.5705
  694MOL0     H91551   2.249  10.002   5.532 -0.1608 -1.7331 -0.4462
  694MOL0     H91552   2.317   9.893   5.643  2.8158  0.0118  0.5904
  694MOL0     H91553   2.288  10.081   5.817  2.9757  0.8005 -3.3329
  694MOL0     H91554   2.132  10.032   5.745 -0.6413 -0.3756  0.4572
  694MOL0     H91555   2.168  10.228   5.587  0.2718  1.0454 -0.7152
  694MOL0     H91556   2.295  10.282   5.696  0.2752 -0.4601 -1.0121
  694MOL0     H91557   2.118  10.264   5.878 -1.1908  0.0337  1.0256
  694MOL0     H91558   2.101  10.390   5.759  1.6796 -0.4459 -0.7467
  694MOL0     H91559   1.926  10.255   5.643  0.5550 -0.9187 -0.0542
  694MOL0     H91560   1.887  10.320   5.795 -1.5217  0.0343 -0.3350
  694MOL0     H91561   1.858  10.102   6.003  0.6341 -4.8599  1.6294
  694MOL0     H91562   1.703   9.912   6.058 -0.2756 -0.8426  0.5731
  694MOL0     H91563   1.680   9.788   5.936  4.9380  0.1797 -0.5251
  694MOL0     H91564   1.569  10.079   5.938  4.2161 -0.3157  0.2228
  694MOL0     H91565   1.472   9.965   6.022  0.9671  3.7317  1.0585
  694MOL0     H91566   1.376   9.993   5.806  0.5411  0.0397  0.8864
  694MOL0     H91567   1.538   9.992   5.735 -0.9654  3.2947  1.3204
  694MOL0     H91568   1.408   9.753   5.855 -0.8162  3.2350  2.8101
  694MOL0     H91569   1.553   9.747   5.758  2.3759  2.6361 -1.0895
  694MOL0     H91570   1.234   9.616   5.806 -0.9060  1.9051  0.1552
  694MOL0     H91571   1.040   9.518   5.752  2.3353 -1.3202 -0.2745
  694MOL0     H91572   0.597   9.578   5.504  1.4233  1.0458  1.3798
  694MOL0     H91573   0.363   9.493   5.543 -1.1926 -0.3336  1.7280
  694MOL0     H91574   0.193   9.326   5.508 -0.8605  2.0003 -0.9853
  694MOL0     H91575   0.194   9.452   5.627  2.2926 -0.3145 -0.6381
  694MOL0     H91576  -0.012   9.349   5.652  0.6702  0.0150 -1.3037
  694MOL0     H91577   0.084   9.269   5.788 -1.5281 -3.1093 -0.7333
  694MOL0     H91578   0.161   9.099   5.666  0.4211  0.7269 -0.1278
  694MOL0     H91579   0.037   9.140   5.534 -3.2818 -2.1443  0.0199
  694MOL0     H91580  -0.023   9.070   5.828 -0.8904  1.4258  0.0995
  694MOL0     H91581  -0.135   9.144   5.706  0.9555  0.2537 -0.2849
  694MOL0     H91582   0.013   8.879   5.714  1.6620  0.5855 -1.8366
  694MOL0     H91583  -0.067   8.931   5.568  0.2988  2.8269  0.9055
  694MOL0     H91584  -0.286   8.929   5.717 -0.7032  0.7713  2.7106
  694MOL0     H91585  -0.196   8.856   5.846 -3.1747  1.5216  0.7646
  694MOL0     H91586  -0.189   8.721   5.578 -0.9357 -0.1008 -0.4504
  694MOL0     H91587  -0.169   8.661   5.752 -1.9017  1.5095  2.7897
  694MOL0     H91588  -0.377   8.593   5.631 -1.2253 -0.0501  0.9515
  694MOL0     H91589  -0.432   8.755   5.664 -0.6672 -0.8218  0.7139
  694MOL0     H91590   0.507   9.197   5.803  0.9831 -0.0589 -0.6810
  694MOL0     H91591   0.759   9.271   5.747  1.2745  0.3174 -0.0158
  694MOL0     H91592   1.021   9.755   5.394 -2.4465 -1.4791  0.0185
  694MOL0     H91593   1.232   9.858   5.456 -0.9849 -1.0936 -1.2831
  694MOL0     H91594   2.863   9.847   5.211 -0.1372 -2.3281  0.4137
  694MOL0     H91595   3.098   9.875   5.162 -2.6708 -0.0818 -0.9991
  694MOL0     H91596   3.511   9.864   5.276 -2.9823  2.1031 -0.1680
  694MOL0     H91597   3.730   9.848   5.232 -1.3065  0.2438 -1.8895
  694MOL0     H91598   3.994  10.088   5.490 -1.8385  2.1705 -1.2333
  694MOL0     H91599   4.031  10.182   5.341  0.0250  0.0062 -0.0482
  694MOL0     H91600   4.135   9.906   5.402  0.4995  0.7186  1.5534
  694MOL0     H91601   4.173   9.997   5.259 -1.9774 -2.4298  0.0242
  694MOL0     H91602   4.274  10.090   5.537  3.7868 -3.0860  1.3579
  694MOL0     H91603   4.319  10.151   5.379  0.6070  0.8985  1.2063
  694MOL0     H91604   4.473   9.990   5.494 -0.2603  0.5916 -0.0524
  694MOL0     H91605   4.343   9.871   5.484  3.2224 -1.7483  0.5347
  694MOL0     H91606   4.548   9.843   5.124 -1.2049 -3.2162  0.1667
  694MOL0     H91607   3.800  10.243   5.428 -2.1586  0.3095  3.9035
  694MOL0     H91608   3.556  10.241   5.455 -0.3802 -0.9260  0.7187
  695MOL0     O91609   7.308   4.082  10.342 -0.0145  0.1134 -0.5393
  695MOL0     C91610   7.296   3.994  10.430  0.8605  0.3919 -0.5863
  695MOL0     O91611   7.179   3.934  10.461  0.3125 -0.1631  0.3587
  695MOL0     C91612   7.063   3.980  10.399 -0.0835 -0.8997  0.5687
  695MOL0     C91613   7.034   3.960  10.263  0.4999  0.8869 -0.3298
  695MOL0     C91614   6.913   3.997  10.207  0.1564  0.6718  0.3060
  695MOL0     C91615   6.814   4.062  10.285  0.2951  0.8639 -0.0722
  695MOL0     O91616   6.711   4.107  10.221 -0.1422  0.2352 -0.3372
  695MOL0     C91617   6.604   4.171  10.293 -0.4793 -0.4886 -0.0098
  695MOL0     C91618   6.472   4.196  10.204 -0.3242  0.9294  0.2509
  695MOL0     C91619   6.343   4.226  10.277  0.1534 -0.6800  0.0526
  695MOL0     C91620   6.222   4.231  10.179  0.3962 -0.2829 -0.4173
  695MOL0     C91621   6.117   4.331  10.237  0.2237 -0.0419  0.3626
  695MOL0     C91622   6.013   4.367  10.127  0.2813 -0.4406 -0.0863
  695MOL0     C91623   5.909   4.458  10.193 -0.0225 -0.1602 -0.3342
  695MOL0     C91624   5.788   4.455  10.103  1.1127 -0.6640  0.0257
  695MOL0     N91625   5.681   4.503  10.190 -0.5973 -0.0391 -0.9358
  695MOL0     C91626   5.683   4.619  10.274 -0.8298 -0.0897  0.4579
  695MOL0     C91627   5.572   4.598  10.345 -0.2109  0.3056 -0.2920
  695MOL0     C91628   5.523   4.670  10.465  0.2418  0.1748 -0.0453
  695MOL0     C91629   5.534   4.575  10.593 -0.0336  0.2636 -0.0625
  695MOL0     C91630   5.569   4.651  10.715  0.6637  0.2757 -0.0147
  695MOL0     C91631   5.712   4.676  10.755  0.1815 -0.0527 -0.4057
  695MOL0     O91632   5.776   4.760  10.647  0.9301  1.0169  0.2288
  695MOL0     C91633   5.910   4.751  10.659  0.0650 -0.5352  1.3850
  695MOL0     C91634   5.976   4.658  10.589 -0.0633  0.6770 -0.8057
  695MOL0     C91635   6.119   4.662  10.600  0.1217  0.4644  0.0160
  695MOL0     C91636   6.186   4.749  10.683 -0.5760 -0.5592  0.3667
  695MOL0     C91637   6.333   4.738  10.695 -0.5573  1.1924  0.1125
  695MOL0     O91638   6.390   4.800  10.796  0.3200 -0.2047  0.4643
  695MOL0     C91639   6.527   4.821  10.795 -0.1071  1.0512 -0.0147
  695MOL0     C91640   6.608   4.704  10.812  0.0635  0.0420 -0.1886
  695MOL0     C91641   6.736   4.721  10.850 -0.4375 -0.6791 -0.1671
  695MOL0     C91642   6.783   4.849  10.873  0.6316 -0.4220 -0.2622
  695MOL0     O91643   6.908   4.850  10.918 -0.1832  0.7629 -0.2282
  695MOL0     C91644   6.996   4.960  10.883  0.6759 -0.0085 -0.1449
  695MOL0     C91645   7.026   4.969  10.728 -0.2982  0.0351 -0.0787
  695MOL0     C91646   7.075   4.842  10.666 -0.1182  0.1334 -0.1340
  695MOL0     C91647   7.112   4.856  10.515 -0.7592  0.2281 -0.8351
  695MOL0     C91648   7.260   4.907  10.512 -0.0409  0.0600  0.2372
  695MOL0     C91649   7.344   4.824  10.419  0.3551 -0.4726  0.2377
  695MOL0     C91650   7.492   4.866  10.413  0.5942  0.0475  0.5469
  695MOL0     C91651   7.573   4.859  10.542 -0.4346 -0.2371 -0.0877
  695MOL0    Cl91652   7.742   4.888  10.487 -0.1281  0.4087  0.0461
  695MOL0     C91653   6.710   4.963  10.858 -0.3897  0.3077 -0.1501
  695MOL0     C91654   6.580   4.945  10.817  1.2892  1.4102 -0.8621
  695MOL0     O91655   6.393   4.670  10.605 -0.3540 -0.2290 -0.1424
  695MOL0     C91656   6.107   4.840  10.758  0.6899  0.6226 -0.0200
  695MOL0     C91657   5.969   4.838  10.743 -0.2045  0.3231 -0.0276
  695MOL0     N91658   5.499   4.494  10.301  0.4387 -1.2943  0.8270
  695MOL0     N91659   5.567   4.437  10.206  0.2547 -0.3277 -0.4015
  695MOL0     C91660   6.845   4.084  10.420  0.2617 -0.4884 -0.5370
  695MOL0     C91661   6.966   4.045  10.478 -1.1857  1.3130 -1.1370
  695MOL0     C91662   7.417   3.937  10.489  0.9403 -0.3727  0.4585
  695MOL0     C91663   7.427   3.807  10.526  0.3576 -0.0641  0.4690
  695MOL0     C91664   7.554   3.749  10.571  0.1872 -0.0838 -1.2255
  695MOL0     C91665   7.663   3.826  10.575  0.1598 -0.9726 -0.0068
  695MOL0     O91666   7.778   3.766  10.613 -0.2526 -0.7716  0.3347
  695MOL0     C91667   7.892   3.853  10.636  0.2223 -0.6446  0.5685
  695MOL0     C91668   7.998   3.758  10.687  0.5077 -0.5590  0.1886
  695MOL0     C91669   8.132   3.809  10.702  0.5500  0.0466  0.3057
  695MOL0     C91670   8.186   3.758  10.844 -0.7429 -0.0504  0.2228
  695MOL0     C91671   8.339   3.762  10.847 -0.0667  0.4938 -0.5008
  695MOL0     C91672   8.456   3.744  10.852  0.4003 -0.0534 -0.2347
  695MOL0     C91673   7.652   3.963  10.543 -0.3824 -0.2273 -0.2824
  695MOL0     C91674   7.528   4.017  10.507  0.0521  0.6094 -0.4270
  695MOL0     H91675   7.115   3.911  10.209  0.1487  2.5290 -2.4726
  695MOL0     H91676   6.904   3.973  10.101 -1.4452 -0.9536  0.7519
  695MOL0     H91677   6.629   4.270  10.331 -2.2199 -0.1831  0.4118
  695MOL0     H91678   6.582   4.112  10.383  2.4973 -1.0888  0.4257
  695MOL0     H91679   6.453   4.101  10.153 -0.5732  1.9770 -1.6723
  695MOL0     H91680   6.495   4.272  10.129 -0.5636  0.7688  0.0122
  695MOL0     H91681   6.356   4.325  10.322 -3.3737  0.2118 -0.6092
  695MOL0     H91682   6.314   4.158  10.357 -1.1530  0.2205  0.3837
  695MOL0     H91683   6.258   4.260  10.080 -0.1622 -1.0019 -0.8429
  695MOL0     H91684   6.157   4.143  10.174 -2.2409  1.4961  0.2056
  695MOL0     H91685   6.159   4.428  10.265 -2.0384  0.9499  0.5235
  695MOL0     H91686   6.060   4.289  10.321  0.9184 -4.7077 -1.1854
  695MOL0     H91687   5.966   4.273  10.094 -1.7871  0.5525 -0.1466
  695MOL0     H91688   6.058   4.425  10.046 -2.8472  0.2983 -1.4565
  695MOL0     H91689   5.882   4.417  10.290  1.6557  2.2030  1.2567
  695MOL0     H91690   5.945   4.560  10.214  0.3546 -0.1047 -1.2096
  695MOL0     H91691   5.776   4.349  10.077  0.9565 -0.8158  0.6999
  695MOL0     H91692   5.802   4.522  10.018 -0.3268  3.5692  2.8081
  695MOL0     H91693   5.747   4.707  10.277 -0.5224 -0.3034  0.2713
  695MOL0     H91694   5.420   4.705  10.454 -0.0286 -0.9194 -1.1628
  695MOL0     H91695   5.579   4.763  10.480 -0.0950  0.3758 -0.0290
  695MOL0     H91696   5.606   4.497  10.564  1.9235  1.6768  0.7564
  695MOL0     H91697   5.433   4.535  10.603  0.1639 -0.7919 -1.8065
  695MOL0     H91698   5.524   4.750  10.699 -1.9162 -0.8618 -0.2570
  695MOL0     H91699   5.531   4.596  10.802  3.4888 -3.0980 -0.7189
  695MOL0     H91700   5.767   4.582  10.751  1.2144  0.4171  1.5728
  695MOL0     H91701   5.725   4.731  10.849 -2.3848  1.5633 -0.8726
  695MOL0     H91702   5.914   4.598  10.523 -0.8205  0.2376  0.2772
  695MOL0     H91703   6.176   4.582  10.553 -0.3592 -1.2632  2.2041
  695MOL0     H91704   6.568   4.603  10.811  2.2008 -0.9208  1.6669
  695MOL0     H91705   6.807   4.640  10.865  0.2300 -0.0663  0.0399
  695MOL0     H91706   7.094   4.944  10.928  1.5942  2.7297 -0.9532
  695MOL0     H91707   6.959   5.054  10.924  1.9570  0.8039 -0.8103
  695MOL0     H91708   7.100   5.048  10.715  2.3353 -2.2775  0.0648
  695MOL0     H91709   6.935   5.003  10.677  0.2893  0.2611 -1.0056
  695MOL0     H91710   6.992   4.771  10.660  1.0491 -1.3148 -0.0006
  695MOL0     H91711   7.157   4.795  10.721  1.2576  0.7602 -1.5598
  695MOL0     H91712   7.108   4.761  10.460  1.0754 -0.9232  0.8645
  695MOL0     H91713   7.057   4.929  10.455  0.2520  1.7352  0.0040
  695MOL0     H91714   7.296   4.905  10.615 -0.5941 -2.5808  0.4367
  695MOL0     H91715   7.268   5.014  10.487  0.8438  0.7757  3.1597
  695MOL0     H91716   7.305   4.834  10.318 -2.1552 -0.0828  1.1762
  695MOL0     H91717   7.324   4.720  10.444  0.5533 -0.9417 -1.4507
  695MOL0     H91718   7.544   4.806  10.339 -2.0619 -1.1540 -0.4641
  695MOL0     H91719   7.498   4.971  10.381 -1.6864  0.4429  1.2578
  695MOL0     H91720   7.565   4.763  10.594  2.1031 -1.2840 -1.4343
  695MOL0     H91721   7.540   4.931  10.617 -0.1508 -2.0016  1.8403
  695MOL0     H91722   6.751   5.063  10.868 -0.8842  0.8489 -2.7083
  695MOL0     H91723   6.512   5.028  10.806 -0.2184 -0.0028 -2.8173
  695MOL0     H91724   6.154   4.900  10.835 -1.3314  1.0844  0.9392
  695MOL0     H91725   5.907   4.911  10.795 -1.3344 -1.5061  1.3145
  695MOL0     H91726   6.778   4.151  10.473 -2.1993 -1.0120 -2.7844
  695MOL0     H91727   6.982   4.067  10.583  1.0759 -3.2940 -0.2846
  695MOL0     H91728   7.339   3.743  10.520 -0.8433  1.4947  0.9530
  695MOL0     H91729   7.567   3.643  10.591  1.1460  0.2622  0.1175
  695MOL0     H91730   7.868   3.930  10.710  0.9148 -0.1112  0.2485
  695MOL0     H91731   7.939   3.897  10.547  0.6929 -0.6721  0.8051
  695MOL0     H91732   7.952   3.707  10.771  1.6288 -1.1951  0.4255
  695MOL0     H91733   7.997   3.676  10.615  0.0098 -0.5170  0.1377
  695MOL0     H91734   8.130   3.918  10.688  1.9043  0.2047  1.1106
  695MOL0     H91735   8.192   3.764  10.623 -1.9574  0.1502 -1.7499
  695MOL0     H91736   8.150   3.818  10.928 -0.2593  2.6390 -1.3671
  695MOL0     H91737   8.149   3.657  10.864  0.3169 -0.1955  1.5776
  695MOL0     H91738   8.561   3.729  10.844  0.5388  0.5731  0.3428
  695MOL0     H91739   7.734   4.033  10.548 -0.4422 -0.1306 -0.6294
  695MOL0     H91740   7.536   4.123  10.484 -0.3331  0.8923  0.7137
  696MOL0     O91741   6.333   0.937   8.530  0.0040  0.1553 -0.1117
  696MOL0     C91742   6.389   0.927   8.640  0.1215 -0.2619 -0.4641
  696MOL0     O91743   6.315   0.902   8.754 -0.8430 -0.3890  0.0472
  696MOL0     C91744   6.181   0.931   8.766 -0.0940 -0.0017  0.3568
  696MOL0     C91745   6.089   0.839   8.706  0.5251  0.1468  0.1996
  696MOL0     C91746   5.949   0.863   8.708  0.2924  0.6101 -0.2915
  696MOL0     C91747   5.898   0.976   8.784  0.2598  0.2462 -0.0906
  696MOL0     O91748   5.771   1.023   8.802 -0.1774  0.0886 -0.3930
  696MOL0     C91749   5.663   0.956   8.734 -0.3789 -0.0340 -0.0298
  696MOL0     C91750   5.532   1.034   8.764 -0.5933  0.3775  0.2588
  696MOL0     C91751   5.430   0.976   8.665  0.0244  0.5314  0.1740
  696MOL0     C91752   5.297   1.039   8.711 -0.8192 -0.3393 -1.0237
  696MOL0     C91753   5.184   0.996   8.623 -0.4074 -0.0370 -0.6994
  696MOL0     C91754   5.050   1.040   8.672 -0.2322 -0.7493 -0.3513
  696MOL0     C91755   4.952   1.009   8.563  0.6580  0.0249 -0.4135
  696MOL0     C91756   4.799   1.052   8.590 -0.0762 -0.0267 -0.3998
  696MOL0     N91757   4.746   1.184   8.543 -0.4192  0.0018  0.2003
  696MOL0     C91758   4.626   1.226   8.595 -0.2294 -0.5083 -1.1220
  696MOL0     C91759   4.609   1.350   8.549 -0.1347  0.1371  0.2621
  696MOL0     C91760   4.507   1.453   8.597 -0.2388 -0.3974 -0.3412
  696MOL0     C91761   4.400   1.485   8.491  0.3415  0.8879 -0.9020
  696MOL0     C91762   4.411   1.619   8.428  0.7740  0.3297 -0.1428
  696MOL0     C91763   4.279   1.660   8.355  0.0511 -0.3580 -0.3265
  696MOL0     O91764   4.181   1.712   8.459 -0.2172 -0.8171  0.0909
  696MOL0     C91765   4.059   1.769   8.410  0.0100  0.2488  0.2969
  696MOL0     C91766   4.012   1.754   8.278 -0.0969 -0.3343  0.9585
  696MOL0     C91767   3.888   1.802   8.242 -0.7751 -0.7285  0.9824
  696MOL0     C91768   3.805   1.864   8.343 -0.0170  0.3422 -0.3255
  696MOL0     C91769   3.667   1.895   8.318  0.6622 -0.5459  0.6554
  696MOL0     O91770   3.627   1.895   8.184  0.4930  0.1999  0.2151
  696MOL0     C91771   3.494   1.902   8.159  0.1721 -1.0451 -0.9199
  696MOL0     C91772   3.432   1.780   8.160  0.3543  0.2934 -0.2490
  696MOL0     C91773   3.299   1.775   8.100  0.0384  0.0069 -0.4501
  696MOL0     C91774   3.237   1.875   8.028  0.6017  0.5850 -0.1547
  696MOL0     O91775   3.123   1.850   7.950  0.9252  0.9445 -0.0413
  696MOL0     C91776   3.001   1.928   7.968  0.0349  0.0534  0.2472
  696MOL0     C91777   2.894   1.844   8.051  0.5127 -0.9287  0.5022
  696MOL0     C91778   2.757   1.896   8.015  0.2090  0.9984 -0.0575
  696MOL0     C91779   2.645   1.786   8.021  0.2423  0.0498  0.5397
  696MOL0     C91780   2.504   1.834   8.004  0.0108 -0.2044  0.0417
  696MOL0     C91781   2.394   1.725   7.990  0.0219 -0.7580 -0.0272
  696MOL0     C91782   2.243   1.772   8.004 -1.0650 -0.0724  1.5151
  696MOL0     C91783   2.148   1.673   7.930  0.4827  0.9402 -0.1600
  696MOL0    Cl91784   2.162   1.510   7.999  0.5164  0.2346  0.0451
  696MOL0     C91785   3.310   1.994   8.031  0.4119 -1.6018 -0.0348
  696MOL0     C91786   3.435   2.008   8.091  0.2438 -0.0740  0.8855
  696MOL0     O91787   3.591   1.931   8.408  0.2459  0.1269  0.0559
  696MOL0     C91788   3.863   1.896   8.473 -0.4324 -0.2443 -0.4203
  696MOL0     C91789   3.992   1.842   8.500  0.3089  0.0813 -0.3782
  696MOL0     N91790   4.709   1.372   8.458  0.1754  0.6884  0.2634
  696MOL0     N91791   4.795   1.274   8.454  0.1814 -0.2643 -0.0611
  696MOL0     C91792   5.994   1.058   8.842  0.8802 -0.5237 -0.3452
  696MOL0     C91793   6.129   1.044   8.829  0.0608 -0.1542  0.2425
  696MOL0     C91794   6.533   0.923   8.642  0.6828 -0.1784  0.1081
  696MOL0     C91795   6.606   0.908   8.762 -0.5752 -0.2159  0.6950
  696MOL0     C91796   6.743   0.903   8.754 -0.4747  0.1535 -0.0815
  696MOL0     C91797   6.812   0.896   8.633 -0.7956 -0.1177 -0.3327
  696MOL0     O91798   6.954   0.884   8.644  0.1968 -0.6680 -0.2420
  696MOL0     C91799   7.001   0.748   8.659  0.1890 -0.5976 -0.6092
  696MOL0     C91800   7.153   0.758   8.669 -0.3781  0.1858 -0.5782
  696MOL0     C91801   7.228   0.629   8.703  0.2686  0.0729  0.1383
  696MOL0     C91802   7.360   0.607   8.635 -0.4045 -0.3625  0.4007
  696MOL0     C91803   7.461   0.702   8.697 -0.5063 -0.1696  0.4157
  696MOL0     C91804   7.524   0.779   8.766  0.5697 -0.9191  0.9732
  696MOL0     C91805   6.744   0.893   8.510 -0.3036 -0.8753 -0.5897
  696MOL0     C91806   6.607   0.921   8.517 -0.2928 -0.4988  0.3896
  696MOL0     H91807   6.124   0.748   8.658 -1.3916 -1.4707  1.7215
  696MOL0     H91808   5.880   0.791   8.666 -2.0165  1.8463  1.1214
  696MOL0     H91809   5.642   0.850   8.756 -1.1747  0.5568  2.4198
  696MOL0     H91810   5.684   0.956   8.627  0.7132 -1.9552  0.1265
  696MOL0     H91811   5.556   1.139   8.748 -1.8472  0.7592  0.8184
  696MOL0     H91812   5.510   1.021   8.870 -2.4327  1.3010  0.0094
  696MOL0     H91813   5.418   0.868   8.671  1.0248  0.4267  0.4477
  696MOL0     H91814   5.471   1.013   8.570  3.4274 -0.1434  1.2465
  696MOL0     H91815   5.273   1.016   8.815 -1.7311  2.3087 -0.5705
  696MOL0     H91816   5.298   1.147   8.696 -0.5431 -0.2385 -0.3366
  696MOL0     H91817   5.184   0.887   8.619  0.0594 -0.0516 -0.3860
  696MOL0     H91818   5.195   1.044   8.525  1.6898  2.6996  0.7228
  696MOL0     H91819   5.041   1.146   8.697 -0.8327 -0.9944  0.5166
  696MOL0     H91820   5.029   0.978   8.760 -0.6903 -2.2287 -1.4695
  696MOL0     H91821   4.973   1.045   8.462  1.2947 -2.4129 -1.2040
  696MOL0     H91822   4.949   0.900   8.561  0.3655  0.0171  0.1663
  696MOL0     H91823   4.771   1.041   8.695 -0.1867  0.3645 -0.3884
  696MOL0     H91824   4.740   0.979   8.533  0.9910  0.3395 -2.0341
  696MOL0     H91825   4.560   1.173   8.664  1.3393 -0.7516  0.2662
  696MOL0     H91826   4.553   1.548   8.625  2.4217 -2.4627  3.2710
  696MOL0     H91827   4.467   1.416   8.692  0.6770  2.7660  1.4178
  696MOL0     H91828   4.306   1.475   8.547  1.4986  2.4683  1.4582
  696MOL0     H91829   4.399   1.409   8.411  0.5295  1.9320 -1.9233
  696MOL0     H91830   4.423   1.701   8.499 -1.8898 -1.0275  2.0608
  696MOL0     H91831   4.501   1.619   8.366  0.8967  0.0251  0.0303
  696MOL0     H91832   4.247   1.577   8.291  0.8619  0.4064 -1.7771
  696MOL0     H91833   4.302   1.730   8.274  0.0307 -2.4782 -2.2814
  696MOL0     H91834   4.064   1.693   8.204  1.0108  0.1794  1.2941
  696MOL0     H91835   3.848   1.780   8.143 -0.5411 -1.4911  1.0445
  696MOL0     H91836   3.488   1.702   8.209  0.2732 -0.4856 -1.3629
  696MOL0     H91837   3.246   1.682   8.117  2.9929 -1.7090  0.1313
  696MOL0     H91838   2.968   1.957   7.868  1.5557 -0.3604 -0.4062
  696MOL0     H91839   3.009   2.027   8.013 -3.1747  0.5803 -0.1086
  696MOL0     H91840   2.904   1.841   8.160 -1.1250  1.7044  0.8356
  696MOL0     H91841   2.899   1.742   8.013  1.4110 -1.4994  2.0636
  696MOL0     H91842   2.751   1.918   7.908 -0.4190  1.1082 -0.0084
  696MOL0     H91843   2.733   1.984   8.076  0.1456 -0.3211  1.9108
  696MOL0     H91844   2.662   1.724   7.932  1.2753 -1.3175  1.6294
  696MOL0     H91845   2.660   1.720   8.107  1.4860  1.1640  1.2172
  696MOL0     H91846   2.502   1.895   7.913 -0.7950  1.5126  1.1653
  696MOL0     H91847   2.466   1.898   8.084  1.5135  0.9948 -0.1747
  696MOL0     H91848   2.399   1.656   8.075 -3.3802  0.5805  1.4505
  696MOL0     H91849   2.405   1.677   7.892  2.1714  2.5249 -1.5751
  696MOL0     H91850   2.213   1.804   8.104 -1.9188  1.6810  0.7547
  696MOL0     H91851   2.233   1.860   7.940  1.1792 -2.5952 -2.7622
  696MOL0     H91852   2.170   1.675   7.823  0.0331  1.1585 -0.2492
  696MOL0     H91853   2.043   1.702   7.942 -0.6764 -2.5355 -0.5850
  696MOL0     H91854   3.265   2.068   7.966  2.0121 -0.2207  0.3599
  696MOL0     H91855   3.497   2.097   8.084  1.7495 -1.1050  0.6163
  696MOL0     H91856   3.802   1.937   8.553 -0.5255 -2.1939  0.5497
  696MOL0     H91857   4.020   1.841   8.605 -0.6877  0.7360 -0.0910
  696MOL0     H91858   5.952   1.151   8.881 -1.2101 -1.0441 -1.2047
  696MOL0     H91859   6.185   1.127   8.870  0.1645  1.2999 -2.6412
  696MOL0     H91860   6.556   0.909   8.858 -3.1557  2.3239 -0.5274
  696MOL0     H91861   6.802   0.887   8.844  0.2976  0.0876 -0.5827
  696MOL0     H91862   6.989   0.690   8.566  1.3181  0.9861 -1.7989
  696MOL0     H91863   6.943   0.703   8.740 -1.7476  0.2387 -1.4968
  696MOL0     H91864   7.193   0.798   8.575  1.2672  1.0996  0.4484
  696MOL0     H91865   7.184   0.831   8.745 -1.1507 -0.1943  0.1143
  696MOL0     H91866   7.168   0.547   8.664  1.3286 -0.1852 -1.0421
  696MOL0     H91867   7.241   0.615   8.810  3.3783  0.6435 -0.0571
  696MOL0     H91868   7.393   0.503   8.637  1.7934  0.2582 -0.4847
  696MOL0     H91869   7.355   0.639   8.530 -1.3063  0.6394  0.7327
  696MOL0     H91870   7.568   0.854   8.829 -2.5679  0.2891  1.9220
  696MOL0     H91871   6.792   0.894   8.413 -0.1105 -1.0562 -0.4968
  696MOL0     H91872   6.558   0.936   8.421  2.0098  2.3777 -0.4689
  697MOL0     O91873   5.195   2.151   0.737 -0.4668  0.1741  0.8054
  697MOL0     C91874   5.169   2.172   0.855 -0.6272  0.5483 -0.0900
  697MOL0     O91875   5.269   2.185   0.950 -0.2733  0.3473  0.4441
  697MOL0     C91876   5.390   2.181   0.891  0.3822  0.1064  0.7770
  697MOL0     C91877   5.463   2.057   0.895  0.2648  0.6565  0.3702
  697MOL0     C91878   5.586   2.059   0.829 -0.1397  0.1054 -0.3568
  697MOL0     C91879   5.642   2.158   0.748  0.2729 -0.1845  0.2307
  697MOL0     O91880   5.763   2.142   0.687 -0.2355 -0.4663 -0.1438
  697MOL0     C91881   5.873   2.134   0.788 -0.3201  0.2515  0.4463
  697MOL0     C91882   5.998   2.173   0.722  1.1031  0.5400  0.1369
  697MOL0     C91883   6.114   2.171   0.832  0.0604 -0.2879 -0.0531
  697MOL0     C91884   6.252   2.191   0.773 -0.2651  0.3079 -0.1763
  697MOL0     C91885   6.358   2.221   0.874 -0.1888 -0.4540 -0.4731
  697MOL0     C91886   6.413   2.086   0.927  0.2632  0.1725 -0.3378
  697MOL0     C91887   6.502   2.094   1.058 -0.3397 -0.1952 -0.1894
  697MOL0     C91888   6.628   2.196   1.027  0.3783  0.4568 -0.3534
  697MOL0     N91889   6.733   2.137   0.951 -1.3935 -0.0858  0.8030
  697MOL0     C91890   6.816   2.205   0.864  0.3436 -0.8521  0.0637
  697MOL0     C91891   6.932   2.140   0.872  0.1138  0.6331  0.5576
  697MOL0     C91892   7.066   2.185   0.818 -0.1740 -0.4898  0.7687
  697MOL0     C91893   7.055   2.248   0.681 -0.7070  1.0178 -1.1342
  697MOL0     C91894   6.990   2.173   0.568 -0.2137 -0.1873  0.1697
  697MOL0     C91895   6.917   2.261   0.460 -0.1553  0.6293  0.7553
  697MOL0     O91896   6.795   2.304   0.518 -1.1192 -0.1524  0.2126
  697MOL0     C91897   6.683   2.331   0.443  0.3021  0.1622 -0.2123
  697MOL0     C91898   6.686   2.354   0.305  0.6655 -0.4250 -0.6721
  697MOL0     C91899   6.562   2.374   0.234  0.7132  0.2005  1.1154
  697MOL0     C91900   6.439   2.352   0.305  0.7657 -0.7782  1.0122
  697MOL0     C91901   6.304   2.373   0.229 -0.3963 -0.4772 -0.6816
  697MOL0     O91902   6.190   2.367   0.308 -0.2815  0.3206  0.4984
  697MOL0     C91903   6.069   2.394   0.253 -0.3508  0.2772  0.1062
  697MOL0     C91904   5.972   2.294   0.249 -0.2135  0.0263 -0.4085
  697MOL0     C91905   5.841   2.319   0.199 -0.0944 -0.1606 -0.4283
  697MOL0     C91906   5.816   2.448   0.142  0.3067  0.6652  0.0687
  697MOL0     O91907   5.700   2.477   0.090 -0.1621 -0.7818  0.1587
  697MOL0     C91908   5.638   2.374   0.018 -1.0741 -0.6336 -0.2246
  697MOL0     C91909   5.503   2.425  -0.035 -0.2558 -0.2252  0.0094
  697MOL0     C91910   5.410   2.321  -0.101 -0.3148 -0.5079  0.5962
  697MOL0     C91911   5.298   2.383  -0.182  0.7196 -0.4463 -0.0955
  697MOL0     C91912   5.211   2.467  -0.086  0.0800  0.3979  0.0374
  697MOL0     C91913   5.076   2.514  -0.134  0.7073  0.2833  0.5656
  697MOL0     C91914   4.985   2.591  -0.032 -0.0492 -0.4973 -0.0625
  697MOL0     C91915   4.865   2.658  -0.089 -0.0195 -0.4840  0.0592
  697MOL0    Cl91916   4.741   2.530  -0.123  0.2948  0.3896  0.2852
  697MOL0     C91917   5.915   2.548   0.150  0.2253  0.0812  0.7121
  697MOL0     C91918   6.043   2.516   0.200  0.4039 -0.2102 -0.4566
  697MOL0     O91919   6.307   2.373   0.109 -0.8623  0.1009 -0.5114
  697MOL0     C91920   6.436   2.338   0.442 -0.0188  0.1666 -0.0160
  697MOL0     C91921   6.560   2.329   0.517  0.5731  0.8194 -0.0120
  697MOL0     N91922   6.921   2.033   0.959 -0.2387  0.4289 -0.3498
  697MOL0     N91923   6.800   2.030   1.001 -1.0890 -0.9742  0.6219
  697MOL0     C91924   5.567   2.273   0.748  1.0055 -0.1235 -0.0187
  697MOL0     C91925   5.440   2.273   0.800  0.4008 -0.3458 -0.1918
  697MOL0     C91926   5.028   2.213   0.896  0.3445  0.7827 -0.1046
  697MOL0     C91927   4.917   2.183   0.813 -0.0609  0.2793  0.0675
  697MOL0     C91928   4.790   2.201   0.843 -0.8367  0.0111  0.4558
  697MOL0     C91929   4.761   2.244   0.971  0.2937 -0.1507  0.6943
  697MOL0     O91930   4.625   2.254   0.994 -0.4681 -0.4578 -0.5895
  697MOL0     C91931   4.585   2.256   1.130 -0.4863  0.7349  0.5524
  697MOL0     C91932   4.441   2.269   1.157  0.3847 -0.3237 -0.6145
  697MOL0     C91933   4.374   2.387   1.076 -0.1732  0.6787 -0.2980
  697MOL0     C91934   4.243   2.427   1.142 -0.7530 -0.1716  0.5508
  697MOL0     C91935   4.143   2.319   1.170  0.6306 -0.1486  0.6462
  697MOL0     C91936   4.047   2.245   1.178  0.8207 -0.3137  0.9195
  697MOL0     C91937   4.868   2.282   1.064  0.5642  0.1305  0.5894
  697MOL0     C91938   4.998   2.267   1.021  0.4536 -0.0503 -0.5474
  697MOL0     H91939   5.437   1.973   0.958  1.8577 -0.7712 -0.7605
  697MOL0     H91940   5.648   1.971   0.835  0.0761  0.2321 -0.6537
  697MOL0     H91941   5.874   2.036   0.837  1.0895 -0.0783 -0.2019
  697MOL0     H91942   5.843   2.203   0.868 -1.2088  0.1880  0.1803
  697MOL0     H91943   5.997   2.275   0.683  3.0505  1.2153  1.6722
  697MOL0     H91944   6.017   2.098   0.645  1.8400  1.3081 -0.4437
  697MOL0     H91945   6.107   2.085   0.899 -0.2774 -1.7070 -1.8304
  697MOL0     H91946   6.091   2.264   0.884 -0.0094 -0.8361  0.9162
  697MOL0     H91947   6.287   2.108   0.711  0.9232  0.9816 -0.4265
  697MOL0     H91948   6.249   2.278   0.708  2.1656 -0.7138 -1.7872
  697MOL0     H91949   6.300   2.272   0.952 -0.1998 -2.0030  0.5678
  697MOL0     H91950   6.436   2.285   0.832 -1.8511  1.7338 -0.4464
  697MOL0     H91951   6.471   2.036   0.849 -1.4177 -3.4912  0.4922
  697MOL0     H91952   6.324   2.028   0.953  1.0391 -1.1375 -0.4538
  697MOL0     H91953   6.452   2.145   1.141  1.7352  0.2502  0.8437
  697MOL0     H91954   6.532   1.996   1.094 -2.7607 -0.1527  2.3314
  697MOL0     H91955   6.684   2.224   1.117  2.1404  2.3704 -1.9359
  697MOL0     H91956   6.597   2.293   0.985 -1.8076  0.9645  2.1472
  697MOL0     H91957   6.805   2.295   0.804 -1.0754  0.1112  1.7019
  697MOL0     H91958   7.137   2.103   0.805 -1.9572 -2.0254  0.3371
  697MOL0     H91959   7.112   2.258   0.886  1.1046  0.6680 -1.2189
  697MOL0     H91960   7.156   2.273   0.645 -0.5586  0.7453 -0.9156
  697MOL0     H91961   7.020   2.346   0.715  0.5485  0.2957  2.7709
  697MOL0     H91962   7.071   2.113   0.527 -0.3216  0.3630 -0.8625
  697MOL0     H91963   6.915   2.105   0.610  1.2891 -1.9855  0.0982
  697MOL0     H91964   6.906   2.213   0.362 -0.8883  2.3746 -0.0616
  697MOL0     H91965   6.987   2.343   0.439 -1.2050  0.9587 -1.7722
  697MOL0     H91966   6.779   2.369   0.252  1.1515 -1.2735 -0.0815
  697MOL0     H91967   6.571   2.392   0.127  0.1207 -1.6730  0.7147
  697MOL0     H91968   5.984   2.201   0.304  1.4852  0.1179 -0.5754
  697MOL0     H91969   5.754   2.256   0.199  0.5461 -1.1567 -2.7045
  697MOL0     H91970   5.596   2.293   0.079 -1.8624 -0.9411 -1.1597
  697MOL0     H91971   5.700   2.350  -0.069  2.7116  1.3930  1.6407
  697MOL0     H91972   5.525   2.506  -0.105 -1.5548 -0.4362 -0.6870
  697MOL0     H91973   5.446   2.466   0.048 -1.0731  0.2889 -0.7823
  697MOL0     H91974   5.357   2.271  -0.020 -1.2461  1.9373  1.5998
  697MOL0     H91975   5.463   2.245  -0.159 -0.8135 -0.8082  0.5321
  697MOL0     H91976   5.339   2.463  -0.244 -2.3257  2.5063  1.3669
  697MOL0     H91977   5.234   2.321  -0.245 -0.7299  1.6731 -0.8048
  697MOL0     H91978   5.270   2.551  -0.047 -1.3575  1.5486 -0.1619
  697MOL0     H91979   5.183   2.402  -0.002  0.1007  2.6665  1.9173
  697MOL0     H91980   5.029   2.415  -0.146  0.1020  0.7402 -1.2058
  697MOL0     H91981   5.087   2.571  -0.227  4.5587  1.9682  1.8476
  697MOL0     H91982   4.947   2.514   0.036 -0.1407 -0.4487 -0.0573
  697MOL0     H91983   5.037   2.669   0.024 -3.8132  3.0490 -0.9900
  697MOL0     H91984   4.886   2.730  -0.168  1.3390  0.0200  0.8459
  697MOL0     H91985   4.836   2.730  -0.012  0.1885  0.4189 -0.6795
  697MOL0     H91986   5.914   2.649   0.111  1.1328 -1.0157 -2.4111
  697MOL0     H91987   6.124   2.588   0.193  0.2221 -0.1870 -3.1445
  697MOL0     H91988   6.344   2.337   0.499  2.2200 -1.6995  4.0295
  697MOL0     H91989   6.554   2.329   0.625  0.2914  1.2886 -0.0244
  697MOL0     H91990   5.603   2.364   0.701 -1.4965  0.9288 -0.0409
  697MOL0     H91991   5.382   2.365   0.792 -2.0754 -1.7949  0.1775
  697MOL0     H91992   4.924   2.128   0.720 -0.3232 -0.4067  0.4470
  697MOL0     H91993   4.717   2.166   0.771 -0.6548  2.0212 -0.7980
  697MOL0     H91994   4.632   2.339   1.184 -1.3305  0.0729  2.3986
  697MOL0     H91995   4.613   2.158   1.169 -0.3144  0.0133 -1.3075
  697MOL0     H91996   4.395   2.174   1.131  3.3927 -1.2952 -2.8868
  697MOL0     H91997   4.428   2.293   1.263  1.6766 -1.1757 -0.2385
  697MOL0     H91998   4.346   2.346   0.979 -3.0132 -0.9256  1.0569
  697MOL0     H91999   4.441   2.473   1.074  2.9930 -1.5874 -0.0800
  697MOL0     H92000   4.263   2.472   1.240  1.1487 -0.3749  0.2991
  697MOL0     H92001   4.196   2.507   1.085 -3.0686 -0.7542  1.5141
  697MOL0     H92002   3.968   2.177   1.155  3.1041 -2.7530 -0.2413
  697MOL0     H92003   4.847   2.300   1.169 -1.8454 -0.0492  0.1763
  697MOL0     H92004   5.075   2.289   1.093  0.6483  2.8159 -1.4983
  698MOL0     O92005   9.857  10.275   2.035  0.3523 -0.1887  0.6425
  698MOL0     C92006   9.774  10.186   2.000  0.5614 -0.6040  0.9468
  698MOL0     O92007   9.797  10.081   1.927  0.2144 -0.2838 -0.4747
  698MOL0     C92008   9.933  10.041   1.901 -0.7342  0.0796 -0.5265
  698MOL0     C92009  10.025  10.132   1.841  0.2500 -0.1362 -0.8079
  698MOL0     C92010  10.155  10.094   1.796 -0.2313  0.0152  0.2755
  698MOL0     C92011  10.195   9.958   1.808  0.1724  0.1525  0.2915
  698MOL0     O92012  10.313   9.916   1.763 -0.3985  0.5778  0.6994
  698MOL0     C92013  10.423  10.013   1.779  0.0526 -0.1243  0.2717
  698MOL0     C92014  10.561   9.941   1.823  0.1817 -0.0594  0.3635
  698MOL0     C92015  10.612   9.861   1.706  0.7097  0.3138 -0.1691
  698MOL0     C92016  10.727   9.762   1.744  0.6648  0.7197 -0.8461
  698MOL0     C92017  10.778   9.649   1.650  0.6996  0.6941  0.7443
  698MOL0     C92018  10.794   9.692   1.498 -0.3053  0.1639  0.1924
  698MOL0     C92019  10.897   9.807   1.489  1.2809  0.2427  0.0958
  698MOL0     C92020  10.974   9.823   1.357  0.5362 -0.2578  0.3631
  698MOL0     N92021  10.884   9.836   1.241 -0.2181 -0.2017  0.2654
  698MOL0     C92022  10.767   9.916   1.231  0.1135  0.7337  0.1890
  698MOL0     C92023  10.695   9.856   1.136  0.2371  0.4719 -0.2523
  698MOL0     C92024  10.556   9.883   1.083  0.1278  0.4519 -0.0238
  698MOL0     C92025  10.462   9.782   1.145  0.1673  0.1611 -0.9032
  698MOL0     C92026  10.318   9.783   1.095  0.6038  0.8002  0.1125
  698MOL0     C92027  10.304   9.712   0.952 -0.6798 -0.4624 -0.0498
  698MOL0     O92028  10.192   9.760   0.874  0.0532  0.0777 -0.2910
  698MOL0     C92029  10.074   9.685   0.885  0.3036  0.1385 -1.7141
  698MOL0     C92030  10.031   9.609   1.006 -0.2798  0.2552 -0.5954
  698MOL0     C92031   9.907   9.554   1.004 -0.0186 -0.1160 -0.2093
  698MOL0     C92032   9.823   9.553   0.889 -0.0977  1.3473 -0.1133
  698MOL0     C92033   9.683   9.499   0.898  0.2582 -0.6110 -0.1845
  698MOL0     O92034   9.658   9.407   0.991  0.0902  0.4417 -0.4726
  698MOL0     C92035   9.535   9.368   1.009  0.2969  0.3001  0.3897
  698MOL0     C92036   9.453   9.297   0.923  0.2602  0.4131 -1.0228
  698MOL0     C92037   9.332   9.245   0.967  0.1301  0.6708 -0.3443
  698MOL0     C92038   9.284   9.266   1.094  0.1300 -0.3727  0.1130
  698MOL0     O92039   9.146   9.250   1.110 -0.2569 -1.0045  0.0177
  698MOL0     C92040   9.102   9.208   1.239  0.1871 -0.5578 -0.7396
  698MOL0     C92041   8.979   9.122   1.229 -0.5185  0.6870  0.1359
  698MOL0     C92042   8.853   9.209   1.223  0.5419  0.2130  0.8006
  698MOL0     C92043   8.726   9.141   1.194 -0.7095  0.9022 -0.5216
  698MOL0     C92044   8.597   9.233   1.196  0.4301 -0.7252  0.1826
  698MOL0     C92045   8.486   9.172   1.113  0.4438 -0.0444 -0.4620
  698MOL0     C92046   8.378   9.263   1.058  0.8438  0.0257 -0.0075
  698MOL0     C92047   8.259   9.187   1.008  0.1981  0.5600  0.2427
  698MOL0    Cl92048   8.136   9.303   0.961  0.2815  0.6107  0.2775
  698MOL0     C92049   9.369   9.327   1.194  0.5053 -0.8883 -0.5623
  698MOL0     C92050   9.492   9.378   1.144 -0.3662 -0.1800 -0.8284
  698MOL0     O92051   9.597   9.557   0.833 -0.4368 -0.0661 -0.1822
  698MOL0     C92052   9.861   9.636   0.784  0.0631 -0.6662 -0.1593
  698MOL0     C92053   9.985   9.692   0.784 -0.2803 -0.4072 -0.3715
  698MOL0     N92054  10.763   9.739   1.091  1.2539 -0.2703 -0.0321
  698MOL0     N92055  10.877   9.732   1.147  0.5525  0.0592 -0.1306
  698MOL0     C92056  10.110   9.866   1.871 -0.0223 -0.1087 -0.6043
  698MOL0     C92057   9.983   9.904   1.916  0.3404 -0.5084  0.2898
  698MOL0     C92058   9.630  10.223   2.016  0.0189 -0.1350  0.1021
  698MOL0     C92059   9.529  10.173   1.936 -0.0815 -0.0603  0.0494
  698MOL0     C92060   9.394  10.211   1.953 -0.8915 -0.0417 -0.2123
  698MOL0     C92061   9.369  10.310   2.052  0.9191  0.5794 -0.2095
  698MOL0     O92062   9.243  10.366   2.056  0.1496  0.5926  0.7538
  698MOL0     C92063   9.228  10.488   2.131  0.5746 -0.0647 -0.7786
  698MOL0     C92064   9.076  10.531   2.137  0.3796  0.0051 -0.0527
  698MOL0     C92065   8.991  10.484   2.246 -0.7163  0.1371 -0.0540
  698MOL0     C92066   8.842  10.520   2.239 -0.3798 -0.6397  0.0401
  698MOL0     C92067   8.778  10.520   2.369  0.2452  0.3230 -0.7503
  698MOL0     C92068   8.733  10.520   2.478 -0.7152  0.3482 -0.3235
  698MOL0     C92069   9.470  10.351   2.147  0.2155  0.2264  0.0092
  698MOL0     C92070   9.606  10.310   2.131  0.6424  0.2971 -0.3494
  698MOL0     H92071   9.998  10.237   1.833  1.8144  0.1801 -2.7966
  698MOL0     H92072  10.222  10.169   1.753  1.8949 -1.3326  1.0642
  698MOL0     H92073  10.401  10.081   1.862 -0.4293  0.5801 -0.4223
  698MOL0     H92074  10.439  10.059   1.681 -3.5268  2.4484  0.7213
  698MOL0     H92075  10.543   9.870   1.904 -2.3216  0.5369  0.4165
  698MOL0     H92076  10.643  10.008   1.850  2.1340 -2.7130  1.4345
  698MOL0     H92077  10.662   9.923   1.631 -0.7275  0.7712 -0.7742
  698MOL0     H92078  10.527   9.805   1.667 -0.4974  0.5970  1.9026
  698MOL0     H92079  10.807   9.820   1.790 -1.6629  3.1054  0.4763
  698MOL0     H92080  10.695   9.705   1.832  3.0044 -0.0849 -0.4676
  698MOL0     H92081  10.712   9.563   1.657  1.9151 -0.4823 -1.3074
  698MOL0     H92082  10.875   9.622   1.691  0.5674  1.3988  1.5541
  698MOL0     H92083  10.694   9.712   1.458 -0.9640 -0.3753  1.5302
  698MOL0     H92084  10.826   9.603   1.443 -1.8496 -0.0558 -0.3971
  698MOL0     H92085  10.857   9.906   1.515  0.2997 -0.5670  1.7724
  698MOL0     H92086  10.976   9.785   1.561  0.2540 -1.2849  0.7809
  698MOL0     H92087  11.037   9.734   1.348  0.2088 -0.4058 -0.6370
  698MOL0     H92088  11.056   9.895   1.353  0.5601 -0.2316  1.2791
  698MOL0     H92089  10.735  10.008   1.279  0.9014  0.8148  0.5868
  698MOL0     H92090  10.547   9.872   0.975  1.1704 -0.2277 -0.0545
  698MOL0     H92091  10.508   9.977   1.111 -1.9746 -0.6599  0.3275
  698MOL0     H92092  10.457   9.807   1.251 -0.6860  1.8319 -1.2955
  698MOL0     H92093  10.518   9.691   1.122  2.4853  1.2945 -0.0083
  698MOL0     H92094  10.254   9.723   1.159 -0.9946  2.0705 -0.2228
  698MOL0     H92095  10.274   9.883   1.097 -0.3208  0.3891  0.6321
  698MOL0     H92096  10.304   9.603   0.953  0.2966 -0.4968 -1.0543
  698MOL0     H92097  10.394   9.731   0.892 -0.9241  1.5069  0.1369
  698MOL0     H92098  10.095   9.604   1.093 -2.0101  0.1681  0.7294
  698MOL0     H92099   9.855   9.508   1.087 -5.6727  1.7694 -2.2534
  698MOL0     H92100   9.484   9.273   0.821  0.0460  2.5412 -1.6349
  698MOL0     H92101   9.268   9.203   0.890 -2.6020  1.1537  1.5322
  698MOL0     H92102   9.074   9.292   1.304  2.5099  1.0096 -1.6464
  698MOL0     H92103   9.176   9.145   1.289 -0.5058  0.3389  1.5502
  698MOL0     H92104   8.968   9.050   1.310  1.2720  1.2903  0.9653
  698MOL0     H92105   8.998   9.059   1.141 -1.3587 -0.8568  1.0218
  698MOL0     H92106   8.871   9.288   1.150 -3.5221 -1.4095 -2.3343
  698MOL0     H92107   8.849   9.249   1.325  1.0582 -1.3977  1.4820
  698MOL0     H92108   8.749   9.093   1.098  4.1725 -0.2701  0.9311
  698MOL0     H92109   8.716   9.052   1.256  1.5927  0.0412 -1.2682
  698MOL0     H92110   8.614   9.335   1.161 -1.1340 -0.1978  0.8976
  698MOL0     H92111   8.573   9.247   1.302  1.9174  1.8022  0.2623
  698MOL0     H92112   8.424   9.104   1.171  3.5423 -0.4202  2.7972
  698MOL0     H92113   8.527   9.129   1.021  1.0113 -0.1439 -0.1711
  698MOL0     H92114   8.336   9.319   1.142  0.4852 -0.1109 -0.0923
  698MOL0     H92115   8.412   9.319   0.970 -1.8271 -0.1323 -1.2362
  698MOL0     H92116   8.220   9.115   1.080 -0.7229  0.1055 -0.6955
  698MOL0     H92117   8.293   9.131   0.921  1.3162 -0.1970  1.1280
  698MOL0     H92118   9.341   9.342   1.298 -2.8264 -0.7545 -1.3549
  698MOL0     H92119   9.547   9.439   1.215  0.4381  0.5482 -2.0220
  698MOL0     H92120   9.792   9.653   0.703  1.1063 -1.1920 -1.1838
  698MOL0     H92121  10.006   9.752   0.696 -2.8344 -3.0983 -3.0606
  698MOL0     H92122  10.144   9.766   1.896  0.5204  0.7749  2.6241
  698MOL0     H92123   9.920   9.836   1.972 -0.8060  1.5921  1.6613
  698MOL0     H92124   9.552  10.094   1.864 -1.5087  2.8381 -3.9792
  698MOL0     H92125   9.316  10.179   1.884 -0.8447  0.1338 -0.3457
  698MOL0     H92126   9.292  10.553   2.071  1.1832 -0.9889 -1.1613
  698MOL0     H92127   9.257  10.480   2.237 -1.1521  1.8774 -0.0955
  698MOL0     H92128   9.071  10.640   2.140 -1.7332  0.0081 -1.8565
  698MOL0     H92129   9.017  10.497   2.052 -0.9667  0.0761  0.8329
  698MOL0     H92130   9.041  10.522   2.336  1.6779 -3.4423  0.3318
  698MOL0     H92131   9.000  10.376   2.263 -3.1373  0.0481  1.2228
  698MOL0     H92132   8.835  10.621   2.196  3.0836 -0.6139 -0.7263
  698MOL0     H92133   8.781  10.460   2.171 -1.8570  0.6633  0.1468
  698MOL0     H92134   8.706  10.518   2.581 -4.0164  0.2914 -1.0951
  698MOL0     H92135   9.448  10.423   2.225 -0.8035 -0.2904  0.2056
  698MOL0     H92136   9.677  10.337   2.208  0.4818 -1.6458  0.5379
  699MOL0     O92137   8.016  10.231   0.451  0.3528 -0.0174 -0.2186
  699MOL0     C92138   8.016  10.356   0.426  0.1811  0.3092  0.3498
  699MOL0     O92139   7.933  10.416   0.335 -0.3926  0.2127  0.3526
  699MOL0     C92140   7.842  10.330   0.281  0.7351  0.3964  0.2073
  699MOL0     C92141   7.719  10.337   0.333  0.8102 -0.2229  0.3571
  699MOL0     C92142   7.629  10.227   0.314  0.1838 -0.3919  1.0569
  699MOL0     C92143   7.655  10.125   0.221  0.1769  0.6289  0.2547
  699MOL0     O92144   7.578  10.016   0.188  0.4469  0.1532 -0.1843
  699MOL0     C92145   7.439  10.041   0.215 -0.0909 -0.0369 -0.4636
  699MOL0     C92146   7.362   9.919   0.179  0.2905 -0.0017  0.1985
  699MOL0     C92147   7.207   9.932   0.181  0.3889  0.3416  0.0488
  699MOL0     C92148   7.139   9.826   0.101  0.4386 -0.5146  0.1053
  699MOL0     C92149   6.989   9.837   0.105 -0.2353 -0.1499  0.4787
  699MOL0     C92150   6.934   9.737   0.004  0.0334 -0.4775  0.4984
  699MOL0     C92151   6.783   9.730  -0.024 -0.2358 -0.8229  0.7710
  699MOL0     C92152   6.706   9.713   0.109  0.4528  0.5968  0.7549
  699MOL0     N92153   6.565   9.664   0.089 -1.0326 -0.3640  0.1091
  699MOL0     C92154   6.479   9.703  -0.010  0.0637 -0.1923 -0.2076
  699MOL0     C92155   6.380   9.609  -0.007 -0.2951  0.7078  0.3703
  699MOL0     C92156   6.281   9.594  -0.117 -0.4982 -1.4119 -0.4590
  699MOL0     C92157   6.149   9.546  -0.068 -0.0353  0.6123  0.4079
  699MOL0     C92158   6.043   9.578  -0.167 -0.2662  0.0873 -0.2738
  699MOL0     C92159   5.923   9.497  -0.142 -0.0533 -0.2150 -0.4939
  699MOL0     O92160   5.853   9.532  -0.016 -0.4155 -0.1648  0.3282
  699MOL0     C92161   5.722   9.570  -0.029 -0.1567  0.4832 -0.0946
  699MOL0     C92162   5.643   9.517   0.069 -0.3340  0.3279 -0.5965
  699MOL0     C92163   5.514   9.544   0.076  0.7454 -0.3549 -0.0188
  699MOL0     C92164   5.446   9.627  -0.018  0.0503 -0.0767  0.8331
  699MOL0     C92165   5.308   9.656  -0.023  0.1578  0.1594 -0.5417
  699MOL0     O92166   5.226   9.565   0.031  0.3851 -0.7664 -0.2525
  699MOL0     C92167   5.102   9.610   0.069 -0.3449 -0.1546 -0.4905
  699MOL0     C92168   5.065   9.739   0.113 -0.1774 -0.3865  0.4511
  699MOL0     C92169   4.934   9.773   0.139 -0.6237 -0.5230  0.4568
  699MOL0     C92170   4.833   9.680   0.138 -0.0241  0.1146 -0.6196
  699MOL0     O92171   4.713   9.725   0.179 -0.3712 -0.3590 -0.9327
  699MOL0     C92172   4.608   9.625   0.186  0.7030  0.2314 -0.2910
  699MOL0     C92173   4.488   9.701   0.237 -1.4552 -0.1231 -0.0678
  699MOL0     C92174   4.361   9.628   0.265 -0.0611  0.7611  0.0385
  699MOL0     C92175   4.264   9.720   0.316  0.7077 -0.1598 -0.5975
  699MOL0     C92176   4.137   9.665   0.370  0.2219 -0.1252  0.4215
  699MOL0     C92177   4.035   9.752   0.440 -0.5555 -0.1600  0.0612
  699MOL0     C92178   3.908   9.681   0.481 -0.1462  0.4357  0.0536
  699MOL0     C92179   3.780   9.757   0.442  0.0332 -0.7645  1.0501
  699MOL0    Cl92180   3.784   9.902   0.552  0.1325 -0.5863  0.0931
  699MOL0     C92181   4.863   9.546   0.096 -0.9700 -0.1692  0.2027
  699MOL0     C92182   5.005   9.520   0.055  0.4846  0.5801 -0.3800
  699MOL0     O92183   5.263   9.751  -0.091 -0.4464 -0.7708 -0.6694
  699MOL0     C92184   5.534   9.686  -0.121  0.6192 -0.7200 -0.1396
  699MOL0     C92185   5.669   9.655  -0.122 -0.0003 -0.5008 -0.8540
  699MOL0     N92186   6.407   9.517   0.101 -0.1542 -0.4828  0.3579
  699MOL0     N92187   6.515   9.553   0.159  0.7227 -0.9425  0.5578
  699MOL0     C92188   7.781  10.132   0.155 -0.2559  0.1476  0.6457
  699MOL0     C92189   7.879  10.229   0.188  0.4717 -0.1144  0.4488
  699MOL0     C92190   8.126  10.440   0.478  0.4336 -0.0165  0.2378
  699MOL0     C92191   8.232  10.392   0.555  0.1693  0.5861 -0.3567
  699MOL0     C92192   8.337  10.469   0.598 -0.7849  0.6344  0.0802
  699MOL0     C92193   8.340  10.605   0.567 -0.3810  0.3087 -0.8128
  699MOL0     O92194   8.443  10.676   0.621  0.0445 -0.1590  0.4637
  699MOL0     C92195   8.449  10.813   0.578  0.2588 -0.1446  0.4588
  699MOL0     C92196   8.569  10.892   0.625 -0.0657  0.4673  0.1346
  699MOL0     C92197   8.708  10.826   0.609 -0.3239  0.9246 -0.8758
  699MOL0     C92198   8.740  10.778   0.467  0.1618  0.2414  0.7368
  699MOL0     C92199   8.740  10.890   0.366 -0.4215  0.5632 -0.1403
  699MOL0     C92200   8.751  10.979   0.284 -0.1034 -0.3335  0.0705
  699MOL0     C92201   8.226  10.658   0.498 -0.1710 -0.1058 -0.2753
  699MOL0     C92202   8.123  10.581   0.452  0.3664  0.4567 -0.3798
  699MOL0     H92203   7.688  10.418   0.398  2.4456  1.7908 -1.2351
  699MOL0     H92204   7.530  10.229   0.357 -0.5666  2.4392 -0.4925
  699MOL0     H92205   7.407  10.112   0.137 -1.2853 -0.9974 -0.8717
  699MOL0     H92206   7.410  10.076   0.314  1.4178  2.1845 -0.7362
  699MOL0     H92207   7.391   9.841   0.250 -2.3857 -0.1485  1.2455
  699MOL0     H92208   7.376   9.885   0.076 -1.8847 -0.2468 -0.0577
  699MOL0     H92209   7.192  10.034   0.144  4.2188  0.9733 -0.2253
  699MOL0     H92210   7.173   9.916   0.284  0.7359  0.7493  0.2312
  699MOL0     H92211   7.186   9.820   0.002  1.3270  1.3162  0.3818
  699MOL0     H92212   7.168   9.731   0.148 -0.2822 -2.3222 -2.8283
  699MOL0     H92213   6.959   9.941   0.091  0.8646  0.2097  0.7246
  699MOL0     H92214   6.959   9.806   0.206 -0.9173 -1.5854 -0.1307
  699MOL0     H92215   6.966   9.637   0.037  3.7699  0.5799  0.5679
  699MOL0     H92216   6.975   9.753  -0.096 -3.2172 -1.4442 -1.1317
  699MOL0     H92217   6.756   9.830  -0.061  0.5173 -0.9440 -0.1712
  699MOL0     H92218   6.758   9.643  -0.087 -0.8976 -0.0329 -0.0936
  699MOL0     H92219   6.690   9.811   0.155 -1.8021  0.9263 -0.5552
  699MOL0     H92220   6.761   9.650   0.180 -0.0916 -0.9688 -0.1553
  699MOL0     H92221   6.498   9.785  -0.079  1.5254 -1.9619 -2.0057
  699MOL0     H92222   6.318   9.527  -0.195 -2.7852 -1.5133 -1.5486
  699MOL0     H92223   6.271   9.693  -0.162 -2.2261 -1.0645  0.5766
  699MOL0     H92224   6.129   9.593   0.029 -2.0589  0.0611  0.3040
  699MOL0     H92225   6.162   9.438  -0.055  0.0560  0.5387 -0.2724
  699MOL0     H92226   6.013   9.683  -0.173  0.3569  0.3330  0.6866
  699MOL0     H92227   6.071   9.562  -0.271  1.3080 -0.3090  0.1841
  699MOL0     H92228   5.942   9.390  -0.148 -1.4188 -0.4405 -1.1140
  699MOL0     H92229   5.856   9.510  -0.227 -1.8063  0.8612  0.9674
  699MOL0     H92230   5.677   9.451   0.148  1.5501  0.4512 -1.2582
  699MOL0     H92231   5.466   9.496   0.160  0.3763  0.0237 -0.0109
  699MOL0     H92232   5.138   9.819   0.126  0.7358 -0.9927 -0.7731
  699MOL0     H92233   4.892   9.866   0.177 -0.0449  0.4479 -1.1439
  699MOL0     H92234   4.637   9.542   0.251 -1.0050  0.4597  0.8085
  699MOL0     H92235   4.574   9.571   0.097 -0.3877  0.8221 -0.2554
  699MOL0     H92236   4.462   9.784   0.171 -1.3659  0.9190  1.1752
  699MOL0     H92237   4.524   9.750   0.327 -0.6971 -0.9883  0.1141
  699MOL0     H92238   4.383   9.552   0.341  0.1083 -0.8511 -1.5462
  699MOL0     H92239   4.327   9.578   0.173 -1.1354  0.6274  0.4921
  699MOL0     H92240   4.305   9.767   0.406 -0.7754 -3.6590  2.1751
  699MOL0     H92241   4.235   9.795   0.242  1.6819 -0.2163 -1.0406
  699MOL0     H92242   4.161   9.584   0.440 -0.7759 -1.3927 -0.6532
  699MOL0     H92243   4.084   9.622   0.284 -2.4427  2.2834  0.7174
  699MOL0     H92244   4.008   9.836   0.375 -0.8943 -1.9747 -2.2867
  699MOL0     H92245   4.088   9.802   0.521  0.9237  3.6451 -2.9250
  699MOL0     H92246   3.903   9.583   0.433  0.0315 -0.8836  2.5628
  699MOL0     H92247   3.908   9.660   0.588  1.2093 -0.5092 -0.1045
  699MOL0     H92248   3.685   9.703   0.446 -0.8134  0.4255 -1.0759
  699MOL0     H92249   3.796   9.783   0.337  1.7447 -1.5659  1.0728
  699MOL0     H92250   4.785   9.472   0.085 -0.5740 -0.2667 -2.8069
  699MOL0     H92251   5.035   9.417   0.041 -2.3220 -0.2612 -0.7912
  699MOL0     H92252   5.480   9.750  -0.189  0.4692  0.4684  1.0592
  699MOL0     H92253   5.736   9.705  -0.191  0.5910 -0.8022 -0.5049
  699MOL0     H92254   7.804  10.046   0.092  1.1693  2.0131 -1.5503
  699MOL0     H92255   7.980  10.225   0.149  0.2351  0.1079 -0.1854
  699MOL0     H92256   8.248  10.288   0.580  1.5651  1.1660  1.3488
  699MOL0     H92257   8.427  10.436   0.650 -1.3935  1.9466  2.0623
  699MOL0     H92258   8.356  10.859   0.615 -0.1083 -0.2065 -0.3626
  699MOL0     H92259   8.441  10.819   0.469 -1.6287  1.0966  0.6079
  699MOL0     H92260   8.571  10.981   0.562 -0.3560 -0.1759 -0.8219
  699MOL0     H92261   8.556  10.932   0.725 -0.5548 -1.6100  0.9444
  699MOL0     H92262   8.705  10.741   0.679 -0.7189  1.4131 -0.2835
  699MOL0     H92263   8.782  10.903   0.634 -1.3029  1.6703 -0.1441
  699MOL0     H92264   8.841  10.737   0.474  0.3592  0.4406 -0.5937
  699MOL0     H92265   8.674  10.697   0.437  0.1227  0.6853 -0.4274
  699MOL0     H92266   8.771  11.067   0.226  2.4944  2.4309  4.5421
  699MOL0     H92267   8.211  10.764   0.478  1.0930  0.4236  1.3724
  699MOL0     H92268   8.039  10.622   0.397 -1.2221 -0.6784  1.0988
  700MOL0     O92269   0.164   3.902   0.483 -0.0296 -0.4726 -0.3389
  700MOL0     C92270   0.191   4.020   0.507  0.5841 -0.0306  1.2541
  700MOL0     O92271   0.093   4.117   0.536  0.0469 -0.5762 -0.1499
  700MOL0     C92272  -0.039   4.078   0.522  1.1660  0.5244  0.7392
  700MOL0     C92273  -0.125   4.161   0.450  0.6374  0.3206  0.1037
  700MOL0     C92274  -0.269   4.162   0.458 -1.0550 -0.2923  0.2617
  700MOL0     C92275  -0.336   4.056   0.529  0.2952 -0.1086 -0.2097
  700MOL0     O92276  -0.470   4.052   0.541 -0.4064  0.0314  0.3209
  700MOL0     C92277  -0.557   4.115   0.446 -0.4617 -0.2250 -0.6891
  700MOL0     C92278  -0.699   4.103   0.501  0.4409  0.1819  0.1051
  700MOL0     C92279  -0.743   4.229   0.570 -0.3005 -0.2502  0.0523
  700MOL0     C92280  -0.681   4.236   0.713  0.1511 -0.2595 -0.5988
  700MOL0     C92281  -0.714   4.115   0.803 -0.0744 -0.9422 -0.2487
  700MOL0     C92282  -0.636   4.114   0.936 -0.8963  0.7823 -0.5025
  700MOL0     C92283  -0.492   4.061   0.921  0.0345  0.0783  0.3240
  700MOL0     C92284  -0.418   4.063   1.055  0.0781  0.9305  0.8753
  700MOL0     N92285  -0.281   4.019   1.038 -0.6452  0.4764 -0.3444
  700MOL0     C92286  -0.199   4.038   0.934 -0.5915 -0.1561  0.1481
  700MOL0     C92287  -0.078   4.006   0.985  0.9443 -0.4963 -0.0878
  700MOL0     C92288   0.050   4.005   0.901 -0.8643  0.5019  0.3372
  700MOL0     C92289   0.082   4.141   0.843 -0.2243  0.1352 -0.2935
  700MOL0     C92290   0.118   4.243   0.951  0.2436 -0.9012 -0.1725
  700MOL0     C92291   0.262   4.244   1.029 -0.3497 -0.0723  0.2182
  700MOL0     O92292   0.357   4.272   0.933 -0.1967  0.3606 -0.1955
  700MOL0     C92293   0.483   4.275   0.982 -0.5153 -0.4492  0.9067
  700MOL0     C92294   0.530   4.265   1.119 -0.4412  0.4458 -0.3752
  700MOL0     C92295   0.662   4.283   1.160  0.4033  0.8156 -0.5077
  700MOL0     C92296   0.761   4.296   1.060 -0.9222  0.6397  0.0369
  700MOL0     C92297   0.904   4.297   1.092  0.7390  1.2428 -0.2669
  700MOL0     O92298   0.989   4.347   0.998  0.3110 -0.1152 -0.3180
  700MOL0     C92299   1.122   4.350   1.033  0.5575  0.4897 -0.5217
  700MOL0     C92300   1.160   4.429   1.143 -0.0597  0.3648 -0.9889
  700MOL0     C92301   1.294   4.461   1.166 -0.4228 -0.8152 -0.0420
  700MOL0     C92302   1.398   4.404   1.087 -0.1788 -0.2675 -0.8720
  700MOL0     O92303   1.533   4.442   1.085  0.4567 -0.1367  0.3596
  700MOL0     C92304   1.581   4.532   1.191  0.1344 -0.9852 -0.4452
  700MOL0     C92305   1.584   4.452   1.331 -1.0608  0.4561  0.5082
  700MOL0     C92306   1.697   4.344   1.314  1.3026 -0.5158  0.4076
  700MOL0     C92307   1.725   4.265   1.437  0.6227 -0.4694  0.2758
  700MOL0     C92308   1.781   4.129   1.415 -0.2213  0.5591 -0.0713
  700MOL0     C92309   1.812   4.060   1.552  0.5376 -0.2012  0.7787
  700MOL0     C92310   1.856   3.915   1.552 -0.2415 -1.4214  0.3633
  700MOL0     C92311   1.902   3.885   1.690  0.0530 -0.6531 -0.0783
  700MOL0    Cl92312   2.074   3.958   1.714  0.1124 -0.0720 -0.1587
  700MOL0     C92313   1.359   4.303   0.998 -0.5771  0.2632  0.1583
  700MOL0     C92314   1.223   4.288   0.960 -0.6801 -0.4987  0.4862
  700MOL0     O92315   0.936   4.242   1.201 -0.4325  0.2854 -0.1554
  700MOL0     C92316   0.722   4.291   0.924 -0.6635 -0.5135  0.9712
  700MOL0     C92317   0.588   4.297   0.884 -0.8742  0.1141 -1.0149
  700MOL0     N92318  -0.084   3.975   1.116  0.1207 -0.1965  0.4195
  700MOL0     N92319  -0.209   3.976   1.140 -1.0892  0.2803 -0.4944
  700MOL0     C92320  -0.253   3.960   0.582 -0.1992 -0.2055 -0.1059
  700MOL0     C92321  -0.112   3.967   0.572 -0.6892  0.0462 -0.4648
  700MOL0     C92322   0.331   4.059   0.527 -0.1470  0.3635 -1.2506
  700MOL0     C92323   0.378   4.184   0.490 -0.6070 -0.4729 -0.0603
  700MOL0     C92324   0.507   4.216   0.522 -0.6053  0.5693  0.1317
  700MOL0     C92325   0.601   4.128   0.582  0.3024 -0.4317  0.0366
  700MOL0     O92326   0.731   4.169   0.591 -0.8932  0.7024  0.3847
  700MOL0     C92327   0.840   4.074   0.624  0.2241  0.5110 -0.9622
  700MOL0     C92328   0.974   4.104   0.546 -0.5747  0.6842 -0.0356
  700MOL0     C92329   1.012   4.252   0.579 -0.1761  0.3667 -0.1295
  700MOL0     C92330   1.153   4.281   0.520  0.5068 -0.1632  0.1996
  700MOL0     C92331   1.258   4.197   0.577  0.5988 -0.0585 -0.2335
  700MOL0     C92332   1.356   4.148   0.626  0.2528 -0.1009 -0.0604
  700MOL0     C92333   0.554   3.998   0.612 -1.2000  0.5453  0.2230
  700MOL0     C92334   0.426   3.962   0.584 -0.1648 -0.1522  0.1937
  700MOL0     H92335  -0.067   4.241   0.406  2.7433 -1.8270 -1.3072
  700MOL0     H92336  -0.318   4.249   0.418  0.6422  0.3761 -0.4635
  700MOL0     H92337  -0.550   4.066   0.349 -0.8370 -0.5983 -0.5271
  700MOL0     H92338  -0.536   4.221   0.430 -2.2694  0.6307  1.9328
  700MOL0     H92339  -0.713   4.008   0.553 -1.0036 -0.3673 -1.2279
  700MOL0     H92340  -0.770   4.090   0.419  0.0913  3.9240 -0.3890
  700MOL0     H92341  -0.850   4.239   0.586 -0.2363 -2.0575  2.0116
  700MOL0     H92342  -0.711   4.310   0.504  2.1599 -1.6548 -0.6233
  700MOL0     H92343  -0.572   4.244   0.708  0.3490 -2.6146 -0.8814
  700MOL0     H92344  -0.712   4.330   0.759 -0.0073 -1.4078  1.7802
  700MOL0     H92345  -0.697   4.020   0.752  1.9040 -0.8131  0.0965
  700MOL0     H92346  -0.821   4.112   0.829  0.0464  1.0169  0.6519
  700MOL0     H92347  -0.696   4.040   0.992  0.0580  0.8835  0.6893
  700MOL0     H92348  -0.639   4.211   0.987 -0.5022  0.5668 -0.0617
  700MOL0     H92349  -0.479   3.965   0.870 -1.1411  0.3423 -0.4848
  700MOL0     H92350  -0.436   4.134   0.862  1.0183 -1.8427 -1.2325
  700MOL0     H92351  -0.474   3.992   1.117  3.3965 -1.9611  0.8343
  700MOL0     H92352  -0.406   4.164   1.097  3.3566  0.1048  2.2200
  700MOL0     H92353  -0.218   4.072   0.833 -1.3491 -1.3222 -0.1221
  700MOL0     H92354   0.043   3.929   0.823 -1.6946  1.4417 -0.5421
  700MOL0     H92355   0.132   3.962   0.958 -0.6274  0.6323  0.0933
  700MOL0     H92356   0.004   4.179   0.775 -0.2542  0.6997  0.0468
  700MOL0     H92357   0.166   4.144   0.773  0.3007  2.3940  0.3510
  700MOL0     H92358   0.118   4.342   0.906  0.6811 -0.6064  0.4582
  700MOL0     H92359   0.037   4.238   1.024 -1.0287 -1.9819 -1.6046
  700MOL0     H92360   0.280   4.145   1.073  0.4710 -0.6737 -1.3924
  700MOL0     H92361   0.248   4.329   1.096  0.3908  2.1040 -2.2600
  700MOL0     H92362   0.462   4.251   1.203  1.7755  1.2014  1.6491
  700MOL0     H92363   0.686   4.275   1.266  0.9672  0.3773 -0.6617
  700MOL0     H92364   1.101   4.469   1.225  0.4858 -1.6382  0.4847
  700MOL0     H92365   1.314   4.531   1.246 -2.3772 -1.4576  1.0948
  700MOL0     H92366   1.512   4.616   1.204  0.9074  0.0310 -2.5271
  700MOL0     H92367   1.674   4.579   1.160 -0.7771  0.6836 -0.7657
  700MOL0     H92368   1.495   4.392   1.349 -0.3877 -0.7443 -0.0552
  700MOL0     H92369   1.599   4.513   1.421  1.5396 -2.1113  2.0069
  700MOL0     H92370   1.787   4.399   1.285 -0.7226  3.1484  0.4648
  700MOL0     H92371   1.669   4.281   1.229 -3.4991  1.7854 -0.0619
  700MOL0     H92372   1.800   4.326   1.489  0.1723  0.8910 -0.6217
  700MOL0     H92373   1.633   4.261   1.497 -0.3772 -0.7982 -1.2421
  700MOL0     H92374   1.871   4.129   1.354  0.3186  1.1926  0.7059
  700MOL0     H92375   1.709   4.067   1.360  1.1438 -0.3540 -0.8628
  700MOL0     H92376   1.717   4.067   1.606  1.5702  1.2214  2.5084
  700MOL0     H92377   1.879   4.127   1.606 -0.7457  1.4204  0.4342
  700MOL0     H92378   1.767   3.859   1.521 -0.9382  0.3093 -0.8820
  700MOL0     H92379   1.925   3.886   1.472  0.2978  1.2926 -0.2432
  700MOL0     H92380   1.906   3.776   1.706 -0.6758 -0.9310 -1.6131
  700MOL0     H92381   1.834   3.931   1.762  1.2066 -0.2080  0.7684
  700MOL0     H92382   1.437   4.245   0.951 -0.3195 -0.7878  1.7820
  700MOL0     H92383   1.200   4.223   0.876  1.0588 -1.3315  0.6158
  700MOL0     H92384   0.790   4.301   0.840 -1.4107  1.1037  0.5119
  700MOL0     H92385   0.560   4.306   0.779 -1.6745 -0.4226 -0.8567
  700MOL0     H92386  -0.308   3.880   0.632 -1.3197  1.3576  1.3121
  700MOL0     H92387  -0.047   3.892   0.616  0.9409  1.1355 -0.9223
  700MOL0     H92388   0.303   4.254   0.453 -0.9697 -0.7093  0.2120
  700MOL0     H92389   0.542   4.317   0.500 -2.0853  1.2234  0.6705
  700MOL0     H92390   0.813   3.970   0.604 -0.6037  0.5491 -0.0787
  700MOL0     H92391   0.846   4.081   0.733  1.2269 -0.0934 -0.9685
  700MOL0     H92392   1.045   4.029   0.582 -1.1435  2.0540  4.4864
  700MOL0     H92393   0.963   4.105   0.437  1.8460 -3.9198 -0.5817
  700MOL0     H92394   1.031   4.262   0.686  2.6416  2.6456 -0.7017
  700MOL0     H92395   0.935   4.323   0.549 -0.8371 -0.8490 -1.4724
  700MOL0     H92396   1.143   4.252   0.415 -0.5394  0.3420  0.1463
  700MOL0     H92397   1.183   4.384   0.539  0.3072 -0.1271  0.3317
  700MOL0     H92398   1.426   4.094   0.685  0.4078 -0.2360 -0.3660
  700MOL0     H92399   0.615   3.922   0.660  0.1357 -0.4510 -2.8286
  700MOL0     H92400   0.402   3.857   0.593  1.4934 -0.5539  0.2069
  701MOL0     O92401   6.410   9.840  10.390  0.2025 -0.1953 -0.2888
  701MOL0     C92402   6.466   9.906  10.310 -0.2221  0.1037  0.5382
  701MOL0     O92403   6.407   9.951  10.199 -0.1386 -0.4469 -0.6619
  701MOL0     C92404   6.273   9.944  10.186 -0.0304 -0.0329 -0.6732
  701MOL0     C92405   6.222   9.845  10.103  0.1328  0.3593  0.2415
  701MOL0     C92406   6.081   9.831  10.083  0.0039  0.4931 -0.5826
  701MOL0     C92407   5.997   9.911  10.156 -0.1545  0.5018 -0.2981
  701MOL0     O92408   5.869   9.904  10.119 -0.2183 -0.2665 -0.1543
  701MOL0     C92409   5.772   9.961  10.206 -0.9707 -0.1606 -0.1101
  701MOL0     C92410   5.636   9.927  10.156  1.1697 -0.3825 -0.6398
  701MOL0     C92411   5.525   9.989  10.229  0.1981  0.1368 -0.4592
  701MOL0     C92412   5.458   9.889  10.331 -0.6947 -0.7878  0.2469
  701MOL0     C92413   5.319   9.939  10.369  0.6851  0.1126 -0.3256
  701MOL0     C92414   5.235   9.831  10.448 -0.1946  0.3049  0.3466
  701MOL0     C92415   5.099   9.878  10.501  0.2530  0.2662  0.4030
  701MOL0     C92416   5.001   9.871  10.384 -0.3596 -0.7206 -0.3640
  701MOL0     N92417   4.866   9.878  10.433 -0.5106 -0.0634 -0.4176
  701MOL0     C92418   4.804   9.772  10.497 -0.5320 -0.3690 -0.2751
  701MOL0     C92419   4.694   9.824  10.544  0.7496  0.4590 -0.5946
  701MOL0     C92420   4.568   9.750  10.596 -1.3580 -0.6430  0.0097
  701MOL0     C92421   4.442   9.824  10.572 -0.4173 -0.5385  0.5712
  701MOL0     C92422   4.312   9.763  10.629  0.5581 -0.5012  0.1623
  701MOL0     C92423   4.195   9.861  10.639 -0.2298  0.0052 -0.0288
  701MOL0     O92424   4.152   9.911  10.510  0.2872  0.2996 -0.2222
  701MOL0     C92425   4.015   9.947  10.494  0.0773 -1.1964 -0.5856
  701MOL0     C92426   3.917   9.940  10.599  0.1120 -0.6228  0.0994
  701MOL0     C92427   3.783   9.972  10.576 -1.0359  0.7495 -1.1729
  701MOL0     C92428   3.749  10.019  10.449  0.1617  0.3594  0.4679
  701MOL0     C92429   3.609  10.059  10.425 -0.6966  0.6129 -0.2695
  701MOL0     O92430   3.533  10.099  10.532 -0.0465 -0.2894  0.0091
  701MOL0     C92431   3.403  10.109  10.519  1.2133 -0.5582  0.3324
  701MOL0     C92432   3.344  10.238  10.525  0.1393  0.7071 -0.2829
  701MOL0     C92433   3.202  10.242  10.522 -0.3088 -1.1567 -0.5853
  701MOL0     C92434   3.117  10.130  10.515 -0.3538 -0.6547  1.1499
  701MOL0     O92435   2.986  10.154  10.518 -0.1778  0.8821  0.1122
  701MOL0     C92436   2.905  10.033  10.564 -0.7190 -0.1736  0.1459
  701MOL0     C92437   2.763  10.065  10.600  0.4695  0.5422 -0.8978
  701MOL0     C92438   2.684  10.092  10.476 -0.2619  1.0751  0.4230
  701MOL0     C92439   2.533  10.075  10.513 -0.4416  0.2922  0.4721
  701MOL0     C92440   2.441  10.085  10.383 -0.2931 -0.4036  0.3541
  701MOL0     C92441   2.293  10.116  10.427 -1.2993  0.0338  0.1579
  701MOL0     C92442   2.213  10.139  10.296 -0.3389  0.3934  0.2350
  701MOL0     C92443   2.069  10.167  10.306 -0.0077 -0.3242 -0.2747
  701MOL0    Cl92444   2.004  10.198  10.147  0.1476  0.1483 -0.8624
  701MOL0     C92445   3.187  10.014  10.517  0.0588  0.5669  0.2264
  701MOL0     C92446   3.321   9.992  10.515  0.1328 -0.4560 -0.1498
  701MOL0     O92447   3.563  10.050  10.305  0.6343  0.1954 -0.3315
  701MOL0     C92448   3.840  10.032  10.351 -0.2075  0.0114 -0.9131
  701MOL0     C92449   3.973  10.007  10.375 -0.1651 -0.3088 -0.3017
  701MOL0     N92450   4.699   9.955  10.523  0.1695  0.2939  0.6059
  701MOL0     N92451   4.804   9.997  10.458  0.5570 -0.2265  0.1628
  701MOL0     C92452   6.051  10.011  10.250 -0.4997 -0.2594  0.5793
  701MOL0     C92453   6.192  10.029  10.259 -0.4260  0.7298  0.1258
  701MOL0     C92454   6.613   9.925  10.329 -0.9807  0.2675  0.5618
  701MOL0     C92455   6.665  10.016  10.245 -0.2993  0.5676 -0.0712
  701MOL0     C92456   6.797  10.054  10.253  0.7554 -0.2951  0.3967
  701MOL0     C92457   6.878  10.004  10.355  0.0906 -0.0149  0.6684
  701MOL0     O92458   7.011  10.029  10.379  1.4877 -0.0792  0.0875
  701MOL0     C92459   7.087  10.090  10.272  1.0774  0.1517  0.5132
  701MOL0     C92460   7.229  10.091  10.337  1.2894 -0.1152  0.2613
  701MOL0     C92461   7.328  10.142  10.233 -0.7137  0.3703  0.0346
  701MOL0     C92462   7.461  10.149  10.291 -0.0403  0.4366  0.8778
  701MOL0     C92463   7.547  10.188  10.184  0.4040  0.0499  1.3354
  701MOL0     C92464   7.636  10.211  10.101 -0.5586 -0.4682 -0.0458
  701MOL0     C92465   6.817   9.917  10.442 -0.8389 -0.2066 -0.2155
  701MOL0     C92466   6.687   9.867  10.426 -0.4503 -0.5450 -0.5225
  701MOL0     H92467   6.289   9.776  10.052  0.9047  1.2455  0.0368
  701MOL0     H92468   6.043   9.755  10.016 -1.0455 -0.0136  0.5609
  701MOL0     H92469   5.789  10.069  10.204 -0.5055 -0.2399 -0.6199
  701MOL0     H92470   5.788   9.918  10.306  4.1841  1.5826  0.1351
  701MOL0     H92471   5.620   9.819  10.154 -1.3535 -0.0735 -0.5864
  701MOL0     H92472   5.630   9.961  10.052  0.0519 -0.6557 -0.6705
  701MOL0     H92473   5.442  10.010  10.160  1.3183  1.4545 -1.4554
  701MOL0     H92474   5.556  10.088  10.264 -1.1669  0.2759  0.4310
  701MOL0     H92475   5.443   9.791  10.286 -1.9654 -0.8178  0.6819
  701MOL0     H92476   5.513   9.875  10.425 -1.1207 -2.8627  0.2229
  701MOL0     H92477   5.260   9.969  10.282 -1.9551 -0.2295  1.2312
  701MOL0     H92478   5.320  10.037  10.418 -0.0059  0.7138 -1.4618
  701MOL0     H92479   5.306   9.804  10.527 -0.9506  3.0187  2.1147
  701MOL0     H92480   5.217   9.742  10.387 -3.0489  0.4427  0.8076
  701MOL0     H92481   5.071   9.802  10.574 -0.3080 -1.6543 -1.6942
  701MOL0     H92482   5.091   9.976  10.548  0.3627  0.4303  0.0844
  701MOL0     H92483   5.013   9.780  10.325 -0.9342  0.0463 -1.7121
  701MOL0     H92484   5.028   9.953  10.316  0.4251  0.4839  1.3205
  701MOL0     H92485   4.837   9.669  10.507  0.4460  0.2199  4.6747
  701MOL0     H92486   4.576   9.735  10.704 -0.8191 -2.0831 -0.2143
  701MOL0     H92487   4.570   9.652  10.548  2.9524 -0.9396  0.4428
  701MOL0     H92488   4.421   9.831  10.465  0.7506  2.9851  0.4467
  701MOL0     H92489   4.453   9.928  10.606  1.6122 -0.9009  1.1539
  701MOL0     H92490   4.274   9.685  10.562 -0.6268  2.2987 -2.6951
  701MOL0     H92491   4.328   9.724  10.730  1.3359 -0.3765  0.0968
  701MOL0     H92492   4.215   9.944  10.707  3.3497 -1.8229  1.3761
  701MOL0     H92493   4.117   9.804  10.689 -0.8088  1.5736  0.9301
  701MOL0     H92494   3.936   9.909  10.701 -0.4578  1.7118  0.9904
  701MOL0     H92495   3.725   9.961  10.667 -0.2887  0.1928 -0.7539
  701MOL0     H92496   3.402  10.330  10.520  2.3929 -0.6907 -2.2613
  701MOL0     H92497   3.145  10.335  10.523 -2.2670 -2.3100 -0.0203
  701MOL0     H92498   2.949   9.989  10.654 -1.7817  0.4674  0.9950
  701MOL0     H92499   2.910   9.953  10.488  1.7070  0.0487 -0.0294
  701MOL0     H92500   2.766  10.154  10.664  0.4110  0.8339 -1.2931
  701MOL0     H92501   2.726   9.979  10.656 -0.7275  1.8586  0.4264
  701MOL0     H92502   2.709  10.014  10.404  0.8620 -0.8814  2.7637
  701MOL0     H92503   2.712  10.182  10.421 -0.4655 -0.7413 -2.8751
  701MOL0     H92504   2.513   9.984  10.570 -0.6485  0.7695  1.1666
  701MOL0     H92505   2.513  10.161  10.577 -0.4144  0.3841  0.3567
  701MOL0     H92506   2.438   9.985  10.339 -1.5135  1.1931 -3.6437
  701MOL0     H92507   2.479  10.151  10.305 -0.3287 -0.3929  0.3446
  701MOL0     H92508   2.285  10.207  10.488 -0.3816  1.3371 -1.5773
  701MOL0     H92509   2.263  10.031  10.490  0.9606 -1.3592 -0.4978
  701MOL0     H92510   2.260  10.224  10.247 -1.2373  2.4763  2.7462
  701MOL0     H92511   2.219  10.050  10.232 -0.0098  1.3100 -1.0294
  701MOL0     H92512   2.056  10.252  10.374 -0.6104 -2.5139  2.5346
  701MOL0     H92513   2.021  10.078  10.347 -0.2620 -0.9461 -1.8577
  701MOL0     H92514   3.127   9.924  10.523  2.9536 -1.4205  1.4773
  701MOL0     H92515   3.361   9.892  10.520  1.0763 -0.1287 -0.8124
  701MOL0     H92516   3.822  10.069  10.251  2.3260  0.2444 -1.3474
  701MOL0     H92517   4.024  10.016  10.280 -0.8579 -0.1561 -0.6720
  701MOL0     H92518   5.989  10.078  10.308  0.6876  2.8218 -1.3991
  701MOL0     H92519   6.241  10.104  10.319 -0.5180  1.3223 -0.5318
  701MOL0     H92520   6.608  10.062  10.165 -2.0992 -3.1764 -1.1606
  701MOL0     H92521   6.842  10.137  10.199  3.2595 -1.0961  1.1251
  701MOL0     H92522   7.065  10.194  10.248  1.0217  0.8188  3.1935
  701MOL0     H92523   7.087  10.026  10.183 -1.2760  2.1860 -1.0976
  701MOL0     H92524   7.233  10.159  10.423 -0.5078  1.1572 -0.6147
  701MOL0     H92525   7.230   9.986  10.369 -1.5793 -0.2417  0.1919
  701MOL0     H92526   7.294  10.241  10.200 -2.4770  0.9962  3.3043
  701MOL0     H92527   7.330  10.075  10.146  2.9507 -0.4235  0.5895
  701MOL0     H92528   7.455  10.216  10.378  1.2434  2.2356 -0.3395
  701MOL0     H92529   7.492  10.048  10.320 -0.5410 -0.0739 -0.3300
  701MOL0     H92530   7.706  10.238  10.024  0.5093 -0.2653  0.9611
  701MOL0     H92531   6.890   9.882  10.515  1.0596  0.8101 -1.5175
  701MOL0     H92532   6.649   9.793  10.495  1.7023 -1.5604 -0.3615
  702MOL0     O92533   2.168   8.960   4.513  0.1263  0.1328 -0.0901
  702MOL0     C92534   2.204   9.053   4.447  0.3656 -0.4002 -0.2196
  702MOL0     O92535   2.131   9.174   4.424 -0.1083  0.3034 -0.0616
  702MOL0     C92536   2.002   9.173   4.459  0.5660  0.3455  0.8784
  702MOL0     C92537   1.952   9.259   4.551  0.4288 -0.8044  0.4108
  702MOL0     C92538   1.809   9.250   4.589 -0.4571  0.1668  0.0165
  702MOL0     C92539   1.729   9.152   4.525  0.1939 -0.0354 -0.1950
  702MOL0     O92540   1.606   9.153   4.577 -0.2821  0.5153 -0.5460
  702MOL0     C92541   1.501   9.120   4.483 -0.4651  0.2679 -0.6004
  702MOL0     C92542   1.362   9.144   4.536 -0.1234  0.0281 -0.5819
  702MOL0     C92543   1.259   9.123   4.414 -0.1052  0.3226  0.1292
  702MOL0     C92544   1.134   9.198   4.444 -0.2770  0.7066  0.1456
  702MOL0     C92545   1.011   9.161   4.351  0.5996 -0.2840  0.2141
  702MOL0     C92546   1.053   9.199   4.201 -0.3537 -0.3280 -0.5459
  702MOL0     C92547   0.962   9.185   4.087  0.2260  0.6812  0.3395
  702MOL0     C92548   0.834   9.244   4.113 -0.2664 -0.7855 -0.6617
  702MOL0     N92549   0.733   9.189   4.037  0.5466  0.7999 -0.5970
  702MOL0     C92550   0.610   9.143   4.089 -0.7720 -0.6250  0.4679
  702MOL0     C92551   0.545   9.094   3.979 -0.0133 -0.6390 -0.2912
  702MOL0     C92552   0.405   9.038   4.005  0.6094  0.6499  0.2471
  702MOL0     C92553   0.398   8.890   3.970  0.2794  0.6388  0.2401
  702MOL0     C92554   0.255   8.832   4.002 -0.8609  0.4160  1.3742
  702MOL0     C92555   0.144   8.862   3.906  0.5989  0.3924  0.2213
  702MOL0     O92556   0.117   9.003   3.898  0.0638  0.4000  0.0276
  702MOL0     C92557   0.005   9.054   3.955  0.0221  0.3382  1.0516
  702MOL0     C92558  -0.009   9.188   3.919 -0.8441 -0.3928 -0.1603
  702MOL0     C92559  -0.133   9.250   3.938 -1.0968 -0.9182  0.0644
  702MOL0     C92560  -0.244   9.186   3.984 -0.4684 -0.7374 -0.3018
  702MOL0     C92561  -0.371   9.267   3.996 -0.7156 -0.0412  0.0983
  702MOL0     O92562  -0.475   9.205   4.065 -0.1547  0.3002 -0.0274
  702MOL0     C92563  -0.602   9.263   4.081  0.2965 -0.2088 -0.0948
  702MOL0     C92564  -0.631   9.398   4.111  0.2966  0.6221  0.8495
  702MOL0     C92565  -0.755   9.435   4.144  0.3607 -0.3939  0.8366
  702MOL0     C92566  -0.863   9.348   4.140 -0.1670 -0.1522  0.0960
  702MOL0     O92567  -1.000   9.376   4.143 -0.1690 -0.3925  0.0171
  702MOL0     C92568  -1.043   9.506   4.185  0.2939 -1.0398  0.2699
  702MOL0     C92569  -1.183   9.526   4.152 -0.4591 -0.7803 -0.7798
  702MOL0     C92570  -1.226   9.503   4.007 -0.0591  0.1431  0.6825
  702MOL0     C92571  -1.367   9.547   3.977  0.5096  0.6353  0.6058
  702MOL0     C92572  -1.423   9.500   3.842 -0.6202 -0.7834 -0.0783
  702MOL0     C92573  -1.555   9.570   3.806 -0.8612  0.1781  0.2043
  702MOL0     C92574  -1.560   9.719   3.770  0.5451 -0.2863  0.3818
  702MOL0     C92575  -1.665   9.751   3.658 -0.3025 -0.4626  0.1495
  702MOL0    Cl92576  -1.831   9.697   3.719  0.1653  0.0450  0.0577
  702MOL0     C92577  -0.835   9.213   4.117  0.2620 -0.4448 -0.9108
  702MOL0     C92578  -0.705   9.171   4.084 -0.1406  0.6426  0.5570
  702MOL0     O92579  -0.380   9.378   3.947  0.3029  0.1999  0.2537
  702MOL0     C92580  -0.233   9.046   4.025 -0.4397 -0.4405  0.4217
  702MOL0     C92581  -0.105   8.986   4.016  0.3372 -0.3838 -0.5368
  702MOL0     N92582   0.623   9.116   3.868  0.7798  0.4394 -0.6204
  702MOL0     N92583   0.739   9.169   3.903  0.0416  0.5763 -0.5084
  702MOL0     C92584   1.783   9.067   4.428  0.3806  0.5448 -0.1552
  702MOL0     C92585   1.917   9.085   4.394  0.1753 -0.6664 -0.1284
  702MOL0     C92586   2.351   9.068   4.417  0.1608  0.1278  0.3961
  702MOL0     C92587   2.440   8.988   4.485  0.1375 -0.7163  0.1715
  702MOL0     C92588   2.575   8.985   4.434  0.1013 -0.2830 -0.4135
  702MOL0     C92589   2.614   9.069   4.332  0.0047  0.6365  0.6999
  702MOL0     O92590   2.745   9.075   4.289  0.6073  0.3459 -0.0429
  702MOL0     C92591   2.778   8.954   4.215  0.0645  0.2313 -0.3233
  702MOL0     C92592   2.901   8.972   4.119  0.5647  0.0856  0.4945
  702MOL0     C92593   2.980   8.844   4.087 -0.7053 -0.3943  0.0484
  702MOL0     C92594   3.110   8.875   4.019  0.6643 -0.8743  0.5513
  702MOL0     C92595   3.178   8.759   3.965  0.1120  0.3122 -0.4627
  702MOL0     C92596   3.254   8.672   3.915 -0.0299  0.1805 -0.2298
  702MOL0     C92597   2.523   9.153   4.276  0.9284 -0.2509  0.0331
  702MOL0     C92598   2.397   9.158   4.317 -0.5938 -0.1546 -0.8654
  702MOL0     H92599   2.019   9.331   4.597  0.0021  0.0676 -0.3084
  702MOL0     H92600   1.776   9.323   4.662  1.4373  0.6246  0.4719
  702MOL0     H92601   1.511   9.011   4.474  3.3865  0.3187  0.9811
  702MOL0     H92602   1.517   9.168   4.386 -2.5760 -0.0685 -1.1579
  702MOL0     H92603   1.351   9.242   4.584  0.3798  0.4960 -1.4063
  702MOL0     H92604   1.341   9.068   4.612  1.5783 -0.0310 -0.1263
  702MOL0     H92605   1.235   9.017   4.415 -0.4763  0.3961 -0.3998
  702MOL0     H92606   1.303   9.145   4.316 -2.4136 -0.4518 -1.1650
  702MOL0     H92607   1.100   9.169   4.544 -0.7496 -1.5169 -0.5905
  702MOL0     H92608   1.155   9.305   4.453 -1.3162  0.9738 -0.3469
  702MOL0     H92609   0.925   9.212   4.394 -0.1300 -1.5693  0.3299
  702MOL0     H92610   0.987   9.054   4.344  0.3152 -0.2378  0.5016
  702MOL0     H92611   1.143   9.144   4.174  0.8967  0.8451  0.9848
  702MOL0     H92612   1.075   9.307   4.195  0.8230 -0.6022 -1.6565
  702MOL0     H92613   0.995   9.236   3.996 -3.0904 -0.2774 -1.5626
  702MOL0     H92614   0.953   9.080   4.059  1.6489  0.5225  0.4133
  702MOL0     H92615   0.850   9.350   4.093 -0.1854 -0.1624  2.3041
  702MOL0     H92616   0.805   9.239   4.218  1.1316  0.8590 -0.1504
  702MOL0     H92617   0.576   9.146   4.193 -0.5488 -1.8205  0.5901
  702MOL0     H92618   0.341   9.102   3.944  1.8539 -1.0993 -3.1130
  702MOL0     H92619   0.382   9.035   4.112  1.1922 -1.4452  0.3599
  702MOL0     H92620   0.469   8.831   4.030  2.7885  3.0597 -0.1270
  702MOL0     H92621   0.428   8.876   3.866  4.1931 -0.8941  1.3677
  702MOL0     H92622   0.264   8.723   4.001 -1.9363  0.3229  0.5942
  702MOL0     H92623   0.230   8.845   4.108 -0.4253 -5.4631  2.5608
  702MOL0     H92624   0.059   8.800   3.936 -0.0043  1.0922  0.0044
  702MOL0     H92625   0.161   8.831   3.802 -3.6242 -1.8829 -0.0142
  702MOL0     H92626   0.081   9.232   3.875  0.9027 -2.4575  1.1685
  702MOL0     H92627  -0.122   9.353   3.909 -0.4861 -0.3921  2.0279
  702MOL0     H92628  -0.561   9.480   4.107 -0.4206  1.2207 -1.7406
  702MOL0     H92629  -0.767   9.540   4.169  0.2005  0.1560 -1.3585
  702MOL0     H92630  -0.978   9.587   4.153 -0.9096  0.4511  1.4469
  702MOL0     H92631  -1.038   9.498   4.294 -1.4642 -2.8652  0.2906
  702MOL0     H92632  -1.203   9.632   4.173  0.9296 -0.8531  1.1411
  702MOL0     H92633  -1.250   9.465   4.213 -3.3478  0.3158 -2.6413
  702MOL0     H92634  -1.223   9.395   3.994 -5.3648 -0.3347  1.1454
  702MOL0     H92635  -1.162   9.565   3.944  1.4909 -0.1084  1.9581
  702MOL0     H92636  -1.438   9.504   4.048  0.4166 -1.4195 -0.6734
  702MOL0     H92637  -1.375   9.656   3.978 -1.2619  0.5387  0.2690
  702MOL0     H92638  -1.435   9.393   3.857 -0.6366 -0.6672  0.7686
  702MOL0     H92639  -1.351   9.524   3.763 -1.7662  0.8403 -0.7009
  702MOL0     H92640  -1.629   9.544   3.883 -2.4503 -2.3670 -2.0055
  702MOL0     H92641  -1.585   9.519   3.714  1.2225  0.7611 -0.8516
  702MOL0     H92642  -1.579   9.779   3.859 -2.5512 -0.6634  0.0818
  702MOL0     H92643  -1.465   9.763   3.737  0.2372 -0.2213 -0.4438
  702MOL0     H92644  -1.635   9.688   3.575 -0.8311 -1.0295  0.3760
  702MOL0     H92645  -1.661   9.853   3.617  0.0116 -0.8071 -0.6868
  702MOL0     H92646  -0.921   9.150   4.103 -0.8561  0.9240 -0.4630
  702MOL0     H92647  -0.667   9.070   4.073  0.4937  0.7568  1.5418
  702MOL0     H92648  -0.310   8.997   4.082 -1.4072  1.2584  0.6485
  702MOL0     H92649  -0.090   8.886   4.056 -2.9308 -1.4672 -1.7108
  702MOL0     H92650   1.717   8.995   4.379  0.1745  0.2603  0.5271
  702MOL0     H92651   1.943   9.020   4.311  1.5987  0.4849 -0.6457
  702MOL0     H92652   2.406   8.943   4.578 -0.3201  1.5068  1.1366
  702MOL0     H92653   2.655   8.929   4.480  0.0638  0.5099  0.6552
  702MOL0     H92654   2.687   8.916   4.169 -1.5714  1.2340  1.9144
  702MOL0     H92655   2.811   8.877   4.285 -2.0436 -0.9444 -0.5563
  702MOL0     H92656   2.870   9.004   4.020 -2.3503 -2.2628  0.5138
  702MOL0     H92657   2.966   9.049   4.163  0.1230  1.0910 -0.5709
  702MOL0     H92658   2.918   8.777   4.026  0.2482 -0.7932 -0.5088
  702MOL0     H92659   3.005   8.789   4.178 -1.2882 -2.2984 -0.8869
  702MOL0     H92660   3.089   8.942   3.935 -0.9922 -1.4779  0.4458
  702MOL0     H92661   3.179   8.923   4.089  1.8353 -0.6306 -0.7289
  702MOL0     H92662   3.325   8.609   3.865  1.2574 -0.2676  2.0366
  702MOL0     H92663   2.556   9.217   4.195  0.4406 -0.1261 -0.0708
  702MOL0     H92664   2.327   9.209   4.252  0.9585 -1.6447 -3.8888
  703MOL0     O92665   9.462  10.064   8.410 -0.7493 -0.4892  0.1128
  703MOL0     C92666   9.513   9.951   8.409 -0.1115 -0.9586  0.1296
  703MOL0     O92667   9.454   9.835   8.346 -0.1600 -0.3494 -0.5333
  703MOL0     C92668   9.341   9.860   8.265 -0.2249  0.4857  0.3899
  703MOL0     C92669   9.348   9.965   8.165 -0.7097  0.1180  1.1980
  703MOL0     C92670   9.228  10.010   8.104 -0.8425  0.9410 -0.6313
  703MOL0     C92671   9.103   9.967   8.156 -0.6676 -0.6067 -0.2724
  703MOL0     O92672   8.985  10.012   8.107  1.1006 -0.6672 -0.2232
  703MOL0     C92673   8.889   9.908   8.095 -0.1068  0.0251  0.2714
  703MOL0     C92674   8.788   9.935   7.982 -0.2708  0.4579 -0.0868
  703MOL0     C92675   8.685  10.040   8.019 -0.9004  0.4287 -0.3840
  703MOL0     C92676   8.576  10.076   7.915 -0.3467 -0.7030  0.1219
  703MOL0     C92677   8.484  10.194   7.964 -0.1387  0.7278 -0.3947
  703MOL0     C92678   8.558  10.320   8.003 -0.2182 -0.0820 -0.3396
  703MOL0     C92679   8.656  10.351   7.888 -0.2648 -0.6894 -0.5160
  703MOL0     C92680   8.702  10.500   7.898  0.3727 -0.1040 -0.7525
  703MOL0     N92681   8.796  10.531   8.012  1.0950  0.8224  0.1768
  703MOL0     C92682   8.843  10.447   8.102  0.2273  0.8516 -0.4817
  703MOL0     C92683   8.867  10.521   8.209  0.6331 -0.0666 -0.1588
  703MOL0     C92684   8.934  10.469   8.336 -0.2727  0.0987  0.0638
  703MOL0     C92685   9.093  10.456   8.325 -0.2222  0.2361 -1.1647
  703MOL0     C92686   9.155  10.373   8.450 -0.2066  0.2017  1.3123
  703MOL0     C92687   9.306  10.357   8.440 -0.3774  1.0935  0.1393
  703MOL0     O92688   9.363  10.480   8.472 -0.1841  0.3128 -0.3619
  703MOL0     C92689   9.486  10.487   8.531  0.0459 -0.3911 -0.6389
  703MOL0     C92690   9.518  10.619   8.567 -0.4235  0.0344  0.7020
  703MOL0     C92691   9.632  10.640   8.650 -0.4502  0.7206  0.5116
  703MOL0     C92692   9.714  10.533   8.685 -0.4120 -0.4498  0.0832
  703MOL0     C92693   9.838  10.560   8.767 -0.2254  0.6166 -0.3205
  703MOL0     O92694   9.886  10.685   8.774 -0.2723 -1.4935 -0.2807
  703MOL0     C92695   9.989  10.729   8.853 -0.2297  1.5669  0.3475
  703MOL0     C92696  10.036  10.656   8.965 -0.2465 -0.1396  0.0984
  703MOL0     C92697  10.127  10.721   9.049 -0.0742  0.5343 -0.1190
  703MOL0     C92698  10.185  10.839   9.011 -1.5001  0.8212 -0.0976
  703MOL0     O92699  10.298  10.893   9.077 -0.2610  0.4313  0.0978
  703MOL0     C92700  10.395  10.824   9.171 -0.4742 -0.4120  0.3111
  703MOL0     C92701  10.490  10.925   9.231 -0.8018  0.0173 -0.0454
  703MOL0     C92702  10.585  10.858   9.329 -0.2640  0.5811  0.2110
  703MOL0     C92703  10.691  10.948   9.391 -0.8015  0.2433  0.5266
  703MOL0     C92704  10.715  10.916   9.544 -0.0758 -0.6602  0.1493
  703MOL0     C92705  10.759  10.766   9.565 -0.1565 -0.3697  0.0430
  703MOL0     C92706  10.854  10.742   9.684 -0.2860 -0.4542 -0.2743
  703MOL0     C92707  10.895  10.595   9.711 -0.8153  0.2840 -0.0660
  703MOL0    Cl92708  11.029  10.588   9.824  0.3759 -0.0870  0.1659
  703MOL0     C92709  10.136  10.908   8.901  0.8633  0.6699  0.1324
  703MOL0     C92710  10.037  10.851   8.823  0.0251 -0.7853  0.3402
  703MOL0     O92711   9.892  10.454   8.804 -0.4871  0.7004 -0.4166
  703MOL0     C92712   9.683  10.401   8.650 -0.3145 -1.0233  0.9356
  703MOL0     C92713   9.567  10.382   8.582 -0.7916 -0.2123 -0.0702
  703MOL0     N92714   8.842  10.649   8.180  0.4878 -0.9816 -0.4051
  703MOL0     N92715   8.796  10.663   8.057 -0.3479  0.2345 -0.1844
  703MOL0     C92716   9.097   9.889   8.262  0.2229  0.1545 -0.1211
  703MOL0     C92717   9.216   9.822   8.303 -0.2695  0.1605 -0.8680
  703MOL0     C92718   9.639   9.949   8.475  1.1255  0.4335 -0.1213
  703MOL0     C92719   9.722  10.057   8.475  0.4430  1.0678  0.0507
  703MOL0     C92720   9.848  10.050   8.537  0.2692 -1.0802 -0.2539
  703MOL0     C92721   9.902   9.936   8.592 -1.0758  0.3219 -0.0876
  703MOL0     O92722  10.027   9.945   8.633 -0.1744  0.2070 -0.0145
  703MOL0     C92723  10.088   9.833   8.696  0.4685  0.7906  0.9363
  703MOL0     C92724  10.222   9.870   8.759  0.2485 -0.2843 -0.2304
  703MOL0     C92725  10.333   9.780   8.724 -0.4268 -0.5365 -0.1037
  703MOL0     C92726  10.474   9.823   8.773 -0.0285  1.4611  0.0403
  703MOL0     C92727  10.568   9.876   8.674  0.5061  0.6221 -0.0110
  703MOL0     C92728  10.649   9.883   8.579  0.3852  0.1154 -0.8058
  703MOL0     C92729   9.820   9.816   8.578 -0.2460 -0.2712  0.3576
  703MOL0     C92730   9.691   9.825   8.519  0.9489  0.1988  0.6078
  703MOL0     H92731   9.449  10.001   8.145 -0.5359 -0.6487  0.6478
  703MOL0     H92732   9.235  10.090   8.032  2.4308  2.4312  1.1227
  703MOL0     H92733   8.836   9.885   8.188 -0.7278  2.1437  0.4734
  703MOL0     H92734   8.938   9.815   8.064  1.9239  1.8781 -2.5173
  703MOL0     H92735   8.737   9.841   7.955  0.8410 -0.0195 -0.5794
  703MOL0     H92736   8.838   9.967   7.891  0.5226 -1.8736 -0.5312
  703MOL0     H92737   8.734  10.133   8.048 -1.6741  0.2755  1.6003
  703MOL0     H92738   8.625  10.011   8.105  0.0797  0.6424  0.3908
  703MOL0     H92739   8.619  10.105   7.818  0.6373  3.0420  1.5217
  703MOL0     H92740   8.522   9.983   7.894 -0.0480 -0.7683 -0.3912
  703MOL0     H92741   8.421  10.160   8.047 -1.1424  0.0362 -1.4187
  703MOL0     H92742   8.418  10.211   7.878 -1.2001  0.0276  0.2586
  703MOL0     H92743   8.600  10.311   8.103  1.5071 -3.0880 -1.2371
  703MOL0     H92744   8.496  10.411   8.005 -0.2153 -0.0830 -0.1570
  703MOL0     H92745   8.741  10.284   7.895  0.0806 -0.1039  2.2339
  703MOL0     H92746   8.605  10.349   7.791  0.1673  4.2660 -1.1327
  703MOL0     H92747   8.625  10.577   7.885 -1.0871 -0.4400  3.8969
  703MOL0     H92748   8.764  10.517   7.810  0.4605 -0.3778 -0.7439
  703MOL0     H92749   8.859  10.340   8.091  0.7542  0.9268 -0.4356
  703MOL0     H92750   8.891  10.378   8.377  2.3214 -0.7652  1.0715
  703MOL0     H92751   8.918  10.539   8.419  0.2984 -1.5686  1.6384
  703MOL0     H92752   9.134  10.557   8.330 -2.0125  0.9455  1.5854
  703MOL0     H92753   9.143  10.424   8.233  2.1152  0.6949 -0.1396
  703MOL0     H92754   9.132  10.425   8.543  2.2620  1.0260  1.5356
  703MOL0     H92755   9.099  10.279   8.451 -1.7328  0.9545 -1.4121
  703MOL0     H92756   9.331  10.323   8.339  3.0998 -1.0407  1.5259
  703MOL0     H92757   9.335  10.279   8.512 -0.3781 -0.6852 -1.6931
  703MOL0     H92758   9.469  10.707   8.527 -0.5871 -0.1768  0.4362
  703MOL0     H92759   9.661  10.738   8.685  2.2776  0.2589 -0.2477
  703MOL0     H92760  10.001  10.556   8.991  0.2136 -0.9524 -2.1777
  703MOL0     H92761  10.155  10.678   9.145  0.5664 -2.1213 -1.4129
  703MOL0     H92762  10.453  10.757   9.107  0.0475  0.8562 -0.5793
  703MOL0     H92763  10.340  10.778   9.254 -2.2903  0.6752 -0.2230
  703MOL0     H92764  10.422  11.001   9.270 -1.1476 -0.9176  1.2693
  703MOL0     H92765  10.550  10.974   9.154 -0.1067  1.0571  1.1283
  703MOL0     H92766  10.625  10.765   9.287 -2.9304 -1.2968  1.5461
  703MOL0     H92767  10.522  10.828   9.414  0.8220  1.4880  1.3882
  703MOL0     H92768  10.781  10.946   9.329  0.1061  1.4268  1.7497
  703MOL0     H92769  10.643  11.046   9.384  0.6328  0.8774 -1.1585
  703MOL0     H92770  10.621  10.935   9.597  0.2144  1.9673 -0.1516
  703MOL0     H92771  10.785  10.990   9.585 -0.2464 -1.0766  1.2273
  703MOL0     H92772  10.803  10.730   9.472 -2.5775  1.6250 -2.0658
  703MOL0     H92773  10.669  10.705   9.580  0.4440 -1.1488  0.5356
  703MOL0     H92774  10.939  10.803   9.650 -0.3179  0.2684  0.8944
  703MOL0     H92775  10.806  10.781   9.774 -1.4947 -1.9258 -0.2636
  703MOL0     H92776  10.935  10.541   9.625 -1.7834 -0.3338 -0.1500
  703MOL0     H92777  10.801  10.544   9.737 -1.8948  1.0164 -2.2645
  703MOL0     H92778  10.180  11.006   8.886 -0.7721  1.9996  3.0645
  703MOL0     H92779   9.983  10.905   8.746  1.2710  0.5251  0.3403
  703MOL0     H92780   9.731  10.309   8.680  1.9755  0.5380  2.4618
  703MOL0     H92781   9.544  10.280   8.552  1.7713 -1.4431  1.7190
  703MOL0     H92782   9.000   9.852   8.296 -0.5687 -0.0760 -2.4761
  703MOL0     H92783   9.222   9.743   8.377  0.6949 -2.4783 -3.5530
  703MOL0     H92784   9.693  10.148   8.423  0.0456 -0.4320 -2.5090
  703MOL0     H92785   9.909  10.139   8.548 -1.6316  0.1167  1.2993
  703MOL0     H92786  10.100   9.753   8.623 -0.6439 -0.4249  2.0128
  703MOL0     H92787  10.025   9.780   8.769 -0.7199  0.3140 -0.3708
  703MOL0     H92788  10.241   9.973   8.726  0.2885 -0.6868 -1.5232
  703MOL0     H92789  10.208   9.862   8.867 -0.5565 -0.9225 -0.3706
  703MOL0     H92790  10.338   9.771   8.615  4.4068  0.5586 -0.2037
  703MOL0     H92791  10.320   9.678   8.761 -3.0178 -0.3516 -0.3276
  703MOL0     H92792  10.465   9.887   8.861 -2.0760  0.0268  0.9401
  703MOL0     H92793  10.528   9.736   8.810  0.7389  1.6004 -0.7063
  703MOL0     H92794  10.717   9.884   8.497  0.7431 -0.1071 -0.5123
  703MOL0     H92795   9.852   9.719   8.615 -2.1658 -1.0031  0.2261
  703MOL0     H92796   9.634   9.733   8.515 -1.6008  1.6279  1.5829
  704MOL0     O92797   7.458   1.238   7.548  0.4512 -0.1055 -0.0907
  704MOL0     C92798   7.524   1.265   7.457  0.2888  0.3600  0.2374
  704MOL0     O92799   7.482   1.310   7.334 -0.1197  0.3192  0.1768
  704MOL0     C92800   7.352   1.317   7.299 -0.0715  0.5015  0.5607
  704MOL0     C92801   7.306   1.433   7.236  0.3972 -0.0518  0.3063
  704MOL0     C92802   7.173   1.437   7.186  0.2130  0.1821  0.9189
  704MOL0     C92803   7.086   1.329   7.197  0.0779  0.1805  0.0167
  704MOL0     O92804   6.958   1.339   7.140 -0.5346  0.9733  0.0073
  704MOL0     C92805   6.871   1.225   7.148  1.0821  0.4248  0.1098
  704MOL0     C92806   6.791   1.232   7.277 -0.2708 -1.2091  0.2629
  704MOL0     C92807   6.718   1.098   7.302  0.7276  0.0721  0.0433
  704MOL0     C92808   6.575   1.112   7.254  0.0738 -0.0912 -0.2304
  704MOL0     C92809   6.562   1.119   7.102 -0.6613  0.7155  0.1566
  704MOL0     C92810   6.424   1.138   7.062  0.2435  0.8871  0.1917
  704MOL0     C92811   6.315   1.044   7.133 -0.5106  0.9427  0.0519
  704MOL0     C92812   6.324   0.897   7.078 -0.0641 -0.3630 -0.3262
  704MOL0     N92813   6.293   0.888   6.937  0.2818  0.0227  0.7309
  704MOL0     C92814   6.173   0.895   6.870 -0.1074 -0.9461  0.0718
  704MOL0     C92815   6.197   0.878   6.734  0.6216  0.3995 -0.3459
  704MOL0     C92816   6.103   0.872   6.624  0.8336 -0.1758 -0.6354
  704MOL0     C92817   5.964   0.926   6.650  0.3421  0.0367  0.3295
  704MOL0     C92818   5.950   1.077   6.631  0.1448  0.0415  0.6767
  704MOL0     C92819   5.795   1.106   6.643  0.1113 -0.3289 -0.1745
  704MOL0     O92820   5.731   1.056   6.527 -0.8770  0.2465  0.3702
  704MOL0     C92821   5.588   1.062   6.518  0.4886 -0.3689 -0.5136
  704MOL0     C92822   5.518   1.130   6.414 -0.9172 -0.0923  0.0509
  704MOL0     C92823   5.379   1.137   6.399  0.0179  0.0916  0.6861
  704MOL0     C92824   5.304   1.060   6.491  0.3263 -0.3610  0.3392
  704MOL0     C92825   5.153   1.080   6.487 -0.5043 -0.0007  0.3091
  704MOL0     O92826   5.104   1.148   6.383 -0.4980  0.4368  0.1244
  704MOL0     C92827   4.977   1.194   6.378  0.2952  0.0029 -0.5550
  704MOL0     C92828   4.927   1.207   6.247  0.0362  0.2668 -0.4773
  704MOL0     C92829   4.797   1.256   6.230  0.2492 -0.5471  0.2335
  704MOL0     C92830   4.705   1.268   6.337 -0.0783  0.7579 -1.0601
  704MOL0     O92831   4.577   1.318   6.323  0.2833 -0.3158 -0.6725
  704MOL0     C92832   4.537   1.346   6.191 -0.0741  0.4918  0.8560
  704MOL0     C92833   4.390   1.382   6.184  0.6795 -0.3642 -0.7864
  704MOL0     C92834   4.344   1.353   6.039 -0.4378 -0.0050  0.4837
  704MOL0     C92835   4.193   1.333   6.017 -0.2602  0.1293 -0.2098
  704MOL0     C92836   4.127   1.464   6.070 -0.3932  0.6226 -1.1347
  704MOL0     C92837   3.984   1.470   6.033 -0.3734  0.6133 -0.0253
  704MOL0     C92838   3.917   1.603   6.052  0.5058 -0.8375 -0.3835
  704MOL0     C92839   3.934   1.674   6.189 -0.2652  0.5151 -1.0794
  704MOL0    Cl92840   3.844   1.834   6.194 -0.3076 -0.1926  0.5287
  704MOL0     C92841   4.753   1.246   6.459  0.7861 -0.4376  0.0871
  704MOL0     C92842   4.890   1.223   6.486 -0.9423 -0.5233 -0.0670
  704MOL0     O92843   5.088   1.034   6.576  0.0213 -0.1399 -0.8067
  704MOL0     C92844   5.365   0.996   6.601 -0.2908  0.1299  0.8048
  704MOL0     C92845   5.504   1.003   6.609  0.7767  0.7469  0.1961
  704MOL0     N92846   6.333   0.856   6.728 -0.2875 -0.3244 -0.1216
  704MOL0     N92847   6.388   0.863   6.842 -0.4738 -0.3469 -0.3607
  704MOL0     C92848   7.130   1.221   7.272  0.7248  0.7525 -0.5472
  704MOL0     C92849   7.265   1.210   7.322  0.0103 -0.5984  0.1138
  704MOL0     C92850   7.670   1.251   7.480 -0.1364  0.6472 -1.0920
  704MOL0     C92851   7.757   1.331   7.409  0.0379 -0.7589 -0.3741
  704MOL0     C92852   7.890   1.314   7.438  0.2650  0.4406  0.2772
  704MOL0     C92853   7.936   1.222   7.530 -1.0801  0.2829 -0.0133
  704MOL0     O92854   8.071   1.203   7.581 -0.0586  0.2608  0.1455
  704MOL0     C92855   8.150   1.321   7.598  0.1693 -0.6597  0.2990
  704MOL0     C92856   8.095   1.403   7.716 -0.3728 -0.6551  0.7163
  704MOL0     C92857   8.111   1.329   7.849 -0.6921  0.4529 -0.2184
  704MOL0     C92858   8.086   1.428   7.958  0.1012  0.3509  0.5387
  704MOL0     C92859   8.146   1.370   8.081  0.0774 -0.5376  1.0995
  704MOL0     C92860   8.204   1.330   8.176 -0.3929 -0.0024 -0.4831
  704MOL0     C92861   7.848   1.134   7.586 -0.1973  0.0344 -0.4289
  704MOL0     C92862   7.712   1.149   7.572 -0.1127 -0.4387  0.6999
  704MOL0     H92863   7.381   1.507   7.211 -1.1198  1.2253 -0.6601
  704MOL0     H92864   7.133   1.526   7.138 -1.5837 -2.1360 -2.3102
  704MOL0     H92865   6.925   1.133   7.126  0.1798  0.5945 -3.4566
  704MOL0     H92866   6.798   1.231   7.067  0.7675 -0.5150  0.3156
  704MOL0     H92867   6.713   1.306   7.263 -2.6422 -3.5264  0.3920
  704MOL0     H92868   6.854   1.266   7.360  1.0824  0.7377 -1.4956
  704MOL0     H92869   6.707   1.075   7.409  0.1838  1.3218  0.2732
  704MOL0     H92870   6.776   1.020   7.253  0.2532 -1.5448  1.9282
  704MOL0     H92871   6.519   1.021   7.281  0.0796 -0.3180 -0.9574
  704MOL0     H92872   6.524   1.200   7.294  0.6094  1.1249 -2.1025
  704MOL0     H92873   6.604   1.029   7.057 -0.8386  1.1143 -0.8243
  704MOL0     H92874   6.605   1.212   7.064  1.1819  0.1248  0.7139
  704MOL0     H92875   6.415   1.133   6.954  0.2871  1.9874  0.1248
  704MOL0     H92876   6.400   1.242   7.087 -1.1587  0.7872 -0.6261
  704MOL0     H92877   6.319   1.038   7.242  1.8240  2.3615  0.1088
  704MOL0     H92878   6.215   1.085   7.120 -1.1400 -1.1360 -2.4385
  704MOL0     H92879   6.255   0.833   7.134  1.6204 -0.6991  1.4636
  704MOL0     H92880   6.419   0.849   7.103 -1.1530 -3.7428 -2.0205
  704MOL0     H92881   6.076   0.900   6.919  1.3099 -1.3184  3.1339
  704MOL0     H92882   6.085   0.765   6.610  1.7180  0.0629 -4.9538
  704MOL0     H92883   6.156   0.911   6.536  1.8464 -1.8624 -0.8266
  704MOL0     H92884   5.938   0.907   6.754  0.4138  4.3320  1.2952
  704MOL0     H92885   5.885   0.873   6.596 -0.2416  0.9582  0.2539
  704MOL0     H92886   6.008   1.119   6.713  1.5798 -1.2767  0.3731
  704MOL0     H92887   5.995   1.112   6.538  2.5967 -0.4613  1.6102
  704MOL0     H92888   5.779   1.214   6.639  0.2574 -0.3339 -1.7069
  704MOL0     H92889   5.756   1.065   6.736 -0.1976  0.2660 -0.0422
  704MOL0     H92890   5.578   1.196   6.352 -0.1827 -1.3648 -0.6368
  704MOL0     H92891   5.352   1.184   6.306  3.3650 -1.8458 -1.4862
  704MOL0     H92892   4.993   1.191   6.163  0.6453  0.2411 -0.0004
  704MOL0     H92893   4.760   1.269   6.129 -0.0472 -1.7873  0.1599
  704MOL0     H92894   4.551   1.257   6.130 -1.9640 -0.0398  1.1528
  704MOL0     H92895   4.595   1.432   6.156 -0.8740  1.3299  1.5468
  704MOL0     H92896   4.372   1.481   6.227  0.6723  0.1458 -1.9535
  704MOL0     H92897   4.343   1.309   6.252  0.9674  0.4084  0.2713
  704MOL0     H92898   4.391   1.260   6.005 -0.5706 -0.4738  1.5252
  704MOL0     H92899   4.371   1.438   5.976 -1.1575 -0.7876 -0.9312
  704MOL0     H92900   4.160   1.314   5.914  1.3878 -0.1767 -0.7186
  704MOL0     H92901   4.163   1.250   6.081  0.1711  2.2705  3.0165
  704MOL0     H92902   4.182   1.549   6.028  3.5457 -0.2712  1.6489
  704MOL0     H92903   4.135   1.474   6.178  0.2206 -0.8933 -1.0180
  704MOL0     H92904   3.935   1.395   6.096 -2.2755  1.6937 -0.1176
  704MOL0     H92905   3.974   1.451   5.926  0.8980 -0.5685  0.0418
  704MOL0     H92906   3.954   1.672   5.974  1.2383 -0.7957 -0.0048
  704MOL0     H92907   3.809   1.593   6.037  0.6117 -0.1577 -1.8707
  704MOL0     H92908   4.042   1.685   6.201 -0.4495 -0.2550  2.1269
  704MOL0     H92909   3.901   1.608   6.270  2.1519 -1.2336 -1.4018
  704MOL0     H92910   4.691   1.271   6.545  0.7467 -0.9491  0.2064
  704MOL0     H92911   4.931   1.233   6.586 -3.4150 -1.6197  1.1303
  704MOL0     H92912   5.306   0.959   6.685 -3.9400  2.1911 -0.6212
  704MOL0     H92913   5.554   0.964   6.698  0.4633  2.6907  1.2795
  704MOL0     H92914   7.065   1.137   7.297  3.1242 -0.8232  0.8109
  704MOL0     H92915   7.300   1.121   7.374 -0.7217 -1.5486 -0.9753
  704MOL0     H92916   7.727   1.410   7.340  0.5603  1.8369  2.1830
  704MOL0     H92917   7.964   1.371   7.383 -0.7356 -1.1624 -2.9918
  704MOL0     H92918   8.163   1.384   7.509 -0.8183 -1.0027 -0.0963
  704MOL0     H92919   8.255   1.296   7.616  1.0640  1.6285 -1.1914
  704MOL0     H92920   8.164   1.488   7.716  1.7117 -2.2504  1.8503
  704MOL0     H92921   7.994   1.442   7.696 -0.5045 -1.5473 -0.4598
  704MOL0     H92922   8.205   1.275   7.861  0.7382  2.7303 -0.7432
  704MOL0     H92923   8.031   1.254   7.858  0.2592 -0.5390  0.2241
  704MOL0     H92924   8.139   1.521   7.935 -1.0088  0.5331 -1.4972
  704MOL0     H92925   7.981   1.449   7.980  0.5361  1.8026  1.3231
  704MOL0     H92926   8.263   1.291   8.256  1.8314 -1.2779 -2.6054
  704MOL0     H92927   7.889   1.075   7.668  2.4877  2.0818 -0.1363
  704MOL0     H92928   7.628   1.105   7.624 -2.6142  3.0116 -0.0194
  705MOL0     O92929   4.227  11.131   7.419 -0.4410 -0.5965 -0.5236
  705MOL0     C92930   4.258  11.017   7.381 -0.0387  0.0891 -0.9775
  705MOL0     O92931   4.195  10.941   7.286  0.1398  0.9654  0.2016
  705MOL0     C92932   4.065  10.975   7.245 -0.0481  0.5304  0.4374
  705MOL0     C92933   4.001  11.103   7.223 -0.2747 -1.0767 -0.0241
  705MOL0     C92934   3.870  11.114   7.167  0.5348  0.6648 -0.3556
  705MOL0     C92935   3.785  11.006   7.137 -0.4084 -0.3383 -0.6394
  705MOL0     O92936   3.652  11.013   7.111  0.9000  0.4838 -0.1344
  705MOL0     C92937   3.579  11.131   7.077  0.0621 -0.3387  0.1342
  705MOL0     C92938   3.532  11.200   7.209  0.8269 -0.2209 -0.2179
  705MOL0     C92939   3.410  11.129   7.282 -0.0406  0.0910  0.6188
  705MOL0     C92940   3.344  11.220   7.393 -0.3431 -0.5605 -0.6195
  705MOL0     C92941   3.251  11.139   7.481 -0.4182 -0.4099  0.8282
  705MOL0     C92942   3.191  11.227   7.596  0.9522  0.1792 -0.0420
  705MOL0     C92943   3.061  11.159   7.661  0.0412 -0.8899 -0.9726
  705MOL0     C92944   2.983  11.232   7.769 -0.2301  0.0196 -0.6053
  705MOL0     N92945   2.846  11.175   7.775  0.1114  1.0237 -0.0578
  705MOL0     C92946   2.815  11.036   7.769  0.8697  0.4724  0.5053
  705MOL0     C92947   2.679  11.041   7.748 -0.4634  0.8893  1.0210
  705MOL0     C92948   2.606  10.909   7.750  0.5258 -0.2465  0.2781
  705MOL0     C92949   2.470  10.920   7.681 -0.9022 -0.6827 -0.2855
  705MOL0     C92950   2.359  10.975   7.767 -0.5582 -0.1700  0.1041
  705MOL0     C92951   2.222  10.984   7.707 -0.5816 -0.6274 -0.0582
  705MOL0     O92952   2.140  11.054   7.795 -0.2062  0.8815  0.6252
  705MOL0     C92953   2.002  11.055   7.782 -0.4536  0.2785 -0.0129
  705MOL0     C92954   1.923  11.153   7.837  0.9480 -0.0214 -0.2551
  705MOL0     C92955   1.781  11.145   7.836 -0.0881 -0.1903  0.0141
  705MOL0     C92956   1.709  11.039   7.778 -0.5866 -0.0803  0.7923
  705MOL0     C92957   1.562  11.045   7.763 -0.2842 -0.5453 -0.8327
  705MOL0     O92958   1.512  11.142   7.844  0.0387 -0.2737  0.2595
  705MOL0     C92959   1.372  11.160   7.853 -0.4521  0.1135 -0.1225
  705MOL0     C92960   1.329  11.289   7.839  0.7756  0.8912  0.8127
  705MOL0     C92961   1.186  11.314   7.837 -0.3423 -0.2363 -0.4866
  705MOL0     C92962   1.090  11.213   7.862  0.5866 -0.9015 -0.8430
  705MOL0     O92963   0.955  11.222   7.875 -0.1010  0.3095  0.3648
  705MOL0     C92964   0.903  11.344   7.833 -0.7727 -0.4524 -0.3269
  705MOL0     C92965   0.753  11.332   7.825 -0.2084 -0.6776 -0.5447
  705MOL0     C92966   0.686  11.472   7.812 -0.2068 -0.3823  0.4468
  705MOL0     C92967   0.534  11.470   7.847  0.0960 -0.0937 -0.5166
  705MOL0     C92968   0.448  11.589   7.797 -0.3807  0.1302  0.4988
  705MOL0     C92969   0.303  11.549   7.814 -0.1973  0.9808 -0.0526
  705MOL0     C92970   0.208  11.651   7.757 -0.4065  0.0435  0.2544
  705MOL0     C92971   0.066  11.619   7.782  0.5658  0.4987 -0.6400
  705MOL0    Cl92972   0.010  11.632   7.959  0.7569  0.1727 -0.5070
  705MOL0     C92973   1.140  11.081   7.880  0.7293  0.6906  0.1321
  705MOL0     C92974   1.284  11.058   7.878  0.5644  0.8895 -0.2644
  705MOL0     O92975   1.506  10.954   7.694  0.2838  0.0940  0.1210
  705MOL0     C92976   1.789  10.937   7.727 -0.0169 -0.3410  0.4989
  705MOL0     C92977   1.932  10.945   7.722  0.4111 -0.3923 -0.2654
  705MOL0     N92978   2.641  11.170   7.731 -0.1739 -0.5838 -0.1917
  705MOL0     N92979   2.738  11.252   7.747  0.7504  0.0945 -0.6983
  705MOL0     C92980   3.843  10.880   7.157 -0.3782  0.2891 -1.0023
  705MOL0     C92981   3.979  10.866   7.208 -0.3858  0.4485  0.5293
  705MOL0     C92982   4.387  10.965   7.413 -0.5056  0.7102 -0.2047
  705MOL0     C92983   4.444  10.843   7.353  0.0312 -0.3986  0.6182
  705MOL0     C92984   4.570  10.795   7.387  0.0074 -0.1925 -0.3580
  705MOL0     C92985   4.643  10.850   7.488 -0.7109  1.0705  0.7497
  705MOL0     O92986   4.766  10.785   7.512 -0.1114 -0.0032  0.7237
  705MOL0     C92987   4.839  10.859   7.608 -0.3636 -0.4146 -0.5469
  705MOL0     C92988   4.980  10.815   7.634 -0.1515 -0.0154 -0.0560
  705MOL0     C92989   5.066  10.835   7.513 -1.2843 -0.4542 -0.3134
  705MOL0     C92990   5.217  10.843   7.539 -0.4021 -0.2519 -0.9023
  705MOL0     C92991   5.294  10.892   7.425 -0.5986 -0.5154 -0.8480
  705MOL0     C92992   5.363  10.917   7.333  0.0932 -0.1033 -0.5477
  705MOL0     C92993   4.586  10.969   7.555 -0.4433  0.7207  0.4754
  705MOL0     C92994   4.464  11.019   7.511 -0.4193  0.2408 -0.5709
  705MOL0     H92995   4.060  11.191   7.245 -0.3439 -0.8410 -0.7468
  705MOL0     H92996   3.841  11.216   7.143 -0.4166  0.3414 -0.6275
  705MOL0     H92997   3.487  11.116   7.020 -1.2128 -1.0019  2.2505
  705MOL0     H92998   3.637  11.203   7.019 -0.1772 -1.1026 -1.0913
  705MOL0     H92999   3.507  11.306   7.193 -0.0948 -0.5140 -0.7897
  705MOL0     H93000   3.617  11.206   7.277  1.5538 -0.6870 -1.0709
  705MOL0     H93001   3.444  11.039   7.334 -1.7206  0.0942  1.8068
  705MOL0     H93002   3.335  11.111   7.204  1.0430 -1.9441 -0.0021
  705MOL0     H93003   3.426  11.266   7.450 -0.6507 -0.8683  0.0735
  705MOL0     H93004   3.293  11.308   7.352  0.2268 -0.0033 -0.1566
  705MOL0     H93005   3.300  11.050   7.522 -1.6510 -0.9526  1.1697
  705MOL0     H93006   3.167  11.106   7.420 -0.1099 -2.4694  1.4362
  705MOL0     H93007   3.173  11.327   7.556  2.4550  0.2743 -0.5446
  705MOL0     H93008   3.263  11.227   7.678 -0.1308 -1.5551  0.9683
  705MOL0     H93009   3.000  11.152   7.571 -2.7723 -1.3952  0.8319
  705MOL0     H93010   3.084  11.060   7.704  3.6436  0.5550  0.8630
  705MOL0     H93011   2.978  11.337   7.738  2.4503  1.1797  2.3506
  705MOL0     H93012   3.044  11.234   7.860 -1.4599  1.8258  0.2300
  705MOL0     H93013   2.869  10.945   7.791  1.8429  0.3334 -2.0919
  705MOL0     H93014   2.584  10.891   7.855 -3.3263  0.2925 -0.3129
  705MOL0     H93015   2.660  10.822   7.711 -0.6448 -1.7409  1.8828
  705MOL0     H93016   2.425  10.822   7.661 -0.3247 -0.9146 -0.4650
  705MOL0     H93017   2.468  10.972   7.585 -2.6097  1.6822  0.9168
  705MOL0     H93018   2.352  10.923   7.863 -0.6677  0.0382  0.2105
  705MOL0     H93019   2.389  11.078   7.791 -1.9982  0.5364 -0.9495
  705MOL0     H93020   2.178  10.884   7.700 -0.9726 -0.4514 -0.1868
  705MOL0     H93021   2.235  11.025   7.606  0.9022 -0.7941  0.0520
  705MOL0     H93022   1.957  11.242   7.888 -0.7743 -1.0060  2.8390
  705MOL0     H93023   1.727  11.232   7.870  1.3888  0.4530  0.8277
  705MOL0     H93024   1.412  11.352   7.808  1.0461 -1.4689 -4.4048
  705MOL0     H93025   1.173  11.417   7.806  1.8473 -0.0828 -1.0052
  705MOL0     H93026   0.947  11.376   7.738  0.8775 -2.9829 -0.5103
  705MOL0     H93027   0.922  11.425   7.905 -5.9684  0.7793  0.0045
  705MOL0     H93028   0.725  11.278   7.916  1.0328 -2.3345 -1.1023
  705MOL0     H93029   0.726  11.271   7.738 -0.5281  0.4192 -1.2452
  705MOL0     H93030   0.697  11.507   7.709 -0.2484  0.6848  0.7887
  705MOL0     H93031   0.729  11.539   7.887 -0.4377  2.1522 -1.5312
  705MOL0     H93032   0.501  11.377   7.799  0.8023 -0.5511 -0.1449
  705MOL0     H93033   0.535  11.447   7.954  2.1128 -0.2718 -0.5345
  705MOL0     H93034   0.480  11.610   7.694 -1.6380 -0.1768  0.0318
  705MOL0     H93035   0.468  11.682   7.851  0.2588  0.4319 -0.2433
  705MOL0     H93036   0.287  11.540   7.922  0.7552  2.5504  0.2639
  705MOL0     H93037   0.285  11.456   7.759 -2.1640  2.1372 -1.5077
  705MOL0     H93038   0.237  11.746   7.804 -0.5378 -0.1840  0.8083
  705MOL0     H93039   0.223  11.671   7.651 -0.2436 -0.2525  0.2233
  705MOL0     H93040   0.051  11.520   7.737 -2.4947 -0.4438  2.0439
  705MOL0     H93041   0.005  11.684   7.718 -0.3332 -2.3777 -2.9358
  705MOL0     H93042   1.079  10.991   7.890  1.5753 -0.5262 -3.8450
  705MOL0     H93043   1.331  10.961   7.879  1.9744  1.5246 -1.3239
  705MOL0     H93044   1.737  10.849   7.690  0.7362 -0.6286  0.1083
  705MOL0     H93045   1.977  10.862   7.669 -0.1723 -1.9567  1.5794
  705MOL0     H93046   3.788  10.789   7.140 -1.1734  0.6940 -0.6476
  705MOL0     H93047   4.017  10.765   7.216  1.5899  1.1404  0.2905
  705MOL0     H93048   4.395  10.792   7.271 -0.1248 -0.0759  0.5087
  705MOL0     H93049   4.611  10.714   7.329  0.0873 -0.4900  0.1076
  705MOL0     H93050   4.785  10.843   7.702  2.5029 -0.6897  1.1677
  705MOL0     H93051   4.843  10.968   7.597  3.8817 -0.5205 -1.7549
  705MOL0     H93052   5.024  10.864   7.722 -2.5324  1.1342  0.5797
  705MOL0     H93053   4.980  10.711   7.666  1.2684 -0.0866 -0.2355
  705MOL0     H93054   5.025  10.920   7.457  0.7520  0.1483 -0.9863
  705MOL0     H93055   5.049  10.745   7.453  1.6076 -2.3432  1.4894
  705MOL0     H93056   5.216  10.916   7.621 -3.9497  0.4059 -1.3547
  705MOL0     H93057   5.260  10.750   7.576  0.5859  0.7661  0.6586
  705MOL0     H93058   5.430  10.952   7.257 -0.5856  1.3683 -0.5057
  705MOL0     H93059   4.633  11.012   7.642 -0.2491 -0.9617  1.2370
  705MOL0     H93060   4.428  11.108   7.562  1.2330  1.2289 -1.0393
  706MOL0     O93061   9.606   7.955   3.276 -0.3909  0.1875  0.5076
  706MOL0     C93062   9.545   7.953   3.172 -0.0455 -0.0957 -0.0167
  706MOL0     O93063   9.603   7.934   3.045 -0.4701 -0.4381 -0.4438
  706MOL0     C93064   9.740   7.928   3.038 -0.3791 -0.2678 -0.6475
  706MOL0     C93065   9.817   7.852   3.121 -0.5919 -0.4988  0.5132
  706MOL0     C93066   9.954   7.854   3.122 -0.6282  0.0849 -0.6390
  706MOL0     C93067  10.024   7.933   3.027  0.4693  0.8247 -0.0138
  706MOL0     O93068  10.155   7.950   3.016 -1.0747  0.0144  0.2311
  706MOL0     C93069  10.228   7.829   3.045  0.0039  0.3469 -0.7671
  706MOL0     C93070  10.379   7.837   3.037 -0.1207  0.3150  0.3384
  706MOL0     C93071  10.435   7.694   3.059 -0.2989  1.1120 -0.7703
  706MOL0     C93072  10.589   7.692   3.034 -0.1365 -0.7547  0.7041
  706MOL0     C93073  10.673   7.744   3.160  0.0468  0.4522 -0.0188
  706MOL0     C93074  10.827   7.730   3.142  0.1698 -0.1645  0.5329
  706MOL0     C93075  10.895   7.770   3.269 -0.0590  0.1113  0.2769
  706MOL0     C93076  10.887   7.921   3.303 -0.3433  0.7653  0.2967
  706MOL0     N93077  10.810   7.944   3.429 -0.3931 -0.0766 -0.8676
  706MOL0     C93078  10.675   7.951   3.447 -0.7868 -0.6588 -0.1138
  706MOL0     C93079  10.667   8.000   3.573  1.1046  0.3075  0.4956
  706MOL0     C93080  10.545   8.021   3.657 -0.6494 -0.6273  0.5538
  706MOL0     C93081  10.411   7.996   3.587  1.1931 -0.1251 -0.3093
  706MOL0     C93082  10.368   7.849   3.600  0.5454 -0.7151 -1.3598
  706MOL0     C93083  10.265   7.799   3.498  0.0489 -0.9228  0.2334
  706MOL0     O93084  10.144   7.885   3.485 -0.0611  0.9432 -0.3576
  706MOL0     C93085  10.019   7.842   3.547  0.3498 -0.1275  0.4675
  706MOL0     C93086  10.000   7.755   3.655  0.8327  0.0271  0.1772
  706MOL0     C93087   9.876   7.737   3.713  0.1309 -0.2533  0.1037
  706MOL0     C93088   9.768   7.813   3.666 -1.0704 -0.8324 -0.6764
  706MOL0     C93089   9.632   7.796   3.728 -0.6191  0.9348  0.1120
  706MOL0     O93090   9.546   7.883   3.680  0.1910 -0.1557 -0.2342
  706MOL0     C93091   9.412   7.868   3.711  0.5479  0.6658 -0.2307
  706MOL0     C93092   9.346   7.741   3.748 -0.5246 -0.0768 -0.0477
  706MOL0     C93093   9.206   7.740   3.762  0.5894  0.1215  0.2014
  706MOL0     C93094   9.133   7.858   3.748  0.5942  0.1770 -0.7356
  706MOL0     O93095   8.992   7.853   3.750 -0.6583 -0.1042  0.4155
  706MOL0     C93096   8.932   7.971   3.803  0.3799  0.4707 -0.1928
  706MOL0     C93097   8.798   7.923   3.876 -1.0409  0.5353 -0.4299
  706MOL0     C93098   8.689   7.876   3.788 -0.5597 -0.1557  0.9951
  706MOL0     C93099   8.558   7.849   3.864 -0.3799  0.1613  0.6895
  706MOL0     C93100   8.457   7.787   3.762  0.4628  0.1652  0.2208
  706MOL0     C93101   8.353   7.692   3.824  0.0446  0.0214  0.4778
  706MOL0     C93102   8.255   7.627   3.725  0.8607 -0.3547 -0.3066
  706MOL0     C93103   8.139   7.718   3.677 -0.3354 -0.6493  0.6204
  706MOL0    Cl93104   7.982   7.634   3.650  0.4294 -0.5896  0.2207
  706MOL0     C93105   9.201   7.976   3.715  0.1380 -0.2353 -1.3307
  706MOL0     C93106   9.342   7.989   3.693  0.1103  0.3281 -0.0913
  706MOL0     O93107   9.615   7.723   3.821 -0.5454 -0.5788  0.0924
  706MOL0     C93108   9.790   7.900   3.565 -0.1416  0.3866  0.3037
  706MOL0     C93109   9.908   7.912   3.500 -0.1737  0.0409 -0.8330
  706MOL0     N93110  10.797   8.020   3.623  0.1332 -0.3643 -0.0844
  706MOL0     N93111  10.881   7.987   3.538  0.5835  0.3622  0.3387
  706MOL0     C93112   9.944   8.002   2.931 -0.3237  0.1284  0.4340
  706MOL0     C93113   9.803   8.000   2.940  0.1620  0.7497 -0.0736
  706MOL0     C93114   9.399   7.925   3.174 -0.5571  0.1312 -0.0846
  706MOL0     C93115   9.329   7.918   3.059  0.2099 -0.1418 -1.1364
  706MOL0     C93116   9.180   7.918   3.057 -0.4644 -0.6778 -0.1603
  706MOL0     C93117   9.110   7.924   3.176 -0.4424 -0.0234  0.0701
  706MOL0     O93118   8.968   7.909   3.160 -0.7287  0.0194 -0.2694
  706MOL0     C93119   8.904   7.874   3.285 -0.2819 -0.3209 -0.1431
  706MOL0     C93120   8.759   7.832   3.246  0.1270  0.1545  0.0798
  706MOL0     C93121   8.668   7.881   3.358 -0.4626  0.8867 -0.1644
  706MOL0     C93122   8.533   7.809   3.346 -0.0406 -0.4072 -0.0969
  706MOL0     C93123   8.474   7.841   3.220  0.6474 -0.1982 -0.9272
  706MOL0     C93124   8.438   7.846   3.108 -0.2704  0.3211  0.5311
  706MOL0     C93125   9.185   7.932   3.295  0.0405  0.2684  0.2502
  706MOL0     C93126   9.322   7.933   3.293 -0.2896 -0.6749  0.3735
  706MOL0     H93127   9.768   7.806   3.206 -0.6767  1.0377  1.3273
  706MOL0     H93128  10.003   7.790   3.196  0.3579 -0.0387 -1.3894
  706MOL0     H93129  10.198   7.753   2.973 -2.3522  1.7439 -1.3873
  706MOL0     H93130  10.216   7.810   3.152  2.8093  0.6914 -0.3039
  706MOL0     H93131  10.412   7.914   3.107 -0.2161  1.6758 -1.0765
  706MOL0     H93132  10.403   7.872   2.936 -2.1161 -0.2202 -0.3802
  706MOL0     H93133  10.404   7.633   2.973 -0.1179 -4.1717  2.4605
  706MOL0     H93134  10.403   7.646   3.152  0.0445 -0.9719 -1.6592
  706MOL0     H93135  10.627   7.593   3.007 -1.1290 -0.7998 -0.6490
  706MOL0     H93136  10.609   7.752   2.945  0.5940 -2.0373 -0.0164
  706MOL0     H93137  10.645   7.689   3.250  4.0954 -2.3047 -0.2041
  706MOL0     H93138  10.661   7.851   3.179  4.9439  0.6899  3.5814
  706MOL0     H93139  10.853   7.796   3.060 -1.5522  1.8859  1.5423
  706MOL0     H93140  10.859   7.628   3.117 -1.9337  0.0591 -4.1132
  706MOL0     H93141  10.861   7.711   3.354 -2.7766 -0.6595 -1.2188
  706MOL0     H93142  11.000   7.745   3.253  0.0329 -0.5094  1.7455
  706MOL0     H93143  10.835   7.973   3.222 -0.7843 -0.1915 -0.0474
  706MOL0     H93144  10.990   7.957   3.313 -0.1725  0.8065 -1.2878
  706MOL0     H93145  10.608   7.919   3.368  0.2618 -0.4657 -1.1136
  706MOL0     H93146  10.558   8.127   3.677  0.5276 -0.1530 -2.2961
  706MOL0     H93147  10.563   7.959   3.746  2.3561  0.2492  0.6523
  706MOL0     H93148  10.426   8.024   3.482  3.5499  0.2355  0.0546
  706MOL0     H93149  10.338   8.067   3.627  1.5163 -0.0197  0.1090
  706MOL0     H93150  10.454   7.782   3.608  0.1114 -1.2604 -1.2486
  706MOL0     H93151  10.312   7.845   3.693 -2.1879  1.5393 -2.7457
  706MOL0     H93152  10.249   7.694   3.523  2.9761 -1.4188  0.3611
  706MOL0     H93153  10.301   7.801   3.394  1.3257  1.6314  0.6693
  706MOL0     H93154  10.086   7.699   3.690  0.5431 -0.6260 -0.1324
  706MOL0     H93155   9.852   7.656   3.781 -2.5453  2.3834  2.5709
  706MOL0     H93156   9.404   7.650   3.760 -1.5569 -0.9095 -1.1585
  706MOL0     H93157   9.145   7.651   3.776  1.6178 -0.9002 -1.4023
  706MOL0     H93158   8.911   8.030   3.714  1.0936  1.7581  0.4696
  706MOL0     H93159   9.002   8.025   3.867 -1.5774  0.9086  1.7014
  706MOL0     H93160   8.773   8.001   3.948  2.9381 -0.0821  1.9527
  706MOL0     H93161   8.813   7.834   3.937 -0.6449  0.1020 -1.1401
  706MOL0     H93162   8.715   7.779   3.744 -1.1765 -0.5491  1.4785
  706MOL0     H93163   8.666   7.950   3.711 -0.9925  0.0043  1.2772
  706MOL0     H93164   8.573   7.781   3.949  2.2589 -0.5054 -0.2095
  706MOL0     H93165   8.512   7.941   3.900  4.0324  2.8455  0.0947
  706MOL0     H93166   8.508   7.737   3.678 -3.3357  0.2516 -2.3902
  706MOL0     H93167   8.401   7.869   3.715 -1.0076 -0.2949  1.1012
  706MOL0     H93168   8.292   7.748   3.896 -3.4641 -0.7615 -1.6460
  706MOL0     H93169   8.405   7.615   3.882  0.3306  2.5372  3.8761
  706MOL0     H93170   8.308   7.572   3.646 -0.8776 -1.2614 -0.9031
  706MOL0     H93171   8.201   7.542   3.768 -0.2666 -1.1339 -3.0123
  706MOL0     H93172   8.171   7.766   3.584 -0.6304 -1.4062  0.1216
  706MOL0     H93173   8.112   7.787   3.757 -3.9582 -2.3748  1.0949
  706MOL0     H93174   9.143   8.068   3.708  1.4007  0.6838 -0.2052
  706MOL0     H93175   9.397   8.081   3.676  0.7188 -0.3125 -1.8793
  706MOL0     H93176   9.702   7.959   3.538 -0.7811 -0.2548  0.9176
  706MOL0     H93177   9.893   7.987   3.423 -1.4053  0.8834  0.1906
  706MOL0     H93178   9.993   8.062   2.856  1.6784 -1.5615  0.2896
  706MOL0     H93179   9.754   8.066   2.869  1.6626 -0.4202 -2.3119
  706MOL0     H93180   9.390   7.926   2.969 -1.5837 -0.8144 -2.4603
  706MOL0     H93181   9.115   7.908   2.970 -1.2362  0.0099  0.3214
  706MOL0     H93182   8.899   7.960   3.352  2.0361  0.7448 -1.2211
  706MOL0     H93183   8.952   7.788   3.333  0.5870 -1.0661 -2.2477
  706MOL0     H93184   8.740   7.868   3.145  4.1223 -1.6980 -1.5479
  706MOL0     H93185   8.753   7.725   3.227 -3.3136  0.5743 -2.0493
  706MOL0     H93186   8.656   7.989   3.356 -3.6823  0.6746  1.9666
  706MOL0     H93187   8.712   7.854   3.455  1.7433 -0.5615 -1.4579
  706MOL0     H93188   8.558   7.702   3.344  1.2438 -0.1978  2.0217
  706MOL0     H93189   8.471   7.842   3.429 -2.0471  0.4250 -1.8283
  706MOL0     H93190   8.422   7.851   3.002  4.5595 -3.9012 -0.7779
  706MOL0     H93191   9.134   7.932   3.391 -0.7452 -0.8736 -0.1498
  706MOL0     H93192   9.366   7.926   3.392  1.9067 -0.0871 -0.4934
  707MOL0     O93193   1.692   5.208   1.633  0.0658 -0.1912  0.0141
  707MOL0     C93194   1.713   5.316   1.583 -1.4522 -0.1888  0.3401
  707MOL0     O93195   1.617   5.403   1.520 -1.0865  0.0810  0.4109
  707MOL0     C93196   1.499   5.355   1.469 -0.2245 -1.0814  0.2767
  707MOL0     C93197   1.418   5.274   1.539 -0.1396 -0.7217  0.6012
  707MOL0     C93198   1.290   5.243   1.482  0.0941 -0.7193  0.3337
  707MOL0     C93199   1.254   5.293   1.355 -0.9770 -0.2540 -0.0511
  707MOL0     O93200   1.136   5.287   1.297  0.0744  0.4083 -0.9894
  707MOL0     C93201   1.023   5.283   1.384 -0.3170  0.3490 -0.0068
  707MOL0     C93202   0.897   5.254   1.300 -0.0531  0.2734  0.5320
  707MOL0     C93203   0.778   5.317   1.380 -1.2039  0.0418 -0.3177
  707MOL0     C93204   0.658   5.292   1.297 -0.2437 -0.0575 -0.2455
  707MOL0     C93205   0.558   5.401   1.331  0.7200 -0.2293  0.1177
  707MOL0     C93206   0.416   5.384   1.280 -0.3428 -0.7819  0.3477
  707MOL0     C93207   0.354   5.516   1.313 -0.0702 -0.1016  0.4164
  707MOL0     C93208   0.217   5.506   1.240 -0.6066  0.0828 -0.7485
  707MOL0     N93209   0.131   5.618   1.282 -0.2332  0.7030  1.6613
  707MOL0     C93210  -0.002   5.621   1.257  0.5697 -0.3759 -0.4373
  707MOL0     C93211  -0.054   5.727   1.325  0.3042  0.6489  0.3850
  707MOL0     C93212  -0.209   5.758   1.327 -0.2731  0.5330 -0.0424
  707MOL0     C93213  -0.286   5.682   1.425  0.5247 -0.2010 -0.1991
  707MOL0     C93214  -0.437   5.729   1.423  0.2054  0.1472  0.2864
  707MOL0     C93215  -0.510   5.630   1.507  0.6419 -0.2594 -0.1408
  707MOL0     O93216  -0.651   5.635   1.465  0.4030  0.3716 -0.3254
  707MOL0     C93217  -0.737   5.717   1.542 -0.4254 -0.1023  0.5696
  707MOL0     C93218  -0.711   5.751   1.677 -0.3183 -0.1309  0.5925
  707MOL0     C93219  -0.790   5.849   1.738 -0.9345 -0.4969  0.5915
  707MOL0     C93220  -0.906   5.897   1.678  0.8586  0.2678 -0.0244
  707MOL0     C93221  -1.000   5.979   1.747  0.1448 -0.4672 -0.2083
  707MOL0     O93222  -1.125   6.000   1.678 -0.3301  0.6659 -0.0236
  707MOL0     C93223  -1.218   6.092   1.730  0.5709  0.0737 -0.3097
  707MOL0     C93224  -1.358   6.058   1.731  0.4019 -1.4251  0.1972
  707MOL0     C93225  -1.447   6.145   1.790  0.3827 -0.0973  0.8155
  707MOL0     C93226  -1.406   6.271   1.845 -0.2617 -0.4030  0.1931
  707MOL0     O93227  -1.485   6.374   1.883  0.1484 -0.3292 -0.0352
  707MOL0     C93228  -1.629   6.363   1.892 -0.7655  0.1009  0.1557
  707MOL0     C93229  -1.706   6.363   1.757  0.3943 -0.7957 -0.2890
  707MOL0     C93230  -1.848   6.387   1.780 -0.0509  0.2357 -0.7578
  707MOL0     C93231  -1.937   6.364   1.664  0.0068  0.3945 -0.1551
  707MOL0     C93232  -2.055   6.460   1.656 -0.3935  0.1290 -0.4696
  707MOL0     C93233  -2.007   6.603   1.614 -1.2559  0.0590  0.0802
  707MOL0     C93234  -2.119   6.691   1.575  0.0597  0.7778 -0.5864
  707MOL0     C93235  -2.240   6.685   1.675 -0.3976  0.1030 -0.2888
  707MOL0    Cl93236  -2.184   6.711   1.851 -0.3343 -0.0734  0.1842
  707MOL0     C93237  -1.266   6.303   1.839  0.1874 -0.6750  0.5104
  707MOL0     C93238  -1.173   6.211   1.788 -0.3856  0.4307 -0.5702
  707MOL0     O93239  -0.971   6.028   1.852 -0.1846 -0.0525  0.4274
  707MOL0     C93240  -0.930   5.865   1.540 -0.5472  0.8376 -0.4711
  707MOL0     C93241  -0.856   5.771   1.477  0.8581 -0.1755  0.3300
  707MOL0     N93242   0.058   5.785   1.391  0.6315  0.4430  0.0737
  707MOL0     N93243   0.165   5.714   1.372  0.5589 -0.8146  0.5652
  707MOL0     C93244   1.347   5.362   1.286  0.1606 -0.0058 -0.6876
  707MOL0     C93245   1.471   5.403   1.341  0.1668  0.3609 -0.8196
  707MOL0     C93246   1.851   5.381   1.580 -0.0454 -0.0768 -0.2744
  707MOL0     C93247   1.958   5.293   1.602  0.1951 -0.6761 -0.6160
  707MOL0     C93248   2.093   5.343   1.585  0.2022 -0.5044 -0.8476
  707MOL0     C93249   2.124   5.475   1.538 -0.0812  0.3174  0.5943
  707MOL0     O93250   2.256   5.521   1.531 -0.9211 -0.0277  1.1261
  707MOL0     C93251   2.364   5.432   1.577 -0.6826 -0.1060 -0.4611
  707MOL0     C93252   2.477   5.525   1.618  0.3521  0.8104  0.2321
  707MOL0     C93253   2.480   5.534   1.772 -0.0268  0.1735  0.2801
  707MOL0     C93254   2.606   5.613   1.818  0.5063 -0.2868 -0.7419
  707MOL0     C93255   2.732   5.571   1.749  0.4913 -0.3013 -0.9466
  707MOL0     C93256   2.835   5.552   1.690  0.0826  0.3084  0.2806
  707MOL0     C93257   2.013   5.557   1.514 -1.0819  0.1532  0.6008
  707MOL0     C93258   1.882   5.514   1.527  0.1702  0.2508  0.9028
  707MOL0     H93259   1.453   5.235   1.634  1.7934  0.1227  0.2875
  707MOL0     H93260   1.209   5.204   1.544 -1.7744 -1.1717 -2.2156
  707MOL0     H93261   1.019   5.385   1.423  1.7187  0.7915 -0.8137
  707MOL0     H93262   1.028   5.215   1.470  2.5558 -0.7231 -0.9018
  707MOL0     H93263   0.884   5.149   1.272 -1.2010  0.5084  0.1514
  707MOL0     H93264   0.908   5.308   1.206 -0.3162 -0.7210 -0.0907
  707MOL0     H93265   0.793   5.424   1.393 -0.6033 -0.0563 -0.1882
  707MOL0     H93266   0.779   5.274   1.481 -1.8621  3.0877  1.0811
  707MOL0     H93267   0.680   5.297   1.189  3.0450 -1.1434  0.2509
  707MOL0     H93268   0.614   5.196   1.325 -0.5939  0.6314  1.7055
  707MOL0     H93269   0.600   5.492   1.287  0.7007  0.0290  0.6276
  707MOL0     H93270   0.559   5.415   1.439  0.7925 -1.6954  0.3270
  707MOL0     H93271   0.358   5.306   1.330 -4.2776  1.1398 -0.7906
  707MOL0     H93272   0.428   5.380   1.172  0.8009  2.9417  0.1923
  707MOL0     H93273   0.346   5.523   1.422 -2.4751 -1.5541  0.4268
  707MOL0     H93274   0.411   5.602   1.279  0.9470 -1.1407 -0.5664
  707MOL0     H93275   0.164   5.412   1.259 -2.3224  1.1347 -0.1000
  707MOL0     H93276   0.231   5.511   1.131 -1.1317 -1.9907 -0.9644
  707MOL0     H93277  -0.062   5.567   1.184 -2.2094 -0.3718  1.6686
  707MOL0     H93278  -0.264   5.733   1.235 -2.2214 -0.8804  1.4116
  707MOL0     H93279  -0.223   5.864   1.347 -3.6868  0.6234 -2.0749
  707MOL0     H93280  -0.253   5.712   1.525 -0.6565 -1.8831  0.7623
  707MOL0     H93281  -0.273   5.577   1.397 -1.6215 -0.6622  0.3701
  707MOL0     H93282  -0.455   5.832   1.455  2.6306 -0.2436  3.3355
  707MOL0     H93283  -0.465   5.719   1.318  0.7097  1.1243  0.0535
  707MOL0     H93284  -0.473   5.653   1.607 -1.6856  2.1675  0.2729
  707MOL0     H93285  -0.479   5.526   1.495 -1.2171 -0.8532 -0.1428
  707MOL0     H93286  -0.624   5.706   1.725  1.7163  1.4870 -1.3564
  707MOL0     H93287  -0.748   5.886   1.831  2.8313 -1.0863 -0.7403
  707MOL0     H93288  -1.393   5.975   1.672  0.3470 -0.2713 -1.4408
  707MOL0     H93289  -1.552   6.118   1.781  0.6792 -0.9805 -0.3683
  707MOL0     H93290  -1.678   6.446   1.942 -3.1751 -0.3939 -1.2183
  707MOL0     H93291  -1.654   6.276   1.954  0.6872 -2.8276 -3.0251
  707MOL0     H93292  -1.690   6.270   1.701 -0.7585 -1.1186 -0.1097
  707MOL0     H93293  -1.663   6.445   1.700 -0.6239 -1.0170 -1.4279
  707MOL0     H93294  -1.857   6.494   1.804 -1.8996  0.0679 -0.5738
  707MOL0     H93295  -1.877   6.343   1.876  0.2468  1.7597  0.0665
  707MOL0     H93296  -1.875   6.368   1.574  1.3752  0.1865  0.7473
  707MOL0     H93297  -1.970   6.260   1.675 -1.1939  0.1438 -4.4124
  707MOL0     H93298  -2.107   6.461   1.752  0.8882 -1.0931  0.2867
  707MOL0     H93299  -2.126   6.426   1.580 -1.9690 -0.1421  1.0622
  707MOL0     H93300  -1.925   6.600   1.542  0.7954 -0.3898  2.2803
  707MOL0     H93301  -1.959   6.658   1.696  0.5741 -0.1477 -0.8071
  707MOL0     H93302  -2.079   6.791   1.561  2.2891  0.1101  0.4945
  707MOL0     H93303  -2.158   6.652   1.481 -1.2439 -2.2725  1.0497
  707MOL0     H93304  -2.286   6.586   1.660 -0.5869  0.0004  0.9047
  707MOL0     H93305  -2.308   6.767   1.653  1.0475  1.4474  0.1153
  707MOL0     H93306  -1.233   6.400   1.874  2.7952 -1.8133  1.4385
  707MOL0     H93307  -1.070   6.244   1.794 -0.6548  1.0656  0.8930
  707MOL0     H93308  -1.006   5.919   1.484  0.2129 -0.3362 -2.7725
  707MOL0     H93309  -0.875   5.742   1.374  1.9367 -1.4996  0.4682
  707MOL0     H93310   1.326   5.393   1.183 -1.6540  2.9829  0.4426
  707MOL0     H93311   1.549   5.456   1.287  3.0344 -1.2531  1.4622
  707MOL0     H93312   1.944   5.190   1.632  1.5749 -0.6425  0.2337
  707MOL0     H93313   2.168   5.266   1.601  1.9095  0.9073 -1.6324
  707MOL0     H93314   2.403   5.383   1.487  2.3219 -1.0235  1.1905
  707MOL0     H93315   2.332   5.369   1.660 -0.2235  0.8693  0.4785
  707MOL0     H93316   2.568   5.477   1.581  0.3588  2.7561 -2.6408
  707MOL0     H93317   2.463   5.626   1.577 -0.9651  1.4989  2.2484
  707MOL0     H93318   2.478   5.430   1.806  1.5770  0.3455  1.0351
  707MOL0     H93319   2.389   5.582   1.808 -0.7094 -1.7907  1.3223
  707MOL0     H93320   2.581   5.718   1.805 -1.5918 -0.1973  2.8347
  707MOL0     H93321   2.618   5.597   1.925 -1.6575  1.2234 -0.2115
  707MOL0     H93322   2.930   5.521   1.651 -1.3341 -2.3963 -1.3453
  707MOL0     H93323   2.043   5.644   1.457  1.6579 -2.5303 -2.4964
  707MOL0     H93324   1.805   5.577   1.485  0.3786  1.3915  2.1708
  708MOL0     O93325   3.350   8.604   9.340  0.3141 -0.3365 -0.2156
  708MOL0     C93326   3.440   8.525   9.371 -0.1174 -0.2267  0.0900
  708MOL0     O93327   3.427   8.416   9.461 -0.8343 -0.8729  0.0792
  708MOL0     C93328   3.299   8.367   9.487 -0.1865  0.6445 -0.1169
  708MOL0     C93329   3.278   8.338   9.620  0.1660 -0.3547 -0.4062
  708MOL0     C93330   3.149   8.302   9.665  0.9816 -0.5882 -0.8338
  708MOL0     C93331   3.037   8.295   9.581 -0.1437 -0.1110 -0.1042
  708MOL0     O93332   2.917   8.261   9.631 -0.3215 -0.3835 -1.0075
  708MOL0     C93333   2.829   8.199   9.541 -0.4019  0.4097 -0.4067
  708MOL0     C93334   2.729   8.129   9.627 -0.0131  0.4023 -0.1055
  708MOL0     C93335   2.674   8.226   9.734  0.4055  0.1446 -0.2134
  708MOL0     C93336   2.523   8.195   9.768 -0.3308 -0.0568 -0.0884
  708MOL0     C93337   2.472   8.229   9.907 -0.1264  0.1929 -0.0789
  708MOL0     C93338   2.571   8.192  10.026  0.3455  1.1783 -0.1331
  708MOL0     C93339   2.607   8.043  10.007 -0.4442  0.7791  0.3027
  708MOL0     C93340   2.484   7.947   9.993  0.0489  0.5113 -0.9611
  708MOL0     N93341   2.403   7.956  10.119  0.2948 -0.3462 -0.1299
  708MOL0     C93342   2.294   8.040  10.142 -0.6018  0.6134  0.1718
  708MOL0     C93343   2.284   8.057  10.276 -0.0376  0.7825 -0.6546
  708MOL0     C93344   2.175   8.150  10.345 -0.1912  0.1414  0.5174
  708MOL0     C93345   2.193   8.301  10.318 -1.4800  0.3841 -0.9789
  708MOL0     C93346   2.335   8.332  10.372 -0.9245 -0.8183 -0.3687
  708MOL0     C93347   2.368   8.478  10.369  0.6298 -0.6007  0.2602
  708MOL0     O93348   2.378   8.530  10.230 -0.2812 -0.4282 -0.8628
  708MOL0     C93349   2.502   8.532  10.180  0.0795 -0.2632 -0.2037
  708MOL0     C93350   2.616   8.455  10.220  0.5865  0.7531  0.7876
  708MOL0     C93351   2.729   8.464  10.147 -0.3516  0.3937  0.7974
  708MOL0     C93352   2.747   8.553  10.040  0.1277  0.3206 -0.8584
  708MOL0     C93353   2.884   8.578   9.975 -0.1525 -0.2586  0.6652
  708MOL0     O93354   2.893   8.660   9.864  0.8370 -0.3455  0.3398
  708MOL0     C93355   3.018   8.705   9.830 -0.4075  0.1117 -0.1986
  708MOL0     C93356   3.078   8.670   9.710 -0.1021  0.5574 -0.6055
  708MOL0     C93357   3.195   8.727   9.662 -0.2881 -0.8411 -0.2769
  708MOL0     C93358   3.258   8.827   9.738 -0.1067 -0.0629 -0.2518
  708MOL0     O93359   3.372   8.900   9.707 -0.1429 -0.0489  0.4373
  708MOL0     C93360   3.463   8.819   9.632 -0.8892  0.2593 -0.2204
  708MOL0     C93361   3.592   8.892   9.653  0.3165  0.2473  0.1220
  708MOL0     C93362   3.713   8.825   9.582  0.7226 -0.5666  0.7214
  708MOL0     C93363   3.846   8.875   9.643  0.0042 -0.8764  0.0994
  708MOL0     C93364   3.972   8.830   9.577  0.2441 -0.6116 -0.6461
  708MOL0     C93365   4.099   8.865   9.654  0.0407 -0.8071  1.3485
  708MOL0     C93366   4.169   8.731   9.681 -0.0897 -0.1664 -0.6396
  708MOL0     C93367   4.289   8.747   9.782  0.0114  0.3145  0.2545
  708MOL0    Cl93368   4.437   8.846   9.737 -0.2572  0.4352  0.0089
  708MOL0     C93369   3.204   8.851   9.862  1.2992 -0.3633  0.0660
  708MOL0     C93370   3.077   8.802   9.907 -0.2862 -0.3627 -0.4205
  708MOL0     O93371   2.979   8.512  10.016 -0.1538  0.2215 -0.3157
  708MOL0     C93372   2.638   8.641  10.010  0.4918 -0.8516  0.0006
  708MOL0     C93373   2.511   8.625  10.074  0.8045  1.6805  0.4148
  708MOL0     N93374   2.382   7.974  10.328  0.5738  0.4041 -0.2637
  708MOL0     N93375   2.452   7.913  10.236  0.2395 -0.2211  0.6397
  708MOL0     C93376   3.060   8.315   9.441  0.0631 -0.1937  0.1280
  708MOL0     C93377   3.192   8.350   9.394 -0.2532 -0.4303 -0.4197
  708MOL0     C93378   3.583   8.571   9.331  0.0457 -0.3778  0.0334
  708MOL0     C93379   3.605   8.665   9.218  0.3454  0.8473 -0.5990
  708MOL0     C93380   3.733   8.690   9.173  0.6822  0.3208  0.1788
  708MOL0     C93381   3.846   8.634   9.224  0.1970  0.7066  0.2894
  708MOL0     O93382   3.962   8.644   9.149  0.2573 -0.8202 -0.1315
  708MOL0     C93383   4.089   8.644   9.221 -0.1193 -0.1988  0.8019
  708MOL0     C93384   4.190   8.670   9.112 -0.1306  0.3413  0.2976
  708MOL0     C93385   4.181   8.806   9.038 -0.3395 -0.1464  0.7651
  708MOL0     C93386   4.317   8.842   8.991  0.4289 -0.3102  0.5382
  708MOL0     C93387   4.372   8.740   8.893 -0.1054 -1.2823  0.2548
  708MOL0     C93388   4.416   8.673   8.800  0.6576  0.5064 -0.4030
  708MOL0     C93389   3.831   8.549   9.337  0.2976  0.4875  0.1717
  708MOL0     C93390   3.704   8.523   9.391 -0.1505  0.3752  0.8096
  708MOL0     H93391   3.349   8.367   9.697 -1.9659 -3.8377  3.2916
  708MOL0     H93392   3.128   8.291   9.771  1.7735  0.0444 -0.6013
  708MOL0     H93393   2.881   8.132   9.472  1.4507  2.0800 -0.7425
  708MOL0     H93394   2.771   8.275   9.488 -2.8954  0.0123  1.5871
  708MOL0     H93395   2.771   8.039   9.674 -0.2388 -0.5401 -1.6533
  708MOL0     H93396   2.649   8.101   9.559  1.0944  0.9811 -1.6973
  708MOL0     H93397   2.675   8.327   9.692  1.1801  0.0641 -0.3851
  708MOL0     H93398   2.741   8.212   9.820  3.0670  0.9291 -2.0420
  708MOL0     H93399   2.463   8.242   9.690 -0.0075 -0.9959 -0.9230
  708MOL0     H93400   2.517   8.086   9.753 -0.5583 -0.4021  2.1279
  708MOL0     H93401   2.372   8.185   9.917 -0.2665 -0.1245 -2.2769
  708MOL0     H93402   2.479   8.338   9.904  2.2397  0.1058  0.3578
  708MOL0     H93403   2.531   8.213  10.126 -2.2206  0.4494 -0.9219
  708MOL0     H93404   2.670   8.239  10.026  0.5117  0.8955  1.4286
  708MOL0     H93405   2.671   8.036   9.918 -1.6866 -3.8930 -0.4957
  708MOL0     H93406   2.674   8.003  10.083  1.7329  1.1864 -1.3135
  708MOL0     H93407   2.532   7.849   9.996 -1.8156 -0.4407  0.7221
  708MOL0     H93408   2.427   7.945   9.899 -1.6972 -0.5805  0.0643
  708MOL0     H93409   2.237   8.078  10.057 -1.8986  0.0162  0.7587
  708MOL0     H93410   2.178   8.138  10.454  0.4892  2.9199  0.8655
  708MOL0     H93411   2.077   8.118  10.308  0.9914  0.2124 -3.0249
  708MOL0     H93412   2.119   8.359  10.373 -1.2147  0.0642 -0.2838
  708MOL0     H93413   2.184   8.316  10.210  0.1360  3.5581 -0.8032
  708MOL0     H93414   2.324   8.304  10.477  0.5816 -0.2833 -0.0385
  708MOL0     H93415   2.423   8.283  10.329 -0.2271 -0.1777  0.2842
  708MOL0     H93416   2.460   8.484  10.428 -2.1999 -1.1850  5.2546
  708MOL0     H93417   2.304   8.544  10.427  0.1984 -0.8109  0.0321
  708MOL0     H93418   2.613   8.372  10.290 -0.7709 -3.0021 -3.3029
  708MOL0     H93419   2.816   8.409  10.183  1.0564  0.3789 -2.2954
  708MOL0     H93420   3.018   8.605   9.648  2.0557 -1.4447 -0.7236
  708MOL0     H93421   3.228   8.698   9.562 -0.2952 -5.0363  0.7416
  708MOL0     H93422   3.428   8.827   9.529 -0.6225 -0.1974 -0.3475
  708MOL0     H93423   3.468   8.719   9.675 -2.7257 -0.6476 -1.9510
  708MOL0     H93424   3.606   8.896   9.762 -2.3807  0.9086  0.5260
  708MOL0     H93425   3.579   8.996   9.622  3.5919  0.7363  0.0686
  708MOL0     H93426   3.698   8.845   9.476 -3.2610 -2.0489  0.8124
  708MOL0     H93427   3.709   8.715   9.582 -1.1466 -0.5501 -0.6528
  708MOL0     H93428   3.858   8.983   9.635  2.2534 -1.1614 -1.3542
  708MOL0     H93429   3.846   8.844   9.748  1.2700 -1.1793  0.0246
  708MOL0     H93430   3.977   8.883   9.482  3.3370  2.0942  0.8627
  708MOL0     H93431   3.966   8.724   9.550  0.8455 -0.6934 -0.4840
  708MOL0     H93432   4.073   8.921   9.745 -0.2406 -2.1879  2.1402
  708MOL0     H93433   4.175   8.914   9.593  1.1957 -4.2143 -0.1559
  708MOL0     H93434   4.102   8.668   9.741 -0.2797  1.8657  1.4879
  708MOL0     H93435   4.206   8.688   9.588 -2.2161 -0.0276 -1.6122
  708MOL0     H93436   4.322   8.647   9.811  2.1921  0.9442  0.1267
  708MOL0     H93437   4.262   8.790   9.878 -2.7728 -1.6904  0.4854
  708MOL0     H93438   3.259   8.924   9.921  1.7764 -0.1366 -0.6466
  708MOL0     H93439   3.026   8.834   9.998 -2.0970 -0.1104 -1.4910
  708MOL0     H93440   2.649   8.722   9.939 -0.3518  0.2102  1.0406
  708MOL0     H93441   2.422   8.682  10.051 -0.2273  0.4266  1.1048
  708MOL0     H93442   2.985   8.297   9.365  0.8056 -2.4218 -0.1592
  708MOL0     H93443   3.200   8.373   9.288  0.6479 -3.6254 -1.1351
  708MOL0     H93444   3.513   8.701   9.173 -1.8015 -1.0839  1.8762
  708MOL0     H93445   3.743   8.767   9.097 -1.9670 -0.2356 -0.8160
  708MOL0     H93446   4.114   8.549   9.270 -0.3883 -1.8348 -2.0108
  708MOL0     H93447   4.091   8.726   9.293 -1.2362 -0.0292  0.6588
  708MOL0     H93448   4.286   8.662   9.165 -0.6474 -0.3189  1.1747
  708MOL0     H93449   4.193   8.586   9.042  2.9346 -0.8412  1.6490
  708MOL0     H93450   4.134   8.889   9.091  1.6549  2.3089 -1.1007
  708MOL0     H93451   4.114   8.785   8.954 -1.4882  0.9828  1.3587
  708MOL0     H93452   4.307   8.943   8.949  0.2860 -0.5144  0.0721
  708MOL0     H93453   4.384   8.848   9.077  0.2619  0.3206  0.6325
  708MOL0     H93454   4.477   8.625   8.726  1.9803  0.4394  0.6844
  708MOL0     H93455   3.914   8.498   9.385 -1.0786 -0.8162  1.2851
  708MOL0     H93456   3.704   8.453   9.473 -0.5590  0.6208  1.0243
  709MOL0     O93457   8.903   6.192   5.013  0.2947  0.4975 -0.1662
  709MOL0     C93458   9.021   6.162   5.040 -0.1767  0.4909 -0.2842
  709MOL0     O93459   9.069   6.034   5.055  0.0186  0.3637  0.3449
  709MOL0     C93460   8.989   5.923   5.022 -0.4450 -0.0988 -0.4549
  709MOL0     C93461   9.056   5.832   4.927 -0.4415 -0.0296 -0.0384
  709MOL0     C93462   8.999   5.717   4.885 -0.1523 -0.1928  0.1388
  709MOL0     C93463   8.868   5.690   4.930  0.3122  0.7884 -0.2973
  709MOL0     O93464   8.801   5.579   4.884 -0.4105  0.0032  0.6954
  709MOL0     C93465   8.764   5.560   4.748  0.2614 -0.2648  0.5057
  709MOL0     C93466   8.712   5.430   4.711 -0.6486 -0.0268 -0.3307
  709MOL0     C93467   8.601   5.368   4.797 -0.0809 -0.5049 -0.4200
  709MOL0     C93468   8.544   5.234   4.740 -0.9676 -0.7046 -0.1202
  709MOL0     C93469   8.436   5.182   4.829 -0.2666  0.0201  0.1476
  709MOL0     C93470   8.416   5.038   4.805 -0.4511 -0.5377 -0.6927
  709MOL0     C93471   8.313   4.969   4.897 -0.2455  0.1371  0.3438
  709MOL0     C93472   8.363   4.972   5.040  0.3326 -0.1550  0.5168
  709MOL0     N93473   8.248   4.928   5.132 -0.2681 -1.3015  0.1111
  709MOL0     C93474   8.207   4.803   5.121  0.1644 -0.9690 -0.8628
  709MOL0     C93475   8.076   4.802   5.154  0.3932 -0.3440  0.2377
  709MOL0     C93476   7.989   4.676   5.142  0.3073 -0.1848 -0.3659
  709MOL0     C93477   8.045   4.563   5.055  0.6273 -0.3733  0.8052
  709MOL0     C93478   7.948   4.448   5.052 -0.1882 -0.5273  0.6596
  709MOL0     C93479   8.001   4.332   4.947  0.1292  0.3257  0.5266
  709MOL0     O93480   7.996   4.198   5.001  0.0526  0.4529  0.1608
  709MOL0     C93481   7.866   4.150   5.018 -0.5922 -0.0396  0.3488
  709MOL0     C93482   7.830   4.078   5.127 -0.5668  0.7992  0.0217
  709MOL0     C93483   7.710   4.018   5.150 -0.7434 -0.6246 -0.3614
  709MOL0     C93484   7.607   4.036   5.055  0.1188  0.3438 -0.1467
  709MOL0     C93485   7.468   3.994   5.083  0.5579  0.8758  0.7851
  709MOL0     O93486   7.398   3.927   4.987 -1.1184 -0.4619  0.3498
  709MOL0     C93487   7.267   3.902   4.993  0.7485  0.0441 -1.1344
  709MOL0     C93488   7.170   4.002   4.992  0.1356  0.3169 -0.1037
  709MOL0     C93489   7.028   3.977   4.999  0.7751  0.9375  0.1893
  709MOL0     C93490   6.981   3.842   4.982 -0.1674 -0.2208  0.1990
  709MOL0     O93491   6.852   3.805   4.980 -0.1406 -0.1170 -0.1848
  709MOL0     C93492   6.754   3.906   4.962 -0.0581 -0.3971 -0.6278
  709MOL0     C93493   6.619   3.841   4.933  0.8141  0.9782 -0.1109
  709MOL0     C93494   6.509   3.950   4.933 -0.5749  0.3765 -0.3827
  709MOL0     C93495   6.373   3.889   4.909 -0.7844  0.0664  0.2607
  709MOL0     C93496   6.260   3.999   4.905 -0.6379  0.2269  1.0340
  709MOL0     C93497   6.111   3.953   4.893 -0.6321 -0.0828  0.3143
  709MOL0     C93498   6.012   4.071   4.897 -0.5135  0.4045  0.5372
  709MOL0     C93499   5.897   4.045   4.799 -0.5004 -0.9752  0.0768
  709MOL0    Cl93500   5.824   3.891   4.848  0.0004 -0.3923  0.0371
  709MOL0     C93501   7.082   3.743   4.978  0.2872  0.2353  0.1137
  709MOL0     C93502   7.218   3.771   4.994 -0.2338  0.4571  0.8907
  709MOL0     O93503   7.414   4.032   5.189 -0.4678 -0.7886 -0.5052
  709MOL0     C93504   7.641   4.101   4.927 -0.2081  0.0992 -0.6813
  709MOL0     C93505   7.768   4.164   4.922 -0.3242 -0.1143  0.4500
  709MOL0     N93506   8.042   4.927   5.206  0.2623  0.4385 -0.9248
  709MOL0     N93507   8.141   5.004   5.181  0.0965 -0.0643 -0.2180
  709MOL0     C93508   8.805   5.765   5.021 -0.7126 -0.5429 -0.2274
  709MOL0     C93509   8.866   5.883   5.070  0.7130  0.2548  0.2006
  709MOL0     C93510   9.123   6.272   5.058  0.2378  0.8055  0.3252
  709MOL0     C93511   9.078   6.399   5.047  0.3808 -0.3846 -0.4954
  709MOL0     C93512   9.161   6.509   5.061  0.5498  0.3824  0.1264
  709MOL0     C93513   9.297   6.490   5.085 -0.2667  0.3555 -1.1662
  709MOL0     O93514   9.378   6.600   5.104  1.0595 -0.0813 -0.3019
  709MOL0     C93515   9.505   6.611   5.034  1.4424  1.1554  0.3643
  709MOL0     C93516   9.560   6.740   5.088 -0.4530  0.2358 -0.6405
  709MOL0     C93517   9.664   6.799   4.994 -0.3082  0.0019  0.3622
  709MOL0     C93518   9.718   6.940   5.034  0.3950  0.5757 -0.0748
  709MOL0     C93519   9.800   6.934   5.148 -1.1846 -0.1572 -0.8858
  709MOL0     C93520   9.878   6.938   5.244 -0.1116  0.1309 -0.5418
  709MOL0     C93521   9.346   6.359   5.087  0.4026 -0.1024  0.0648
  709MOL0     C93522   9.253   6.256   5.079  0.4036 -0.1117  0.6098
  709MOL0     H93523   9.156   5.857   4.892 -0.5684 -0.2990 -0.6044
  709MOL0     H93524   9.044   5.669   4.799 -2.7358  0.4491 -1.6815
  709MOL0     H93525   8.860   5.581   4.700  1.2043  0.4250  2.5470
  709MOL0     H93526   8.685   5.635   4.735 -1.9085 -2.2408  1.5630
  709MOL0     H93527   8.798   5.362   4.714 -0.3012  0.4009 -0.4933
  709MOL0     H93528   8.689   5.436   4.604  1.6848 -1.1235 -0.9555
  709MOL0     H93529   8.518   5.438   4.813  4.2346  5.1253  0.7477
  709MOL0     H93530   8.641   5.360   4.899 -0.7592  1.4119  0.0515
  709MOL0     H93531   8.498   5.253   4.642 -1.7026 -1.7854 -0.0024
  709MOL0     H93532   8.621   5.157   4.736  0.2960  0.5433 -1.0494
  709MOL0     H93533   8.344   5.239   4.817 -0.4730 -0.3440 -0.0168
  709MOL0     H93534   8.456   5.202   4.935  0.2573  1.7521 -0.2546
  709MOL0     H93535   8.507   4.979   4.817  0.4997  1.1141  0.7807
  709MOL0     H93536   8.388   5.029   4.700  1.4443 -0.1422 -1.2729
  709MOL0     H93537   8.213   5.012   4.892 -1.3238 -1.5636  4.1770
  709MOL0     H93538   8.310   4.862   4.875 -1.1747  0.0877  0.7052
  709MOL0     H93539   8.384   5.075   5.071 -0.5931  0.4418 -0.7433
  709MOL0     H93540   8.446   4.903   5.056  0.1279 -0.6306 -0.3936
  709MOL0     H93541   8.261   4.717   5.081 -0.0301 -2.4115  1.7403
  709MOL0     H93542   7.889   4.696   5.103  0.9890 -0.7494 -2.5386
  709MOL0     H93543   7.981   4.646   5.247 -0.3008  0.8219 -0.1102
  709MOL0     H93544   8.144   4.527   5.085  1.3973  2.2252  1.6244
  709MOL0     H93545   8.053   4.613   4.958 -1.0829  0.3370  1.0038
  709MOL0     H93546   7.942   4.412   5.155 -2.6719  1.6876  1.3872
  709MOL0     H93547   7.843   4.469   5.030  0.0836 -0.5178 -0.7032
  709MOL0     H93548   8.106   4.348   4.924  0.1059  1.3570  1.0635
  709MOL0     H93549   7.960   4.348   4.847  1.5658  1.1085  0.0299
  709MOL0     H93550   7.908   4.081   5.203  0.6795  2.6554 -1.2336
  709MOL0     H93551   7.696   3.971   5.246 -1.0593  0.6296  0.2276
  709MOL0     H93552   7.192   4.107   4.972  0.7550  0.0688 -0.7460
  709MOL0     H93553   6.950   4.052   5.003 -1.9768 -1.7663  0.6718
  709MOL0     H93554   6.793   3.976   4.888  4.1534 -1.7384  0.0227
  709MOL0     H93555   6.750   3.963   5.056 -1.5318 -0.6498 -0.5149
  709MOL0     H93556   6.586   3.756   4.994 -2.6939  0.0056 -3.0296
  709MOL0     H93557   6.614   3.802   4.831 -2.2920  0.0353  0.2734
  709MOL0     H93558   6.529   4.027   4.858 -2.6644  1.4899  0.1425
  709MOL0     H93559   6.508   3.994   5.033 -1.2062 -1.8064  0.6388
  709MOL0     H93560   6.370   3.837   4.812 -3.2784 -0.2848  0.4587
  709MOL0     H93561   6.346   3.805   4.973 -0.5925 -1.6455 -1.7697
  709MOL0     H93562   6.300   4.057   4.823  1.6581 -1.3404  0.9554
  709MOL0     H93563   6.275   4.064   4.992  2.2967  0.3960  0.4897
  709MOL0     H93564   6.085   3.875   4.966 -1.1296 -0.5174 -0.3176
  709MOL0     H93565   6.092   3.897   4.801 -2.3229 -2.8412  2.1913
  709MOL0     H93566   5.959   4.074   4.993  1.5402 -2.1327  1.8881
  709MOL0     H93567   6.064   4.165   4.876 -0.7894  0.4920  0.2357
  709MOL0     H93568   5.945   4.047   4.701 -0.3972 -0.7145  0.1329
  709MOL0     H93569   5.819   4.122   4.798 -0.6782 -1.1558 -0.4776
  709MOL0     H93570   7.043   3.642   4.987  1.0394  0.0981  2.4308
  709MOL0     H93571   7.290   3.694   5.021 -1.5185 -0.0911  2.9882
  709MOL0     H93572   7.568   4.130   4.852  0.4241 -0.0728 -1.3723
  709MOL0     H93573   7.785   4.234   4.841 -2.7051  2.3141  1.8506
  709MOL0     H93574   8.714   5.726   5.067 -1.2904 -2.5328 -2.8050
  709MOL0     H93575   8.829   5.942   5.153  0.2875 -0.8536  0.8171
  709MOL0     H93576   8.972   6.418   5.031 -0.0673  1.3334  3.3302
  709MOL0     H93577   9.120   6.609   5.051 -1.8039 -0.5646 -0.3066
  709MOL0     H93578   9.479   6.622   4.928  1.9676  1.1000  0.2303
  709MOL0     H93579   9.574   6.529   5.055  0.3642  1.0218  4.2692
  709MOL0     H93580   9.482   6.807   5.127  0.7137 -0.9783  4.6380
  709MOL0     H93581   9.624   6.725   5.175  0.0203 -3.2452 -1.4538
  709MOL0     H93582   9.618   6.805   4.894 -0.2992 -2.9567  0.0883
  709MOL0     H93583   9.740   6.721   4.987 -0.6720 -0.3859  0.7199
  709MOL0     H93584   9.766   6.987   4.947 -1.0359 -0.3878 -1.4485
  709MOL0     H93585   9.643   7.012   5.067  3.2892  3.5826  0.5146
  709MOL0     H93586   9.957   6.951   5.315  2.3913  0.9094 -3.2682
  709MOL0     H93587   9.454   6.352   5.081  0.5759  0.3800  1.9281
  709MOL0     H93588   9.300   6.158   5.081  2.3889  0.6516 -2.2294
  710MOL0     O93589   9.311   2.798   9.490 -0.2465 -0.5744  0.9790
  710MOL0     C93590   9.259   2.708   9.552 -0.0587  0.1398 -0.4772
  710MOL0     O93591   9.330   2.624   9.637  0.5379 -0.2860 -0.5800
  710MOL0     C93592   9.470   2.638   9.658  0.1861  1.1028 -0.0109
  710MOL0     C93593   9.567   2.673   9.556 -0.3270  0.4848 -0.1260
  710MOL0     C93594   9.704   2.670   9.599 -0.0185 -0.1207 -0.4457
  710MOL0     C93595   9.746   2.644   9.725  0.1535 -0.7858  0.1170
  710MOL0     O93596   9.885   2.638   9.747  0.0042  0.4093 -0.6275
  710MOL0     C93597   9.980   2.701   9.669  0.4450  0.2232  0.1552
  710MOL0     C93598  10.102   2.734   9.746  0.0337 -0.3647 -0.8531
  710MOL0     C93599  10.213   2.796   9.660 -0.6231  0.3060  0.5262
  710MOL0     C93600  10.332   2.843   9.753  0.5439  0.1221  0.7633
  710MOL0     C93601  10.417   2.948   9.671  0.8067  0.7608 -0.6304
  710MOL0     C93602  10.561   2.972   9.720  0.4755  0.5232 -0.8563
  710MOL0     C93603  10.559   3.049   9.853 -0.0129 -0.0800  0.5065
  710MOL0     C93604  10.716   3.057   9.896  0.6754 -0.3267 -0.2471
  710MOL0     N93605  10.793   3.174   9.837  0.6587 -0.1046 -0.5225
  710MOL0     C93606  10.782   3.228   9.712  0.2837 -0.2500 -0.2333
  710MOL0     C93607  10.879   3.320   9.703 -0.2887  0.1317  0.2296
  710MOL0     C93608  10.896   3.422   9.590  0.1169  0.2526 -1.2330
  710MOL0     C93609  10.761   3.471   9.546  0.2731 -0.1398  0.2767
  710MOL0     C93610  10.676   3.545   9.645 -0.3680 -0.5975 -0.4658
  710MOL0     C93611  10.538   3.570   9.581 -0.4547  0.5411  0.5056
  710MOL0     O93612  10.545   3.648   9.465 -0.9950  0.1573 -0.2383
  710MOL0     C93613  10.431   3.716   9.437  0.6215 -0.5358  0.0378
  710MOL0     C93614  10.305   3.654   9.438 -0.1498 -0.6067  0.3261
  710MOL0     C93615  10.193   3.731   9.420  0.4583  0.4718  0.3536
  710MOL0     C93616  10.203   3.864   9.391 -0.6942 -0.0255  0.5734
  710MOL0     C93617  10.083   3.939   9.362  0.0422 -0.9008 -0.1737
  710MOL0     O93618   9.964   3.876   9.407 -0.7037 -0.2040 -0.5089
  710MOL0     C93619   9.856   3.940   9.356 -0.3794 -0.2097  0.1134
  710MOL0     C93620   9.797   4.051   9.418  1.0375 -0.0398  0.0011
  710MOL0     C93621   9.671   4.096   9.372 -0.3174 -1.0203  0.1178
  710MOL0     C93622   9.627   4.051   9.249 -0.2720  0.0896 -0.0263
  710MOL0     O93623   9.518   4.110   9.191  0.3760  0.2718 -0.6764
  710MOL0     C93624   9.424   4.028   9.131 -0.7432 -0.5769 -0.1038
  710MOL0     C93625   9.295   4.113   9.117 -1.4317  0.0946  0.3055
  710MOL0     C93626   9.167   4.037   9.076  0.4461 -0.3983 -0.3288
  710MOL0     C93627   9.055   4.130   9.012  0.1091 -0.7326 -0.1340
  710MOL0     C93628   8.984   4.194   9.124  0.2646  0.7141  0.4330
  710MOL0     C93629   8.871   4.285   9.073 -0.2939 -0.4738 -0.6670
  710MOL0     C93630   8.923   4.434   9.098  0.7551  0.5931  0.2213
  710MOL0     C93631   8.853   4.546   9.025  0.3635 -0.3172  0.0257
  710MOL0    Cl93632   8.857   4.518   8.838  0.1590  0.2500 -0.2389
  710MOL0     C93633   9.698   3.945   9.178 -0.0316 -0.3327  0.2048
  710MOL0     C93634   9.810   3.887   9.239  0.6481 -0.5003 -0.1694
  710MOL0     O93635  10.092   4.045   9.308 -0.4204 -0.2575 -0.2631
  710MOL0     C93636  10.333   3.923   9.370  0.7661  0.2842  0.3034
  710MOL0     C93637  10.443   3.845   9.398  0.0244 -0.3195  0.1182
  710MOL0     N93638  10.935   3.330   9.825 -0.3345 -0.1044  0.4533
  710MOL0     N93639  10.894   3.234   9.892  0.4750  0.3382 -0.5886
  710MOL0     C93640   9.652   2.615   9.823  0.8289 -0.4234  0.4096
  710MOL0     C93641   9.517   2.609   9.790  1.1068  0.7587  0.8827
  710MOL0     C93642   9.119   2.684   9.536 -0.2142  1.0196  0.1654
  710MOL0     C93643   9.063   2.558   9.574  0.0712 -0.9270 -0.8823
  710MOL0     C93644   8.930   2.539   9.547 -0.8832 -0.4069 -0.4806
  710MOL0     C93645   8.847   2.639   9.494 -0.8557 -0.2715  0.8458
  710MOL0     O93646   8.715   2.601   9.490 -0.2514 -0.0594 -0.8295
  710MOL0     C93647   8.615   2.703   9.474 -0.0558 -0.3847 -0.8569
  710MOL0     C93648   8.569   2.760   9.610  0.5592 -0.0795  1.4400
  710MOL0     C93649   8.504   2.652   9.688 -0.0953 -0.5263 -1.0112
  710MOL0     C93650   8.370   2.701   9.755 -0.2352 -0.4007 -0.2006
  710MOL0     C93651   8.266   2.716   9.647  0.0084 -0.1895  0.4140
  710MOL0     C93652   8.181   2.701   9.567  0.0530  0.8090  0.6216
  710MOL0     C93653   8.898   2.765   9.463 -0.4250  0.7602 -0.2501
  710MOL0     C93654   9.030   2.796   9.502  0.1735 -0.1115 -0.3367
  710MOL0     H93655   9.531   2.688   9.455  0.5412 -0.9045 -0.6680
  710MOL0     H93656   9.771   2.698   9.518  2.2830 -4.3891 -0.2811
  710MOL0     H93657   9.943   2.796   9.630  2.6240  1.9252  1.9754
  710MOL0     H93658  10.009   2.635   9.586  1.9223 -1.3876  1.8402
  710MOL0     H93659  10.134   2.645   9.801  0.3063  1.1001  1.5190
  710MOL0     H93660  10.086   2.808   9.825  0.0041 -0.2142 -0.9995
  710MOL0     H93661  10.160   2.882   9.617  1.0812  0.7214 -0.8291
  710MOL0     H93662  10.241   2.727   9.581  0.1154  0.3443  0.7495
  710MOL0     H93663  10.299   2.886   9.848 -0.7843 -0.7682  0.7264
  710MOL0     H93664  10.396   2.757   9.771 -1.8416 -2.0495 -0.5596
  710MOL0     H93665  10.354   3.037   9.676  2.2042  1.6909  1.7203
  710MOL0     H93666  10.411   2.908   9.569 -2.6035 -0.2281 -0.1957
  710MOL0     H93667  10.615   3.029   9.644  1.1760  2.5598  1.0538
  710MOL0     H93668  10.609   2.873   9.720 -0.9105 -0.1825 -1.8588
  710MOL0     H93669  10.511   3.147   9.845  0.5225  0.3131  1.8059
  710MOL0     H93670  10.511   2.989   9.931  2.5449 -3.0052  0.0458
  710MOL0     H93671  10.766   2.962   9.873 -0.1144 -0.6252 -0.7834
  710MOL0     H93672  10.729   3.066  10.004  1.3133 -1.8217 -0.1705
  710MOL0     H93673  10.707   3.205   9.637 -0.5144  0.4717  0.3148
  710MOL0     H93674  10.953   3.367   9.514  1.4660 -1.9611  1.2224
  710MOL0     H93675  10.972   3.498   9.609  2.0710 -1.2035 -2.7825
  710MOL0     H93676  10.702   3.384   9.516 -1.1816 -0.6288  4.0927
  710MOL0     H93677  10.770   3.537   9.459 -2.0762 -0.0421  0.0490
  710MOL0     H93678  10.657   3.487   9.736 -0.2608 -1.1614 -0.7935
  710MOL0     H93679  10.724   3.637   9.679  2.2127 -1.6312 -1.0299
  710MOL0     H93680  10.474   3.612   9.659 -2.0478  0.7619 -0.8643
  710MOL0     H93681  10.502   3.475   9.539  3.5577 -1.0174  0.1199
  710MOL0     H93682  10.293   3.548   9.458  0.5285 -0.8683 -0.5763
  710MOL0     H93683  10.101   3.673   9.415  0.5422  0.3433  0.3163
  710MOL0     H93684   9.849   4.091   9.504  0.1897 -0.7398  0.8594
  710MOL0     H93685   9.618   4.177   9.422 -1.2006 -0.8655 -1.0188
  710MOL0     H93686   9.391   3.951   9.201 -1.6104  0.4118  0.6145
  710MOL0     H93687   9.451   3.982   9.035 -3.6694 -0.2651 -1.1910
  710MOL0     H93688   9.320   4.184   9.038 -0.8943 -2.5342 -2.0818
  710MOL0     H93689   9.268   4.159   9.212 -1.0966 -1.5933  1.2640
  710MOL0     H93690   9.123   3.974   9.154  1.1929 -1.7162 -0.9373
  710MOL0     H93691   9.201   3.964   9.002  0.5464 -2.2406  1.4810
  710MOL0     H93692   9.110   4.198   8.946 -1.1576 -0.3472 -0.8090
  710MOL0     H93693   8.983   4.070   8.956  1.3209 -1.2453 -1.1883
  710MOL0     H93694   9.050   4.243   9.196  1.0216 -3.4288  2.9478
  710MOL0     H93695   8.936   4.108   9.173  2.1504 -1.8514 -1.8560
  710MOL0     H93696   8.778   4.262   9.127 -1.7238 -0.9798 -3.1628
  710MOL0     H93697   8.853   4.259   8.968  0.1663  0.3897 -0.9695
  710MOL0     H93698   8.922   4.447   9.207  0.8535  0.4940  0.2357
  710MOL0     H93699   9.027   4.432   9.063  0.4971 -2.9354 -0.8053
  710MOL0     H93700   8.899   4.645   9.031  0.8775 -0.4741 -1.0344
  710MOL0     H93701   8.746   4.552   9.046 -0.3463 -1.0482 -2.8779
  710MOL0     H93702   9.660   3.908   9.083 -1.3706  1.3530  0.0306
  710MOL0     H93703   9.861   3.801   9.197  1.6593 -0.0877  0.1851
  710MOL0     H93704  10.342   4.026   9.337 -1.7658  0.2778 -0.5651
  710MOL0     H93705  10.545   3.882   9.398 -0.5571  1.3412  0.8951
  710MOL0     H93706   9.688   2.588   9.922  0.0171  1.9116  1.4076
  710MOL0     H93707   9.439   2.592   9.863  1.1081 -1.4515  0.4140
  710MOL0     H93708   9.130   2.481   9.610  1.3509 -0.0274 -1.2642
  710MOL0     H93709   8.871   2.454   9.580 -0.5768 -1.1792 -1.8476
  710MOL0     H93710   8.536   2.673   9.404  0.1954  0.2616 -1.4286
  710MOL0     H93711   8.648   2.789   9.416  0.9757 -0.6689 -0.7030
  710MOL0     H93712   8.648   2.810   9.668  1.6710 -1.5605  1.2431
  710MOL0     H93713   8.495   2.839   9.593 -1.4024 -1.6628  2.1369
  710MOL0     H93714   8.583   2.627   9.759  0.5090 -0.6187 -1.6968
  710MOL0     H93715   8.483   2.566   9.623  0.1072 -1.2655 -0.1105
  710MOL0     H93716   8.326   2.625   9.820 -0.7034 -1.2217 -1.4274
  710MOL0     H93717   8.387   2.792   9.814 -0.6284 -0.0917 -0.5563
  710MOL0     H93718   8.103   2.674   9.500  2.0879 -3.7164 -0.2946
  710MOL0     H93719   8.828   2.840   9.428 -4.2721 -1.2973  2.2923
  710MOL0     H93720   9.070   2.896   9.501 -0.8770  0.4089  2.0583
  711MOL0     O93721  10.710  10.800   8.953  0.4519  0.4666  0.0069
  711MOL0     C93722  10.831  10.802   8.969 -0.1041 -0.2305 -0.6725
  711MOL0     O93723  10.911  10.697   9.004  0.1950  0.0542 -0.0453
  711MOL0     C93724  10.870  10.564   9.012 -0.0133 -0.3907  0.0827
  711MOL0     C93725  10.954  10.466   8.960 -0.0770  0.0900  0.5966
  711MOL0     C93726  10.911  10.328   8.953 -1.0731 -0.4946  0.0154
  711MOL0     C93727  10.791  10.295   9.006 -0.7012  0.1037 -0.1827
  711MOL0     O93728  10.761  10.160   8.983 -0.4695  0.2570 -0.2379
  711MOL0     C93729  10.662  10.112   9.075  0.5757 -0.5937 -0.2535
  711MOL0     C93730  10.725  10.110   9.214 -0.8219 -0.0978  0.1761
  711MOL0     C93731  10.668  10.010   9.321 -0.2207 -0.1507 -1.3929
  711MOL0     C93732  10.733   9.873   9.309  0.5160 -0.2550 -0.2624
  711MOL0     C93733  10.886   9.869   9.344  0.0379  0.0301 -0.1742
  711MOL0     C93734  10.938   9.720   9.348 -0.3252  0.3593  0.4706
  711MOL0     C93735  11.083   9.725   9.390  0.3991  0.0494 -0.8632
  711MOL0     C93736  11.133   9.577   9.418 -0.2110 -0.5930 -0.4253
  711MOL0     N93737  11.267   9.598   9.491  0.1804  0.2241  0.1978
  711MOL0     C93738  11.377   9.640   9.418 -0.2941  0.0219 -0.9955
  711MOL0     C93739  11.469   9.665   9.526 -0.1538  0.0067 -0.4143
  711MOL0     C93740  11.598   9.739   9.499  0.4666  0.6663  0.2158
  711MOL0     C93741  11.705   9.634   9.445 -0.2654  0.5611  0.4000
  711MOL0     C93742  11.821   9.710   9.389  0.1150  0.4118  0.1592
  711MOL0     C93743  11.928   9.622   9.326 -0.0746  0.1871 -0.4128
  711MOL0     O93744  12.031   9.700   9.273 -0.0745  0.5204 -0.1016
  711MOL0     C93745  12.119   9.643   9.185  0.2350  0.3835  0.5168
  711MOL0     C93746  12.205   9.721   9.111  0.6532 -0.3416 -0.7963
  711MOL0     C93747  12.293   9.672   9.023 -0.4393  0.3643  0.2576
  711MOL0     C93748  12.319   9.534   9.018 -0.2216  0.4701 -0.8915
  711MOL0     C93749  12.415   9.485   8.920 -0.1773  0.4392  0.2547
  711MOL0     O93750  12.455   9.351   8.942 -0.2044  0.3508  1.1873
  711MOL0     C93751  12.544   9.293   8.861 -0.3077 -0.2417 -0.5961
  711MOL0     C93752  12.676   9.296   8.900 -0.3418  0.4858  0.5534
  711MOL0     C93753  12.769   9.213   8.836  0.0559  0.5705  0.4766
  711MOL0     C93754  12.731   9.124   8.733  1.0758 -0.1477  0.2540
  711MOL0     O93755  12.830   9.042   8.681  0.1432 -0.0488  0.2921
  711MOL0     C93756  12.814   8.963   8.568  0.1067  0.4052  0.4868
  711MOL0     C93757  12.872   9.041   8.446 -0.1490  1.0926 -0.1679
  711MOL0     C93758  12.999   9.123   8.465 -0.6616 -1.1190  0.0844
  711MOL0     C93759  13.056   9.189   8.332  0.4163 -0.3759  0.1521
  711MOL0     C93760  13.153   9.303   8.365 -0.1911 -0.6859  0.0404
  711MOL0     C93761  13.190   9.366   8.235  0.0283  0.0027  0.1794
  711MOL0     C93762  13.340   9.392   8.229 -0.3571  0.0163  0.6508
  711MOL0     C93763  13.425   9.282   8.179 -0.0525 -0.1656  0.7451
  711MOL0    Cl93764  13.601   9.334   8.203 -0.4048  0.0707 -0.6539
  711MOL0     C93765  12.598   9.122   8.701 -0.1935 -0.7163  0.4331
  711MOL0     C93766  12.508   9.215   8.750  0.3051  0.0156 -0.0629
  711MOL0     O93767  12.451   9.557   8.829  0.1669 -0.2155 -0.5428
  711MOL0     C93768  12.247   9.453   9.107 -0.0909 -0.2666  0.4772
  711MOL0     C93769  12.144   9.509   9.188 -0.6594 -0.7376 -0.5495
  711MOL0     N93770  11.405   9.631   9.647  0.0660 -1.2166 -0.0946
  711MOL0     N93771  11.287   9.585   9.622 -0.8746  0.6073  0.5834
  711MOL0     C93772  10.701  10.390   9.061 -1.0510 -0.2479  0.5673
  711MOL0     C93773  10.750  10.522   9.065  1.1270  0.5606 -0.2821
  711MOL0     C93774  10.912  10.925   8.944 -0.0662  0.4271 -0.1922
  711MOL0     C93775  10.855  11.052   8.949  0.7322 -0.1979  0.0125
  711MOL0     C93776  10.927  11.165   8.921 -0.0028 -0.0061 -0.5184
  711MOL0     C93777  11.061  11.153   8.885  0.1986  0.6131 -0.2601
  711MOL0     O93778  11.148  11.258   8.869 -0.2868  0.8490 -0.0158
  711MOL0     C93779  11.096  11.388   8.867 -0.7694 -0.2837  0.8580
  711MOL0     C93780  11.222  11.467   8.835 -0.5314 -0.4807  0.3801
  711MOL0     C93781  11.210  11.624   8.845  0.0820  0.0606 -0.9128
  711MOL0     C93782  11.090  11.686   8.757 -0.7298 -0.4875 -0.7110
  711MOL0     C93783  11.127  11.668   8.614 -0.4893  0.7133  0.8442
  711MOL0     C93784  11.154  11.650   8.498  0.5377  0.2672  0.6300
  711MOL0     C93785  11.118  11.028   8.892  0.0780  0.1523 -0.2150
  711MOL0     C93786  11.045  10.918   8.910  0.1965 -0.0015 -0.3483
  711MOL0     H93787  11.052  10.501   8.927 -1.2872  3.9646  0.5232
  711MOL0     H93788  10.964  10.246   8.905 -0.0486  1.7539 -3.0278
  711MOL0     H93789  10.639  10.006   9.061  2.8228 -1.3792  1.2713
  711MOL0     H93790  10.566  10.163   9.066  0.7390 -0.0486  0.8681
  711MOL0     H93791  10.713  10.214   9.247  1.9168  0.1807  0.5037
  711MOL0     H93792  10.832  10.097   9.202 -0.8305 -2.7992  2.1751
  711MOL0     H93793  10.561   9.995   9.307 -0.2207 -0.8434 -0.7194
  711MOL0     H93794  10.676  10.055   9.420 -3.9809 -1.9311 -0.1232
  711MOL0     H93795  10.683   9.811   9.383 -0.4064 -0.7313 -1.2491
  711MOL0     H93796  10.732   9.835   9.206  1.5448 -0.2128 -0.2962
  711MOL0     H93797  10.894   9.912   9.444 -0.8846  0.7045 -0.3774
  711MOL0     H93798  10.943   9.932   9.275 -0.1192  2.5409  1.8443
  711MOL0     H93799  10.947   9.683   9.245  0.2021 -0.2925  0.7431
  711MOL0     H93800  10.892   9.642   9.409 -1.9402  1.3189  0.5475
  711MOL0     H93801  11.146   9.773   9.314  2.3844 -2.0539 -0.6742
  711MOL0     H93802  11.097   9.788   9.478  0.6798 -2.1215  0.7270
  711MOL0     H93803  11.160   9.527   9.324  0.4885 -0.8303 -0.1092
  711MOL0     H93804  11.065   9.512   9.474 -0.1760 -1.9663 -1.9208
  711MOL0     H93805  11.387   9.650   9.310 -0.2464 -2.9018 -1.3576
  711MOL0     H93806  11.643   9.787   9.586  0.3979  0.3600  0.4217
  711MOL0     H93807  11.573   9.813   9.423 -1.1161 -1.2280 -1.1808
  711MOL0     H93808  11.669   9.558   9.376 -1.6880  0.4749  1.1862
  711MOL0     H93809  11.739   9.573   9.529 -0.7952 -2.7991 -1.6636
  711MOL0     H93810  11.788   9.785   9.317  0.2369  1.6948  1.3856
  711MOL0     H93811  11.846   9.772   9.476  0.3619 -1.0545  1.1628
  711MOL0     H93812  11.885   9.561   9.246 -1.1724  0.8628 -0.3635
  711MOL0     H93813  11.979   9.565   9.404  1.9525  0.3970 -1.5237
  711MOL0     H93814  12.202   9.828   9.127  0.5397 -0.3639 -0.6651
  711MOL0     H93815  12.349   9.737   8.958  2.0634 -1.6596  0.2213
  711MOL0     H93816  12.698   9.354   8.989 -2.3895  2.6455 -0.2196
  711MOL0     H93817  12.872   9.208   8.870 -0.1684 -2.3897  0.9889
  711MOL0     H93818  12.715   8.918   8.551  0.9651 -1.6147  0.5728
  711MOL0     H93819  12.873   8.872   8.578 -0.2321  0.1984  0.6534
  711MOL0     H93820  12.793   9.110   8.416  0.0589  0.8202 -1.3845
  711MOL0     H93821  12.878   8.970   8.363 -1.8607 -1.8786  2.0542
  711MOL0     H93822  13.079   9.067   8.514 -1.2499 -1.0547  1.1645
  711MOL0     H93823  12.971   9.207   8.530  0.6825  0.0428 -0.7619
  711MOL0     H93824  13.118   9.111   8.287  0.8870 -0.3610  0.7662
  711MOL0     H93825  12.973   9.225   8.269  1.6380  1.5553 -0.4282
  711MOL0     H93826  13.242   9.275   8.421  0.6448  2.1323  0.2546
  711MOL0     H93827  13.105   9.379   8.427  0.0992 -2.5557  2.6935
  711MOL0     H93828  13.140   9.463   8.234  2.9514  1.6437 -0.5264
  711MOL0     H93829  13.164   9.297   8.154  1.0928  0.6150 -0.7120
  711MOL0     H93830  13.359   9.479   8.166 -1.5473 -0.1920 -0.0194
  711MOL0     H93831  13.378   9.410   8.330  2.6568  0.0206 -0.3868
  711MOL0     H93832  13.402   9.264   8.074 -2.6324  1.6740  0.8971
  711MOL0     H93833  13.404   9.190   8.234 -0.8465 -2.3912 -2.9568
  711MOL0     H93834  12.576   9.070   8.609 -1.4012  0.2583  0.1365
  711MOL0     H93835  12.412   9.196   8.702  0.6862 -0.0740 -0.8008
  711MOL0     H93836  12.274   9.348   9.105 -2.1265 -0.9037  2.1349
  711MOL0     H93837  12.092   9.438   9.252 -1.2669 -0.9210 -1.2305
  711MOL0     H93838  10.605  10.367   9.105 -0.8685 -1.5574  0.3208
  711MOL0     H93839  10.689  10.594   9.119  2.0939  0.2633  1.2351
  711MOL0     H93840  10.753  11.073   8.978 -0.0021 -0.5386 -2.1101
  711MOL0     H93841  10.880  11.262   8.933  0.0221  0.0941 -1.2219
  711MOL0     H93842  11.041  11.408   8.960 -1.6624 -2.1250  0.7712
  711MOL0     H93843  11.020  11.406   8.790 -0.4101 -0.4924  0.4484
  711MOL0     H93844  11.300  11.442   8.907 -0.2537  2.2394  1.1018
  711MOL0     H93845  11.249  11.443   8.732  0.0868  1.7685 -0.0196
  711MOL0     H93846  11.308  11.654   8.805 -0.1707  2.3671  0.0796
  711MOL0     H93847  11.202  11.652   8.950  1.6093 -3.0918  0.1851
  711MOL0     H93848  10.995  11.640   8.785 -1.5804  0.3477 -2.0915
  711MOL0     H93849  11.087  11.793   8.782  1.1811  0.0467 -2.4793
  711MOL0     H93850  11.185  11.633   8.397 -0.4388 -0.7677  0.4883
  711MOL0     H93851  11.221  11.017   8.859  0.5990  5.0359 -1.0022
  711MOL0     H93852  11.104  10.827   8.905  0.1967  0.0079 -0.5323
  712MOL0     O93853   1.028   9.499   4.422 -0.3726  0.4636  0.1382
  712MOL0     C93854   0.938   9.520   4.501  0.4051 -0.7281  0.2290
  712MOL0     O93855   0.950   9.536   4.632  0.5018  0.1732 -0.2579
  712MOL0     C93856   1.074   9.547   4.679 -0.7469 -0.0031 -0.0449
  712MOL0     C93857   1.140   9.669   4.674  1.2050 -0.9336  0.4303
  712MOL0     C93858   1.276   9.677   4.711 -0.5430 -0.3031  0.5492
  712MOL0     C93859   1.344   9.563   4.757 -0.7936 -1.2595 -0.4962
  712MOL0     O93860   1.482   9.580   4.790  0.2272  0.0659  0.3945
  712MOL0     C93861   1.551   9.477   4.849  0.0305 -0.4059 -0.0837
  712MOL0     C93862   1.701   9.511   4.841 -0.5822  0.7247 -0.6759
  712MOL0     C93863   1.735   9.614   4.955 -0.1943 -0.1667  0.3862
  712MOL0     C93864   1.679   9.748   4.922  0.4368  0.2540  0.0744
  712MOL0     C93865   1.573   9.801   5.021 -0.1618 -0.7383  0.2829
  712MOL0     C93866   1.518   9.932   4.963 -0.5605 -0.1326  0.1437
  712MOL0     C93867   1.425  10.010   5.052 -0.6494  0.5460  0.3778
  712MOL0     C93868   1.315   9.914   5.097  0.2878 -0.0607 -0.6657
  712MOL0     N93869   1.192   9.986   5.134  0.0591 -0.3474  0.2353
  712MOL0     C93870   1.076   9.994   5.060  0.2752 -0.5963  0.1243
  712MOL0     C93871   1.000  10.083   5.134 -0.3083  0.7029 -0.7097
  712MOL0     C93872   0.866  10.143   5.088  0.3468  0.0292 -0.3768
  712MOL0     C93873   0.751  10.091   5.182 -0.0528  0.5819 -0.3072
  712MOL0     C93874   0.758   9.935   5.214 -0.2833 -0.7539  0.1405
  712MOL0     C93875   0.638   9.884   5.293 -0.0385 -0.1308  0.1722
  712MOL0     O93876   0.520   9.949   5.249 -0.2092 -0.3827 -1.0261
  712MOL0     C93877   0.396   9.885   5.267 -0.7685  0.2686 -0.4652
  712MOL0     C93878   0.378   9.761   5.338  0.0706  0.8410 -0.7451
  712MOL0     C93879   0.250   9.709   5.358 -0.3092 -0.5316  0.0333
  712MOL0     C93880   0.144   9.773   5.300  0.3389  0.0910  0.0342
  712MOL0     C93881   0.008   9.720   5.316 -1.0573  0.5498 -0.1617
  712MOL0     O93882   0.001   9.586   5.336 -0.0732  0.4008 -0.4070
  712MOL0     C93883  -0.124   9.529   5.344  0.2838  0.4347  0.3779
  712MOL0     C93884  -0.172   9.455   5.229 -0.7829  0.2978 -0.2755
  712MOL0     C93885  -0.304   9.414   5.235  0.2522  0.3202  0.9741
  712MOL0     C93886  -0.381   9.432   5.345  0.6954  0.0170 -0.0895
  712MOL0     O93887  -0.513   9.415   5.329 -0.2030  0.2388  0.6928
  712MOL0     C93888  -0.578   9.549   5.313 -0.4580  0.2952 -0.0515
  712MOL0     C93889  -0.727   9.533   5.322  0.5177  0.0718 -0.6137
  712MOL0     C93890  -0.795   9.462   5.198  0.1518  0.1126 -0.6993
  712MOL0     C93891  -0.956   9.463   5.210 -0.3527 -0.1597  0.0582
  712MOL0     C93892  -1.026   9.382   5.101 -1.0744 -0.5835  0.0711
  712MOL0     C93893  -1.185   9.385   5.104  0.5508 -0.4028 -0.8430
  712MOL0     C93894  -1.222   9.269   5.204  0.3161 -0.0959  0.0529
  712MOL0     C93895  -1.368   9.261   5.226  0.2841 -0.2588 -0.8557
  712MOL0    Cl93896  -1.411   9.418   5.293  0.0986  0.1914  0.3193
  712MOL0     C93897  -0.327   9.475   5.467 -0.0630  0.1392  0.7132
  712MOL0     C93898  -0.200   9.538   5.462  0.7872  0.3066  0.9839
  712MOL0     O93899  -0.081   9.796   5.324  0.4839 -1.2156 -0.9555
  712MOL0     C93900   0.156   9.897   5.243  0.6622  0.0755  0.4477
  712MOL0     C93901   0.283   9.959   5.230 -0.1238 -0.1215 -0.1344
  712MOL0     N93902   1.065  10.117   5.253  0.0293 -0.5303 -0.7384
  712MOL0     N93903   1.179  10.063   5.245  0.2892 -0.1211 -0.9704
  712MOL0     C93904   1.271   9.443   4.764  0.2472  0.7046  0.4094
  712MOL0     C93905   1.137   9.434   4.733  0.5965 -0.1458 -0.4131
  712MOL0     C93906   0.805   9.489   4.451 -0.1823  0.3541 -0.1242
  712MOL0     C93907   0.772   9.515   4.317 -0.4162 -0.0805  0.6067
  712MOL0     C93908   0.647   9.481   4.265  0.3174  0.5275  0.4060
  712MOL0     C93909   0.555   9.422   4.361  0.0118  0.9112 -0.5354
  712MOL0     O93910   0.442   9.383   4.297  1.0130  0.5588 -0.1745
  712MOL0     C93911   0.338   9.321   4.379 -0.9025  0.6017  0.1404
  712MOL0     C93912   0.232   9.288   4.284  0.0276 -1.0737 -0.0012
  712MOL0     C93913   0.118   9.231   4.375 -0.1224  0.2559 -0.4842
  712MOL0     C93914  -0.010   9.217   4.289  0.2198  0.5381  0.0520
  712MOL0     C93915  -0.049   9.354   4.248 -0.5905  0.7997 -0.1333
  712MOL0     C93916  -0.072   9.468   4.214 -0.6834 -0.0699  0.3454
  712MOL0     C93917   0.602   9.394   4.489  0.4365 -0.1370 -0.7620
  712MOL0     C93918   0.725   9.424   4.536  0.1420 -0.2955  0.2927
  712MOL0     H93919   1.089   9.763   4.655  0.7094 -0.8444  2.0619
  712MOL0     H93920   1.329   9.771   4.713  2.6779 -1.9661 -0.2994
  712MOL0     H93921   1.545   9.382   4.794 -0.3395  0.0340 -0.8212
  712MOL0     H93922   1.504   9.457   4.946  1.2118 -0.0264  0.5826
  712MOL0     H93923   1.734   9.548   4.743  1.1448 -0.7277 -0.7105
  712MOL0     H93924   1.758   9.418   4.855  0.6556  1.5106 -0.3865
  712MOL0     H93925   1.843   9.627   4.965 -0.2955  0.1823  1.0955
  712MOL0     H93926   1.699   9.574   5.050 -1.9769 -1.9885 -0.9494
  712MOL0     H93927   1.759   9.823   4.927 -1.6278  2.5264  0.8118
  712MOL0     H93928   1.631   9.750   4.823 -1.8523  2.5561  1.1102
  712MOL0     H93929   1.606   9.808   5.125 -2.3051 -2.9062  1.2035
  712MOL0     H93930   1.496   9.723   5.015 -1.3601  0.4418 -0.0281
  712MOL0     H93931   1.466   9.914   4.868 -1.2751  2.6059 -0.0806
  712MOL0     H93932   1.594  10.004   4.929 -0.7685  0.0409  0.0377
  712MOL0     H93933   1.470  10.044   5.147 -2.4805  4.1554  0.1489
  712MOL0     H93934   1.389  10.105   5.010  3.8053  2.7406  0.9296
  712MOL0     H93935   1.360   9.858   5.179 -0.1919 -1.1063 -1.1001
  712MOL0     H93936   1.297   9.840   5.018  2.2777  0.1177 -1.3619
  712MOL0     H93937   1.049   9.938   4.971 -1.1287  1.4396 -0.7948
  712MOL0     H93938   0.841  10.111   4.987 -3.3563 -1.9253  0.9791
  712MOL0     H93939   0.863  10.252   5.085 -1.4785  0.0250 -0.0453
  712MOL0     H93940   0.657  10.121   5.135 -1.2505  0.2208  1.7341
  712MOL0     H93941   0.749  10.145   5.277  1.4020  2.2442 -1.1826
  712MOL0     H93942   0.762   9.889   5.115  2.8107  0.7064 -0.5463
  712MOL0     H93943   0.852   9.914   5.265 -0.0717  2.1818  1.1774
  712MOL0     H93944   0.640   9.924   5.395 -1.4903  2.3792 -0.6887
  712MOL0     H93945   0.639   9.775   5.289  0.7099 -0.1654  0.9583
  712MOL0     H93946   0.454   9.688   5.364  0.1507  0.7099 -1.3361
  712MOL0     H93947   0.227   9.633   5.432  0.5828 -0.5257  0.3316
  712MOL0     H93948  -0.107   9.426   5.148 -1.3608  0.0240 -0.6516
  712MOL0     H93949  -0.348   9.378   5.142 -3.0610  0.0451  2.5160
  712MOL0     H93950  -0.549   9.604   5.223  0.8594 -0.1841  0.0557
  712MOL0     H93951  -0.553   9.614   5.398 -0.0128  1.1567 -0.8213
  712MOL0     H93952  -0.765   9.633   5.347  1.3089 -0.0767  1.3799
  712MOL0     H93953  -0.742   9.471   5.411  1.2274 -2.1388 -1.9602
  712MOL0     H93954  -0.750   9.365   5.179 -1.7395 -0.7602 -0.9606
  712MOL0     H93955  -0.778   9.514   5.103 -0.6487  1.1855 -0.2867
  712MOL0     H93956  -0.980   9.423   5.309 -0.2147  0.8440  0.5136
  712MOL0     H93957  -0.996   9.563   5.193 -0.7953  0.2668  3.0588
  712MOL0     H93958  -0.997   9.278   5.123 -1.0889 -0.2397  1.9140
  712MOL0     H93959  -0.982   9.416   5.007  2.6007 -1.1658  1.4054
  712MOL0     H93960  -1.225   9.358   5.006 -0.0459 -2.4968 -0.0930
  712MOL0     H93961  -1.227   9.481   5.134  1.0697  0.7874 -3.6144
  712MOL0     H93962  -1.194   9.171   5.163 -0.0389 -0.3979  0.5207
  712MOL0     H93963  -1.175   9.273   5.303 -1.6229 -4.2428  1.3845
  712MOL0     H93964  -1.379   9.180   5.298  1.0098 -0.8460 -1.3873
  712MOL0     H93965  -1.434   9.248   5.139 -0.6820 -3.0859  0.1891
  712MOL0     H93966  -0.391   9.479   5.554 -4.4486 -1.3930 -2.1169
  712MOL0     H93967  -0.164   9.586   5.552 -0.6451  0.0190  1.7347
  712MOL0     H93968   0.070   9.956   5.213  1.9352  2.3503  1.0315
  712MOL0     H93969   0.297  10.057   5.185  0.9381  0.4627  1.3869
  712MOL0     H93970   1.312   9.347   4.794 -0.1071  0.4834  0.1983
  712MOL0     H93971   1.079   9.344   4.749 -2.1044  1.9958  3.4371
  712MOL0     H93972   0.844   9.567   4.255  1.3854 -0.9715  1.8784
  712MOL0     H93973   0.619   9.510   4.164 -1.5661 -0.1578  0.6970
  712MOL0     H93974   0.308   9.388   4.461 -1.2406  0.8629 -0.1964
  712MOL0     H93975   0.382   9.231   4.424  1.9882  1.4429 -0.7681
  712MOL0     H93976   0.209   9.379   4.227 -1.1944  0.9904  3.4656
  712MOL0     H93977   0.272   9.210   4.219  0.3205 -1.0633  0.1646
  712MOL0     H93978   0.103   9.293   4.464  3.4337  0.6118 -0.0040
  712MOL0     H93979   0.155   9.134   4.410  3.2929  1.8350  0.6978
  712MOL0     H93980   0.018   9.157   4.202  1.2670  0.6724  0.2903
  712MOL0     H93981  -0.089   9.174   4.352 -3.5303  1.2259 -3.7457
  712MOL0     H93982  -0.084   9.571   4.187  2.0762 -0.2510 -2.1272
  712MOL0     H93983   0.546   9.329   4.555 -0.1930  2.0213  0.9515
  712MOL0     H93984   0.757   9.398   4.637 -2.1126 -1.3604  0.8014
  713MOL0     O93985   2.248   4.674   5.731 -0.6564  0.2933  0.4632
  713MOL0     C93986   2.226   4.742   5.631 -0.9703  1.3321  0.6937
  713MOL0     O93987   2.107   4.785   5.597  0.1322 -0.0723 -0.0231
  713MOL0     C93988   1.999   4.751   5.677  0.1589 -0.0428  0.3556
  713MOL0     C93989   1.928   4.847   5.732  0.0314 -1.0068  0.2117
  713MOL0     C93990   1.813   4.820   5.808 -0.3456 -0.0023  0.4500
  713MOL0     C93991   1.758   4.693   5.813  0.1531 -0.2361 -0.6184
  713MOL0     O93992   1.640   4.661   5.864 -0.0969 -0.1016  0.3858
  713MOL0     C93993   1.572   4.758   5.948  0.5523 -0.1969  0.5349
  713MOL0     C93994   1.428   4.714   5.965  0.1156  0.2498 -0.4970
  713MOL0     C93995   1.326   4.791   6.045  0.7813  0.2454  0.5267
  713MOL0     C93996   1.202   4.848   5.970  0.2886  0.0799 -1.0739
  713MOL0     C93997   1.115   4.920   6.071 -0.4707  0.4330  0.9561
  713MOL0     C93998   0.969   4.936   6.012  0.0267 -0.5827  0.1718
  713MOL0     C93999   0.877   5.031   6.079  0.2934  0.0223  0.2655
  713MOL0     C94000   0.845   4.980   6.221 -0.3042 -0.0599  0.1241
  713MOL0     N94001   0.721   5.029   6.289 -0.2838  0.2217  0.0400
  713MOL0     C94002   0.591   5.001   6.246 -0.0485  0.0089  0.0690
  713MOL0     C94003   0.512   5.060   6.340  0.7769  0.0396  0.2715
  713MOL0     C94004   0.358   5.046   6.343 -1.4492 -0.3711 -1.2203
  713MOL0     C94005   0.288   5.178   6.324 -0.2269 -0.8925 -0.8104
  713MOL0     C94006   0.225   5.244   6.448  0.4652 -0.4383  0.6957
  713MOL0     C94007   0.112   5.145   6.506 -0.0536 -0.5421 -0.5072
  713MOL0     O94008  -0.022   5.186   6.470 -1.1618 -0.5422 -0.4367
  713MOL0     C94009  -0.133   5.127   6.511 -0.3160  0.4587 -0.6229
  713MOL0     C94010  -0.141   5.017   6.595 -0.2877 -0.3126  0.9105
  713MOL0     C94011  -0.261   4.957   6.630 -0.1668  0.7443 -0.3586
  713MOL0     C94012  -0.373   4.988   6.560  0.0027 -0.0185  0.0907
  713MOL0     C94013  -0.499   4.916   6.589  1.2450 -0.3872 -0.8898
  713MOL0     O94014  -0.497   4.851   6.706 -0.0350  0.0336  0.2190
  713MOL0     C94015  -0.615   4.789   6.750 -0.6909 -0.7149  0.0553
  713MOL0     C94016  -0.688   4.695   6.674  0.1481  0.6889  0.4859
  713MOL0     C94017  -0.812   4.638   6.723 -0.4016  0.2332  0.6566
  713MOL0     C94018  -0.863   4.672   6.848 -0.7284 -0.0768  0.6009
  713MOL0     O94019  -0.980   4.615   6.893 -0.1207  0.4525  0.8742
  713MOL0     C94020  -1.103   4.669   6.839 -0.2850  0.6718  0.0887
  713MOL0     C94021  -1.152   4.791   6.925 -0.4683 -0.2604 -0.1676
  713MOL0     C94022  -1.163   4.769   7.075 -0.0975  0.2523  0.4462
  713MOL0     C94023  -1.288   4.683   7.105 -0.3990 -0.6248 -0.3140
  713MOL0     C94024  -1.318   4.637   7.248 -0.9721 -0.9416  0.8748
  713MOL0     C94025  -1.420   4.527   7.251 -0.6557  0.1765 -0.2332
  713MOL0     C94026  -1.561   4.566   7.195 -0.0158 -0.4681 -0.1419
  713MOL0     C94027  -1.673   4.481   7.262  0.9428 -0.3837  0.3130
  713MOL0    Cl94028  -1.828   4.511   7.177  0.2665  0.4505 -0.2096
  713MOL0     C94029  -0.788   4.760   6.922 -0.0673  0.6616  0.1312
  713MOL0     C94030  -0.664   4.822   6.883  0.4636 -0.0264  0.7012
  713MOL0     O94031  -0.599   4.926   6.514 -0.3838  0.2878  0.3127
  713MOL0     C94032  -0.373   5.106   6.483 -0.0347  0.1260  0.4579
  713MOL0     C94033  -0.251   5.177   6.460  0.8443 -0.1510 -0.5689
  713MOL0     N94034   0.580   5.130   6.432 -0.4001  0.8147 -0.8757
  713MOL0     N94035   0.710   5.100   6.406  0.6552  0.2788 -0.4704
  713MOL0     C94036   1.827   4.595   5.739  1.1526 -0.0324  0.7621
  713MOL0     C94037   1.954   4.615   5.682  1.0831  0.2431  0.7704
  713MOL0     C94038   2.340   4.786   5.546  0.7468  0.6371  0.9175
  713MOL0     C94039   2.479   4.769   5.583 -0.4635 -0.6245 -1.1966
  713MOL0     C94040   2.578   4.831   5.509  0.1689  1.1168 -0.7877
  713MOL0     C94041   2.546   4.902   5.391 -0.5090 -0.1744  0.6071
  713MOL0     O94042   2.639   4.952   5.306 -0.3533 -0.2977  0.2592
  713MOL0     C94043   2.779   4.947   5.341  0.0586  0.1551 -0.5629
  713MOL0     C94044   2.834   4.802   5.304  0.8330 -0.2920  0.2193
  713MOL0     C94045   2.888   4.784   5.156 -0.4672  1.1240 -0.5116
  713MOL0     C94046   2.791   4.848   5.055  0.0514 -0.2359  0.2984
  713MOL0     C94047   2.847   4.816   4.921  0.2525  0.5813 -0.0609
  713MOL0     C94048   2.892   4.791   4.812  0.3061 -0.4043 -0.2462
  713MOL0     C94049   2.414   4.920   5.370 -0.3143 -0.6878  0.3430
  713MOL0     C94050   2.313   4.863   5.440 -0.0211  0.2792  0.4205
  713MOL0     H94051   1.958   4.951   5.722 -0.6789 -0.9659 -2.0620
  713MOL0     H94052   1.764   4.910   5.844  2.8161  1.9579  0.2654
  713MOL0     H94053   1.567   4.855   5.897 -1.5404 -0.1263  0.8221
  713MOL0     H94054   1.618   4.760   6.048 -0.0031 -1.9663  0.8562
  713MOL0     H94055   1.418   4.612   6.003 -1.7723 -0.4716 -2.7319
  713MOL0     H94056   1.376   4.701   5.870  0.4547 -2.3076 -0.4085
  713MOL0     H94057   1.377   4.881   6.082 -2.3001  1.3795  2.4319
  713MOL0     H94058   1.300   4.724   6.128  1.4315 -1.8899 -0.9252
  713MOL0     H94059   1.234   4.923   5.898  1.1822  0.7727  0.0247
  713MOL0     H94060   1.148   4.770   5.915 -0.5015  1.5169 -2.3861
  713MOL0     H94061   1.170   5.015   6.076  2.2235 -0.8265 -1.9055
  713MOL0     H94062   1.118   4.875   6.170 -2.1348 -2.0718 -0.0452
  713MOL0     H94063   0.914   4.842   6.014 -0.0112 -0.5493  1.6245
  713MOL0     H94064   0.979   4.971   5.909  0.9373  1.1996  0.8173
  713MOL0     H94065   0.917   5.133   6.081 -1.6166  0.8688 -1.7524
  713MOL0     H94066   0.788   5.037   6.016  0.2553 -1.3437  0.1617
  713MOL0     H94067   0.922   5.033   6.277  1.1202  1.9818 -3.4443
  713MOL0     H94068   0.850   4.871   6.227 -1.4804 -0.2935 -1.8478
  713MOL0     H94069   0.545   4.936   6.173  2.3190 -3.1586  1.2251
  713MOL0     H94070   0.339   4.984   6.431  2.2839  0.5313  0.4010
  713MOL0     H94071   0.336   4.978   6.260  4.0553 -1.6954 -1.9867
  713MOL0     H94072   0.201   5.166   6.258 -0.7022  2.9661 -1.1460
  713MOL0     H94073   0.361   5.247   6.280 -0.3277  0.4129  0.9430
  713MOL0     H94074   0.302   5.255   6.525 -0.7371  0.1409  1.8413
  713MOL0     H94075   0.197   5.345   6.415  0.5117 -1.4189 -2.7835
  713MOL0     H94076   0.114   5.165   6.613  0.0254 -4.0016  0.2601
  713MOL0     H94077   0.132   5.039   6.489  3.1961 -0.5630  2.4601
  713MOL0     H94078  -0.052   4.977   6.642  0.5427  1.0115  0.5036
  713MOL0     H94079  -0.259   4.863   6.683  0.3883 -0.1116 -1.8311
  713MOL0     H94080  -0.649   4.680   6.574 -2.3951  1.7003 -0.7317
  713MOL0     H94081  -0.870   4.563   6.669 -0.7227 -1.1291  2.7597
  713MOL0     H94082  -1.175   4.589   6.857 -1.2740  1.8064  1.4740
  713MOL0     H94083  -1.103   4.687   6.731 -1.1347  0.4452  0.0446
  713MOL0     H94084  -1.248   4.819   6.880  0.2818  0.2500 -1.5192
  713MOL0     H94085  -1.081   4.871   6.906 -2.0583  2.7186  4.6318
  713MOL0     H94086  -1.169   4.867   7.122  1.4417  0.4560  0.2631
  713MOL0     H94087  -1.077   4.711   7.111  1.7402  0.3965 -3.2440
  713MOL0     H94088  -1.371   4.746   7.073  0.8765  1.5344  0.4141
  713MOL0     H94089  -1.288   4.596   7.039  0.1166  1.4596 -3.2604
  713MOL0     H94090  -1.354   4.725   7.304 -1.3391  0.8517 -1.9423
  713MOL0     H94091  -1.238   4.594   7.308  1.4611  0.8686 -0.8289
  713MOL0     H94092  -1.430   4.497   7.356  1.9963 -0.9164 -0.2148
  713MOL0     H94093  -1.388   4.439   7.194 -0.1522  0.9516 -1.1719
  713MOL0     H94094  -1.586   4.671   7.217  1.2771 -0.3132  0.6791
  713MOL0     H94095  -1.545   4.554   7.088 -0.4426  0.0199 -0.2649
  713MOL0     H94096  -1.681   4.507   7.368 -0.6494 -1.7237  0.5698
  713MOL0     H94097  -1.656   4.373   7.266 -0.8583 -0.6713  3.2279
  713MOL0     H94098  -0.831   4.759   7.022 -3.6123 -0.4202 -1.2578
  713MOL0     H94099  -0.615   4.882   6.959  1.6357  0.5551 -0.4747
  713MOL0     H94100  -0.466   5.141   6.439 -0.7726 -1.5629  0.6019
  713MOL0     H94101  -0.261   5.269   6.404 -1.8954 -0.3959 -0.6556
  713MOL0     H94102   1.788   4.495   5.725  0.5929  0.0418  1.7280
  713MOL0     H94103   2.003   4.524   5.649 -1.0782 -2.2553  3.8380
  713MOL0     H94104   2.503   4.711   5.672 -1.0856  3.6405  2.0899
  713MOL0     H94105   2.682   4.810   5.533  0.2109  1.9443 -0.2198
  713MOL0     H94106   2.797   4.971   5.446 -1.0989  1.0598 -0.5532
  713MOL0     H94107   2.837   5.020   5.284  0.9306 -0.8115 -0.9556
  713MOL0     H94108   2.926   4.796   5.363 -0.9905  0.4252  3.4338
  713MOL0     H94109   2.763   4.726   5.340  0.3074  0.4865  0.8712
  713MOL0     H94110   2.913   4.681   5.130 -2.4906  1.2810 -3.6393
  713MOL0     H94111   2.978   4.845   5.141  2.3175 -2.3566  0.6406
  713MOL0     H94112   2.694   4.803   5.077 -0.7183  0.8951 -0.6804
  713MOL0     H94113   2.778   4.955   5.070 -2.1596 -0.2734 -1.0217
  713MOL0     H94114   2.926   4.769   4.713  0.4302  0.1481 -0.3303
  713MOL0     H94115   2.382   4.990   5.294  1.9502  1.9553  1.6625
  713MOL0     H94116   2.212   4.885   5.406  0.1556 -0.2117 -0.4231
  714MOL0     O94117  10.874   3.487   1.372 -0.3168 -0.8530  0.4762
  714MOL0     C94118  10.941   3.578   1.319 -0.6070 -1.0464  0.1046
  714MOL0     O94119  10.892   3.677   1.232 -0.0445  0.4611  0.3251
  714MOL0     C94120  10.762   3.707   1.228 -0.3796 -0.6622 -0.9108
  714MOL0     C94121  10.685   3.635   1.135 -1.1945 -0.7266 -0.0403
  714MOL0     C94122  10.549   3.668   1.120 -0.7265 -1.2483 -0.3009
  714MOL0     C94123  10.488   3.754   1.216 -0.4986 -1.2272  0.3785
  714MOL0     O94124  10.354   3.760   1.209  0.6993  0.0328  0.3433
  714MOL0     C94125  10.306   3.897   1.191  1.2306  0.3207  0.0495
  714MOL0     C94126  10.167   3.873   1.125  0.3889  0.0902 -0.1095
  714MOL0     C94127  10.107   4.008   1.086 -0.3922  0.1888 -0.0433
  714MOL0     C94128   9.963   3.977   1.039  0.6540 -0.0509  0.3794
  714MOL0     C94129   9.889   4.091   0.980  0.7223 -0.2873 -0.0832
  714MOL0     C94130   9.946   4.118   0.833 -0.2678  0.5551 -0.3449
  714MOL0     C94131   9.863   4.204   0.736 -0.2580  0.5868 -0.9365
  714MOL0     C94132   9.734   4.141   0.688 -0.6894  0.4265 -0.2914
  714MOL0     N94133   9.686   4.217   0.578 -0.1938 -0.2313  0.4832
  714MOL0     C94134   9.639   4.344   0.584  0.4760 -0.6963  0.1960
  714MOL0     C94135   9.634   4.384   0.453 -0.3221 -0.3642 -0.4712
  714MOL0     C94136   9.597   4.518   0.393  0.3314 -0.6132 -0.7029
  714MOL0     C94137   9.517   4.499   0.262  0.3644 -0.0602  0.1007
  714MOL0     C94138   9.382   4.448   0.284  0.1366 -0.5041 -0.9825
  714MOL0     C94139   9.297   4.422   0.160  0.1537  0.6911  0.3687
  714MOL0     O94140   9.291   4.282   0.128  0.5928 -0.4622 -0.2272
  714MOL0     C94141   9.181   4.203   0.154  0.2622 -0.4732 -0.5641
  714MOL0     C94142   9.104   4.220   0.274  0.5724 -0.2546 -0.3230
  714MOL0     C94143   8.990   4.139   0.298 -0.7169  0.4068 -0.9031
  714MOL0     C94144   8.956   4.037   0.208 -0.0717  0.7435 -0.6704
  714MOL0     C94145   8.828   3.971   0.230 -0.0006  0.7789 -0.5950
  714MOL0     O94146   8.815   3.860   0.146  0.5443  0.4827  0.6240
  714MOL0     C94147   8.701   3.782   0.133 -0.0661  0.1019 -0.0697
  714MOL0     C94148   8.681   3.706   0.016 -0.0665  0.3190 -1.4025
  714MOL0     C94149   8.571   3.623  -0.009 -0.2442  0.0947 -0.5145
  714MOL0     C94150   8.472   3.615   0.086 -0.0820  0.0259  0.1164
  714MOL0     O94151   8.358   3.541   0.055  0.1141 -0.0563  0.2257
  714MOL0     C94152   8.245   3.546   0.147 -0.5538 -0.8430  0.7433
  714MOL0     C94153   8.139   3.440   0.110 -0.0789  0.4229 -0.3296
  714MOL0     C94154   8.008   3.451   0.192 -0.2733 -0.4618  0.0328
  714MOL0     C94155   7.891   3.354   0.142 -0.3033 -0.4061 -0.5033
  714MOL0     C94156   7.764   3.369   0.214  1.0885  0.1230 -0.3172
  714MOL0     C94157   7.660   3.274   0.153 -0.5009 -0.2723 -0.6844
  714MOL0     C94158   7.524   3.320   0.204  0.1452  0.3020  0.5470
  714MOL0     C94159   7.415   3.228   0.155 -0.4904  0.5002 -0.2663
  714MOL0    Cl94160   7.252   3.254   0.246  0.2122 -0.0195  0.3739
  714MOL0     C94161   8.485   3.689   0.200  0.0833  0.1926 -0.4281
  714MOL0     C94162   8.599   3.765   0.230 -0.0742 -1.3964 -0.3575
  714MOL0     O94163   8.749   4.002   0.317  0.3381 -0.2888 -0.9861
  714MOL0     C94164   9.030   4.021   0.091  0.1844  0.9210 -0.4794
  714MOL0     C94165   9.153   4.095   0.070  1.2426 -0.1780 -0.0004
  714MOL0     N94166   9.669   4.279   0.373  0.5321  0.3415  0.2355
  714MOL0     N94167   9.708   4.180   0.446  0.0071  0.9959  0.4290
  714MOL0     C94168  10.566   3.820   1.316  0.0829  0.4405  0.5680
  714MOL0     C94169  10.705   3.793   1.325 -0.4855  0.2888 -0.5114
  714MOL0     C94170  11.095   3.577   1.347  0.0467 -0.3690 -0.4581
  714MOL0     C94171  11.139   3.513   1.459  0.3787  0.5424  0.8340
  714MOL0     C94172  11.275   3.496   1.500  0.1231 -0.5834 -0.4640
  714MOL0     C94173  11.369   3.561   1.420 -0.5944 -0.7722 -1.1169
  714MOL0     O94174  11.501   3.549   1.466 -0.0640  0.2746  0.2656
  714MOL0     C94175  11.604   3.623   1.382  0.1100  0.5591  1.1185
  714MOL0     C94176  11.741   3.610   1.427 -0.0763  0.4764  0.0671
  714MOL0     C94177  11.773   3.704   1.543 -0.0104 -0.3148 -0.2973
  714MOL0     C94178  11.720   3.652   1.685  0.3091 -0.2936  1.5250
  714MOL0     C94179  11.697   3.747   1.793  0.5603 -0.4695  0.5304
  714MOL0     C94180  11.685   3.827   1.884 -0.0857  0.5274  0.4693
  714MOL0     C94181  11.330   3.639   1.304 -0.4978  0.6742 -0.4148
  714MOL0     C94182  11.194   3.649   1.266 -0.2732  0.3213 -0.0689
  714MOL0     H94183  10.730   3.570   1.061  0.8257 -0.3205  0.7769
  714MOL0     H94184  10.485   3.639   1.037 -0.2687  1.7500 -1.8423
  714MOL0     H94185  10.383   3.953   1.136  2.1960 -0.4137  0.6139
  714MOL0     H94186  10.280   3.941   1.288 -2.9057 -1.6181 -0.0105
  714MOL0     H94187  10.109   3.819   1.200  0.4315  1.7103  1.1290
  714MOL0     H94188  10.190   3.805   1.042  2.0432 -1.2834  1.3971
  714MOL0     H94189  10.164   4.042   0.998  1.8024 -1.8735  0.4830
  714MOL0     H94190  10.120   4.072   1.174  0.0303 -0.3358  0.2778
  714MOL0     H94191   9.962   3.906   0.956 -0.8187  1.7160 -1.2299
  714MOL0     H94192   9.909   3.946   1.129  0.0755 -0.8715 -0.2413
  714MOL0     H94193   9.892   4.174   1.051  0.6432 -0.7362  0.4587
  714MOL0     H94194   9.785   4.060   0.966  1.2891 -2.3315 -0.0680
  714MOL0     H94195   9.965   4.020   0.790  1.1753  0.2058  0.9917
  714MOL0     H94196  10.050   4.151   0.844 -0.0241 -0.4894  0.7680
  714MOL0     H94197   9.849   4.301   0.785  1.4072 -0.0629  0.9566
  714MOL0     H94198   9.928   4.218   0.649 -0.0667  0.2812 -0.8460
  714MOL0     H94199   9.663   4.135   0.771  0.1294 -2.5078  0.2941
  714MOL0     H94200   9.761   4.043   0.650  4.7472  1.5622 -0.0973
  714MOL0     H94201   9.626   4.398   0.677  2.6608  2.3165 -1.1215
  714MOL0     H94202   9.686   4.581   0.382  0.3448 -0.3039  1.0126
  714MOL0     H94203   9.530   4.566   0.464 -0.9096 -2.2013 -0.7408
  714MOL0     H94204   9.568   4.431   0.194  0.0938 -0.9220  0.7413
  714MOL0     H94205   9.508   4.599   0.218  4.3303  0.4790  0.1800
  714MOL0     H94206   9.389   4.359   0.348  0.9378  0.9278  1.0060
  714MOL0     H94207   9.325   4.527   0.334 -1.7137 -0.9313 -2.3378
  714MOL0     H94208   9.328   4.477   0.070 -0.1843 -1.5740 -1.2352
  714MOL0     H94209   9.199   4.457   0.193  0.2402 -0.0469  1.4274
  714MOL0     H94210   9.137   4.296   0.345 -0.8986  1.8447 -1.7738
  714MOL0     H94211   8.934   4.168   0.386  1.2748 -0.4952  0.7315
  714MOL0     H94212   8.769   3.704  -0.047  1.2485  0.7182  0.3397
  714MOL0     H94213   8.573   3.572  -0.105  3.0117  1.5317 -1.3699
  714MOL0     H94214   8.198   3.645   0.146  1.2219  0.0450 -0.3179
  714MOL0     H94215   8.274   3.521   0.249 -2.9527  0.1668  1.7450
  714MOL0     H94216   8.176   3.337   0.122 -2.9364 -0.7897 -1.1522
  714MOL0     H94217   8.102   3.450   0.008 -1.3104 -2.7543 -0.3129
  714MOL0     H94218   7.968   3.552   0.184 -1.6674 -1.1081 -2.3158
  714MOL0     H94219   8.030   3.443   0.298 -2.7397 -0.7015  0.5868
  714MOL0     H94220   7.872   3.360   0.034 -1.7514 -1.9779 -0.3735
  714MOL0     H94221   7.922   3.252   0.164  0.5826  0.1610  1.0500
  714MOL0     H94222   7.733   3.469   0.184  0.9082 -0.5250 -2.3929
  714MOL0     H94223   7.778   3.362   0.323  3.9864  0.7770 -0.5601
  714MOL0     H94224   7.694   3.175   0.182 -0.4435  0.0034  0.2186
  714MOL0     H94225   7.668   3.283   0.044 -0.4156  1.5660 -0.5721
  714MOL0     H94226   7.527   3.321   0.314 -0.6420 -2.1088  0.6609
  714MOL0     H94227   7.490   3.414   0.160 -2.7371 -0.9669 -0.1371
  714MOL0     H94228   7.454   3.128   0.170 -0.2007  0.0590 -3.3117
  714MOL0     H94229   7.405   3.243   0.047 -3.5601 -0.6740 -0.2480
  714MOL0     H94230   8.404   3.684   0.273 -0.7336  0.2976 -1.3068
  714MOL0     H94231   8.595   3.829   0.317 -0.5189  0.2046 -1.5106
  714MOL0     H94232   9.006   3.950   0.013  2.8006 -0.3916 -0.2144
  714MOL0     H94233   9.228   4.086  -0.008 -0.4778  0.5667 -1.8175
  714MOL0     H94234  10.518   3.890   1.384  0.2251  0.6998  0.4030
  714MOL0     H94235  10.765   3.827   1.409  1.0792 -1.6594 -0.7720
  714MOL0     H94236  11.055   3.472   1.514  0.5585 -2.2992 -0.8243
  714MOL0     H94237  11.303   3.430   1.583 -1.7497  0.2407  0.8890
  714MOL0     H94238  11.576   3.729   1.381  1.4125  0.9109  0.4579
  714MOL0     H94239  11.594   3.604   1.275 -0.4561  0.3771  1.1967
  714MOL0     H94240  11.776   3.510   1.456  2.7238  1.6923  1.3193
  714MOL0     H94241  11.799   3.642   1.340  2.4865 -1.7255  0.8093
  714MOL0     H94242  11.739   3.806   1.523  0.4131 -0.1097  0.0279
  714MOL0     H94243  11.881   3.717   1.549 -0.2698  1.8888  0.4390
  714MOL0     H94244  11.621   3.610   1.666  1.8370 -3.3176 -0.7358
  714MOL0     H94245  11.788   3.575   1.723  0.0953 -1.6165 -0.5919
  714MOL0     H94246  11.677   3.897   1.965  1.4334  0.3735  0.7768
  714MOL0     H94247  11.394   3.703   1.245 -2.1461  1.4659 -1.4070
  714MOL0     H94248  11.156   3.705   1.181  0.3773  1.8285  0.5856
  715MOL0     O94249  11.261   8.907   3.414 -0.3566  0.2363 -0.1281
  715MOL0     C94250  11.330   8.954   3.509 -0.2402  0.2353  0.4268
  715MOL0     O94251  11.285   8.991   3.627 -0.6705 -0.8591  0.2067
  715MOL0     C94252  11.152   9.004   3.643 -1.1506  0.1443 -0.2487
  715MOL0     C94253  11.093   9.131   3.620  0.0500 -0.3068  0.8956
  715MOL0     C94254  10.958   9.150   3.606  0.3753  0.9666 -0.3643
  715MOL0     C94255  10.867   9.046   3.640 -0.6013  0.5243 -0.1428
  715MOL0     O94256  10.734   9.055   3.608 -0.0278  0.4181 -0.1772
  715MOL0     C94257  10.675   9.180   3.613 -0.1763 -0.8490 -0.9168
  715MOL0     C94258  10.529   9.172   3.595 -0.4850  0.3485  0.4400
  715MOL0     C94259  10.468   9.097   3.707 -0.0145 -0.0822  0.4156
  715MOL0     C94260  10.326   9.118   3.727 -0.1704 -0.6579  0.0848
  715MOL0     C94261  10.264   9.009   3.813  0.9092 -0.7098 -0.3952
  715MOL0     C94262  10.111   9.043   3.828 -0.8647 -0.7931  0.1832
  715MOL0     C94263  10.034   8.961   3.927 -0.2926 -0.2113  0.5561
  715MOL0     C94264   9.881   9.010   3.921  0.1914 -0.1879 -0.1326
  715MOL0     N94265   9.797   8.947   4.019  0.3517 -0.2544 -0.1329
  715MOL0     C94266   9.839   8.876   4.123 -0.3914 -0.3826 -0.4266
  715MOL0     C94267   9.732   8.841   4.195  0.4764  0.0154  0.3341
  715MOL0     C94268   9.727   8.758   4.320 -0.4367 -0.4553 -0.0585
  715MOL0     C94269   9.689   8.846   4.441 -0.4012 -0.6003 -0.7116
  715MOL0     C94270   9.776   8.967   4.474 -0.4177 -0.7904  0.2005
  715MOL0     C94271   9.921   8.935   4.517 -0.3291  0.1215 -0.8570
  715MOL0     O94272   9.999   8.884   4.409 -0.7261 -0.0172  0.5282
  715MOL0     C94273  10.130   8.867   4.439 -1.0200 -0.0846  0.1842
  715MOL0     C94274  10.183   8.853   4.566  0.7631 -0.3143 -0.0362
  715MOL0     C94275  10.317   8.842   4.579  0.0772  0.1766 -0.5535
  715MOL0     C94276  10.412   8.879   4.487 -0.4903 -1.2712  0.4149
  715MOL0     C94277  10.559   8.888   4.509  0.1031  0.0775  0.2726
  715MOL0     O94278  10.628   8.951   4.404  0.2004 -0.1479  0.2185
  715MOL0     C94279  10.762   8.934   4.397 -0.8178  0.5530 -0.6300
  715MOL0     C94280  10.821   8.799   4.399 -0.1358 -0.2662 -0.5287
  715MOL0     C94281  10.952   8.790   4.370 -0.8114 -0.1541 -0.8281
  715MOL0     C94282  11.029   8.903   4.352 -0.4155 -0.5083 -0.1568
  715MOL0     O94283  11.164   8.895   4.353 -0.2435  0.1621  0.3661
  715MOL0     C94284  11.226   8.773   4.409 -0.7171  0.2197  1.6950
  715MOL0     C94285  11.374   8.810   4.417  0.4816 -0.0798 -0.6250
  715MOL0     C94286  11.466   8.695   4.411 -0.5825 -0.3270 -0.2598
  715MOL0     C94287  11.613   8.752   4.437 -0.0253 -0.3578  0.2267
  715MOL0     C94288  11.715   8.662   4.377  0.3719  1.2681  0.4479
  715MOL0     C94289  11.855   8.701   4.426 -0.1758 -0.8300 -0.6816
  715MOL0     C94290  11.907   8.842   4.391  0.0970 -1.7352 -0.3935
  715MOL0     C94291  11.865   8.964   4.482  0.2389 -0.1192  0.6989
  715MOL0    Cl94292  11.983   9.099   4.449 -0.0152 -0.0518 -0.0816
  715MOL0     C94293  10.969   9.033   4.340 -0.0491  0.4541 -0.2974
  715MOL0     C94294  10.833   9.047   4.367 -0.9970  0.2535  0.5801
  715MOL0     O94295  10.601   8.865   4.622  0.8069  0.2686 -0.5988
  715MOL0     C94296  10.360   8.884   4.350 -0.1890  0.1838  0.4920
  715MOL0     C94297  10.222   8.873   4.331 -0.3112  0.0643 -0.0409
  715MOL0     N94298   9.620   8.871   4.127 -0.1112 -0.6926 -0.4472
  715MOL0     N94299   9.658   8.935   4.018  0.1215  0.0976  0.0580
  715MOL0     C94300  10.925   8.925   3.676  0.2625 -0.7047 -0.0448
  715MOL0     C94301  11.064   8.907   3.675  0.2396  0.1869 -0.1485
  715MOL0     C94302  11.479   8.932   3.487  0.0813  0.4313 -0.0285
  715MOL0     C94303  11.543   8.870   3.379 -0.3718 -0.1729  0.5889
  715MOL0     C94304  11.676   8.853   3.360  0.3688 -0.1465 -0.5775
  715MOL0     C94305  11.764   8.904   3.465 -0.4072  0.2474  0.0548
  715MOL0     O94306  11.900   8.908   3.443 -0.2395 -0.6380 -0.2028
  715MOL0     C94307  11.967   8.792   3.385  0.2104  0.4656  0.2969
  715MOL0     C94308  12.057   8.717   3.483 -0.1296 -0.8648 -0.3069
  715MOL0     C94309  12.107   8.585   3.424 -0.6491 -0.6068  0.0714
  715MOL0     C94310  12.216   8.506   3.491  1.1998 -0.5861 -0.6264
  715MOL0     C94311  12.343   8.581   3.491  0.1347 -0.2845 -0.2124
  715MOL0     C94312  12.443   8.652   3.478 -0.2117 -0.4935 -0.8520
  715MOL0     C94313  11.708   8.976   3.571  0.5012  0.3789 -0.9312
  715MOL0     C94314  11.565   8.986   3.579  0.5219  0.4902  0.5237
  715MOL0     H94315  11.151   9.222   3.613 -1.4564  0.6035 -0.1380
  715MOL0     H94316  10.919   9.251   3.593 -2.1896  0.3655  1.6204
  715MOL0     H94317  10.712   9.242   3.530 -0.5146 -0.5385 -0.8394
  715MOL0     H94318  10.695   9.231   3.707  2.4778 -0.8959 -1.3963
  715MOL0     H94319  10.503   9.113   3.507 -0.1623  0.1806  0.4574
  715MOL0     H94320  10.481   9.270   3.590  0.1716  1.0003  4.0253
  715MOL0     H94321  10.509   9.144   3.796 -1.5268  2.1675  0.0150
  715MOL0     H94322  10.489   8.990   3.704  0.2714 -0.0117 -0.4012
  715MOL0     H94323  10.314   9.221   3.763  0.9022 -1.4912  3.1216
  715MOL0     H94324  10.273   9.123   3.631  0.1694  2.7839 -0.0516
  715MOL0     H94325  10.308   9.003   3.913  0.9532 -1.5385 -0.4574
  715MOL0     H94326  10.279   8.914   3.761  2.2224 -0.5789 -0.2760
  715MOL0     H94327  10.064   9.028   3.731  0.7577 -0.0503 -0.7662
  715MOL0     H94328  10.108   9.147   3.862  1.8969 -1.1506  1.7628
  715MOL0     H94329  10.040   8.856   3.897  0.7601 -0.7171  2.4007
  715MOL0     H94330  10.070   8.978   4.029  0.9805  3.7141 -0.3438
  715MOL0     H94331   9.837   8.986   3.823 -1.3679 -0.1148  0.5226
  715MOL0     H94332   9.877   9.118   3.938 -0.2319  0.2695 -2.6198
  715MOL0     H94333   9.941   8.856   4.155  0.2848  0.9372 -1.6575
  715MOL0     H94334   9.827   8.714   4.322  0.1055  0.4227 -3.0067
  715MOL0     H94335   9.658   8.676   4.299 -0.3331 -1.6045  3.5162
  715MOL0     H94336   9.687   8.774   4.524 -0.1822 -1.1842 -1.2006
  715MOL0     H94337   9.584   8.872   4.424  0.3310  2.8714 -0.6771
  715MOL0     H94338   9.787   9.029   4.384 -0.2108 -0.4655  0.4514
  715MOL0     H94339   9.720   9.024   4.548 -1.5740  1.6777 -2.3647
  715MOL0     H94340   9.916   8.856   4.593  0.8809  1.5041  0.7159
  715MOL0     H94341   9.981   9.018   4.554 -1.3002  1.0121 -1.2156
  715MOL0     H94342  10.130   8.858   4.660 -1.3129  1.6225 -1.2106
  715MOL0     H94343  10.352   8.814   4.677 -2.1757 -0.6587  0.0714
  715MOL0     H94344  10.753   8.717   4.417  0.7180 -0.8775 -0.0611
  715MOL0     H94345  10.990   8.690   4.388  0.1234  0.7078  2.6827
  715MOL0     H94346  11.207   8.694   4.335 -0.7232  0.4846  1.4119
  715MOL0     H94347  11.187   8.740   4.505  0.3533 -1.2501  1.6753
  715MOL0     H94348  11.375   8.859   4.515  1.1860 -3.3363  1.1418
  715MOL0     H94349  11.406   8.881   4.339  2.1375  0.3308  0.3722
  715MOL0     H94350  11.454   8.636   4.320 -0.1035 -0.0832 -0.4810
  715MOL0     H94351  11.455   8.626   4.496  1.0781 -0.2504  0.0553
  715MOL0     H94352  11.616   8.848   4.385 -1.4527 -0.0884  0.6051
  715MOL0     H94353  11.631   8.775   4.543  0.9172  2.7070 -0.4929
  715MOL0     H94354  11.709   8.651   4.269  2.2020  0.7448  0.3747
  715MOL0     H94355  11.687   8.560   4.403  0.7678  0.8601 -0.6743
  715MOL0     H94356  11.938   8.632   4.409  1.9640  1.2468  0.7176
  715MOL0     H94357  11.838   8.703   4.534 -4.2154  2.3684 -1.1344
  715MOL0     H94358  12.015   8.846   4.407  0.2320  1.4124 -1.2764
  715MOL0     H94359  11.877   8.877   4.292  2.5589  1.3741 -0.2084
  715MOL0     H94360  11.873   8.931   4.586  0.4948 -0.0415  0.7043
  715MOL0     H94361  11.761   8.996   4.471 -0.3369 -1.1387  2.7066
  715MOL0     H94362  11.018   9.126   4.314  0.6009  0.8084  1.9785
  715MOL0     H94363  10.785   9.143   4.353  3.1655  2.9009  2.5300
  715MOL0     H94364  10.420   8.882   4.260 -1.1407 -3.1529 -0.1904
  715MOL0     H94365  10.182   8.881   4.230 -2.2526 -1.4543  0.5262
  715MOL0     H94366  10.857   8.848   3.712 -0.4288  0.9980  2.5734
  715MOL0     H94367  11.113   8.813   3.698 -2.1636 -0.9325  0.8208
  715MOL0     H94368  11.490   8.832   3.292  1.9211 -1.5931 -0.2667
  715MOL0     H94369  11.708   8.797   3.272 -2.2466  0.3644 -1.9718
  715MOL0     H94370  12.019   8.818   3.292  0.5295 -1.3792 -0.0862
  715MOL0     H94371  11.901   8.715   3.343  0.8436  0.3640 -0.5300
  715MOL0     H94372  12.139   8.783   3.515  2.2833 -3.3813 -0.8991
  715MOL0     H94373  12.005   8.685   3.573 -1.5531  1.7711 -0.1036
  715MOL0     H94374  12.124   8.591   3.316 -0.1112 -1.8823  0.0622
  715MOL0     H94375  12.014   8.527   3.412 -2.4581  2.3327 -1.3547
  715MOL0     H94376  12.193   8.494   3.597  0.7720 -2.4482 -0.9093
  715MOL0     H94377  12.240   8.405   3.457  2.0597 -1.5148  2.4136
  715MOL0     H94378  12.525   8.722   3.475 -0.7397  0.2152  0.3881
  715MOL0     H94379  11.763   9.026   3.650 -0.6386 -2.2177  1.6923
  715MOL0     H94380  11.535   9.033   3.672  2.7664  1.2962  0.9056
  716MOL0     O94381   5.295   9.132   6.850  0.1506  0.3584  0.8887
  716MOL0     C94382   5.348   9.065   6.940  0.3060  0.1765  0.1489
  716MOL0     O94383   5.286   9.021   7.049  0.1366  0.3061 -0.4755
  716MOL0     C94384   5.157   9.039   7.074  0.4786 -0.1990 -0.0111
  716MOL0     C94385   5.124   9.071   7.205  0.4817  0.2009 -0.1209
  716MOL0     C94386   4.997   9.114   7.253 -0.1562 -0.4555 -0.0810
  716MOL0     C94387   4.895   9.122   7.154 -0.5169  0.1220  0.2426
  716MOL0     O94388   4.772   9.171   7.164 -0.1395 -0.0447  0.1993
  716MOL0     C94389   4.722   9.171   7.296  0.1130  0.1701 -0.2115
  716MOL0     C94390   4.568   9.168   7.279 -0.3993 -0.2817  0.3026
  716MOL0     C94391   4.535   9.036   7.210  0.0089  0.7475 -0.0742
  716MOL0     C94392   4.380   8.996   7.213 -0.7285  0.8096 -0.0421
  716MOL0     C94393   4.292   9.102   7.149 -0.0696 -0.8707  0.1395
  716MOL0     C94394   4.153   9.067   7.164  1.2632  0.2198 -0.9246
  716MOL0     C94395   4.066   9.172   7.105  0.3743 -0.4658 -0.5989
  716MOL0     C94396   4.022   9.279   7.209  0.0069  0.0781  0.5604
  716MOL0     N94397   3.970   9.394   7.131 -0.8246  1.0816  0.0610
  716MOL0     C94398   4.054   9.491   7.093  0.0936 -0.7150  0.5913
  716MOL0     C94399   3.978   9.575   7.014  0.3134  0.2729 -0.1080
  716MOL0     C94400   4.035   9.705   6.964  0.4828 -0.2067 -0.2487
  716MOL0     C94401   4.100   9.712   6.827 -0.5905  0.0864 -0.8611
  716MOL0     C94402   4.211   9.605   6.807  0.2233 -0.5063 -0.1903
  716MOL0     C94403   4.303   9.646   6.688 -0.5210 -0.1001  0.1054
  716MOL0     O94404   4.388   9.749   6.749 -0.6850 -0.5903  0.2316
  716MOL0     C94405   4.511   9.763   6.693  0.6204  0.8585  0.0516
  716MOL0     C94406   4.544   9.739   6.559  0.2465  0.3385  0.1545
  716MOL0     C94407   4.673   9.759   6.527 -0.6786  0.0193  0.3434
  716MOL0     C94408   4.786   9.796   6.616 -0.4560 -0.2960  0.2608
  716MOL0     C94409   4.929   9.809   6.582  0.3082 -0.5742  0.7785
  716MOL0     O94410   4.972   9.770   6.457 -0.7178 -0.5962  0.1777
  716MOL0     C94411   5.088   9.796   6.395  0.8869  0.6987  0.5430
  716MOL0     C94412   5.084   9.788   6.253 -0.0600 -0.1662  0.1541
  716MOL0     C94413   5.207   9.781   6.180  0.0461 -0.6677  0.3360
  716MOL0     C94414   5.328   9.780   6.250 -0.3593  0.2501 -0.7063
  716MOL0     O94415   5.448   9.790   6.183  0.8657 -0.2552  0.1919
  716MOL0     C94416   5.443   9.852   6.047 -0.0144  0.7008 -0.0066
  716MOL0     C94417   5.576   9.926   6.017 -0.0669 -0.3056  0.2887
  716MOL0     C94418   5.708   9.855   6.032  0.0653  0.3115  0.5658
  716MOL0     C94419   5.743   9.770   5.906  0.9021 -0.5235 -0.3955
  716MOL0     C94420   5.885   9.705   5.898 -0.1705 -1.3661  0.4648
  716MOL0     C94421   5.994   9.823   5.884  0.0304 -0.3836  0.1649
  716MOL0     C94422   6.128   9.770   5.822  0.7052 -0.1912 -0.3782
  716MOL0     C94423   6.207   9.878   5.763 -0.5784 -0.3877 -0.1217
  716MOL0    Cl94424   6.342   9.812   5.657  0.2840  0.1180 -0.4004
  716MOL0     C94425   5.327   9.779   6.389  0.1215 -0.2295  0.5297
  716MOL0     C94426   5.213   9.802   6.460 -0.2268  1.0098 -0.6624
  716MOL0     O94427   5.001   9.858   6.666  0.0170 -0.2129  0.0994
  716MOL0     C94428   4.742   9.823   6.750 -0.1682  0.1626 -0.5676
  716MOL0     C94429   4.607   9.805   6.784  0.2464  0.6970  0.3558
  716MOL0     N94430   3.850   9.526   7.010 -0.4105 -0.6292 -0.0109
  716MOL0     N94431   3.844   9.411   7.075  0.1189  0.2777  0.1924
  716MOL0     C94432   4.923   9.092   7.018 -0.2278 -0.5342 -0.3088
  716MOL0     C94433   5.052   9.049   6.980  0.6329 -0.2610 -0.6261
  716MOL0     C94434   5.480   9.007   6.913  0.0918 -0.0774  0.7355
  716MOL0     C94435   5.533   8.906   6.989 -0.6965 -0.8687 -0.5255
  716MOL0     C94436   5.656   8.860   6.960 -0.0933  0.7156  0.0805
  716MOL0     C94437   5.742   8.918   6.859 -0.2584  0.3418 -0.1488
  716MOL0     O94438   5.871   8.860   6.845  0.8694  0.5401 -0.3656
  716MOL0     C94439   5.976   8.924   6.780 -0.4363 -0.4887 -0.5753
  716MOL0     C94440   6.107   8.871   6.834  0.7232 -0.7060  0.4236
  716MOL0     C94441   6.229   8.916   6.754  1.0704  0.7091 -0.5473
  716MOL0     C94442   6.375   8.878   6.804  0.9006  0.9330 -0.1872
  716MOL0     C94443   6.464   8.929   6.698 -1.0281  0.5183 -0.1823
  716MOL0     C94444   6.541   8.957   6.607 -0.1187 -0.3718 -0.1032
  716MOL0     C94445   5.689   9.030   6.801  0.6366  0.0242  0.2533
  716MOL0     C94446   5.562   9.077   6.823 -0.5418 -0.0837  0.8060
  716MOL0     H94447   5.205   9.067   7.278 -0.0375 -1.5567  0.4098
  716MOL0     H94448   4.992   9.146   7.357  2.9897 -1.6456  0.5607
  716MOL0     H94449   4.742   9.263   7.353 -0.5804  0.2614 -0.1082
  716MOL0     H94450   4.757   9.084   7.353 -0.9359  1.8345  3.2841
  716MOL0     H94451   4.531   9.257   7.226 -2.2188 -1.6357 -0.8020
  716MOL0     H94452   4.519   9.181   7.376 -0.5755  2.6559 -0.0710
  716MOL0     H94453   4.592   8.949   7.246 -3.0510 -2.5813 -2.5416
  716MOL0     H94454   4.561   9.039   7.104 -3.3077  1.7079 -0.9757
  716MOL0     H94455   4.358   8.898   7.170 -1.8358  1.6434 -1.5044
  716MOL0     H94456   4.354   8.995   7.319  1.5661  1.9544  0.5939
  716MOL0     H94457   4.327   9.121   7.047 -3.7027  2.4683 -0.7063
  716MOL0     H94458   4.305   9.195   7.205  4.2579  0.2824 -2.2924
  716MOL0     H94459   4.134   9.054   7.271  0.4143 -0.0305 -1.1011
  716MOL0     H94460   4.128   8.974   7.112 -1.5382  0.7087 -0.6023
  716MOL0     H94461   4.116   9.223   7.022  1.6050  0.1400  0.4796
  716MOL0     H94462   3.976   9.119   7.073 -1.0538  0.3949  1.7785
  716MOL0     H94463   4.112   9.307   7.265 -2.2108  1.1191  3.9429
  716MOL0     H94464   3.950   9.244   7.283 -1.5196  1.8828  0.0217
  716MOL0     H94465   4.157   9.507   7.122 -0.1261  0.9808  0.5314
  716MOL0     H94466   4.102   9.758   7.032 -0.1994  0.3987 -0.0331
  716MOL0     H94467   3.963   9.788   6.963 -0.1012 -0.5862  2.5174
  716MOL0     H94468   4.138   9.814   6.822 -0.6249  0.3651  2.5503
  716MOL0     H94469   4.020   9.703   6.752 -0.9421  3.9494 -1.1433
  716MOL0     H94470   4.277   9.602   6.894 -0.0226 -0.9633 -0.0152
  716MOL0     H94471   4.160   9.511   6.786 -0.3590 -0.8621  2.4075
  716MOL0     H94472   4.256   9.672   6.593  0.4302 -0.1940 -0.3999
  716MOL0     H94473   4.363   9.563   6.650 -0.2657  0.3696 -0.5280
  716MOL0     H94474   4.476   9.709   6.480 -1.4836  3.5996  0.2328
  716MOL0     H94475   4.718   9.731   6.432  1.0201 -0.3331  1.2033
  716MOL0     H94476   4.985   9.785   6.210  0.5573 -2.0039 -1.2910
  716MOL0     H94477   5.196   9.803   6.074 -0.5311  3.3187  1.0373
  716MOL0     H94478   5.357   9.918   6.039 -1.5358 -1.3190 -1.3765
  716MOL0     H94479   5.434   9.763   5.983 -2.4120 -1.1559  2.6505
  716MOL0     H94480   5.588  10.019   6.074  0.2821  0.7551 -1.4376
  716MOL0     H94481   5.562   9.949   5.911  1.8431 -0.9379 -0.1422
  716MOL0     H94482   5.708   9.800   6.126  1.7180  2.9630  2.2744
  716MOL0     H94483   5.774   9.939   6.056 -0.5474  1.0607 -0.3313
  716MOL0     H94484   5.668   9.691   5.899 -0.2864  0.1424  3.0412
  716MOL0     H94485   5.730   9.829   5.814 -1.2819  0.6745  0.6113
  716MOL0     H94486   5.886   9.643   5.807 -4.1585  1.0184 -1.4539
  716MOL0     H94487   5.908   9.639   5.982  1.1050 -0.2219  1.0657
  716MOL0     H94488   6.018   9.871   5.979  1.9786  2.7217 -1.7031
  716MOL0     H94489   5.952   9.898   5.815 -1.5944 -1.1909  0.2236
  716MOL0     H94490   6.187   9.733   5.907  2.3206 -1.3383 -1.9262
  716MOL0     H94491   6.110   9.684   5.757  0.3870 -1.4854  1.3460
  716MOL0     H94492   6.245   9.937   5.847 -1.2439 -1.3146  0.8594
  716MOL0     H94493   6.146   9.936   5.693 -0.0272 -1.8476 -1.8969
  716MOL0     H94494   5.424   9.775   6.438  0.6308 -0.8053 -0.5137
  716MOL0     H94495   5.216   9.789   6.568  1.2856 -1.9456 -0.9330
  716MOL0     H94496   4.795   9.860   6.838 -0.0169 -1.0940 -0.1185
  716MOL0     H94497   4.575   9.836   6.883  1.7125  1.2105  0.7089
  716MOL0     H94498   4.846   9.094   6.942 -0.9190  2.2075  0.3394
  716MOL0     H94499   5.075   9.037   6.874 -0.7643 -0.3869 -0.9267
  716MOL0     H94500   5.484   8.866   7.077  0.2981 -1.2572 -0.1371
  716MOL0     H94501   5.700   8.778   7.017  0.2027  1.7939  1.4608
  716MOL0     H94502   5.967   9.032   6.790  0.2612 -0.3596 -1.2485
  716MOL0     H94503   5.960   8.895   6.676 -1.7583  2.6842 -1.3804
  716MOL0     H94504   6.116   8.898   6.939 -3.6068  1.5250  0.4350
  716MOL0     H94505   6.095   8.762   6.829  0.7591 -0.6732 -0.6345
  716MOL0     H94506   6.232   9.026   6.750 -0.1488  0.7585 -4.6524
  716MOL0     H94507   6.215   8.871   6.655 -0.4344 -2.0193  0.8122
  716MOL0     H94508   6.401   8.921   6.901  1.3164  0.5621 -0.1312
  716MOL0     H94509   6.383   8.769   6.805 -0.9509  0.7210 -1.8682
  716MOL0     H94510   6.607   8.989   6.529 -2.8153  0.3192 -2.2733
  716MOL0     H94511   5.754   9.082   6.731 -1.4885  4.2145  1.0103
  716MOL0     H94512   5.530   9.160   6.761 -1.4756 -1.8778 -1.2071
  717MOL0     O94513   5.807   6.166   4.301  0.1703  0.3738  0.5559
  717MOL0     C94514   5.823   6.109   4.409  0.0343  0.1901  0.6207
  717MOL0     O94515   5.726   6.085   4.496 -0.6064  0.3860 -0.0549
  717MOL0     C94516   5.609   6.164   4.484 -0.0862 -0.8789 -0.3975
  717MOL0     C94517   5.584   6.243   4.590 -0.0593  0.5669  0.4653
  717MOL0     C94518   5.462   6.318   4.600 -0.2515 -1.2986  0.0030
  717MOL0     C94519   5.374   6.318   4.496  0.4288 -0.3630  0.1569
  717MOL0     O94520   5.251   6.384   4.511 -0.9009  0.3426 -0.0834
  717MOL0     C94521   5.137   6.356   4.430  0.0658 -0.0237 -0.1290
  717MOL0     C94522   5.037   6.464   4.460 -0.1439  1.0797 -0.4460
  717MOL0     C94523   4.941   6.414   4.573 -0.4525  0.7489 -0.0764
  717MOL0     C94524   4.826   6.517   4.610 -0.4764  0.5984  0.5348
  717MOL0     C94525   4.742   6.453   4.728 -0.3005 -0.0682  1.2772
  717MOL0     C94526   4.647   6.336   4.671  0.6271 -0.0734 -0.0232
  717MOL0     C94527   4.541   6.307   4.782  0.1760  0.1722  1.0227
  717MOL0     C94528   4.446   6.199   4.746  0.1066  0.3927  0.5886
  717MOL0     N94529   4.360   6.233   4.631 -0.4231 -0.5715  0.8611
  717MOL0     C94530   4.233   6.282   4.634  1.0086  0.0307  0.5071
  717MOL0     C94531   4.168   6.241   4.518 -0.1871  0.4727  0.1067
  717MOL0     C94532   4.020   6.260   4.477 -0.4478 -0.4207  0.5910
  717MOL0     C94533   4.014   6.213   4.333  0.8574 -0.1365  0.9470
  717MOL0     C94534   3.873   6.190   4.275  0.5515  0.3274 -0.1201
  717MOL0     C94535   3.886   6.137   4.129  0.8760 -0.9919  0.2164
  717MOL0     O94536   3.772   6.060   4.084  0.0866  0.2857  0.5668
  717MOL0     C94537   3.641   6.101   4.076  0.5669  0.4413  0.4074
  717MOL0     C94538   3.540   5.998   4.077  0.6296  0.3545  0.2979
  717MOL0     C94539   3.405   6.028   4.063  0.0776 -0.2446  0.4935
  717MOL0     C94540   3.371   6.163   4.041  0.8194 -0.9497  0.3320
  717MOL0     C94541   3.225   6.199   4.012  0.0547  0.3959  0.9148
  717MOL0     O94542   3.191   6.330   4.007  0.6937 -0.2936 -0.0896
  717MOL0     C94543   3.060   6.354   3.974 -0.5736  1.1284 -0.7423
  717MOL0     C94544   2.981   6.386   4.081  0.9365  0.6228  0.4347
  717MOL0     C94545   2.859   6.443   4.056  1.1636 -0.5175  0.2483
  717MOL0     C94546   2.812   6.455   3.920  0.9586 -0.3140  0.6252
  717MOL0     O94547   2.687   6.511   3.903  0.2493 -0.3542  0.1877
  717MOL0     C94548   2.697   6.654   3.933  0.2651 -0.1245  0.0120
  717MOL0     C94549   2.563   6.727   3.940 -0.1586  0.5283  0.7258
  717MOL0     C94550   2.511   6.757   3.800  0.6065  0.0221 -0.6415
  717MOL0     C94551   2.369   6.819   3.794  0.6693  0.1294  0.2246
  717MOL0     C94552   2.255   6.726   3.846  0.6602 -0.2492 -1.6842
  717MOL0     C94553   2.114   6.795   3.853 -0.4330  0.2673  0.2169
  717MOL0     C94554   2.048   6.794   3.709  0.1275  0.1084  0.1255
  717MOL0     C94555   1.912   6.723   3.717 -0.0992  0.6532  0.0906
  717MOL0    Cl94556   1.803   6.807   3.828 -0.2208 -0.1070  0.2116
  717MOL0     C94557   2.898   6.410   3.814  0.2381 -1.7059 -0.4414
  717MOL0     C94558   3.021   6.363   3.842 -0.7258  0.1506 -0.1061
  717MOL0     O94559   3.149   6.102   4.004  0.3007 -0.4092  0.0515
  717MOL0     C94560   3.462   6.258   4.054 -0.7537 -0.7234  0.0502
  717MOL0     C94561   3.598   6.231   4.060  0.0236  0.4036 -0.3242
  717MOL0     N94562   4.268   6.167   4.452  0.8018 -0.0538 -0.3682
  717MOL0     N94563   4.378   6.169   4.515 -0.2333  0.5423 -0.0975
  717MOL0     C94564   5.400   6.235   4.387 -0.8206 -1.0122  0.3616
  717MOL0     C94565   5.523   6.160   4.373  0.3135 -0.3791  0.2116
  717MOL0     C94566   5.963   6.086   4.451  0.7196 -0.1630 -0.3380
  717MOL0     C94567   5.986   6.054   4.591 -0.9635  0.7147  0.4173
  717MOL0     C94568   6.124   6.045   4.638 -0.1772  0.2551 -0.2091
  717MOL0     C94569   6.229   6.069   4.555  0.3799  0.3353 -0.4406
  717MOL0     O94570   6.353   6.049   4.610  0.3585 -0.2395  0.7748
  717MOL0     C94571   6.464   6.031   4.534 -0.0831  0.2720  0.2188
  717MOL0     C94572   6.528   6.172   4.502  0.2004  0.9080  0.1392
  717MOL0     C94573   6.678   6.180   4.533 -0.8945  0.3596  0.3504
  717MOL0     C94574   6.706   6.191   4.684 -0.0650  0.4317  0.3696
  717MOL0     C94575   6.845   6.234   4.699 -1.1002  0.4186  0.0498
  717MOL0     C94576   6.965   6.268   4.700  0.3642 -0.1568 -0.1449
  717MOL0     C94577   6.205   6.098   4.425 -0.5093 -0.4051  0.3204
  717MOL0     C94578   6.076   6.114   4.373  0.1694  0.3641  0.5316
  717MOL0     H94579   5.653   6.249   4.673 -3.1426  1.5562  3.1697
  717MOL0     H94580   5.445   6.384   4.685 -0.7455  2.1419 -2.5232
  717MOL0     H94581   5.103   6.252   4.435  1.0669 -0.3528  0.0838
  717MOL0     H94582   5.167   6.377   4.327  1.7553  0.2678  0.4011
  717MOL0     H94583   4.982   6.498   4.372 -1.3443  0.9400  0.2240
  717MOL0     H94584   5.087   6.551   4.504  0.3987  0.0796  0.9885
  717MOL0     H94585   4.997   6.386   4.663  2.3653  2.1551 -1.2631
  717MOL0     H94586   4.898   6.327   4.522  2.3390 -0.4551 -0.6063
  717MOL0     H94587   4.860   6.615   4.644 -1.5237  0.3065  2.6021
  717MOL0     H94588   4.758   6.533   4.526  0.0381  1.5105  0.2883
  717MOL0     H94589   4.679   6.533   4.767  0.9284  0.4906  2.2035
  717MOL0     H94590   4.805   6.414   4.809  1.5469 -1.9205 -0.9031
  717MOL0     H94591   4.710   6.252   4.641 -0.9846 -1.0254 -0.8855
  717MOL0     H94592   4.592   6.364   4.581 -3.6461 -2.3481  1.5634
  717MOL0     H94593   4.590   6.292   4.879  1.0409  1.0092  0.7227
  717MOL0     H94594   4.485   6.401   4.789  1.6004  1.1256 -0.0642
  717MOL0     H94595   4.382   6.196   4.835  0.9095  1.4663  1.2354
  717MOL0     H94596   4.504   6.107   4.737  0.1760  0.6112 -2.1721
  717MOL0     H94597   4.183   6.327   4.719  2.2352 -1.4179  2.0766
  717MOL0     H94598   3.994   6.367   4.474 -1.9429 -0.6602 -3.9074
  717MOL0     H94599   3.939   6.209   4.529 -0.0539 -1.8633 -0.1739
  717MOL0     H94600   4.061   6.117   4.309 -1.1040 -0.2937 -3.1085
  717MOL0     H94601   4.064   6.290   4.272  3.2814 -1.1121  1.5850
  717MOL0     H94602   3.813   6.127   4.342  1.2735  0.2585  0.4642
  717MOL0     H94603   3.814   6.282   4.272 -0.8464 -0.5122  0.4993
  717MOL0     H94604   3.974   6.071   4.130 -0.4087 -2.7720  1.4271
  717MOL0     H94605   3.908   6.216   4.056 -0.9924 -2.4469 -2.0897
  717MOL0     H94606   3.554   5.891   4.088 -3.0952 -0.3562 -0.4748
  717MOL0     H94607   3.336   5.944   4.057  1.2056 -1.7186  4.6034
  717MOL0     H94608   3.019   6.382   4.182  1.8533 -1.6022  0.0692
  717MOL0     H94609   2.802   6.479   4.141  2.6496  0.8083  0.7439
  717MOL0     H94610   2.756   6.700   3.852 -1.1516 -0.3099 -1.1700
  717MOL0     H94611   2.763   6.668   4.019 -0.9357  1.0371  0.7750
  717MOL0     H94612   2.581   6.824   3.987 -2.4208  1.6840 -0.6220
  717MOL0     H94613   2.488   6.672   3.997 -1.2642  1.3151  0.0880
  717MOL0     H94614   2.521   6.659   3.752 -0.7442 -0.9014  0.8748
  717MOL0     H94615   2.574   6.833   3.753  0.6141  0.5802  0.2464
  717MOL0     H94616   2.379   6.909   3.856 -0.1402  0.1949  0.2652
  717MOL0     H94617   2.342   6.848   3.692 -1.3271  2.5959  1.3648
  717MOL0     H94618   2.286   6.700   3.947  1.6105 -1.0321 -2.1606
  717MOL0     H94619   2.255   6.632   3.791  1.7538 -0.2496 -1.6924
  717MOL0     H94620   2.135   6.900   3.879  2.3920 -0.4558  1.2539
  717MOL0     H94621   2.050   6.738   3.921 -2.4527  0.1737 -1.6498
  717MOL0     H94622   2.028   6.893   3.667  1.2235  0.6965  0.9579
  717MOL0     H94623   2.112   6.736   3.642  1.4056  0.7221  0.7816
  717MOL0     H94624   1.937   6.622   3.751  1.9717  1.2002  0.2884
  717MOL0     H94625   1.860   6.718   3.621  1.8672 -0.1767 -0.9769
  717MOL0     H94626   2.870   6.424   3.710  4.5635  2.1390 -1.3803
  717MOL0     H94627   3.081   6.351   3.753  1.6585 -0.5198  1.4994
  717MOL0     H94628   3.427   6.361   4.047 -1.4857 -1.0289 -1.0505
  717MOL0     H94629   3.671   6.311   4.068 -1.2998  1.9271 -2.2478
  717MOL0     H94630   5.324   6.231   4.309 -1.2658  1.1239  0.6308
  717MOL0     H94631   5.553   6.092   4.294 -0.8451 -1.3142  0.5563
  717MOL0     H94632   5.907   6.024   4.659  0.8812 -3.2617  1.0878
  717MOL0     H94633   6.143   6.020   4.741  1.0817  1.5757 -0.0798
  717MOL0     H94634   6.438   5.972   4.446 -0.9708 -3.8703  2.9999
  717MOL0     H94635   6.528   5.959   4.586  0.6728  1.4396  0.9637
  717MOL0     H94636   6.522   6.192   4.395 -0.6791 -1.5442 -0.3488
  717MOL0     H94637   6.465   6.248   4.548  1.4763  0.6549  2.4331
  717MOL0     H94638   6.721   6.271   4.489  2.4069 -1.3754 -0.3345
  717MOL0     H94639   6.740   6.100   4.491 -1.7262  0.6666 -1.5642
  717MOL0     H94640   6.640   6.264   4.732  0.0140  1.8088 -1.5371
  717MOL0     H94641   6.689   6.090   4.723  3.5305 -0.1616  0.7390
  717MOL0     H94642   7.069   6.289   4.715  0.8610 -2.5031  0.1618
  717MOL0     H94643   6.292   6.106   4.360  0.7119  0.5083  1.9897
  717MOL0     H94644   6.074   6.127   4.265 -1.7157 -0.1391  0.4651
  718MOL0     O94645   2.504   4.903   0.979  0.2209 -0.2890 -0.6326
  718MOL0     C94646   2.595   4.912   0.894  0.7740  0.0582 -0.7160
  718MOL0     O94647   2.582   4.959   0.767 -0.7646  0.0846  0.4605
  718MOL0     C94648   2.461   4.991   0.709 -0.1430 -0.6924 -0.7532
  718MOL0     C94649   2.340   4.927   0.727  1.2381 -0.1597 -0.0802
  718MOL0     C94650   2.227   4.961   0.641 -0.3134 -0.0513 -1.1514
  718MOL0     C94651   2.227   5.072   0.550 -0.1493 -0.4172 -0.1299
  718MOL0     O94652   2.116   5.101   0.471 -0.2384 -0.0009  0.5429
  718MOL0     C94653   1.995   5.154   0.532 -0.6811 -0.3449  1.0230
  718MOL0     C94654   1.882   5.052   0.550 -0.4058  0.2653  0.5652
  718MOL0     C94655   1.750   5.124   0.574 -0.0971 -0.4169 -0.1885
  718MOL0     C94656   1.620   5.043   0.567 -0.1926  0.0517 -0.3135
  718MOL0     C94657   1.506   5.123   0.634  0.2798 -1.2585  0.0006
  718MOL0     C94658   1.497   5.268   0.587  0.1387 -0.4139  0.1758
  718MOL0     C94659   1.364   5.334   0.624 -0.6961 -0.0080 -0.1475
  718MOL0     C94660   1.312   5.328   0.777  0.0817 -0.0399  0.3746
  718MOL0     N94661   1.167   5.369   0.787  0.1629  0.3986 -0.1393
  718MOL0     C94662   1.063   5.383   0.697 -1.0297  0.0854  0.7315
  718MOL0     C94663   0.949   5.377   0.769 -0.1680 -0.1997 -0.2968
  718MOL0     C94664   0.818   5.342   0.706 -0.2074 -0.3908 -0.5053
  718MOL0     C94665   0.711   5.453   0.729  0.1600  0.5336 -0.6298
  718MOL0     C94666   0.576   5.406   0.695 -0.3312 -0.4936  0.5906
  718MOL0     C94667   0.478   5.516   0.739  0.1475 -0.6389 -0.1940
  718MOL0     O94668   0.355   5.490   0.680  0.2620 -0.5701 -0.3627
  718MOL0     C94669   0.239   5.552   0.718 -0.8286  0.9346 -0.2303
  718MOL0     C94670   0.217   5.661   0.804 -0.6742  0.0365  0.0469
  718MOL0     C94671   0.089   5.705   0.836  0.7586 -0.7686 -0.6495
  718MOL0     C94672  -0.031   5.638   0.786 -0.0098 -0.8081  0.3041
  718MOL0     C94673  -0.170   5.680   0.813  0.5989  0.5039 -0.8337
  718MOL0     O94674  -0.264   5.593   0.777 -0.4620  0.5272  0.0331
  718MOL0     C94675  -0.393   5.628   0.805 -1.1230  0.4295 -0.6453
  718MOL0     C94676  -0.494   5.639   0.707  0.4851  0.8303 -0.2975
  718MOL0     C94677  -0.624   5.656   0.747 -0.4289 -0.6934  0.7669
  718MOL0     C94678  -0.653   5.688   0.879  0.3170 -0.0812  1.0624
  718MOL0     O94679  -0.786   5.715   0.906  0.5792  0.2594 -0.3090
  718MOL0     C94680  -0.835   5.756   1.039 -0.4506  0.1848  0.1390
  718MOL0     C94681  -0.984   5.756   1.029 -0.9656 -0.2127 -0.7508
  718MOL0     C94682  -1.066   5.628   1.044  0.2249  0.2321  0.3315
  718MOL0     C94683  -1.208   5.664   1.084 -0.8592  0.3893 -0.5807
  718MOL0     C94684  -1.291   5.536   1.076 -0.1315 -0.4031 -0.6101
  718MOL0     C94685  -1.416   5.568   1.150  1.3824  0.5279  0.6388
  718MOL0     C94686  -1.513   5.445   1.171  0.2433 -1.1301 -0.8993
  718MOL0     C94687  -1.593   5.402   1.051 -0.6399  0.1295  0.8787
  718MOL0    Cl94688  -1.524   5.264   0.981 -0.6791 -0.1638 -0.6947
  718MOL0     C94689  -0.563   5.682   0.972  0.2756 -0.5541  0.1457
  718MOL0     C94690  -0.434   5.644   0.938 -1.0109  0.3436 -0.1074
  718MOL0     O94691  -0.191   5.778   0.878  0.0851  0.2065 -0.0176
  718MOL0     C94692  -0.004   5.520   0.704  0.2754 -0.6134 -0.4660
  718MOL0     C94693   0.121   5.483   0.672 -0.2656 -0.3709  0.8363
  718MOL0     N94694   0.990   5.370   0.904  0.1035  0.5750 -0.0243
  718MOL0     N94695   1.118   5.362   0.911  0.0378  0.1230 -0.9117
  718MOL0     C94696   2.353   5.133   0.525 -0.2262 -0.8793  0.2499
  718MOL0     C94697   2.466   5.083   0.601 -0.5325 -0.7724  0.4868
  718MOL0     C94698   2.723   4.828   0.907  0.6767  0.3370 -0.5136
  718MOL0     C94699   2.735   4.729   1.007 -0.6575 -0.2656 -0.8622
  718MOL0     C94700   2.859   4.666   1.022  0.1694 -0.3143 -0.5263
  718MOL0     C94701   2.971   4.695   0.938 -0.1729  0.8887  0.2804
  718MOL0     O94702   3.092   4.622   0.932  0.4088 -0.3218  0.5998
  718MOL0     C94703   3.093   4.486   0.972  0.0635  0.3864 -0.4844
  718MOL0     C94704   3.010   4.380   0.901 -0.1381 -0.8808  0.6166
  718MOL0     C94705   3.063   4.351   0.756 -0.0490  0.7718  0.9903
  718MOL0     C94706   3.168   4.233   0.758 -0.6884  0.8217 -0.5298
  718MOL0     C94707   3.184   4.172   0.619 -0.5106 -0.5244 -0.5017
  718MOL0     C94708   3.203   4.126   0.512 -1.1088 -0.0206 -0.9167
  718MOL0     C94709   2.953   4.787   0.847 -0.7383 -0.3650 -0.0016
  718MOL0     C94710   2.834   4.856   0.830 -0.6828 -0.0053 -0.3221
  718MOL0     H94711   2.329   4.857   0.809  0.4229  2.2047  1.9430
  718MOL0     H94712   2.143   4.892   0.653 -1.0668  0.3705 -3.4726
  718MOL0     H94713   1.957   5.234   0.469  2.6464  0.9650  0.4771
  718MOL0     H94714   2.023   5.209   0.622 -0.2655  1.8023 -0.3565
  718MOL0     H94715   1.902   4.988   0.637 -1.1009 -1.9014 -0.7771
  718MOL0     H94716   1.869   4.989   0.461 -1.5429  0.6931  0.4067
  718MOL0     H94717   1.741   5.214   0.513  0.7758  0.6206  1.1498
  718MOL0     H94718   1.758   5.157   0.678  3.4064 -0.3519 -0.3804
  718MOL0     H94719   1.599   5.024   0.461  3.4146 -0.8110 -1.0104
  718MOL0     H94720   1.625   4.939   0.600  2.5665  0.5123  1.0728
  718MOL0     H94721   1.523   5.130   0.741 -1.4392  1.5006  0.1836
  718MOL0     H94722   1.410   5.073   0.615  0.3710 -1.0664 -1.0218
  718MOL0     H94723   1.494   5.260   0.477  0.9454  1.2083  0.0118
  718MOL0     H94724   1.583   5.330   0.613  1.2452 -1.1926 -1.4269
  718MOL0     H94725   1.381   5.434   0.583 -0.3478 -0.6606 -1.6622
  718MOL0     H94726   1.290   5.287   0.559 -0.4231  0.0003 -0.4638
  718MOL0     H94727   1.358   5.408   0.836 -1.2823  0.0629  1.3374
  718MOL0     H94728   1.332   5.230   0.823 -2.5735 -1.9245 -2.1484
  718MOL0     H94729   1.072   5.387   0.589 -3.2833  0.3685  0.4916
  718MOL0     H94730   0.790   5.243   0.741 -0.6865  0.5689  1.9892
  718MOL0     H94731   0.822   5.342   0.596 -3.2321  1.8612 -0.7380
  718MOL0     H94732   0.742   5.543   0.675  1.4526  0.2417 -0.3846
  718MOL0     H94733   0.705   5.458   0.838 -4.2438 -1.4092 -0.5424
  718MOL0     H94734   0.556   5.391   0.588 -1.8910  0.0794  0.7757
  718MOL0     H94735   0.535   5.322   0.752  0.0189  0.4484  2.2961
  718MOL0     H94736   0.520   5.615   0.715 -4.4003  1.4295 -0.5712
  718MOL0     H94737   0.465   5.512   0.847 -0.5828  1.6357 -0.1429
  718MOL0     H94738   0.303   5.712   0.847 -0.0381  1.1024 -2.3266
  718MOL0     H94739   0.083   5.794   0.898  0.0563 -1.2809  0.0345
  718MOL0     H94740  -0.465   5.610   0.606 -0.4558  0.1066 -0.3654
  718MOL0     H94741  -0.700   5.646   0.671  0.1956  1.3581 -0.2093
  718MOL0     H94742  -0.792   5.855   1.058 -2.5856  1.2905 -0.4371
  718MOL0     H94743  -0.803   5.687   1.117 -1.7064 -1.2380 -0.5554
  718MOL0     H94744  -0.998   5.793   0.926 -1.1420 -1.3931 -1.1604
  718MOL0     H94745  -1.016   5.825   1.108  0.6509 -1.3553  0.9684
  718MOL0     H94746  -1.016   5.574   1.125  0.7807  1.1572  0.6237
  718MOL0     H94747  -1.068   5.572   0.950  0.6642  0.6876  0.0447
  718MOL0     H94748  -1.201   5.700   1.187  3.3420  1.7264 -1.1325
  718MOL0     H94749  -1.250   5.739   1.016  0.9010 -0.6622 -2.9753
  718MOL0     H94750  -1.230   5.460   1.126 -1.0476 -0.5867  0.2728
  718MOL0     H94751  -1.310   5.507   0.972  1.5825 -0.6609 -0.8798
  718MOL0     H94752  -1.465   5.640   1.085 -0.8801 -0.9870  0.5644
  718MOL0     H94753  -1.398   5.621   1.244  0.3725  0.0409  1.1216
  718MOL0     H94754  -1.455   5.362   1.212 -0.5475  0.1843  3.3405
  718MOL0     H94755  -1.583   5.481   1.246  0.0914  2.5628 -2.5549
  718MOL0     H94756  -1.618   5.486   0.986 -2.7737 -0.2934  1.0640
  718MOL0     H94757  -1.687   5.374   1.100  0.0710  0.3407  2.4017
  718MOL0     H94758  -0.583   5.687   1.078 -1.7616 -2.2867 -0.0943
  718MOL0     H94759  -0.358   5.624   1.013 -2.0354 -0.9486  0.6041
  718MOL0     H94760  -0.086   5.476   0.648 -1.8011  2.6914 -0.2903
  718MOL0     H94761   0.133   5.390   0.617  1.8891 -0.5468  1.5395
  718MOL0     H94762   2.371   5.199   0.441  1.2361 -0.8010  0.5906
  718MOL0     H94763   2.564   5.114   0.566 -1.0761 -2.0664 -2.4159
  718MOL0     H94764   2.648   4.703   1.066  0.6960  0.5400  1.6358
  718MOL0     H94765   2.876   4.597   1.103 -0.4171 -0.4716 -0.5315
  718MOL0     H94766   3.076   4.490   1.080  0.8673 -0.0441 -0.3414
  718MOL0     H94767   3.198   4.457   0.966  0.4832  1.7318 -0.1113
  718MOL0     H94768   3.002   4.286   0.955 -0.0049 -2.0913 -1.3554
  718MOL0     H94769   2.913   4.422   0.873  0.8890  1.7137  0.6276
  718MOL0     H94770   3.103   4.441   0.707 -1.8597  0.1004 -1.9426
  718MOL0     H94771   2.978   4.313   0.700  0.1442 -0.2837  1.3972
  718MOL0     H94772   3.266   4.265   0.796 -1.2234  1.1418  0.6415
  718MOL0     H94773   3.139   4.163   0.836  0.4187  0.5080 -0.3778
  718MOL0     H94774   3.224   4.101   0.410  0.9419  0.0793 -0.5639
  718MOL0     H94775   3.044   4.807   0.791  0.1061 -0.0419  1.4336
  718MOL0     H94776   2.836   4.935   0.755  1.5860 -0.2837 -0.6130
  719MOL0     O94777   1.473   7.156   6.979  0.6604  0.0293 -0.6682
  719MOL0     C94778   1.497   7.108   6.870 -0.4083  0.0841  0.0942
  719MOL0     O94779   1.414   7.088   6.770  0.3516  0.5117  0.5926
  719MOL0     C94780   1.274   7.089   6.801 -0.3237  1.0487  0.0004
  719MOL0     C94781   1.220   7.204   6.861  0.1264  0.6112 -0.2130
  719MOL0     C94782   1.077   7.214   6.869 -0.3686 -0.0472 -0.6324
  719MOL0     C94783   0.997   7.113   6.810  0.1243 -0.6687 -0.9517
  719MOL0     O94784   0.861   7.114   6.818 -0.3311  0.0938  0.8231
  719MOL0     C94785   0.792   7.238   6.850 -0.1570  0.1502  0.2499
  719MOL0     C94786   0.645   7.213   6.821  0.0838 -0.2560  0.7301
  719MOL0     C94787   0.554   7.319   6.878 -0.0204 -0.6265  0.9087
  719MOL0     C94788   0.462   7.283   7.002 -0.0773  0.1896 -0.2254
  719MOL0     C94789   0.381   7.407   7.054 -0.4098 -0.2541  0.5209
  719MOL0     C94790   0.284   7.372   7.168  0.2583 -0.2141 -0.0042
  719MOL0     C94791   0.182   7.481   7.184 -0.0232 -0.9002 -0.3026
  719MOL0     C94792   0.119   7.463   7.315  0.1246 -1.2485  0.2279
  719MOL0     N94793   0.007   7.559   7.325  0.1476 -0.1078 -0.6235
  719MOL0     C94794   0.009   7.703   7.314  0.0458 -0.2895 -0.9798
  719MOL0     C94795  -0.121   7.737   7.328 -0.3654 -0.2642  0.4153
  719MOL0     C94796  -0.189   7.874   7.337 -0.0733 -0.4056  0.1302
  719MOL0     C94797  -0.324   7.880   7.418  0.5163  0.4676 -1.2223
  719MOL0     C94798  -0.350   8.022   7.433  0.2198 -0.6434 -0.3204
  719MOL0     C94799  -0.492   8.047   7.491 -0.1901 -0.6368 -0.2560
  719MOL0     O94800  -0.518   7.984   7.618  0.1855  0.4440 -0.3080
  719MOL0     C94801  -0.654   7.979   7.656 -0.3259 -0.2991 -0.6210
  719MOL0     C94802  -0.689   7.919   7.779  0.0164  0.2962  0.6582
  719MOL0     C94803  -0.825   7.892   7.816 -0.1914  0.2728  0.0470
  719MOL0     C94804  -0.935   7.928   7.722 -0.1143  0.0795 -0.2156
  719MOL0     C94805  -1.072   7.876   7.745 -0.3333 -0.3088  1.0358
  719MOL0     O94806  -1.091   7.753   7.813  0.0412  0.2731  0.7198
  719MOL0     C94807  -1.217   7.703   7.849 -0.2469  0.5905 -0.6826
  719MOL0     C94808  -1.297   7.753   7.954 -0.1395  0.5017  0.3273
  719MOL0     C94809  -1.422   7.702   7.983 -0.4241 -0.1231 -0.1493
  719MOL0     C94810  -1.473   7.600   7.902 -0.4311  0.7482 -0.9101
  719MOL0     O94811  -1.598   7.551   7.935 -0.2255  0.1796  0.2973
  719MOL0     C94812  -1.674   7.468   7.841  0.1991  0.0786 -0.5063
  719MOL0     C94813  -1.705   7.554   7.728 -1.1914  0.0052  0.4221
  719MOL0     C94814  -1.830   7.499   7.658  0.4652  0.7313  0.2545
  719MOL0     C94815  -1.885   7.578   7.544 -0.7696 -0.4286  0.3414
  719MOL0     C94816  -1.996   7.497   7.473 -1.2441 -0.2510 -0.3778
  719MOL0     C94817  -2.129   7.489   7.552  0.3362 -0.3595  0.4733
  719MOL0     C94818  -2.251   7.480   7.461  0.0625 -0.1440 -0.6890
  719MOL0     C94819  -2.381   7.536   7.531  0.5641 -0.3927 -0.1775
  719MOL0    Cl94820  -2.522   7.480   7.436 -0.0451  0.0947 -0.3059
  719MOL0     C94821  -1.394   7.548   7.796  0.4192  0.9915  0.1817
  719MOL0     C94822  -1.263   7.590   7.777  0.7490 -0.6300  0.6269
  719MOL0     O94823  -1.163   7.942   7.705  0.4822  0.3298  0.0523
  719MOL0     C94824  -0.897   7.995   7.607 -1.2419  0.1006  0.0226
  719MOL0     C94825  -0.758   8.029   7.575 -0.0880  0.1825  0.3465
  719MOL0     N94826  -0.198   7.626   7.357 -0.7801  0.0286  0.0136
  719MOL0     N94827  -0.124   7.524   7.351 -0.8146 -0.1904 -0.7649
  719MOL0     C94828   1.057   7.006   6.741  0.5762  0.3241 -0.2712
  719MOL0     C94829   1.198   6.993   6.735  0.4170  0.4676  1.3482
  719MOL0     C94830   1.638   7.094   6.832 -0.3459  0.1807 -0.4250
  719MOL0     C94831   1.739   7.125   6.928 -0.7243  0.3542 -0.1233
  719MOL0     C94832   1.872   7.113   6.899  0.1605 -0.1080 -0.2070
  719MOL0     C94833   1.918   7.058   6.781 -0.8030 -0.2527  0.1092
  719MOL0     O94834   2.050   7.039   6.746 -0.7467  0.8775  0.1964
  719MOL0     C94835   2.129   7.155   6.749  0.1280  0.2861  0.7142
  719MOL0     C94836   2.276   7.139   6.697  1.3221 -0.1676  0.5137
  719MOL0     C94837   2.280   7.166   6.551  0.3550  0.4711  0.7999
  719MOL0     C94838   2.415   7.124   6.487  0.1673  0.5561 -0.1374
  719MOL0     C94839   2.534   7.167   6.566 -0.1150 -0.0722  0.3869
  719MOL0     C94840   2.630   7.199   6.635  0.4589 -0.5437  0.5809
  719MOL0     C94841   1.823   7.025   6.688 -0.1938  0.6102 -0.0458
  719MOL0     C94842   1.690   7.055   6.707 -0.0982  0.1615  0.4910
  719MOL0     H94843   1.287   7.278   6.904  1.8255 -1.2605  0.4806
  719MOL0     H94844   1.034   7.296   6.925 -1.9294 -0.8537 -0.6060
  719MOL0     H94845   0.832   7.319   6.788  1.5876  1.0603  2.3978
  719MOL0     H94846   0.797   7.260   6.957 -3.5323 -5.2740  1.9080
  719MOL0     H94847   0.626   7.114   6.864  2.3368 -0.5335  1.1997
  719MOL0     H94848   0.630   7.217   6.712 -1.7897 -1.1931  0.9151
  719MOL0     H94849   0.484   7.353   6.801 -1.3822  2.1311  3.1508
  719MOL0     H94850   0.608   7.412   6.900 -2.1483  1.3662 -1.6437
  719MOL0     H94851   0.385   7.211   6.977 -2.3309  3.0268 -2.1121
  719MOL0     H94852   0.515   7.230   7.082 -1.5645 -1.2963 -0.1860
  719MOL0     H94853   0.330   7.464   6.975 -0.2318 -1.3281 -0.3960
  719MOL0     H94854   0.447   7.483   7.097 -2.7971  1.2658  1.6884
  719MOL0     H94855   0.334   7.362   7.264  2.0672 -2.1657 -1.0926
  719MOL0     H94856   0.229   7.282   7.140  0.0022 -0.3018  0.7706
  719MOL0     H94857   0.242   7.572   7.176  2.3605 -2.2148  1.5467
  719MOL0     H94858   0.104   7.478   7.107  0.2634  2.4782 -0.9264
  719MOL0     H94859   0.187   7.478   7.400 -0.5956 -2.9001  1.1607
  719MOL0     H94860   0.094   7.357   7.329  1.6386 -1.4572  1.6473
  719MOL0     H94861   0.095   7.769   7.306 -2.0717  2.7616 -0.3301
  719MOL0     H94862  -0.216   7.893   7.232 -1.6983 -1.5911  0.2961
  719MOL0     H94863  -0.119   7.951   7.372 -0.1751  1.0435 -2.5687
  719MOL0     H94864  -0.314   7.831   7.516 -0.8362 -1.4638 -1.9828
  719MOL0     H94865  -0.402   7.827   7.363  1.4385 -0.8145 -1.3411
  719MOL0     H94866  -0.275   8.078   7.489  3.2188 -0.6925 -3.8982
  719MOL0     H94867  -0.350   8.072   7.335  2.4179  1.4384  0.6497
  719MOL0     H94868  -0.552   8.010   7.407 -0.1174 -0.4851 -0.3775
  719MOL0     H94869  -0.510   8.154   7.510 -0.4270 -1.0334  1.9502
  719MOL0     H94870  -0.611   7.879   7.842  0.2380 -2.7058 -1.3357
  719MOL0     H94871  -0.854   7.827   7.897 -0.9402  0.8348  0.2412
  719MOL0     H94872  -1.263   7.839   8.012  3.4086  0.3416 -1.2370
  719MOL0     H94873  -1.469   7.737   8.074 -2.2133 -1.1221 -0.6509
  719MOL0     H94874  -1.762   7.439   7.899  0.0738 -3.1923 -2.1196
  719MOL0     H94875  -1.618   7.375   7.827  0.3928 -0.1435  1.5208
  719MOL0     H94876  -1.620   7.555   7.659 -2.8101  0.3147 -1.6587
  719MOL0     H94877  -1.732   7.655   7.761 -1.6639  0.6467 -1.7384
  719MOL0     H94878  -1.920   7.485   7.719  0.3316 -1.2597 -0.3150
  719MOL0     H94879  -1.790   7.403   7.623 -0.4547 -0.0180  1.2084
  719MOL0     H94880  -1.925   7.673   7.581 -0.5715 -0.1868 -0.0550
  719MOL0     H94881  -1.793   7.601   7.489 -1.1740  1.5826  0.4250
  719MOL0     H94882  -1.972   7.393   7.451 -1.2892 -0.1970 -0.6927
  719MOL0     H94883  -2.009   7.551   7.378  0.7418  1.3660  0.1936
  719MOL0     H94884  -2.133   7.577   7.619  3.4157  1.0033 -0.9084
  719MOL0     H94885  -2.141   7.400   7.615 -1.9769  1.0286  2.1788
  719MOL0     H94886  -2.239   7.557   7.385 -1.9085  1.5546  0.6187
  719MOL0     H94887  -2.269   7.375   7.433 -0.8260 -0.6881  1.6674
  719MOL0     H94888  -2.377   7.645   7.534 -0.4498 -0.3319 -0.7192
  719MOL0     H94889  -2.395   7.505   7.635  0.8982  1.4190  0.4374
  719MOL0     H94890  -1.426   7.456   7.750  3.6110  0.0147 -0.3432
  719MOL0     H94891  -1.208   7.551   7.692  1.4617  1.0470  0.2780
  719MOL0     H94892  -0.975   8.019   7.534 -1.5814 -2.0265 -0.3614
  719MOL0     H94893  -0.730   8.087   7.488  3.5345 -2.6790 -0.6453
  719MOL0     H94894   0.993   6.943   6.681  0.7389 -0.2035  0.0974
  719MOL0     H94895   1.251   6.919   6.675  2.9677  1.6758  1.9676
  719MOL0     H94896   1.711   7.184   7.015  0.0301  0.6584 -0.0882
  719MOL0     H94897   1.947   7.152   6.968 -0.5021  1.1162 -0.1523
  719MOL0     H94898   2.125   7.202   6.848 -0.0872  1.6402  0.0857
  719MOL0     H94899   2.075   7.240   6.706 -1.4494 -1.0427 -0.0447
  719MOL0     H94900   2.323   7.224   6.747 -0.2145  0.5082  0.8456
  719MOL0     H94901   2.309   7.043   6.738  1.0479  0.0817  1.3190
  719MOL0     H94902   2.274   7.273   6.529  2.5691  0.5393  0.3069
  719MOL0     H94903   2.198   7.121   6.494  2.3610 -0.3260 -1.5988
  719MOL0     H94904   2.422   7.015   6.498 -0.6083  0.5541  0.4258
  719MOL0     H94905   2.425   7.153   6.382  2.5243 -1.1214 -0.4487
  719MOL0     H94906   2.711   7.223   6.702  1.5306  1.2029 -1.2108
  719MOL0     H94907   1.859   6.971   6.601  1.9696 -1.5225  2.0363
  719MOL0     H94908   1.612   7.039   6.633  0.5895  0.4260 -0.3062
  720MOL0     O94909   5.256   0.233   6.363  0.2134 -0.0032  0.5229
  720MOL0     C94910   5.340   0.178   6.295  0.0350  0.5047 -0.5898
  720MOL0     O94911   5.346   0.160   6.162  0.0598 -0.6048  0.3535
  720MOL0     C94912   5.229   0.201   6.098  0.3559  0.2899 -0.3801
  720MOL0     C94913   5.235   0.269   5.975  0.6159  0.3225  0.2849
  720MOL0     C94914   5.112   0.315   5.914 -0.7749 -0.4006  0.3269
  720MOL0     C94915   4.982   0.299   5.967 -0.2970  0.0092  0.5322
  720MOL0     O94916   4.878   0.373   5.903 -0.6387 -0.7428  0.4565
  720MOL0     C94917   4.770   0.421   5.982  1.2960 -0.0775  0.3452
  720MOL0     C94918   4.664   0.305   5.981 -0.0861 -0.9919 -0.0361
  720MOL0     C94919   4.532   0.342   5.908 -0.8576  0.2077 -0.5372
  720MOL0     C94920   4.433   0.232   5.927  0.1711  0.3220 -0.3032
  720MOL0     C94921   4.334   0.234   5.809 -0.0480  0.5710 -0.2074
  720MOL0     C94922   4.218   0.133   5.815  0.6969 -0.3764  0.2696
  720MOL0     C94923   4.138   0.133   5.685 -0.4871  0.0983  0.5422
  720MOL0     C94924   4.202   0.033   5.584 -0.5819  0.7065  1.3362
  720MOL0     N94925   4.107   0.019   5.467 -0.6805 -0.0289 -0.7902
  720MOL0     C94926   3.992  -0.049   5.462  0.5700  0.4605 -0.4168
  720MOL0     C94927   3.933  -0.026   5.349  0.1210  0.5172  0.2649
  720MOL0     C94928   3.801  -0.062   5.302 -0.5769  0.3744  0.6634
  720MOL0     C94929   3.698   0.023   5.393 -0.9196  0.6857 -0.6909
  720MOL0     C94930   3.556   0.006   5.342 -0.4360  0.4876 -0.5284
  720MOL0     C94931   3.459   0.074   5.429  0.0419 -0.8270  0.0421
  720MOL0     O94932   3.326   0.055   5.371  0.6657 -0.2172 -0.1488
  720MOL0     C94933   3.236   0.159   5.397  0.3627  0.2194  0.7567
  720MOL0     C94934   3.145   0.194   5.295  0.2465  0.0775  0.8288
  720MOL0     C94935   3.033   0.272   5.327  0.2621 -0.3278  0.5945
  720MOL0     C94936   3.007   0.322   5.456 -0.2852 -0.3439 -0.3524
  720MOL0     C94937   2.891   0.400   5.484 -0.4817  0.0968  0.3217
  720MOL0     O94938   2.806   0.424   5.374 -0.2244  0.6718 -0.2418
  720MOL0     C94939   2.689   0.505   5.384  0.2449 -0.7462  0.4512
  720MOL0     C94940   2.605   0.525   5.493 -0.2213  0.1978  0.1054
  720MOL0     C94941   2.488   0.602   5.484  0.2233  0.4219  0.2454
  720MOL0     C94942   2.455   0.662   5.355 -0.2412  0.3605  0.3543
  720MOL0     O94943   2.354   0.753   5.326 -0.1972 -0.2644  0.4177
  720MOL0     C94944   2.293   0.818   5.436 -0.2028 -0.5561 -0.0915
  720MOL0     C94945   2.181   0.904   5.384 -0.3012 -0.1486  0.1515
  720MOL0     C94946   2.226   1.004   5.273 -0.8859  0.1949 -0.1834
  720MOL0     C94947   2.107   1.090   5.225 -0.1674 -0.5158 -0.5278
  720MOL0     C94948   2.151   1.192   5.111 -0.8445 -1.0040 -0.2518
  720MOL0     C94949   2.017   1.242   5.038 -0.3203 -0.2849  1.3240
  720MOL0     C94950   2.041   1.308   4.905  0.3474 -0.3535  0.2779
  720MOL0     C94951   2.126   1.434   4.911  0.9001 -0.2535 -0.6350
  720MOL0    Cl94952   2.048   1.555   5.022  0.0295  0.1138  0.0921
  720MOL0     C94953   2.533   0.624   5.244  1.1149 -0.7890  0.0932
  720MOL0     C94954   2.648   0.551   5.260 -0.1262  0.0261 -0.5543
  720MOL0     O94955   2.872   0.442   5.595  0.2237  0.0981 -0.3245
  720MOL0     C94956   3.101   0.298   5.551 -0.0130  0.4804 -0.1100
  720MOL0     C94957   3.218   0.221   5.522 -0.3371 -1.1132  0.0064
  720MOL0     N94958   4.002   0.058   5.275  0.5797  0.1712  0.1092
  720MOL0     N94959   4.113   0.081   5.342  0.4071 -0.5084 -0.2835
  720MOL0     C94960   4.979   0.222   6.080  1.0379 -0.1203 -0.8185
  720MOL0     C94961   5.098   0.177   6.146 -0.5666 -1.0386  0.3874
  720MOL0     C94962   5.452   0.119   6.371 -0.7352  0.1262 -0.0787
  720MOL0     C94963   5.460   0.125   6.514 -0.8845 -1.2048  0.0190
  720MOL0     C94964   5.576   0.086   6.583  0.1105  0.7637  0.4249
  720MOL0     C94965   5.677   0.023   6.512 -0.4342 -0.5246  0.3850
  720MOL0     O94966   5.799   0.001   6.578 -0.4603 -0.3263 -0.3126
  720MOL0     C94967   5.857   0.091   6.672  0.3966  0.0793 -0.4440
  720MOL0     C94968   5.947   0.207   6.615  0.1384 -0.2664 -0.0471
  720MOL0     C94969   5.915   0.344   6.674 -0.8617 -0.1202 -0.1951
  720MOL0     C94970   5.982   0.451   6.595  0.2167 -0.6164  0.1910
  720MOL0     C94971   6.125   0.421   6.570  0.9162 -0.4386 -1.0649
  720MOL0     C94972   6.241   0.410   6.545  0.2227 -0.7615  0.1041
  720MOL0     C94973   5.658  -0.008   6.378  0.8164 -1.1635 -0.1703
  720MOL0     C94974   5.552   0.047   6.312  0.1352  0.6448  0.0062
  720MOL0     H94975   5.336   0.292   5.942  0.5652 -0.5904 -0.5452
  720MOL0     H94976   5.107   0.371   5.820 -0.6848 -1.6639 -0.4486
  720MOL0     H94977   4.738   0.518   5.943  1.2393 -0.8818 -1.7206
  720MOL0     H94978   4.795   0.442   6.086  0.1651  1.6455  0.2970
  720MOL0     H94979   4.638   0.267   6.081 -3.4467 -0.2664 -0.4953
  720MOL0     H94980   4.712   0.221   5.930 -2.0178 -1.6758 -0.8210
  720MOL0     H94981   4.541   0.358   5.801 -2.6569  2.1012 -0.4692
  720MOL0     H94982   4.493   0.435   5.950 -2.0276 -0.6714  0.4048
  720MOL0     H94983   4.493   0.142   5.909 -1.1256 -0.0816 -3.2513
  720MOL0     H94984   4.378   0.245   6.020 -0.6319  1.9288 -0.9757
  720MOL0     H94985   4.385   0.210   5.715 -3.0254 -0.9331 -1.5509
  720MOL0     H94986   4.292   0.335   5.810  0.5091  0.8316 -1.5336
  720MOL0     H94987   4.137   0.158   5.885 -0.1793 -1.7541 -0.2166
  720MOL0     H94988   4.247   0.030   5.835  0.5170 -0.3798  0.5232
  720MOL0     H94989   4.038   0.097   5.710 -0.6185 -0.8665 -1.1768
  720MOL0     H94990   4.117   0.230   5.639 -0.9356 -0.0351  0.4603
  720MOL0     H94991   4.209  -0.061   5.640 -1.3513  0.8462  1.6738
  720MOL0     H94992   4.299   0.072   5.551 -1.0438  0.6826 -0.1201
  720MOL0     H94993   3.953  -0.104   5.547 -0.0355 -0.2275 -1.1288
  720MOL0     H94994   3.779  -0.167   5.322 -0.4993 -0.1253 -1.5887
  720MOL0     H94995   3.799  -0.049   5.193  0.5121  0.0994  0.5964
  720MOL0     H94996   3.722   0.130   5.396  1.1453  0.2623 -0.7802
  720MOL0     H94997   3.704  -0.013   5.496  2.0471  1.1683 -0.5970
  720MOL0     H94998   3.540   0.049   5.243  0.8415 -0.5330 -1.2041
  720MOL0     H94999   3.525  -0.099   5.344 -0.8355  0.5939  2.1309
  720MOL0     H95000   3.494   0.177   5.439  2.2641 -1.6299  1.0797
  720MOL0     H95001   3.462   0.030   5.529  0.1689 -1.0728 -0.0690
  720MOL0     H95002   3.158   0.171   5.189  0.2170  0.1463  0.8102
  720MOL0     H95003   2.956   0.289   5.252  1.8197 -1.9602 -1.5081
  720MOL0     H95004   2.630   0.469   5.583  2.5412 -1.5872 -1.6121
  720MOL0     H95005   2.420   0.619   5.567 -1.6954  1.5967 -1.4817
  720MOL0     H95006   2.379   0.866   5.485 -0.0446  2.2811 -2.8149
  720MOL0     H95007   2.250   0.743   5.503 -0.7578  0.4575  0.7083
  720MOL0     H95008   2.123   0.966   5.453  0.4439  3.1712 -1.9711
  720MOL0     H95009   2.112   0.836   5.333 -0.7531 -1.4261  2.3288
  720MOL0     H95010   2.255   0.952   5.181 -0.7567  0.5301 -0.3360
  720MOL0     H95011   2.316   1.057   5.305  2.2253 -3.3473 -2.2175
  720MOL0     H95012   2.014   1.035   5.206 -1.3161  1.1383  0.1030
  720MOL0     H95013   2.084   1.158   5.307  1.4034 -1.2708  0.5930
  720MOL0     H95014   2.218   1.141   5.040  0.0900 -2.7365  1.7906
  720MOL0     H95015   2.211   1.277   5.147 -2.7778 -0.7040  2.5541
  720MOL0     H95016   1.953   1.316   5.087  0.3085  2.1370 -1.2788
  720MOL0     H95017   1.970   1.144   5.025  0.7663 -1.0683  2.9117
  720MOL0     H95018   2.093   1.239   4.836  1.0724  2.3263 -2.0403
  720MOL0     H95019   1.944   1.338   4.865  0.9388  2.7847  0.9348
  720MOL0     H95020   2.148   1.486   4.817 -1.0843  2.6894  0.3591
  720MOL0     H95021   2.216   1.401   4.964 -0.9556 -2.3660  1.3781
  720MOL0     H95022   2.507   0.656   5.144  1.2930  0.9741  0.5774
  720MOL0     H95023   2.711   0.534   5.174 -0.5515 -1.2990 -0.6181
  720MOL0     H95024   3.101   0.331   5.654  2.4581 -0.3202  0.2131
  720MOL0     H95025   3.276   0.190   5.608  1.6675  2.3103  0.0405
  720MOL0     H95026   4.888   0.196   6.134 -0.0673  2.7649 -1.1392
  720MOL0     H95027   5.080   0.112   6.231  0.0604 -1.2124  0.3964
  720MOL0     H95028   5.389   0.180   6.574 -1.2719 -0.8285 -0.7752
  720MOL0     H95029   5.584   0.095   6.691  3.7520 -1.9497  0.5514
  720MOL0     H95030   5.921   0.021   6.726 -1.9768 -3.6240 -2.0394
  720MOL0     H95031   5.786   0.128   6.747  1.1467  0.0173  0.3124
  720MOL0     H95032   6.052   0.187   6.638  1.5505  4.0064 -1.7555
  720MOL0     H95033   5.933   0.215   6.507 -2.5661  2.3693  0.3881
  720MOL0     H95034   5.944   0.343   6.779  1.9249  3.8415 -0.7001
  720MOL0     H95035   5.809   0.367   6.661 -0.6825 -0.2851 -2.3054
  720MOL0     H95036   5.937   0.453   6.495 -0.6524 -1.4373  0.5517
  720MOL0     H95037   5.966   0.549   6.642 -0.8481 -1.2660  1.2027
  720MOL0     H95038   6.346   0.399   6.526  0.6420  0.6552  1.3575
  720MOL0     H95039   5.732  -0.058   6.316  0.3090 -3.0477  0.6503
  720MOL0     H95040   5.550   0.032   6.204  0.7388 -2.3905  0.3163
  721MOL0     O95041  10.700   3.243   7.541  0.3175  0.3508 -0.6219
  721MOL0     C95042  10.746   3.130   7.543 -0.7063  0.2381 -1.0741
  721MOL0     O95043  10.683   3.013   7.537  0.0602  0.5763 -0.3248
  721MOL0     C95044  10.550   2.990   7.524  0.2807 -0.3575  0.6369
  721MOL0     C95045  10.499   2.925   7.407  0.6795  0.8019  0.4531
  721MOL0     C95046  10.364   2.886   7.401 -0.1051 -0.1052 -0.8857
  721MOL0     C95047  10.266   2.933   7.495 -1.0129 -0.1235  0.4812
  721MOL0     O95048  10.137   2.888   7.477 -0.1831  0.4363 -0.3004
  721MOL0     C95049  10.041   2.976   7.529 -0.0278  0.7231 -0.1370
  721MOL0     C95050  10.054   3.129   7.506  0.2767  0.0933 -0.3279
  721MOL0     C95051   9.906   3.188   7.508 -0.3800 -0.5415 -0.9231
  721MOL0     C95052   9.842   3.179   7.651 -0.1764  0.0904 -0.4984
  721MOL0     C95053   9.695   3.145   7.651  0.7072  0.7458  1.1783
  721MOL0     C95054   9.609   3.250   7.573  0.2190  0.2364 -0.5839
  721MOL0     C95055   9.642   3.409   7.609 -0.8095  0.6010 -0.7294
  721MOL0     C95056   9.641   3.449   7.761 -0.7791 -0.5907 -0.0478
  721MOL0     N95057   9.678   3.591   7.777 -0.4906  0.1859 -0.4976
  721MOL0     C95058   9.602   3.696   7.759  0.0967 -0.1342 -1.0209
  721MOL0     C95059   9.669   3.797   7.824 -0.6245 -0.0489 -0.1682
  721MOL0     C95060   9.593   3.918   7.867  0.0632  0.3905 -0.6881
  721MOL0     C95061   9.500   3.903   7.992  0.9110  0.4104  0.3649
  721MOL0     C95062   9.396   3.792   7.977  0.0984  0.8787 -0.0648
  721MOL0     C95063   9.292   3.791   8.093 -0.2631 -1.2164  0.3585
  721MOL0     O95064   9.188   3.685   8.078 -0.1093  0.0038 -0.1506
  721MOL0     C95065   9.065   3.722   8.033 -0.0198 -0.3678 -0.5907
  721MOL0     C95066   8.980   3.610   8.027  0.2590  0.3659 -1.1099
  721MOL0     C95067   8.845   3.625   7.991 -0.4539 -0.5831  0.0913
  721MOL0     C95068   8.798   3.746   7.944 -0.3166  0.1289 -0.1739
  721MOL0     C95069   8.663   3.781   7.901  1.2060  0.4516 -1.1171
  721MOL0     O95070   8.595   3.667   7.877  0.0220  0.3840  0.4270
  721MOL0     C95071   8.470   3.660   7.828  0.0649 -0.1663  0.2532
  721MOL0     C95072   8.389   3.557   7.890  0.8672 -0.0657 -0.3202
  721MOL0     C95073   8.248   3.576   7.870  0.2812 -0.6133 -0.6495
  721MOL0     C95074   8.200   3.676   7.783 -0.0294  0.3322  0.2096
  721MOL0     O95075   8.059   3.696   7.772  0.5942 -0.2689 -0.4506
  721MOL0     C95076   7.993   3.805   7.702 -0.9888  0.1736 -0.4248
  721MOL0     C95077   7.840   3.800   7.709 -0.3192  1.1445  0.7272
  721MOL0     C95078   7.798   3.671   7.630 -0.1684 -0.0073 -1.1340
  721MOL0     C95079   7.646   3.660   7.633  0.7389  0.3401 -0.6029
  721MOL0     C95080   7.592   3.559   7.519  0.8983 -0.1907  0.3052
  721MOL0     C95081   7.449   3.579   7.491 -0.5780 -0.2376  0.0085
  721MOL0     C95082   7.416   3.475   7.387  0.4193 -0.6252 -0.5122
  721MOL0     C95083   7.265   3.469   7.394 -0.1593  0.0602 -0.1262
  721MOL0    Cl95084   7.186   3.623   7.325 -0.0247  0.0630 -0.1871
  721MOL0     C95085   8.285   3.763   7.718 -0.2677  0.6625 -0.8595
  721MOL0     C95086   8.422   3.756   7.736 -0.9150  0.7190 -0.3780
  721MOL0     O95087   8.616   3.899   7.915  0.0566  0.9086  0.0572
  721MOL0     C95088   8.888   3.848   7.940  0.1941  0.0336  0.7151
  721MOL0     C95089   9.018   3.843   7.977 -0.7280  0.9576 -0.8077
  721MOL0     N95090   9.791   3.752   7.856  0.5691 -0.5164 -0.7976
  721MOL0     N95091   9.800   3.630   7.826  1.3341  0.8894 -0.1496
  721MOL0     C95092  10.321   3.002   7.602 -0.0442  0.5132  0.1991
  721MOL0     C95093  10.459   3.029   7.619  1.4577  0.3200 -0.2238
  721MOL0     C95094  10.894   3.110   7.563 -0.2833  0.4343 -0.2115
  721MOL0     C95095  10.955   2.986   7.583 -0.3974 -0.5055  0.1816
  721MOL0     C95096  11.092   2.972   7.623 -0.0861  0.3805  0.0803
  721MOL0     C95097  11.172   3.092   7.624 -0.1701 -0.7905 -0.3928
  721MOL0     O95098  11.309   3.097   7.643 -0.4552 -0.3611 -0.0139
  721MOL0     C95099  11.386   2.990   7.685  0.2218  0.6831  0.4836
  721MOL0     C95100  11.427   2.903   7.569 -0.5953  0.6892  0.2476
  721MOL0     C95101  11.558   2.818   7.599 -0.3409 -0.2027  0.8540
  721MOL0     C95102  11.683   2.909   7.577  0.4323 -0.3005  0.3719
  721MOL0     C95103  11.814   2.866   7.628  0.8785  0.2019  0.3812
  721MOL0     C95104  11.919   2.837   7.683 -0.2189 -0.2633  0.3291
  721MOL0     C95105  11.111   3.213   7.597 -0.7327 -0.3927 -0.9011
  721MOL0     C95106  10.974   3.226   7.564 -0.2829  0.9297  0.6785
  721MOL0     H95107  10.556   2.899   7.319 -1.3878 -1.0361 -0.4277
  721MOL0     H95108  10.320   2.825   7.323  0.4968  0.3604 -1.6084
  721MOL0     H95109  10.020   2.943   7.631 -3.9615 -3.4647 -1.9330
  721MOL0     H95110   9.947   2.945   7.483 -0.4376  0.9072  0.5550
  721MOL0     H95111  10.098   3.136   7.406  0.8123 -2.0929 -0.2966
  721MOL0     H95112  10.115   3.182   7.579 -0.5511  0.7784 -0.1227
  721MOL0     H95113   9.841   3.130   7.442 -1.3395 -0.0060 -0.4604
  721MOL0     H95114   9.898   3.288   7.464  0.9677 -0.7077 -1.5880
  721MOL0     H95115   9.888   3.091   7.696 -1.3092 -2.2438 -3.5570
  721MOL0     H95116   9.867   3.265   7.715 -1.7138 -0.5760  1.0665
  721MOL0     H95117   9.658   3.155   7.753 -2.1103 -1.1253  0.4717
  721MOL0     H95118   9.678   3.045   7.609 -1.2273  0.6174  2.1804
  721MOL0     H95119   9.504   3.224   7.591  1.0371 -1.7707  2.0019
  721MOL0     H95120   9.632   3.240   7.467  0.0929 -1.4594 -0.4750
  721MOL0     H95121   9.741   3.429   7.567 -1.2116  1.0113 -1.5065
  721MOL0     H95122   9.572   3.480   7.565 -0.5244  0.0286 -2.1544
  721MOL0     H95123   9.722   3.398   7.814  1.7609  3.2804  0.2803
  721MOL0     H95124   9.544   3.419   7.801 -0.9760  1.9198  1.5626
  721MOL0     H95125   9.503   3.683   7.718 -0.5549 -0.9775  0.7191
  721MOL0     H95126   9.541   3.958   7.780 -0.0412  0.4853 -0.5822
  721MOL0     H95127   9.668   3.989   7.904  3.4169 -2.3230 -1.7665
  721MOL0     H95128   9.450   4.000   8.005 -1.7845 -0.7696 -0.5293
  721MOL0     H95129   9.558   3.885   8.083  2.7056  3.0174 -0.1532
  721MOL0     H95130   9.331   3.807   7.890 -0.3389  3.0810  0.6082
  721MOL0     H95131   9.453   3.699   7.970  5.0181  3.6478 -1.6018
  721MOL0     H95132   9.243   3.889   8.095 -2.3006 -2.1112 -1.6594
  721MOL0     H95133   9.357   3.785   8.181  1.1279 -1.8214 -0.6611
  721MOL0     H95134   9.025   3.517   8.058  1.4859  1.0113 -0.8766
  721MOL0     H95135   8.789   3.532   7.992 -0.5627 -0.7228 -3.7248
  721MOL0     H95136   8.437   3.476   7.945  0.2698 -0.2575 -0.0699
  721MOL0     H95137   8.169   3.521   7.919  1.4303 -0.5969  1.3091
  721MOL0     H95138   8.029   3.801   7.599  3.6854  2.2754  0.8440
  721MOL0     H95139   8.033   3.890   7.759  1.9592 -1.9753  0.9238
  721MOL0     H95140   7.796   3.887   7.660 -2.0829 -0.1176 -0.0081
  721MOL0     H95141   7.800   3.797   7.811 -4.8063 -0.2999 -0.8656
  721MOL0     H95142   7.847   3.580   7.667  1.2664  0.0119 -2.8506
  721MOL0     H95143   7.832   3.681   7.526  2.4719 -0.7054 -0.4208
  721MOL0     H95144   7.608   3.645   7.734  1.5102  2.6383  0.0968
  721MOL0     H95145   7.613   3.763   7.613 -0.1211  0.6073  1.8831
  721MOL0     H95146   7.614   3.455   7.547  2.9618 -0.3796 -1.6966
  721MOL0     H95147   7.644   3.572   7.423 -2.3320 -3.1592 -2.1478
  721MOL0     H95148   7.435   3.679   7.450  0.0523 -0.1891 -0.1032
  721MOL0     H95149   7.397   3.559   7.585 -0.5148 -2.8568 -0.4202
  721MOL0     H95150   7.446   3.520   7.292  1.1234  3.1379  1.3173
  721MOL0     H95151   7.461   3.376   7.403 -4.1786 -2.8124  0.7689
  721MOL0     H95152   7.236   3.450   7.497  0.2210 -3.4623 -0.5307
  721MOL0     H95153   7.239   3.384   7.330  0.6444 -0.7871  0.6432
  721MOL0     H95154   8.251   3.844   7.654  0.6085  0.8902 -1.0657
  721MOL0     H95155   8.484   3.833   7.690 -1.9336  0.5935 -2.0433
  721MOL0     H95156   8.855   3.942   7.896  0.8006  0.2114  0.6385
  721MOL0     H95157   9.085   3.927   7.966  1.2442  0.3461  4.0069
  721MOL0     H95158  10.251   3.045   7.673  2.7739  4.9944  0.6909
  721MOL0     H95159  10.493   3.089   7.703  0.8305 -0.7856  0.8585
  721MOL0     H95160  10.898   2.894   7.580 -0.1158 -0.6702 -0.0665
  721MOL0     H95161  11.141   2.876   7.637  0.8430  1.0670  1.8538
  721MOL0     H95162  11.354   2.932   7.772  0.8078 -1.1946 -0.4981
  721MOL0     H95163  11.481   3.028   7.726  0.0803 -0.2516  1.7454
  721MOL0     H95164  11.340   2.840   7.548  0.4490 -0.4365 -0.9549
  721MOL0     H95165  11.440   2.955   7.474  0.4088 -1.2898 -0.7664
  721MOL0     H95166  11.556   2.725   7.541 -2.3274  1.3603 -1.8200
  721MOL0     H95167  11.564   2.794   7.706  1.8076 -0.4906  0.7120
  721MOL0     H95168  11.688   2.894   7.469 -0.2607 -3.2495  0.6631
  721MOL0     H95169  11.671   3.015   7.601  1.6839 -0.2048  0.5942
  721MOL0     H95170  12.017   2.817   7.721 -0.4773 -1.2109  0.5053
  721MOL0     H95171  11.165   3.306   7.606  1.4956 -1.7619  0.9746
  721MOL0     H95172  10.927   3.321   7.541  1.7707  2.3918  2.0257
  722MOL0     O95173   0.088  10.324   8.317 -0.1291 -0.3579  0.0479
  722MOL0     C95174   0.173  10.416   8.346  0.3159  0.4776 -0.1475
  722MOL0     O95175   0.141  10.539   8.379 -0.5218  0.8121 -0.1742
  722MOL0     C95176   0.009  10.564   8.396 -0.2091 -0.4292  0.6212
  722MOL0     C95177  -0.072  10.627   8.294 -0.5551 -1.2052 -0.1119
  722MOL0     C95178  -0.207  10.662   8.319 -1.0802  0.0183 -0.2092
  722MOL0     C95179  -0.275  10.620   8.427 -0.0259  0.1297 -0.3742
  722MOL0     O95180  -0.403  10.647   8.460  0.4439  0.1130  0.1285
  722MOL0     C95181  -0.485  10.547   8.531 -0.9886 -0.2256  0.8818
  722MOL0     C95182  -0.602  10.621   8.600 -0.5075  0.5197 -0.3118
  722MOL0     C95183  -0.690  10.543   8.685  0.3696  0.4548 -0.4117
  722MOL0     C95184  -0.807  10.614   8.755  0.2685  0.6556 -0.1277
  722MOL0     C95185  -0.894  10.528   8.854 -0.3156  0.1879 -0.1240
  722MOL0     C95186  -0.949  10.400   8.796 -0.2206 -1.0237  0.2874
  722MOL0     C95187  -1.044  10.345   8.905 -0.3482 -0.5321  0.7514
  722MOL0     C95188  -1.098  10.203   8.868 -0.8721 -0.3259 -0.4095
  722MOL0     N95189  -1.198  10.147   8.961  0.2367  0.8101 -0.2189
  722MOL0     C95190  -1.331  10.144   8.937  0.4238 -0.2369  0.1796
  722MOL0     C95191  -1.380  10.070   9.042 -0.5140 -0.5270  0.1786
  722MOL0     C95192  -1.519  10.046   9.066  0.1841  0.1844 -0.2394
  722MOL0     C95193  -1.598   9.978   8.948  0.7224  0.5121 -0.1738
  722MOL0     C95194  -1.718   9.890   8.980 -0.5985  0.4700  1.5138
  722MOL0     C95195  -1.835   9.965   9.053  0.2303  0.4054 -0.3206
  722MOL0     O95196  -1.863  10.082   8.980 -0.4638  0.3018  0.3251
  722MOL0     C95197  -1.972  10.078   8.893 -0.1922  0.0519 -0.4487
  722MOL0     C95198  -1.953  10.061   8.753  0.5252  0.3021  0.8397
  722MOL0     C95199  -2.068  10.045   8.672 -0.2856 -0.2220  0.6785
  722MOL0     C95200  -2.194  10.082   8.722 -1.0647 -0.9723 -1.4041
  722MOL0     C95201  -2.314  10.097   8.636  0.6838 -0.5687 -0.6714
  722MOL0     O95202  -2.421  10.151   8.698  0.5387 -0.0472 -0.7474
  722MOL0     C95203  -2.547  10.159   8.646  0.1152 -0.9734  0.5765
  722MOL0     C95204  -2.710  10.208   8.777 -0.3602  0.2701  0.8655
  722MOL0     C95205  -2.908  10.225   8.694 -0.3783  0.7703  0.8200
  722MOL0     C95206  -2.935  10.195   8.483  0.1584 -0.1918 -0.6397
  722MOL0     O95207  -3.057  10.199   8.429  0.0134  0.0271 -0.3783
  722MOL0     C95208  -3.069  10.209   8.283 -0.3723 -0.1100 -0.5384
  722MOL0     C95209  -3.216  10.210   8.250 -0.4288 -0.2807 -0.0223
  722MOL0     C95210  -3.279  10.351   8.236  0.6997  0.1367 -0.1934
  722MOL0     C95211  -3.421  10.345   8.172  0.2287  0.1170  0.1110
  722MOL0     C95212  -3.524  10.305   8.270  0.8627  0.6767 -0.2369
  722MOL0     C95213  -3.657  10.361   8.225  0.1981  0.0455 -0.7386
  722MOL0     C95214  -3.765  10.311   8.322  0.1729 -0.1704  0.5578
  722MOL0     C95215  -3.876  10.239   8.251 -0.3231  0.1620  0.0838
  722MOL0    Cl95216  -3.982  10.352   8.157 -0.4033  0.0634 -0.2547
  722MOL0     C95217  -2.779  10.159   8.356 -0.4279  0.1196 -0.1813
  722MOL0     C95218  -2.583  10.139   8.438 -0.4911 -1.3654  0.6703
  722MOL0     O95219  -2.308  10.035   8.532  0.2253  0.2091  0.5027
  722MOL0     C95220  -2.203  10.115   8.865 -0.7599  0.4934  1.0047
  722MOL0     C95221  -2.095  10.100   8.950  0.3367  0.1126  0.7449
  722MOL0     N95222  -1.274  10.050   9.127 -0.2074 -0.0614  1.0632
  722MOL0     N95223  -1.163  10.088   9.074 -0.6388  0.2037 -0.2143
  722MOL0     C95224  -0.194  10.554   8.528  0.2555  0.0476  0.1118
  722MOL0     C95225  -0.057  10.531   8.512  0.7628  0.5062 -1.0281
  722MOL0     C95226   0.309  10.376   8.333 -0.5034 -0.5586 -0.4210
  722MOL0     C95227   0.416  10.463   8.374 -0.0424  0.7486  0.6840
  722MOL0     C95228   0.549  10.435   8.341  0.4757 -0.7267 -1.1250
  722MOL0     C95229   0.581  10.308   8.290 -0.5663 -0.2167 -0.1859
  722MOL0     O95230   0.713  10.262   8.271  0.1373  0.8400  0.1360
  722MOL0     C95231   0.822  10.344   8.272 -0.5601 -0.1859  0.3800
  722MOL0     C95232   0.953  10.260   8.252  0.7643 -0.0577 -0.8071
  722MOL0     C95233   0.983  10.158   8.365 -0.1101  0.4602  0.3183
  722MOL0     C95234   0.986  10.230   8.506  0.2262  0.3864 -0.4567
  722MOL0     C95235   0.988  10.135   8.625 -0.0828  0.3133 -0.3293
  722MOL0     C95236   0.983  10.066   8.729 -0.2339 -0.0275  0.0800
  722MOL0     C95237   0.482  10.219   8.257  0.3973 -0.0052  0.1870
  722MOL0     C95238   0.342  10.254   8.262 -0.5036  0.0509 -0.1574
  722MOL0     H95239  -0.018  10.663   8.207  0.9336 -1.0451  0.8543
  722MOL0     H95240  -0.251  10.714   8.235  0.8597  0.9997 -0.6838
  722MOL0     H95241  -0.423  10.491   8.602  1.2554 -2.7693 -2.7928
  722MOL0     H95242  -0.521  10.485   8.449 -4.1671  1.9449  0.4519
  722MOL0     H95243  -0.666  10.668   8.525 -0.4326 -1.5228 -1.7096
  722MOL0     H95244  -0.555  10.702   8.657  1.1426  0.3282 -1.3378
  722MOL0     H95245  -0.629  10.494   8.762  0.6506  1.2271 -0.1331
  722MOL0     H95246  -0.728  10.463   8.619  1.0956  1.2865 -1.8938
  722MOL0     H95247  -0.760  10.687   8.822  1.2066 -0.5965  0.6089
  722MOL0     H95248  -0.868  10.651   8.671 -3.6175 -1.6663  1.4459
  722MOL0     H95249  -0.969  10.600   8.889  2.3489  2.1440  2.0710
  722MOL0     H95250  -0.827  10.507   8.937 -2.2631  0.2596  1.5429
  722MOL0     H95251  -0.871  10.326   8.776 -1.1121 -1.8974 -0.0182
  722MOL0     H95252  -0.997  10.417   8.699  1.6076 -0.1527 -0.5294
  722MOL0     H95253  -0.988  10.345   8.998 -3.0237  1.5747  2.5237
  722MOL0     H95254  -1.113  10.430   8.908  0.9088  0.4861  2.8017
  722MOL0     H95255  -1.005  10.145   8.873 -2.5585 -3.2229 -0.1554
  722MOL0     H95256  -1.149  10.200   8.771  0.2566  1.0028 -1.0803
  722MOL0     H95257  -1.384  10.199   8.861 -1.3764  0.6908  2.0006
  722MOL0     H95258  -1.566  10.136   9.106  1.5591 -0.2874  2.7804
  722MOL0     H95259  -1.521   9.974   9.148 -2.1232  1.3434  0.8110
  722MOL0     H95260  -1.519   9.924   8.895  2.7273  3.6096 -0.5575
  722MOL0     H95261  -1.629  10.056   8.879 -2.1472 -1.7189 -1.6221
  722MOL0     H95262  -1.752   9.837   8.890  0.3688 -2.7678  2.9035
  722MOL0     H95263  -1.693   9.812   9.052 -0.8358 -0.5408  0.5396
  722MOL0     H95264  -1.814   9.997   9.155  2.4167  1.0237 -0.9097
  722MOL0     H95265  -1.916   9.892   9.063  1.7786 -1.2668  0.7369
  722MOL0     H95266  -1.857  10.041   8.706  0.4582  1.3387  0.2210
  722MOL0     H95267  -2.064  10.029   8.564  3.5804  2.1855  0.2551
  722MOL0     H95268  -2.705  10.216   8.885  1.2249 -0.9192  0.9146
  722MOL0     H95269  -2.996  10.232   8.758 -0.7326 -0.9123  0.5573
  722MOL0     H95270  -3.022  10.124   8.233 -0.4376  0.0723 -0.9089
  722MOL0     H95271  -3.032  10.304   8.245  1.6723 -0.7141 -0.2013
  722MOL0     H95272  -3.275  10.140   8.310 -2.6428  0.2267 -1.5040
  722MOL0     H95273  -3.232  10.167   8.150 -3.0280  1.8476 -0.6287
  722MOL0     H95274  -3.228  10.403   8.155  0.5034  0.4631 -0.1083
  722MOL0     H95275  -3.276  10.414   8.326  1.2656  2.2293 -1.5934
  722MOL0     H95276  -3.453  10.442   8.131  0.7758  0.6396  0.8980
  722MOL0     H95277  -3.420  10.273   8.090 -2.8305  1.3801 -1.1761
  722MOL0     H95278  -3.506  10.347   8.369  1.3558  0.6801 -0.3272
  722MOL0     H95279  -3.530  10.196   8.274 -0.2476  0.6959 -0.9531
  722MOL0     H95280  -3.672  10.323   8.124 -1.4372  2.3016 -1.4295
  722MOL0     H95281  -3.668  10.470   8.232 -3.1393 -0.2669  1.1702
  722MOL0     H95282  -3.729  10.234   8.391 -1.6481 -0.4131  1.3040
  722MOL0     H95283  -3.818  10.394   8.370 -3.9012 -0.8421 -2.2164
  722MOL0     H95284  -3.932  10.178   8.323  1.3865 -0.1225  1.2198
  722MOL0     H95285  -3.839  10.160   8.184 -2.3210 -3.1749  2.5613
  722MOL0     H95286  -2.794  10.138   8.251 -1.3598  1.2387 -0.2900
  722MOL0     H95287  -2.503  10.120   8.367 -3.0431  1.5197 -3.4529
  722MOL0     H95288  -2.300  10.155   8.893 -1.9572 -0.0555 -2.0154
  722MOL0     H95289  -2.099  10.124   9.056  0.6277  2.9224  0.2122
  722MOL0     H95290  -0.225  10.523   8.628  0.2356  0.6647  0.3036
  722MOL0     H95291  -0.005  10.476   8.590 -0.1906  0.5394 -0.3566
  722MOL0     H95292   0.391  10.558   8.421 -2.8487 -0.0031  0.9176
  722MOL0     H95293   0.631  10.502   8.366 -0.1149 -0.6871  0.8660
  722MOL0     H95294   0.835  10.410   8.358 -0.7270  1.1507 -0.5848
  722MOL0     H95295   0.810  10.407   8.183  0.0931  0.3189  0.6420
  722MOL0     H95296   0.950  10.214   8.153  1.8942 -1.7185 -0.1152
  722MOL0     H95297   1.043  10.323   8.248  0.7683  0.1829  1.6145
  722MOL0     H95298   1.083  10.120   8.342  0.1254  1.1199  0.2298
  722MOL0     H95299   0.911  10.076   8.359 -2.5396  2.5071 -0.4466
  722MOL0     H95300   1.049  10.317   8.522 -0.9203  0.7717  2.7476
  722MOL0     H95301   0.894  10.287   8.525  0.1692  0.2777 -0.3969
  722MOL0     H95302   0.979  10.029   8.830  0.8489  1.8061  0.8369
  722MOL0     H95303   0.506  10.122   8.216 -1.1180 -0.9266  1.3934
  722MOL0     H95304   0.272  10.179   8.229  0.7605  0.1405 -3.3488
  723MOL0     O95305  10.625  10.637   6.933  0.1683 -0.1251 -0.1165
  723MOL0     C95306  10.658  10.752   6.971  0.1222 -0.3619 -0.0797
  723MOL0     O95307  10.571  10.854   7.007 -0.2978  0.0519  0.2160
  723MOL0     C95308  10.430  10.839   6.992  0.1557  0.4412  1.1713
  723MOL0     C95309  10.368  10.763   6.892  0.8125 -0.2441 -0.6076
  723MOL0     C95310  10.235  10.746   6.880 -0.7718  0.6339 -1.0677
  723MOL0     C95311  10.144  10.809   6.962  0.3191  1.1164 -0.0496
  723MOL0     O95312  10.013  10.772   6.939  0.1443 -1.1693  0.5921
  723MOL0     C95313   9.929  10.790   7.059  1.0008 -0.0315 -0.6373
  723MOL0     C95314   9.801  10.721   7.048  0.4753 -0.3305  0.4366
  723MOL0     C95315   9.801  10.568   7.044 -0.5802  0.8211  0.0483
  723MOL0     C95316   9.771  10.493   6.915 -0.0258  0.9762  0.6212
  723MOL0     C95317   9.769  10.341   6.924 -0.3500 -0.0579  0.6042
  723MOL0     C95318   9.674  10.277   6.816  0.7949 -0.0847 -0.6057
  723MOL0     C95319   9.676  10.123   6.798 -0.7732 -1.0120  0.6101
  723MOL0     C95320   9.594  10.068   6.910 -0.1935 -0.0760  0.2064
  723MOL0     N95321   9.553   9.932   6.882 -0.3994  0.1891 -0.7190
  723MOL0     C95322   9.430   9.897   6.829 -0.4697 -0.3282  0.3688
  723MOL0     C95323   9.425   9.757   6.842  0.4997  0.2790  0.9003
  723MOL0     C95324   9.302   9.665   6.818 -0.5432 -0.4891 -0.8046
  723MOL0     C95325   9.193   9.717   6.911 -0.1350  0.1524 -0.0569
  723MOL0     C95326   9.062   9.645   6.893  0.7132 -0.5524  0.3004
  723MOL0     C95327   8.938   9.705   6.969 -0.0414 -0.8801  0.6022
  723MOL0     O95328   8.821   9.626   6.938  0.2001 -0.3705 -0.4012
  723MOL0     C95329   8.711   9.639   7.013 -0.1715  0.0154 -0.3135
  723MOL0     C95330   8.700   9.748   7.110 -0.0695 -0.7610  0.2114
  723MOL0     C95331   8.585   9.762   7.181 -0.0394 -0.3116 -1.4129
  723MOL0     C95332   8.478   9.686   7.153  0.4463 -0.1485 -0.1479
  723MOL0     C95333   8.358   9.679   7.243 -0.8463  0.2253  0.3774
  723MOL0     O95334   8.292   9.568   7.251 -0.1701  0.1427  0.0126
  723MOL0     C95335   8.178   9.561   7.328  0.6362 -0.1017  0.4697
  723MOL0     C95336   8.062   9.556   7.253 -0.3966  0.0325 -0.8916
  723MOL0     C95337   7.938   9.546   7.330 -0.5896  0.1127  0.2416
  723MOL0     C95338   7.945   9.533   7.468  0.7764 -0.1454 -0.0691
  723MOL0     O95339   7.820   9.543   7.532  0.3521  0.2726  0.3902
  723MOL0     C95340   7.817   9.596   7.666  1.1807 -0.7144  0.4204
  723MOL0     C95341   7.676   9.593   7.724 -0.4003  0.3993 -0.3464
  723MOL0     C95342   7.672   9.669   7.854  0.2931 -0.4805  0.2190
  723MOL0     C95343   7.547   9.660   7.938  0.1940  0.0524  0.5843
  723MOL0     C95344   7.410   9.649   7.866 -0.8898 -0.4215  0.2628
  723MOL0     C95345   7.306   9.610   7.971 -0.5053  0.4116  0.5346
  723MOL0     C95346   7.164   9.587   7.915 -0.5570 -0.3785  0.2755
  723MOL0     C95347   7.039   9.600   8.019 -0.3650 -0.6147  1.0647
  723MOL0    Cl95348   7.028   9.448   8.104 -0.2478  0.3460  0.5436
  723MOL0     C95349   8.061   9.526   7.533  0.0613 -0.1566  0.9049
  723MOL0     C95350   8.183   9.547   7.464  0.1812 -0.6457  0.3685
  723MOL0     O95351   8.319   9.789   7.284  0.0856  0.0517 -0.0225
  723MOL0     C95352   8.489   9.588   7.052 -0.9477  0.5166  0.2929
  723MOL0     C95353   8.605   9.558   6.990  0.4391  0.2067 -0.3136
  723MOL0     N95354   9.546   9.708   6.900  0.2190 -0.0551  0.5973
  723MOL0     N95355   9.623   9.818   6.925 -0.1037 -0.8562 -0.3328
  723MOL0     C95356  10.199  10.892   7.060  0.4732 -0.2812 -0.6858
  723MOL0     C95357  10.339  10.905   7.077 -0.3676  0.8168 -0.4902
  723MOL0     C95358  10.800  10.789   6.968  0.0991  0.3475  0.1475
  723MOL0     C95359  10.896  10.686   6.974  0.2895  0.6450  0.1531
  723MOL0     C95360  11.030  10.711   6.973  0.5673  0.0568  0.6590
  723MOL0     C95361  11.075  10.844   6.974  0.1651 -0.0363  0.5219
  723MOL0     O95362  11.202  10.889   6.970 -0.4497 -0.8056  0.0143
  723MOL0     C95363  11.308  10.818   7.034 -0.5910 -0.2532  0.0227
  723MOL0     C95364  11.428  10.907   7.052  0.0844 -0.0566  0.9431
  723MOL0     C95365  11.527  10.917   6.935  0.1748  0.2290  0.6534
  723MOL0     C95366  11.652  10.996   6.986  0.3355 -0.2508  0.2333
  723MOL0     C95367  11.771  10.986   6.899 -0.4012  0.3921  0.6746
  723MOL0     C95368  11.881  10.942   6.852  0.3363 -0.8832 -1.3551
  723MOL0     C95369  10.984  10.944   6.971 -0.3246 -0.3395 -0.0192
  723MOL0     C95370  10.844  10.921   6.968 -0.1291 -0.5472  0.0901
  723MOL0     H95371  10.439  10.721   6.822 -1.0737 -1.4748 -1.8636
  723MOL0     H95372  10.211  10.697   6.786 -2.9444  2.0156 -1.3031
  723MOL0     H95373   9.915  10.896   7.084 -0.1900 -0.4982  0.7659
  723MOL0     H95374   9.979  10.748   7.147 -0.2207 -0.9674 -0.3814
  723MOL0     H95375   9.760  10.750   6.951  1.9476  1.4476  0.2918
  723MOL0     H95376   9.733  10.749   7.128  0.5913 -1.5624  0.9925
  723MOL0     H95377   9.731  10.526   7.117  1.3850 -1.9958  0.4726
  723MOL0     H95378   9.896  10.524   7.077 -1.8021 -3.3162 -1.3020
  723MOL0     H95379   9.666  10.518   6.896 -1.7917 -4.6251  1.0888
  723MOL0     H95380   9.837  10.525   6.834 -0.1923 -0.1619  0.0153
  723MOL0     H95381   9.738  10.318   7.026 -1.8385  0.4918  0.2989
  723MOL0     H95382   9.870  10.303   6.909 -0.0986  0.8727 -0.2129
  723MOL0     H95383   9.707  10.313   6.718  3.0908 -0.2173  0.0590
  723MOL0     H95384   9.571  10.311   6.832  0.9753  0.2935 -0.2470
  723MOL0     H95385   9.629  10.088   6.706 -1.6692 -0.4166  0.8317
  723MOL0     H95386   9.774  10.075   6.797 -0.9648 -1.3989  0.3999
  723MOL0     H95387   9.504  10.130   6.914  0.5280  1.0176  0.1576
  723MOL0     H95388   9.639  10.080   7.009  0.0453  2.9618 -0.1701
  723MOL0     H95389   9.355   9.958   6.780  2.2157 -0.3037 -4.3843
  723MOL0     H95390   9.339   9.565   6.840  0.1969  0.1039  0.7594
  723MOL0     H95391   9.253   9.683   6.722 -2.2020  0.7023  0.2171
  723MOL0     H95392   9.168   9.823   6.911  0.8711  0.4149 -1.6962
  723MOL0     H95393   9.234   9.707   7.012 -0.9088  1.4402  0.4067
  723MOL0     H95394   9.026   9.623   6.792 -0.9590  2.6992  0.0272
  723MOL0     H95395   9.075   9.549   6.943  1.0121 -2.0577 -2.4690
  723MOL0     H95396   8.917   9.806   6.933 -1.1274 -1.4370 -0.4090
  723MOL0     H95397   8.971   9.704   7.073  0.6913 -0.4367  0.3878
  723MOL0     H95398   8.774   9.825   7.127 -0.7545  0.3121 -1.4137
  723MOL0     H95399   8.587   9.843   7.253 -1.4101 -1.4856  0.0182
  723MOL0     H95400   8.075   9.574   7.147  1.3226  1.2381 -0.5217
  723MOL0     H95401   7.843   9.544   7.278  1.0269 -1.4059 -2.9194
  723MOL0     H95402   7.831   9.705   7.671 -1.4334 -0.2086 -1.3419
  723MOL0     H95403   7.884   9.541   7.733 -0.4856 -3.0943  0.2542
  723MOL0     H95404   7.650   9.488   7.737 -1.2033  0.3713 -1.9675
  723MOL0     H95405   7.603   9.632   7.653 -0.2058 -0.6762 -1.1701
  723MOL0     H95406   7.675   9.777   7.835  1.8587 -0.8485 -1.9875
  723MOL0     H95407   7.756   9.633   7.914  1.6156  2.5462  0.3822
  723MOL0     H95408   7.559   9.569   7.996  0.6336 -0.5147 -0.3735
  723MOL0     H95409   7.553   9.747   8.004  1.9781  0.1541  0.3533
  723MOL0     H95410   7.419   9.574   7.787  0.7577  0.0046  0.0034
  723MOL0     H95411   7.372   9.742   7.823  1.6112 -0.2929 -1.9528
  723MOL0     H95412   7.297   9.686   8.050  2.6913 -0.3002  1.7429
  723MOL0     H95413   7.346   9.521   8.021  3.3154  1.4750 -0.3352
  723MOL0     H95414   7.144   9.673   7.850 -1.4995 -0.0060  1.0234
  723MOL0     H95415   7.167   9.491   7.862 -5.1349  0.2037 -1.5341
  723MOL0     H95416   6.948   9.618   7.962  0.5384 -0.2951 -0.3350
  723MOL0     H95417   7.056   9.682   8.089 -3.1015  0.5487  0.4628
  723MOL0     H95418   8.070   9.511   7.640  2.8583  1.1074  0.9329
  723MOL0     H95419   8.274   9.529   7.522 -0.6460 -2.9248  1.0303
  723MOL0     H95420   8.410   9.516   7.036 -0.6952  0.3944 -0.4476
  723MOL0     H95421   8.612   9.483   6.913  1.8081  1.9963 -2.0094
  723MOL0     H95422  10.137  10.950   7.127  0.5863 -0.7342 -0.1804
  723MOL0     H95423  10.372  10.985   7.142  0.9067 -1.1873  1.4717
  723MOL0     H95424  10.860  10.583   6.968  1.4543  0.2512 -4.7232
  723MOL0     H95425  11.099  10.627   6.970  1.8598  1.0832  0.7648
  723MOL0     H95426  11.335  10.744   6.958 -2.8369  0.9758 -2.1054
  723MOL0     H95427  11.272  10.773   7.127 -3.1567  3.4915  1.0670
  723MOL0     H95428  11.386  11.006   7.069  0.9248  0.6296 -0.7967
  723MOL0     H95429  11.477  10.863   7.140  0.7335  1.6656  1.4853
  723MOL0     H95430  11.483  10.963   6.846  0.3657 -0.1334  0.3672
  723MOL0     H95431  11.562  10.819   6.901 -3.4060 -0.8265 -0.3771
  723MOL0     H95432  11.622  11.101   6.978 -0.1075 -0.4715 -1.5772
  723MOL0     H95433  11.683  10.955   7.082  1.4638 -0.6563 -0.2778
  723MOL0     H95434  11.971  10.899   6.812  0.4036 -0.9358 -1.1486
  723MOL0     H95435  11.029  11.043   6.970 -0.1508 -0.4204 -1.4841
  723MOL0     H95436  10.775  11.005   6.971 -0.9228 -1.1961  0.6087
  724MOL0     O95437   5.365   9.056   5.228  0.1224  0.4270 -0.1577
  724MOL0     C95438   5.404   8.962   5.295  0.2510 -0.4090 -0.0029
  724MOL0     O95439   5.534   8.944   5.339 -0.2561  0.1775 -0.1889
  724MOL0     C95440   5.644   9.017   5.305 -0.1903  0.6151 -0.5385
  724MOL0     C95441   5.760   8.970   5.367 -0.0346 -0.3346 -0.1315
  724MOL0     C95442   5.891   9.023   5.351 -0.0978 -0.4530  0.3275
  724MOL0     C95443   5.901   9.132   5.264 -0.4073 -0.2713  0.0038
  724MOL0     O95444   6.031   9.176   5.235 -0.0120  0.2838 -0.3892
  724MOL0     C95445   6.054   9.320   5.213 -0.1291  0.2346 -0.2428
  724MOL0     C95446   6.204   9.340   5.184 -0.3536 -0.4212 -0.7105
  724MOL0     C95447   6.235   9.489   5.161 -0.1248 -0.5061  0.5055
  724MOL0     C95448   6.381   9.519   5.133  0.3173 -0.4058 -0.5029
  724MOL0     C95449   6.419   9.672   5.118  0.5803  0.7930 -0.2794
  724MOL0     C95450   6.412   9.747   5.254  0.0965 -0.3119 -0.4140
  724MOL0     C95451   6.497   9.875   5.252  0.0450  0.0429 -0.6058
  724MOL0     C95452   6.481   9.961   5.379 -0.6030  0.0730 -0.2914
  724MOL0     N95453   6.569  10.082   5.379  0.2047  0.6232 -0.6771
  724MOL0     C95454   6.706  10.075   5.402  0.1225  0.1156  0.1704
  724MOL0     C95455   6.736  10.204   5.386 -0.2095  0.0930  0.7639
  724MOL0     C95456   6.878  10.265   5.377  0.1446 -0.5546 -0.0472
  724MOL0     C95457   6.924  10.298   5.238  0.3229  0.0705 -0.0308
  724MOL0     C95458   7.055  10.364   5.225 -0.6895  0.2479  0.5316
  724MOL0     C95459   7.063  10.506   5.266  0.6500 -0.3584  0.1832
  724MOL0     O95460   7.192  10.563   5.278 -0.6885  0.9388  0.0814
  724MOL0     C95461   7.271  10.588   5.173  0.3892 -0.4376  1.1200
  724MOL0     C95462   7.228  10.581   5.036  0.0033 -0.1219 -0.8006
  724MOL0     C95463   7.324  10.601   4.931  0.5762  0.5621  1.0490
  724MOL0     C95464   7.451  10.630   4.951 -0.0878 -0.9668 -0.4156
  724MOL0     C95465   7.544  10.676   4.846 -0.1910  0.0246  0.0131
  724MOL0     O95466   7.484  10.715   4.732 -0.5927  0.1868 -0.3311
  724MOL0     C95467   7.577  10.750   4.639 -0.3651  0.5368 -0.3718
  724MOL0     C95468   7.645  10.872   4.635 -0.6537  0.0233 -0.6001
  724MOL0     C95469   7.725  10.909   4.519 -0.6285  0.4188  0.1382
  724MOL0     C95470   7.712  10.831   4.402 -0.0795 -0.1467 -0.7176
  724MOL0     O95471   7.777  10.881   4.291  0.3091 -0.0180  0.0209
  724MOL0     C95472   7.807  10.799   4.176 -0.3657  0.5258 -0.0506
  724MOL0     C95473   7.914  10.873   4.099  0.4172  0.1602 -0.7871
  724MOL0     C95474   8.053  10.844   4.154 -0.6231 -0.1880 -0.3959
  724MOL0     C95475   8.168  10.846   4.049  0.1814  0.3917  0.4285
  724MOL0     C95476   8.292  10.911   4.103 -0.6665 -0.2275 -0.2726
  724MOL0     C95477   8.409  10.883   4.007  0.0710 -0.1049  0.4648
  724MOL0     C95478   8.527  10.982   4.036  0.5147 -0.3053 -0.6356
  724MOL0     C95479   8.663  10.932   3.999  0.3465 -0.7874 -0.9195
  724MOL0    Cl95480   8.705  10.808   4.107 -0.2553 -0.0808 -0.2133
  724MOL0     C95481   7.650  10.709   4.411 -0.2856  0.2285  0.3548
  724MOL0     C95482   7.576  10.667   4.526 -0.9466 -1.2899  0.4227
  724MOL0     O95483   7.665  10.673   4.868  0.4056  0.5085  1.0101
  724MOL0     C95484   7.491  10.636   5.088  0.4507  0.7291  0.2931
  724MOL0     C95485   7.406  10.619   5.191  0.2272  1.0510 -0.2411
  724MOL0     N95486   6.620  10.281   5.364 -0.6349  0.5040  0.7345
  724MOL0     N95487   6.523  10.207   5.344 -0.3706  0.6409 -0.0961
  724MOL0     C95488   5.782   9.192   5.215 -0.0819  0.7737  0.7930
  724MOL0     C95489   5.655   9.130   5.223 -0.7170  0.1175 -0.3092
  724MOL0     C95490   5.310   8.854   5.304 -0.1931 -0.3713 -0.1645
  724MOL0     C95491   5.351   8.722   5.296 -0.5011 -0.5938  0.3590
  724MOL0     C95492   5.256   8.619   5.295 -0.6837 -0.2272  0.0326
  724MOL0     C95493   5.117   8.648   5.295  0.9033  0.1560 -0.2185
  724MOL0     O95494   5.022   8.549   5.285 -0.4527 -0.1576 -0.6606
  724MOL0     C95495   5.013   8.465   5.405  1.4250 -0.1419 -0.5272
  724MOL0     C95496   4.889   8.383   5.398 -0.1623 -0.0426 -0.0713
  724MOL0     C95497   4.872   8.294   5.267  0.7155  0.7531 -1.0259
  724MOL0     C95498   4.743   8.218   5.266 -0.0657  0.2865  0.2499
  724MOL0     C95499   4.629   8.310   5.240  0.6669  0.9375 -0.1080
  724MOL0     C95500   4.528   8.375   5.237 -0.7625 -0.1147  1.0594
  724MOL0     C95501   5.083   8.784   5.299  0.9967  0.6254 -1.2929
  724MOL0     C95502   5.175   8.881   5.307  0.3532 -0.7162  0.2449
  724MOL0     H95503   5.743   8.879   5.423 -1.1569  0.9404  1.6771
  724MOL0     H95504   5.979   8.972   5.389  0.0224 -0.7020 -0.2646
  724MOL0     H95505   6.021   9.377   5.301 -1.2761 -0.6091 -0.1049
  724MOL0     H95506   6.001   9.357   5.124 -1.6524 -0.6310  0.2737
  724MOL0     H95507   6.220   9.288   5.089  0.7165  0.2312 -0.9096
  724MOL0     H95508   6.267   9.305   5.266  1.6328 -1.5464 -2.6182
  724MOL0     H95509   6.195   9.548   5.244 -1.4694  0.2663 -0.6519
  724MOL0     H95510   6.187   9.527   5.070  0.6427 -1.0911 -0.1626
  724MOL0     H95511   6.453   9.464   5.194 -1.5683 -2.4257  0.0151
  724MOL0     H95512   6.397   9.476   5.034  0.3203  1.4022 -1.3404
  724MOL0     H95513   6.355   9.724   5.045 -0.9233 -0.4821  0.0880
  724MOL0     H95514   6.518   9.670   5.072 -0.1061  1.2049 -1.8480
  724MOL0     H95515   6.441   9.680   5.336 -1.0420 -0.8045 -0.3831
  724MOL0     H95516   6.305   9.766   5.271 -0.1365 -1.1257 -0.9312
  724MOL0     H95517   6.600   9.862   5.219  1.0635  0.2557  2.2217
  724MOL0     H95518   6.460   9.940   5.172  1.0730  1.2458 -0.1429
  724MOL0     H95519   6.513   9.897   5.462 -0.3587 -2.5585 -2.2705
  724MOL0     H95520   6.377   9.987   5.399 -0.1165  0.6887  1.6393
  724MOL0     H95521   6.775   9.993   5.412  0.8539 -0.0032 -4.0597
  724MOL0     H95522   6.954  10.200   5.421  0.2654  0.6784  1.6271
  724MOL0     H95523   6.872  10.354   5.440 -3.4351  0.0791 -1.0496
  724MOL0     H95524   6.856  10.373   5.196  3.0905  3.4419  1.0429
  724MOL0     H95525   6.934  10.209   5.176  0.6364  0.5473 -0.6717
  724MOL0     H95526   7.131  10.303   5.273 -0.4542  0.0398 -0.0916
  724MOL0     H95527   7.082  10.357   5.119 -3.6684 -0.1116 -0.3093
  724MOL0     H95528   7.004  10.515   5.357  1.3508 -1.0754  0.7217
  724MOL0     H95529   7.011  10.565   5.190 -0.0711 -1.8965 -0.5684
  724MOL0     H95530   7.127  10.555   5.006 -1.5690  2.4867  1.7846
  724MOL0     H95531   7.290  10.590   4.829  0.2974 -0.9312  1.2770
  724MOL0     H95532   7.650  10.944   4.715 -0.0021  2.3495 -2.6048
  724MOL0     H95533   7.785  11.000   4.518  3.5538 -2.0825  0.3549
  724MOL0     H95534   7.723  10.775   4.111 -0.0331 -0.0523 -0.2852
  724MOL0     H95535   7.858  10.706   4.206  1.8887  2.3258  2.2380
  724MOL0     H95536   7.893  10.980   4.104  2.0714  0.4589  1.6914
  724MOL0     H95537   7.910  10.842   3.994  2.0686 -3.7146  0.0950
  724MOL0     H95538   8.049  10.738   4.178  0.6227 -1.1603 -3.8521
  724MOL0     H95539   8.070  10.913   4.237 -0.8985  0.6146 -0.9829
  724MOL0     H95540   8.189  10.744   4.016 -1.0575 -0.1199  1.1456
  724MOL0     H95541   8.145  10.916   3.968 -1.3509 -0.8762 -0.2824
  724MOL0     H95542   8.326  10.879   4.201  1.7384  2.7036 -0.0069
  724MOL0     H95543   8.269  11.018   4.113  3.2924  0.5520  2.5044
  724MOL0     H95544   8.385  10.895   3.901  0.9228  3.7890  0.5770
  724MOL0     H95545   8.442  10.780   4.022  2.9823  0.4980 -1.0422
  724MOL0     H95546   8.515  11.079   3.987  0.2717 -0.5675 -1.1066
  724MOL0     H95547   8.535  11.015   4.140 -0.0011  3.9935 -1.7608
  724MOL0     H95548   8.741  11.008   4.011  2.1597 -2.5392 -1.0225
  724MOL0     H95549   8.673  10.900   3.895  1.2763 -0.6925 -0.8704
  724MOL0     H95550   7.651  10.644   4.325  2.5988  0.8095 -0.1723
  724MOL0     H95551   7.516  10.577   4.521 -1.4124 -0.9211 -1.8187
  724MOL0     H95552   7.592  10.672   5.106 -0.1387  2.3866  0.4508
  724MOL0     H95553   7.449  10.625   5.291  0.7696  2.0404 -0.5229
  724MOL0     H95554   5.783   9.286   5.161 -0.4538 -0.3416 -1.2649
  724MOL0     H95555   5.573   9.169   5.165 -0.1883  1.6016 -0.1097
  724MOL0     H95556   5.456   8.702   5.281 -0.5577 -0.2599 -0.5723
  724MOL0     H95557   5.292   8.517   5.290 -0.3826 -0.0800 -0.9202
  724MOL0     H95558   5.018   8.526   5.496  2.8278  3.0581 -2.5645
  724MOL0     H95559   5.097   8.395   5.406  0.6432 -1.1151 -1.5051
  724MOL0     H95560   4.884   8.331   5.494  0.6697  1.5306  0.8590
  724MOL0     H95561   4.810   8.457   5.411 -0.3251 -0.6131  3.3035
  724MOL0     H95562   4.956   8.225   5.277  0.5610  0.7887  0.8146
  724MOL0     H95563   4.872   8.353   5.175 -0.1858  1.8050 -0.3781
  724MOL0     H95564   4.730   8.136   5.194  0.0250  0.0441  0.5081
  724MOL0     H95565   4.728   8.178   5.367 -1.5142 -1.9526 -0.7480
  724MOL0     H95566   4.440   8.435   5.229  0.1705  1.0759 -0.7262
  724MOL0     H95567   4.976   8.803   5.310  0.6694 -0.8081 -1.8738
  724MOL0     H95568   5.138   8.982   5.325  1.5110 -0.4398  1.1544
  725MOL0     O95569   7.794   2.998   7.791 -0.1178  0.3242  0.1566
  725MOL0     C95570   7.838   2.983   7.685  0.4968 -0.1573 -1.0405
  725MOL0     O95571   7.779   3.027   7.568 -0.1873 -0.1216 -0.9537
  725MOL0     C95572   7.639   3.072   7.565 -0.6593 -0.0855  0.3244
  725MOL0     C95573   7.548   3.023   7.471  0.0029 -0.1573 -0.1734
  725MOL0     C95574   7.413   3.062   7.470  0.0066  0.3522  0.5029
  725MOL0     C95575   7.364   3.145   7.578  0.0403 -0.7086  0.6853
  725MOL0     O95576   7.225   3.173   7.561 -0.0358  0.0545 -0.5876
  725MOL0     C95577   7.149   3.246   7.657  0.1294  0.3481  0.3079
  725MOL0     C95578   7.007   3.250   7.609 -0.0021  0.9298  0.9601
  725MOL0     C95579   6.933   3.115   7.594  0.8056  0.0324  0.9968
  725MOL0     C95580   6.824   3.120   7.487 -0.2719  0.7755  0.0899
  725MOL0     C95581   6.721   3.007   7.512  0.5971 -0.1706  0.4303
  725MOL0     C95582   6.610   3.007   7.398 -0.4817 -0.5920 -0.3062
  725MOL0     C95583   6.526   2.877   7.401 -0.3076  0.8836 -0.0185
  725MOL0     C95584   6.587   2.769   7.304 -0.4901  0.2634  1.1653
  725MOL0     N95585   6.487   2.663   7.268 -0.4208  0.0185 -0.8002
  725MOL0     C95586   6.518   2.531   7.264  0.4999 -0.7851  1.0848
  725MOL0     C95587   6.407   2.471   7.221  0.2475  0.0315  0.3993
  725MOL0     C95588   6.386   2.323   7.200 -0.2631 -0.4556 -0.0184
  725MOL0     C95589   6.239   2.268   7.215  0.2916 -0.3749  0.2139
  725MOL0     C95590   6.185   2.301   7.352 -0.2904  0.5656 -0.3690
  725MOL0     C95591   6.050   2.234   7.381 -0.8517 -0.5304 -0.2651
  725MOL0     O95592   6.010   2.253   7.509  0.6165 -0.3648 -0.6464
  725MOL0     C95593   5.873   2.252   7.531  0.6341  0.0303 -0.7263
  725MOL0     C95594   5.797   2.140   7.529 -0.6361  0.1775 -0.6724
  725MOL0     C95595   5.658   2.147   7.541  0.1924 -0.2740  0.7826
  725MOL0     C95596   5.589   2.262   7.585 -1.1574  0.2470 -0.1407
  725MOL0     C95597   5.441   2.256   7.607 -0.4283 -0.0605  0.0958
  725MOL0     O95598   5.378   2.149   7.551  0.1464 -0.2690 -0.5376
  725MOL0     C95599   5.242   2.160   7.539 -0.1454  0.1950 -0.2642
  725MOL0     C95600   5.187   2.040   7.555  0.7152  0.4022 -0.0250
  725MOL0     C95601   5.042   2.037   7.557 -0.7864  0.1427 -0.2765
  725MOL0     C95602   4.964   2.153   7.538  0.7171  1.1289 -0.2038
  725MOL0     O95603   4.829   2.130   7.527 -0.4168 -0.1684  0.4945
  725MOL0     C95604   4.747   2.222   7.461 -0.1872 -0.7367  0.6499
  725MOL0     C95605   4.597   2.188   7.460 -0.1510  0.7445 -0.6194
  725MOL0     C95606   4.521   2.294   7.382  0.3584  0.3865  0.6566
  725MOL0     C95607   4.376   2.240   7.355 -0.6482  1.0340  0.4054
  725MOL0     C95608   4.294   2.331   7.260  0.0050 -0.4081  0.3286
  725MOL0     C95609   4.240   2.457   7.336  0.4793  0.1644  0.9252
  725MOL0     C95610   4.130   2.526   7.250  0.8036  0.1738 -0.8478
  725MOL0     C95611   4.047   2.620   7.339  0.7805 -0.0890 -0.5459
  725MOL0    Cl95612   3.936   2.529   7.450  0.1913  0.1073  0.1436
  725MOL0     C95613   5.030   2.276   7.508  0.4579  0.0565 -0.0970
  725MOL0     C95614   5.167   2.278   7.510 -0.3253  0.8607 -0.4604
  725MOL0     O95615   5.388   2.346   7.676  0.0464  0.1990  0.1195
  725MOL0     C95616   5.675   2.383   7.600  0.5648  0.5429 -1.0935
  725MOL0     C95617   5.815   2.374   7.570 -1.1159  0.8587 -0.4088
  725MOL0     N95618   6.306   2.568   7.195  0.2536  0.0189  0.7770
  725MOL0     N95619   6.361   2.683   7.216  0.4126  0.2587  0.4810
  725MOL0     C95620   7.461   3.201   7.666  0.0872 -0.6580 -0.0755
  725MOL0     C95621   7.592   3.162   7.657 -0.6618  0.0725 -1.1203
  725MOL0     C95622   7.972   2.920   7.672  0.3236  0.9315  0.3433
  725MOL0     C95623   8.047   2.921   7.560  1.3006 -0.3307  0.9304
  725MOL0     C95624   8.176   2.868   7.548  0.4231  0.3152 -0.1133
  725MOL0     C95625   8.243   2.816   7.667  0.3363 -1.1494 -0.3388
  725MOL0     O95626   8.373   2.779   7.650  0.6634  0.4069  0.1270
  725MOL0     C95627   8.430   2.719   7.769 -0.1665  0.1969 -0.3804
  725MOL0     C95628   8.562   2.650   7.734 -0.4078 -0.5931  0.2361
  725MOL0     C95629   8.681   2.754   7.742  0.8795 -0.5307 -0.6297
  725MOL0     C95630   8.823   2.684   7.740 -0.1365 -0.1340 -0.1313
  725MOL0     C95631   8.931   2.782   7.719 -0.1935 -1.2843  0.3260
  725MOL0     C95632   9.007   2.866   7.699 -0.4926 -0.3049 -0.5372
  725MOL0     C95633   8.171   2.825   7.793 -0.8207 -1.0949 -0.6537
  725MOL0     C95634   8.040   2.885   7.786 -0.5203  0.0892 -0.4697
  725MOL0     H95635   7.595   2.951   7.404  0.5684  0.2963 -0.2767
  725MOL0     H95636   7.342   3.015   7.402 -0.0729 -0.2504  0.9940
  725MOL0     H95637   7.183   3.348   7.676  0.8973 -0.2458  2.3439
  725MOL0     H95638   7.151   3.186   7.749  1.4136 -2.3328 -1.3297
  725MOL0     H95639   7.019   3.282   7.505  1.5580 -2.3952 -0.0163
  725MOL0     H95640   6.947   3.321   7.667 -0.7712  1.7081 -0.7252
  725MOL0     H95641   6.900   3.067   7.687 -1.0244  0.2759  0.5204
  725MOL0     H95642   6.999   3.042   7.547 -0.6884 -1.0476  0.5003
  725MOL0     H95643   6.762   3.209   7.499  0.0519  1.3572 -2.0151
  725MOL0     H95644   6.864   3.120   7.385 -0.7722  4.4680 -0.2365
  725MOL0     H95645   6.690   3.021   7.616  2.3248  0.2174  0.9154
  725MOL0     H95646   6.777   2.913   7.507  0.4807 -0.2907  1.2390
  725MOL0     H95647   6.653   3.036   7.302 -1.1860  3.4161  0.4113
  725MOL0     H95648   6.538   3.085   7.423  0.3280  0.9655 -2.5161
  725MOL0     H95649   6.511   2.839   7.503 -1.0723  0.7920 -0.1590
  725MOL0     H95650   6.431   2.904   7.354 -1.0707 -2.9044 -0.9272
  725MOL0     H95651   6.683   2.727   7.335 -0.6389  0.9721  2.6793
  725MOL0     H95652   6.605   2.809   7.204 -1.5859 -2.6477 -0.3049
  725MOL0     H95653   6.616   2.493   7.290  1.3883  1.2130  0.8975
  725MOL0     H95654   6.463   2.258   7.241 -0.1669  0.6612  1.6632
  725MOL0     H95655   6.404   2.310   7.093  0.3565 -1.0096  0.1526
  725MOL0     H95656   6.235   2.158   7.211 -0.8930 -0.3042 -1.9865
  725MOL0     H95657   6.180   2.311   7.134  2.1080  1.3117 -0.2681
  725MOL0     H95658   6.260   2.270   7.425 -1.0675  0.4107  0.3799
  725MOL0     H95659   6.179   2.410   7.361  1.4474  0.6309  0.3904
  725MOL0     H95660   6.068   2.132   7.345  1.2560 -0.1089 -0.5295
  725MOL0     H95661   5.974   2.266   7.309 -1.0235  2.6669  1.1811
  725MOL0     H95662   5.841   2.043   7.510 -1.0664 -0.5859  1.8384
  725MOL0     H95663   5.610   2.051   7.526  2.5724 -1.0668 -3.2477
  725MOL0     H95664   5.253   1.958   7.582  0.4355  1.1456  3.3747
  725MOL0     H95665   5.002   1.939   7.582  1.8059 -0.9138  0.1499
  725MOL0     H95666   4.778   2.230   7.357  2.8865  1.2344  1.5843
  725MOL0     H95667   4.757   2.320   7.508 -0.5162 -0.0253 -0.7149
  725MOL0     H95668   4.563   2.200   7.563  1.2221  0.1154 -0.0639
  725MOL0     H95669   4.562   2.092   7.422 -0.3745 -0.5174  2.5078
  725MOL0     H95670   4.564   2.299   7.282  1.3181  2.2166  1.0978
  725MOL0     H95671   4.526   2.392   7.431  0.1300 -0.1019  1.6978
  725MOL0     H95672   4.381   2.144   7.301  0.5028  0.6850  1.1036
  725MOL0     H95673   4.334   2.211   7.452  0.6502  1.2835  1.0546
  725MOL0     H95674   4.213   2.276   7.212 -1.9662 -1.5096  4.4578
  725MOL0     H95675   4.362   2.361   7.179 -0.3492 -0.0615  0.1606
  725MOL0     H95676   4.318   2.528   7.367  0.4600  0.1085  1.1041
  725MOL0     H95677   4.208   2.431   7.437  2.3289 -0.1809  1.4643
  725MOL0     H95678   4.168   2.586   7.168 -1.1031  1.4845 -0.8249
  725MOL0     H95679   4.056   2.455   7.212 -0.3579  0.2782  1.0807
  725MOL0     H95680   3.999   2.689   7.269 -0.5455  0.1178  0.5429
  725MOL0     H95681   4.109   2.689   7.398 -0.1017  2.2040 -2.1433
  725MOL0     H95682   4.980   2.364   7.469 -0.3105 -0.6973 -0.8795
  725MOL0     H95683   5.219   2.371   7.491  0.6391  0.5571  0.5822
  725MOL0     H95684   5.623   2.475   7.627  2.7781  1.7035 -0.5805
  725MOL0     H95685   5.885   2.457   7.566  1.4261 -1.0354  1.7171
  725MOL0     H95686   7.437   3.275   7.741  1.5810 -0.1093 -0.1118
  725MOL0     H95687   7.669   3.182   7.732  0.0885  0.6563 -2.0318
  725MOL0     H95688   8.001   2.969   7.474  2.7475  0.2487  0.4584
  725MOL0     H95689   8.225   2.854   7.452  1.1084 -2.2993  0.5315
  725MOL0     H95690   8.355   2.651   7.811  0.3588  0.3131  0.7841
  725MOL0     H95691   8.452   2.799   7.840  0.2434  2.8296 -3.2397
  725MOL0     H95692   8.576   2.581   7.818 -2.0734  0.2565  1.2590
  725MOL0     H95693   8.566   2.594   7.640 -2.1175  0.0461 -0.2545
  725MOL0     H95694   8.671   2.811   7.835  0.2378  0.5933 -1.3636
  725MOL0     H95695   8.676   2.832   7.665 -2.4973  0.9478  0.8373
  725MOL0     H95696   8.849   2.629   7.831 -1.0790  0.8834  0.7756
  725MOL0     H95697   8.833   2.609   7.661  3.0705 -1.1628  1.0797
  725MOL0     H95698   9.079   2.943   7.677 -0.0769 -0.6988 -0.5577
  725MOL0     H95699   8.218   2.808   7.889 -0.5559 -1.5390 -0.8611
  725MOL0     H95700   7.992   2.910   7.881 -0.0844  1.7717 -0.6652
  726MOL0     O95701   1.838   7.236   9.755  0.3061 -0.7175  0.1253
  726MOL0     C95702   1.929   7.272   9.832 -0.5173  0.8060  0.1928
  726MOL0     O95703   1.916   7.357   9.933 -0.1942 -0.3117 -0.8122
  726MOL0     C95704   1.785   7.401   9.963 -0.5083  0.6616  0.3398
  726MOL0     C95705   1.766   7.400  10.099 -0.3638 -0.3650  0.2764
  726MOL0     C95706   1.641   7.433  10.151 -0.6240 -1.5890  0.0145
  726MOL0     C95707   1.535   7.479  10.072 -0.5611 -0.1632  0.1096
  726MOL0     O95708   1.421   7.528  10.123 -0.1766 -0.2026 -0.5307
  726MOL0     C95709   1.429   7.583  10.258  0.7124  1.0497 -0.0699
  726MOL0     C95710   1.283   7.619  10.285  0.1539  0.2445 -0.2216
  726MOL0     C95711   1.189   7.494  10.266 -0.9368 -0.2622  0.5042
  726MOL0     C95712   1.067   7.501  10.357 -0.2843 -0.5987 -0.7950
  726MOL0     C95713   0.979   7.374  10.353 -0.2464 -0.3877 -0.5466
  726MOL0     C95714   0.901   7.360  10.219  0.2792 -0.7821 -0.2183
  726MOL0     C95715   0.784   7.258  10.231  0.0024  0.7009  1.2551
  726MOL0     C95716   0.710   7.245  10.089 -0.1066  0.0139 -0.4102
  726MOL0     N95717   0.601   7.144  10.089 -0.2050 -0.7221  0.4474
  726MOL0     C95718   0.632   7.014  10.063 -0.4749 -0.8257 -0.6704
  726MOL0     C95719   0.512   6.961  10.039 -0.4602  0.8846 -0.4229
  726MOL0     C95720   0.495   6.817  10.015  0.2340  0.2820  0.3837
  726MOL0     C95721   0.353   6.764   9.981  0.8444 -0.3043 -0.4064
  726MOL0     C95722   0.259   6.779  10.111 -0.5839 -1.0106 -0.2007
  726MOL0     C95723   0.127   6.696  10.103 -0.2432  0.3085  0.0242
  726MOL0     O95724   0.028   6.772  10.034 -0.2878 -0.3167 -0.2414
  726MOL0     C95725  -0.099   6.779  10.087 -0.0585 -0.1154  0.1062
  726MOL0     C95726  -0.189   6.869  10.039 -0.6623 -0.1210 -0.0554
  726MOL0     C95727  -0.315   6.877  10.085  0.9276  0.3762  0.1036
  726MOL0     C95728  -0.369   6.792  10.181  0.1560 -0.5186 -0.0257
  726MOL0     C95729  -0.504   6.823  10.231  0.4741  0.2388 -0.4321
  726MOL0     O95730  -0.528   6.806  10.361 -0.3701  0.0552 -0.1084
  726MOL0     C95731  -0.637   6.868  10.420  0.6865 -0.6168  0.7202
  726MOL0     C95732  -0.766   6.826  10.395 -0.7518  0.0079 -0.0868
  726MOL0     C95733  -0.873   6.869  10.482 -0.1438 -0.2130  0.4766
  726MOL0     C95734  -0.853   6.963  10.584  0.2956 -0.5783  0.0321
  726MOL0     O95735  -0.964   7.006  10.662  0.4204  0.1423  0.4204
  726MOL0     C95736  -0.945   7.123  10.748 -0.5165  0.2960  0.0486
  726MOL0     C95737  -1.086   7.135  10.824 -0.8555 -0.1968  0.0460
  726MOL0     C95738  -1.191   7.185  10.724  0.9325  0.4693 -0.3167
  726MOL0     C95739  -1.325   7.232  10.796 -0.1367 -0.5517  0.1807
  726MOL0     C95740  -1.428   7.274  10.696 -0.4469 -0.2136 -0.5235
  726MOL0     C95741  -1.564   7.294  10.766  0.0526  0.0869 -0.2507
  726MOL0     C95742  -1.683   7.325  10.669 -0.8294  0.1332  0.1615
  726MOL0     C95743  -1.820   7.341  10.733 -0.4071 -0.1432  0.5885
  726MOL0    Cl95744  -1.928   7.411  10.605  0.1523  0.1304  0.1774
  726MOL0     C95745  -0.725   7.003  10.613 -0.3472  0.4980  0.2452
  726MOL0     C95746  -0.622   6.958  10.521  0.3985  0.0100 -0.1844
  726MOL0     O95747  -0.585   6.849  10.153 -0.4012 -0.3981  0.6140
  726MOL0     C95748  -0.280   6.698  10.230  0.2918 -0.3926  0.3722
  726MOL0     C95749  -0.154   6.684  10.180 -0.3852  0.3613 -0.4268
  726MOL0     N95750   0.415   7.055  10.045  0.1495 -0.7699 -0.0117
  726MOL0     N95751   0.475   7.165  10.082  0.6772 -0.4687 -0.3836
  726MOL0     C95752   1.565   7.488   9.938 -0.3282 -0.0319  0.1189
  726MOL0     C95753   1.688   7.450   9.884 -0.2683 -0.3173 -0.5727
  726MOL0     C95754   2.073   7.232   9.793  0.1581  0.4260 -1.0713
  726MOL0     C95755   2.181   7.298   9.847  0.9020  0.0969  0.5298
  726MOL0     C95756   2.315   7.268   9.810 -0.1601  0.5278 -0.3929
  726MOL0     C95757   2.355   7.166   9.726  0.8483  0.0654  0.1911
  726MOL0     O95758   2.472   7.126   9.678 -0.2903 -0.3963 -0.0210
  726MOL0     C95759   2.597   7.178   9.714 -0.0302  0.4849 -0.7792
  726MOL0     C95760   2.628   7.296   9.622  0.1502  0.0209  0.2591
  726MOL0     C95761   2.679   7.255   9.476  0.3983 -0.8226  0.3946
  726MOL0     C95762   2.819   7.208   9.460 -0.3144  0.5988  0.2231
  726MOL0     C95763   2.914   7.312   9.476  0.0767 -0.4668  0.1525
  726MOL0     C95764   2.976   7.415   9.483 -0.7547  0.2055 -0.8524
  726MOL0     C95765   2.239   7.097   9.673  0.1579  0.1283 -0.4383
  726MOL0     C95766   2.107   7.128   9.709  0.0328  1.1124  0.2544
  726MOL0     H95767   1.853   7.381  10.161 -0.6733  0.2744  0.9246
  726MOL0     H95768   1.634   7.429  10.260  0.6425  1.8298  0.3231
  726MOL0     H95769   1.493   7.672  10.260 -0.6696  2.2102 -2.8049
  726MOL0     H95770   1.453   7.504  10.330 -0.2402  0.6625 -0.1736
  726MOL0     H95771   1.257   7.695  10.211  0.1227 -1.4115 -1.9845
  726MOL0     H95772   1.274   7.667  10.383 -1.6866  0.8589 -0.6386
  726MOL0     H95773   1.245   7.400  10.277  1.7783  1.4084  2.1173
  726MOL0     H95774   1.164   7.496  10.160  2.0665  0.5834 -0.2695
  726MOL0     H95775   1.092   7.522  10.461 -3.7695  0.7723 -0.1077
  726MOL0     H95776   1.003   7.584  10.325  0.3973  0.3636  0.2646
  726MOL0     H95777   0.913   7.373  10.440  0.8430  0.1779  0.3103
  726MOL0     H95778   1.045   7.287  10.361  2.4867  1.5213 -0.9705
  726MOL0     H95779   0.966   7.325  10.139 -1.9591 -2.5479 -1.3515
  726MOL0     H95780   0.862   7.455  10.183 -0.1941 -0.9040 -0.0373
  726MOL0     H95781   0.812   7.159  10.268  1.5073  1.1580  1.3998
  726MOL0     H95782   0.713   7.307  10.298  0.5295  0.2686  2.1495
  726MOL0     H95783   0.777   7.225  10.006  0.2992  0.2841 -0.1559
  726MOL0     H95784   0.666   7.342  10.060 -0.8571 -0.1040  0.2819
  726MOL0     H95785   0.729   6.966  10.060  1.6176  2.4236  3.9658
  726MOL0     H95786   0.534   6.766  10.103 -0.4811 -0.0536  0.5090
  726MOL0     H95787   0.564   6.789   9.935 -3.0604 -1.6304 -2.0495
  726MOL0     H95788   0.355   6.662   9.943  1.7832 -0.9150  1.1555
  726MOL0     H95789   0.318   6.836   9.906 -0.2769  3.5767  3.3977
  726MOL0     H95790   0.316   6.724  10.187  0.8204 -0.4656 -0.8127
  726MOL0     H95791   0.245   6.881  10.147  4.1842 -0.2144  0.0400
  726MOL0     H95792   0.099   6.669  10.205 -0.9875 -0.4525 -0.3697
  726MOL0     H95793   0.140   6.600  10.053 -0.3674  0.1244  0.3405
  726MOL0     H95794  -0.149   6.932   9.961 -0.9116 -2.1088 -1.8902
  726MOL0     H95795  -0.383   6.952  10.047 -1.8550 -1.6904  0.6638
  726MOL0     H95796  -0.780   6.759  10.311 -0.0828 -0.3313  0.0770
  726MOL0     H95797  -0.974   6.851  10.446 -0.1343  1.9103 -0.7354
  726MOL0     H95798  -0.920   7.213  10.690  2.2897 -1.1186 -1.0970
  726MOL0     H95799  -0.861   7.105  10.815  0.4832 -0.3033 -1.3154
  726MOL0     H95800  -1.083   7.207  10.907 -1.6517 -0.9377  0.7379
  726MOL0     H95801  -1.115   7.038  10.865  1.7516 -0.7109  0.8836
  726MOL0     H95802  -1.211   7.102  10.655 -1.6204 -2.2504  3.3119
  726MOL0     H95803  -1.155   7.267  10.661 -1.7174  3.3709  1.6191
  726MOL0     H95804  -1.373   7.151  10.852 -0.0563 -0.7949 -0.0995
  726MOL0     H95805  -1.303   7.314  10.865  2.0253 -0.3381 -0.6725
  726MOL0     H95806  -1.457   7.199  10.622 -0.4856 -0.4638 -0.2571
  726MOL0     H95807  -1.394   7.368  10.650 -1.0621 -0.3698 -1.3132
  726MOL0     H95808  -1.559   7.380  10.833 -1.7523 -0.2128  0.3085
  726MOL0     H95809  -1.589   7.211  10.832 -0.4820 -0.1470 -0.7325
  726MOL0     H95810  -1.655   7.407  10.602 -2.2941 -1.9095 -3.2403
  726MOL0     H95811  -1.680   7.241  10.599  2.3412  2.7450 -3.2574
  726MOL0     H95812  -1.824   7.414  10.814 -0.6435  1.0401 -0.4618
  726MOL0     H95813  -1.849   7.241  10.766  2.5158 -0.9391  0.9727
  726MOL0     H95814  -0.694   7.078  10.685 -1.6438  1.0266  0.2752
  726MOL0     H95815  -0.528   6.999  10.557 -0.7064  0.0990  2.9209
  726MOL0     H95816  -0.317   6.633  10.310 -0.6213  0.9997  1.1183
  726MOL0     H95817  -0.098   6.596  10.208  0.6928  1.9704  2.9787
  726MOL0     H95818   1.487   7.516   9.868  0.6156  1.7922 -0.2796
  726MOL0     H95819   1.706   7.450   9.777 -2.5487 -0.6347 -0.9954
  726MOL0     H95820   2.167   7.389   9.905  2.3551  0.5149  0.2675
  726MOL0     H95821   2.407   7.312   9.848 -0.7397 -0.2456  2.0297
  726MOL0     H95822   2.671   7.097   9.709 -0.5260 -0.7448  4.8237
  726MOL0     H95823   2.595   7.216   9.816 -0.1908 -2.7200  0.5429
  726MOL0     H95824   2.532   7.345   9.603  0.7971  0.8039 -1.2101
  726MOL0     H95825   2.702   7.361   9.670  2.6792 -3.8968  2.0912
  726MOL0     H95826   2.661   7.340   9.410 -1.2486 -0.0506  1.7329
  726MOL0     H95827   2.617   7.182   9.423 -0.0845  0.1181 -0.3633
  726MOL0     H95828   2.851   7.130   9.530  0.9300 -0.8436 -1.8309
  726MOL0     H95829   2.836   7.158   9.364  1.5003 -1.1745  1.3729
  726MOL0     H95830   3.031   7.507   9.493 -0.1105 -0.2853  0.3563
  726MOL0     H95831   2.257   7.010   9.611 -0.0086  1.0294 -1.8018
  726MOL0     H95832   2.025   7.081   9.656  0.6945 -1.0628  1.0177
  727MOL0     O95833   7.821   1.562   1.472 -0.1353 -0.8198  0.2642
  727MOL0     C95834   7.929   1.614   1.441 -0.3711  0.2733  0.5414
  727MOL0     O95835   7.943   1.737   1.376  0.1355  0.3100 -0.3503
  727MOL0     C95836   7.823   1.787   1.327  0.6083 -1.1497 -1.0299
  727MOL0     C95837   7.748   1.730   1.221 -0.1710  0.6848  0.2379
  727MOL0     C95838   7.611   1.764   1.204  0.6280  0.4203 -0.0618
  727MOL0     C95839   7.558   1.869   1.284  0.6756 -0.6027  0.6261
  727MOL0     O95840   7.421   1.900   1.256 -0.1888 -0.0550 -0.0626
  727MOL0     C95841   7.352   1.988   1.349 -0.1445 -0.4247 -0.1099
  727MOL0     C95842   7.203   1.982   1.310  0.3297  0.2377 -0.1912
  727MOL0     C95843   7.138   2.113   1.355 -0.3831  0.0005 -0.3695
  727MOL0     C95844   6.983   2.096   1.326  0.2749  0.4397  0.2662
  727MOL0     C95845   6.887   2.210   1.362 -0.4639 -0.1301  1.4380
  727MOL0     C95846   6.937   2.349   1.322 -0.5484 -0.1399  0.6523
  727MOL0     C95847   6.831   2.458   1.339  0.1091  0.3506  0.1017
  727MOL0     C95848   6.782   2.481   1.482  0.2141  0.4390  0.0474
  727MOL0     N95849   6.714   2.612   1.489 -0.5083 -0.4020 -0.5975
  727MOL0     C95850   6.605   2.658   1.418  0.3082  0.0554  0.2009
  727MOL0     C95851   6.571   2.773   1.477  0.1156  0.3024 -0.4561
  727MOL0     C95852   6.450   2.853   1.429 -0.2335 -0.1829 -0.5630
  727MOL0     C95853   6.490   2.917   1.292  0.2946 -0.2821  0.1582
  727MOL0     C95854   6.423   2.863   1.168  0.5612 -0.5204  0.7017
  727MOL0     C95855   6.267   2.864   1.174 -0.0751 -0.2532 -0.6710
  727MOL0     O95856   6.223   2.997   1.169 -0.6163 -0.4480  0.1927
  727MOL0     C95857   6.094   3.030   1.137 -0.0451 -0.3368  0.1992
  727MOL0     C95858   6.066   3.166   1.116 -0.4039  0.3897  0.6038
  727MOL0     C95859   5.936   3.204   1.081 -0.4817 -0.1469  0.0618
  727MOL0     C95860   5.836   3.112   1.056 -0.3113 -0.4712 -0.3053
  727MOL0     C95861   5.695   3.145   1.025  0.1483  0.1475 -0.3923
  727MOL0     O95862   5.665   3.283   1.025 -0.7741  0.1714  0.2348
  727MOL0     C95863   5.536   3.316   1.014  0.1918 -0.8807  0.0798
  727MOL0     C95864   5.475   3.389   1.114 -0.4342  0.4926  0.2547
  727MOL0     C95865   5.338   3.434   1.105 -0.2324 -0.5499 -0.2810
  727MOL0     C95866   5.262   3.391   0.998  0.7430  0.3515 -0.9745
  727MOL0     O95867   5.127   3.413   0.982  0.1106  0.1369  0.0210
  727MOL0     C95868   5.050   3.395   1.099 -0.3580  0.0078  0.7356
  727MOL0     C95869   4.914   3.333   1.070 -0.4518  0.7584 -0.8671
  727MOL0     C95870   4.825   3.421   0.986  0.0878  0.1734 -0.2634
  727MOL0     C95871   4.685   3.386   0.996 -0.4541  0.6542  0.2497
  727MOL0     C95872   4.594   3.457   0.896  0.0426 -0.3835 -0.2527
  727MOL0     C95873   4.452   3.469   0.961 -0.0932 -0.5092 -0.2170
  727MOL0     C95874   4.355   3.548   0.858 -0.8559 -0.3748 -0.1989
  727MOL0     C95875   4.265   3.456   0.774  0.6677  0.4994  0.1088
  727MOL0    Cl95876   4.132   3.570   0.741  0.7070 -0.2137  0.2476
  727MOL0     C95877   5.311   3.297   0.910 -0.4374  0.5978 -0.2315
  727MOL0     C95878   5.455   3.274   0.910 -0.5505  0.3238  0.2277
  727MOL0     O95879   5.612   3.048   1.031 -0.1282 -0.5218  0.2511
  727MOL0     C95880   5.866   2.979   1.076  0.2082  1.0569  0.2317
  727MOL0     C95881   5.993   2.930   1.113 -0.5426 -0.9569  0.4810
  727MOL0     N95882   6.659   2.792   1.579 -0.2433 -0.0764  0.4458
  727MOL0     N95883   6.741   2.703   1.583 -0.3552  0.1068 -0.6577
  727MOL0     C95884   7.631   1.927   1.390  0.6462 -0.5961  0.2295
  727MOL0     C95885   7.758   1.884   1.412  1.2973  0.4895  0.3181
  727MOL0     C95886   8.051   1.538   1.479 -0.3842 -0.0524 -0.4802
  727MOL0     C95887   8.175   1.575   1.420  0.9813  0.2069 -0.7683
  727MOL0     C95888   8.288   1.506   1.458  0.1230  0.8201 -0.1017
  727MOL0     C95889   8.286   1.406   1.565  0.8612 -0.0105  0.8746
  727MOL0     O95890   8.395   1.341   1.621 -0.7823 -0.1522 -0.4919
  727MOL0     C95891   8.517   1.377   1.553  0.0222 -0.5739  0.8371
  727MOL0     C95892   8.631   1.283   1.585 -0.2147  0.6825 -0.4446
  727MOL0     C95893   8.595   1.135   1.592 -0.0799  0.6886  0.4419
  727MOL0     C95894   8.718   1.042   1.542 -0.1089  0.1942 -0.0791
  727MOL0     C95895   8.845   1.079   1.600 -0.2831 -0.1879 -1.0287
  727MOL0     C95896   8.951   1.113   1.646  0.1436  0.8075  0.0759
  727MOL0     C95897   8.166   1.381   1.619  0.4008  0.2817 -0.1263
  727MOL0     C95898   8.045   1.441   1.576  0.5841 -0.2114  0.9129
  727MOL0     H95899   7.801   1.664   1.154 -0.2930  1.4283 -0.6154
  727MOL0     H95900   7.556   1.712   1.126  1.0140 -3.2949  1.8884
  727MOL0     H95901   7.383   2.093   1.346 -0.5289 -0.2472  1.4979
  727MOL0     H95902   7.363   1.956   1.453 -0.7299 -0.0259  0.0798
  727MOL0     H95903   7.145   1.902   1.359 -0.6636  2.0441  1.7340
  727MOL0     H95904   7.202   1.969   1.201 -0.5502  0.1366 -0.1792
  727MOL0     H95905   7.186   2.202   1.313 -0.3462  1.9150  3.3211
  727MOL0     H95906   7.163   2.126   1.460 -1.3588  0.2303 -0.1644
  727MOL0     H95907   6.968   2.079   1.219 -3.8843 -1.4501  0.9811
  727MOL0     H95908   6.940   2.009   1.375 -1.9734  2.4922  2.1752
  727MOL0     H95909   6.880   2.208   1.472  0.2234 -0.9858  1.4767
  727MOL0     H95910   6.791   2.203   1.310  0.1171  1.3122  0.1196
  727MOL0     H95911   6.982   2.355   1.223 -0.9882  0.2553  0.4675
  727MOL0     H95912   7.010   2.381   1.397 -2.6323  0.1478  2.6781
  727MOL0     H95913   6.880   2.549   1.304 -1.0490  0.3762 -1.5345
  727MOL0     H95914   6.750   2.431   1.271 -0.4764  2.8848 -0.2760
  727MOL0     H95915   6.863   2.466   1.555  2.4971 -0.4250 -2.4944
  727MOL0     H95916   6.707   2.403   1.494  0.3939  0.3210  0.4305
  727MOL0     H95917   6.554   2.613   1.333  0.0588  1.4271 -0.3992
  727MOL0     H95918   6.413   2.930   1.497 -3.0907 -1.8089 -0.0630
  727MOL0     H95919   6.359   2.793   1.415  0.6063 -1.5565 -0.2600
  727MOL0     H95920   6.595   2.920   1.264 -0.3196  0.0533 -2.3538
  727MOL0     H95921   6.450   3.019   1.299 -2.9647 -1.3740 -0.5389
  727MOL0     H95922   6.442   2.934   1.086 -0.1996  0.0531  1.0085
  727MOL0     H95923   6.445   2.760   1.141 -3.5422 -1.2461 -0.6969
  727MOL0     H95924   6.235   2.824   1.271  0.6219  1.4514  0.3171
  727MOL0     H95925   6.230   2.804   1.091  1.7735  0.8402 -2.3787
  727MOL0     H95926   6.137   3.247   1.129 -1.6621  2.3097 -3.0184
  727MOL0     H95927   5.915   3.310   1.077  3.2873  0.7686  1.2208
  727MOL0     H95928   5.537   3.420   1.198 -2.0582  0.0549  1.6826
  727MOL0     H95929   5.295   3.502   1.177  1.5542 -1.7183  2.0123
  727MOL0     H95930   5.023   3.492   1.140 -1.9494  0.5266 -1.4007
  727MOL0     H95931   5.099   3.327   1.170  0.2926  0.4307  0.6970
  727MOL0     H95932   4.863   3.313   1.165 -0.6505 -0.9000 -1.2922
  727MOL0     H95933   4.930   3.232   1.031 -1.7498 -1.9647  4.6323
  727MOL0     H95934   4.846   3.400   0.881  3.3637 -1.5981  0.6078
  727MOL0     H95935   4.829   3.529   1.006 -4.1576  0.0984  2.2409
  727MOL0     H95936   4.682   3.279   0.972 -2.8666  0.2642  1.9756
  727MOL0     H95937   4.641   3.392   1.096  0.7304  1.7100  0.7273
  727MOL0     H95938   4.579   3.410   0.799 -2.2865  1.3292 -0.8208
  727MOL0     H95939   4.624   3.560   0.875 -0.4562  0.0318  0.9878
  727MOL0     H95940   4.462   3.535   1.048  2.6822  1.2546 -1.7234
  727MOL0     H95941   4.415   3.370   0.991  0.0973 -0.4713  0.1553
  727MOL0     H95942   4.290   3.614   0.916  0.0205 -1.6326  2.3842
  727MOL0     H95943   4.419   3.606   0.791 -1.6694 -1.8314 -2.3704
  727MOL0     H95944   4.222   3.382   0.842 -0.3219  2.3972  1.6312
  727MOL0     H95945   4.312   3.410   0.687 -1.0881 -2.8287  0.7660
  727MOL0     H95946   5.258   3.249   0.828 -0.7761 -0.0909  0.3799
  727MOL0     H95947   5.504   3.215   0.834 -0.4010  0.4928  0.1940
  727MOL0     H95948   5.789   2.903   1.072 -0.1181  1.2911  1.6501
  727MOL0     H95949   6.008   2.823   1.122 -1.8079 -1.0564  1.9449
  727MOL0     H95950   7.590   2.009   1.448 -1.6675 -2.3663  1.2230
  727MOL0     H95951   7.823   1.915   1.493  2.4665 -0.0314 -0.3983
  727MOL0     H95952   8.182   1.656   1.349  0.4082 -0.4111 -1.5533
  727MOL0     H95953   8.382   1.530   1.409 -0.2948  2.3317 -0.1978
  727MOL0     H95954   8.545   1.482   1.570  3.8510 -1.3307  0.0494
  727MOL0     H95955   8.511   1.357   1.446 -0.2903 -0.7534  0.8865
  727MOL0     H95956   8.702   1.285   1.502  1.3815 -3.0033  0.5727
  727MOL0     H95957   8.675   1.299   1.684  0.5590  0.0947 -0.6741
  727MOL0     H95958   8.501   1.109   1.543  0.5967  1.9779 -1.6267
  727MOL0     H95959   8.580   1.099   1.695  2.1737  0.9939  0.9337
  727MOL0     H95960   8.699   0.940   1.576 -0.2832 -0.2473 -1.4429
  727MOL0     H95961   8.736   1.044   1.434  1.5403  1.8331  0.1886
  727MOL0     H95962   9.052   1.139   1.671  0.8194  0.1218 -1.7285
  727MOL0     H95963   8.164   1.306   1.699 -0.3956 -0.1991 -0.5784
  727MOL0     H95964   7.949   1.432   1.626  0.3278  0.3178  0.5267
  728MOL0     O95965   9.169   8.643   0.250 -0.3664  0.0458 -0.0664
  728MOL0     C95966   9.202   8.741   0.318 -0.7400 -0.4708 -0.5226
  728MOL0     O95967   9.116   8.843   0.359 -0.1448 -0.4282 -0.0266
  728MOL0     C95968   8.978   8.836   0.371 -0.8403  0.3907 -0.0483
  728MOL0     C95969   8.901   8.747   0.444 -0.4404  0.1246 -0.5184
  728MOL0     C95970   8.760   8.758   0.446 -0.1462 -0.5291 -1.2847
  728MOL0     C95971   8.700   8.865   0.374  0.0619  1.1914 -0.2008
  728MOL0     O95972   8.566   8.890   0.377 -0.6810  0.4310 -0.1626
  728MOL0     C95973   8.482   8.810   0.467  0.0931 -0.1969  0.5659
  728MOL0     C95974   8.354   8.891   0.460 -0.0022  0.5571 -0.3744
  728MOL0     C95975   8.235   8.790   0.438 -0.2239 -0.3055  0.2786
  728MOL0     C95976   8.088   8.835   0.437  0.7526 -0.2066  0.8335
  728MOL0     C95977   8.054   8.927   0.316 -1.2062  0.0351 -0.4174
  728MOL0     C95978   8.090   8.879   0.173  0.4244 -0.0797  0.0788
  728MOL0     C95979   8.027   8.971   0.066 -0.5535 -0.0154 -0.4357
  728MOL0     C95980   8.061   9.122   0.065  0.9168 -0.2914 -0.3620
  728MOL0     N95981   8.049   9.177  -0.072 -0.3805  0.1982 -0.9010
  728MOL0     C95982   8.142   9.159  -0.166 -0.7102 -0.6846  0.2469
  728MOL0     C95983   8.088   9.230  -0.278  0.4346  0.3442 -0.8737
  728MOL0     C95984   8.152   9.244  -0.410 -0.2238 -0.4316 -0.5614
  728MOL0     C95985   8.302   9.281  -0.380 -0.8301 -0.1429  0.1820
  728MOL0     C95986   8.314   9.406  -0.288 -0.1681 -0.0118 -0.7929
  728MOL0     C95987   8.441   9.475  -0.317 -0.0092 -0.1579 -0.6286
  728MOL0     O95988   8.470   9.577  -0.222 -0.2373  0.5052 -0.1252
  728MOL0     C95989   8.603   9.620  -0.210  0.3598 -0.1366 -0.1810
  728MOL0     C95990   8.703   9.592  -0.308 -0.6324  0.5671 -0.8847
  728MOL0     C95991   8.827   9.644  -0.289  0.0518 -0.0729 -0.8112
  728MOL0     C95992   8.860   9.721  -0.177 -0.0773  0.0604 -0.0499
  728MOL0     C95993   8.996   9.773  -0.169 -0.8118  0.5429 -0.1390
  728MOL0     O95994   9.075   9.775  -0.274  0.0822  0.1653  0.2901
  728MOL0     C95995   9.196   9.840  -0.260  0.5250 -0.4953  0.1515
  728MOL0     C95996   9.215   9.971  -0.308 -0.3015  0.3854  0.3912
  728MOL0     C95997   9.330  10.033  -0.284 -0.1865 -0.5935  0.2724
  728MOL0     C95998   9.439   9.969  -0.223 -0.8007  0.1613  0.4373
  728MOL0     O95999   9.558  10.021  -0.207 -0.6240  0.0275 -0.6234
  728MOL0     C96000   9.588  10.163  -0.232  0.1469  0.6859 -0.0449
  728MOL0     C96001   9.731  10.181  -0.167  0.1005  0.7976  0.3277
  728MOL0     C96002   9.844  10.091  -0.227 -0.2574 -0.5020  0.5290
  728MOL0     C96003   9.978  10.127  -0.146 -0.6924 -0.0617 -1.2604
  728MOL0     C96004  10.102  10.053  -0.185 -0.4821 -0.3528  0.3385
  728MOL0     C96005  10.133  10.072  -0.331 -0.9899 -0.1515 -0.2961
  728MOL0     C96006  10.276  10.032  -0.361  0.2754  0.4195  0.8731
  728MOL0     C96007  10.367  10.149  -0.299  0.2483  0.5881  0.7847
  728MOL0    Cl96008  10.522  10.141  -0.387 -0.3738  0.0295 -0.2109
  728MOL0     C96009   9.431   9.832  -0.191  0.6843 -0.2425  0.3730
  728MOL0     C96010   9.304   9.770  -0.212 -0.3997  0.0810 -1.1944
  728MOL0     O96011   9.031   9.803  -0.055  0.1369 -0.1567 -0.2498
  728MOL0     C96012   8.765   9.751  -0.077  0.5157  0.4381  0.5384
  728MOL0     C96013   8.637   9.710  -0.097  0.7269 -1.0159  1.0398
  728MOL0     N96014   7.969   9.284  -0.241  0.3176  0.0691  0.3774
  728MOL0     N96015   7.947   9.253  -0.125  0.1010  0.6230 -0.0143
  728MOL0     C96016   8.779   8.952   0.296  0.2586 -0.1952 -0.1578
  728MOL0     C96017   8.914   8.936   0.301 -0.2215  0.9021 -0.1370
  728MOL0     C96018   9.347   8.754   0.353 -0.7313  0.7058 -0.5569
  728MOL0     C96019   9.433   8.640   0.348  0.8115 -0.3196  0.4597
  728MOL0     C96020   9.572   8.661   0.369  0.1031  0.0665 -0.4478
  728MOL0     C96021   9.632   8.788   0.396  0.4397  0.3363  0.1277
  728MOL0     O96022   9.759   8.814   0.422 -0.4729 -0.3052 -0.6032
  728MOL0     C96023   9.864   8.738   0.373 -0.5819  0.3552  0.1199
  728MOL0     C96024   9.867   8.751   0.221 -0.5895  1.0646 -0.0496
  728MOL0     C96025   9.872   8.893   0.156 -0.4586 -0.2374  0.5054
  728MOL0     C96026   9.980   8.980   0.222 -0.2269 -0.3264 -0.9198
  728MOL0     C96027  10.117   8.919   0.216  0.3037 -0.6091  0.0575
  728MOL0     C96028  10.233   8.883   0.216  0.2258  0.5783  0.2265
  728MOL0     C96029   9.539   8.890   0.412  0.3579 -0.0132 -0.4516
  728MOL0     C96030   9.400   8.877   0.392 -0.2534 -0.5910  0.5325
  728MOL0     H96031   8.951   8.665   0.495 -0.4107 -0.2060 -1.0713
  728MOL0     H96032   8.698   8.685   0.498  0.7201 -0.9336 -0.7866
  728MOL0     H96033   8.511   8.815   0.572 -0.8595  1.7119  0.7903
  728MOL0     H96034   8.473   8.710   0.426  0.9495  0.0042 -0.1451
  728MOL0     H96035   8.353   8.969   0.383  0.9630 -0.6900 -1.6992
  728MOL0     H96036   8.327   8.931   0.559  0.5923  1.9057 -0.7373
  728MOL0     H96037   8.244   8.725   0.525  1.5281  0.1336  0.4681
  728MOL0     H96038   8.258   8.730   0.350 -1.9420  0.2883 -0.6377
  728MOL0     H96039   8.014   8.754   0.436  0.4084 -0.0013  3.5466
  728MOL0     H96040   8.079   8.892   0.530  1.2633  2.5915 -0.7108
  728MOL0     H96041   8.102   9.023   0.334  1.2029 -1.2301  0.3913
  728MOL0     H96042   7.945   8.935   0.324 -1.4085 -1.6652 -0.9302
  728MOL0     H96043   8.056   8.775   0.180 -0.0785  0.1905  2.9284
  728MOL0     H96044   8.196   8.874   0.149  0.4188 -4.1737  0.2202
  728MOL0     H96045   8.055   8.910  -0.020  0.7652 -1.8995  1.2351
  728MOL0     H96046   7.919   8.966   0.085 -0.9606 -1.8023 -2.8353
  728MOL0     H96047   8.163   9.136   0.103  1.4574 -5.1724  0.6718
  728MOL0     H96048   7.991   9.186   0.118 -0.3688 -0.3475 -1.9328
  728MOL0     H96049   8.237   9.107  -0.159  0.1736  1.0672  2.7066
  728MOL0     H96050   8.096   9.326  -0.455 -2.2115 -1.5125 -0.1698
  728MOL0     H96051   8.134   9.157  -0.473  0.1534 -1.3790  0.6059
  728MOL0     H96052   8.344   9.296  -0.479 -2.3363 -0.9909 -0.6226
  728MOL0     H96053   8.362   9.198  -0.340  0.1582  0.1950 -0.5580
  728MOL0     H96054   8.231   9.477  -0.292 -0.7278 -0.6685 -1.1725
  728MOL0     H96055   8.320   9.370  -0.185 -1.1253 -0.8652 -1.0171
  728MOL0     H96056   8.442   9.512  -0.419  1.1033 -1.8818 -1.2950
  728MOL0     H96057   8.527   9.408  -0.311  1.9066  2.1946 -0.1882
  728MOL0     H96058   8.680   9.538  -0.399  0.6241 -2.7117  0.5676
  728MOL0     H96059   8.902   9.623  -0.364  0.8080  0.6311 -0.2672
  728MOL0     H96060   9.127  10.025  -0.343 -1.2350 -0.1390  1.8232
  728MOL0     H96061   9.331  10.138  -0.311 -2.3965 -0.7153 -0.4682
  728MOL0     H96062   9.524  10.227  -0.172 -0.9760 -0.0445 -0.4250
  728MOL0     H96063   9.576  10.189  -0.338 -4.3135 -0.6595 -0.0492
  728MOL0     H96064   9.726  10.163  -0.059  0.0915  0.1317  0.2212
  728MOL0     H96065   9.748  10.285  -0.195  0.5462 -0.2632 -3.9638
  728MOL0     H96066   9.853  10.107  -0.335  0.6711  2.0341  0.8989
  728MOL0     H96067   9.813   9.988  -0.209  0.4391 -0.4922  1.8967
  728MOL0     H96068   9.986  10.236  -0.151  1.0045 -0.1999 -2.4447
  728MOL0     H96069   9.962  10.114  -0.039  2.1685 -0.0041 -0.7480
  728MOL0     H96070  10.089   9.947  -0.162  2.0210 -0.9744 -0.8163
  728MOL0     H96071  10.166  10.102  -0.111 -1.6864  0.8960  0.6106
  728MOL0     H96072  10.128  10.177  -0.364 -1.0191  0.4544  1.5556
  728MOL0     H96073  10.062  10.011  -0.389  1.6509  0.4320 -4.5854
  728MOL0     H96074  10.303   9.944  -0.303 -0.6910 -1.5320 -1.4558
  728MOL0     H96075  10.277  10.021  -0.470 -3.5261 -0.6622  0.8356
  728MOL0     H96076  10.376  10.130  -0.192 -0.0275 -1.7603  0.4560
  728MOL0     H96077  10.332  10.251  -0.315 -1.3393  0.1564  1.2616
  728MOL0     H96078   9.509   9.781  -0.135 -0.2698  0.1696  2.1369
  728MOL0     H96079   9.294   9.669  -0.175 -0.3536  0.3999 -0.2938
  728MOL0     H96080   8.791   9.801   0.016 -1.4605  0.2282  1.2522
  728MOL0     H96081   8.576   9.729  -0.010  1.8183  3.0048  1.1568
  728MOL0     H96082   8.739   9.025   0.226 -2.0056 -0.3834  0.8851
  728MOL0     H96083   8.985   8.994   0.242 -2.9818  2.1365 -2.5294
  728MOL0     H96084   9.387   8.542   0.335  1.3865 -0.5813  0.4016
  728MOL0     H96085   9.632   8.572   0.351  0.4730  0.4115 -0.9712
  728MOL0     H96086   9.855   8.630   0.389  1.8060  0.0523 -0.1010
  728MOL0     H96087   9.956   8.772   0.422  1.3434 -2.1420 -1.4417
  728MOL0     H96088   9.959   8.695   0.202 -1.6677 -0.1812 -1.7738
  728MOL0     H96089   9.787   8.689   0.183  1.2797 -1.6976  0.2415
  728MOL0     H96090   9.773   8.934   0.176 -0.8358 -1.2523  0.7772
  728MOL0     H96091   9.898   8.873   0.051  1.2324  0.0728  0.8262
  728MOL0     H96092   9.983   9.075   0.168  1.7796 -0.3197 -0.8409
  728MOL0     H96093   9.960   9.008   0.326 -0.1242  0.9776 -1.2393
  728MOL0     H96094  10.331   8.840   0.212 -0.6467 -1.4071 -1.0254
  728MOL0     H96095   9.586   8.983   0.441  2.3920 -1.9695  3.4402
  728MOL0     H96096   9.341   8.968   0.396 -0.2076 -0.4264 -1.6017
  729MOL0     O96097   6.869   5.599   4.747  0.3826 -0.0991  0.5607
  729MOL0     C96098   6.858   5.718   4.779  0.8692  0.5905  0.3586
  729MOL0     O96099   6.735   5.776   4.803  0.0414 -0.4479 -0.0810
  729MOL0     C96100   6.623   5.725   4.743  0.3347 -0.2635 -0.8403
  729MOL0     C96101   6.613   5.640   4.631 -0.0173 -0.1829  0.7349
  729MOL0     C96102   6.484   5.614   4.572  0.6252  0.5346  0.0610
  729MOL0     C96103   6.365   5.656   4.635  0.2105 -0.0326  0.2626
  729MOL0     O96104   6.242   5.605   4.586 -0.7568  0.1271  0.6439
  729MOL0     C96105   6.121   5.680   4.613  0.3006  0.0321  0.0785
  729MOL0     C96106   5.993   5.604   4.581 -1.2696  1.2605 -0.0110
  729MOL0     C96107   5.871   5.698   4.575 -0.3291  0.0883  0.6267
  729MOL0     C96108   5.741   5.624   4.568  0.1178  0.1338  0.1593
  729MOL0     C96109   5.620   5.705   4.523 -0.0520 -0.3309 -1.1925
  729MOL0     C96110   5.483   5.654   4.572  0.7257  0.5091 -0.6341
  729MOL0     C96111   5.361   5.708   4.489  0.5904  0.1203 -1.1056
  729MOL0     C96112   5.368   5.861   4.502 -0.0622 -0.3469 -0.4646
  729MOL0     N96113   5.242   5.908   4.446  0.3055  0.0442 -0.0142
  729MOL0     C96114   5.129   5.934   4.516  0.7740  0.0134 -0.0193
  729MOL0     C96115   5.033   5.966   4.429 -0.6520  0.3654  0.4082
  729MOL0     C96116   4.893   6.007   4.463  0.2408 -0.5461  0.0025
  729MOL0     C96117   4.827   5.900   4.550 -0.3469 -0.1331  0.7215
  729MOL0     C96118   4.694   5.933   4.629 -1.1042 -1.0581 -0.0239
  729MOL0     C96119   4.650   5.815   4.722  0.5407 -0.8273  0.4377
  729MOL0     O96120   4.595   5.706   4.640 -0.0546 -0.0973 -0.3086
  729MOL0     C96121   4.476   5.715   4.564 -0.2218  0.0229 -0.3816
  729MOL0     C96122   4.438   5.602   4.488 -0.1465  0.1694 -0.1105
  729MOL0     C96123   4.324   5.607   4.404  0.3514  0.7893  0.6545
  729MOL0     C96124   4.245   5.724   4.395  0.7444 -0.4102  0.3322
  729MOL0     C96125   4.128   5.730   4.310 -0.0111 -0.1945  0.3867
  729MOL0     O96126   4.116   5.636   4.216  0.1551 -0.3829 -0.0332
  729MOL0     C96127   3.990   5.610   4.153 -0.4523 -0.6348 -0.0194
  729MOL0     C96128   3.911   5.712   4.090 -0.4276 -0.2991 -0.5364
  729MOL0     C96129   3.794   5.678   4.022  0.1598  0.4317 -0.1424
  729MOL0     C96130   3.748   5.546   4.006  0.7130  0.4656 -0.7626
  729MOL0     O96131   3.619   5.516   3.954 -0.5668 -0.5259 -0.4095
  729MOL0     C96132   3.512   5.561   4.043  0.0072  0.7661 -0.0175
  729MOL0     C96133   3.386   5.477   4.018 -0.2124 -0.1977 -0.0925
  729MOL0     C96134   3.327   5.514   3.880  0.7360 -0.6409  0.0111
  729MOL0     C96135   3.203   5.428   3.846 -0.5242  0.3483 -0.6217
  729MOL0     C96136   3.081   5.466   3.918  0.6673 -0.1195 -0.3598
  729MOL0     C96137   2.974   5.355   3.883 -0.0589 -0.1637 -0.2349
  729MOL0     C96138   2.832   5.395   3.928  0.4593 -0.3471  0.4857
  729MOL0     C96139   2.731   5.310   3.852  0.0803 -1.0193  0.8044
  729MOL0    Cl96140   2.751   5.133   3.888  0.0617  0.2313 -0.0507
  729MOL0     C96141   3.822   5.453   4.079 -0.7217  0.6430  0.0672
  729MOL0     C96142   3.935   5.480   4.148 -1.0330  0.4202  0.0993
  729MOL0     O96143   4.044   5.818   4.335 -0.3948  0.0121  0.4403
  729MOL0     C96144   4.277   5.837   4.471 -0.1260  0.5865  0.5965
  729MOL0     C96145   4.391   5.830   4.559 -0.0324 -0.0059  0.6998
  729MOL0     N96146   5.099   5.962   4.302 -0.3075  0.8553 -0.7724
  729MOL0     N96147   5.221   5.927   4.314 -0.1394 -0.1159  0.9058
  729MOL0     C96148   6.380   5.728   4.753  0.1143  0.4639 -1.2872
  729MOL0     C96149   6.501   5.760   4.804  0.4555 -0.6001 -0.5294
  729MOL0     C96150   6.976   5.797   4.819 -0.4233 -0.6533 -0.4747
  729MOL0     C96151   6.977   5.930   4.868 -0.6240  0.7328  0.5000
  729MOL0     C96152   7.089   5.996   4.910  0.3434 -0.5183  1.4060
  729MOL0     C96153   7.215   5.939   4.916  0.5367  0.2356  0.2319
  729MOL0     O96154   7.319   6.020   4.938  0.0190 -0.7261 -0.0461
  729MOL0     C96155   7.451   5.975   4.908  0.3252 -0.0535 -0.4697
  729MOL0     C96156   7.526   6.101   4.868  0.4814  0.1376 -0.1077
  729MOL0     C96157   7.674   6.080   4.906  0.4730  0.3086 -0.1858
  729MOL0     C96158   7.757   5.994   4.816  0.3418  0.6131 -0.1043
  729MOL0     C96159   7.888   6.044   4.820  0.5119  0.2512 -0.1360
  729MOL0     C96160   8.004   6.066   4.802 -0.2367 -0.1208  0.0811
  729MOL0     C96161   7.221   5.804   4.862  0.2781 -0.0718 -0.4144
  729MOL0     C96162   7.102   5.738   4.823 -0.5356 -0.2592 -0.1923
  729MOL0     H96163   6.704   5.608   4.580  1.8586  1.8136  2.6292
  729MOL0     H96164   6.480   5.564   4.476  0.6160  0.7458 -0.0487
  729MOL0     H96165   6.116   5.767   4.546  0.0970 -0.7096 -0.9080
  729MOL0     H96166   6.118   5.712   4.717  0.8863  0.9159 -0.1729
  729MOL0     H96167   5.978   5.542   4.671 -1.3813 -2.7434 -2.5209
  729MOL0     H96168   6.010   5.531   4.501  2.4213  1.7376  0.1708
  729MOL0     H96169   5.872   5.766   4.490 -2.5028  0.1645  0.6003
  729MOL0     H96170   5.862   5.762   4.663  0.1663  0.3406  0.4958
  729MOL0     H96171   5.759   5.555   4.485 -0.4678 -1.8010  1.5774
  729MOL0     H96172   5.734   5.560   4.657  3.9944 -1.4940 -0.4944
  729MOL0     H96173   5.623   5.704   4.414 -0.1926 -0.6501 -1.1928
  729MOL0     H96174   5.627   5.809   4.558 -0.7612 -1.0774  1.3811
  729MOL0     H96175   5.464   5.674   4.678  0.9848 -4.1457  0.5210
  729MOL0     H96176   5.470   5.545   4.563 -4.1266  0.9816 -1.9751
  729MOL0     H96177   5.373   5.676   4.385 -1.1538 -0.9653 -1.0060
  729MOL0     H96178   5.272   5.676   4.544  0.8575  1.6953  0.3132
  729MOL0     H96179   5.448   5.896   4.436 -0.5010  1.9592  0.1514
  729MOL0     H96180   5.382   5.887   4.607 -2.0842 -2.8459  0.5351
  729MOL0     H96181   5.106   5.940   4.622 -4.5143  0.2944 -0.8779
  729MOL0     H96182   4.833   6.027   4.374 -0.6282 -0.2851  0.6352
  729MOL0     H96183   4.887   6.104   4.513 -3.9062 -1.0545  0.8437
  729MOL0     H96184   4.897   5.876   4.630 -0.1747 -0.6337  0.4276
  729MOL0     H96185   4.815   5.811   4.488  1.8956  1.8322 -2.8722
  729MOL0     H96186   4.707   6.024   4.688 -1.1728  0.3789 -2.1354
  729MOL0     H96187   4.615   5.953   4.557 -1.1523 -1.3879 -0.0634
  729MOL0     H96188   4.567   5.845   4.787  0.3434 -0.7599  0.1584
  729MOL0     H96189   4.729   5.774   4.785  0.4736 -2.4337 -0.4615
  729MOL0     H96190   4.499   5.514   4.506 -0.0711 -0.0058 -1.1507
  729MOL0     H96191   4.308   5.524   4.337  1.4579  1.8830 -1.0707
  729MOL0     H96192   3.928   5.819   4.104 -1.9248 -0.1333  0.2630
  729MOL0     H96193   3.721   5.754   3.997  0.0124  1.6208  3.3438
  729MOL0     H96194   3.486   5.667   4.038  3.1423  1.6095 -0.6603
  729MOL0     H96195   3.550   5.526   4.140  1.6782 -0.2765 -1.0072
  729MOL0     H96196   3.321   5.506   4.101  0.1601 -0.5301  0.3202
  729MOL0     H96197   3.403   5.369   4.015 -1.1989 -0.3330 -1.2054
  729MOL0     H96198   3.392   5.502   3.794  2.1457  0.8855  0.7984
  729MOL0     H96199   3.297   5.618   3.896  0.5148 -0.7775  0.4942
  729MOL0     H96200   3.182   5.445   3.740 -0.7076  0.6774 -0.5359
  729MOL0     H96201   3.227   5.323   3.864 -2.2826  0.0310  0.0490
  729MOL0     H96202   3.057   5.569   3.892  2.7357  1.0959  2.1547
  729MOL0     H96203   3.092   5.467   4.026  1.5006  2.8714 -0.3962
  729MOL0     H96204   3.016   5.263   3.925  2.3466  1.2733  0.7246
  729MOL0     H96205   2.968   5.351   3.774 -0.7703  2.2537 -0.3410
  729MOL0     H96206   2.822   5.376   4.035 -0.0679 -2.3798  0.1144
  729MOL0     H96207   2.809   5.500   3.911  1.9157 -0.2305 -1.0494
  729MOL0     H96208   2.731   5.313   3.743 -0.7238 -1.6047  0.7795
  729MOL0     H96209   2.635   5.347   3.889  0.8662  1.6388  0.4235
  729MOL0     H96210   3.793   5.348   4.077  3.1009 -0.5927 -3.6777
  729MOL0     H96211   3.990   5.403   4.201  0.1466  1.1154 -0.0682
  729MOL0     H96212   4.212   5.924   4.468  0.1097  0.7589  0.4210
  729MOL0     H96213   4.427   5.909   4.624  3.1821  0.4913 -1.4696
  729MOL0     H96214   6.293   5.739   4.817  2.4067  2.8178  1.7258
  729MOL0     H96215   6.502   5.818   4.896 -3.3478  0.6712 -1.1091
  729MOL0     H96216   6.889   5.992   4.858  0.0469  1.9882  1.9907
  729MOL0     H96217   7.080   6.103   4.927  0.4550  0.1080 -1.9420
  729MOL0     H96218   7.442   5.918   4.815  0.6637  2.4258 -2.1121
  729MOL0     H96219   7.498   5.921   4.990  2.0293 -0.6898 -1.7976
  729MOL0     H96220   7.508   6.118   4.761  0.4364 -2.2168 -0.5256
  729MOL0     H96221   7.495   6.181   4.936  1.1058 -0.6186  1.0932
  729MOL0     H96222   7.679   6.037   5.007  0.9907  1.6671  0.3810
  729MOL0     H96223   7.719   6.178   4.918 -1.8847  1.8751 -2.9120
  729MOL0     H96224   7.755   5.888   4.844 -1.5030  1.3961  3.2662
  729MOL0     H96225   7.722   6.013   4.714  0.4483  0.2939 -0.2050
  729MOL0     H96226   8.108   6.091   4.788 -0.6192  1.1710 -0.6273
  729MOL0     H96227   7.314   5.749   4.857 -0.4756 -1.2857 -2.9444
  729MOL0     H96228   7.111   5.639   4.778  4.3503  0.4581 -1.3415
  730MOL0     O96229   2.229   8.613   6.680  0.3225  0.9359 -0.5614
  730MOL0     C96230   2.302   8.546   6.603  0.0457 -0.4829  0.0122
  730MOL0     O96231   2.260   8.488   6.485  0.1033  0.0628 -0.1735
  730MOL0     C96232   2.124   8.494   6.448  0.2473  0.3072 -0.2778
  730MOL0     C96233   2.048   8.606   6.462  0.1856 -0.5712  0.1215
  730MOL0     C96234   1.912   8.605   6.433 -0.2673  0.2141  1.4497
  730MOL0     C96235   1.852   8.491   6.382  0.0745 -0.6851  0.0417
  730MOL0     O96236   1.713   8.484   6.366  0.0562 -0.2687 -0.3227
  730MOL0     C96237   1.631   8.544   6.466  0.5499 -0.2612  0.8365
  730MOL0     C96238   1.485   8.525   6.423  0.8617  0.5219 -0.3000
  730MOL0     C96239   1.449   8.380   6.412 -0.3994 -0.3311  0.4429
  730MOL0     C96240   1.312   8.353   6.347 -0.4732 -0.4533  0.2198
  730MOL0     C96241   1.281   8.207   6.354  0.1990 -0.5103 -0.4270
  730MOL0     C96242   1.133   8.172   6.402 -0.4269  0.2441 -0.3184
  730MOL0     C96243   1.116   8.021   6.408 -0.5006  0.3512 -0.6517
  730MOL0     C96244   0.963   7.985   6.397  0.3733 -0.5805  0.7266
  730MOL0     N96245   0.870   8.039   6.496 -0.5463 -0.2326 -0.5659
  730MOL0     C96246   0.902   8.053   6.633  0.6620  0.7020 -0.1838
  730MOL0     C96247   0.780   8.078   6.691 -0.1150 -0.1081 -0.5002
  730MOL0     C96248   0.766   8.108   6.839 -0.0620  0.3147  0.1715
  730MOL0     C96249   0.832   8.242   6.872 -0.3151  0.1623 -0.0113
  730MOL0     C96250   0.792   8.314   6.998 -0.5345 -0.5025  0.2008
  730MOL0     C96251   0.642   8.332   7.026  0.3672  0.0283 -0.2548
  730MOL0     O96252   0.569   8.379   6.910 -0.1796 -0.0584 -0.0520
  730MOL0     C96253   0.437   8.417   6.933  0.1343 -0.1716 -0.1002
  730MOL0     C96254   0.399   8.548   6.970  0.0077 -0.1024 -0.2377
  730MOL0     C96255   0.261   8.571   6.994  0.6046 -1.2742 -0.1697
  730MOL0     C96256   0.170   8.466   6.985 -0.4234 -0.0536 -0.6874
  730MOL0     C96257   0.029   8.493   7.012  0.1017 -0.5770  1.2778
  730MOL0     O96258  -0.003   8.616   7.055  0.7978  0.2273  0.3021
  730MOL0     C96259  -0.134   8.645   7.083 -0.8926 -0.4465  0.7365
  730MOL0     C96260  -0.231   8.618   6.995 -0.3529  0.4840  0.4182
  730MOL0     C96261  -0.363   8.666   7.014 -0.2488  1.0332  0.2441
  730MOL0     C96262  -0.396   8.730   7.128  0.0961  0.1814  0.4514
  730MOL0     O96263  -0.530   8.759   7.143  0.2933 -0.7826 -0.5903
  730MOL0     C96264  -0.581   8.844   7.248 -0.1346 -0.2382  0.6285
  730MOL0     C96265  -0.731   8.831   7.229 -0.4491  0.4881 -0.3419
  730MOL0     C96266  -0.817   8.874   7.355  0.1434  0.1729  0.6471
  730MOL0     C96267  -0.970   8.857   7.323 -0.1964 -0.1334  0.1338
  730MOL0     C96268  -1.064   8.899   7.431  0.1192 -0.4575  0.0156
  730MOL0     C96269  -1.215   8.882   7.386 -1.0249 -0.1812  0.4964
  730MOL0     C96270  -1.260   8.996   7.295 -0.3165  0.0754  0.2056
  730MOL0     C96271  -1.414   9.000   7.277  1.0143 -0.1479  0.1550
  730MOL0    Cl96272  -1.505   8.986   7.436 -0.2742 -0.0027  0.2491
  730MOL0     C96273  -0.295   8.757   7.221  0.0432 -0.3594  0.2091
  730MOL0     C96274  -0.160   8.719   7.200 -0.0608  0.4766  0.6179
  730MOL0     O96275  -0.050   8.401   7.001 -0.5526 -0.1652  0.2496
  730MOL0     C96276   0.213   8.337   6.951 -1.4932 -0.0993 -0.4010
  730MOL0     C96277   0.343   8.312   6.926  0.2791 -0.7999  1.0525
  730MOL0     N96278   0.684   8.079   6.596 -0.0575 -0.3834  0.6572
  730MOL0     N96279   0.736   8.063   6.478 -0.2277  0.2446  0.1845
  730MOL0     C96280   1.929   8.377   6.354  0.7635  0.7000  0.1676
  730MOL0     C96281   2.074   8.379   6.384 -0.1704  1.1892  0.6409
  730MOL0     C96282   2.445   8.533   6.633 -1.0795 -0.8260 -1.2083
  730MOL0     C96283   2.492   8.576   6.765  0.2473  0.5137  0.8710
  730MOL0     C96284   2.627   8.566   6.805  0.7257  0.6326  1.1301
  730MOL0     C96285   2.724   8.513   6.714 -0.4624  0.0773  0.2844
  730MOL0     O96286   2.850   8.482   6.755  0.4740 -0.2454  0.2634
  730MOL0     C96287   2.959   8.507   6.663  0.2197  0.2138  0.1852
  730MOL0     C96288   3.056   8.603   6.727 -0.3934 -0.7031  0.0498
  730MOL0     C96289   3.136   8.565   6.853  0.9979 -0.2663 -0.0964
  730MOL0     C96290   3.275   8.629   6.856 -0.5299 -0.6883  0.1543
  730MOL0     C96291   3.373   8.558   6.773 -1.2651  0.2230 -0.1552
  730MOL0     C96292   3.459   8.501   6.721 -1.0655  0.5890 -0.2558
  730MOL0     C96293   2.679   8.466   6.583 -0.3383 -0.4888 -0.4066
  730MOL0     C96294   2.549   8.484   6.544  0.5707 -0.6021 -0.2956
  730MOL0     H96295   2.105   8.696   6.481  0.7597 -1.0621  0.7769
  730MOL0     H96296   1.848   8.692   6.446 -2.4579 -0.7810 -1.4315
  730MOL0     H96297   1.640   8.653   6.465 -2.8360  0.1716 -1.6246
  730MOL0     H96298   1.658   8.498   6.561 -1.0761  0.0419  1.4801
  730MOL0     H96299   1.472   8.562   6.321 -1.2522 -0.0769 -0.3050
  730MOL0     H96300   1.418   8.577   6.492 -1.1542 -2.6124  0.3047
  730MOL0     H96301   1.443   8.340   6.513 -0.8978  0.7795  0.8779
  730MOL0     H96302   1.525   8.319   6.363  0.4491  1.0021  0.0220
  730MOL0     H96303   1.230   8.412   6.388  1.1165  0.3977  2.3896
  730MOL0     H96304   1.318   8.381   6.242  2.9139  2.2001  0.9262
  730MOL0     H96305   1.344   8.155   6.427 -2.0102 -2.7686  0.0222
  730MOL0     H96306   1.292   8.158   6.257  2.0514  0.2015 -0.6188
  730MOL0     H96307   1.057   8.211   6.333  0.4947  1.5519 -0.6474
  730MOL0     H96308   1.121   8.220   6.499 -0.3057  0.4149 -0.3875
  730MOL0     H96309   1.174   7.981   6.324 -3.5262 -3.2635 -1.2808
  730MOL0     H96310   1.166   7.997   6.503 -0.5247  2.6444  0.0083
  730MOL0     H96311   0.952   7.876   6.398 -0.6707 -0.4968 -0.2431
  730MOL0     H96312   0.925   8.017   6.300 -0.1465  3.7541  2.1208
  730MOL0     H96313   0.994   8.064   6.689 -0.0402  0.9560  0.9515
  730MOL0     H96314   0.786   8.022   6.902 -1.5446 -1.4566 -1.6371
  730MOL0     H96315   0.661   8.118   6.865 -0.4629 -1.2780 -0.6952
  730MOL0     H96316   0.806   8.310   6.791  1.3404 -0.0475 -0.7649
  730MOL0     H96317   0.941   8.230   6.881 -0.5200  0.0829  5.0637
  730MOL0     H96318   0.842   8.264   7.082  0.0050  1.3146  1.0344
  730MOL0     H96319   0.843   8.411   6.998 -0.6482 -0.4365  0.6351
  730MOL0     H96320   0.636   8.418   7.093 -1.1442  0.5014 -0.9502
  730MOL0     H96321   0.596   8.241   7.066 -0.1118 -0.7385 -2.4088
  730MOL0     H96322   0.480   8.619   6.983  3.9221 -3.2961 -4.0711
  730MOL0     H96323   0.235   8.674   7.018 -0.5141 -1.0540 -2.0695
  730MOL0     H96324  -0.216   8.587   6.892 -2.1649 -2.8486  1.0249
  730MOL0     H96325  -0.437   8.645   6.937  0.5013 -0.1614 -0.1891
  730MOL0     H96326  -0.565   8.950   7.228 -0.8922 -0.2798 -0.2704
  730MOL0     H96327  -0.552   8.818   7.350 -0.0328  0.3264  0.7453
  730MOL0     H96328  -0.750   8.726   7.206  0.7113  0.6001 -1.9382
  730MOL0     H96329  -0.763   8.891   7.143  0.0862 -1.6146 -2.0728
  730MOL0     H96330  -0.797   8.981   7.368  3.3068 -0.5148  2.3883
  730MOL0     H96331  -0.797   8.818   7.447 -0.1266  0.7561  1.0619
  730MOL0     H96332  -0.993   8.914   7.233  0.8751 -2.7118 -1.8885
  730MOL0     H96333  -0.976   8.750   7.301  1.3010 -0.2930  0.3816
  730MOL0     H96334  -1.041   9.000   7.468  1.9364 -1.1115  0.8235
  730MOL0     H96335  -1.040   8.830   7.513 -2.4077  1.1179  2.2441
  730MOL0     H96336  -1.273   8.872   7.478 -1.6360  0.8263  0.2276
  730MOL0     H96337  -1.233   8.788   7.332  0.3451  0.9791 -2.1808
  730MOL0     H96338  -1.227   9.089   7.342 -0.6065 -0.8536  2.3452
  730MOL0     H96339  -1.228   8.995   7.190 -0.3915 -1.6198  0.1686
  730MOL0     H96340  -1.451   8.920   7.213  0.9840 -0.7036  0.8462
  730MOL0     H96341  -1.449   9.091   7.226  0.5536 -0.5027 -0.1628
  730MOL0     H96342  -0.300   8.819   7.310 -4.3640  0.5494 -0.4816
  730MOL0     H96343  -0.081   8.730   7.274  1.0552 -1.1810 -0.2753
  730MOL0     H96344   0.143   8.255   6.961  0.9199 -2.2226  0.1715
  730MOL0     H96345   0.373   8.211   6.898 -3.0785 -1.4212 -0.9252
  730MOL0     H96346   1.870   8.296   6.312  2.0863  1.2533 -3.0805
  730MOL0     H96347   2.127   8.285   6.373 -4.5918 -1.5408  0.3643
  730MOL0     H96348   2.423   8.627   6.831  1.9228  0.2541  2.9210
  730MOL0     H96349   2.665   8.604   6.899 -0.8291  1.2285  1.5339
  730MOL0     H96350   2.921   8.559   6.575 -0.3794 -0.3786  0.0900
  730MOL0     H96351   3.015   8.417   6.638  0.0762  0.6144 -1.7184
  730MOL0     H96352   3.126   8.649   6.657 -4.0564  1.7070 -2.3980
  730MOL0     H96353   2.997   8.693   6.744  1.5679  1.3702 -3.1814
  730MOL0     H96354   3.138   8.456   6.847 -0.6296 -0.2677 -1.4686
  730MOL0     H96355   3.066   8.584   6.934 -0.0567  0.4221 -1.1217
  730MOL0     H96356   3.272   8.734   6.824 -0.4283 -1.0814 -1.2088
  730MOL0     H96357   3.303   8.623   6.962  0.0772 -0.1118  0.0360
  730MOL0     H96358   3.530   8.433   6.678  0.5217  0.5178  2.2639
  730MOL0     H96359   2.758   8.422   6.523  0.3154  0.1907 -0.0588
  730MOL0     H96360   2.522   8.454   6.443 -1.6432  0.3210 -0.0284
  731MOL0     O96361   3.022   8.277   0.806 -0.4867 -0.3483 -0.2940
  731MOL0     C96362   3.026   8.156   0.810 -0.8269  0.4441 -0.4068
  731MOL0     O96363   2.928   8.076   0.761 -0.0379  0.2401  0.1788
  731MOL0     C96364   2.827   8.149   0.696 -0.4966 -0.3863 -0.1422
  731MOL0     C96365   2.701   8.169   0.757 -0.3031 -0.1194 -0.0981
  731MOL0     C96366   2.608   8.243   0.686  0.2954 -0.1536  0.7687
  731MOL0     C96367   2.626   8.299   0.561 -0.2010  0.6991 -0.8224
  731MOL0     O96368   2.519   8.370   0.512 -0.1041  0.3236 -0.7313
  731MOL0     C96369   2.559   8.502   0.477 -0.6085 -0.5174  0.5743
  731MOL0     C96370   2.439   8.594   0.451 -0.1791 -0.4590 -0.2801
  731MOL0     C96371   2.354   8.599   0.579 -0.3559 -0.9215 -0.3849
  731MOL0     C96372   2.236   8.692   0.564 -0.1148 -0.0145 -1.1605
  731MOL0     C96373   2.164   8.714   0.706 -0.4204 -0.3473  0.0389
  731MOL0     C96374   2.015   8.762   0.684  0.6564 -0.8582 -0.3234
  731MOL0     C96375   1.990   8.913   0.657  0.8025 -0.2135 -0.5972
  731MOL0     C96376   1.864   8.933   0.574  1.4144 -0.4165  0.2501
  731MOL0     N96377   1.831   9.072   0.562 -0.3169 -0.4266  0.1971
  731MOL0     C96378   1.850   9.146   0.443 -0.2682  0.1089  0.5352
  731MOL0     C96379   1.767   9.257   0.469  0.0778 -0.1878 -0.4770
  731MOL0     C96380   1.740   9.370   0.368  0.4061  1.1147  0.0627
  731MOL0     C96381   1.620   9.339   0.284 -0.1843 -0.8408  1.0473
  731MOL0     C96382   1.609   9.447   0.172  0.5109  0.6948 -0.6707
  731MOL0     C96383   1.474   9.431   0.108 -0.8553 -0.0135  0.8821
  731MOL0     O96384   1.477   9.297   0.031 -0.3656 -0.7897 -0.1365
  731MOL0     C96385   1.359   9.227   0.033  0.4600 -0.0176  0.9304
  731MOL0     C96386   1.242   9.287   0.054  1.2967  0.0452 -0.5438
  731MOL0     C96387   1.121   9.215   0.043  0.1531 -0.1534 -0.1255
  731MOL0     C96388   1.121   9.079   0.018 -0.3072  1.2012  0.6023
  731MOL0     C96389   0.993   9.007   0.005  0.0637 -0.6373  0.0642
  731MOL0     O96390   0.892   9.036   0.093 -0.2553 -0.3007  0.1032
  731MOL0     C96391   0.762   9.009   0.058 -0.4330 -0.1875 -0.8613
  731MOL0     C96392   0.714   9.030  -0.064  0.6380  0.5087 -0.5510
  731MOL0     C96393   0.579   9.021  -0.086  0.1242  0.1078 -0.6486
  731MOL0     C96394   0.487   8.996   0.015  0.0484 -0.3141 -0.8730
  731MOL0     O96395   0.347   8.978  -0.000 -0.0672 -0.1234 -0.1740
  731MOL0     C96396   0.301   8.937  -0.129 -0.0474  0.0686  0.2731
  731MOL0     C96397   0.151   8.941  -0.132  0.1205  0.1094  0.5536
  731MOL0     C96398   0.098   8.840  -0.040  0.0698  0.6512 -1.1775
  731MOL0     C96399  -0.046   8.871   0.009 -0.3864  0.0091  0.4675
  731MOL0     C96400  -0.144   8.896  -0.096 -1.1616  0.6439  0.0870
  731MOL0     C96401  -0.284   8.920  -0.042 -0.1937 -0.7236  0.0956
  731MOL0     C96402  -0.401   8.870  -0.130  0.5633 -0.8554  0.8507
  731MOL0     C96403  -0.395   8.908  -0.285  1.6348  0.4084 -0.1113
  731MOL0    Cl96404  -0.295   8.793  -0.401  0.4045  0.0354  0.3872
  731MOL0     C96405   0.539   8.977   0.146 -0.2395  0.5434  0.0517
  731MOL0     C96406   0.678   8.974   0.170 -1.2884  0.2700  1.0471
  731MOL0     O96407   0.979   8.940  -0.096  0.5829 -0.4146 -0.3792
  731MOL0     C96408   1.244   9.008  -0.002  0.7576 -0.3654  0.0303
  731MOL0     C96409   1.360   9.093   0.009 -0.3405 -0.4624  0.1597
  731MOL0     N96410   1.708   9.244   0.595 -0.7833 -0.4248 -0.3640
  731MOL0     N96411   1.758   9.139   0.653  0.1079 -0.6398 -0.1377
  731MOL0     C96412   2.753   8.283   0.504  0.0888  0.0082 -0.8338
  731MOL0     C96413   2.857   8.214   0.571  0.5745  0.4409  0.0410
  731MOL0     C96414   3.143   8.090   0.866 -0.6767  0.7941  1.6483
  731MOL0     C96415   3.242   8.165   0.924 -0.5639 -0.3998 -0.1618
  731MOL0     C96416   3.358   8.111   0.981 -0.6703 -0.2013  0.3883
  731MOL0     C96417   3.371   7.970   0.994  0.0961  0.4241  0.0679
  731MOL0     O96418   3.476   7.930   1.062 -0.2589 -0.0088 -0.0815
  731MOL0     C96419   3.480   7.791   1.100  0.2265  0.0994 -0.7298
  731MOL0     C96420   3.612   7.777   1.172  0.0955 -0.1351 -0.9546
  731MOL0     C96421   3.730   7.830   1.092 -0.8009 -0.5203 -0.0608
  731MOL0     C96422   3.854   7.845   1.170 -0.1764 -0.0070  0.5695
  731MOL0     C96423   3.889   7.990   1.193 -0.1205  0.0532  0.0904
  731MOL0     C96424   3.917   8.104   1.220  0.0316  0.4500  0.8083
  731MOL0     C96425   3.270   7.890   0.933  0.1563 -0.0236 -0.1835
  731MOL0     C96426   3.158   7.952   0.867  0.5012 -0.1193 -0.2493
  731MOL0     H96427   2.692   8.144   0.862 -0.5181  2.4135  0.5418
  731MOL0     H96428   2.508   8.263   0.723 -0.8163 -1.5868 -1.2555
  731MOL0     H96429   2.635   8.513   0.399 -0.1819  1.9591  1.2445
  731MOL0     H96430   2.596   8.539   0.573 -2.6551  1.2682  0.7396
  731MOL0     H96431   2.381   8.555   0.368  0.0597  0.4824 -0.9046
  731MOL0     H96432   2.460   8.698   0.425 -1.8810  0.2910  1.1161
  731MOL0     H96433   2.413   8.651   0.654 -2.0714 -0.0495  0.4216
  731MOL0     H96434   2.319   8.497   0.600 -4.0614 -0.4146 -3.0322
  731MOL0     H96435   2.268   8.792   0.533  0.2332  0.6121  1.0151
  731MOL0     H96436   2.171   8.647   0.489  1.0838 -4.7514  0.2831
  731MOL0     H96437   2.215   8.788   0.768 -1.8017 -0.3174  1.1889
  731MOL0     H96438   2.157   8.621   0.764 -1.6781 -1.1128 -1.2553
  731MOL0     H96439   1.960   8.730   0.773 -0.0712  1.2139  0.0199
  731MOL0     H96440   1.979   8.704   0.598  0.8109 -0.0606 -0.9350
  731MOL0     H96441   1.987   8.957   0.757  1.6887 -1.1960 -0.1182
  731MOL0     H96442   2.077   8.957   0.609 -0.6308  2.9910 -0.4849
  731MOL0     H96443   1.784   8.885   0.630 -1.2677  1.0916 -2.0531
  731MOL0     H96444   1.875   8.882   0.478 -2.4770  0.0447 -0.5800
  731MOL0     H96445   1.891   9.131   0.344 -0.2584 -1.8481  0.8114
  731MOL0     H96446   1.829   9.394   0.311 -0.1128  1.6081 -0.5534
  731MOL0     H96447   1.716   9.462   0.422 -0.2620  0.8532  0.2312
  731MOL0     H96448   1.526   9.327   0.338 -1.2972  0.5542 -0.4838
  731MOL0     H96449   1.633   9.246   0.229 -0.3137 -0.1487 -0.1925
  731MOL0     H96450   1.609   9.546   0.218 -1.0299  0.5587 -0.3528
  731MOL0     H96451   1.695   9.444   0.104  0.0511  1.0257 -1.2726
  731MOL0     H96452   1.464   9.507   0.030  2.9296  2.3491  2.4192
  731MOL0     H96453   1.411   9.438   0.197  0.9218  2.2753  2.0721
  731MOL0     H96454   1.225   9.393   0.073  0.5844  0.5222 -3.3746
  731MOL0     H96455   1.033   9.261   0.087  1.5658  0.4215  2.2635
  731MOL0     H96456   0.788   9.053  -0.140  1.4671 -0.5248 -0.0885
  731MOL0     H96457   0.542   9.028  -0.188 -0.5435  2.2216 -0.3097
  731MOL0     H96458   0.351   8.841  -0.143  0.4835  0.3098  0.5155
  731MOL0     H96459   0.334   9.020  -0.192 -2.4308  1.5394  0.8368
  731MOL0     H96460   0.104   8.928  -0.230 -0.6658  2.1551  0.6129
  731MOL0     H96461   0.107   9.033  -0.093 -1.3443 -1.2230  2.2146
  731MOL0     H96462   0.166   8.832   0.045 -0.7655 -1.3625 -0.6366
  731MOL0     H96463   0.091   8.743  -0.089 -2.3005  2.1538 -4.1454
  731MOL0     H96464  -0.071   8.786   0.074 -2.3523  0.1668 -0.0100
  731MOL0     H96465  -0.038   8.953   0.080  0.1728 -0.8757  1.4538
  731MOL0     H96466  -0.138   8.805  -0.156  1.5650 -0.9847  2.5953
  731MOL0     H96467  -0.105   8.980  -0.154  2.2476 -1.5113 -1.0328
  731MOL0     H96468  -0.302   9.027  -0.028 -0.4029 -0.6643 -0.5490
  731MOL0     H96469  -0.293   8.866   0.052 -2.3069  1.1460  1.0452
  731MOL0     H96470  -0.414   8.762  -0.123 -0.1668 -0.7514  1.2209
  731MOL0     H96471  -0.494   8.921  -0.102  0.5079  0.3678 -1.3160
  731MOL0     H96472  -0.374   9.014  -0.301  1.0442  0.2015 -2.8432
  731MOL0     H96473  -0.499   8.904  -0.320  0.0678 -1.1617  4.0212
  731MOL0     H96474   0.471   8.949   0.227  0.3858 -1.4583 -0.0675
  731MOL0     H96475   0.720   8.962   0.269  0.2261  0.5984  0.4636
  731MOL0     H96476   1.252   8.902  -0.025  2.1953 -0.0998 -0.7794
  731MOL0     H96477   1.452   9.040  -0.014 -0.9383 -2.5536  2.1935
  731MOL0     H96478   2.780   8.338   0.414  0.6017  0.2877 -0.5160
  731MOL0     H96479   2.946   8.215   0.509  1.1440  3.6526  0.7329
  731MOL0     H96480   3.245   8.274   0.923  1.0999 -0.3770 -2.8726
  731MOL0     H96481   3.435   8.179   1.018  0.7521 -1.0669 -0.8500
  731MOL0     H96482   3.474   7.716   1.021  0.1087  1.2132 -1.8087
  731MOL0     H96483   3.399   7.778   1.173 -0.4425  1.9041 -1.0768
  731MOL0     H96484   3.611   7.818   1.273  2.8727  0.5316 -1.1049
  731MOL0     H96485   3.620   7.668   1.181 -1.0763 -0.0595  2.2724
  731MOL0     H96486   3.709   7.919   1.032  0.4121 -0.3845 -0.3051
  731MOL0     H96487   3.742   7.747   1.022 -1.5546 -0.5727 -0.1334
  731MOL0     H96488   3.851   7.789   1.264  0.3779 -2.1684 -0.6379
  731MOL0     H96489   3.931   7.798   1.108  2.2498  0.8958  2.6909
  731MOL0     H96490   3.945   8.207   1.235  1.4365  0.2833 -0.5019
  731MOL0     H96491   3.294   7.785   0.920 -1.2187 -0.4294  0.4616
  731MOL0     H96492   3.084   7.890   0.817 -0.8105  1.4891 -0.3857
  732MOL0     O96493  11.181   7.820   9.472  0.5692 -0.0679 -0.2262
  732MOL0     C96494  11.152   7.820   9.589 -0.0901 -0.0821  0.2274
  732MOL0     O96495  11.237   7.793   9.693  0.2500 -0.3392  0.7725
  732MOL0     C96496  11.355   7.733   9.680  0.6491 -0.0186  0.4897
  732MOL0     C96497  11.396   7.677   9.802  0.0055  0.4166  0.5133
  732MOL0     C96498  11.523   7.626   9.810 -1.5466  0.7148  0.0856
  732MOL0     C96499  11.619   7.625   9.702 -0.3327 -0.6874 -0.4646
  732MOL0     O96500  11.744   7.577   9.711 -0.6347  0.0119  0.2465
  732MOL0     C96501  11.816   7.608   9.830 -0.1482  0.0909 -0.2945
  732MOL0     C96502  11.964   7.559   9.804  0.0597 -0.5607 -0.0405
  732MOL0     C96503  11.971   7.411   9.779  0.3244 -0.4355 -0.2942
  732MOL0     C96504  12.110   7.369   9.747  0.0212  0.2204 -0.9902
  732MOL0     C96505  12.117   7.244   9.666 -0.1748  0.3478 -0.3724
  732MOL0     C96506  12.047   7.270   9.531 -0.1305 -0.4473  1.0264
  732MOL0     C96507  12.122   7.222   9.406 -0.8904  0.2241 -0.2158
  732MOL0     C96508  12.064   7.271   9.271  0.3115  0.4851 -0.0061
  732MOL0     N96509  11.970   7.167   9.220 -0.7416 -0.7239  0.3418
  732MOL0     C96510  11.856   7.122   9.269  0.1874  0.5317 -0.2784
  732MOL0     C96511  11.809   7.041   9.173 -0.0198  2.1224  1.1138
  732MOL0     C96512  11.695   6.937   9.173 -0.3158  0.0842  0.6416
  732MOL0     C96513  11.571   7.005   9.226  0.0033 -0.3168 -0.7656
  732MOL0     C96514  11.456   6.915   9.212 -0.5671  0.2445  0.2472
  732MOL0     C96515  11.326   6.965   9.281 -0.2013 -0.1601 -0.5602
  732MOL0     O96516  11.213   6.904   9.221 -0.5050  0.1648 -0.6355
  732MOL0     C96517  11.086   6.911   9.271  0.5072 -0.7142  0.4882
  732MOL0     C96518  11.049   6.986   9.383 -0.1318  0.7650 -0.1890
  732MOL0     C96519  10.925   6.970   9.433  0.1287  0.2096 -0.3164
  732MOL0     C96520  10.817   6.907   9.355 -0.1333  0.1332 -0.7831
  732MOL0     C96521  10.678   6.912   9.401 -0.0515  0.8090 -0.3783
  732MOL0     O96522  10.582   6.910   9.302  0.1373  0.0420  0.2489
  732MOL0     C96523  10.445   6.911   9.328 -0.2808 -0.5887 -0.8796
  732MOL0     C96524  10.368   6.827   9.252  0.5525 -0.8295  0.8136
  732MOL0     C96525  10.228   6.825   9.274 -0.6651  0.1433 -0.0753
  732MOL0     C96526  10.168   6.896   9.374  0.0322  0.1831  0.6781
  732MOL0     O96527  10.036   6.905   9.389 -0.2407  0.1584 -0.4950
  732MOL0     C96528   9.953   6.816   9.316  0.1640  0.1046 -0.4207
  732MOL0     C96529   9.809   6.848   9.368 -0.2660  0.0966  0.5602
  732MOL0     C96530   9.762   6.998   9.363 -0.1600  0.1387 -0.3262
  732MOL0     C96531   9.637   7.029   9.448  0.2320 -0.1029 -0.2979
  732MOL0     C96532   9.525   6.929   9.416 -0.3342 -0.2383 -0.0137
  732MOL0     C96533   9.400   6.979   9.481 -0.6993  0.0436  0.3170
  732MOL0     C96534   9.282   6.881   9.450 -0.0883 -0.5123  0.1961
  732MOL0     C96535   9.158   6.942   9.526 -0.4668 -0.3071  1.1602
  732MOL0    Cl96536   9.072   7.057   9.432  0.2095 -0.3853  0.0747
  732MOL0     C96537  10.247   6.979   9.449  0.9918 -0.5120  0.3132
  732MOL0     C96538  10.385   6.987   9.435 -0.4901 -0.3227  0.4394
  732MOL0     O96539  10.654   6.902   9.526 -0.9772  0.1151 -0.0742
  732MOL0     C96540  10.856   6.854   9.229 -0.3900  0.0929 -0.3376
  732MOL0     C96541  10.989   6.839   9.195 -0.4402 -0.5292 -0.9033
  732MOL0     N96542  11.892   7.043   9.061  0.0182 -0.5108  0.1998
  732MOL0     N96543  11.990   7.120   9.091  0.6096  1.5973 -0.4466
  732MOL0     C96544  11.578   7.691   9.584  0.5394  0.0090 -0.0180
  732MOL0     C96545  11.446   7.731   9.569  0.7254  0.1577 -1.0190
  732MOL0     C96546  11.010   7.846   9.615 -0.2167  0.2456 -0.0303
  732MOL0     C96547  10.918   7.887   9.517  0.4141 -0.1690  0.7981
  732MOL0     C96548  10.785   7.914   9.546 -0.4062  0.0473  0.4830
  732MOL0     C96549  10.748   7.901   9.679  1.0247 -0.4321  0.5427
  732MOL0     O96550  10.616   7.929   9.702 -0.2135 -0.1500 -0.4389
  732MOL0     C96551  10.597   7.990   9.825  0.0871 -0.2933  0.3383
  732MOL0     C96552  10.458   7.944   9.865 -0.1115  0.1387  0.3268
  732MOL0     C96553  10.409   8.023   9.991 -0.3015 -0.2373  1.4419
  732MOL0     C96554  10.278   7.983  10.051  0.5907 -0.0181 -0.5016
  732MOL0     C96555  10.175   7.996   9.947  0.6002 -0.6094  0.3621
  732MOL0     C96556  10.080   8.013   9.873 -0.1039 -0.5860  0.4887
  732MOL0     C96557  10.834   7.852   9.776  0.0929  0.0298  0.6341
  732MOL0     C96558  10.965   7.828   9.746 -0.1131 -0.7789 -1.1525
  732MOL0     H96559  11.318   7.674   9.877 -1.2875 -3.0710 -0.7794
  732MOL0     H96560  11.558   7.584   9.903  2.4561  1.6747 -0.7998
  732MOL0     H96561  11.783   7.548   9.915  2.2504  0.3902  0.9182
  732MOL0     H96562  11.807   7.709   9.870 -2.7389 -0.4808  0.7831
  732MOL0     H96563  12.033   7.582   9.886 -1.9536  1.2027  1.2698
  732MOL0     H96564  12.002   7.616   9.719  0.3296  0.8739  1.0005
  732MOL0     H96565  11.896   7.383   9.705 -0.4537  0.4707  0.1265
  732MOL0     H96566  11.943   7.366   9.875 -0.3465 -0.1277 -0.3384
  732MOL0     H96567  12.163   7.451   9.698  2.2877 -0.2573  0.5276
  732MOL0     H96568  12.157   7.360   9.845 -2.0583  1.5453  0.2232
  732MOL0     H96569  12.063   7.159   9.709  0.9805 -1.3000 -2.0193
  732MOL0     H96570  12.222   7.215   9.653  0.2852  1.5430  0.4556
  732MOL0     H96571  12.022   7.377   9.524  1.5402  0.0527  2.1502
  732MOL0     H96572  11.954   7.215   9.546 -0.5205  0.4813  2.2313
  732MOL0     H96573  12.218   7.275   9.409 -0.4253 -0.4273  4.0345
  732MOL0     H96574  12.155   7.117   9.410 -3.4078 -0.6071  0.6762
  732MOL0     H96575  12.141   7.285   9.194 -1.9595  0.6659 -2.3981
  732MOL0     H96576  12.000   7.357   9.293 -2.1620 -1.8805  2.8877
  732MOL0     H96577  11.802   7.148   9.360 -1.8330 -2.0454 -0.6316
  732MOL0     H96578  11.731   6.861   9.242  0.9473 -0.0660 -0.1484
  732MOL0     H96579  11.673   6.895   9.075  2.7701 -0.9727  0.3067
  732MOL0     H96580  11.546   7.098   9.176  1.1325  0.4906  0.1104
  732MOL0     H96581  11.593   7.031   9.330 -2.0859  1.2851 -0.6709
  732MOL0     H96582  11.424   6.912   9.107 -1.4948 -0.5337  0.5372
  732MOL0     H96583  11.475   6.811   9.238  1.0317  0.5943  0.6171
  732MOL0     H96584  11.322   7.074   9.269  2.3397  0.0636  0.0180
  732MOL0     H96585  11.326   6.926   9.383 -0.0161 -1.8231 -1.1618
  732MOL0     H96586  11.129   7.045   9.425  1.8190 -0.2145 -2.3112
  732MOL0     H96587  10.897   7.024   9.523 -0.8976 -0.1643 -0.4026
  732MOL0     H96588  10.408   6.772   9.167  0.6581 -1.8782  1.5346
  732MOL0     H96589  10.172   6.770   9.199  0.2327 -0.1935 -0.5175
  732MOL0     H96590   9.981   6.711   9.333  0.7210  0.5908  2.0601
  732MOL0     H96591   9.956   6.841   9.210  1.6795  0.1565 -0.3879
  732MOL0     H96592   9.824   6.807   9.468  1.2306  1.4106  0.9205
  732MOL0     H96593   9.740   6.782   9.316  1.5397 -1.7157  0.3474
  732MOL0     H96594   9.731   7.012   9.259 -2.1454  2.7427  0.5347
  732MOL0     H96595   9.833   7.077   9.389 -3.5751  2.2540  3.7114
  732MOL0     H96596   9.658   7.035   9.555 -2.8905  1.6753  0.3292
  732MOL0     H96597   9.606   7.131   9.424 -0.0779 -0.0033  0.5192
  732MOL0     H96598   9.548   6.829   9.455  2.2134  0.0989 -0.4851
  732MOL0     H96599   9.516   6.926   9.307 -1.8291  1.7178  0.0081
  732MOL0     H96600   9.355   7.069   9.438 -1.7325 -0.0110  1.2249
  732MOL0     H96601   9.418   6.995   9.587 -1.1198  0.3968  0.3398
  732MOL0     H96602   9.263   6.872   9.343 -1.8622  2.1134  0.1900
  732MOL0     H96603   9.292   6.781   9.492 -0.3821 -1.5906 -2.1660
  732MOL0     H96604   9.178   6.980   9.627  1.3666  2.6055 -0.1912
  732MOL0     H96605   9.099   6.851   9.541  1.4894 -1.8747 -0.2224
  732MOL0     H96606  10.202   7.036   9.530 -2.4161 -2.3307 -0.1198
  732MOL0     H96607  10.446   7.044   9.504 -2.2899  1.2294  0.8233
  732MOL0     H96608  10.780   6.812   9.164 -1.2097 -0.3839  0.8912
  732MOL0     H96609  11.034   6.795   9.106  1.8106  3.3486 -1.8687
  732MOL0     H96610  11.645   7.706   9.500  0.5336  0.2155  0.0135
  732MOL0     H96611  11.419   7.770   9.471  1.2965  0.1264 -1.1915
  732MOL0     H96612  10.953   7.907   9.416 -0.0596  5.2667  1.4492
  732MOL0     H96613  10.715   7.957   9.476 -1.4201  0.1547  1.5292
  732MOL0     H96614  10.599   8.099   9.815 -2.4211  0.1158  3.0375
  732MOL0     H96615  10.663   7.966   9.908  0.7595  2.5491  0.7358
  732MOL0     H96616  10.390   7.955   9.779  0.1977  1.1184  0.1963
  732MOL0     H96617  10.453   7.835   9.881 -3.0483  0.0510 -0.5122
  732MOL0     H96618  10.407   8.130   9.970  1.3119  0.2281  3.3533
  732MOL0     H96619  10.479   8.024  10.075  0.7505  2.8847  0.6751
  732MOL0     H96620  10.287   7.879  10.083  0.9840 -1.0854 -3.6500
  732MOL0     H96621  10.248   8.042  10.137 -0.1613 -1.9314  0.6050
  732MOL0     H96622   9.989   8.031   9.818 -0.7333 -0.4359  1.5645
  732MOL0     H96623  10.804   7.829   9.878 -2.4608  1.9629  0.4190
  732MOL0     H96624  11.031   7.789   9.823  0.0393 -0.0436 -0.8995
  733MOL0     O96625  11.186  11.009   5.249  0.0479  0.2783 -0.1889
  733MOL0     C96626  11.209  11.042   5.130 -0.2494  0.5078 -0.1784
  733MOL0     O96627  11.120  11.049   5.023  0.2156  0.3454 -0.4151
  733MOL0     C96628  10.987  11.015   5.047 -0.4679 -0.0695 -0.3743
  733MOL0     C96629  10.884  11.102   5.020  0.4458  0.1415  0.3257
  733MOL0     C96630  10.750  11.065   5.025  0.2917 -0.5326 -0.3797
  733MOL0     C96631  10.721  10.932   5.058  1.2578 -0.0490 -0.1185
  733MOL0     O96632  10.588  10.889   5.046  0.1024 -0.6220  0.4507
  733MOL0     C96633  10.485  10.962   5.118 -0.7831 -0.1588  0.1322
  733MOL0     C96634  10.352  10.940   5.031 -0.3738  0.2774  0.0622
  733MOL0     C96635  10.284  10.813   5.078  0.0521  0.1450 -0.0830
  733MOL0     C96636  10.133  10.795   5.024  0.8688  0.2201 -0.2111
  733MOL0     C96637  10.080  10.654   5.035  0.8990 -0.6490 -0.0183
  733MOL0     C96638  10.100  10.610   5.182 -0.4454  0.3234 -0.2850
  733MOL0     C96639   9.992  10.513   5.212  0.2030  0.0453 -0.6235
  733MOL0     C96640   9.869  10.586   5.276  0.0227  0.2779  0.0157
  733MOL0     N96641   9.760  10.488   5.290 -0.2070 -0.0095 -0.5907
  733MOL0     C96642   9.745  10.393   5.388  0.2145  0.1109  0.1303
  733MOL0     C96643   9.625  10.333   5.365 -0.3312  0.1388  0.0216
  733MOL0     C96644   9.555  10.241   5.471 -0.7455  0.5733  0.8466
  733MOL0     C96645   9.451  10.153   5.396  0.5576 -0.0090 -0.0942
  733MOL0     C96646   9.355  10.091   5.504 -0.6624 -0.4282 -0.0632
  733MOL0     C96647   9.412   9.972   5.575  0.1141 -0.5909 -1.2845
  733MOL0     O96648   9.330   9.930   5.687 -0.1378  0.2177 -0.2383
  733MOL0     C96649   9.211   9.871   5.661  0.3845  0.6955  0.5147
  733MOL0     C96650   9.110   9.876   5.759 -0.0060 -0.6968 -0.2074
  733MOL0     C96651   8.982   9.823   5.736 -0.1356  0.3007 -0.1739
  733MOL0     C96652   8.949   9.768   5.610 -0.3169 -0.0478  0.3459
  733MOL0     C96653   8.819   9.713   5.572  0.4688  0.2444  0.0314
  733MOL0     O96654   8.727   9.711   5.669 -0.3643  0.1783  0.1174
  733MOL0     C96655   8.603   9.648   5.647 -0.1612 -0.1292 -0.7406
  733MOL0     C96656   8.595   9.518   5.601  1.0629 -0.3510  0.3448
  733MOL0     C96657   8.469   9.456   5.581 -0.0620 -0.4713  1.2153
  733MOL0     C96658   8.352   9.529   5.614 -0.2119  0.6001  0.3436
  733MOL0     O96659   8.236   9.460   5.578  0.0641 -0.2261 -1.0229
  733MOL0     C96660   8.116   9.542   5.556  0.5633  0.6045  0.4975
  733MOL0     C96661   8.007   9.442   5.513  0.0859 -0.2212 -0.5183
  733MOL0     C96662   7.882   9.524   5.469  1.4282 -0.1684 -0.5191
  733MOL0     C96663   7.759   9.436   5.439  0.5332 -0.1653  0.5166
  733MOL0     C96664   7.656   9.533   5.368 -0.4283 -0.7284 -0.1095
  733MOL0     C96665   7.514   9.475   5.336 -0.4991  0.6271 -0.6359
  733MOL0     C96666   7.422   9.430   5.455 -0.5335  0.6242  0.1818
  733MOL0     C96667   7.370   9.555   5.536  0.3385 -0.1071 -0.0306
  733MOL0    Cl96668   7.489   9.636   5.646  0.4761 -0.2530  0.1573
  733MOL0     C96669   8.364   9.663   5.660 -0.0066  0.1346 -0.4563
  733MOL0     C96670   8.491   9.723   5.679 -0.1507  0.1308  0.8272
  733MOL0     O96671   8.804   9.687   5.454 -0.1532 -0.0642 -0.1734
  733MOL0     C96672   9.052   9.761   5.519 -0.3231 -0.1300  0.6192
  733MOL0     C96673   9.181   9.808   5.539  0.4897 -0.0644  0.8235
  733MOL0     N96674   9.569  10.387   5.254 -0.7341  0.2536 -0.4034
  733MOL0     N96675   9.648  10.480   5.218 -0.1774 -0.2608 -0.0051
  733MOL0     C96676  10.820  10.839   5.072 -0.4356 -0.4140  0.4950
  733MOL0     C96677  10.959  10.878   5.071 -0.3555 -0.0973 -0.1257
  733MOL0     C96678  11.350  11.081   5.111  0.3790 -1.2219 -0.2080
  733MOL0     C96679  11.445  11.058   5.208  1.0000  0.3573  0.5396
  733MOL0     C96680  11.580  11.100   5.188  0.0173 -0.0098 -0.4468
  733MOL0     C96681  11.614  11.174   5.078  0.3083  0.3107 -0.5838
  733MOL0     O96682  11.736  11.226   5.065 -0.5150 -0.6939  0.2278
  733MOL0     C96683  11.798  11.226   4.937 -0.6850  0.4617  0.2224
  733MOL0     C96684  11.942  11.273   4.942  0.4628 -0.5649 -0.0261
  733MOL0     C96685  12.020  11.249   4.816 -0.3405 -0.3159 -0.3044
  733MOL0     C96686  12.164  11.312   4.827 -1.0877 -0.0181 -0.6171
  733MOL0     C96687  12.169  11.459   4.817 -0.1072 -0.4726  0.1191
  733MOL0     C96688  12.192  11.585   4.817  0.2806  0.3859 -0.1076
  733MOL0     C96689  11.516  11.197   4.975  0.6552 -0.3070  0.1194
  733MOL0     C96690  11.388  11.158   4.995  0.2306 -0.1511 -0.4872
  733MOL0     H96691  10.912  11.203   4.991 -1.2754  1.1895  2.0984
  733MOL0     H96692  10.668  11.128   4.994  0.4810 -0.1034 -0.0157
  733MOL0     H96693  10.513  11.067   5.129  4.2997 -1.3449  1.3552
  733MOL0     H96694  10.478  10.920   5.219 -0.4830 -0.9875 -0.1792
  733MOL0     H96695  10.366  10.946   4.923 -2.5673 -1.3512 -0.3840
  733MOL0     H96696  10.293  11.031   5.051  1.1010  1.4009 -0.4952
  733MOL0     H96697  10.280  10.807   5.187  0.0045 -1.1912 -0.1394
  733MOL0     H96698  10.344  10.730   5.039 -0.7467 -0.5559  0.1646
  733MOL0     H96699  10.067  10.875   5.057 -0.5196 -0.0850 -2.1450
  733MOL0     H96700  10.132  10.805   4.916 -2.7356 -0.3013 -0.3516
  733MOL0     H96701  10.137  10.592   4.964  1.2426 -0.1460 -0.1872
  733MOL0     H96702   9.976  10.649   5.005  0.9222  0.1375 -0.2416
  733MOL0     H96703  10.094  10.691   5.255  0.6481  2.2509 -2.2277
  733MOL0     H96704  10.197  10.561   5.187 -0.0997  1.1439  1.8441
  733MOL0     H96705   9.966  10.452   5.125 -1.5263 -0.1233 -0.0456
  733MOL0     H96706  10.031  10.449   5.292  1.1090 -0.3397 -1.3578
  733MOL0     H96707   9.849  10.666   5.204  2.3333  0.3935 -0.5690
  733MOL0     H96708   9.890  10.635   5.371 -0.5772  1.7528 -0.5738
  733MOL0     H96709   9.818  10.358   5.460 -1.7089 -3.9270  0.4084
  733MOL0     H96710   9.523  10.312   5.547  1.3781  0.6991  1.6901
  733MOL0     H96711   9.628  10.175   5.519  1.9852  2.7839 -0.0010
  733MOL0     H96712   9.507  10.075   5.344 -0.2000 -0.3684 -0.3727
  733MOL0     H96713   9.394  10.220   5.331 -1.9811 -2.3533 -0.4368
  733MOL0     H96714   9.318  10.165   5.575  0.8101 -1.1814  1.5583
  733MOL0     H96715   9.259  10.059   5.463 -1.1412  2.1652 -1.1460
  733MOL0     H96716   9.504  10.005   5.624 -0.6340 -2.3532  1.5513
  733MOL0     H96717   9.434   9.882   5.517 -1.0170 -0.5864 -1.7423
  733MOL0     H96718   9.135   9.922   5.854 -2.4473  3.2253 -1.2078
  733MOL0     H96719   8.914   9.817   5.820  1.1070  0.3126  0.8646
  733MOL0     H96720   8.684   9.459   5.583  0.9208 -0.1220 -1.2520
  733MOL0     H96721   8.462   9.365   5.522 -1.2189 -0.2430  0.9663
  733MOL0     H96722   8.122   9.604   5.466 -2.8928 -0.9366 -0.9641
  733MOL0     H96723   8.093   9.594   5.649  0.1471 -0.4706  1.0166
  733MOL0     H96724   7.992   9.386   5.606 -1.9376  2.1538  0.7185
  733MOL0     H96725   8.041   9.391   5.423  2.3702  3.1986 -1.7809
  733MOL0     H96726   7.894   9.585   5.379  0.4134 -0.7481 -1.0506
  733MOL0     H96727   7.851   9.588   5.552 -0.5389 -0.2932 -1.1151
  733MOL0     H96728   7.797   9.356   5.375  3.7362  1.0872  0.7101
  733MOL0     H96729   7.713   9.396   5.530 -1.0671  1.5018  0.4993
  733MOL0     H96730   7.694   9.569   5.272  1.8461 -0.2066  0.9133
  733MOL0     H96731   7.651   9.626   5.426 -0.5939 -0.6820 -0.1963
  733MOL0     H96732   7.533   9.396   5.263  3.3363 -0.3103  1.1329
  733MOL0     H96733   7.449   9.549   5.288 -3.1513  0.3164  2.1777
  733MOL0     H96734   7.333   9.379   5.415 -0.1010 -2.5942  2.8796
  733MOL0     H96735   7.476   9.363   5.523 -1.3347  0.3939  0.6067
  733MOL0     H96736   7.280   9.532   5.594 -0.2819  2.5477  0.1941
  733MOL0     H96737   7.344   9.642   5.474  1.1591 -0.3622 -0.7465
  733MOL0     H96738   8.273   9.722   5.672 -0.2263  0.0830 -1.6944
  733MOL0     H96739   8.513   9.825   5.709 -2.0562  2.0284 -3.4017
  733MOL0     H96740   9.034   9.697   5.434  1.7087 -0.2182  0.2161
  733MOL0     H96741   9.248   9.810   5.454 -0.2937  2.3808  0.1843
  733MOL0     H96742  10.786  10.737   5.092 -2.4631 -0.0388 -0.7571
  733MOL0     H96743  11.037  10.808   5.097  0.0557  0.5501  0.4475
  733MOL0     H96744  11.426  10.998   5.297 -0.3400 -1.3074 -0.7819
  733MOL0     H96745  11.663  11.083   5.256  0.0576  3.1100  0.4724
  733MOL0     H96746  11.744  11.286   4.863 -0.5380  0.1800 -0.1189
  733MOL0     H96747  11.795  11.124   4.898 -1.5497  1.1084 -1.5178
  733MOL0     H96748  11.928  11.380   4.959 -1.6003 -0.9648  1.1077
  733MOL0     H96749  11.997  11.233   5.027  0.6193 -0.7756 -0.2253
  733MOL0     H96750  11.963  11.294   4.734  0.1363 -1.9570 -1.5976
  733MOL0     H96751  12.019  11.140   4.804 -3.5818 -0.4525  0.3762
  733MOL0     H96752  12.199  11.287   4.928 -2.8637  0.7087  0.2338
  733MOL0     H96753  12.229  11.253   4.762  0.2852 -0.6792  1.2606
  733MOL0     H96754  12.208  11.687   4.846  1.1946  0.0354  0.6605
  733MOL0     H96755  11.537  11.248   4.881  0.9086  1.1320  0.9341
  733MOL0     H96756  11.323  11.192   4.915  0.9611  0.1767 -0.9476
  734MOL0     O96757   9.450   6.505   5.664  0.3749  0.0082  0.0095
  734MOL0     C96758   9.514   6.410   5.627  1.1142  0.1311  0.4089
  734MOL0     O96759   9.467   6.279   5.634  0.2323 -0.3210  0.0492
  734MOL0     C96760   9.343   6.249   5.682  0.3075  0.1282 -0.8514
  734MOL0     C96761   9.286   6.123   5.654 -0.0052 -0.1915 -0.6938
  734MOL0     C96762   9.163   6.078   5.697 -0.4947 -0.3929 -0.2126
  734MOL0     C96763   9.098   6.150   5.799  0.9146  0.2218 -0.2018
  734MOL0     O96764   8.986   6.097   5.857 -0.8215  0.2527  0.4522
  734MOL0     C96765   8.876   6.186   5.830 -0.8132  0.2811 -0.8235
  734MOL0     C96766   8.771   6.099   5.771 -0.0727 -0.3055  0.0117
  734MOL0     C96767   8.658   6.185   5.721  0.2753  0.5443  0.7760
  734MOL0     C96768   8.554   6.095   5.652  0.0425  0.1117  0.3591
  734MOL0     C96769   8.420   6.177   5.639  0.0767 -0.2833  0.5641
  734MOL0     C96770   8.297   6.091   5.613 -1.0214  0.5884  0.1421
  734MOL0     C96771   8.232   6.032   5.746 -1.0423  0.2788 -0.3619
  734MOL0     C96772   8.105   5.962   5.712 -0.1145  0.0566  1.0596
  734MOL0     N96773   7.994   6.044   5.683  0.0579 -0.4939  0.6310
  734MOL0     C96774   7.933   6.111   5.783 -0.6827  0.1180 -0.1390
  734MOL0     C96775   7.806   6.147   5.741  0.0105  0.1861 -0.3480
  734MOL0     C96776   7.714   6.233   5.822  0.2499 -1.1985 -0.2843
  734MOL0     C96777   7.761   6.380   5.831 -0.1688 -0.5082 -0.0596
  734MOL0     C96778   7.652   6.458   5.903 -0.3617 -0.0668 -0.1352
  734MOL0     C96779   7.518   6.468   5.836 -0.4195 -0.8566 -0.0379
  734MOL0     O96780   7.418   6.539   5.914  0.0328  0.7864  0.1738
  734MOL0     C96781   7.285   6.522   5.889 -0.2561 -0.3202  0.9302
  734MOL0     C96782   7.191   6.571   5.978  0.6294 -0.1837 -0.1933
  734MOL0     C96783   7.053   6.573   5.947 -0.5259  0.8124 -0.0333
  734MOL0     C96784   7.008   6.514   5.827 -0.1663 -0.2002  0.2567
  734MOL0     C96785   6.870   6.531   5.782 -0.4440 -0.6499 -0.7424
  734MOL0     O96786   6.828   6.462   5.686  0.0327  0.7042  0.5655
  734MOL0     C96787   6.703   6.472   5.639  0.4189 -1.3345 -0.1842
  734MOL0     C96788   6.599   6.569   5.669 -0.4010  0.2953  0.1749
  734MOL0     C96789   6.468   6.556   5.614  0.1007 -1.2792  0.3848
  734MOL0     C96790   6.435   6.463   5.524  0.3377  0.1888  0.5038
  734MOL0     O96791   6.310   6.470   5.478 -0.3687 -0.2949  0.5036
  734MOL0     C96792   6.256   6.369   5.400 -0.8946 -0.5197  0.1471
  734MOL0     C96793   6.107   6.384   5.369 -0.5864  0.0192  0.0862
  734MOL0     C96794   6.070   6.512   5.302  0.1697 -0.0835  0.6903
  734MOL0     C96795   5.920   6.511   5.273 -0.1834  1.5518  0.0621
  734MOL0     C96796   5.887   6.593   5.151  0.1878 -0.0949 -0.0046
  734MOL0     C96797   5.740   6.586   5.120 -0.2883 -0.0719  0.1632
  734MOL0     C96798   5.710   6.664   4.986 -0.2211  0.5125 -0.5604
  734MOL0     C96799   5.564   6.655   4.961 -0.3724 -0.1765  0.0753
  734MOL0    Cl96800   5.512   6.499   4.896  0.4107  0.2596 -0.0556
  734MOL0     C96801   6.534   6.373   5.481  0.5500  0.4470 -0.0816
  734MOL0     C96802   6.667   6.376   5.538 -0.5333 -1.1219  0.2229
  734MOL0     O96803   6.803   6.598   5.859 -0.3955  0.2835  0.4169
  734MOL0     C96804   7.103   6.459   5.734 -0.2236 -0.2562  0.5281
  734MOL0     C96805   7.236   6.471   5.763  0.0117  0.8398 -1.0262
  734MOL0     N96806   7.790   6.088   5.620 -0.7422  0.4175  0.2858
  734MOL0     N96807   7.904   6.024   5.585 -0.2235 -0.0983 -0.6399
  734MOL0     C96808   9.153   6.271   5.836  0.6156 -0.5817  0.0495
  734MOL0     C96809   9.269   6.319   5.782 -0.5139  1.4334  0.6336
  734MOL0     C96810   9.642   6.434   5.552 -0.3155  0.4169 -0.1844
  734MOL0     C96811   9.747   6.336   5.537 -0.5165  0.3283  0.0838
  734MOL0     C96812   9.857   6.364   5.458  0.1582  1.4733  0.5674
  734MOL0     C96813   9.878   6.491   5.405  0.7346 -0.2742 -0.8604
  734MOL0     O96814   9.991   6.541   5.340  0.4127  0.3359 -0.8379
  734MOL0     C96815  10.110   6.471   5.353  0.4009  0.8064 -0.3770
  734MOL0     C96816  10.217   6.553   5.283  0.4433 -0.1436 -0.5051
  734MOL0     C96817  10.222   6.703   5.303 -0.1411 -0.2377  0.3231
  734MOL0     C96818  10.315   6.771   5.202 -0.2481  0.6206  0.0933
  734MOL0     C96819  10.458   6.727   5.220  0.0505  0.2893 -1.1021
  734MOL0     C96820  10.567   6.678   5.254  1.0172  0.0264 -0.6281
  734MOL0     C96821   9.778   6.592   5.422 -0.7132  0.5163 -0.1810
  734MOL0     C96822   9.662   6.562   5.495 -0.9945  0.7524  0.5506
  734MOL0     H96823   9.335   6.058   5.582 -2.0626 -0.2788 -2.0728
  734MOL0     H96824   9.112   5.988   5.667 -1.1680 -0.9617  2.3607
  734MOL0     H96825   8.907   6.260   5.755  0.9614 -1.3499 -1.7856
  734MOL0     H96826   8.827   6.233   5.917  0.1630 -0.7969  0.3455
  734MOL0     H96827   8.730   6.027   5.842 -1.2700  1.8182  1.5741
  734MOL0     H96828   8.804   6.038   5.687  1.7154 -2.0032  1.8197
  734MOL0     H96829   8.684   6.269   5.656  0.1108 -0.6064 -0.8371
  734MOL0     H96830   8.614   6.232   5.809  0.2452 -0.0815  1.0994
  734MOL0     H96831   8.591   6.077   5.550 -1.3335  2.5221 -0.6687
  734MOL0     H96832   8.551   6.001   5.708  1.0869  0.8198  1.6481
  734MOL0     H96833   8.437   6.243   5.554  0.7290  0.9329  1.6055
  734MOL0     H96834   8.402   6.233   5.731  1.7629  3.1802 -1.0568
  734MOL0     H96835   8.325   6.010   5.546 -2.1384  0.5225 -0.2543
  734MOL0     H96836   8.222   6.153   5.564  0.6937  3.8758  1.3039
  734MOL0     H96837   8.288   5.956   5.802  1.3362  1.7276 -0.6590
  734MOL0     H96838   8.209   6.116   5.813  0.7766  1.6292 -1.3531
  734MOL0     H96839   8.080   5.902   5.799 -3.1635 -1.1564 -0.4827
  734MOL0     H96840   8.105   5.893   5.627  1.0652  2.5774 -1.1403
  734MOL0     H96841   7.977   6.130   5.880 -1.5672 -1.2222  0.5626
  734MOL0     H96842   7.700   6.191   5.922  0.0180 -0.3833  0.0346
  734MOL0     H96843   7.614   6.235   5.777 -0.4953  0.4224  1.2912
  734MOL0     H96844   7.786   6.415   5.730 -2.3402 -0.7062 -0.7030
  734MOL0     H96845   7.841   6.361   5.904 -3.8667 -0.0193  4.5995
  734MOL0     H96846   7.635   6.417   6.004 -2.7737 -1.0284 -0.8422
  734MOL0     H96847   7.694   6.558   5.911  0.0066  0.0564 -2.8987
  734MOL0     H96848   7.485   6.368   5.808  0.4048 -1.3473  0.6628
  734MOL0     H96849   7.537   6.527   5.746  2.3676  1.6098  1.9620
  734MOL0     H96850   7.219   6.620   6.071 -2.2429  1.3492 -0.0183
  734MOL0     H96851   6.986   6.622   6.017  1.2843 -2.0616  4.1066
  734MOL0     H96852   6.614   6.652   5.738 -3.7159  2.3120 -1.2901
  734MOL0     H96853   6.396   6.622   5.661  0.2223 -2.3202  2.0936
  734MOL0     H96854   6.270   6.271   5.445 -3.2761 -0.0627  2.0629
  734MOL0     H96855   6.307   6.363   5.303 -2.0006  1.1225 -0.6014
  734MOL0     H96856   6.066   6.387   5.471  0.3711 -1.1490  0.5327
  734MOL0     H96857   6.066   6.301   5.312 -2.9046  0.3462  1.1646
  734MOL0     H96858   6.129   6.537   5.214  3.8164 -1.8814  2.3939
  734MOL0     H96859   6.086   6.589   5.378 -0.0149 -1.9442  2.7388
  734MOL0     H96860   5.885   6.408   5.260 -1.8177  1.1877  5.0972
  734MOL0     H96861   5.867   6.535   5.366  0.9222 -0.1967  1.1879
  734MOL0     H96862   5.941   6.548   5.068 -0.1072  0.0240 -0.2637
  734MOL0     H96863   5.915   6.699   5.149 -0.8720  0.2953 -4.2437
  734MOL0     H96864   5.691   6.632   5.206  0.1246  1.4429 -0.3939
  734MOL0     H96865   5.712   6.480   5.114  3.2836 -1.1053 -1.0504
  734MOL0     H96866   5.742   6.766   5.008  0.0646 -0.2414  3.2341
  734MOL0     H96867   5.772   6.615   4.910  1.6153 -1.5212  2.0499
  734MOL0     H96868   5.524   6.737   4.900 -0.1780 -0.5262 -0.5204
  734MOL0     H96869   5.516   6.665   5.059 -0.4463 -0.8583  0.1119
  734MOL0     H96870   6.513   6.308   5.397  1.4935  0.6754 -0.5141
  734MOL0     H96871   6.739   6.301   5.507 -1.8315 -2.4899  0.3447
  734MOL0     H96872   7.087   6.411   5.639  3.6928  1.5395 -1.2510
  734MOL0     H96873   7.306   6.441   5.685 -0.2348  4.4495 -2.8237
  734MOL0     H96874   9.111   6.331   5.916  1.7994  1.1692 -0.5755
  734MOL0     H96875   9.301   6.415   5.820 -1.5803  1.2672  2.0054
  734MOL0     H96876   9.738   6.239   5.586  0.4138  1.1910  2.0849
  734MOL0     H96877   9.934   6.289   5.441 -2.8526 -1.6273 -0.4361
  734MOL0     H96878  10.093   6.375   5.304 -0.1357  1.3677 -1.3295
  734MOL0     H96879  10.144   6.459   5.456  1.6113  0.0752 -0.8434
  734MOL0     H96880  10.316   6.511   5.304 -0.5321 -1.9215  0.8156
  734MOL0     H96881  10.194   6.532   5.178  2.5508  0.4496 -1.1180
  734MOL0     H96882  10.260   6.722   5.404  0.6191 -1.3390  0.2588
  734MOL0     H96883  10.123   6.749   5.305 -0.1812 -0.2301 -1.0757
  734MOL0     H96884  10.276   6.746   5.103  2.3872  0.7108 -1.0598
  734MOL0     H96885  10.313   6.880   5.205  1.9850  0.7035  3.1246
  734MOL0     H96886  10.655   6.633   5.297  0.1460 -0.4663  0.6825
  734MOL0     H96887   9.808   6.682   5.370 -0.2470  0.6407  0.3019
  734MOL0     H96888   9.577   6.629   5.485 -1.4115 -0.0883 -3.3745
  735MOL0     O96889   6.167   1.112  11.087 -0.5249 -0.5170  0.1988
  735MOL0     C96890   6.156   1.221  11.146  0.2394  0.5291 -0.4456
  735MOL0     O96891   6.040   1.299  11.151  0.6544 -0.1296 -0.2366
  735MOL0     C96892   5.926   1.250  11.084  0.2817  0.7148  0.2228
  735MOL0     C96893   5.829   1.187  11.152  0.2975 -0.5459  0.3376
  735MOL0     C96894   5.709   1.148  11.078 -1.1507 -0.3230 -0.1967
  735MOL0     C96895   5.698   1.173  10.942 -0.3995 -0.0111  0.4003
  735MOL0     O96896   5.592   1.120  10.867 -0.1873 -0.6956  0.0899
  735MOL0     C96897   5.473   1.107  10.932  0.6999  0.3011 -0.6115
  735MOL0     C96898   5.352   1.115  10.833 -0.3317 -0.0735 -0.6758
  735MOL0     C96899   5.323   1.254  10.787 -0.3814 -0.1647  0.2715
  735MOL0     C96900   5.233   1.249  10.663 -0.2635 -0.2468 -0.1487
  735MOL0     C96901   5.086   1.217  10.697  0.0891  0.5725 -0.0222
  735MOL0     C96902   4.995   1.330  10.638 -0.5590 -0.8130  0.7717
  735MOL0     C96903   4.852   1.307  10.699 -0.5441  0.2738  0.0536
  735MOL0     C96904   4.763   1.415  10.634 -0.0729 -0.0824 -0.0876
  735MOL0     N96905   4.652   1.435  10.724 -0.2069  0.1925 -0.3507
  735MOL0     C96906   4.528   1.375  10.723 -0.8300  0.3394 -0.6031
  735MOL0     C96907   4.471   1.415  10.837  0.6381 -0.1858  0.9307
  735MOL0     C96908   4.339   1.366  10.890  0.4709  0.1311  1.6676
  735MOL0     C96909   4.333   1.346  11.040  0.4805 -0.5740 -0.1684
  735MOL0     C96910   4.210   1.262  11.070 -0.1192 -0.2332  0.1144
  735MOL0     C96911   4.193   1.236  11.228 -0.1391  0.5111 -0.5560
  735MOL0     O96912   4.164   1.358  11.296 -0.1821 -0.1488  0.1927
  735MOL0     C96913   4.035   1.397  11.296 -0.2414 -0.4550  0.9940
  735MOL0     C96914   4.006   1.513  11.366 -0.3365  0.4427  0.5052
  735MOL0     C96915   3.886   1.573  11.384  0.3008  0.1664  0.5030
  735MOL0     C96916   3.777   1.496  11.333 -0.5749  0.8049  0.2589
  735MOL0     C96917   3.636   1.538  11.313 -0.7610  0.8423 -0.6582
  735MOL0     O96918   3.609   1.649  11.385  0.0293  0.4053 -0.4567
  735MOL0     C96919   3.506   1.712  11.334  1.0382 -0.2057 -0.8666
  735MOL0     C96920   3.373   1.692  11.384 -1.2251 -0.2323 -0.5891
  735MOL0     C96921   3.266   1.756  11.322  0.5295  0.1544 -0.1197
  735MOL0     C96922   3.282   1.858  11.222  1.3023  0.3238 -0.4478
  735MOL0     O96923   3.177   1.932  11.162 -0.4324  0.9114 -0.3399
  735MOL0     C96924   3.042   1.916  11.217  0.1764  0.4213  0.4611
  735MOL0     C96925   2.959   2.029  11.161  0.0899  0.2458 -0.1686
  735MOL0     C96926   2.814   2.020  11.198 -0.3465  0.7440  0.0679
  735MOL0     C96927   2.730   2.081  11.091  0.3941 -0.5788  1.4189
  735MOL0     C96928   2.578   2.053  11.105 -0.3250 -0.3856 -0.4621
  735MOL0     C96929   2.537   1.909  11.084 -0.0061  0.5254 -0.7250
  735MOL0     C96930   2.394   1.877  11.120 -0.0389 -0.0210  0.0987
  735MOL0     C96931   2.362   1.735  11.091 -0.4134  0.1368  0.1561
  735MOL0    Cl96932   2.187   1.690  11.102  0.0534  0.2157 -0.1369
  735MOL0     C96933   3.418   1.878  11.175 -0.4578 -0.9422  0.0728
  735MOL0     C96934   3.524   1.810  11.231 -0.2678  0.7021  0.5349
  735MOL0     O96935   3.547   1.473  11.262  0.0018 -0.0496  0.2043
  735MOL0     C96936   3.799   1.374  11.265 -0.1535 -0.8474  0.4252
  735MOL0     C96937   3.933   1.328  11.235  0.1318 -0.0058 -0.3911
  735MOL0     N96938   4.549   1.508  10.901  0.5949 -0.2232  1.0492
  735MOL0     N96939   4.655   1.527  10.829 -0.2345  0.3091 -0.8036
  735MOL0     C96940   5.804   1.223  10.868 -0.3821 -0.1768 -0.1757
  735MOL0     C96941   5.912   1.275  10.941  0.4724  0.4214 -1.1748
  735MOL0     C96942   6.282   1.266  11.199 -0.1055 -0.5677  0.9456
  735MOL0     C96943   6.278   1.387  11.277  0.3641  0.2846 -0.1603
  735MOL0     C96944   6.398   1.434  11.332 -0.8696  0.3141 -0.8037
  735MOL0     C96945   6.525   1.369  11.305 -0.5657 -0.7366 -0.2140
  735MOL0     O96946   6.648   1.406  11.360  0.6161 -0.1821 -0.0847
  735MOL0     C96947   6.651   1.538  11.409 -0.6132 -0.6764 -0.2430
  735MOL0     C96948   6.791   1.573  11.455 -0.6625  0.4962 -0.0969
  735MOL0     C96949   6.887   1.582  11.336  0.4946 -0.1861  0.1829
  735MOL0     C96950   7.030   1.546  11.365 -0.1955  0.3084  0.0264
  735MOL0     C96951   7.061   1.401  11.406 -0.1737 -0.9662 -0.5347
  735MOL0     C96952   7.071   1.282  11.436 -0.3524  0.2235  0.0545
  735MOL0     C96953   6.528   1.256  11.223  0.7511  0.9036 -0.4313
  735MOL0     C96954   6.404   1.211  11.164  0.5662 -1.1074 -0.4925
  735MOL0     H96955   5.838   1.174  11.259  1.0769  2.1562  0.6779
  735MOL0     H96956   5.630   1.090  11.124  0.4975 -1.3955  1.4143
  735MOL0     H96957   5.461   1.192  10.999  2.8740  0.8225 -0.8349
  735MOL0     H96958   5.473   1.007  10.976 -0.4861 -1.4579 -4.1679
  735MOL0     H96959   5.263   1.073  10.882 -0.2399  1.1066  0.5881
  735MOL0     H96960   5.376   1.063  10.740 -1.7753 -1.4010 -0.3544
  735MOL0     H96961   5.416   1.299  10.753  0.5621 -2.0814  0.2067
  735MOL0     H96962   5.276   1.309  10.869  1.0713 -0.4057  1.2920
  735MOL0     H96963   5.242   1.348  10.617  0.7551  1.1127  2.7862
  735MOL0     H96964   5.264   1.171  10.592 -0.7272 -1.5416  1.0324
  735MOL0     H96965   5.068   1.213  10.805  0.9082 -2.9286  0.1165
  735MOL0     H96966   5.060   1.124  10.645 -0.6258  2.6082 -3.6697
  735MOL0     H96967   4.992   1.325  10.529  1.6489 -1.8268  0.7080
  735MOL0     H96968   5.024   1.431  10.667  1.3817 -0.8787 -0.7438
  735MOL0     H96969   4.817   1.207  10.671  0.7300  0.3798 -2.1169
  735MOL0     H96970   4.866   1.316  10.807  1.9089 -2.3647  0.0547
  735MOL0     H96971   4.731   1.384  10.534  0.7627  2.0434 -1.0753
  735MOL0     H96972   4.819   1.509  10.641 -3.3493  2.1477 -1.7236
  735MOL0     H96973   4.496   1.299  10.653 -0.8159  0.0649 -0.3123
  735MOL0     H96974   4.325   1.266  10.847  2.1767  1.3587 -2.2227
  735MOL0     H96975   4.250   1.424  10.862  0.5087 -0.6408 -0.2313
  735MOL0     H96976   4.322   1.444  11.087  3.7132 -0.1710 -0.0418
  735MOL0     H96977   4.420   1.286  11.066  1.2924 -0.2490 -1.9744
  735MOL0     H96978   4.115   1.300  11.030 -0.3027 -1.1413 -0.3334
  735MOL0     H96979   4.236   1.166  11.024  1.6654 -1.2539  2.9774
  735MOL0     H96980   4.289   1.196  11.261 -0.4650  0.8862  0.9194
  735MOL0     H96981   4.129   1.150  11.249  0.0029  1.0549  2.5052
  735MOL0     H96982   4.090   1.561  11.416 -0.4940 -1.2366  2.5435
  735MOL0     H96983   3.881   1.675  11.419  1.8101  0.5966 -0.4484
  735MOL0     H96984   3.364   1.609  11.454 -1.1274 -0.8191 -1.2581
  735MOL0     H96985   3.167   1.728  11.356  1.1132  0.6799  2.1590
  735MOL0     H96986   3.038   1.924  11.326  0.5298 -1.0005  0.5954
  735MOL0     H96987   2.996   1.819  11.198  0.6317 -0.5150  3.5005
  735MOL0     H96988   2.970   2.021  11.053 -0.9405 -1.7221 -0.1684
  735MOL0     H96989   3.003   2.126  11.184  2.0328 -0.7166  0.3773
  735MOL0     H96990   2.784   2.060  11.295 -1.8262  0.9439 -0.4449
  735MOL0     H96991   2.779   1.917  11.205 -3.4609  1.5700 -1.6191
  735MOL0     H96992   2.745   2.189  11.096 -0.1317 -0.4606  0.5899
  735MOL0     H96993   2.768   2.045  10.994  1.8637 -0.0597  1.7738
  735MOL0     H96994   2.523   2.123  11.041 -1.4390  1.7001  2.5746
  735MOL0     H96995   2.554   2.084  11.207 -0.8369  1.2610 -1.0537
  735MOL0     H96996   2.601   1.839  11.139 -0.0856 -0.7720 -2.2006
  735MOL0     H96997   2.563   1.879  10.982 -1.2968 -0.5357 -0.7674
  735MOL0     H96998   2.366   1.899  11.224 -0.7674  2.1386 -0.4856
  735MOL0     H96999   2.330   1.933  11.051  0.3956  0.1405 -0.1750
  735MOL0     H97000   2.414   1.671  11.163 -1.0701  1.3691  1.7778
  735MOL0     H97001   2.381   1.702  10.988 -3.1573 -2.2981  0.3174
  735MOL0     H97002   3.444   1.948  11.096  1.1342 -0.3014  1.0871
  735MOL0     H97003   3.628   1.831  11.206 -0.4744  1.1560  0.0417
  735MOL0     H97004   3.720   1.304  11.240 -4.7390  2.8055  3.1501
  735MOL0     H97005   3.927   1.236  11.177  2.7604  0.6292 -1.8252
  735MOL0     H97006   5.798   1.224  10.759 -1.9937 -0.3798 -0.1075
  735MOL0     H97007   5.991   1.331  10.891  0.7149  1.4175  0.2665
  735MOL0     H97008   6.185   1.440  11.291  0.9601  1.2664  0.1997
  735MOL0     H97009   6.391   1.512  11.407  1.3259  1.2417 -1.4803
  735MOL0     H97010   6.590   1.534  11.500 -2.4347 -2.6331 -1.4670
  735MOL0     H97011   6.600   1.611  11.346 -0.4522 -1.7804 -1.6867
  735MOL0     H97012   6.783   1.674  11.496  1.5477  1.0893 -0.9956
  735MOL0     H97013   6.825   1.511  11.539  1.2289 -0.2185 -1.3388
  735MOL0     H97014   6.881   1.686  11.303  0.5149 -0.1774  0.2058
  735MOL0     H97015   6.853   1.527  11.248  1.9802 -1.0108  0.0799
  735MOL0     H97016   7.082   1.560  11.270 -0.5490 -0.7298 -0.3294
  735MOL0     H97017   7.074   1.622  11.431 -1.4944  1.3150 -0.2185
  735MOL0     H97018   7.090   1.177  11.445  0.0697  0.2742 -0.2138
  735MOL0     H97019   6.623   1.207  11.209  1.4624  2.2510 -0.5420
  735MOL0     H97020   6.406   1.123  11.100 -0.3982 -1.4689 -0.0525
  736MOL0     O97021   1.057   8.846   4.111 -0.6113  0.6399 -0.1183
  736MOL0     C97022   0.975   8.766   4.152  0.2597  0.8504 -0.5815
  736MOL0     O97023   0.983   8.693   4.275  0.1715 -0.2438 -0.0586
  736MOL0     C97024   1.080   8.723   4.363  0.0693  0.5097  0.3420
  736MOL0     C97025   1.060   8.795   4.486 -0.0403 -0.0343  0.5316
  736MOL0     C97026   1.166   8.806   4.574  0.4326 -0.5213  0.1090
  736MOL0     C97027   1.286   8.766   4.542 -1.1619 -0.2369  1.3327
  736MOL0     O97028   1.384   8.807   4.628  0.1585  0.2925  0.5233
  736MOL0     C97029   1.509   8.743   4.629  0.5128  0.2285  0.4495
  736MOL0     C97030   1.605   8.807   4.716 -0.9372 -0.7791 -0.4790
  736MOL0     C97031   1.747   8.783   4.678 -1.1041 -0.2710 -0.2728
  736MOL0     C97032   1.844   8.871   4.761 -0.7687  0.7148  0.6110
  736MOL0     C97033   1.986   8.799   4.765 -0.5488 -0.2528  0.1040
  736MOL0     C97034   2.090   8.882   4.836  0.1429 -0.2905  0.2986
  736MOL0     C97035   2.223   8.820   4.815 -0.3819  0.2466 -0.4135
  736MOL0     C97036   2.319   8.908   4.889  0.0198 -0.7801 -0.0853
  736MOL0     N97037   2.447   8.840   4.896 -0.3198  0.3574  0.3271
  736MOL0     C97038   2.513   8.783   5.001  0.6747  0.8566  0.7935
  736MOL0     C97039   2.636   8.753   4.951  0.8809 -0.7524  0.1374
  736MOL0     C97040   2.727   8.671   5.032 -0.5273  0.0695  0.5352
  736MOL0     C97041   2.678   8.527   5.018 -0.5862  0.8154 -1.1762
  736MOL0     C97042   2.747   8.444   5.122 -0.1774  0.6630 -0.0901
  736MOL0     C97043   2.693   8.462   5.263 -0.6041 -0.8845  0.1735
  736MOL0     O97044   2.574   8.393   5.280 -0.1281 -0.4813  0.7645
  736MOL0     C97045   2.447   8.449   5.300 -0.5908  0.5263 -0.2078
  736MOL0     C97046   2.428   8.582   5.318 -0.5549  0.6246  0.0634
  736MOL0     C97047   2.306   8.642   5.318 -0.0195 -0.0777  0.0606
  736MOL0     C97048   2.190   8.566   5.294  0.0469 -0.5971 -0.3469
  736MOL0     C97049   2.052   8.626   5.291  0.0096  0.6860 -0.3485
  736MOL0     O97050   1.948   8.550   5.236 -0.2479  0.7899 -0.1609
  736MOL0     C97051   1.826   8.613   5.262 -0.1228  0.3212  0.5254
  736MOL0     C97052   1.781   8.655   5.388  0.1875  0.4962 -1.7672
  736MOL0     C97053   1.657   8.728   5.401 -0.3119  0.3152 -0.1049
  736MOL0     C97054   1.572   8.745   5.291 -0.9885 -0.2278 -0.0328
  736MOL0     O97055   1.450   8.784   5.318 -0.4878 -0.5103 -0.1421
  736MOL0     C97056   1.360   8.820   5.212  0.2791 -0.1796 -0.0596
  736MOL0     C97057   1.277   8.712   5.144  0.5889  0.3344  1.0104
  736MOL0     C97058   1.227   8.757   5.002  0.3681  0.9639  0.1960
  736MOL0     C97059   1.160   8.633   4.924 -0.1492  0.1184  0.5309
  736MOL0     C97060   1.264   8.529   4.870  0.5499 -0.0089 -0.2531
  736MOL0     C97061   1.194   8.394   4.826 -0.5734 -0.3104  0.0979
  736MOL0     C97062   1.291   8.278   4.812 -0.2562  0.4332  0.9460
  736MOL0     C97063   1.376   8.291   4.685 -1.1426 -0.3372  0.3179
  736MOL0    Cl97064   1.536   8.385   4.706  0.0953  0.0306 -0.5745
  736MOL0     C97065   1.633   8.717   5.166 -0.0409  0.2985 -0.6636
  736MOL0     C97066   1.758   8.655   5.150 -0.0140  0.3906 -0.4128
  736MOL0     O97067   2.051   8.735   5.351  0.1679 -0.0636 -0.3186
  736MOL0     C97068   2.209   8.429   5.266  0.2586  0.4668 -0.0152
  736MOL0     C97069   2.335   8.371   5.267 -0.4992 -0.3341  0.5007
  736MOL0     N97070   2.649   8.787   4.818  0.0524  0.3345 -0.5624
  736MOL0     N97071   2.533   8.849   4.787 -0.5624 -0.0808  0.2095
  736MOL0     C97072   1.316   8.700   4.416  0.5121 -0.6740  0.4867
  736MOL0     C97073   1.206   8.683   4.325  0.1916 -1.1136 -0.2925
  736MOL0     C97074   0.867   8.745   4.060  0.6981 -0.7120  0.3266
  736MOL0     C97075   0.766   8.648   4.097  0.8228 -0.4973  0.2140
  736MOL0     C97076   0.661   8.616   4.000 -0.4505 -1.0403 -0.1533
  736MOL0     C97077   0.655   8.675   3.874 -0.3673 -1.0667  0.9453
  736MOL0     O97078   0.569   8.631   3.774 -0.1820 -0.1968 -0.0248
  736MOL0     C97079   0.516   8.491   3.779 -0.1897 -0.4499  0.7349
  736MOL0     C97080   0.495   8.459   3.635 -0.2169  1.1184 -0.0980
  736MOL0     C97081   0.384   8.553   3.579  1.1833 -0.0450 -1.0169
  736MOL0     C97082   0.308   8.487   3.467  0.0178 -0.3795  0.7167
  736MOL0     C97083   0.388   8.443   3.351 -0.2331 -0.9731  0.3593
  736MOL0     C97084   0.464   8.414   3.264 -0.1029 -0.2014  0.2973
  736MOL0     C97085   0.748   8.784   3.847  0.4113  0.8680  0.0707
  736MOL0     C97086   0.843   8.817   3.945 -0.2667 -0.3775  0.0496
  736MOL0     H97087   0.964   8.842   4.502 -0.7932 -2.2915  3.7070
  736MOL0     H97088   1.164   8.859   4.669  3.2958 -0.8624  0.4618
  736MOL0     H97089   1.538   8.742   4.523 -0.6408 -0.4707  0.1231
  736MOL0     H97090   1.490   8.641   4.663 -1.5977  0.1822 -0.6911
  736MOL0     H97091   1.584   8.770   4.816 -0.6742  0.0357 -0.1148
  736MOL0     H97092   1.582   8.914   4.723 -1.3636 -0.9826  1.5614
  736MOL0     H97093   1.766   8.811   4.575 -2.0626  4.2559  0.5550
  736MOL0     H97094   1.784   8.683   4.701 -0.6076  0.0955  0.5730
  736MOL0     H97095   1.846   8.974   4.725  0.0218  0.4088 -0.2521
  736MOL0     H97096   1.814   8.877   4.866  0.6458 -0.2944  1.0984
  736MOL0     H97097   2.027   8.786   4.664  4.6675  1.2190  1.6909
  736MOL0     H97098   1.981   8.707   4.823  2.9556 -0.5382  0.1455
  736MOL0     H97099   2.059   8.887   4.941  0.5081 -0.3988  0.4133
  736MOL0     H97100   2.094   8.982   4.791  0.0252 -1.4466 -2.4660
  736MOL0     H97101   2.226   8.722   4.863  1.4575  0.2698 -0.4284
  736MOL0     H97102   2.243   8.821   4.707 -0.2521  0.1261 -0.3890
  736MOL0     H97103   2.287   8.924   4.993 -0.0523 -1.3469 -0.0191
  736MOL0     H97104   2.342   9.003   4.840  2.7869 -0.3297  1.8439
  736MOL0     H97105   2.461   8.758   5.093 -0.7086  3.1036  0.6978
  736MOL0     H97106   2.731   8.708   5.135 -3.5821 -1.3486  1.2964
  736MOL0     H97107   2.830   8.658   4.998 -0.7062  1.3090 -0.5539
  736MOL0     H97108   2.696   8.479   4.921  0.1184 -0.3656 -0.4811
  736MOL0     H97109   2.570   8.527   5.037 -0.6524  1.3351 -1.5226
  736MOL0     H97110   2.733   8.337   5.101 -0.8795  0.7962 -0.3331
  736MOL0     H97111   2.854   8.466   5.122  0.1370 -0.5832  2.2235
  736MOL0     H97112   2.681   8.569   5.279 -2.4739 -1.0072 -0.2435
  736MOL0     H97113   2.759   8.422   5.341  0.5263  0.5320 -0.0096
  736MOL0     H97114   2.510   8.643   5.356  1.4121 -2.2154  0.7526
  736MOL0     H97115   2.303   8.750   5.311  0.2708  0.2320  3.3272
  736MOL0     H97116   1.816   8.631   5.488  0.6449  1.9406 -1.5683
  736MOL0     H97117   1.617   8.743   5.500  0.1674  0.4532  0.0748
  736MOL0     H97118   1.411   8.870   5.129 -0.0220  3.6225  1.8143
  736MOL0     H97119   1.286   8.885   5.260 -2.0521 -3.5578  1.3069
  736MOL0     H97120   1.187   8.681   5.199  0.4444 -0.9684  0.0941
  736MOL0     H97121   1.334   8.618   5.143 -0.7953 -0.5366  0.7437
  736MOL0     H97122   1.312   8.789   4.940  0.0257 -2.0682 -2.0456
  736MOL0     H97123   1.166   8.847   5.016 -0.7948  0.1789  0.2730
  736MOL0     H97124   1.090   8.581   4.991 -0.9763  2.8660  1.9388
  736MOL0     H97125   1.097   8.674   4.845 -1.0082 -0.8117  0.6918
  736MOL0     H97126   1.331   8.494   4.949  1.8478 -0.0498 -1.3429
  736MOL0     H97127   1.315   8.568   4.782  0.2388 -1.2161 -0.9963
  736MOL0     H97128   1.130   8.402   4.737  0.4742 -0.8343 -0.7191
  736MOL0     H97129   1.129   8.365   4.910  1.3053 -0.7562  1.4530
  736MOL0     H97130   1.357   8.281   4.899 -1.5695 -1.4723  2.0537
  736MOL0     H97131   1.236   8.185   4.798 -0.5009  0.8674 -1.4626
  736MOL0     H97132   1.309   8.329   4.608 -2.0580 -1.1535  0.6894
  736MOL0     H97133   1.407   8.190   4.655  2.3465 -0.3198  3.1290
  736MOL0     H97134   1.584   8.742   5.073  2.8243  0.4693 -2.2405
  736MOL0     H97135   1.808   8.653   5.054 -0.9566 -2.1160 -0.9234
  736MOL0     H97136   2.122   8.368   5.245  1.0906 -0.5003 -0.7615
  736MOL0     H97137   2.343   8.274   5.218  0.6467 -0.8623  1.6771
  736MOL0     H97138   1.414   8.671   4.378 -0.0981 -3.2952  0.6897
  736MOL0     H97139   1.222   8.643   4.225  0.4710  0.2182 -0.8110
  736MOL0     H97140   0.777   8.593   4.190 -0.2540 -0.8686  0.1418
  736MOL0     H97141   0.588   8.540   4.026 -1.5905 -1.2443 -3.4942
  736MOL0     H97142   0.421   8.487   3.834 -0.7027  0.9535  0.0009
  736MOL0     H97143   0.588   8.421   3.824  0.0292 -0.0044  1.0889
  736MOL0     H97144   0.590   8.473   3.582  1.4476  3.7614  3.1284
  736MOL0     H97145   0.463   8.355   3.634 -0.3855  1.1734 -0.9212
  736MOL0     H97146   0.434   8.644   3.544  2.3837 -0.4842 -0.4990
  736MOL0     H97147   0.312   8.589   3.652  2.7335 -0.2509  0.6851
  736MOL0     H97148   0.256   8.399   3.506 -3.1316 -0.0848 -2.3911
  736MOL0     H97149   0.226   8.552   3.435  0.6152  0.7396  1.3497
  736MOL0     H97150   0.544   8.396   3.196  0.9859  1.7103  1.0037
  736MOL0     H97151   0.738   8.854   3.765  1.8013  1.7012  0.5716
  736MOL0     H97152   0.901   8.905   3.921  1.7358 -0.8361  2.7518
  737MOL0     O97153   9.315   0.991   5.754  0.3247 -0.4231  0.7181
  737MOL0     C97154   9.304   0.879   5.800  0.3070  0.7626 -0.9577
  737MOL0     O97155   9.391   0.774   5.800  0.5842  0.4748 -0.1458
  737MOL0     C97156   9.524   0.791   5.821 -0.7424 -0.5606 -0.7615
  737MOL0     C97157   9.612   0.711   5.742  0.5491 -1.1765 -0.0858
  737MOL0     C97158   9.747   0.721   5.752 -0.1110  0.1713 -0.1700
  737MOL0     C97159   9.810   0.814   5.843 -0.2407  1.0845 -0.1115
  737MOL0     O97160   9.946   0.843   5.854  0.5441 -0.1337 -0.2671
  737MOL0     C97161  10.007   0.899   5.737  0.1959 -0.3615 -0.8576
  737MOL0     C97162   9.946   1.029   5.678 -0.1806  0.6708 -0.2202
  737MOL0     C97163   9.986   1.156   5.759  0.5517 -0.1615 -0.2539
  737MOL0     C97164   9.928   1.279   5.683  0.6119 -0.0132 -0.1184
  737MOL0     C97165   9.772   1.273   5.662  0.6425  0.3242  0.1928
  737MOL0     C97166   9.695   1.254   5.798  0.0877 -0.8452  0.1015
  737MOL0     C97167   9.543   1.235   5.764  0.3048 -1.1409 -0.3637
  737MOL0     C97168   9.460   1.266   5.895 -0.2284  0.0987 -0.1560
  737MOL0     N97169   9.452   1.190   6.020 -0.4881 -0.0437 -0.2847
  737MOL0     C97170   9.342   1.109   6.060 -0.2176  0.7705 -0.4429
  737MOL0     C97171   9.389   1.038   6.173 -1.4216 -0.0849 -0.0576
  737MOL0     C97172   9.329   0.928   6.260  0.2722  0.6464  0.6550
  737MOL0     C97173   9.314   0.987   6.401  0.6648  0.2396 -1.1424
  737MOL0     C97174   9.253   1.124   6.411  0.0695  0.7890  0.6894
  737MOL0     C97175   9.104   1.125   6.425  0.6241 -0.2487  0.6761
  737MOL0     O97176   9.040   1.073   6.303 -0.2511 -0.8835  0.2406
  737MOL0     C97177   8.903   1.064   6.304  0.3880 -0.0136  0.5820
  737MOL0     C97178   8.851   0.966   6.222 -0.0865  0.4471  0.7711
  737MOL0     C97179   8.721   0.931   6.210  0.8568  0.1872  0.2362
  737MOL0     C97180   8.627   0.996   6.297  0.2586  0.0934  0.1483
  737MOL0     C97181   8.484   0.953   6.299  0.3802  0.4290  0.7326
  737MOL0     O97182   8.446   0.837   6.232  0.1092 -0.5503 -0.0160
  737MOL0     C97183   8.313   0.809   6.226 -0.5284  0.0292 -0.1960
  737MOL0     C97184   8.272   0.749   6.108 -0.2618 -0.5552  0.1840
  737MOL0     C97185   8.143   0.696   6.105 -0.1178  0.1736 -0.1510
  737MOL0     C97186   8.054   0.705   6.220 -0.7596  0.2770 -0.2922
  737MOL0     O97187   7.926   0.663   6.197  0.1198  0.3682  0.0125
  737MOL0     C97188   7.880   0.553   6.274  0.6977  0.8071  0.3335
  737MOL0     C97189   7.733   0.585   6.303  0.8397 -0.2448  0.1336
  737MOL0     C97190   7.628   0.589   6.187  0.7246  0.2795 -0.6899
  737MOL0     C97191   7.494   0.650   6.239  0.1249  0.0008 -0.1609
  737MOL0     C97192   7.384   0.604   6.136  0.2676 -0.6967 -0.7380
  737MOL0     C97193   7.236   0.624   6.186 -0.6652 -0.5949  0.3293
  737MOL0     C97194   7.154   0.499   6.151  0.4165  0.4774 -0.0235
  737MOL0     C97195   7.002   0.521   6.200 -0.5708 -0.1547  0.1548
  737MOL0    Cl97196   6.910   0.638   6.111  0.3294 -0.0596  0.7363
  737MOL0     C97197   8.099   0.765   6.335 -0.4905 -0.2190 -0.2689
  737MOL0     C97198   8.228   0.814   6.339 -0.6821  0.1763 -0.1012
  737MOL0     O97199   8.397   1.035   6.336  0.1681 -0.2229 -0.3986
  737MOL0     C97200   8.680   1.101   6.383 -0.7156  0.5437  0.4251
  737MOL0     C97201   8.817   1.142   6.382  0.0378  0.2055 -0.4304
  737MOL0     N97202   9.522   1.078   6.181  0.1072 -0.9046  0.3377
  737MOL0     N97203   9.552   1.167   6.103 -0.0586 -0.1386 -0.3924
  737MOL0     C97204   9.726   0.882   5.930  0.5248 -1.0108 -0.0798
  737MOL0     C97205   9.587   0.875   5.918 -0.2252 -0.3206 -0.0524
  737MOL0     C97206   9.172   0.839   5.848 -0.7847  0.6544 -0.3081
  737MOL0     C97207   9.049   0.897   5.805  0.0536 -0.9406  1.0310
  737MOL0     C97208   8.927   0.854   5.849 -0.5769 -0.5624  0.4643
  737MOL0     C97209   8.927   0.740   5.932 -0.4528 -0.2013 -0.8517
  737MOL0     O97210   8.803   0.704   5.966  0.0296  0.3602 -0.7919
  737MOL0     C97211   8.765   0.570   5.924  0.0185 -0.6420  0.0081
  737MOL0     C97212   8.615   0.552   5.952 -0.1781  0.9152 -0.1910
  737MOL0     C97213   8.550   0.430   5.883  0.0856  0.9761 -0.1491
  737MOL0     C97214   8.435   0.381   5.982  0.3353 -0.1929 -0.3306
  737MOL0     C97215   8.395   0.245   5.939  0.0502 -0.0138 -0.3524
  737MOL0     C97216   8.375   0.133   5.886 -0.5016 -0.6059 -0.1747
  737MOL0     C97217   9.039   0.684   5.981  0.0349  0.7507 -0.5256
  737MOL0     C97218   9.162   0.729   5.941 -0.3811 -0.2977 -1.2193
  737MOL0     H97219   9.570   0.641   5.670  0.9247 -2.3507  0.8012
  737MOL0     H97220   9.814   0.658   5.693 -0.5276  1.2553 -1.8678
  737MOL0     H97221  10.014   0.824   5.658  0.1977 -0.0367 -1.1648
  737MOL0     H97222  10.110   0.925   5.763  0.0380  0.7459 -1.3138
  737MOL0     H97223   9.838   1.022   5.661 -0.3775  0.1386  1.1219
  737MOL0     H97224   9.994   1.052   5.582  0.0840 -0.6019 -0.4052
  737MOL0     H97225  10.094   1.142   5.763  0.3070 -2.6531 -0.4813
  737MOL0     H97226   9.940   1.142   5.857  0.6141 -4.0706 -0.6069
  737MOL0     H97227   9.946   1.370   5.742 -2.8910  0.7803 -0.0982
  737MOL0     H97228   9.979   1.283   5.586  0.9467  2.0505  0.0969
  737MOL0     H97229   9.745   1.199   5.587  1.7455  1.2604 -1.1798
  737MOL0     H97230   9.754   1.375   5.628  1.1731 -0.0737 -1.3367
  737MOL0     H97231   9.700   1.346   5.857 -3.4865 -0.8240  0.5473
  737MOL0     H97232   9.725   1.166   5.857 -1.2197 -1.1707  0.2987
  737MOL0     H97233   9.514   1.315   5.695  0.0321  0.0295  1.0635
  737MOL0     H97234   9.523   1.137   5.721 -0.0119 -0.6166 -1.4468
  737MOL0     H97235   9.359   1.243   5.861 -0.4683 -2.0739  1.8231
  737MOL0     H97236   9.474   1.371   5.921 -0.0192 -0.5642  2.6736
  737MOL0     H97237   9.244   1.102   6.014 -1.1476 -1.8904  1.6593
  737MOL0     H97238   9.400   0.846   6.257 -1.0655 -0.7184  3.0730
  737MOL0     H97239   9.238   0.876   6.228  1.5383 -0.3870 -1.4305
  737MOL0     H97240   9.415   1.004   6.439  1.1871 -1.3598 -1.7154
  737MOL0     H97241   9.257   0.918   6.463 -0.9806  1.6488 -1.0189
  737MOL0     H97242   9.296   1.174   6.498 -0.0414  2.4296 -0.1564
  737MOL0     H97243   9.278   1.190   6.327 -0.0037 -2.0617 -1.7654
  737MOL0     H97244   9.058   1.222   6.447  1.5384  0.7295 -1.4695
  737MOL0     H97245   9.069   1.056   6.502 -1.0423 -1.8124 -1.3462
  737MOL0     H97246   8.915   0.918   6.149 -2.1743  0.1818 -0.9939
  737MOL0     H97247   8.687   0.854   6.141  3.9406 -1.7036  0.6688
  737MOL0     H97248   8.340   0.758   6.024  0.0077  2.1968  0.6174
  737MOL0     H97249   8.103   0.652   6.014 -0.0501 -1.9037  0.7605
  737MOL0     H97250   7.928   0.537   6.371 -0.4161  0.7246  0.8824
  737MOL0     H97251   7.865   0.459   6.221 -2.7634 -0.0057  2.4222
  737MOL0     H97252   7.727   0.671   6.370  1.8350 -2.3426  3.0975
  737MOL0     H97253   7.702   0.498   6.362  2.2636 -1.5254 -0.9212
  737MOL0     H97254   7.618   0.487   6.148  0.2255  0.6076 -1.4338
  737MOL0     H97255   7.667   0.651   6.106  2.0848 -0.4551 -0.6195
  737MOL0     H97256   7.484   0.627   6.345  0.7286 -1.2797 -0.3728
  737MOL0     H97257   7.486   0.759   6.235 -6.1328 -0.1396 -2.1254
  737MOL0     H97258   7.402   0.500   6.106 -0.0057 -1.3950  1.3542
  737MOL0     H97259   7.388   0.662   6.044 -1.2214 -3.3992 -2.6694
  737MOL0     H97260   7.201   0.710   6.128  2.6246 -0.6631 -2.0340
  737MOL0     H97261   7.226   0.643   6.294  1.3682 -1.7603  0.7661
  737MOL0     H97262   7.155   0.463   6.048 -1.3096  0.2103  0.0248
  737MOL0     H97263   7.190   0.409   6.200  1.5878  1.6898  1.4385
  737MOL0     H97264   7.012   0.557   6.303 -2.5812 -0.8073  0.6294
  737MOL0     H97265   6.955   0.422   6.200 -0.4175 -0.2544  1.4356
  737MOL0     H97266   8.034   0.754   6.421 -3.4245 -2.2237 -2.5264
  737MOL0     H97267   8.246   0.853   6.439 -3.1463  5.0318 -1.2728
  737MOL0     H97268   8.615   1.147   6.456  0.1230 -1.4039  2.5174
  737MOL0     H97269   8.858   1.223   6.441  0.5874 -0.3037 -0.0935
  737MOL0     H97270   9.767   0.953   6.001 -0.8499  0.1060 -0.3552
  737MOL0     H97271   9.514   0.917   5.986 -0.3457  1.5403 -1.2769
  737MOL0     H97272   9.055   0.984   5.740  3.2156 -0.6829  1.5510
  737MOL0     H97273   8.835   0.901   5.817  1.5906  3.0853 -1.0198
  737MOL0     H97274   8.817   0.495   5.985  1.2178  1.5724  1.8792
  737MOL0     H97275   8.791   0.565   5.818 -1.7801  0.6234 -0.5433
  737MOL0     H97276   8.600   0.562   6.060 -0.9285 -0.2484 -0.1748
  737MOL0     H97277   8.561   0.641   5.916  0.2918  1.7007  0.9735
  737MOL0     H97278   8.630   0.357   5.893 -1.2979 -0.4441  1.0281
  737MOL0     H97279   8.517   0.448   5.781 -0.1549 -4.1210 -1.2248
  737MOL0     H97280   8.464   0.383   6.087 -1.6635  1.1140  0.2430
  737MOL0     H97281   8.351   0.449   5.965 -0.3110 -0.5239  1.3470
  737MOL0     H97282   8.370   0.037   5.839 -1.4810  0.4096 -2.2737
  737MOL0     H97283   9.040   0.604   6.054 -3.2592  0.8865 -0.1923
  737MOL0     H97284   9.251   0.695   5.992 -2.3764 -1.5233  1.7401
  738MOL0     O97285   0.648   6.022  10.660  0.5150  0.4232  0.2004
  738MOL0     C97286   0.658   6.061  10.544  1.5332  0.2870  0.7551
  738MOL0     O97287   0.548   6.068  10.462 -0.3005  0.4122 -0.2011
  738MOL0     C97288   0.416   6.054  10.504 -0.0258 -0.2141 -0.0296
  738MOL0     C97289   0.323   6.086  10.403  0.4151 -0.6860 -0.0974
  738MOL0     C97290   0.185   6.087  10.421 -0.4225  0.3077  0.1933
  738MOL0     C97291   0.131   6.022  10.535 -0.7333  0.5709 -0.8250
  738MOL0     O97292   0.000   6.009  10.564 -0.0413 -0.4948 -0.5153
  738MOL0     C97293  -0.042   6.096  10.673  0.0233  0.2452 -0.0843
  738MOL0     C97294  -0.141   5.999  10.747  0.1644  0.3938  1.2121
  738MOL0     C97295  -0.226   5.909  10.674  0.4311 -0.3039 -0.5690
  738MOL0     C97296  -0.355   5.845  10.753 -0.4000 -0.3794  0.5417
  738MOL0     C97297  -0.459   5.794  10.653  0.7949  0.6831 -0.0204
  738MOL0     C97298  -0.598   5.819  10.732 -0.8002 -0.1666  0.3209
  738MOL0     C97299  -0.716   5.738  10.659 -0.2428  0.0153 -0.5260
  738MOL0     C97300  -0.857   5.777  10.713  0.8671 -0.8241 -0.1192
  738MOL0     N97301  -0.922   5.881  10.634 -0.6607 -0.0412  0.1572
  738MOL0     C97302  -1.030   5.959  10.675  0.2592  0.0176  0.2576
  738MOL0     C97303  -1.046   6.058  10.584  0.1614  0.7008  0.8534
  738MOL0     C97304  -1.156   6.159  10.575 -0.2958  0.7414 -0.2434
  738MOL0     C97305  -1.289   6.097  10.593  0.8260 -0.4482 -0.5786
  738MOL0     C97306  -1.400   6.206  10.598 -0.2738 -0.2799 -0.2035
  738MOL0     C97307  -1.531   6.161  10.672  0.2125  0.1828 -0.0880
  738MOL0     O97308  -1.597   6.276  10.717 -0.0228  0.5040  0.5514
  738MOL0     C97309  -1.689   6.278  10.817 -0.5927  0.2359 -0.4922
  738MOL0     C97310  -1.715   6.400  10.873  0.1538  0.4415 -0.0139
  738MOL0     C97311  -1.808   6.407  10.986 -0.0174 -0.3859 -0.2037
  738MOL0     C97312  -1.869   6.291  11.028 -0.9605  0.6779 -0.0791
  738MOL0     C97313  -1.973   6.297  11.135  0.5647 -0.2914  0.2926
  738MOL0     O97314  -2.073   6.203  11.130 -0.0251  0.0894  0.0271
  738MOL0     C97315  -2.162   6.192  11.234 -0.5850  1.1616 -0.0582
  738MOL0     C97316  -2.272   6.279  11.226  0.7003  0.3568  0.3253
  738MOL0     C97317  -2.360   6.279  11.333  0.3623  0.6369 -0.2403
  738MOL0     C97318  -2.346   6.196  11.445  0.3219  0.2236 -0.1221
  738MOL0     O97319  -2.441   6.191  11.543  0.0907 -0.4884 -0.1925
  738MOL0     C97320  -2.425   6.105  11.661 -0.9096 -0.6915 -0.3489
  738MOL0     C97321  -2.556   6.086  11.729 -0.6199 -0.1765  0.1152
  738MOL0     C97322  -2.646   5.986  11.670  0.5477  0.2054  0.5715
  738MOL0     C97323  -2.786   6.007  11.734 -0.6415 -0.0235  0.0873
  738MOL0     C97324  -2.887   5.906  11.680  0.3463  0.3698 -1.2209
  738MOL0     C97325  -2.914   5.911  11.529  0.2116 -0.1263 -0.3477
  738MOL0     C97326  -3.053   5.835  11.496 -0.2594  0.2076  0.5632
  738MOL0     C97327  -3.147   5.895  11.395 -0.1721 -0.0858  0.3344
  738MOL0    Cl97328  -3.280   5.796  11.356  0.8118  0.0382 -0.0728
  738MOL0     C97329  -2.235   6.110  11.447 -0.7265 -0.5207  0.9388
  738MOL0     C97330  -2.149   6.102  11.338  1.2414  0.1561  0.5402
  738MOL0     O97331  -1.972   6.390  11.206  0.9364 -0.0674 -0.2181
  738MOL0     C97332  -1.841   6.166  10.972  0.1199 -0.2162  0.4488
  738MOL0     C97333  -1.745   6.163  10.870 -0.0610 -0.3922  0.1972
  738MOL0     N97334  -0.935   6.054  10.496  0.3021 -0.3833 -0.6558
  738MOL0     N97335  -0.865   5.946  10.524 -0.4302  0.1206  0.4600
  738MOL0     C97336   0.228   5.978  10.640 -1.0647 -0.2317 -0.0868
  738MOL0     C97337   0.368   5.993  10.625  0.1128  0.4709 -0.3937
  738MOL0     C97338   0.792   6.101  10.492 -0.2899  0.3171 -0.5514
  738MOL0     C97339   0.900   6.116  10.582  0.0490 -0.0287  0.2759
  738MOL0     C97340   1.030   6.136  10.537 -0.2877 -0.6745  0.2604
  738MOL0     C97341   1.055   6.149  10.395 -0.3354  1.0384  0.1738
  738MOL0     O97342   1.179   6.163  10.338  0.0597 -0.4926  0.4407
  738MOL0     C97343   1.297   6.202  10.418 -0.0324  0.5970  0.5301
  738MOL0     C97344   1.395   6.259  10.320 -0.7696  0.4299  0.8572
  738MOL0     C97345   1.461   6.161  10.233  0.1298  0.3946 -0.7624
  738MOL0     C97346   1.559   6.063  10.300  0.6994  0.0892 -0.2497
  738MOL0     C97347   1.673   6.144  10.349  0.3558  0.5682 -0.4483
  738MOL0     C97348   1.768   6.210  10.366  0.8473  0.0953 -0.3376
  738MOL0     C97349   0.940   6.135  10.314 -0.1416 -0.1466 -0.6497
  738MOL0     C97350   0.808   6.115  10.357 -0.8723 -0.2650  0.0601
  738MOL0     H97351   0.367   6.115  10.308 -1.9383  1.6079 -0.5901
  738MOL0     H97352   0.126   6.118  10.336 -0.6366  0.5802  0.4367
  738MOL0     H97353  -0.090   6.189  10.642  0.3586  1.7423  3.4162
  738MOL0     H97354   0.034   6.121  10.748 -1.3035 -1.5096  1.9561
  738MOL0     H97355  -0.201   6.057  10.818  0.1117 -0.7215  2.1039
  738MOL0     H97356  -0.081   5.938  10.815 -0.5522 -0.9471  0.6841
  738MOL0     H97357  -0.171   5.830  10.622  0.3543  0.0638 -1.2225
  738MOL0     H97358  -0.269   5.975  10.598  2.2708  1.9497  0.2327
  738MOL0     H97359  -0.321   5.757  10.808  0.0633 -0.3583  0.2965
  738MOL0     H97360  -0.403   5.916  10.820 -2.0439 -3.9091  3.4260
  738MOL0     H97361  -0.448   5.689  10.626  1.8063  0.3711  1.4592
  738MOL0     H97362  -0.463   5.838  10.553 -1.5910 -1.3944 -0.9261
  738MOL0     H97363  -0.620   5.926  10.735 -1.1184 -0.1795  4.8341
  738MOL0     H97364  -0.583   5.782  10.834  3.5130  2.9532  1.0876
  738MOL0     H97365  -0.705   5.757  10.552  2.3162 -1.4487 -0.5892
  738MOL0     H97366  -0.687   5.635  10.678  1.1639  0.0628 -2.2221
  738MOL0     H97367  -0.854   5.799  10.820 -1.5219  1.7235 -0.4526
  738MOL0     H97368  -0.923   5.690  10.717 -1.8633  1.0678 -1.2039
  738MOL0     H97369  -1.095   5.936  10.759 -0.9853 -0.7162 -0.8699
  738MOL0     H97370  -1.144   6.206  10.477  2.3571 -0.0778 -0.3864
  738MOL0     H97371  -1.141   6.222  10.663  0.6019 -0.2947  0.3709
  738MOL0     H97372  -1.300   6.042  10.687 -0.0804 -0.5755 -0.7503
  738MOL0     H97373  -1.321   6.027  10.515 -2.1064 -0.1483  0.2432
  738MOL0     H97374  -1.360   6.290  10.655  0.4003  0.8248 -2.1859
  738MOL0     H97375  -1.431   6.245  10.500 -0.4599 -2.1106 -0.9119
  738MOL0     H97376  -1.509   6.090  10.753 -0.2545 -0.3911 -0.4560
  738MOL0     H97377  -1.599   6.110  10.603  1.9866  1.0231 -2.6094
  738MOL0     H97378  -1.668   6.487  10.830  1.4903  0.4278  1.3620
  738MOL0     H97379  -1.833   6.499  11.038  1.0765 -2.3252  4.2689
  738MOL0     H97380  -2.285   6.336  11.135 -0.4722 -0.4652 -0.0537
  738MOL0     H97381  -2.444   6.347  11.322 -0.9567 -1.0816 -1.2844
  738MOL0     H97382  -2.357   6.163  11.724 -1.7325  0.9600 -0.9361
  738MOL0     H97383  -2.379   6.008  11.640 -0.0957 -0.7970  1.7423
  738MOL0     H97384  -2.596   6.187  11.713 -1.0652 -0.7002 -2.7333
  738MOL0     H97385  -2.536   6.065  11.834  1.3932  0.3835 -0.1255
  738MOL0     H97386  -2.608   5.887  11.696  0.7041 -0.0485 -0.5790
  738MOL0     H97387  -2.645   6.002  11.562 -0.7977  1.2174  0.6874
  738MOL0     H97388  -2.764   6.002  11.841  2.7203 -0.3037 -0.5272
  738MOL0     H97389  -2.819   6.107  11.701  0.6342  0.0997 -0.8808
  738MOL0     H97390  -2.974   5.922  11.745 -0.4525 -2.6582 -1.3468
  738MOL0     H97391  -2.853   5.804  11.699  0.7608  0.5315 -1.0967
  738MOL0     H97392  -2.832   5.870  11.469 -0.9918 -2.8293 -0.3174
  738MOL0     H97393  -2.930   6.014  11.498  1.9711  0.3930  0.3670
  738MOL0     H97394  -3.022   5.736  11.461  1.7961  0.7672  0.6668
  738MOL0     H97395  -3.115   5.823  11.585 -0.2943 -2.0003  0.3152
  738MOL0     H97396  -3.099   5.922  11.300 -0.8935  1.8243  0.4582
  738MOL0     H97397  -3.178   5.985  11.450  1.4959  1.1068 -0.5791
  738MOL0     H97398  -2.215   6.045  11.532  2.4452 -0.9446  0.0245
  738MOL0     H97399  -2.070   6.028  11.349 -0.9693 -2.4832 -0.0409
  738MOL0     H97400  -1.895   6.078  11.004 -1.1359  0.6385  0.7628
  738MOL0     H97401  -1.708   6.069  10.832  1.1321  0.0141  0.3071
  738MOL0     H97402   0.195   5.923  10.728  1.2105 -0.9084  0.3976
  738MOL0     H97403   0.428   5.970  10.713  1.8168  0.4253 -1.5327
  738MOL0     H97404   0.883   6.110  10.689  2.2600  1.2989  0.7608
  738MOL0     H97405   1.111   6.113  10.605  1.8330  2.4552 -0.9538
  738MOL0     H97406   1.329   6.111  10.470 -0.8078 -0.0472 -0.0803
  738MOL0     H97407   1.263   6.287  10.477  0.2075  1.5933 -0.7363
  738MOL0     H97408   1.340   6.336  10.266 -0.9358  0.8333  1.5799
  738MOL0     H97409   1.480   6.308  10.369  1.4758 -0.9309 -1.4353
  738MOL0     H97410   1.509   6.213  10.148  0.9875  0.5678 -0.1825
  738MOL0     H97411   1.380   6.104  10.188 -0.3792 -0.0643  0.6884
  738MOL0     H97412   1.502   6.007  10.374 -0.1711  1.3322  0.0682
  738MOL0     H97413   1.585   5.994  10.220 -1.0107  1.9224 -2.5729
  738MOL0     H97414   1.861   6.260  10.386  0.9114 -0.9131  2.3277
  738MOL0     H97415   0.955   6.139  10.206  3.1726  0.2041 -0.2897
  738MOL0     H97416   0.728   6.093  10.287  1.4998 -2.2474 -2.2233
  739MOL0     O97417   3.067   9.633   4.963 -0.0115  0.6424 -0.6138
  739MOL0     C97418   3.059   9.609   4.841  0.4644  0.0236  0.1791
  739MOL0     O97419   2.937   9.612   4.776  0.0471  0.1922  0.2344
  739MOL0     C97420   2.815   9.642   4.852 -0.9803  0.2163 -0.9223
  739MOL0     C97421   2.769   9.564   4.958  0.0243 -0.0233 -0.1012
  739MOL0     C97422   2.658   9.597   5.032 -0.6592  0.0741  0.0193
  739MOL0     C97423   2.585   9.704   4.999  1.0047 -0.5079 -0.3049
  739MOL0     O97424   2.481   9.722   5.093  0.2009 -0.3453  0.4344
  739MOL0     C97425   2.422   9.851   5.107 -0.0868 -0.6203 -0.7764
  739MOL0     C97426   2.288   9.839   5.195 -0.4714  0.3612  0.7661
  739MOL0     C97427   2.185   9.928   5.134  0.1840  0.7398 -0.4049
  739MOL0     C97428   2.063   9.949   5.225  0.3669  1.2034  0.4159
  739MOL0     C97429   1.971   9.825   5.221  0.7743 -0.2757 -0.1757
  739MOL0     C97430   1.867   9.823   5.331  0.7526  0.8372 -0.9227
  739MOL0     C97431   1.763   9.940   5.323  0.6354 -0.3354  0.0445
  739MOL0     C97432   1.648   9.931   5.420  0.0225 -0.9659  0.4134
  739MOL0     N97433   1.593  10.070   5.446 -0.6542 -0.4485  0.2934
  739MOL0     C97434   1.455  10.088   5.452  0.0452  0.5826  0.4540
  739MOL0     C97435   1.438  10.221   5.483 -0.6336  1.1865  1.1286
  739MOL0     C97436   1.299  10.287   5.493  0.0491 -0.8497  0.0638
  739MOL0     C97437   1.265  10.394   5.395 -0.7523  0.0940  0.1580
  739MOL0     C97438   1.111  10.423   5.398 -0.3847 -0.5665 -0.2101
  739MOL0     C97439   1.068  10.474   5.540 -0.2039  0.6286  0.1734
  739MOL0     O97440   0.934  10.520   5.512  0.7469  0.2026 -0.8782
  739MOL0     C97441   0.839  10.523   5.616 -0.4205 -0.6057 -0.2660
  739MOL0     C97442   0.880  10.515   5.753 -0.5182  0.0270  0.7981
  739MOL0     C97443   0.780  10.507   5.851  0.0779  0.0507  0.7509
  739MOL0     C97444   0.643  10.490   5.826  0.1337 -0.3075 -0.6675
  739MOL0     C97445   0.534  10.465   5.927  0.4143  0.2036  1.1181
  739MOL0     O97446   0.410  10.443   5.873  0.8536  0.1119 -0.7715
  739MOL0     C97447   0.305  10.447   5.965  0.1049 -0.3313 -0.1501
  739MOL0     C97448   0.290  10.346   6.062 -0.9708 -0.1631 -0.9838
  739MOL0     C97449   0.180  10.353   6.151 -0.5033  0.0413 -0.0130
  739MOL0     C97450   0.079  10.453   6.131  0.8553  0.5584 -0.0882
  739MOL0     O97451  -0.019  10.479   6.223  0.7857  0.3524  0.2350
  739MOL0     C97452  -0.119  10.385   6.249 -0.0408  0.8205  0.2441
  739MOL0     C97453  -0.208  10.452   6.347  0.0455  0.2089 -0.1024
  739MOL0     C97454  -0.267  10.582   6.290  0.3032 -0.4016 -0.0728
  739MOL0     C97455  -0.331  10.679   6.397 -1.3171  0.0022 -0.3900
  739MOL0     C97456  -0.226  10.755   6.469  0.2819 -0.7226 -0.2639
  739MOL0     C97457  -0.271  10.839   6.596 -0.6936  0.4563  0.5955
  739MOL0     C97458  -0.251  10.986   6.580  0.0857 -0.3654 -0.2092
  739MOL0     C97459  -0.357  11.058   6.498 -0.5998  0.0573 -0.4515
  739MOL0    Cl97460  -0.510  11.059   6.576  0.2377  0.3987  0.3329
  739MOL0     C97461   0.092  10.550   6.036  0.1368 -0.4613  0.5762
  739MOL0     C97462   0.204  10.548   5.939  0.2057  0.0776 -1.6906
  739MOL0     O97463   0.566  10.453   6.047 -0.9536  0.0902  0.5860
  739MOL0     C97464   0.605  10.507   5.694 -0.5045  0.0226 -0.0891
  739MOL0     C97465   0.705  10.517   5.590  0.3146  0.2115 -0.2047
  739MOL0     N97466   1.569  10.274   5.501  0.0415  0.1510  0.5939
  739MOL0     N97467   1.668  10.182   5.475  0.2606 -0.6666  0.1906
  739MOL0     C97468   2.622   9.784   4.890 -0.0420 -0.6541  0.0562
  739MOL0     C97469   2.733   9.753   4.814  0.4620  0.2687 -0.6011
  739MOL0     C97470   3.173   9.564   4.760  0.8565  0.5038 -0.1579
  739MOL0     C97471   3.299   9.546   4.817 -0.8752  0.0542 -0.7244
  739MOL0     C97472   3.412   9.508   4.740 -0.6898  0.1588  0.6647
  739MOL0     C97473   3.404   9.491   4.603  0.1665 -0.3603  0.7783
  739MOL0     O97474   3.517   9.457   4.542 -0.2222  0.5912 -0.3275
  739MOL0     C97475   3.517   9.393   4.416 -0.7481  0.1876 -0.8608
  739MOL0     C97476   3.529   9.495   4.303  0.5416 -0.0451  1.0177
  739MOL0     C97477   3.647   9.585   4.317  0.3588  0.1999  0.3402
  739MOL0     C97478   3.653   9.703   4.228 -0.5860 -0.1127  0.4062
  739MOL0     C97479   3.578   9.815   4.287  0.2999  1.0908 -0.1758
  739MOL0     C97480   3.507   9.907   4.337  0.0607  0.6074 -0.2608
  739MOL0     C97481   3.277   9.510   4.536  0.1295 -0.7394  0.2708
  739MOL0     C97482   3.169   9.549   4.618  0.0809 -0.7423 -0.5877
  739MOL0     H97483   2.831   9.477   4.976  1.0865  0.6730 -0.3265
  739MOL0     H97484   2.631   9.535   5.117  1.1120  2.0389  2.1370
  739MOL0     H97485   2.402   9.885   5.005 -1.2905 -0.1503 -0.3982
  739MOL0     H97486   2.488   9.929   5.146 -1.0807  0.3300 -0.9611
  739MOL0     H97487   2.305   9.869   5.299 -0.5689 -4.1041  2.2668
  739MOL0     H97488   2.242   9.740   5.200 -4.6673  1.8535 -2.4160
  739MOL0     H97489   2.156   9.898   5.033 -1.0562  0.3486  0.0468
  739MOL0     H97490   2.223  10.031   5.123  0.0938  0.6803 -1.3848
  739MOL0     H97491   2.094   9.972   5.327  1.4308  0.0665  0.3705
  739MOL0     H97492   1.996  10.032   5.202 -1.1739  0.8974  3.3080
  739MOL0     H97493   2.026   9.731   5.226 -0.7069 -1.5753 -4.3867
  739MOL0     H97494   1.927   9.822   5.121 -1.5900 -2.0868  0.8172
  739MOL0     H97495   1.914   9.826   5.430 -0.6714  2.7336 -0.2573
  739MOL0     H97496   1.811   9.730   5.317 -2.1211  2.0534  1.4928
  739MOL0     H97497   1.824  10.027   5.349  0.2527 -0.0753  0.0784
  739MOL0     H97498   1.724   9.950   5.221 -0.5241  1.9670  0.6504
  739MOL0     H97499   1.684   9.890   5.514  0.5473  0.5036  0.8786
  739MOL0     H97500   1.578   9.861   5.372  0.2552  0.9898 -3.1549
  739MOL0     H97501   1.379  10.015   5.427  0.2037  0.4810  0.2678
  739MOL0     H97502   1.280  10.321   5.595  1.6220 -1.1204  0.4640
  739MOL0     H97503   1.220  10.212   5.484 -0.3552 -0.4221  0.0309
  739MOL0     H97504   1.296  10.366   5.294  1.0748 -1.0160  0.9809
  739MOL0     H97505   1.322  10.481   5.430 -1.6360  0.6184  0.3149
  739MOL0     H97506   1.085  10.494   5.319  2.6667  1.0547  0.1047
  739MOL0     H97507   1.063  10.325   5.383  0.1888 -1.5001  3.1298
  739MOL0     H97508   1.136  10.550   5.578  2.8776 -3.3063  3.4257
  739MOL0     H97509   1.069  10.383   5.601 -2.7114 -0.8490 -1.7536
  739MOL0     H97510   0.987  10.510   5.770 -0.6216 -1.8389  1.1343
  739MOL0     H97511   0.818  10.507   5.953 -0.4910  2.5330  1.0251
  739MOL0     H97512   0.375  10.279   6.072  1.0637  2.4918  0.7303
  739MOL0     H97513   0.171  10.277   6.228  0.7351 -1.3615 -1.1667
  739MOL0     H97514  -0.079  10.290   6.286  1.5133  0.8836 -1.2100
  739MOL0     H97515  -0.179  10.352   6.164 -0.6796 -0.0047  0.9839
  739MOL0     H97516  -0.151  10.476   6.438  0.1955  3.9951 -1.0453
  739MOL0     H97517  -0.297  10.390   6.363  1.9369 -2.4813  0.7656
  739MOL0     H97518  -0.349  10.558   6.222  1.3381  2.2459 -2.4713
  739MOL0     H97519  -0.199  10.648   6.235 -0.5538  1.9268  1.5014
  739MOL0     H97520  -0.404  10.751   6.360 -0.8862  1.2716  1.1280
  739MOL0     H97521  -0.386  10.616   6.469 -0.4579 -1.4606 -0.9666
  739MOL0     H97522  -0.170  10.820   6.401 -1.2607  1.5939  0.5448
  739MOL0     H97523  -0.156  10.678   6.503 -1.2964 -2.5057 -0.8772
  739MOL0     H97524  -0.208  10.822   6.684 -1.5140  0.6495  1.2408
  739MOL0     H97525  -0.371  10.808   6.629 -0.0062 -2.7390  0.0332
  739MOL0     H97526  -0.242  11.029   6.680 -2.2597  0.2432 -0.2212
  739MOL0     H97527  -0.150  11.003   6.541  1.0373  1.4840  2.7300
  739MOL0     H97528  -0.361  11.021   6.395  0.5020  3.6560 -1.9494
  739MOL0     H97529  -0.321  11.159   6.477 -2.1682  0.9998  1.1857
  739MOL0     H97530   0.010  10.618   6.015  2.1347  1.3183 -2.1411
  739MOL0     H97531   0.211  10.631   5.869 -0.9020  1.5704 -0.1458
  739MOL0     H97532   0.501  10.510   5.663 -1.2547  2.3626  2.3151
  739MOL0     H97533   0.682  10.519   5.484  0.3036 -0.8198 -0.2299
  739MOL0     H97534   2.566   9.876   4.875  2.8953  1.2821  0.3119
  739MOL0     H97535   2.763   9.826   4.739 -2.7445  1.0643 -1.2997
  739MOL0     H97536   3.312   9.596   4.913 -1.0730  0.9015 -1.1275
  739MOL0     H97537   3.512   9.520   4.780 -0.0786 -0.7235 -0.5405
  739MOL0     H97538   3.435   9.322   4.399 -0.0316 -0.6255 -1.0467
  739MOL0     H97539   3.609   9.336   4.397 -1.1632  0.4088 -4.0503
  739MOL0     H97540   3.549   9.435   4.214  0.6986 -0.7298  1.5035
  739MOL0     H97541   3.437   9.553   4.290  0.8417 -0.2508 -4.0287
  739MOL0     H97542   3.741   9.540   4.284  1.0578  2.1936 -0.5620
  739MOL0     H97543   3.653   9.623   4.419 -0.4099  2.4098 -0.3658
  739MOL0     H97544   3.755   9.744   4.222 -0.0678 -1.5032 -0.8775
  739MOL0     H97545   3.618   9.686   4.127 -0.3667 -2.7920  0.7240
  739MOL0     H97546   3.448   9.985   4.380  0.6396  0.6633  0.4566
  739MOL0     H97547   3.274   9.528   4.429  3.5182  2.4895  0.5298
  739MOL0     H97548   3.084   9.589   4.563  0.4599  0.0002 -0.6421
  740MOL0     O97549  10.625  11.286   6.767 -0.0469 -0.3278  0.3332
  740MOL0     C97550  10.647  11.283   6.881 -0.3926 -0.0818 -1.8366
  740MOL0     O97551  10.555  11.269   6.989 -0.2456 -1.0099 -0.0484
  740MOL0     C97552  10.420  11.276   6.976  0.5545  0.6325 -0.1008
  740MOL0     C97553  10.352  11.277   7.099  0.0606 -0.0983 -0.0863
  740MOL0     C97554  10.213  11.295   7.100  0.0398 -0.2658  0.0369
  740MOL0     C97555  10.143  11.290   6.976  0.4322  0.4310 -0.2246
  740MOL0     O97556  10.007  11.277   6.987  0.8314 -0.4415 -0.2442
  740MOL0     C97557   9.920  11.262   6.870 -0.1112  0.2229  0.4657
  740MOL0     C97558   9.765  11.249   6.882  0.3104  1.0794 -0.9280
  740MOL0     C97559   9.724  11.116   6.923  0.2228 -0.3265 -0.4631
  740MOL0     C97560   9.572  11.088   6.920  0.2871 -0.8356 -0.4295
  740MOL0     C97561   9.543  10.946   6.951 -0.4321 -0.7416 -0.3726
  740MOL0     C97562   9.398  10.913   6.946  0.0745  0.4384  0.6107
  740MOL0     C97563   9.365  10.770   6.981  0.6904 -0.4468  0.6518
  740MOL0     C97564   9.394  10.679   6.854 -0.2790 -1.0173  0.4622
  740MOL0     N97565   9.325  10.555   6.873  0.3776  0.8083 -0.1468
  740MOL0     C97566   9.204  10.513   6.820  0.4335  0.2143 -0.8206
  740MOL0     C97567   9.187  10.384   6.848  0.2821  0.4968  0.7889
  740MOL0     C97568   9.078  10.302   6.779  0.7797 -0.8856  0.1013
  740MOL0     C97569   9.003  10.225   6.885  0.1497 -0.0951  1.1882
  740MOL0     C97570   9.080  10.092   6.920  0.0876 -0.0797  0.1354
  740MOL0     C97571   9.015  10.048   7.051  0.3196 -0.6626  0.0470
  740MOL0     O97572   9.078   9.940   7.109  0.1858 -0.7700  0.3861
  740MOL0     C97573   9.138   9.939   7.228 -0.2475  0.2540 -0.0746
  740MOL0     C97574   9.279   9.950   7.220  0.3733  0.6296  0.9163
  740MOL0     C97575   9.348   9.935   7.335 -0.6047 -0.2658  0.1046
  740MOL0     C97576   9.293   9.911   7.465  0.5708 -0.2035  0.2393
  740MOL0     C97577   9.374   9.896   7.583 -0.2818 -0.6052 -0.4995
  740MOL0     O97578   9.505   9.944   7.576 -0.5535  0.1102 -0.5774
  740MOL0     C97579   9.596   9.922   7.676  0.3033  0.3136 -0.2493
  740MOL0     C97580   9.566   9.882   7.809  0.7443  0.0146 -0.3751
  740MOL0     C97581   9.665   9.875   7.907 -0.7366  0.2484 -0.7004
  740MOL0     C97582   9.801   9.903   7.873 -0.0368  0.3605  0.5791
  740MOL0     O97583   9.901   9.911   7.978  0.3502  0.3148  0.6562
  740MOL0     C97584  10.028   9.977   7.953  0.1789 -0.1627  0.4797
  740MOL0     C97585  10.117   9.967   8.081 -0.3411  0.0139  0.2546
  740MOL0     C97586  10.267  10.004   8.057 -0.2883 -0.6769  0.1814
  740MOL0     C97587  10.283  10.151   8.009  0.1891 -0.1151  0.4122
  740MOL0     C97588  10.432  10.188   8.031 -0.6983  0.5048 -0.2397
  740MOL0     C97589  10.530  10.098   7.942  0.5931 -0.6294 -0.1790
  740MOL0     C97590  10.664  10.155   7.956  0.0307  0.2862 -0.0280
  740MOL0     C97591  10.691  10.283   7.878  0.3998 -0.2732 -0.5659
  740MOL0    Cl97592  10.859  10.338   7.922  0.1097 -0.1399  0.5051
  740MOL0     C97593   9.826   9.955   7.748  0.9269  1.0923  0.1490
  740MOL0     C97594   9.724   9.953   7.648 -0.1102 -1.1272  0.4318
  740MOL0     O97595   9.324   9.825   7.669  0.9745 -0.6311  0.1459
  740MOL0     C97596   9.155   9.907   7.471  0.2924 -0.6886  0.5753
  740MOL0     C97597   9.076   9.925   7.350  1.2244 -0.2549 -0.8472
  740MOL0     N97598   9.288  10.352   6.938 -0.3530 -0.2195  0.1852
  740MOL0     N97599   9.367  10.454   6.952 -0.3399 -0.3477 -0.2978
  740MOL0     C97600  10.208  11.298   6.852  0.1881 -0.4836  0.5238
  740MOL0     C97601  10.344  11.280   6.856  0.5704  0.6781  0.1069
  740MOL0     C97602  10.789  11.293   6.924  0.3074 -0.6871 -0.3763
  740MOL0     C97603  10.809  11.333   7.061  0.6258  0.6379 -0.4373
  740MOL0     C97604  10.938  11.343   7.107  0.5761 -1.0151 -0.0171
  740MOL0     C97605  11.050  11.333   7.026 -0.8765 -1.4094 -0.0222
  740MOL0     O97606  11.180  11.350   7.084  0.9041 -0.1703  0.6932
  740MOL0     C97607  11.294  11.313   7.005 -0.1077  0.1514  0.0550
  740MOL0     C97608  11.326  11.438   6.931  0.7272 -0.3040  0.4007
  740MOL0     C97609  11.477  11.443   6.920 -0.2948 -0.5783 -0.2789
  740MOL0     C97610  11.522  11.537   6.798 -0.0048  1.1097 -0.4044
  740MOL0     C97611  11.469  11.671   6.814 -0.1556  0.9805 -0.9603
  740MOL0     C97612  11.419  11.779   6.819  0.2890 -0.3171  0.6821
  740MOL0     C97613  11.028  11.321   6.890 -0.8612  1.9736  0.6880
  740MOL0     C97614  10.898  11.297   6.838 -0.3706 -0.7329  0.2444
  740MOL0     H97615  10.401  11.275   7.196  0.7434  0.6566 -0.4053
  740MOL0     H97616  10.164  11.309   7.195  0.0139  2.2330 -0.2820
  740MOL0     H97617   9.954  11.169   6.824  2.3031  1.4781 -0.4749
  740MOL0     H97618   9.940  11.351   6.809  0.4477 -0.0078  0.3104
  740MOL0     H97619   9.716  11.264   6.786 -1.8019  3.2762  0.3806
  740MOL0     H97620   9.718  11.321   6.949  1.1982  1.1431 -0.3563
  740MOL0     H97621   9.769  11.100   7.021  0.0866  1.2125 -0.1301
  740MOL0     H97622   9.783  11.048   6.860  2.5190  0.5242  0.6602
  740MOL0     H97623   9.541  11.157   6.999  0.9073 -0.9262 -0.0944
  740MOL0     H97624   9.522  11.113   6.826 -0.3760 -0.3175  0.0592
  740MOL0     H97625   9.571  10.919   7.053 -0.8856 -1.0421 -0.3239
  740MOL0     H97626   9.592  10.880   6.879  1.2970 -0.2742  0.3209
  740MOL0     H97627   9.351  10.952   6.856  3.3092 -0.0448 -1.4502
  740MOL0     H97628   9.356  10.965   7.032 -0.5128  1.4857 -0.2942
  740MOL0     H97629   9.430  10.735   7.062 -0.3714 -3.3146  0.3797
  740MOL0     H97630   9.259  10.761   7.006 -0.1247  0.2138 -2.2399
  740MOL0     H97631   9.501  10.660   6.843 -0.0458  0.9975 -1.2475
  740MOL0     H97632   9.356  10.721   6.761 -0.4855 -0.4740  0.7862
  740MOL0     H97633   9.143  10.568   6.749 -1.0885  0.9212  0.9417
  740MOL0     H97634   9.128  10.238   6.705  1.3228  0.6596 -0.9301
  740MOL0     H97635   9.002  10.359   6.725  0.9307 -1.9272 -1.2766
  740MOL0     H97636   8.908  10.204   6.834  1.1666  0.4327 -1.0629
  740MOL0     H97637   8.979  10.285   6.973 -0.6840  1.8817 -0.2943
  740MOL0     H97638   9.064  10.021   6.839  2.8016  1.5053 -1.9579
  740MOL0     H97639   9.188  10.105   6.931 -0.0388  0.1975  1.1700
  740MOL0     H97640   8.906  10.044   7.040  0.1572  2.0374 -0.0494
  740MOL0     H97641   9.009  10.128   7.125 -5.4308  1.1619 -1.7892
  740MOL0     H97642   9.333   9.949   7.126  0.0357 -0.8943  0.7188
  740MOL0     H97643   9.456   9.942   7.333 -0.6563  4.4479  2.3633
  740MOL0     H97644   9.465   9.876   7.849  1.1639 -2.8599  0.4911
  740MOL0     H97645   9.645   9.852   8.011  0.8859 -0.6035 -0.5651
  740MOL0     H97646  10.018  10.081   7.918  2.3237 -0.9165 -2.8432
  740MOL0     H97647  10.083   9.939   7.866  0.6088  0.7224  0.3526
  740MOL0     H97648  10.108   9.863   8.113 -1.0111 -0.1570 -0.4328
  740MOL0     H97649  10.078  10.018   8.170  0.3609 -1.3029  1.3513
  740MOL0     H97650  10.304   9.934   7.982 -1.5041 -3.6611  2.1758
  740MOL0     H97651  10.318   9.985   8.152  1.4570  0.1832 -0.5426
  740MOL0     H97652  10.248  10.163   7.906 -2.1429  0.7664  1.2383
  740MOL0     H97653  10.224  10.227   8.062  2.0181  1.8717 -0.2781
  740MOL0     H97654  10.457  10.169   8.136  0.8458 -1.6152 -0.9049
  740MOL0     H97655  10.456  10.293   8.011  3.0838 -0.3196 -0.8904
  740MOL0     H97656  10.504  10.104   7.836  0.3911  3.3286 -0.0566
  740MOL0     H97657  10.539   9.992   7.969  0.1281 -0.7096 -0.3263
  740MOL0     H97658  10.689  10.170   8.061  0.3179  2.0220 -0.3231
  740MOL0     H97659  10.744  10.089   7.919  2.2802  2.0037  1.4976
  740MOL0     H97660  10.628  10.365   7.914  2.3655  1.7553 -1.5588
  740MOL0     H97661  10.681  10.271   7.770  1.6179 -0.9723 -0.6081
  740MOL0     H97662   9.927   9.977   7.716  1.3248  2.3001  2.0474
  740MOL0     H97663   9.755   9.983   7.548  1.3635 -3.1124  0.2123
  740MOL0     H97664   9.095   9.882   7.558 -0.2315 -2.9574 -0.3776
  740MOL0     H97665   8.969   9.913   7.365  1.7018 -2.6309  1.5291
  740MOL0     H97666  10.154  11.305   6.758 -0.0355  0.7294  0.7353
  740MOL0     H97667  10.394  11.253   6.764 -0.5210 -0.4685 -0.1772
  740MOL0     H97668  10.727  11.348   7.130 -0.8502  1.4043 -2.2618
  740MOL0     H97669  10.954  11.360   7.213 -1.7273 -0.5672  0.3133
  740MOL0     H97670  11.282  11.228   6.938  1.4205 -0.0730  0.0276
  740MOL0     H97671  11.366  11.290   7.084  0.9740  0.3074 -0.8580
  740MOL0     H97672  11.278  11.438   6.833 -0.5778 -0.1339  1.0231
  740MOL0     H97673  11.293  11.525   6.988  1.0002  0.1944 -0.1966
  740MOL0     H97674  11.525  11.345   6.907 -0.2337 -0.4118 -1.4568
  740MOL0     H97675  11.512  11.481   7.016 -1.2178 -1.9558  0.6304
  740MOL0     H97676  11.630  11.553   6.795 -0.2644  3.0111 -0.8605
  740MOL0     H97677  11.490  11.487   6.706 -0.8058  0.2184  0.3425
  740MOL0     H97678  11.347  11.859   6.822  2.0210  1.4149 -0.7873
  740MOL0     H97679  11.117  11.313   6.829  0.0589 -2.8257  2.2388
  740MOL0     H97680  10.890  11.287   6.730  2.4987 -0.3656 -0.0886
  741MOL0     O97681   8.163   2.805   9.072  0.5309 -0.6750  0.6008
  741MOL0     C97682   8.232   2.706   9.095 -0.8434  0.1198 -1.7004
  741MOL0     O97683   8.190   2.588   9.130  0.6270  0.9299  0.0442
  741MOL0     C97684   8.056   2.563   9.141 -0.0217  0.8439 -1.2194
  741MOL0     C97685   7.992   2.464   9.068 -0.3427  0.0775  0.0975
  741MOL0     C97686   7.857   2.442   9.084 -0.5935 -0.0192  0.4303
  741MOL0     C97687   7.776   2.513   9.172  0.3086 -0.2660 -0.1629
  741MOL0     O97688   7.643   2.489   9.179  0.6219 -0.3659  0.6913
  741MOL0     C97689   7.584   2.462   9.306  0.7452 -0.5384 -0.7318
  741MOL0     C97690   7.433   2.451   9.288 -0.0132 -0.3792  0.7948
  741MOL0     C97691   7.367   2.567   9.205 -0.1983  0.6411  0.0122
  741MOL0     C97692   7.214   2.577   9.224 -0.3074 -0.3749 -0.0384
  741MOL0     C97693   7.142   2.693   9.148  0.1347  0.0057 -0.9079
  741MOL0     C97694   6.988   2.668   9.163  0.4698  1.4021 -0.0907
  741MOL0     C97695   6.902   2.744   9.065  0.2438 -1.1169 -0.5351
  741MOL0     C97696   6.922   2.896   9.085 -1.6589 -0.0825  0.6393
  741MOL0     N97697   6.844   2.969   8.983  0.2787 -0.1011  0.0192
  741MOL0     C97698   6.878   3.007   8.855  0.1265 -0.4478  0.2811
  741MOL0     C97699   6.783   3.092   8.811 -0.3180  0.7471 -1.0095
  741MOL0     C97700   6.768   3.146   8.677  0.6780 -0.6364 -0.1677
  741MOL0     C97701   6.694   3.052   8.583  0.3095 -0.4257  0.0358
  741MOL0     C97702   6.560   2.991   8.631  0.0363  0.1369  0.5990
  741MOL0     C97703   6.451   3.092   8.680 -0.2334  0.1322  0.3306
  741MOL0     O97704   6.342   3.069   8.583 -0.2815 -0.1941 -0.1747
  741MOL0     C97705   6.212   3.091   8.622 -0.2436 -0.5712 -0.1745
  741MOL0     C97706   6.170   3.212   8.665 -0.3877  0.9627 -0.2026
  741MOL0     C97707   6.029   3.237   8.684 -0.5341 -0.0227 -0.0433
  741MOL0     C97708   5.936   3.131   8.665 -0.6677 -1.2348  0.1240
  741MOL0     C97709   5.788   3.158   8.679 -0.1385  0.3550  0.5078
  741MOL0     O97710   5.704   3.051   8.651 -0.5457  0.0049 -0.0296
  741MOL0     C97711   5.569   3.065   8.663  0.7699  0.5750  0.9025
  741MOL0     C97712   5.496   3.040   8.548 -0.3026  0.8832  0.2782
  741MOL0     C97713   5.361   3.054   8.538 -0.0018  0.3814 -0.6332
  741MOL0     C97714   5.291   3.086   8.662 -0.5704  0.0311  0.0736
  741MOL0     O97715   5.159   3.092   8.659  0.4331 -0.3295 -0.3217
  741MOL0     C97716   5.093   2.969   8.633  0.7459  0.6459  0.2429
  741MOL0     C97717   4.962   2.950   8.704 -0.5206 -0.6398  0.7871
  741MOL0     C97718   4.890   2.827   8.665  0.4715 -0.5739  0.7020
  741MOL0     C97719   4.761   2.805   8.729  0.5524 -0.4929 -0.0202
  741MOL0     C97720   4.682   2.684   8.675  0.1000 -1.0139 -0.7222
  741MOL0     C97721   4.531   2.680   8.719 -0.8302  0.2958  0.2891
  741MOL0     C97722   4.509   2.662   8.861  0.0996 -0.5695 -0.2772
  741MOL0     C97723   4.379   2.579   8.895 -0.0060  0.4133 -0.0917
  741MOL0    Cl97724   4.234   2.673   8.859 -0.6917  0.4909 -0.3642
  741MOL0     C97725   5.358   3.123   8.779 -0.2787 -0.6530  1.2671
  741MOL0     C97726   5.495   3.099   8.778 -1.0201 -0.9208  0.8134
  741MOL0     O97727   5.751   3.269   8.710  0.0066  0.8245 -0.0203
  741MOL0     C97728   5.988   3.007   8.625  0.1540 -0.0152 -0.6431
  741MOL0     C97729   6.125   2.987   8.604 -0.1417 -0.1460 -0.9548
  741MOL0     N97730   6.703   3.113   8.918  0.6363  0.7994 -0.7023
  741MOL0     N97731   6.733   3.040   9.021  0.4168  0.4592  0.8834
  741MOL0     C97732   7.843   2.604   9.255  0.4349  0.9205 -0.2078
  741MOL0     C97733   7.982   2.631   9.238  0.1880 -0.4688  0.3556
  741MOL0     C97734   8.378   2.725   9.092  0.2584  0.2195  0.2753
  741MOL0     C97735   8.446   2.614   9.138  0.3517 -0.9195  0.0362
  741MOL0     C97736   8.589   2.623   9.134 -0.9561  0.4023  0.2686
  741MOL0     C97737   8.658   2.738   9.070 -0.3921  0.8748 -0.0731
  741MOL0     O97738   8.796   2.742   9.052 -0.0175 -0.1007 -0.1445
  741MOL0     C97739   8.880   2.629   9.088 -0.0026  0.4297 -0.0363
  741MOL0     C97740   9.018   2.667   9.063 -0.9152  0.3915  0.1072
  741MOL0     C97741   9.113   2.553   9.116  0.1597  0.1024  0.6633
  741MOL0     C97742   9.254   2.592   9.067  0.7229 -0.0015 -0.4465
  741MOL0     C97743   9.349   2.484   9.068 -0.0902  0.4014 -0.1169
  741MOL0     C97744   9.415   2.380   9.055 -0.8616  0.3660 -0.4399
  741MOL0     C97745   8.584   2.840   9.026  0.2625 -0.3908 -0.0640
  741MOL0     C97746   8.447   2.842   9.038  0.0545  0.1202  0.6477
  741MOL0     H97747   8.036   2.422   8.978 -1.3765  0.7115 -0.7309
  741MOL0     H97748   7.812   2.368   9.020 -2.6874  1.7104 -0.2092
  741MOL0     H97749   7.605   2.548   9.370  1.1788 -0.8719 -0.4231
  741MOL0     H97750   7.627   2.366   9.338  2.5531  0.1522 -0.9599
  741MOL0     H97751   7.390   2.445   9.388 -0.8937  0.0409  0.4535
  741MOL0     H97752   7.414   2.356   9.236 -0.8277  0.1533  0.0744
  741MOL0     H97753   7.399   2.563   9.101 -1.6635 -1.7554 -0.4495
  741MOL0     H97754   7.400   2.655   9.260 -0.1678  0.7850 -0.2383
  741MOL0     H97755   7.170   2.478   9.209 -1.1337 -0.7382  3.6815
  741MOL0     H97756   7.195   2.601   9.329  2.6423 -2.4289  1.0950
  741MOL0     H97757   7.149   2.668   9.042 -0.1687 -1.1052 -0.6699
  741MOL0     H97758   7.185   2.793   9.165  4.0949 -2.0702  4.2685
  741MOL0     H97759   6.956   2.689   9.265  0.1225  1.1177 -0.1374
  741MOL0     H97760   6.968   2.563   9.142 -1.3059  1.6511  0.1219
  741MOL0     H97761   6.933   2.705   8.967  2.2231 -3.0135  0.7535
  741MOL0     H97762   6.794   2.733   9.081  0.0474  1.2893  0.2430
  741MOL0     H97763   7.027   2.921   9.067 -1.5141 -0.6625  0.6651
  741MOL0     H97764   6.889   2.923   9.186 -1.6068 -1.8150  1.1571
  741MOL0     H97765   6.962   2.971   8.795  0.5716  1.4876 -0.3333
  741MOL0     H97766   6.862   3.170   8.626  0.1579 -1.9469 -1.8424
  741MOL0     H97767   6.709   3.238   8.683 -1.0290 -1.6983 -0.0959
  741MOL0     H97768   6.756   2.967   8.557  0.3386 -0.9880  1.8078
  741MOL0     H97769   6.677   3.117   8.496 -1.9916  1.2829  1.6363
  741MOL0     H97770   6.525   2.919   8.557  0.6009  1.4699 -1.0424
  741MOL0     H97771   6.581   2.920   8.711  1.8926 -1.2864 -1.0706
  741MOL0     H97772   6.491   3.193   8.667  0.5388 -0.0645  1.0979
  741MOL0     H97773   6.430   3.067   8.784 -0.6168  0.2171  0.2747
  741MOL0     H97774   6.246   3.289   8.658  3.0292 -2.0201  1.0944
  741MOL0     H97775   5.996   3.327   8.735 -2.9101 -0.9891  0.2555
  741MOL0     H97776   5.554   3.023   8.457  3.6500  2.2550  2.3116
  741MOL0     H97777   5.314   3.040   8.442 -1.1538  0.3123 -0.0761
  741MOL0     H97778   5.152   2.878   8.653  2.5251  1.7842  0.4058
  741MOL0     H97779   5.074   2.975   8.526 -1.0699  1.0436  0.5584
  741MOL0     H97780   4.891   3.032   8.685 -1.3486 -1.1334  1.6199
  741MOL0     H97781   4.983   2.936   8.811 -0.2952 -0.3650  0.7796
  741MOL0     H97782   4.942   2.732   8.681  1.6641 -0.1037 -0.2051
  741MOL0     H97783   4.879   2.822   8.556  0.7036 -1.2601  0.7085
  741MOL0     H97784   4.774   2.777   8.834  0.9478  0.5326  0.2209
  741MOL0     H97785   4.696   2.892   8.724 -0.4205 -1.1726  0.4706
  741MOL0     H97786   4.742   2.596   8.702  1.3801  0.1850  0.4603
  741MOL0     H97787   4.683   2.694   8.566  2.4710 -0.3999 -0.6935
  741MOL0     H97788   4.488   2.602   8.656 -0.8465 -0.0950  0.7752
  741MOL0     H97789   4.473   2.767   8.687  0.3821  0.3251 -2.0014
  741MOL0     H97790   4.589   2.607   8.911 -0.5579 -3.3726 -2.0489
  741MOL0     H97791   4.513   2.759   8.910  3.2559 -0.6384 -0.1932
  741MOL0     H97792   4.379   2.536   8.995 -0.1789 -1.5687 -0.8758
  741MOL0     H97793   4.360   2.485   8.842 -2.2550 -1.5905  3.8117
  741MOL0     H97794   5.299   3.158   8.862 -0.3229  0.2492  0.8618
  741MOL0     H97795   5.554   3.122   8.866 -1.5568  0.0335  0.9408
  741MOL0     H97796   5.920   2.923   8.615 -1.6573  1.1958  0.8862
  741MOL0     H97797   6.163   2.889   8.579 -1.7283 -1.5854  1.7810
  741MOL0     H97798   7.772   2.659   9.315 -1.4420 -1.7931  0.2555
  741MOL0     H97799   8.029   2.711   9.293  0.7804  0.1157 -0.9641
  741MOL0     H97800   8.410   2.521   9.181 -1.1753  1.0885  3.5593
  741MOL0     H97801   8.646   2.534   9.160 -1.5605 -0.2280 -0.4985
  741MOL0     H97802   8.851   2.535   9.040  5.4423 -1.2476 -0.7259
  741MOL0     H97803   8.874   2.621   9.197 -1.4329  0.7907 -0.0655
  741MOL0     H97804   9.031   2.693   8.958  1.5001  1.4477  0.5943
  741MOL0     H97805   9.036   2.760   9.119  0.8507  1.2971 -1.8154
  741MOL0     H97806   9.081   2.453   9.086  1.3037 -1.4176  3.9600
  741MOL0     H97807   9.117   2.548   9.226  1.7852  0.3863  0.6442
  741MOL0     H97808   9.251   2.622   8.962  1.7582  0.5250 -0.3385
  741MOL0     H97809   9.289   2.677   9.126 -0.6032 -0.0493  0.4379
  741MOL0     H97810   9.479   2.297   9.034  1.0278  1.9252 -1.1163
  741MOL0     H97811   8.636   2.921   8.974 -0.4206  1.4701  2.0010
  741MOL0     H97812   8.382   2.923   9.007  0.2652  0.4553  1.0698
  742MOL0     O97813   9.183  11.119   7.304 -0.5539 -0.3912 -0.3857
  742MOL0     C97814   9.202  11.204   7.393 -0.5473 -0.2171  0.1939
  742MOL0     O97815   9.165  11.339   7.391  0.6384 -0.6895 -0.7909
  742MOL0     C97816   9.078  11.392   7.296 -0.2027  0.2937  0.6861
  742MOL0     C97817   9.133  11.481   7.198 -0.1005  0.3312 -1.0521
  742MOL0     C97818   9.049  11.539   7.100  0.5561 -0.5996 -0.5479
  742MOL0     C97819   8.911  11.511   7.100  0.6619 -0.4707  0.2669
  742MOL0     O97820   8.822  11.575   7.010 -0.6231 -0.1388 -0.6580
  742MOL0     C97821   8.870  11.664   6.911  0.0628 -0.6188 -1.4418
  742MOL0     C97822   8.756  11.678   6.803  0.3397  0.9975 -0.1728
  742MOL0     C97823   8.730  11.544   6.733 -1.0431 -0.4104  0.0738
  742MOL0     C97824   8.627  11.558   6.618  0.1406 -0.5068  0.4184
  742MOL0     C97825   8.579  11.430   6.554  0.1620  0.5029 -0.1870
  742MOL0     C97826   8.531  11.327   6.666 -0.2125 -0.6043  0.0717
  742MOL0     C97827   8.481  11.201   6.605 -0.6674 -0.6598  0.4945
  742MOL0     C97828   8.344  11.210   6.545  0.7946  0.7259 -0.8856
  742MOL0     N97829   8.245  11.248   6.657 -0.7289  0.9264 -1.1594
  742MOL0     C97830   8.182  11.163   6.742  0.3682 -0.6382 -0.2340
  742MOL0     C97831   8.077  11.246   6.788 -0.6419  0.2468  0.0736
  742MOL0     C97832   7.949  11.209   6.861 -0.7544 -0.2001  0.0954
  742MOL0     C97833   7.991  11.143   7.000  0.4004  0.1780  0.3694
  742MOL0     C97834   7.888  11.162   7.112 -0.9767  0.9631 -0.1946
  742MOL0     C97835   7.858  11.311   7.148  0.6902  0.1102  0.4152
  742MOL0     O97836   7.773  11.381   7.062  0.8266 -0.1947 -0.4453
  742MOL0     C97837   7.629  11.361   7.066 -0.5694 -0.2529 -0.2678
  742MOL0     C97838   7.552  11.440   6.979  0.0896  0.5797 -0.5185
  742MOL0     C97839   7.413  11.421   6.970 -0.3338  0.7148 -0.2928
  742MOL0     C97840   7.349  11.333   7.064  0.1477 -0.0815  1.0924
  742MOL0     C97841   7.203  11.309   7.060  0.6167 -0.2420  0.5146
  742MOL0     O97842   7.131  11.379   6.970 -0.7653 -0.1066 -0.0628
  742MOL0     C97843   7.001  11.346   6.938  0.3289 -0.2120 -0.1161
  742MOL0     C97844   6.892  11.393   7.013  0.4011 -0.6264  0.5662
  742MOL0     C97845   6.758  11.362   6.976 -0.1097 -0.6494  0.8740
  742MOL0     C97846   6.739  11.299   6.855 -0.1674  0.8189  1.1601
  742MOL0     O97847   6.621  11.257   6.798 -0.2885  0.0864 -0.1252
  742MOL0     C97848   6.507  11.340   6.830  0.7893  0.6275 -0.2149
  742MOL0     C97849   6.435  11.286   6.960 -0.9231 -0.0741 -0.1909
  742MOL0     C97850   6.346  11.391   7.024 -0.4103  0.2338 -0.1482
  742MOL0     C97851   6.235  11.439   6.941  0.4618 -0.0197  0.7917
  742MOL0     C97852   6.112  11.504   7.007  0.5191  0.6538  0.1060
  742MOL0     C97853   6.003  11.395   7.044  0.9185  0.8741  0.1520
  742MOL0     C97854   5.898  11.455   7.139 -0.1120 -0.7652  0.4672
  742MOL0     C97855   5.799  11.554   7.067 -0.3492 -0.1567 -0.7015
  742MOL0    Cl97856   5.676  11.573   7.207 -0.1818  0.0359  0.0013
  742MOL0     C97857   6.850  11.259   6.779  0.5304 -0.3380 -0.5108
  742MOL0     C97858   6.976  11.283   6.821  0.0526 -0.1772  0.4213
  742MOL0     O97859   7.167  11.208   7.117  0.6629 -0.0788  1.0340
  742MOL0     C97860   7.429  11.249   7.142  0.8510 -0.2026 -0.3872
  742MOL0     C97861   7.560  11.273   7.145 -1.0889 -0.1219  0.2891
  742MOL0     N97862   8.086  11.372   6.723 -0.7891  0.8832 -0.3976
  742MOL0     N97863   8.190  11.374   6.648 -0.0828 -0.0302 -0.6260
  742MOL0     C97864   8.859  11.409   7.178 -0.0332 -0.3422 -0.8766
  742MOL0     C97865   8.948  11.348   7.276  0.1400  0.0333  0.3773
  742MOL0     C97866   9.272  11.159   7.512 -0.8736 -0.6413 -0.4828
  742MOL0     C97867   9.286  11.250   7.616  0.1014 -0.0349  0.2552
  742MOL0     C97868   9.352  11.215   7.735 -0.3227  0.8474  0.1669
  742MOL0     C97869   9.397  11.083   7.760  0.1649  0.2727  1.1245
  742MOL0     O97870   9.458  11.051   7.880  0.3192  0.7434  0.2282
  742MOL0     C97871   9.541  11.139   7.954  0.1773  0.0807 -0.1263
  742MOL0     C97872   9.678  11.151   7.893 -0.2923 -0.0372 -0.0950
  742MOL0     C97873   9.759  11.027   7.914 -0.7406  0.2859 -0.6476
  742MOL0     C97874   9.920  11.053   7.914  0.0015 -0.7666 -0.8256
  742MOL0     C97875   9.979  11.113   8.035 -0.4561  0.0270 -0.0640
  742MOL0     C97876  10.029  11.159   8.134  0.1289  0.1418 -0.0068
  742MOL0     C97877   9.373  10.988   7.657 -0.6564  0.5208  0.6387
  742MOL0     C97878   9.326  11.027   7.527  0.1579 -0.5884  0.0361
  742MOL0     H97879   9.240  11.501   7.197  0.0914 -0.5653 -3.0607
  742MOL0     H97880   9.099  11.619   7.047  2.6292  0.1184  2.2525
  742MOL0     H97881   8.946  11.606   6.857  0.2505 -2.1863  0.4326
  742MOL0     H97882   8.900  11.761   6.951 -1.4644 -1.1608  1.2438
  742MOL0     H97883   8.772  11.761   6.735  0.2022  0.8841 -0.3451
  742MOL0     H97884   8.671  11.710   6.865  0.4758 -0.8851  1.0807
  742MOL0     H97885   8.687  11.473   6.804 -2.9969 -1.6302 -2.1757
  742MOL0     H97886   8.828  11.507   6.702 -0.2889  1.3237  0.2690
  742MOL0     H97887   8.548  11.618   6.663  3.4653  1.8744  3.6963
  742MOL0     H97888   8.668  11.631   6.548  1.6022 -1.2004  0.5172
  742MOL0     H97889   8.669  11.388   6.509 -0.3194  1.3663 -2.0318
  742MOL0     H97890   8.503  11.445   6.477  0.6232  2.2947 -0.3324
  742MOL0     H97891   8.468  11.376   6.741 -1.2774 -1.6667 -0.1125
  742MOL0     H97892   8.627  11.290   6.705  2.7744  1.9214 -3.9867
  742MOL0     H97893   8.550  11.170   6.527 -1.3552  2.6381 -1.6393
  742MOL0     H97894   8.460  11.129   6.685  0.6137  0.9096  2.3370
  742MOL0     H97895   8.311  11.112   6.507  1.5764  0.8649 -1.9854
  742MOL0     H97896   8.336  11.268   6.452  4.1772 -0.2282 -1.9071
  742MOL0     H97897   8.210  11.061   6.767  2.0105  0.2186  1.8184
  742MOL0     H97898   7.897  11.143   6.790  0.0943  0.7295 -1.4575
  742MOL0     H97899   7.884  11.296   6.874 -0.9367 -0.3889  0.4625
  742MOL0     H97900   8.091  11.182   7.021  1.2270 -0.4937 -1.9398
  742MOL0     H97901   8.012  11.036   7.001  2.2761  0.5231  0.7348
  742MOL0     H97902   7.794  11.113   7.086 -0.8945  0.4217  0.5122
  742MOL0     H97903   7.916  11.110   7.204 -1.4405  1.1539  0.0552
  742MOL0     H97904   7.945  11.375   7.131  0.0650  0.8951  0.1203
  742MOL0     H97905   7.833  11.324   7.253  1.5189 -0.8479  0.7554
  742MOL0     H97906   7.599  11.513   6.914  0.2184  0.4804 -0.5371
  742MOL0     H97907   7.357  11.474   6.894 -0.8935  0.6921  0.1029
  742MOL0     H97908   6.917  11.453   7.100 -2.3475 -1.1250  1.8030
  742MOL0     H97909   6.675  11.403   7.033 -0.3965  3.2196 -1.9396
  742MOL0     H97910   6.430  11.346   6.753  0.5238  2.5212  0.1518
  742MOL0     H97911   6.527  11.445   6.854 -5.8276  1.9847  1.1773
  742MOL0     H97912   6.499  11.246   7.040 -1.3097 -3.0957 -1.2543
  742MOL0     H97913   6.390  11.192   6.928  1.0056 -0.4899 -1.9602
  742MOL0     H97914   6.413  11.472   7.053  0.8100 -1.2684  1.5157
  742MOL0     H97915   6.304  11.352   7.118 -1.5908 -1.1216 -1.1889
  742MOL0     H97916   6.273  11.512   6.868 -2.8496 -0.7117 -1.8562
  742MOL0     H97917   6.207  11.365   6.866  1.3817  3.6708 -3.6690
  742MOL0     H97918   6.076  11.580   6.937  2.6364  0.3517 -1.4179
  742MOL0     H97919   6.151  11.548   7.099 -0.4777 -1.6558  1.7207
  742MOL0     H97920   6.039  11.305   7.094 -1.4263 -0.1009  0.2336
  742MOL0     H97921   5.960  11.353   6.952  1.8406  1.2749 -0.4832
  742MOL0     H97922   5.842  11.369   7.177 -0.0150 -1.0395 -0.0024
  742MOL0     H97923   5.950  11.497   7.225  2.8421 -4.8780  0.9960
  742MOL0     H97924   5.757  11.509   6.976 -1.0515  0.8279 -0.8847
  742MOL0     H97925   5.834  11.650   7.027 -0.5678  0.3448  0.2895
  742MOL0     H97926   6.843  11.203   6.686  0.5295 -2.5803  0.7682
  742MOL0     H97927   7.062  11.249   6.763  0.0975  0.9041 -0.1754
  742MOL0     H97928   7.387  11.183   7.217 -1.5171 -0.5732 -1.8942
  742MOL0     H97929   7.631  11.213   7.201  1.5674  0.9431 -1.6877
  742MOL0     H97930   8.753  11.386   7.174  0.1285 -0.8996 -2.8971
  742MOL0     H97931   8.917  11.273   7.348 -4.3173  0.6983 -0.5088
  742MOL0     H97932   9.254  11.354   7.608 -1.5213 -0.5239 -0.0543
  742MOL0     H97933   9.366  11.299   7.803  0.6552 -0.8879  2.2377
  742MOL0     H97934   9.543  11.110   8.060 -3.3159 -0.0604 -0.0062
  742MOL0     H97935   9.497  11.238   7.950 -0.7480 -0.3639 -1.3128
  742MOL0     H97936   9.664  11.170   7.787  1.4252 -0.6246 -0.4546
  742MOL0     H97937   9.731  11.234   7.941 -0.9403  1.1154 -1.3278
  742MOL0     H97938   9.737  10.949   7.840  0.3561  0.4690 -1.1885
  742MOL0     H97939   9.731  10.982   8.010  1.9035  1.8173  0.9519
  742MOL0     H97940   9.971  10.958   7.899 -1.0102 -1.6572  1.1410
  742MOL0     H97941   9.929  11.133   7.839 -1.3993  0.3487  0.1358
  742MOL0     H97942  10.065  11.196   8.227 -4.4316  2.0290  1.2929
  742MOL0     H97943   9.405  10.885   7.671 -1.7610 -0.2097 -1.7538
  742MOL0     H97944   9.331  10.963   7.439 -1.3795  0.7522 -1.0794
  743MOL0     O97945   2.013   6.840   0.199  0.0399  0.3603  0.1954
  743MOL0     C97946   1.945   6.763   0.129 -0.6598  0.4497  0.0945
  743MOL0     O97947   1.915   6.634   0.165 -0.1231 -0.4099  0.8747
  743MOL0     C97948   1.933   6.582   0.288  1.1926 -0.0660 -0.3702
  743MOL0     C97949   1.838   6.498   0.332  0.6373 -0.7158  0.3342
  743MOL0     C97950   1.844   6.428   0.451  0.4305  0.7444  0.2384
  743MOL0     C97951   1.961   6.426   0.533  0.5094 -0.5152 -0.1694
  743MOL0     O97952   1.957   6.346   0.642 -0.1624  0.0276  0.2319
  743MOL0     C97953   2.034   6.381   0.758  0.4628  0.4287  0.5674
  743MOL0     C97954   2.004   6.290   0.879  0.0221 -0.9766 -0.0668
  743MOL0     C97955   1.857   6.306   0.915 -0.5214 -0.2071  0.5590
  743MOL0     C97956   1.822   6.199   1.018 -0.1662 -0.2989 -1.1651
  743MOL0     C97957   1.673   6.228   1.071 -0.0413  0.0940  0.9916
  743MOL0     C97958   1.564   6.173   0.963 -0.0027 -0.1798  0.1296
  743MOL0     C97959   1.426   6.174   1.041 -0.9268  0.0715  0.3729
  743MOL0     C97960   1.308   6.135   0.952 -0.4875  0.1187 -0.4893
  743MOL0     N97961   1.187   6.159   1.035 -0.2673  0.6739 -0.5796
  743MOL0     C97962   1.091   6.240   0.993  0.5998  0.6020 -0.3573
  743MOL0     C97963   1.006   6.246   1.097  0.6171 -1.2035  0.1838
  743MOL0     C97964   0.898   6.354   1.104  0.3257 -0.0259 -0.2520
  743MOL0     C97965   0.782   6.329   1.198 -0.6342  0.5809  0.2508
  743MOL0     C97966   0.680   6.442   1.236 -0.0727  0.7311 -0.8594
  743MOL0     C97967   0.618   6.486   1.106  0.1317  0.2708  0.0600
  743MOL0     O97968   0.521   6.581   1.129  0.8107 -0.2876 -0.1237
  743MOL0     C97969   0.397   6.552   1.180  0.6108 -0.2588 -0.2788
  743MOL0     C97970   0.344   6.428   1.209  1.1690 -0.8528 -0.6733
  743MOL0     C97971   0.212   6.413   1.245 -0.3553  0.6403  0.0374
  743MOL0     C97972   0.113   6.521   1.230  0.2556  0.1589  0.0392
  743MOL0     C97973  -0.028   6.509   1.265 -0.6576  0.0724 -0.1368
  743MOL0     O97974  -0.103   6.627   1.269 -0.5343  0.9559  0.5104
  743MOL0     C97975  -0.243   6.633   1.287  0.7652  0.0513 -0.0735
  743MOL0     C97976  -0.306   6.749   1.242  0.4261  0.4989 -0.6773
  743MOL0     C97977  -0.443   6.763   1.246 -0.2179  0.5402 -0.2144
  743MOL0     C97978  -0.529   6.678   1.314  0.1882 -0.0563 -0.2447
  743MOL0     O97979  -0.663   6.704   1.318  0.3320  0.0348 -0.5273
  743MOL0     C97980  -0.699   6.742   1.450  0.0818  0.8628 -0.9989
  743MOL0     C97981  -0.809   6.656   1.507  0.1906 -0.4807 -0.8604
  743MOL0     C97982  -0.949   6.686   1.457 -0.2301 -0.4006  0.4542
  743MOL0     C97983  -1.055   6.592   1.515  0.1611  0.6182  0.0911
  743MOL0     C97984  -1.183   6.590   1.422 -0.8862 -0.8643  0.0834
  743MOL0     C97985  -1.285   6.499   1.483  0.2745 -0.3204  0.4074
  743MOL0     C97986  -1.392   6.483   1.376 -0.0228  0.4234 -0.3863
  743MOL0     C97987  -1.517   6.436   1.438  0.4806  0.5212  0.5894
  743MOL0    Cl97988  -1.649   6.431   1.316  0.3281  0.2264  0.1238
  743MOL0     C97989  -0.475   6.563   1.380  0.2041 -0.1092  1.0421
  743MOL0     C97990  -0.329   6.550   1.365  0.5702  0.1137  0.5029
  743MOL0     O97991  -0.069   6.398   1.300  0.1946 -0.5788  0.4488
  743MOL0     C97992   0.177   6.642   1.193 -0.2083 -0.5846 -0.5369
  743MOL0     C97993   0.313   6.661   1.181 -0.4637 -0.1795 -0.8697
  743MOL0     N97994   1.044   6.165   1.201 -0.3542 -0.5127 -0.1131
  743MOL0     N97995   1.158   6.121   1.163  0.4856  0.3908 -0.3342
  743MOL0     C97996   2.064   6.515   0.495  0.1870  0.6532  0.5619
  743MOL0     C97997   2.044   6.590   0.373  0.3849 -0.1498 -0.2959
  743MOL0     C97998   1.897   6.802  -0.005 -0.3713  0.1847 -0.4516
  743MOL0     C97999   1.853   6.707  -0.093  0.5297  0.1527 -0.0052
  743MOL0     C98000   1.794   6.747  -0.214  0.3542 -0.4018  0.1099
  743MOL0     C98001   1.786   6.879  -0.262 -0.4347  0.4928  0.3664
  743MOL0     O98002   1.732   6.916  -0.379  1.2149  0.3290 -0.2886
  743MOL0     C98003   1.681   6.826  -0.477 -0.5387  0.3294  0.1576
  743MOL0     C98004   1.544   6.785  -0.447  0.1793 -0.0284 -1.2908
  743MOL0     C98005   1.437   6.892  -0.419  0.4589  0.2911  0.6404
  743MOL0     C98006   1.314   6.844  -0.347 -0.1336  0.6936  0.0003
  743MOL0     C98007   1.339   6.778  -0.217 -0.6986  0.1056  0.1046
  743MOL0     C98008   1.359   6.729  -0.106  0.1928  0.0726  0.8150
  743MOL0     C98009   1.836   6.971  -0.180 -0.1359 -0.1670 -1.4218
  743MOL0     C98010   1.899   6.936  -0.055 -0.3622  0.2555  0.0770
  743MOL0     H98011   1.749   6.495   0.269  1.0286  2.0612 -0.4755
  743MOL0     H98012   1.757   6.368   0.476  0.2788  0.7483 -0.2728
  743MOL0     H98013   2.023   6.489   0.773 -1.3605  0.5185 -1.0805
  743MOL0     H98014   2.142   6.370   0.746  0.7547  4.0721 -1.9653
  743MOL0     H98015   2.066   6.316   0.965  1.0632 -1.7057 -0.5630
  743MOL0     H98016   2.024   6.185   0.853 -0.1056 -0.6577 -1.5102
  743MOL0     H98017   1.809   6.287   0.819 -0.2593 -0.6743  0.5178
  743MOL0     H98018   1.839   6.410   0.944  1.8902 -0.1412  2.0576
  743MOL0     H98019   1.818   6.106   0.961 -5.4852 -2.1127  1.4449
  743MOL0     H98020   1.887   6.189   1.105 -2.7431 -1.4756  0.7957
  743MOL0     H98021   1.659   6.330   1.107 -0.9101 -0.6198  2.7801
  743MOL0     H98022   1.651   6.156   1.150 -2.1170 -0.8830 -0.4022
  743MOL0     H98023   1.587   6.071   0.931  4.3080  0.6947 -0.0758
  743MOL0     H98024   1.566   6.230   0.870  1.2938 -1.7194 -0.8239
  743MOL0     H98025   1.425   6.100   1.121 -0.7397  0.2599  0.5504
  743MOL0     H98026   1.418   6.272   1.088  2.7461  1.0420 -0.7118
  743MOL0     H98027   1.312   6.032   0.916  0.4743 -0.7372  1.9266
  743MOL0     H98028   1.313   6.206   0.868  0.6254  1.6898  0.8451
  743MOL0     H98029   1.082   6.298   0.901 -0.9097 -0.6885 -1.0728
  743MOL0     H98030   0.856   6.354   1.003 -0.3539 -2.9488 -0.0590
  743MOL0     H98031   0.943   6.452   1.122  2.5001 -0.6692 -1.7780
  743MOL0     H98032   0.822   6.293   1.294  0.6139 -0.3154 -0.5818
  743MOL0     H98033   0.729   6.245   1.153  1.3088 -1.0162  0.8269
  743MOL0     H98034   0.614   6.407   1.316 -0.4008  1.6928 -0.7010
  743MOL0     H98035   0.735   6.525   1.281  0.5377  2.0145 -3.7459
  743MOL0     H98036   0.577   6.405   1.046 -0.1929 -0.1138  0.7856
  743MOL0     H98037   0.696   6.537   1.049 -0.6665  0.4921 -0.8712
  743MOL0     H98038   0.409   6.344   1.230 -0.1207 -1.2131  2.2844
  743MOL0     H98039   0.175   6.314   1.266 -2.4716  1.6068  1.2231
  743MOL0     H98040  -0.251   6.833   1.201 -0.8972  1.8549  0.2397
  743MOL0     H98041  -0.492   6.851   1.204  0.8171  1.6510  0.8329
  743MOL0     H98042  -0.738   6.844   1.452  1.0784  1.2442  0.3702
  743MOL0     H98043  -0.622   6.730   1.526 -0.8745 -2.3049 -0.3645
  743MOL0     H98044  -0.820   6.671   1.615 -0.3943  0.7535 -1.0816
  743MOL0     H98045  -0.791   6.550   1.485  0.8469 -0.2948 -1.2601
  743MOL0     H98046  -0.949   6.674   1.348  0.5309 -0.3839  0.4454
  743MOL0     H98047  -0.976   6.787   1.488 -0.0455 -0.1902 -0.0432
  743MOL0     H98048  -1.005   6.494   1.515 -0.5533  0.2480 -0.5301
  743MOL0     H98049  -1.082   6.627   1.615 -1.4192  0.4403 -0.2482
  743MOL0     H98050  -1.159   6.555   1.322  0.7397  1.3075 -0.3680
  743MOL0     H98051  -1.220   6.693   1.416  0.9039 -0.2716 -2.3989
  743MOL0     H98052  -1.325   6.547   1.573 -0.0634  0.2791 -0.0539
  743MOL0     H98053  -1.241   6.401   1.503 -1.0924 -0.8334  1.0463
  743MOL0     H98054  -1.404   6.576   1.321  2.3430  0.6400 -0.6499
  743MOL0     H98055  -1.353   6.410   1.303 -2.6318  0.2722 -1.7322
  743MOL0     H98056  -1.560   6.502   1.514 -1.5296 -2.6794  2.4340
  743MOL0     H98057  -1.502   6.341   1.491 -3.3568 -0.3126  0.4413
  743MOL0     H98058  -0.525   6.485   1.435 -0.1991 -2.6341 -2.5659
  743MOL0     H98059  -0.280   6.466   1.414 -1.5121 -1.3226  0.2312
  743MOL0     H98060   0.130   6.738   1.214  2.8585  0.8823  0.2006
  743MOL0     H98061   0.362   6.757   1.167  1.6698 -0.8057  1.4870
  743MOL0     H98062   2.160   6.524   0.543  0.8588 -0.8165 -0.4373
  743MOL0     H98063   2.125   6.656   0.346  0.8794 -1.5188 -2.4086
  743MOL0     H98064   1.867   6.604  -0.062  0.2032 -0.4240 -1.6880
  743MOL0     H98065   1.739   6.672  -0.271 -1.2810 -0.7724  2.0349
  743MOL0     H98066   1.746   6.742  -0.504  1.0577  1.3033  0.7615
  743MOL0     H98067   1.684   6.887  -0.567 -0.6031 -1.4042 -1.0568
  743MOL0     H98068   1.498   6.724  -0.526 -3.2841 -2.1751  2.0141
  743MOL0     H98069   1.549   6.721  -0.358  0.6198  2.0708  0.2643
  743MOL0     H98070   1.406   6.937  -0.514  1.5306 -1.5671 -0.6570
  743MOL0     H98071   1.478   6.972  -0.356 -1.9109  0.7989  1.6499
  743MOL0     H98072   1.250   6.930  -0.324 -2.2131 -1.3578  2.5845
  743MOL0     H98073   1.250   6.779  -0.407  0.4718  0.9114 -0.9078
  743MOL0     H98074   1.364   6.686  -0.008  0.3044 -1.9055 -0.0058
  743MOL0     H98075   1.816   7.077  -0.197  2.7498  0.7819  0.3108
  743MOL0     H98076   1.953   6.998   0.016 -0.3401  0.3015  0.0199
  744MOL0     O98077   9.239  10.811   1.150  0.0250 -0.6890  0.1764
  744MOL0     C98078   9.276  10.841   1.032  0.3562  0.5030  0.0123
  744MOL0     O98079   9.201  10.837   0.917 -0.3323  0.3321 -0.0880
  744MOL0     C98080   9.085  10.771   0.931  0.0516  0.6645  1.1066
  744MOL0     C98081   8.964  10.832   0.969  0.4416 -0.6922  0.1894
  744MOL0     C98082   8.851  10.760   0.989  1.2194  0.3410  0.7031
  744MOL0     C98083   8.846  10.620   0.969 -0.2580 -0.1522  1.0431
  744MOL0     O98084   8.754  10.532   1.000  0.3578 -0.0591 -0.4912
  744MOL0     C98085   8.621  10.578   0.996 -0.4584 -0.1287 -0.0500
  744MOL0     C98086   8.519  10.468   1.006 -0.1906 -0.1150 -0.4251
  744MOL0     C98087   8.380  10.519   0.995 -0.8048 -0.6148  0.2650
  744MOL0     C98088   8.279  10.408   0.975  1.1156  0.1678 -0.4823
  744MOL0     C98089   8.138  10.456   0.947  0.1318  0.2190  0.3568
  744MOL0     C98090   8.040  10.340   0.982 -0.3655  0.0006  0.9465
  744MOL0     C98091   7.893  10.387   0.965  0.9880 -0.1268 -0.0567
  744MOL0     C98092   7.849  10.523   1.022 -0.1564  0.1480 -0.6506
  744MOL0     N98093   7.830  10.525   1.170 -1.1585  0.1249  1.2996
  744MOL0     C98094   7.922  10.588   1.252 -0.2509  0.1561 -0.3718
  744MOL0     C98095   7.855  10.603   1.370  0.2839 -0.4049 -0.6546
  744MOL0     C98096   7.887  10.672   1.495 -0.2787 -0.7985  0.6711
  744MOL0     C98097   7.933  10.588   1.608  0.1601  0.8318 -0.6244
  744MOL0     C98098   8.023  10.664   1.715 -0.5619 -0.3047 -0.0450
  744MOL0     C98099   8.107  10.567   1.803 -0.0317 -0.1052 -0.0545
  744MOL0     O98100   8.183  10.645   1.883  0.9343 -0.1269  0.1807
  744MOL0     C98101   8.313  10.665   1.847  0.3956  0.0028 -0.1500
  744MOL0     C98102   8.366  10.682   1.716  0.1583 -0.7158 -0.8493
  744MOL0     C98103   8.503  10.688   1.711  0.0132 -0.9503  0.1252
  744MOL0     C98104   8.593  10.680   1.823 -0.2261 -0.0999 -0.5563
  744MOL0     C98105   8.734  10.696   1.803 -0.4907  0.0376  0.5162
  744MOL0     O98106   8.807  10.728   1.915  0.4834  0.1970 -0.7820
  744MOL0     C98107   8.942  10.758   1.920 -0.4109  0.2782  0.9974
  744MOL0     C98108   9.037  10.683   1.847 -0.0182 -0.3107 -0.9265
  744MOL0     C98109   9.175  10.704   1.852  0.4942 -0.5253  0.7713
  744MOL0     C98110   9.234  10.808   1.929 -0.2454 -0.1351 -1.8437
  744MOL0     O98111   9.366  10.831   1.944 -0.1116  0.8202 -0.2291
  744MOL0     C98112   9.456  10.729   1.886  0.8733 -0.3693 -0.1591
  744MOL0     C98113   9.601  10.767   1.886 -0.3222  0.0798  0.2183
  744MOL0     C98114   9.689  10.649   1.853 -0.4054  0.2729  0.2830
  744MOL0     C98115   9.835  10.680   1.849  0.5334  0.7251  0.0989
  744MOL0     C98116   9.938  10.606   1.763  0.0516 -0.3800 -0.1077
  744MOL0     C98117  10.073  10.627   1.831 -0.1106  0.3752 -0.1461
  744MOL0     C98118  10.130  10.764   1.798 -0.1262  0.2884 -0.5082
  744MOL0     C98119  10.248  10.789   1.887  0.6122 -0.2586 -0.2130
  744MOL0    Cl98120  10.308  10.962   1.847 -0.3962  0.3276 -0.4023
  744MOL0     C98121   9.139  10.889   2.002  1.7739  0.4104 -0.2821
  744MOL0     C98122   8.995  10.865   1.997 -0.4398 -0.9025 -0.1656
  744MOL0     O98123   8.778  10.692   1.684 -0.6011 -0.1577  0.5686
  744MOL0     C98124   8.534  10.665   1.946 -0.1911 -0.6608  0.1473
  744MOL0     C98125   8.397  10.671   1.957 -0.5880  0.2261  0.4728
  744MOL0     N98126   7.728  10.567   1.352  0.4239 -0.7463 -0.2115
  744MOL0     N98127   7.714  10.508   1.235  1.1336 -0.0939 -0.3608
  744MOL0     C98128   8.965  10.555   0.928  0.4219 -0.4877 -1.8018
  744MOL0     C98129   9.084  10.633   0.916 -0.4708 -0.0145  0.2107
  744MOL0     C98130   9.414  10.882   1.018  0.3671  0.1484  0.6047
  744MOL0     C98131   9.490  10.907   1.135  0.7327 -0.5071  0.4870
  744MOL0     C98132   9.628  10.946   1.122  0.6286  0.2621 -0.0744
  744MOL0     C98133   9.686  10.974   1.000 -0.4256  0.5618  0.0485
  744MOL0     O98134   9.820  11.011   0.984  0.1910  0.3256 -0.3194
  744MOL0     C98135   9.861  11.045   0.853  0.6367  0.3038 -0.2320
  744MOL0     C98136  10.012  11.080   0.874  0.4129 -0.0335  0.5302
  744MOL0     C98137  10.020  11.219   0.929 -0.5083  0.3098 -0.7479
  744MOL0     C98138  10.174  11.242   0.953  0.1582 -0.4743 -0.1543
  744MOL0     C98139  10.191  11.340   1.058  0.1274  0.7533 -0.1507
  744MOL0     C98140  10.219  11.418   1.148 -0.6904  0.4748  1.2861
  744MOL0     C98141   9.602  10.956   0.889  0.1297 -0.7100  0.3021
  744MOL0     C98142   9.476  10.907   0.893 -0.4102  0.3803 -0.1280
  744MOL0     H98143   8.955  10.939   0.988 -0.1364 -0.7269  0.1457
  744MOL0     H98144   8.762  10.816   1.016  1.8813  2.4633 -1.1689
  744MOL0     H98145   8.608  10.645   0.911  1.2783  0.0619 -0.2034
  744MOL0     H98146   8.604  10.648   1.078 -3.2905  0.6825 -1.2060
  744MOL0     H98147   8.536  10.420   1.103  1.1110  1.0510 -0.0387
  744MOL0     H98148   8.544  10.396   0.927  1.7105 -0.7473  0.6658
  744MOL0     H98149   8.378  10.575   0.901 -0.6326 -2.4208 -0.8469
  744MOL0     H98150   8.350  10.577   1.083 -3.2386 -1.9286  0.3859
  744MOL0     H98151   8.309  10.352   0.886  2.2477 -0.8654  0.5189
  744MOL0     H98152   8.274  10.347   1.065 -2.0735 -0.4449 -0.9644
  744MOL0     H98153   8.113  10.495   0.848 -2.2973  1.1525  1.2747
  744MOL0     H98154   8.116  10.542   1.011 -0.3566  1.1709 -1.0281
  744MOL0     H98155   8.046  10.308   1.086 -2.5022  2.2170  1.8494
  744MOL0     H98156   8.063  10.252   0.920  0.7111  1.0762 -0.2320
  744MOL0     H98157   7.862  10.374   0.861  1.5120 -1.9274 -0.0090
  744MOL0     H98158   7.832  10.312   1.016  1.1567 -0.4624 -0.3432
  744MOL0     H98159   7.752  10.527   0.971 -1.1242 -1.0609  1.0128
  744MOL0     H98160   7.915  10.605   0.991 -2.8929  1.5474 -3.3272
  744MOL0     H98161   8.015  10.638   1.231  0.2396 -0.3172  0.6166
  744MOL0     H98162   7.800  10.731   1.528 -2.3129 -2.2309 -1.7129
  744MOL0     H98163   7.974  10.734   1.473 -1.1609  0.6304  1.0723
  744MOL0     H98164   7.991  10.502   1.572  1.3052  0.3689  2.0266
  744MOL0     H98165   7.840  10.549   1.650 -1.5089  2.8265 -2.2752
  744MOL0     H98166   8.095  10.727   1.661 -0.6429  0.1433  0.3706
  744MOL0     H98167   7.957  10.718   1.783 -3.8242 -1.6788 -1.8476
  744MOL0     H98168   8.163  10.499   1.738  0.9022  2.6543 -2.4033
  744MOL0     H98169   8.033  10.508   1.856  1.8582 -1.2326  1.4400
  744MOL0     H98170   8.298  10.700   1.633 -1.2748 -0.9457  0.2362
  744MOL0     H98171   8.539  10.696   1.609 -6.3669 -0.0535 -2.5447
  744MOL0     H98172   9.004  10.598   1.788 -0.5354 -0.6444 -0.1751
  744MOL0     H98173   9.238  10.639   1.792 -1.1635  0.3346 -2.1188
  744MOL0     H98174   9.430  10.712   1.781  2.1911  2.2845 -1.0119
  744MOL0     H98175   9.434  10.638   1.942 -1.9137  0.5321  0.4038
  744MOL0     H98176   9.622  10.813   1.983  0.6276 -0.9514  0.5200
  744MOL0     H98177   9.614  10.844   1.810  0.2535 -0.2349 -0.0104
  744MOL0     H98178   9.653  10.618   1.754 -4.3352 -1.3323  1.9902
  744MOL0     H98179   9.668  10.567   1.922 -1.7327  0.1081 -0.2807
  744MOL0     H98180   9.837  10.786   1.821 -0.5944  0.6140 -0.4578
  744MOL0     H98181   9.858  10.673   1.956  0.6348 -0.3554  0.0102
  744MOL0     H98182   9.938  10.644   1.661 -4.0880 -1.0059 -0.5194
  744MOL0     H98183   9.905  10.501   1.770 -0.7456 -0.1403 -0.1906
  744MOL0     H98184  10.138  10.550   1.788  0.2988  0.0791  0.9845
  744MOL0     H98185  10.072  10.618   1.940  3.4703  3.6557  0.3607
  744MOL0     H98186  10.167  10.758   1.695  0.6290  1.2813 -0.3080
  744MOL0     H98187  10.058  10.846   1.812 -1.0403 -0.9311  2.9429
  744MOL0     H98188  10.330  10.721   1.863  0.8731  0.0599 -0.2324
  744MOL0     H98189  10.232  10.789   1.995  0.8977  0.8143 -0.1566
  744MOL0     H98190   9.176  10.966   2.070  2.1398  1.3897 -1.5516
  744MOL0     H98191   8.918  10.925   2.045  0.7757 -0.2104  1.0265
  744MOL0     H98192   8.585  10.662   2.043 -1.4711  2.9513  1.0587
  744MOL0     H98193   8.344  10.654   2.050 -0.5194  1.6805  0.8042
  744MOL0     H98194   8.955  10.449   0.911  1.7135 -1.1498  1.0471
  744MOL0     H98195   9.176  10.586   0.882  0.0627  1.4787 -0.4955
  744MOL0     H98196   9.454  10.899   1.238  1.3032  2.8037  1.0436
  744MOL0     H98197   9.697  10.970   1.203  0.8582  2.1043 -0.7672
  744MOL0     H98198   9.806  11.130   0.812  1.9029  0.2804 -2.0838
  744MOL0     H98199   9.848  10.967   0.777 -0.0216  1.8244 -1.7380
  744MOL0     H98200  10.058  11.003   0.937  0.6232 -0.0695  0.3339
  744MOL0     H98201  10.067  11.071   0.779 -0.7052  0.0826 -0.1434
  744MOL0     H98202   9.979  11.209   1.029 -0.2164  0.6124 -0.5981
  744MOL0     H98203   9.964  11.294   0.872 -2.6954 -1.2806 -0.8215
  744MOL0     H98204  10.215  11.150   0.994  0.0292 -0.8027 -0.7405
  744MOL0     H98205  10.231  11.264   0.862  1.1354 -0.6252  0.4091
  744MOL0     H98206  10.256  11.484   1.224  1.0453  1.5890 -0.4378
  744MOL0     H98207   9.642  10.970   0.789 -1.5740 -2.2827 -0.6440
  744MOL0     H98208   9.417  10.888   0.804  0.3422 -0.7865 -0.4053
  745MOL0     O98209   7.594   9.434   1.492  0.3156 -0.3138 -0.1961
  745MOL0     C98210   7.685   9.428   1.407  0.4015  0.3765 -0.8101
  745MOL0     O98211   7.668   9.380   1.277 -0.4133  0.3022 -0.6382
  745MOL0     C98212   7.549   9.336   1.221 -1.2795  0.4759 -0.1105
  745MOL0     C98213   7.421   9.349   1.272  0.2415  0.3238  0.4719
  745MOL0     C98214   7.315   9.270   1.228  0.0537  0.0787 -0.0430
  745MOL0     C98215   7.337   9.187   1.115  0.2830 -0.0347 -0.0369
  745MOL0     O98216   7.236   9.113   1.059  0.4171 -0.5665  0.0184
  745MOL0     C98217   7.117   9.080   1.140  0.3943 -0.3382  0.5704
  745MOL0     C98218   7.038   8.959   1.091 -0.4952 -0.2133  0.4471
  745MOL0     C98219   6.894   9.007   1.045  0.6980  0.5188  0.3191
  745MOL0     C98220   6.800   8.886   1.015 -0.5700 -0.5433 -0.4514
  745MOL0     C98221   6.761   8.800   1.134  0.9323  0.2261  0.2083
  745MOL0     C98222   6.662   8.872   1.233  0.4401 -0.5482 -0.0674
  745MOL0     C98223   6.515   8.843   1.199  0.3523  0.0955 -0.0490
  745MOL0     C98224   6.423   8.902   1.307  0.4637 -0.0200 -0.8517
  745MOL0     N98225   6.285   8.895   1.272  1.2469  0.5517  0.7607
  745MOL0     C98226   6.216   8.902   1.150 -0.9476 -0.1302 -0.3135
  745MOL0     C98227   6.094   8.857   1.171 -0.0015  0.1895  0.6978
  745MOL0     C98228   6.008   8.835   1.054  0.2741  0.5673  0.6594
  745MOL0     C98229   5.873   8.906   1.056 -0.8836  0.0978  0.5200
  745MOL0     C98230   5.818   8.946   1.192  0.7470 -0.9560 -0.1035
  745MOL0     C98231   5.674   9.011   1.186 -0.5059 -0.4664  0.3162
  745MOL0     O98232   5.573   8.917   1.181 -0.0168 -0.6786  0.0444
  745MOL0     C98233   5.443   8.967   1.205  0.0042 -0.0319 -0.8161
  745MOL0     C98234   5.341   8.869   1.214  0.6655  0.6037 -0.6177
  745MOL0     C98235   5.220   8.906   1.248  0.3551  0.1965  0.7129
  745MOL0     C98236   5.175   9.035   1.281 -1.0962 -0.3744  0.3121
  745MOL0     C98237   5.039   9.059   1.316 -0.5329  0.0613 -0.4497
  745MOL0     O98238   4.965   8.949   1.366 -0.2113  0.1936 -0.4903
  745MOL0     C98239   4.838   8.973   1.415 -0.4104 -0.0164  0.2689
  745MOL0     C98240   4.746   9.062   1.354  0.5395 -0.1819 -0.1959
  745MOL0     C98241   4.633   9.101   1.426 -0.1910  0.3385 -0.1103
  745MOL0     C98242   4.602   9.044   1.550  0.0350  0.1316  0.6548
  745MOL0     O98243   4.486   9.074   1.612 -0.3322 -0.3111 -0.7206
  745MOL0     C98244   4.406   9.192   1.568  0.3289  0.4839  0.0577
  745MOL0     C98245   4.298   9.155   1.465  0.7641 -0.3697  0.0615
  745MOL0     C98246   4.226   9.291   1.415 -0.4679 -0.0889 -0.4308
  745MOL0     C98247   4.124   9.279   1.302 -0.3791 -0.5800  0.1932
  745MOL0     C98248   4.084   9.425   1.265  0.1743 -0.4387 -0.4037
  745MOL0     C98249   4.022   9.501   1.375  0.7597 -1.0591 -0.1033
  745MOL0     C98250   3.948   9.622   1.327  0.1719  0.6168 -0.0048
  745MOL0     C98251   3.875   9.708   1.429 -0.2640 -0.3175 -0.0949
  745MOL0    Cl98252   3.975   9.799   1.547 -0.3638 -0.3803  0.6555
  745MOL0     C98253   4.696   8.960   1.611  0.0980  0.8831 -0.0852
  745MOL0     C98254   4.817   8.927   1.541 -0.1500  0.2586 -0.4192
  745MOL0     O98255   4.999   9.179   1.307 -0.8072 -0.0240 -0.0793
  745MOL0     C98256   5.271   9.135   1.256 -0.2666 -0.3563  0.2465
  745MOL0     C98257   5.404   9.105   1.221 -0.2680  0.7665  0.6930
  745MOL0     N98258   6.077   8.825   1.306 -0.1140  0.1037  0.0568
  745MOL0     N98259   6.190   8.853   1.358  0.0866 -0.4279  0.1048
  745MOL0     C98260   7.461   9.176   1.057  0.7270 -0.8923 -0.1793
  745MOL0     C98261   7.562   9.251   1.114  0.4747 -0.0095  0.1445
  745MOL0     C98262   7.821   9.463   1.453  0.6157 -0.2747  0.7546
  745MOL0     C98263   7.922   9.480   1.352 -0.3742 -0.0761 -0.5383
  745MOL0     C98264   8.050   9.510   1.391  0.4686 -0.2563 -0.7353
  745MOL0     C98265   8.088   9.525   1.525  0.4549  0.5624 -0.3234
  745MOL0     O98266   8.214   9.543   1.574 -0.1661  0.3984  0.8928
  745MOL0     C98267   8.329   9.576   1.481  0.6597 -0.2483  0.0876
  745MOL0     C98268   8.382   9.449   1.417 -0.2821 -0.5296  0.3440
  745MOL0     C98269   8.437   9.367   1.531 -0.4830 -0.8052 -0.2884
  745MOL0     C98270   8.560   9.410   1.612 -0.7246  0.1945 -0.1932
  745MOL0     C98271   8.687   9.442   1.542 -0.8207 -0.0333  0.2080
  745MOL0     C98272   8.790   9.457   1.470  0.4537 -0.5631  0.3397
  745MOL0     C98273   7.984   9.518   1.626  0.7088  0.7581 -0.1902
  745MOL0     C98274   7.851   9.478   1.584 -0.7991  0.3289 -0.0678
  745MOL0     H98275   7.406   9.409   1.361 -1.0011 -1.0165  1.2167
  745MOL0     H98276   7.218   9.289   1.273  0.8318  0.3249  1.6407
  745MOL0     H98277   7.058   9.171   1.150 -0.8847 -1.2183  1.2591
  745MOL0     H98278   7.162   9.056   1.237 -0.9290  0.7681  1.4940
  745MOL0     H98279   7.042   8.896   1.180 -0.0722 -0.3581  0.3288
  745MOL0     H98280   7.086   8.914   1.004 -3.3033  0.8936 -1.8705
  745MOL0     H98281   6.908   9.082   0.967  1.6592 -2.3931 -2.5074
  745MOL0     H98282   6.850   9.055   1.134 -1.3199 -1.0310  0.2278
  745MOL0     H98283   6.706   8.927   0.976 -0.0101 -0.6736 -2.0100
  745MOL0     H98284   6.849   8.829   0.936  0.1971  0.9183 -1.0778
  745MOL0     H98285   6.850   8.763   1.184  0.9166  0.7256  0.6119
  745MOL0     H98286   6.707   8.708   1.108 -0.2208  0.8458  0.3044
  745MOL0     H98287   6.688   8.978   1.232  2.1102 -0.9141 -2.0071
  745MOL0     H98288   6.676   8.846   1.338 -0.5938  1.4420  0.6188
  745MOL0     H98289   6.490   8.878   1.098  0.3332  0.6605  0.1498
  745MOL0     H98290   6.509   8.734   1.199  0.2245  0.0404 -2.5335
  745MOL0     H98291   6.456   9.006   1.316  0.5317 -0.1569  0.9338
  745MOL0     H98292   6.455   8.864   1.404 -0.7856  4.4254  1.5910
  745MOL0     H98293   6.253   8.941   1.056  0.8583 -1.7777 -0.3644
  745MOL0     H98294   5.984   8.728   1.059 -1.8321  1.0364  2.5749
  745MOL0     H98295   6.067   8.857   0.965 -0.8393  2.2251  0.2659
  745MOL0     H98296   5.793   8.848   1.009 -1.6043  0.7945  0.8666
  745MOL0     H98297   5.897   8.996   0.998  1.8256 -1.4814 -1.0520
  745MOL0     H98298   5.807   8.856   1.253  0.2324 -0.4748  0.5319
  745MOL0     H98299   5.887   9.015   1.242 -0.1687  0.1704 -0.3496
  745MOL0     H98300   5.668   9.073   1.096 -2.6100 -0.2644  0.5454
  745MOL0     H98301   5.668   9.082   1.269  1.0828  0.4086 -0.2725
  745MOL0     H98302   5.362   8.764   1.191 -2.5809 -0.4447  0.6075
  745MOL0     H98303   5.143   8.830   1.245  0.7732 -0.2376 -1.5195
  745MOL0     H98304   4.773   9.106   1.258  1.2793 -0.8184 -0.2867
  745MOL0     H98305   4.570   9.174   1.376 -0.1774  1.5854  1.6080
  745MOL0     H98306   4.475   9.268   1.532 -0.1161  0.4902 -0.7959
  745MOL0     H98307   4.353   9.222   1.660 -0.4842 -1.4945  0.2776
  745MOL0     H98308   4.226   9.084   1.508 -1.1481  0.5636 -1.4437
  745MOL0     H98309   4.342   9.114   1.374 -0.2306 -1.2711 -0.0380
  745MOL0     H98310   4.315   9.341   1.374  0.3688 -3.0123 -2.4998
  745MOL0     H98311   4.195   9.352   1.501 -2.7492 -1.8715  0.0985
  745MOL0     H98312   4.174   9.223   1.223 -0.1186 -1.9514  1.2946
  745MOL0     H98313   4.046   9.211   1.335  0.2244 -0.9975  0.7929
  745MOL0     H98314   4.010   9.427   1.184  1.3875  1.5149 -1.5537
  745MOL0     H98315   4.170   9.479   1.224  1.5240 -0.9668  1.5867
  745MOL0     H98316   4.101   9.546   1.435  0.8324  2.6499 -2.6599
  745MOL0     H98317   3.956   9.431   1.427 -0.8014 -1.7488 -2.8363
  745MOL0     H98318   4.028   9.681   1.283  0.9427 -1.2438 -1.2278
  745MOL0     H98319   3.877   9.588   1.251  0.7764  0.3671 -0.4619
  745MOL0     H98320   3.808   9.644   1.486 -2.8188  2.6436  0.5206
  745MOL0     H98321   3.811   9.776   1.371 -0.8901  0.7532  1.7762
  745MOL0     H98322   4.673   8.918   1.708 -4.8272  1.7509 -0.6163
  745MOL0     H98323   4.903   8.885   1.591 -1.5928  0.2678  2.2718
  745MOL0     H98324   5.233   9.236   1.249  0.9925  0.0057 -3.8343
  745MOL0     H98325   5.474   9.184   1.198 -0.4030  0.7010  0.0506
  745MOL0     H98326   7.478   9.122   0.964  0.8099  1.4665 -1.6097
  745MOL0     H98327   7.659   9.246   1.066  1.0841 -1.5102  1.4471
  745MOL0     H98328   7.896   9.496   1.247  0.7457  1.2423 -0.6572
  745MOL0     H98329   8.111   9.526   1.303 -0.6836 -2.6832 -2.0755
  745MOL0     H98330   8.411   9.629   1.530 -1.0597  1.5167  1.1999
  745MOL0     H98331   8.289   9.637   1.400  2.3218 -2.8302 -2.8748
  745MOL0     H98332   8.298   9.398   1.369 -0.6525  0.8435 -0.5215
  745MOL0     H98333   8.461   9.475   1.347  0.2211 -0.4406  0.9316
  745MOL0     H98334   8.456   9.271   1.483 -0.7769 -0.3545 -1.3469
  745MOL0     H98335   8.361   9.358   1.609 -0.5575  0.1494 -0.2317
  745MOL0     H98336   8.531   9.494   1.675 -0.2688  1.3650 -1.4737
  745MOL0     H98337   8.588   9.321   1.669 -0.2166  0.8004  0.5189
  745MOL0     H98338   8.872   9.491   1.411 -0.9937 -0.3716 -1.6498
  745MOL0     H98339   7.989   9.537   1.733 -3.1796 -1.3158  0.5772
  745MOL0     H98340   7.781   9.476   1.666  2.0550  1.1049  2.5681
  746MOL0     O98341   4.078   3.605   8.626 -0.6697 -0.2668  0.4770
  746MOL0     C98342   4.197   3.623   8.615  0.2019  0.1849 -0.2648
  746MOL0     O98343   4.258   3.687   8.513 -0.7458  0.2070 -0.1776
  746MOL0     C98344   4.194   3.750   8.408 -0.2251  0.1044 -0.2267
  746MOL0     C98345   4.063   3.800   8.404  0.0521  0.2646  0.5582
  746MOL0     C98346   4.020   3.876   8.299 -0.2784  0.3818 -0.3166
  746MOL0     C98347   4.116   3.948   8.218 -0.3480 -0.0423 -0.6209
  746MOL0     O98348   4.085   4.038   8.115  0.3513  0.9000 -0.3750
  746MOL0     C98349   3.951   4.107   8.117  0.3912 -0.4174  0.1191
  746MOL0     C98350   3.956   4.232   8.029 -0.8959 -0.2120 -0.4114
  746MOL0     C98351   3.829   4.283   7.964 -0.8959  1.2866 -0.0628
  746MOL0     C98352   3.714   4.277   8.059 -0.3783 -0.4709  0.5477
  746MOL0     C98353   3.592   4.325   7.987 -0.0127  0.5351  0.3433
  746MOL0     C98354   3.459   4.305   8.065  0.4360  0.0943 -0.2941
  746MOL0     C98355   3.438   4.381   8.206  0.0767 -0.1579 -0.9584
  746MOL0     C98356   3.302   4.347   8.276  0.6837 -0.8762  0.1103
  746MOL0     N98357   3.183   4.408   8.203 -0.7707  0.6747  0.0599
  746MOL0     C98358   3.124   4.530   8.241 -0.1887  0.1687  1.1284
  746MOL0     C98359   3.026   4.540   8.152  0.3712 -1.2763  1.1140
  746MOL0     C98360   2.909   4.638   8.143  0.4873 -1.1793  0.2679
  746MOL0     C98361   2.786   4.607   8.228 -0.2616 -0.3509  0.6614
  746MOL0     C98362   2.831   4.599   8.370 -0.1793  0.0307 -0.8487
  746MOL0     C98363   2.721   4.591   8.477 -0.0263 -0.0780  0.6773
  746MOL0     O98364   2.779   4.543   8.599  0.1809 -0.4592 -0.9392
  746MOL0     C98365   2.702   4.578   8.709  0.0662  1.0788 -1.7301
  746MOL0     C98366   2.561   4.593   8.715 -0.4614 -0.8253  0.7704
  746MOL0     C98367   2.484   4.621   8.829  0.5064 -0.4070  0.2685
  746MOL0     C98368   2.555   4.630   8.953  0.6135 -0.2044 -0.1372
  746MOL0     C98369   2.474   4.647   9.074 -0.4403  0.0636  0.5960
  746MOL0     O98370   2.345   4.670   9.074  0.7221 -0.7307  0.1708
  746MOL0     C98371   2.265   4.704   9.183  0.9504 -0.9971  0.2056
  746MOL0     C98372   2.122   4.693   9.155 -0.4224 -0.1690 -0.1764
  746MOL0     C98373   2.035   4.740   9.255 -0.3700 -0.8320  0.0985
  746MOL0     C98374   2.082   4.801   9.370 -0.1223  0.0951 -0.8202
  746MOL0     O98375   1.988   4.832   9.468  0.9418 -0.6327  0.2394
  746MOL0     C98376   2.015   4.933   9.566 -0.0517  1.0066 -1.0913
  746MOL0     C98377   1.905   5.040   9.577 -0.3884  0.3751 -0.9002
  746MOL0     C98378   1.915   5.120   9.451 -0.9188  0.4270  0.4228
  746MOL0     C98379   2.035   5.219   9.421 -0.6058  0.8369  0.3900
  746MOL0     C98380   2.025   5.251   9.275 -0.4422  0.6087  0.7534
  746MOL0     C98381   2.152   5.332   9.231 -0.7314 -0.1164 -0.1598
  746MOL0     C98382   2.161   5.363   9.086 -0.6696  0.7086 -0.2514
  746MOL0     C98383   2.289   5.436   9.031  0.0537  0.2081 -0.3334
  746MOL0    Cl98384   2.330   5.594   9.100  0.3169  0.1490 -0.5391
  746MOL0     C98385   2.220   4.801   9.391 -0.6014 -0.2469  0.6298
  746MOL0     C98386   2.312   4.750   9.300 -0.4159 -0.8331  0.0853
  746MOL0     O98387   2.543   4.649   9.175 -0.2973 -0.7492  0.8855
  746MOL0     C98388   2.699   4.622   8.951  0.3270 -0.5023 -0.3676
  746MOL0     C98389   2.773   4.596   8.832 -0.0566  0.3534 -0.0447
  746MOL0     N98390   3.045   4.446   8.046 -0.3062 -0.4399  0.7647
  746MOL0     N98391   3.126   4.359   8.086 -0.4202  0.3215 -0.1671
  746MOL0     C98392   4.253   3.914   8.237 -0.0460  0.1136 -0.0234
  746MOL0     C98393   4.286   3.803   8.318 -0.0829 -0.3557 -0.8877
  746MOL0     C98394   4.277   3.563   8.728 -0.1122  1.0347 -0.2209
  746MOL0     C98395   4.404   3.621   8.756  0.5404 -0.4352 -0.0547
  746MOL0     C98396   4.486   3.578   8.856 -0.2976 -0.2240  0.7927
  746MOL0     C98397   4.455   3.468   8.935  0.1865  0.8955 -0.3997
  746MOL0     O98398   4.542   3.431   9.036 -0.0776 -0.3172  0.9365
  746MOL0     C98399   4.505   3.330   9.130  0.1346 -0.1543  0.2318
  746MOL0     C98400   4.614   3.336   9.237 -0.1254 -0.5646 -0.3150
  746MOL0     C98401   4.758   3.321   9.177  0.1845 -0.2888  0.0827
  746MOL0     C98402   4.870   3.311   9.285 -0.0960  0.1909 -0.2680
  746MOL0     C98403   5.003   3.357   9.239  0.4085 -0.2585  0.7286
  746MOL0     C98404   5.112   3.391   9.209 -0.2545 -0.1919 -0.9333
  746MOL0     C98405   4.333   3.402   8.911  0.1397  0.1114  0.4268
  746MOL0     C98406   4.243   3.455   8.813 -0.1363  0.8085 -0.1336
  746MOL0     H98407   3.990   3.754   8.470  1.2925 -1.1186  1.0226
  746MOL0     H98408   3.917   3.904   8.279 -0.6706  1.8336  3.0265
  746MOL0     H98409   3.922   4.145   8.215  1.7768  1.2842 -0.0891
  746MOL0     H98410   3.877   4.037   8.076 -0.4335  0.3189  0.3147
  746MOL0     H98411   4.021   4.209   7.944  2.0817 -1.0268  1.9305
  746MOL0     H98412   4.009   4.318   8.070  1.0104 -1.7295  0.4288
  746MOL0     H98413   3.800   4.218   7.881 -3.4094 -2.6098  3.4607
  746MOL0     H98414   3.838   4.385   7.924  1.8113  1.2860  0.3875
  746MOL0     H98415   3.690   4.174   8.087 -1.3668 -0.2777  0.4719
  746MOL0     H98416   3.733   4.338   8.148  2.3745 -1.1676  0.5177
  746MOL0     H98417   3.574   4.282   7.888 -1.9365 -0.1375  0.9387
  746MOL0     H98418   3.601   4.431   7.964  0.2997  0.7700  1.4818
  746MOL0     H98419   3.437   4.198   8.071  2.5846 -0.3564  0.3399
  746MOL0     H98420   3.384   4.363   8.010  0.9045  2.6882  1.6260
  746MOL0     H98421   3.517   4.358   8.278 -0.6074  0.5842  0.0672
  746MOL0     H98422   3.439   4.490   8.194 -4.8839  0.2897  0.5648
  746MOL0     H98423   3.316   4.385   8.377  2.6106 -0.4195 -0.2749
  746MOL0     H98424   3.284   4.240   8.275 -0.2174 -0.7620 -1.9906
  746MOL0     H98425   3.143   4.594   8.327 -1.7850  4.1365 -1.2023
  746MOL0     H98426   2.881   4.633   8.037 -0.2063 -2.5657  0.5040
  746MOL0     H98427   2.959   4.732   8.168  0.2551 -1.0792  0.3520
  746MOL0     H98428   2.731   4.519   8.191 -0.6240  0.2867 -0.3690
  746MOL0     H98429   2.714   4.689   8.226 -1.4122 -1.2962 -1.5606
  746MOL0     H98430   2.892   4.509   8.382 -0.1776  0.2363  1.0359
  746MOL0     H98431   2.892   4.689   8.386 -0.3777  0.2246 -1.1850
  746MOL0     H98432   2.646   4.524   8.435 -0.5710 -0.3525  2.0337
  746MOL0     H98433   2.687   4.695   8.486  0.3585  0.1272 -0.1203
  746MOL0     H98434   2.502   4.577   8.625  0.5296 -0.7685  0.0949
  746MOL0     H98435   2.375   4.624   8.836  0.5061  0.3191  0.0569
  746MOL0     H98436   2.093   4.686   9.051 -1.1841  1.2857 -0.0932
  746MOL0     H98437   1.929   4.745   9.233  0.1075  2.3495 -2.2340
  746MOL0     H98438   2.111   4.980   9.541  0.1047  0.9724 -0.5777
  746MOL0     H98439   2.034   4.875   9.657  2.2366  1.1995 -1.3711
  746MOL0     H98440   1.920   5.095   9.670  2.1491  0.0670 -1.0601
  746MOL0     H98441   1.809   4.988   9.581 -0.4710  0.3493 -2.5462
  746MOL0     H98442   1.829   5.188   9.453 -1.3269 -0.0757  2.6658
  746MOL0     H98443   1.906   5.049   9.368  1.4162  2.7616 -2.0378
  746MOL0     H98444   2.024   5.315   9.473  2.0491  1.2147  0.4225
  746MOL0     H98445   2.128   5.167   9.448  1.1093  2.9805 -0.9683
  746MOL0     H98446   1.930   5.298   9.247 -0.6877 -0.3924 -0.1679
  746MOL0     H98447   2.045   5.159   9.220 -1.1333 -0.4478  2.1958
  746MOL0     H98448   2.244   5.281   9.258 -1.0798  0.3259  2.0541
  746MOL0     H98449   2.163   5.419   9.296  0.0133 -2.1975  2.6510
  746MOL0     H98450   2.158   5.266   9.036 -4.1862 -0.5051  1.9628
  746MOL0     H98451   2.068   5.413   9.057 -1.2534  0.4395  1.0961
  746MOL0     H98452   2.277   5.459   8.925 -1.1739  0.7778 -0.0882
  746MOL0     H98453   2.377   5.377   9.059 -0.3329 -0.2053  0.0294
  746MOL0     H98454   2.265   4.832   9.485 -2.1787  0.9909  1.0053
  746MOL0     H98455   2.415   4.766   9.331 -1.0302  0.8711  1.3989
  746MOL0     H98456   2.743   4.647   9.047 -0.4796 -2.0830  0.4471
  746MOL0     H98457   2.881   4.588   8.836 -0.2153 -2.4842  0.3540
  746MOL0     H98458   4.331   3.969   8.185 -0.0285  1.7187  1.5708
  746MOL0     H98459   4.388   3.767   8.327  0.5835  1.6870  0.4815
  746MOL0     H98460   4.448   3.696   8.691  1.3444 -1.7162 -1.0354
  746MOL0     H98461   4.583   3.627   8.861  0.3811 -1.1360 -1.8091
  746MOL0     H98462   4.493   3.237   9.075 -0.1565 -0.5199  0.8971
  746MOL0     H98463   4.412   3.359   9.180 -0.7508  0.8308 -1.8530
  746MOL0     H98464   4.614   3.430   9.293  1.4776 -0.8996  0.2897
  746MOL0     H98465   4.601   3.252   9.306 -1.8600 -0.4637 -0.4601
  746MOL0     H98466   4.782   3.403   9.108 -0.8036  0.7428  0.9311
  746MOL0     H98467   4.761   3.227   9.122  2.2158  0.6049 -1.4730
  746MOL0     H98468   4.839   3.359   9.378 -0.4155 -0.3313 -0.0953
  746MOL0     H98469   4.869   3.204   9.310  0.9924 -0.0695 -1.2382
  746MOL0     H98470   5.209   3.424   9.178  0.0302 -0.8373 -0.7618
  746MOL0     H98471   4.312   3.309   8.961 -3.0030  0.2436 -0.4510
  746MOL0     H98472   4.145   3.408   8.814  0.0882  0.2076 -2.1049
  747MOL0     O98473   8.308   2.319   7.945  0.1732 -0.1128 -0.6185
  747MOL0     C98474   8.338   2.285   7.831 -0.1868 -0.2355 -0.0583
  747MOL0     O98475   8.258   2.288   7.722  0.3227 -0.4666  0.7823
  747MOL0     C98476   8.138   2.347   7.739  0.7801 -0.2758  0.2619
  747MOL0     C98477   8.106   2.476   7.675 -0.6731  0.3957 -0.1729
  747MOL0     C98478   7.980   2.534   7.674 -0.7630  0.4994  0.3709
  747MOL0     C98479   7.868   2.462   7.722 -0.1160  0.0754 -1.0587
  747MOL0     O98480   7.734   2.499   7.707  0.2914 -0.1831  0.4362
  747MOL0     C98481   7.705   2.620   7.785  0.2163 -0.1100  0.3369
  747MOL0     C98482   7.562   2.672   7.777  0.2439  0.0909  0.2060
  747MOL0     C98483   7.497   2.675   7.643 -0.5428  0.0485  0.4876
  747MOL0     C98484   7.343   2.684   7.648  0.7203  0.3238  0.0012
  747MOL0     C98485   7.266   2.703   7.508  0.7185  0.2361  0.4028
  747MOL0     C98486   7.113   2.717   7.535 -0.3480 -0.3576 -0.1088
  747MOL0     C98487   7.015   2.745   7.421 -0.4611  0.1936  0.2315
  747MOL0     C98488   7.052   2.664   7.299 -0.5564 -0.4287 -0.1747
  747MOL0     N98489   6.961   2.691   7.190 -0.2485 -0.1122 -0.0123
  747MOL0     C98490   6.879   2.605   7.128 -0.0691 -0.2539  0.2460
  747MOL0     C98491   6.807   2.672   7.039 -0.3785  0.1654 -0.1525
  747MOL0     C98492   6.695   2.618   6.956  0.0496  0.6849 -0.5292
  747MOL0     C98493   6.733   2.472   6.903 -0.1346 -0.2121  0.2950
  747MOL0     C98494   6.618   2.422   6.816  0.1978 -1.0656 -0.1107
  747MOL0     C98495   6.589   2.490   6.676 -0.2468  0.3247  0.0640
  747MOL0     O98496   6.523   2.403   6.591  0.2652 -0.4492  0.3021
  747MOL0     C98497   6.399   2.371   6.639 -0.3235  0.0827 -1.2665
  747MOL0     C98498   6.282   2.456   6.656 -0.0539 -0.1275  0.3807
  747MOL0     C98499   6.171   2.402   6.720  0.1352  0.1043  0.5189
  747MOL0     C98500   6.169   2.284   6.776  0.5235  0.5758 -0.7420
  747MOL0     C98501   6.048   2.242   6.849  0.5799  0.3624 -0.1756
  747MOL0     O98502   5.959   2.338   6.881  1.5159 -0.2083 -0.2281
  747MOL0     C98503   5.837   2.304   6.939  0.5942  1.3383 -0.8698
  747MOL0     C98504   5.813   2.342   7.072 -0.4933  0.2442 -0.2717
  747MOL0     C98505   5.691   2.310   7.141 -0.9138  0.4222  0.3633
  747MOL0     C98506   5.601   2.222   7.071 -0.1734  0.5077  0.7068
  747MOL0     O98507   5.492   2.187   7.145 -0.1336 -0.2626 -0.3591
  747MOL0     C98508   5.396   2.094   7.092  0.6587  0.1748 -0.2898
  747MOL0     C98509   5.288   2.080   7.189 -0.0289 -0.2570 -0.2649
  747MOL0     C98510   5.183   1.972   7.143  0.3588  0.5113  0.0452
  747MOL0     C98511   5.074   1.919   7.244  0.0070 -0.6019  0.8782
  747MOL0     C98512   4.981   1.822   7.176 -0.2339 -0.6197  0.7090
  747MOL0     C98513   4.863   1.776   7.262  0.2324  0.3727  0.2026
  747MOL0     C98514   4.926   1.678   7.367  1.5411 -0.4682 -1.0220
  747MOL0     C98515   4.812   1.611   7.451  0.4001 -0.4678 -0.2054
  747MOL0    Cl98516   4.731   1.749   7.538  0.2989 -0.6915  0.1355
  747MOL0     C98517   5.617   2.192   6.940 -0.1914 -0.8309  0.3219
  747MOL0     C98518   5.744   2.218   6.875  0.0083  0.3225 -0.0795
  747MOL0     O98519   6.037   2.129   6.896 -0.1377 -0.4759 -0.4551
  747MOL0     C98520   6.283   2.202   6.762 -0.7167 -0.3281 -0.2996
  747MOL0     C98521   6.394   2.239   6.685  0.2575 -1.2792  0.1304
  747MOL0     N98522   6.836   2.805   7.055 -0.0128 -0.2005 -0.1105
  747MOL0     N98523   6.918   2.814   7.146  0.5463  0.0936 -0.4956
  747MOL0     C98524   7.889   2.330   7.779 -0.5161 -0.3261 -0.8599
  747MOL0     C98525   8.023   2.278   7.786 -0.2950  0.3737 -0.8380
  747MOL0     C98526   8.480   2.262   7.815  0.6223 -0.1939 -0.6377
  747MOL0     C98527   8.543   2.275   7.690  0.5519  0.2860 -0.5071
  747MOL0     C98528   8.681   2.257   7.687 -0.4025  0.2010 -0.8322
  747MOL0     C98529   8.762   2.227   7.800 -0.2222  0.0458 -0.7810
  747MOL0     O98530   8.890   2.204   7.808 -0.1830 -0.1983 -0.1235
  747MOL0     C98531   8.967   2.185   7.691  0.4296  0.0162  0.4120
  747MOL0     C98532   8.934   2.050   7.628  0.7585  0.8695 -0.1222
  747MOL0     C98533   8.940   1.927   7.726 -0.4038 -0.1088 -0.7029
  747MOL0     C98534   8.939   1.802   7.640  0.5938  0.7164 -0.8733
  747MOL0     C98535   8.957   1.681   7.728 -0.4738 -0.3339 -0.1180
  747MOL0     C98536   8.971   1.584   7.795  0.2334 -0.1462 -0.6058
  747MOL0     C98537   8.693   2.214   7.924  1.0639 -0.1368  0.6746
  747MOL0     C98538   8.558   2.226   7.933  0.4973 -0.9699  0.6552
  747MOL0     H98539   8.189   2.535   7.638 -0.2395  1.4318  2.2502
  747MOL0     H98540   7.984   2.632   7.627 -0.0959 -0.8830 -2.7684
  747MOL0     H98541   7.771   2.698   7.745 -0.2623  0.5104  0.7456
  747MOL0     H98542   7.740   2.610   7.888  1.0229 -1.4393 -0.0488
  747MOL0     H98543   7.563   2.773   7.820  1.5159 -0.1101  0.7046
  747MOL0     H98544   7.496   2.617   7.845 -1.6924 -0.3696 -1.9238
  747MOL0     H98545   7.523   2.592   7.576 -2.8505  0.0241 -0.4600
  747MOL0     H98546   7.536   2.768   7.600  0.2058  0.5198  2.1133
  747MOL0     H98547   7.309   2.590   7.691 -0.0804  1.1512  1.2309
  747MOL0     H98548   7.320   2.774   7.706  0.5655  0.0944  0.2979
  747MOL0     H98549   7.285   2.613   7.448  1.4183  2.0521 -2.2954
  747MOL0     H98550   7.305   2.792   7.457  0.3090 -0.4572 -1.1890
  747MOL0     H98551   7.106   2.802   7.603  0.7152  0.3674 -0.8586
  747MOL0     H98552   7.083   2.626   7.588 -0.3742  1.9451  4.2931
  747MOL0     H98553   6.910   2.731   7.449 -0.4309  0.3276  0.4097
  747MOL0     H98554   7.023   2.850   7.389 -2.9191 -0.6892 -4.1077
  747MOL0     H98555   7.044   2.561   7.334 -2.4356  0.7818  3.3432
  747MOL0     H98556   7.157   2.683   7.272 -0.9871  2.0968 -0.2626
  747MOL0     H98557   6.873   2.501   7.158  0.4377 -0.6605 -1.0067
  747MOL0     H98558   6.671   2.693   6.880 -0.1404 -0.7380 -1.9185
  747MOL0     H98559   6.603   2.616   7.015 -1.9334 -1.4398 -3.4687
  747MOL0     H98560   6.747   2.406   6.990 -1.8121 -1.0714 -0.0504
  747MOL0     H98561   6.821   2.468   6.839  0.3316 -0.3299  0.9366
  747MOL0     H98562   6.626   2.316   6.793 -2.6419 -1.5052  0.5809
  747MOL0     H98563   6.527   2.416   6.876  0.0483  0.0107 -0.2074
  747MOL0     H98564   6.688   2.512   6.636 -0.2251  2.7545  1.2548
  747MOL0     H98565   6.539   2.586   6.691 -1.2675  0.1164 -1.6990
  747MOL0     H98566   6.272   2.550   6.603  1.0634  1.0263  2.1245
  747MOL0     H98567   6.079   2.460   6.724 -0.6859 -1.2019  1.1316
  747MOL0     H98568   5.877   2.410   7.127 -1.1269  1.2578 -0.7660
  747MOL0     H98569   5.660   2.343   7.239 -1.9450  0.4722  0.0311
  747MOL0     H98570   5.449   1.999   7.079 -0.6421 -0.4973 -0.7655
  747MOL0     H98571   5.357   2.137   6.999  1.4169  1.1328 -0.1866
  747MOL0     H98572   5.239   2.175   7.214  1.6479  0.3768  0.7322
  747MOL0     H98573   5.334   2.056   7.285 -3.1485 -0.9034  1.2109
  747MOL0     H98574   5.243   1.884   7.119 -1.5364 -0.7739 -0.1453
  747MOL0     H98575   5.142   2.010   7.049  0.8757  1.5493  0.2203
  747MOL0     H98576   5.128   1.861   7.320  2.6657 -2.2513 -2.0294
  747MOL0     H98577   5.019   2.002   7.289  1.6921  1.3206 -0.4319
  747MOL0     H98578   5.038   1.733   7.149 -0.5657 -0.5638 -0.2148
  747MOL0     H98579   4.953   1.860   7.077  1.2407 -1.3489 -0.0251
  747MOL0     H98580   4.786   1.724   7.203 -0.1002  2.1039 -0.9582
  747MOL0     H98581   4.820   1.859   7.318 -0.7022  0.6130 -0.8431
  747MOL0     H98582   4.977   1.594   7.320 -0.6511 -2.3563 -0.1719
  747MOL0     H98583   4.987   1.742   7.433 -0.1048 -0.0289  0.1300
  747MOL0     H98584   4.863   1.538   7.514  1.7556 -0.8036 -1.6192
  747MOL0     H98585   4.737   1.556   7.393  2.0780 -1.0164 -1.9655
  747MOL0     H98586   5.542   2.137   6.884 -0.5358  0.0876 -0.1372
  747MOL0     H98587   5.767   2.184   6.774 -1.1548  3.1516 -1.4103
  747MOL0     H98588   6.275   2.105   6.810  3.6093 -0.2744  0.9063
  747MOL0     H98589   6.483   2.178   6.695  0.9379 -0.2875  0.3503
  747MOL0     H98590   7.810   2.259   7.804 -0.5286 -0.3164 -0.8720
  747MOL0     H98591   8.026   2.176   7.823 -0.8555  0.3549 -0.8351
  747MOL0     H98592   8.486   2.308   7.604  0.8946 -1.2648 -1.3836
  747MOL0     H98593   8.732   2.254   7.591  2.6977  0.3880  0.6910
  747MOL0     H98594   9.074   2.195   7.709  0.3067  2.4961  0.1004
  747MOL0     H98595   8.943   2.263   7.619 -1.2980  1.6237  2.5628
  747MOL0     H98596   8.834   2.058   7.586  0.5991  3.0139  0.5257
  747MOL0     H98597   9.004   2.035   7.544  0.6060 -1.5817  0.1215
  747MOL0     H98598   8.860   1.934   7.801  0.5132 -0.4230  0.3275
  747MOL0     H98599   9.037   1.933   7.775 -2.2460  0.0081  3.3633
  747MOL0     H98600   8.841   1.799   7.591  0.5216  0.4853 -0.7135
  747MOL0     H98601   9.028   1.812   7.577  0.6426  2.1095 -0.6299
  747MOL0     H98602   8.995   1.506   7.865  1.5986  1.3145  0.6299
  747MOL0     H98603   8.754   2.213   8.014  1.2560 -1.4822  0.5517
  747MOL0     H98604   8.504   2.213   8.027  3.1828 -0.2739  2.3869
  748MOL0     O98605  10.274   2.242   9.118 -0.0046  0.3956 -0.3172
  748MOL0     C98606  10.358   2.254   9.208 -0.6202 -0.4198  0.4021
  748MOL0     O98607  10.353   2.189   9.325  0.4224 -0.6735 -0.2183
  748MOL0     C98608  10.251   2.099   9.334  0.4443 -0.0046 -0.2562
  748MOL0     C98609  10.232   1.980   9.261  0.6775  0.2244 -0.4322
  748MOL0     C98610  10.142   1.880   9.314  0.0166 -0.3542  0.1836
  748MOL0     C98611  10.055   1.904   9.422 -0.7459  0.2462  0.6234
  748MOL0     O98612   9.973   1.798   9.457  0.5411 -0.7230 -0.8580
  748MOL0     C98613   9.863   1.839   9.546  0.9923 -1.1661  0.3264
  748MOL0     C98614   9.772   1.724   9.561  0.2687 -0.6710  0.7349
  748MOL0     C98615   9.661   1.724   9.447  0.1223 -0.1026 -0.7135
  748MOL0     C98616   9.573   1.605   9.473  0.3034  0.2103  0.4822
  748MOL0     C98617   9.447   1.602   9.384 -0.5910  0.5376  0.8927
  748MOL0     C98618   9.483   1.617   9.230  1.0801  0.1615  0.0466
  748MOL0     C98619   9.353   1.615   9.143  0.5771  0.5660  0.4669
  748MOL0     C98620   9.377   1.626   8.989  0.3282  0.5292 -1.1811
  748MOL0     N98621   9.257   1.669   8.927  0.2629 -0.7473 -0.6869
  748MOL0     C98622   9.136   1.598   8.919  0.6471  0.3278 -0.2148
  748MOL0     C98623   9.059   1.697   8.860  0.9668 -0.1083 -0.3187
  748MOL0     C98624   8.918   1.687   8.828 -0.9099  0.0006  0.9866
  748MOL0     C98625   8.836   1.772   8.918 -0.0217 -0.4203  0.9113
  748MOL0     C98626   8.695   1.773   8.857  0.0754  0.2163  0.2812
  748MOL0     C98627   8.623   1.641   8.896 -0.5902  0.3464  0.1224
  748MOL0     O98628   8.482   1.657   8.889 -1.3435 -0.2294  0.5207
  748MOL0     C98629   8.396   1.593   8.974  0.5414  0.0562 -0.3786
  748MOL0     C98630   8.427   1.501   9.068 -0.2863 -0.2183 -0.6121
  748MOL0     C98631   8.324   1.462   9.154  0.2918 -0.2857  0.6643
  748MOL0     C98632   8.190   1.500   9.150 -0.4606 -1.0387 -0.3523
  748MOL0     C98633   8.089   1.463   9.249 -0.3814  0.0523 -0.4586
  748MOL0     O98634   7.957   1.510   9.248  0.0818 -0.2080  0.5988
  748MOL0     C98635   7.859   1.483   9.347 -0.5803  0.0041  0.1701
  748MOL0     C98636   7.871   1.425   9.476  0.2876  0.4670  0.0327
  748MOL0     C98637   7.764   1.423   9.567 -0.1189 -0.0663  0.4021
  748MOL0     C98638   7.638   1.456   9.530  0.5182 -0.2707 -0.3840
  748MOL0     O98639   7.540   1.431   9.629 -0.6849  0.8200  0.6917
  748MOL0     C98640   7.406   1.426   9.582  0.6594  0.4052 -0.0183
  748MOL0     C98641   7.335   1.575   9.586  0.7634 -0.5755 -0.0121
  748MOL0     C98642   7.226   1.576   9.493  0.1701 -0.3114 -0.0920
  748MOL0     C98643   7.109   1.486   9.528  0.1354  0.1276  0.0072
  748MOL0     C98644   7.012   1.527   9.640 -0.3738 -0.9718 -0.0866
  748MOL0     C98645   6.955   1.666   9.626 -0.3770 -0.6373  0.3144
  748MOL0     C98646   6.872   1.705   9.740 -0.4583  0.3193 -0.7564
  748MOL0     C98647   6.785   1.825   9.709  0.9462  0.4092 -0.6628
  748MOL0    Cl98648   6.690   1.827   9.555 -0.0227 -0.5911  0.2338
  748MOL0     C98649   7.623   1.502   9.397  0.0056 -0.3717  1.1746
  748MOL0     C98650   7.729   1.517   9.307 -0.5736  0.0537  0.1779
  748MOL0     O98651   8.125   1.382   9.331  0.2258 -0.2521 -0.4216
  748MOL0     C98652   8.159   1.591   9.050  0.9089 -0.2659 -0.6331
  748MOL0     C98653   8.261   1.628   8.963 -0.3171 -0.5880 -0.2345
  748MOL0     N98654   9.133   1.812   8.832 -0.1593  0.3496 -0.1293
  748MOL0     N98655   9.249   1.788   8.868 -0.1037  0.6594  0.0387
  748MOL0     C98656  10.071   2.024   9.483  0.2062 -0.0741  0.2241
  748MOL0     C98657  10.177   2.113   9.456  0.4215  0.0932  0.4618
  748MOL0     C98658  10.484   2.321   9.178 -0.1570 -0.5058  0.8625
  748MOL0     C98659  10.541   2.327   9.046 -0.1672  0.1516 -0.5581
  748MOL0     C98660  10.661   2.393   9.017  0.3322  0.0344 -0.9758
  748MOL0     C98661  10.730   2.460   9.127 -0.4863  0.3159 -0.4085
  748MOL0     O98662  10.850   2.527   9.106  0.2949  0.8662  0.5132
  748MOL0     C98663  10.956   2.544   9.201 -0.3325 -0.6699 -0.1968
  748MOL0     C98664  11.061   2.637   9.148 -0.0221  0.2118 -0.5233
  748MOL0     C98665  11.156   2.556   9.051 -0.6629  0.3575  0.3139
  748MOL0     C98666  11.085   2.502   8.924  0.3957  0.5072 -0.1610
  748MOL0     C98667  11.162   2.449   8.812 -0.5397 -0.4618  0.7527
  748MOL0     C98668  11.235   2.411   8.728  0.3162 -0.0938  0.4000
  748MOL0     C98669  10.682   2.444   9.249 -0.4769 -0.5244 -0.7495
  748MOL0     C98670  10.560   2.381   9.282  0.0942 -1.1799 -0.1615
  748MOL0     H98671  10.290   1.964   9.171 -0.7615 -1.7089 -1.0872
  748MOL0     H98672  10.155   1.784   9.265  0.7672 -1.0593  1.6962
  748MOL0     H98673   9.794   1.917   9.510 -1.2507 -1.2949  3.8828
  748MOL0     H98674   9.903   1.885   9.637 -0.2697 -0.2013  0.4252
  748MOL0     H98675   9.724   1.725   9.659 -2.1725 -2.1502 -0.3417
  748MOL0     H98676   9.826   1.630   9.549  0.5083 -0.3867 -0.6684
  748MOL0     H98677   9.691   1.720   9.342 -0.1628  0.7743 -0.8397
  748MOL0     H98678   9.593   1.809   9.458 -1.6505 -1.1747 -2.7060
  748MOL0     H98679   9.625   1.510   9.462  2.7474  1.5870 -0.6776
  748MOL0     H98680   9.540   1.605   9.577 -0.1976  0.4356  0.3280
  748MOL0     H98681   9.410   1.701   9.412 -2.1114 -0.1705  1.4740
  748MOL0     H98682   9.373   1.526   9.408  0.1168 -0.9090 -1.2010
  748MOL0     H98683   9.547   1.538   9.189 -2.3755 -2.2774 -1.0589
  748MOL0     H98684   9.529   1.714   9.210 -0.7294  1.1382  0.4324
  748MOL0     H98685   9.295   1.530   9.182 -0.7360  1.7785  1.2590
  748MOL0     H98686   9.292   1.700   9.175 -1.7492 -0.8103 -0.0182
  748MOL0     H98687   9.411   1.541   8.930  0.1959  0.2313 -0.8313
  748MOL0     H98688   9.458   1.698   8.975 -0.7337  1.8656 -0.7647
  748MOL0     H98689   9.114   1.499   8.959  1.0528 -0.9549 -2.9370
  748MOL0     H98690   8.888   1.582   8.827  1.1770 -0.6739 -1.2448
  748MOL0     H98691   8.910   1.723   8.724  1.6565 -1.9423 -0.0097
  748MOL0     H98692   8.863   1.878   8.914 -0.2115 -0.4132 -0.6189
  748MOL0     H98693   8.837   1.728   9.018 -1.9466 -1.4127  0.5476
  748MOL0     H98694   8.649   1.868   8.887  0.5462  1.5202 -2.7564
  748MOL0     H98695   8.694   1.785   8.748 -0.9002 -1.8659  0.0046
  748MOL0     H98696   8.658   1.610   8.995  4.7013  0.8768 -1.3340
  748MOL0     H98697   8.653   1.561   8.829  3.4637  0.1921  1.8405
  748MOL0     H98698   8.529   1.475   9.095 -0.0158  2.0384  0.8299
  748MOL0     H98699   8.339   1.398   9.241  0.6397 -2.3086 -0.8097
  748MOL0     H98700   7.971   1.398   9.506  1.2199  3.0314 -0.5181
  748MOL0     H98701   7.781   1.380   9.665  2.9872  0.3046  0.1062
  748MOL0     H98702   7.363   1.364   9.661  0.1563 -0.8963 -1.2724
  748MOL0     H98703   7.387   1.366   9.493  2.1490 -0.6785  0.3465
  748MOL0     H98704   7.411   1.647   9.555 -2.2818  1.6643 -2.9380
  748MOL0     H98705   7.317   1.607   9.689  1.2360  0.5810 -0.2729
  748MOL0     H98706   7.265   1.558   9.392  0.6529  0.8414 -0.1236
  748MOL0     H98707   7.179   1.674   9.480  2.8007  1.0814  0.1015
  748MOL0     H98708   7.051   1.496   9.436 -0.4216  2.5932  0.5541
  748MOL0     H98709   7.138   1.381   9.540 -1.6256 -0.3885  0.0322
  748MOL0     H98710   7.079   1.523   9.727  2.1174  0.4174 -1.8072
  748MOL0     H98711   6.926   1.463   9.658 -1.4360  0.7842  1.4866
  748MOL0     H98712   6.899   1.668   9.532  0.9375 -0.4406 -0.5012
  748MOL0     H98713   7.034   1.742   9.624  0.8237 -1.8040 -2.0403
  748MOL0     H98714   6.807   1.631   9.786  0.2415  0.8489  1.1765
  748MOL0     H98715   6.940   1.738   9.819  2.4854 -2.8793 -1.6953
  748MOL0     H98716   6.847   1.916   9.715  1.1322  0.1900  2.5139
  748MOL0     H98717   6.708   1.828   9.787  1.0055  1.7119 -0.6189
  748MOL0     H98718   7.520   1.507   9.363  0.5043  0.5318 -0.3254
  748MOL0     H98719   7.719   1.548   9.203 -1.1984  0.4351  0.3418
  748MOL0     H98720   8.057   1.627   9.042  1.1015  0.2430 -0.7937
  748MOL0     H98721   8.220   1.689   8.883 -1.9507  0.2543  1.1763
  748MOL0     H98722  10.017   2.046   9.575 -0.2135  0.6389 -0.1828
  748MOL0     H98723  10.208   2.190   9.526  1.5607  0.2973 -0.2449
  748MOL0     H98724  10.494   2.269   8.967 -1.3717  3.5627 -2.5606
  748MOL0     H98725  10.702   2.394   8.917  1.0000  2.4103 -0.7421
  748MOL0     H98726  11.000   2.446   9.224 -0.8877 -0.3148  2.8228
  748MOL0     H98727  10.913   2.586   9.292 -1.5578 -3.4171  0.6035
  748MOL0     H98728  11.008   2.718   9.097 -1.3606 -0.2344  0.1183
  748MOL0     H98729  11.109   2.680   9.236 -0.0303  1.1047 -0.9502
  748MOL0     H98730  11.190   2.466   9.105  2.0923  1.1040 -0.0193
  748MOL0     H98731  11.238   2.627   9.036 -0.7932  0.8470  1.7130
  748MOL0     H98732  11.021   2.417   8.951 -0.0889  0.7536 -0.5054
  748MOL0     H98733  11.028   2.580   8.872  3.3773  1.9168 -1.5502
  748MOL0     H98734  11.302   2.387   8.647  0.0837  1.8819 -0.4522
  748MOL0     H98735  10.721   2.481   9.343 -2.4395  0.5254 -0.2933
  748MOL0     H98736  10.525   2.389   9.384  1.3167 -1.0580  0.2690
  749MOL0     O98737   7.058  10.749   8.501  0.4941  0.0909  0.1558
  749MOL0     C98738   7.150  10.696   8.440  0.0228 -1.6074  1.0441
  749MOL0     O98739   7.148  10.583   8.372  0.2150  0.4065 -0.0410
  749MOL0     C98740   7.025  10.522   8.365  0.0713  0.0692 -0.5339
  749MOL0     C98741   6.957  10.463   8.471 -0.7651  0.2307 -0.4806
  749MOL0     C98742   6.837  10.392   8.466  0.8129 -0.6969 -0.8195
  749MOL0     C98743   6.776  10.384   8.341  0.3911  0.9921  0.2114
  749MOL0     O98744   6.641  10.340   8.325  0.3249 -0.3655  0.5822
  749MOL0     C98745   6.566  10.285   8.429  0.7793  0.6523  0.4203
  749MOL0     C98746   6.416  10.283   8.382 -0.9694 -0.3271 -0.1920
  749MOL0     C98747   6.402  10.192   8.260  0.0344 -0.1867  0.9079
  749MOL0     C98748   6.260  10.216   8.209  0.0411  0.5681  0.1362
  749MOL0     C98749   6.194  10.082   8.182  1.0974  0.3264  0.0198
  749MOL0     C98750   6.036  10.105   8.164 -0.5465 -0.2495 -0.2594
  749MOL0     C98751   5.954   9.982   8.141  0.6690 -0.0304 -0.0905
  749MOL0     C98752   5.812  10.016   8.118  0.9934 -0.4340  0.0563
  749MOL0     N98753   5.737   9.892   8.103  0.1513 -0.5955  0.8925
  749MOL0     C98754   5.721   9.800   8.204 -0.4526 -0.4018  0.4400
  749MOL0     C98755   5.679   9.691   8.130  0.1625 -0.1541  0.6096
  749MOL0     C98756   5.643   9.564   8.202  0.1270 -0.2628  0.6433
  749MOL0     C98757   5.497   9.572   8.244 -0.0897 -0.4760 -0.2902
  749MOL0     C98758   5.398   9.513   8.138  0.1119 -0.3809 -0.5605
  749MOL0     C98759   5.273   9.592   8.107 -0.2219 -0.3443 -0.3287
  749MOL0     O98760   5.190   9.598   8.221  0.1965 -0.1912  0.6477
  749MOL0     C98761   5.059   9.644   8.197  0.1324 -0.2389  0.4859
  749MOL0     C98762   4.967   9.651   8.302 -0.4195  0.0542  0.1765
  749MOL0     C98763   4.837   9.684   8.285 -0.4498 -0.0296  0.6716
  749MOL0     C98764   4.789   9.730   8.160 -0.5758 -0.3393 -0.3319
  749MOL0     C98765   4.652   9.774   8.144 -0.3832  0.8425  0.0160
  749MOL0     O98766   4.634   9.861   8.045 -0.2904 -0.2692  1.0645
  749MOL0     C98767   4.509   9.897   8.007  0.6119  0.5812  0.1641
  749MOL0     C98768   4.410   9.943   8.090  0.2913 -0.6861  0.5126
  749MOL0     C98769   4.286   9.998   8.035  1.3526  0.7614 -0.0364
  749MOL0     C98770   4.261   9.990   7.895 -0.5537 -0.3466 -0.0536
  749MOL0     O98771   4.154  10.041   7.822 -0.2624 -0.1277  0.5244
  749MOL0     C98772   4.047  10.077   7.904 -0.6207  1.1407  0.1511
  749MOL0     C98773   3.931  10.090   7.806 -0.6645 -0.1289  0.1855
  749MOL0     C98774   3.885   9.953   7.747  0.5480  0.2935  0.7113
  749MOL0     C98775   3.741   9.945   7.697  0.0051  0.5228  0.0620
  749MOL0     C98776   3.684  10.069   7.610 -1.6988  0.6015 -0.3064
  749MOL0     C98777   3.528  10.040   7.565 -0.3834 -0.5127 -0.8816
  749MOL0     C98778   3.474  10.166   7.497 -0.2012 -0.2993 -0.0305
  749MOL0     C98779   3.354  10.124   7.415 -0.3295  1.0101  0.0111
  749MOL0    Cl98780   3.230  10.084   7.539  0.1920 -0.1295  0.0371
  749MOL0     C98781   4.367   9.934   7.818  0.9359 -0.5285  0.1243
  749MOL0     C98782   4.488   9.893   7.875  0.2662 -0.1258 -0.3666
  749MOL0     O98783   4.557   9.725   8.214  0.2000 -0.5699  0.3178
  749MOL0     C98784   4.886   9.743   8.057 -0.1520  0.1795 -0.0315
  749MOL0     C98785   5.014   9.695   8.076  0.2084  0.3478 -0.8046
  749MOL0     N98786   5.669   9.720   7.995  0.2882  1.0230 -0.4365
  749MOL0     N98787   5.706   9.837   7.976 -0.0495 -0.2265 -0.8475
  749MOL0     C98788   6.841  10.435   8.230 -0.1248 -0.3591  0.0909
  749MOL0     C98789   6.964  10.503   8.242 -0.0828  0.5144 -0.6143
  749MOL0     C98790   7.277  10.779   8.446 -0.0438  0.2426 -0.3201
  749MOL0     C98791   7.294  10.895   8.519  0.5174  0.7016  0.4159
  749MOL0     C98792   7.414  10.959   8.529 -0.8041  1.0177  0.0245
  749MOL0     C98793   7.524  10.914   8.461  0.3082  0.8052 -0.3719
  749MOL0     O98794   7.645  10.984   8.477  0.2084  0.6804  0.1345
  749MOL0     C98795   7.652  11.099   8.388 -0.2424  0.2999 -1.2668
  749MOL0     C98796   7.757  11.076   8.286  0.5079 -0.4352 -0.8322
  749MOL0     C98797   7.897  11.088   8.348 -0.7225  0.0150 -1.1263
  749MOL0     C98798   8.010  11.131   8.251  0.4843  0.1687  0.8200
  749MOL0     C98799   8.136  11.126   8.320  0.1032 -0.1950 -0.8116
  749MOL0     C98800   8.234  11.142   8.384 -0.0600 -0.4156 -0.6649
  749MOL0     C98801   7.517  10.790   8.399 -0.4191  0.5743 -1.3079
  749MOL0     C98802   7.399  10.719   8.402  1.0609  0.9340  0.9384
  749MOL0     H98803   7.010  10.465   8.566  1.8522  2.4012 -1.8290
  749MOL0     H98804   6.795  10.350   8.557  1.2410  2.5318  1.0394
  749MOL0     H98805   6.578  10.357   8.511 -0.6630 -0.4880  1.6979
  749MOL0     H98806   6.599  10.190   8.473 -0.0925  0.7882  1.4145
  749MOL0     H98807   6.379  10.384   8.364 -3.7320 -1.1924  0.1891
  749MOL0     H98808   6.356  10.249   8.466 -0.3424  0.9722  0.8294
  749MOL0     H98809   6.432  10.092   8.293  1.0685  0.4676  2.0337
  749MOL0     H98810   6.462  10.225   8.175  1.0525  1.0689  2.0685
  749MOL0     H98811   6.198  10.267   8.283 -0.6639 -0.8106  0.5444
  749MOL0     H98812   6.257  10.283   8.123 -0.1761 -1.0911 -1.2020
  749MOL0     H98813   6.225  10.025   8.270  0.2958  1.7459  1.2601
  749MOL0     H98814   6.228  10.042   8.086 -0.5160  0.0254 -0.4523
  749MOL0     H98815   6.024  10.168   8.076 -1.7894  2.4804  1.7039
  749MOL0     H98816   5.992  10.153   8.252 -2.5633  3.8907 -3.2075
  749MOL0     H98817   5.996   9.923   8.060  0.5008 -1.8011  1.0715
  749MOL0     H98818   5.962   9.913   8.225 -2.9448  0.9328  1.2320
  749MOL0     H98819   5.788  10.079   8.032  0.9334  1.8372  1.6712
  749MOL0     H98820   5.774  10.078   8.199 -3.4764 -3.6437  0.7391
  749MOL0     H98821   5.741   9.809   8.311  4.3561 -0.5591 -0.2052
  749MOL0     H98822   5.700   9.558   8.295  0.1255  0.8541  0.7351
  749MOL0     H98823   5.662   9.472   8.146  3.1811  1.1968 -0.9948
  749MOL0     H98824   5.470   9.675   8.268  3.4596  0.9581 -1.6995
  749MOL0     H98825   5.496   9.526   8.343  1.9720 -1.6421 -0.7686
  749MOL0     H98826   5.453   9.498   8.044 -0.8924 -0.6832 -1.1084
  749MOL0     H98827   5.369   9.415   8.176  2.2379 -0.5684  0.7815
  749MOL0     H98828   5.212   9.545   8.030 -4.8163  1.2557  1.9583
  749MOL0     H98829   5.302   9.696   8.088  1.4139 -0.3577  1.7033
  749MOL0     H98830   5.003   9.611   8.396  3.3490  0.9750 -0.6991
  749MOL0     H98831   4.768   9.661   8.365 -0.9039  0.9492  0.5785
  749MOL0     H98832   4.419   9.949   8.198  2.0190 -0.3686  0.3769
  749MOL0     H98833   4.207  10.038   8.097 -0.3225 -0.5909 -1.1799
  749MOL0     H98834   4.067  10.172   7.955 -0.6279  0.1942  2.0157
  749MOL0     H98835   4.030   9.990   7.969 -0.0413 -1.0470 -2.4582
  749MOL0     H98836   3.968  10.154   7.725 -1.3943  1.6444  1.1892
  749MOL0     H98837   3.844  10.131   7.858 -0.8760  1.3048 -1.2085
  749MOL0     H98838   3.906   9.875   7.820 -2.0317  0.7225  2.0038
  749MOL0     H98839   3.946   9.912   7.665 -1.1240 -2.9164  0.9302
  749MOL0     H98840   3.730   9.859   7.631  0.8149 -0.3675  1.0583
  749MOL0     H98841   3.683   9.945   7.790 -0.3290  5.8270  0.1710
  749MOL0     H98842   3.750  10.088   7.525  0.2535 -0.6828  0.8476
  749MOL0     H98843   3.681  10.164   7.666  0.5730 -0.7897  2.4394
  749MOL0     H98844   3.466  10.017   7.652  0.2657 -2.9242 -0.9820
  749MOL0     H98845   3.508   9.952   7.504 -1.7534 -0.3832 -0.6534
  749MOL0     H98846   3.451  10.252   7.560 -1.3999  0.2818 -1.2301
  749MOL0     H98847   3.550  10.194   7.424 -0.1879  0.0188  0.1016
  749MOL0     H98848   3.391  10.043   7.352  2.4065  3.7322 -2.2267
  749MOL0     H98849   3.326  10.194   7.336 -1.5710  1.1395  0.5381
  749MOL0     H98850   4.343   9.912   7.715 -1.8964  2.1393  0.0793
  749MOL0     H98851   4.559   9.852   7.804 -0.8894  2.5443 -3.3074
  749MOL0     H98852   4.853   9.789   7.965 -2.1275  1.6572  1.3351
  749MOL0     H98853   5.084   9.702   7.994  1.5695 -0.8715  0.1911
  749MOL0     H98854   6.778  10.433   8.142 -1.7840 -1.9038  1.2369
  749MOL0     H98855   7.019  10.534   8.154 -2.8593  2.5914 -1.7725
  749MOL0     H98856   7.212  10.943   8.572 -1.1766  1.0025 -2.3028
  749MOL0     H98857   7.430  11.059   8.567  2.0921  0.3937  0.7415
  749MOL0     H98858   7.680  11.195   8.432  0.1331  0.7616 -2.4844
  749MOL0     H98859   7.556  11.114   8.339 -0.7155  0.4602 -0.3072
  749MOL0     H98860   7.747  10.978   8.238 -0.9031 -1.3640  1.2202
  749MOL0     H98861   7.748  11.156   8.212  2.3484 -2.3359 -3.3185
  749MOL0     H98862   7.924  10.988   8.383 -1.7796 -0.2986 -1.1613
  749MOL0     H98863   7.893  11.156   8.433 -0.4723 -1.3444  0.0204
  749MOL0     H98864   8.009  11.059   8.168  2.0392  1.6401 -0.5556
  749MOL0     H98865   8.002  11.230   8.206 -0.8952 -0.1244  0.3458
  749MOL0     H98866   8.313  11.175   8.449 -0.6191 -0.7414  0.1968
  749MOL0     H98867   7.605  10.748   8.352  1.5453  2.4005  0.4956
  749MOL0     H98868   7.373  10.627   8.351 -1.9006  2.0571  0.2033
  750MOL0     O98869   0.999   3.103   6.235  0.3196 -0.0574 -0.0540
  750MOL0     C98870   0.991   3.092   6.116  0.8446  0.4278 -0.1095
  750MOL0     O98871   0.879   3.127   6.037  0.9154  0.2189 -0.6583
  750MOL0     C98872   0.778   3.203   6.102 -0.0476  0.2086 -0.5118
  750MOL0     C98873   0.658   3.202   6.036 -0.3312 -1.2096  0.0236
  750MOL0     C98874   0.549   3.270   6.084 -0.8520  0.2739 -0.5285
  750MOL0     C98875   0.560   3.354   6.190 -0.2147  0.0370 -0.0959
  750MOL0     O98876   0.443   3.410   6.240 -0.3544  0.5097 -0.2086
  750MOL0     C98877   0.440   3.473   6.367  0.3747 -0.1094 -0.0907
  750MOL0     C98878   0.302   3.492   6.422  0.4483  0.0211  0.4990
  750MOL0     C98879   0.227   3.582   6.327 -0.0197 -0.6600  0.5331
  750MOL0     C98880   0.098   3.634   6.385 -0.9080  0.8801  0.2973
  750MOL0     C98881   0.045   3.748   6.299 -0.6987  1.0881 -0.2450
  750MOL0     C98882  -0.037   3.840   6.384  0.0524  0.1723  0.1033
  750MOL0     C98883  -0.027   3.983   6.325  0.5436 -0.5655  0.1483
  750MOL0     C98884  -0.131   4.083   6.375 -0.8751 -0.6160  0.3458
  750MOL0     N98885  -0.163   4.083   6.520  0.0346 -0.1546  0.1305
  750MOL0     C98886  -0.280   4.056   6.586  0.0234  0.5273 -0.0407
  750MOL0     C98887  -0.274   4.108   6.710  0.4889 -0.5582  0.0641
  750MOL0     C98888  -0.374   4.090   6.820  0.3084  1.3280  0.4217
  750MOL0     C98889  -0.489   4.189   6.817  0.1608  0.3613  0.9981
  750MOL0     C98890  -0.580   4.169   6.694  0.3133  0.0901  1.0005
  750MOL0     C98891  -0.713   4.237   6.704 -0.6527  0.5080 -0.4070
  750MOL0     O98892  -0.786   4.248   6.577  0.7144 -1.1581 -0.0604
  750MOL0     C98893  -0.919   4.282   6.582  0.6567 -0.9664  0.5012
  750MOL0     C98894  -1.004   4.306   6.697 -0.3002  0.0702  0.5047
  750MOL0     C98895  -1.139   4.320   6.679  0.6051 -0.7903  0.4327
  750MOL0     C98896  -1.199   4.316   6.548  0.5106  0.5401  0.7378
  750MOL0     C98897  -1.345   4.314   6.524 -1.1584  0.0193  0.1234
  750MOL0     O98898  -1.413   4.368   6.621  0.1842 -0.0369 -0.7473
  750MOL0     C98899  -1.548   4.399   6.601 -0.2841 -0.1288  0.2137
  750MOL0     C98900  -1.646   4.332   6.519 -0.4551  0.8329 -1.0540
  750MOL0     C98901  -1.773   4.371   6.508 -0.6375 -0.2360  0.5064
  750MOL0     C98902  -1.822   4.468   6.589  0.1268  0.5855 -0.3426
  750MOL0     O98903  -1.949   4.501   6.571  0.3600  0.5340  0.4418
  750MOL0     C98904  -2.019   4.570   6.672  0.9340 -0.7822 -0.4741
  750MOL0     C98905  -2.167   4.582   6.625 -0.8878 -0.5128 -0.3256
  750MOL0     C98906  -2.198   4.630   6.487  0.3340 -0.4064 -0.5796
  750MOL0     C98907  -2.351   4.652   6.474 -0.8473 -0.1226 -0.2239
  750MOL0     C98908  -2.384   4.692   6.336 -0.1101 -0.2960  0.7616
  750MOL0     C98909  -2.532   4.725   6.309 -0.1348  0.4385  0.0211
  750MOL0     C98910  -2.548   4.781   6.172 -0.2237  0.3862 -0.4228
  750MOL0     C98911  -2.692   4.826   6.150  0.3797 -0.0151 -0.1263
  750MOL0    Cl98912  -2.729   4.914   6.007 -0.1034 -0.3671 -0.0713
  750MOL0     C98913  -1.737   4.530   6.675  0.2119 -0.3386 -0.3659
  750MOL0     C98914  -1.597   4.506   6.681 -0.3747  0.0676  1.0221
  750MOL0     O98915  -1.389   4.254   6.418 -0.1053 -0.3231 -0.1625
  750MOL0     C98916  -1.109   4.312   6.441 -0.4619 -0.2188 -0.6710
  750MOL0     C98917  -0.977   4.295   6.458 -0.6902  0.2641  0.6017
  750MOL0     N98918  -0.152   4.176   6.719  0.4629 -0.5147  0.2090
  750MOL0     N98919  -0.087   4.149   6.609 -0.0954  0.2027 -0.3843
  750MOL0     C98920   0.678   3.365   6.258  0.1870 -0.2247  0.3823
  750MOL0     C98921   0.793   3.292   6.215  0.3201  0.5520 -0.3790
  750MOL0     C98922   1.103   3.035   6.047 -0.1663 -0.1779  0.4665
  750MOL0     C98923   1.089   2.988   5.911  0.0775 -0.5075  0.6565
  750MOL0     C98924   1.186   2.930   5.846 -0.0468  0.9667 -0.4366
  750MOL0     C98925   1.304   2.892   5.912 -0.5125  0.6724 -0.2246
  750MOL0     O98926   1.398   2.835   5.828 -0.3091 -0.3529 -0.2358
  750MOL0     C98927   1.525   2.806   5.883 -0.5158  0.9391 -0.6505
  750MOL0     C98928   1.629   2.771   5.775 -0.5694  0.1434  0.4336
  750MOL0     C98929   1.680   2.885   5.678 -0.2984 -0.5063  0.7860
  750MOL0     C98930   1.778   2.841   5.567 -0.2617  0.0949  0.1406
  750MOL0     C98931   1.709   2.759   5.464 -0.9494  0.3147  0.3500
  750MOL0     C98932   1.658   2.676   5.395 -0.3851 -0.1771  0.2081
  750MOL0     C98933   1.324   2.927   6.046 -0.0997 -0.3935  0.3366
  750MOL0     C98934   1.216   2.995   6.112  0.0636 -0.6181  0.5252
  750MOL0     H98935   0.651   3.144   5.944  0.4837  0.0388 -0.8474
  750MOL0     H98936   0.456   3.244   6.033 -0.6231 -0.1906 -0.7160
  750MOL0     H98937   0.504   3.562   6.360  3.5628 -2.1627  0.8422
  750MOL0     H98938   0.488   3.413   6.445  0.1761  0.1052  0.2006
  750MOL0     H98939   0.324   3.539   6.519 -0.3094 -2.7164  2.1113
  750MOL0     H98940   0.242   3.401   6.434 -1.8910  1.4339  0.1890
  750MOL0     H98941   0.213   3.527   6.234  1.3191 -1.5646  0.8511
  750MOL0     H98942   0.285   3.672   6.301 -0.9073 -0.6656 -1.7239
  750MOL0     H98943   0.038   3.542   6.391  0.1809 -0.0480 -1.9458
  750MOL0     H98944   0.126   3.671   6.484 -0.0618  1.0930 -0.0105
  750MOL0     H98945  -0.023   3.709   6.223 -2.0226  0.5338  1.1782
  750MOL0     H98946   0.125   3.803   6.248 -1.9446  0.9814 -2.4440
  750MOL0     H98947   0.004   3.847   6.485  1.3727 -1.4943 -0.2738
  750MOL0     H98948  -0.142   3.810   6.385  0.0507 -0.2088 -2.5873
  750MOL0     H98949   0.072   4.021   6.349 -0.0029  0.2219  1.2737
  750MOL0     H98950  -0.032   3.966   6.217 -2.5441  1.5952 -0.2034
  750MOL0     H98951  -0.221   4.063   6.316 -0.1620 -0.7778 -0.7206
  750MOL0     H98952  -0.091   4.176   6.333 -0.4613 -0.9012  0.0929
  750MOL0     H98953  -0.367   4.004   6.548  0.8915 -0.3577 -0.8887
  750MOL0     H98954  -0.314   4.100   6.911  2.2687  0.3871 -0.7025
  750MOL0     H98955  -0.415   3.988   6.822  2.8656  0.1582 -0.9422
  750MOL0     H98956  -0.447   4.286   6.843 -0.7860  0.7018  1.2814
  750MOL0     H98957  -0.557   4.161   6.899  0.8612 -2.0708  0.8497
  750MOL0     H98958  -0.520   4.212   6.613  1.2096 -2.5201  0.2019
  750MOL0     H98959  -0.584   4.063   6.669 -1.1608  0.1188  1.0201
  750MOL0     H98960  -0.688   4.333   6.750  3.8724  0.0555 -1.4841
  750MOL0     H98961  -0.767   4.166   6.767  0.7004 -1.1097 -0.9912
  750MOL0     H98962  -0.962   4.310   6.797  0.0131  0.3772  0.3632
  750MOL0     H98963  -1.212   4.324   6.759 -0.4591 -0.1778 -0.5352
  750MOL0     H98964  -1.608   4.256   6.451  2.0268  1.9794 -1.0687
  750MOL0     H98965  -1.836   4.338   6.426  0.5147  0.5020 -0.6964
  750MOL0     H98966  -1.976   4.668   6.696 -0.7922 -0.4029  1.3359
  750MOL0     H98967  -2.015   4.508   6.762 -0.5435 -0.0924  0.1102
  750MOL0     H98968  -2.209   4.645   6.703 -2.2263  1.1901 -2.3169
  750MOL0     H98969  -2.213   4.483   6.624  0.7995 -1.3443 -1.5421
  750MOL0     H98970  -2.169   4.552   6.416  0.7094 -1.0419  0.2632
  750MOL0     H98971  -2.140   4.716   6.452 -1.6407  1.2543  0.0624
  750MOL0     H98972  -2.401   4.558   6.497  0.5340 -0.5490  1.2046
  750MOL0     H98973  -2.383   4.733   6.540  2.7453  0.4046  1.1299
  750MOL0     H98974  -2.353   4.615   6.265  0.2408  2.2810 -2.1070
  750MOL0     H98975  -2.325   4.780   6.307  0.1494 -0.6695  0.1154
  750MOL0     H98976  -2.556   4.807   6.377  1.7416  1.3225 -0.3035
  750MOL0     H98977  -2.593   4.635   6.324 -0.5169  0.9689  1.8610
  750MOL0     H98978  -2.477   4.861   6.146  0.9910 -0.5958 -0.2352
  750MOL0     H98979  -2.525   4.703   6.099  0.7681 -0.9367  1.2369
  750MOL0     H98980  -2.720   4.893   6.232  0.1850 -2.4918  1.9568
  750MOL0     H98981  -2.748   4.733   6.166  2.7536 -1.7493 -1.3624
  750MOL0     H98982  -1.770   4.614   6.735  0.4376  0.7056 -1.6410
  750MOL0     H98983  -1.522   4.559   6.739 -1.4178 -0.7467  3.2025
  750MOL0     H98984  -1.147   4.310   6.340 -0.0810  0.0291 -0.8203
  750MOL0     H98985  -0.908   4.282   6.375 -0.1550  0.5445  0.9952
  750MOL0     H98986   0.695   3.445   6.329 -3.6761 -0.4770  1.7976
  750MOL0     H98987   0.884   3.316   6.269 -0.6960  0.9335  1.2397
  750MOL0     H98988   1.002   3.003   5.849  0.3051 -1.1729  0.1635
  750MOL0     H98989   1.182   2.910   5.740  2.6985  0.0919 -0.4653
  750MOL0     H98990   1.516   2.719   5.949  1.6911  0.1990 -1.2487
  750MOL0     H98991   1.562   2.891   5.941 -2.1843  0.3438  1.4278
  750MOL0     H98992   1.717   2.730   5.826 -0.1626  0.9443  0.3854
  750MOL0     H98993   1.585   2.699   5.705  0.4357  2.7037 -3.0848
  750MOL0     H98994   1.719   2.973   5.730 -4.0598  1.3555  0.7277
  750MOL0     H98995   1.594   2.925   5.625 -1.3798 -1.2559  1.9179
  750MOL0     H98996   1.817   2.926   5.510  0.0855  0.8338  1.4363
  750MOL0     H98997   1.859   2.786   5.615  1.8279  2.8196 -0.0090
  750MOL0     H98998   1.634   2.592   5.333  1.7304 -1.8113  1.4811
  750MOL0     H98999   1.419   2.899   6.090 -1.2235 -1.7922  1.9753
  750MOL0     H99000   1.210   3.025   6.217 -2.8345  0.7349  0.0809
  751MOL0     O99001   8.093   3.586   9.819  0.4447  0.1701 -0.0575
  751MOL0     C99002   8.150   3.654   9.739  0.6129  0.6341 -0.0458
  751MOL0     O99003   8.098   3.719   9.628 -0.2825  0.0914 -0.8796
  751MOL0     C99004   7.973   3.680   9.575 -0.5968  0.7795 -0.5468
  751MOL0     C99005   7.954   3.547   9.530  0.8912  0.0210  0.0970
  751MOL0     C99006   7.834   3.514   9.469  0.4682  0.1691  0.4616
  751MOL0     C99007   7.730   3.611   9.456 -0.4604  0.7287 -0.2462
  751MOL0     O99008   7.608   3.585   9.406  0.2011  0.1727  0.0242
  751MOL0     C99009   7.588   3.466   9.328 -0.5268 -0.3862  0.6117
  751MOL0     C99010   7.443   3.472   9.275 -0.0787  0.7718  1.0665
  751MOL0     C99011   7.406   3.346   9.198  0.7877  0.1704  0.6775
  751MOL0     C99012   7.482   3.346   9.065 -0.8521 -0.6229 -0.8487
  751MOL0     C99013   7.419   3.233   8.979 -0.4294  0.6826  0.1025
  751MOL0     C99014   7.469   3.250   8.836  0.4231 -1.1922  0.0459
  751MOL0     C99015   7.381   3.172   8.739  0.5084  1.3476  0.0324
  751MOL0     C99016   7.400   3.023   8.752 -0.4116 -0.3890  0.1420
  751MOL0     N99017   7.292   2.940   8.686 -0.0169 -0.5405  0.8547
  751MOL0     C99018   7.271   2.917   8.553  0.0906 -0.3918  0.1138
  751MOL0     C99019   7.166   2.833   8.545 -0.2544  0.3037 -0.0866
  751MOL0     C99020   7.103   2.762   8.424 -0.0686  0.4993  0.8007
  751MOL0     C99021   6.948   2.715   8.434 -1.4681 -0.2267 -0.9470
  751MOL0     C99022   6.889   2.655   8.310 -0.2943  0.4265  1.1067
  751MOL0     C99023   6.957   2.514   8.268  0.0918 -0.5015 -0.2480
  751MOL0     O99024   6.878   2.430   8.180  0.5261  0.7305 -0.2281
  751MOL0     C99025   6.751   2.396   8.220 -0.3365  0.7241 -1.2883
  751MOL0     C99026   6.722   2.369   8.358  0.0081 -0.5341  0.0441
  751MOL0     C99027   6.592   2.322   8.400 -0.6087  1.0262 -0.1479
  751MOL0     C99028   6.500   2.286   8.297  0.3729 -0.0944 -1.1183
  751MOL0     C99029   6.368   2.249   8.335  0.7826  0.5703 -1.2674
  751MOL0     O99030   6.326   2.290   8.461  0.3633 -0.9026  0.4356
  751MOL0     C99031   6.198   2.266   8.506  0.3134 -0.2721  0.1427
  751MOL0     C99032   6.176   2.228   8.639  0.2929 -0.1017 -0.6857
  751MOL0     C99033   6.045   2.211   8.688  0.3955 -0.4146 -0.4749
  751MOL0     C99034   5.928   2.232   8.616 -0.3339 -0.4087 -0.3846
  751MOL0     O99035   5.804   2.206   8.671  0.0794  1.4036 -0.0500
  751MOL0     C99036   5.696   2.293   8.635 -1.3031  0.7043 -0.4273
  751MOL0     C99037   5.567   2.267   8.715  0.3004  0.2706  0.4684
  751MOL0     C99038   5.573   2.291   8.857  0.6777 -0.0483 -1.0049
  751MOL0     C99039   5.442   2.256   8.937  0.7037  0.9750  0.9175
  751MOL0     C99040   5.452   2.286   9.082  0.1777 -0.4506  0.0234
  751MOL0     C99041   5.315   2.296   9.131  0.6390 -0.3718  1.0611
  751MOL0     C99042   5.312   2.376   9.257 -0.7388 -0.2120  0.2504
  751MOL0     C99043   5.177   2.398   9.311  0.5588  0.3180  0.3336
  751MOL0    Cl99044   5.095   2.243   9.361  0.3963 -0.1241 -0.0615
  751MOL0     C99045   5.948   2.282   8.487  0.0619  0.3973  1.0241
  751MOL0     C99046   6.087   2.298   8.432 -0.5241 -0.9172 -0.3272
  751MOL0     O99047   6.303   2.176   8.261 -0.1144 -0.3604 -0.3314
  751MOL0     C99048   6.538   2.294   8.161  0.4360  1.0805 -0.6462
  751MOL0     C99049   6.667   2.354   8.123 -0.4663  0.5395 -0.3455
  751MOL0     N99050   7.119   2.800   8.675  0.1989 -1.0417  0.0065
  751MOL0     N99051   7.195   2.874   8.754  0.7403 -0.1584  0.1183
  751MOL0     C99052   7.756   3.738   9.500 -0.0393  0.0868 -0.1974
  751MOL0     C99053   7.880   3.782   9.551 -0.1439  0.5227 -0.1604
  751MOL0     C99054   8.295   3.690   9.770  0.6799 -0.4797  0.3166
  751MOL0     C99055   8.356   3.809   9.718  0.0629  0.0695 -0.6322
  751MOL0     C99056   8.490   3.847   9.746  1.1443 -1.0238 -0.6879
  751MOL0     C99057   8.567   3.762   9.822 -0.0964  0.8686 -0.8211
  751MOL0     O99058   8.696   3.784   9.867  0.0342 -0.1700 -0.4034
  751MOL0     C99059   8.773   3.911   9.837 -0.2946  0.2290  0.0195
  751MOL0     C99060   8.731   4.031   9.926  0.5706 -0.4045  0.4476
  751MOL0     C99061   8.749   4.172   9.868  0.5491 -0.6613  0.0185
  751MOL0     C99062   8.894   4.210   9.821 -0.0130  0.1107 -0.1492
  751MOL0     C99063   8.989   4.160   9.925  0.2166 -0.3487  0.1636
  751MOL0     C99064   9.074   4.122  10.003  0.0438 -0.0843 -0.0312
  751MOL0     C99065   8.508   3.645   9.872  0.0854 -0.4400 -0.5938
  751MOL0     C99066   8.374   3.612   9.846  0.5152 -0.8482 -0.5191
  751MOL0     H99067   8.032   3.473   9.541 -0.8026 -2.1141 -1.4864
  751MOL0     H99068   7.815   3.412   9.437 -0.6185  0.5728 -0.2356
  751MOL0     H99069   7.614   3.369   9.372 -0.0155 -1.8907 -2.7093
  751MOL0     H99070   7.667   3.476   9.253  0.1395 -0.1718  1.3262
  751MOL0     H99071   7.443   3.555   9.203 -0.8804  0.9613  1.2717
  751MOL0     H99072   7.372   3.488   9.356 -2.7670 -0.0388 -0.9710
  751MOL0     H99073   7.299   3.339   9.175  0.9768  1.5601 -0.8090
  751MOL0     H99074   7.448   3.258   9.247  0.2309 -1.2351 -1.2565
  751MOL0     H99075   7.468   3.440   9.010  2.0181  0.8478  0.7113
  751MOL0     H99076   7.590   3.333   9.077 -0.5514  1.3693 -0.9963
  751MOL0     H99077   7.310   3.231   8.975 -0.6150  3.6068  1.2539
  751MOL0     H99078   7.456   3.139   9.022  1.8241  1.1232 -0.6920
  751MOL0     H99079   7.571   3.220   8.812  0.6212 -1.0435  0.6877
  751MOL0     H99080   7.472   3.355   8.807  2.8920 -1.5014 -1.0743
  751MOL0     H99081   7.277   3.203   8.751  1.2325  3.0210  3.5842
  751MOL0     H99082   7.406   3.206   8.638 -0.5499  3.0438  0.2938
  751MOL0     H99083   7.400   3.008   8.861 -2.1155  1.8733  0.5267
  751MOL0     H99084   7.496   2.988   8.713  0.8175  2.1425  0.7167
  751MOL0     H99085   7.329   2.944   8.465  1.8901 -1.0394  1.0380
  751MOL0     H99086   7.157   2.668   8.405 -1.5447 -0.4187  0.9895
  751MOL0     H99087   7.133   2.831   8.344  5.0150  0.3190  2.1817
  751MOL0     H99088   6.883   2.802   8.451 -3.2686 -1.2509 -2.2319
  751MOL0     H99089   6.934   2.655   8.524  0.0079 -1.8028 -1.7292
  751MOL0     H99090   6.780   2.655   8.321 -0.5349  0.2221 -0.8660
  751MOL0     H99091   6.905   2.731   8.233  0.0295 -0.1162  0.6330
  751MOL0     H99092   6.986   2.468   8.363  0.3265 -0.0591 -0.0974
  751MOL0     H99093   7.053   2.524   8.217  0.0373 -1.2328 -0.4980
  751MOL0     H99094   6.798   2.391   8.432 -0.2820 -0.6030  0.3655
  751MOL0     H99095   6.575   2.333   8.507  4.0778  1.8425  0.7718
  751MOL0     H99096   6.258   2.192   8.702 -0.0266  2.2945  1.2442
  751MOL0     H99097   6.037   2.173   8.790 -3.3132 -1.8380 -1.1228
  751MOL0     H99098   5.667   2.276   8.531 -0.1429 -0.7063 -0.5572
  751MOL0     H99099   5.728   2.397   8.647 -2.6410  1.1005 -0.1648
  751MOL0     H99100   5.519   2.170   8.703 -1.5644  1.3641 -1.8344
  751MOL0     H99101   5.496   2.342   8.679 -0.0465 -0.0910  0.3935
  751MOL0     H99102   5.601   2.395   8.877  0.7982 -0.1604 -0.5877
  751MOL0     H99103   5.656   2.228   8.890  2.3576  1.0328 -2.9204
  751MOL0     H99104   5.365   2.321   8.894  1.2447  0.9981 -0.0495
  751MOL0     H99105   5.410   2.153   8.925 -2.0408  1.8613 -0.0293
  751MOL0     H99106   5.505   2.380   9.097  2.2752 -1.3458 -1.4049
  751MOL0     H99107   5.511   2.214   9.138 -2.4313 -0.0907  3.5731
  751MOL0     H99108   5.270   2.198   9.148 -2.8919  0.9428  0.2711
  751MOL0     H99109   5.238   2.353   9.077  1.7441 -1.0300 -1.3670
  751MOL0     H99110   5.387   2.339   9.327 -3.5745 -0.6377  3.3514
  751MOL0     H99111   5.336   2.476   9.218  0.7420 -1.5445 -2.5311
  751MOL0     H99112   5.114   2.442   9.234 -0.0722  0.5683  0.9801
  751MOL0     H99113   5.172   2.461   9.400 -0.9237 -1.1811  1.3841
  751MOL0     H99114   5.861   2.301   8.425  1.5419  0.7796 -1.0566
  751MOL0     H99115   6.098   2.335   8.330 -0.4448  1.2215  0.4054
  751MOL0     H99116   6.471   2.258   8.083  1.0355  1.3702 -1.3088
  751MOL0     H99117   6.704   2.361   8.021 -0.2077  0.6822 -0.2424
  751MOL0     H99118   7.678   3.811   9.518 -2.3944 -2.8441  2.8360
  751MOL0     H99119   7.904   3.885   9.578 -0.5192  0.0014  2.5274
  751MOL0     H99120   8.292   3.878   9.663 -0.3165  1.1940  1.1463
  751MOL0     H99121   8.531   3.934   9.696 -0.6704  0.1900 -0.1357
  751MOL0     H99122   8.759   3.930   9.731 -2.7954 -2.4548 -0.2439
  751MOL0     H99123   8.879   3.884   9.847 -0.4287  0.1540  1.5386
  751MOL0     H99124   8.625   4.015   9.950  1.1278 -2.7884  1.7038
  751MOL0     H99125   8.784   4.016  10.020  0.1152  1.8581  1.1044
  751MOL0     H99126   8.723   4.247   9.944 -0.5573  0.3615 -1.3157
  751MOL0     H99127   8.681   4.196   9.786 -0.9969 -0.0837  1.4022
  751MOL0     H99128   8.917   4.154   9.730  1.5587  0.0628  0.2604
  751MOL0     H99129   8.905   4.317   9.802 -1.1136 -0.3206 -4.2574
  751MOL0     H99130   9.156   4.099  10.068  2.4087  1.7941 -2.1243
  751MOL0     H99131   8.562   3.582   9.941 -1.1591 -1.1412 -0.2186
  751MOL0     H99132   8.329   3.517   9.873  1.4278 -0.7988  1.3214
  752MOL0     O99133   2.439   5.494   7.493 -0.1027  0.4434  0.1974
  752MOL0     C99134   2.488   5.606   7.462  0.1044  0.1540  0.5537
  752MOL0     O99135   2.455   5.725   7.517  0.3871 -0.3958  0.1033
  752MOL0     C99136   2.356   5.722   7.613 -0.3481 -0.9000  0.1247
  752MOL0     C99137   2.221   5.737   7.578 -0.4967  0.9955  0.6361
  752MOL0     C99138   2.123   5.734   7.679 -0.9382  0.1552 -0.6164
  752MOL0     C99139   2.148   5.711   7.812 -0.0199 -0.3324  0.0829
  752MOL0     O99140   2.034   5.699   7.899  0.2045 -0.2694 -0.3357
  752MOL0     C99141   2.050   5.592   7.992 -0.0051 -0.6736 -0.1879
  752MOL0     C99142   1.926   5.601   8.079 -0.1898 -1.0565  0.5062
  752MOL0     C99143   1.953   5.702   8.192 -0.4253 -0.5650 -0.6028
  752MOL0     C99144   1.824   5.730   8.281  0.0552 -0.4686  0.5164
  752MOL0     C99145   1.837   5.837   8.394  0.0441  0.8790 -0.6204
  752MOL0     C99146   1.705   5.882   8.445  0.4851 -0.3322  0.2577
  752MOL0     C99147   1.626   5.774   8.515  0.6167  0.1885  0.3650
  752MOL0     C99148   1.484   5.768   8.456  0.6996  0.2926  1.0291
  752MOL0     N99149   1.417   5.647   8.511 -0.4178  0.1963  0.2191
  752MOL0     C99150   1.376   5.638   8.640  1.8221 -0.4276  0.4170
  752MOL0     C99151   1.287   5.534   8.638 -0.4484 -0.8490  0.4936
  752MOL0     C99152   1.204   5.476   8.757 -0.6160  0.1632  0.9288
  752MOL0     C99153   1.053   5.452   8.743 -0.5339 -0.3266 -0.7699
  752MOL0     C99154   1.000   5.397   8.877  0.5417 -0.4404 -0.1968
  752MOL0     C99155   0.872   5.469   8.940  0.4543  0.3314 -0.0445
  752MOL0     O99156   0.783   5.487   8.835  0.5575  0.5383  1.2684
  752MOL0     C99157   0.660   5.437   8.830  1.0756  0.5439  0.3106
  752MOL0     C99158   0.581   5.510   8.749  0.2872 -0.6671 -0.0798
  752MOL0     C99159   0.446   5.470   8.736  0.4277  0.1824  1.2558
  752MOL0     C99160   0.392   5.359   8.806  0.0227  0.0334 -1.3737
  752MOL0     C99161   0.257   5.315   8.780  1.4342 -0.5752  1.0095
  752MOL0     O99162   0.211   5.207   8.855 -0.4264  0.3927  0.6361
  752MOL0     C99163   0.105   5.133   8.816  0.1270  0.5446  0.0891
  752MOL0     C99164   0.086   5.025   8.897  0.8779  0.2515  0.6500
  752MOL0     C99165  -0.014   4.940   8.872  0.0225  0.2745 -0.2633
  752MOL0     C99166  -0.110   4.974   8.778 -0.0756 -0.2864 -0.5988
  752MOL0     O99167  -0.216   4.898   8.744 -0.0800 -0.2745  0.4799
  752MOL0     C99168  -0.285   4.831   8.844 -1.2504 -0.4215 -1.0073
  752MOL0     C99169  -0.435   4.809   8.831  0.2425 -0.2791  1.0554
  752MOL0     C99170  -0.454   4.735   8.700 -0.3180 -0.2417 -0.5328
  752MOL0     C99171  -0.601   4.729   8.663 -0.5548 -0.6326  1.0304
  752MOL0     C99172  -0.612   4.691   8.510  0.4747 -0.1334  0.4090
  752MOL0     C99173  -0.754   4.721   8.453 -0.9873  0.0667 -0.0971
  752MOL0     C99174  -0.849   4.603   8.455  0.6717 -0.3502  0.4386
  752MOL0     C99175  -0.994   4.655   8.469 -0.4840  0.2430 -0.5046
  752MOL0    Cl99176  -1.018   4.784   8.347 -0.1336  0.5400  0.0606
  752MOL0     C99177  -0.094   5.084   8.696 -0.4445 -0.8683  0.1745
  752MOL0     C99178   0.018   5.159   8.709 -0.2965  0.6770 -0.4589
  752MOL0     O99179   0.185   5.395   8.713 -0.8396 -0.1084  0.2261
  752MOL0     C99180   0.480   5.281   8.892  0.2824 -0.0049 -0.1583
  752MOL0     C99181   0.608   5.331   8.912 -0.3526  0.3373 -0.4501
  752MOL0     N99182   1.293   5.470   8.515 -0.1659  0.4015  0.1670
  752MOL0     N99183   1.368   5.543   8.437 -0.0180  0.9145 -0.6275
  752MOL0     C99184   2.277   5.686   7.844  0.9337 -0.0980 -0.0408
  752MOL0     C99185   2.383   5.694   7.748 -0.0053 -0.2513 -0.5975
  752MOL0     C99186   2.592   5.600   7.359  0.4560 -0.0979 -0.3158
  752MOL0     C99187   2.610   5.486   7.267  0.7065  0.1126  1.2942
  752MOL0     C99188   2.698   5.494   7.166 -0.0415  0.4567 -0.2725
  752MOL0     C99189   2.782   5.606   7.158 -0.3117  0.0108 -0.8668
  752MOL0     O99190   2.884   5.613   7.066 -0.1241  0.2588 -0.1702
  752MOL0     C99191   2.984   5.518   7.082  0.4199  0.2359 -0.2796
  752MOL0     C99192   3.118   5.576   7.031  1.2076  0.6915 -0.0837
  752MOL0     C99193   3.130   5.560   6.882  0.3347 -0.6697 -0.2691
  752MOL0     C99194   3.231   5.659   6.825 -0.7190 -0.2843  0.0335
  752MOL0     C99195   3.363   5.654   6.891 -0.3388 -0.4736 -0.3853
  752MOL0     C99196   3.461   5.626   6.963  1.0206  1.0260  0.0245
  752MOL0     C99197   2.771   5.712   7.245 -0.2480 -0.0070 -0.2665
  752MOL0     C99198   2.672   5.711   7.347 -0.3862 -0.0822  0.3174
  752MOL0     H99199   2.187   5.754   7.476  1.1451  0.4485 -0.0346
  752MOL0     H99200   2.026   5.744   7.631  0.1714  0.6687 -2.9133
  752MOL0     H99201   2.136   5.610   8.058  0.9752  2.9595 -2.1599
  752MOL0     H99202   2.059   5.492   7.948 -4.5163 -0.2888 -2.4917
  752MOL0     H99203   1.901   5.512   8.138 -1.8663  0.1592  1.7449
  752MOL0     H99204   1.836   5.630   8.024  1.0316  0.5142 -0.7692
  752MOL0     H99205   1.983   5.801   8.157 -0.7747 -0.3406 -0.2725
  752MOL0     H99206   2.036   5.669   8.256 -1.1581 -0.9003  0.1972
  752MOL0     H99207   1.763   5.782   8.206  1.0337  3.9167  2.4387
  752MOL0     H99208   1.788   5.634   8.319  0.1073 -1.0273 -0.8012
  752MOL0     H99209   1.914   5.906   8.359  0.5068 -0.2378 -1.8594
  752MOL0     H99210   1.892   5.806   8.483  2.0298  0.8169 -1.8122
  752MOL0     H99211   1.643   5.917   8.362  0.0580 -0.6270  0.4501
  752MOL0     H99212   1.739   5.967   8.505 -1.7033  1.1786 -0.5003
  752MOL0     H99213   1.675   5.677   8.522 -0.4999 -0.4162 -0.0101
  752MOL0     H99214   1.602   5.808   8.617 -1.3596 -0.9694  0.3274
  752MOL0     H99215   1.486   5.754   8.347 -0.2149  0.5022  0.9788
  752MOL0     H99216   1.429   5.858   8.484  0.3683  0.6930 -0.7850
  752MOL0     H99217   1.392   5.703   8.726 -1.7834 -1.6761  2.2077
  752MOL0     H99218   1.218   5.555   8.832 -0.0976  1.2627 -0.2873
  752MOL0     H99219   1.258   5.384   8.781 -0.5375  0.5377  2.2625
  752MOL0     H99220   1.024   5.379   8.666  2.0564 -2.1202 -0.1506
  752MOL0     H99221   1.007   5.550   8.726 -0.7857 -0.1810  0.6090
  752MOL0     H99222   0.989   5.289   8.870  2.4065 -0.5492 -3.5294
  752MOL0     H99223   1.086   5.409   8.944  1.1401 -0.0790 -1.0153
  752MOL0     H99224   0.913   5.567   8.966 -1.1197  0.7669  0.9072
  752MOL0     H99225   0.836   5.408   9.023  4.2710 -1.1311  0.7431
  752MOL0     H99226   0.620   5.592   8.689 -1.5034  0.1412 -0.2215
  752MOL0     H99227   0.389   5.529   8.666  1.1743 -0.3969  0.1173
  752MOL0     H99228   0.154   5.010   8.980  0.3824  2.2945  1.4710
  752MOL0     H99229  -0.028   4.852   8.934 -1.3064  0.5601 -0.1432
  752MOL0     H99230  -0.277   4.895   8.932  1.5622 -2.4734  0.3916
  752MOL0     H99231  -0.236   4.735   8.864  0.1452  0.0287 -2.0938
  752MOL0     H99232  -0.475   4.911   8.825  0.2303 -0.3676 -0.8824
  752MOL0     H99233  -0.473   4.748   8.913  0.7512 -1.5007  0.4025
  752MOL0     H99234  -0.427   4.629   8.713 -1.1393 -0.1710  2.5652
  752MOL0     H99235  -0.399   4.789   8.623  1.2253  0.6476  1.1295
  752MOL0     H99236  -0.648   4.663   8.737  1.7208 -1.8538  1.4550
  752MOL0     H99237  -0.651   4.826   8.675 -0.8098 -0.7540  0.9676
  752MOL0     H99238  -0.597   4.583   8.500 -1.8493 -0.4331 -0.2632
  752MOL0     H99239  -0.536   4.734   8.444  0.3282  1.0858  1.0129
  752MOL0     H99240  -0.750   4.761   8.352 -0.7939  1.2695  0.3667
  752MOL0     H99241  -0.798   4.807   8.506  1.3161  1.4392 -0.2504
  752MOL0     H99242  -0.834   4.534   8.371  0.1160 -0.4805  0.4422
  752MOL0     H99243  -0.832   4.538   8.541 -3.4220 -2.0309  0.2012
  752MOL0     H99244  -1.009   4.692   8.571 -0.6622 -2.0736  0.3568
  752MOL0     H99245  -1.067   4.576   8.452 -1.2568  1.1262 -1.4726
  752MOL0     H99246  -0.161   5.110   8.615  1.4727  0.9490 -0.9328
  752MOL0     H99247   0.027   5.242   8.640  0.3665 -0.5663 -1.9372
  752MOL0     H99248   0.458   5.188   8.943  1.8735 -0.6103 -0.4966
  752MOL0     H99249   0.678   5.278   8.975  1.1771  0.1655 -2.1756
  752MOL0     H99250   2.293   5.644   7.942 -2.7780 -2.4451 -0.2681
  752MOL0     H99251   2.485   5.685   7.783 -0.7848 -1.0104  1.7369
  752MOL0     H99252   2.555   5.393   7.279 -1.7448  0.5643 -3.7943
  752MOL0     H99253   2.702   5.412   7.096 -2.3916 -1.4326  1.6337
  752MOL0     H99254   2.963   5.424   7.029  2.8381 -0.0098 -0.9239
  752MOL0     H99255   3.001   5.502   7.189  2.2180  1.0726 -0.4015
  752MOL0     H99256   3.124   5.680   7.063  3.4055  0.2131  1.2148
  752MOL0     H99257   3.195   5.514   7.077  0.5230 -1.1433 -1.2826
  752MOL0     H99258   3.031   5.584   6.842  1.0261  0.8145 -1.1851
  752MOL0     H99259   3.155   5.456   6.859 -0.9795 -0.6820 -1.8784
  752MOL0     H99260   3.245   5.627   6.722  0.7408 -1.2680  0.4953
  752MOL0     H99261   3.210   5.766   6.827  0.9786  0.1298  3.0609
  752MOL0     H99262   3.546   5.603   7.024  1.5655 -0.4423 -1.2027
  752MOL0     H99263   2.839   5.796   7.237 -0.1938  0.0372  0.5973
  752MOL0     H99264   2.667   5.797   7.412 -0.1983  1.1382 -1.2324
  753MOL0     O99265   0.665  11.020  10.965 -0.3950 -1.1277 -0.5289
  753MOL0     C99266   0.715  11.077  11.070  0.1900  1.0777  0.2705
  753MOL0     O99267   0.676  11.055  11.196 -0.2476 -0.3362 -0.1085
  753MOL0     C99268   0.572  10.969  11.231  0.6322  0.5643 -0.2012
  753MOL0     C99269   0.435  10.976  11.194 -0.4183  0.1199  0.2659
  753MOL0     C99270   0.346  10.883  11.249  0.6054  0.1386  0.7465
  753MOL0     C99271   0.388  10.785  11.344  0.2619 -0.1698  0.0645
  753MOL0     O99272   0.311  10.684  11.401  0.2084  0.1084  0.0785
  753MOL0     C99273   0.166  10.679  11.387 -0.6074  0.4130  0.6074
  753MOL0     C99274   0.126  10.618  11.259 -0.2810  0.1304 -0.3857
  753MOL0     C99275   0.188  10.473  11.235  0.5064 -0.2932 -0.5053
  753MOL0     C99276   0.134  10.399  11.108 -0.3294 -0.5207  0.0619
  753MOL0     C99277   0.186  10.251  11.098  0.0550  0.1130 -0.9831
  753MOL0     C99278   0.141  10.190  10.964  0.8096 -0.2941 -0.4609
  753MOL0     C99279  -0.011  10.175  10.950 -0.0847 -0.3708  0.2838
  753MOL0     C99280  -0.054  10.088  10.825 -0.0763  0.9328  0.1356
  753MOL0     N99281   0.004  10.165  10.706 -0.0881 -0.0961 -0.4611
  753MOL0     C99282   0.127  10.143  10.651 -0.3602 -0.3744 -0.0944
  753MOL0     C99283   0.147  10.247  10.569  0.2475  0.1920  0.3121
  753MOL0     C99284   0.258  10.270  10.470 -0.3967  0.3739 -0.7627
  753MOL0     C99285   0.296  10.422  10.466 -0.6224  0.5116  1.3875
  753MOL0     C99286   0.319  10.489  10.604  0.0503 -0.0291  0.4309
  753MOL0     C99287   0.433  10.433  10.689  0.2111  0.6230 -0.3135
  753MOL0     O99288   0.411  10.483  10.820  0.3387  0.2734 -0.4694
  753MOL0     C99289   0.525  10.492  10.899  0.4716 -0.2630  0.3323
  753MOL0     C99290   0.617  10.387  10.922  0.4449  0.7761 -0.0899
  753MOL0     C99291   0.713  10.389  11.028  0.6300  0.4286  0.5176
  753MOL0     C99292   0.723  10.498  11.116  0.0271 -0.8032  0.9237
  753MOL0     C99293   0.812  10.488  11.232 -0.1582 -0.2098  0.1477
  753MOL0     O99294   0.915  10.410  11.210 -0.1207 -0.4906  0.2805
  753MOL0     C99295   1.003  10.403  11.312  0.5185  0.4770 -0.0232
  753MOL0     C99296   0.974  10.331  11.431 -0.3442  1.4210 -0.1163
  753MOL0     C99297   1.067  10.312  11.533 -0.2677 -1.2126  0.4639
  753MOL0     C99298   1.187  10.383  11.533 -0.4843  1.3169 -0.5559
  753MOL0     O99299   1.257  10.391  11.654 -0.8484 -0.3279 -0.1289
  753MOL0     C99300   1.378  10.476  11.669 -0.4522 -0.9796 -0.5625
  753MOL0     C99301   1.434  10.461  11.805 -0.1293 -0.3524 -0.1734
  753MOL0     C99302   1.554  10.553  11.828 -0.2002 -0.3180 -0.1935
  753MOL0     C99303   1.664  10.498  11.916 -0.9697 -0.0486  0.3257
  753MOL0     C99304   1.633  10.512  12.058 -0.5800  0.4303 -0.7464
  753MOL0     C99305   1.732  10.423  12.138  0.1551  0.5235  0.4825
  753MOL0     C99306   1.706  10.408  12.287 -0.2428 -0.5296  0.1614
  753MOL0     C99307   1.801  10.296  12.352 -1.0908  0.0370  0.9772
  753MOL0    Cl99308   1.745  10.258  12.529  0.0570  0.5004 -0.0123
  753MOL0     C99309   1.218  10.449  11.423 -0.4109  0.6037 -0.0578
  753MOL0     C99310   1.135  10.449  11.310 -0.5857  0.9689 -1.4788
  753MOL0     O99311   0.785  10.550  11.337  0.0913 -0.3614  0.4328
  753MOL0     C99312   0.623  10.591  11.103  0.0208  0.3679  0.4291
  753MOL0     C99313   0.527  10.595  10.995 -0.6294 -0.0158 -0.8068
  753MOL0     N99314   0.043  10.342  10.577  0.1121  0.8207 -0.2687
  753MOL0     N99315  -0.045  10.277  10.656  0.1124 -0.8215  0.2142
  753MOL0     C99316   0.519  10.788  11.391 -0.8838  0.2487  0.1456
  753MOL0     C99317   0.604  10.875  11.336  0.5108  0.0144  0.4023
  753MOL0     C99318   0.831  11.166  11.049 -1.1891 -0.6890  0.1389
  753MOL0     C99319   0.871  11.194  10.921  0.4232  0.2310  0.1869
  753MOL0     C99320   0.993  11.264  10.897 -0.4004 -0.2461 -0.5408
  753MOL0     C99321   1.067  11.326  11.003  0.6664  0.2713 -0.4889
  753MOL0     O99322   1.186  11.386  10.991  0.0836  0.2225 -0.1160
  753MOL0     C99323   1.242  11.392  10.864  0.0682  0.5238  0.3845
  753MOL0     C99324   1.387  11.437  10.872  0.2050  0.5252 -0.0351
  753MOL0     C99325   1.488  11.327  10.926  0.7877 -0.1570  0.2620
  753MOL0     C99326   1.631  11.370  10.977 -0.4381  0.2442 -0.9994
  753MOL0     C99327   1.723  11.374  10.866  0.8433  0.3011  0.2422
  753MOL0     C99328   1.808  11.369  10.781 -0.1412 -0.0460 -0.0742
  753MOL0     C99329   1.008  11.308  11.133  0.9146  0.3406  0.4689
  753MOL0     C99330   0.895  11.228  11.155  0.7248 -0.3352 -0.1114
  753MOL0     H99331   0.410  11.040  11.111  0.6560  1.4601  0.9416
  753MOL0     H99332   0.245  10.878  11.211  0.6778 -0.9208  0.6669
  753MOL0     H99333   0.118  10.778  11.382 -0.1478  0.6418  0.6365
  753MOL0     H99334   0.115  10.622  11.465 -2.7063  0.0796 -0.8873
  753MOL0     H99335   0.167  10.678  11.177 -1.7517  0.5333 -0.8626
  753MOL0     H99336   0.017  10.620  11.257 -0.2685  1.5243 -1.8785
  753MOL0     H99337   0.171  10.412  11.324 -0.2300  1.1502  0.3847
  753MOL0     H99338   0.295  10.476  11.214  0.4564  0.2422 -0.7020
  753MOL0     H99339   0.025  10.397  11.112 -0.3596 -1.8041 -0.8203
  753MOL0     H99340   0.159  10.446  11.012  0.3708 -0.6261  0.1821
  753MOL0     H99341   0.145  10.201  11.187  0.0093  0.4279 -0.8239
  753MOL0     H99342   0.295  10.251  11.091  0.1711  3.0500 -0.5370
  753MOL0     H99343   0.182  10.088  10.963  0.2264 -0.6309  2.2713
  753MOL0     H99344   0.183  10.253  10.885  2.4293 -2.4748 -1.4610
  753MOL0     H99345  -0.052  10.119  11.035  0.9243 -1.7648 -0.1063
  753MOL0     H99346  -0.052  10.275  10.931  0.5922  0.0508  0.9517
  753MOL0     H99347  -0.164  10.086  10.818 -0.1105  1.2941  0.5527
  753MOL0     H99348  -0.005   9.992  10.837  2.0133  2.1575  2.1492
  753MOL0     H99349   0.195  10.060  10.670  0.2214  0.4861  1.8007
  753MOL0     H99350   0.221  10.233  10.374  0.8509 -1.4598 -0.5807
  753MOL0     H99351   0.343  10.204  10.493 -0.3127  1.1902  1.5483
  753MOL0     H99352   0.224  10.472  10.401  1.6359  2.1939  0.0175
  753MOL0     H99353   0.386  10.432  10.405 -1.6891  0.5846 -0.2352
  753MOL0     H99354   0.331  10.597  10.594 -3.0690  0.4504  1.0179
  753MOL0     H99355   0.227  10.482  10.663 -0.4946  0.5047 -0.3389
  753MOL0     H99356   0.534  10.454  10.653  2.3107  1.0691  4.8252
  753MOL0     H99357   0.430  10.324  10.685  2.5082  0.5208 -0.6352
  753MOL0     H99358   0.634  10.311  10.846 -3.1426 -0.4717  0.1752
  753MOL0     H99359   0.774  10.299  11.037  1.4804  0.6443 -2.2643
  753MOL0     H99360   0.879  10.280  11.444 -0.5441  1.2104 -2.0999
  753MOL0     H99361   1.056  10.267  11.632  1.5754  0.5856  1.5537
  753MOL0     H99362   1.344  10.580  11.657 -0.7785 -1.2591 -2.4784
  753MOL0     H99363   1.455  10.446  11.598  0.3813  1.4014 -0.7626
  753MOL0     H99364   1.459  10.356  11.826 -2.1441 -0.7028  0.6011
  753MOL0     H99365   1.356  10.487  11.877  1.1140 -3.5314  2.5871
  753MOL0     H99366   1.522  10.651  11.865  3.4136  1.3789 -1.0860
  753MOL0     H99367   1.604  10.568  11.731  1.9439 -0.9600  0.7648
  753MOL0     H99368   1.686  10.397  11.880  0.4461  0.8345 -1.4083
  753MOL0     H99369   1.754  10.555  11.893 -2.0974  1.2415 -1.0297
  753MOL0     H99370   1.530  10.490  12.086 -0.0931 -1.4322 -0.2681
  753MOL0     H99371   1.649  10.619  12.076  3.3756  0.2305 -2.1540
  753MOL0     H99372   1.833  10.467  12.132  1.6806 -2.8561 -0.9931
  753MOL0     H99373   1.743  10.323  12.097  2.1128  0.0690  1.9262
  753MOL0     H99374   1.705  10.506  12.336  0.3151 -0.2129 -0.4576
  753MOL0     H99375   1.610  10.358  12.301  0.8721 -2.5434  1.1090
  753MOL0     H99376   1.907  10.323  12.353 -0.7883 -0.9377 -0.7656
  753MOL0     H99377   1.808  10.206  12.290 -0.1789 -0.8813  2.3489
  753MOL0     H99378   1.309  10.509  11.421 -1.3326  2.1957 -3.5976
  753MOL0     H99379   1.165  10.524  11.237  0.5234  1.9445 -0.0647
  753MOL0     H99380   0.626  10.674  11.173 -1.1330 -0.0301  0.9839
  753MOL0     H99381   0.446  10.667  11.000 -1.1508 -0.5619 -1.2275
  753MOL0     H99382   0.554  10.726  11.474  2.1912  1.0672 -0.4446
  753MOL0     H99383   0.704  10.875  11.377  0.4377 -2.2962  0.7047
  753MOL0     H99384   0.809  11.151  10.843  0.9330 -0.8615  0.3603
  753MOL0     H99385   1.029  11.255  10.794  4.0330 -2.3589  0.9399
  753MOL0     H99386   1.185  11.456  10.796  1.5787 -0.5460 -2.0155
  753MOL0     H99387   1.240  11.294  10.815 -3.3306 -0.9288  2.9611
  753MOL0     H99388   1.423  11.466  10.774 -2.2230  2.4355 -0.4499
  753MOL0     H99389   1.385  11.519  10.945 -1.6283  0.3565  0.1549
  753MOL0     H99390   1.516  11.273  10.836  3.8146 -2.8510  2.5862
  753MOL0     H99391   1.433  11.267  10.999 -1.8130  0.0824 -1.3855
  753MOL0     H99392   1.629  11.467  11.027  1.4241  2.0938 -4.1451
  753MOL0     H99393   1.669  11.296  11.048  2.2104  1.8259 -0.6645
  753MOL0     H99394   1.876  11.376  10.700  0.8341  1.1885  0.7991
  753MOL0     H99395   1.056  11.363  11.213 -0.5520  4.3703 -1.2098
  753MOL0     H99396   0.850  11.229  11.254  0.8082  1.1271 -0.0729
  754MOL0     O99397   5.379   8.370   7.732  0.5445 -0.5878 -0.2902
  754MOL0     C99398   5.398   8.492   7.731 -0.3583 -0.6411  0.2139
  754MOL0     O99399   5.303   8.588   7.732 -0.0857 -0.2139 -0.7189
  754MOL0     C99400   5.178   8.550   7.763  1.0911  0.2078  0.3181
  754MOL0     C99401   5.129   8.593   7.889 -0.1759  0.4733 -0.0020
  754MOL0     C99402   5.000   8.575   7.926  0.5167 -0.1148 -0.8435
  754MOL0     C99403   4.907   8.523   7.828  0.2467  0.1696  0.2738
  754MOL0     O99404   4.778   8.491   7.849 -0.0634 -0.4968 -0.5813
  754MOL0     C99405   4.729   8.536   7.983  0.8568  0.8698 -0.4067
  754MOL0     C99406   4.589   8.486   8.012 -0.7198 -0.3521  0.0046
  754MOL0     C99407   4.550   8.536   8.148  0.4936  0.2951  0.0425
  754MOL0     C99408   4.403   8.513   8.173 -0.1154  0.0767  0.6001
  754MOL0     C99409   4.373   8.583   8.310  0.2830  0.8202 -0.1332
  754MOL0     C99410   4.253   8.505   8.377  0.3178  0.0813  0.0079
  754MOL0     C99411   4.225   8.564   8.515 -0.1001 -0.1478 -0.3185
  754MOL0     C99412   4.074   8.577   8.538  0.5480  0.0671  0.6162
  754MOL0     N99413   4.023   8.437   8.562  0.0080 -0.5413 -1.0986
  754MOL0     C99414   3.958   8.364   8.469 -0.6594 -0.2579  0.8033
  754MOL0     C99415   3.962   8.235   8.520 -0.1710 -0.4219 -0.1525
  754MOL0     C99416   3.910   8.112   8.448 -0.5856  0.6976 -0.4412
  754MOL0     C99417   3.755   8.105   8.453  0.2360 -0.6423  1.0423
  754MOL0     C99418   3.676   8.189   8.353  0.3124  0.3511 -0.8799
  754MOL0     C99419   3.698   8.160   8.202 -1.4185 -0.5763  0.3263
  754MOL0     O99420   3.828   8.206   8.152  0.1017  0.0019 -0.3370
  754MOL0     C99421   3.853   8.337   8.127 -0.0398 -0.7552  0.2838
  754MOL0     C99422   3.987   8.365   8.102 -0.0905 -0.2354 -0.0977
  754MOL0     C99423   4.033   8.493   8.052 -0.3374  0.2916  0.5974
  754MOL0     C99424   3.934   8.598   8.043  0.0366  0.0595 -0.5205
  754MOL0     C99425   3.962   8.736   8.002  0.1639 -0.3952  0.0197
  754MOL0     O99426   3.882   8.835   8.045  0.1780  0.3086 -0.9337
  754MOL0     C99427   3.904   8.969   8.011 -0.4506  0.4773  0.7065
  754MOL0     C99428   3.796   9.053   7.990 -0.0675  0.1595 -0.1617
  754MOL0     C99429   3.814   9.193   7.959  0.6712  0.0343 -0.6244
  754MOL0     C99430   3.942   9.240   7.943 -0.2192  0.1360 -0.1892
  754MOL0     O99431   3.959   9.371   7.902 -0.4798  0.1734  0.3808
  754MOL0     C99432   3.922   9.402   7.767  0.0058 -0.6280  0.0797
  754MOL0     C99433   4.053   9.394   7.680  0.1370  0.1887  0.3540
  754MOL0     C99434   4.159   9.487   7.736 -0.1001 -0.1925  0.4399
  754MOL0     C99435   4.286   9.486   7.653  0.5392  0.7878 -0.3131
  754MOL0     C99436   4.392   9.387   7.708 -0.4724 -0.8066  1.0378
  754MOL0     C99437   4.516   9.392   7.622  0.6938 -0.6221 -0.0273
  754MOL0     C99438   4.584   9.532   7.609 -0.8412 -0.8310  0.2782
  754MOL0     C99439   4.716   9.533   7.539  0.1425  0.3636  0.1298
  754MOL0    Cl99440   4.793   9.688   7.549 -0.2442  0.0803 -0.5111
  754MOL0     C99441   4.057   9.160   7.968 -0.2817  0.5973 -0.3850
  754MOL0     C99442   4.031   9.021   8.008  0.3927 -0.0007  0.1278
  754MOL0     O99443   4.054   8.751   7.916 -0.0207 -0.0428 -0.0824
  754MOL0     C99444   3.794   8.563   8.066  0.2511  0.2422  0.2379
  754MOL0     C99445   3.760   8.439   8.118  0.0435  0.4423 -0.0751
  754MOL0     N99446   4.026   8.233   8.641  0.0034  0.7682  0.4961
  754MOL0     N99447   4.052   8.354   8.665 -0.5546  0.1689 -0.7210
  754MOL0     C99448   4.953   8.484   7.700  0.7886  0.3594  0.3658
  754MOL0     C99449   5.086   8.500   7.661  0.2212  0.1586 -0.4118
  754MOL0     C99450   5.543   8.534   7.699 -0.1304 -0.4046 -0.5857
  754MOL0     C99451   5.641   8.443   7.646  1.1498  0.6147 -0.8030
  754MOL0     C99452   5.758   8.485   7.602 -0.0390 -0.3613 -0.7008
  754MOL0     C99453   5.797   8.615   7.608 -0.2954 -0.1877  0.2328
  754MOL0     O99454   5.921   8.648   7.564 -0.2111  0.9858 -0.2133
  754MOL0     C99455   6.006   8.738   7.636 -0.5499  0.1473  0.7414
  754MOL0     C99456   6.139   8.674   7.644  0.4328  0.5953  0.6419
  754MOL0     C99457   6.232   8.757   7.727 -0.2983  0.3549 -1.2551
  754MOL0     C99458   6.370   8.695   7.747  0.1470 -0.3999  0.1891
  754MOL0     C99459   6.464   8.769   7.820  0.0000 -0.3342  0.8065
  754MOL0     C99460   6.544   8.833   7.880 -0.1298  0.1079 -0.4965
  754MOL0     C99461   5.710   8.710   7.663 -0.4397  1.1288  1.1429
  754MOL0     C99462   5.584   8.672   7.712 -0.7561 -0.4596 -0.2887
  754MOL0     H99463   5.204   8.633   7.956  1.8367  0.6207 -2.2227
  754MOL0     H99464   4.983   8.614   8.026  3.5261  2.2170 -1.1068
  754MOL0     H99465   4.741   8.645   7.989  0.4071  0.8569  1.1259
  754MOL0     H99466   4.790   8.505   8.069 -1.2845  2.9453  2.0145
  754MOL0     H99467   4.593   8.377   8.019  1.8289 -0.2375  1.8282
  754MOL0     H99468   4.532   8.521   7.926 -2.0530 -2.1570  0.1075
  754MOL0     H99469   4.561   8.645   8.153 -0.1966  0.4725 -1.6764
  754MOL0     H99470   4.619   8.499   8.224  1.3565  0.3967 -0.6753
  754MOL0     H99471   4.348   8.562   8.092 -3.7015 -2.3973  1.2824
  754MOL0     H99472   4.386   8.405   8.170  1.8731 -0.2551 -1.2792
  754MOL0     H99473   4.351   8.689   8.296  1.5412  0.9814 -1.0901
  754MOL0     H99474   4.456   8.581   8.382 -0.7974  1.9235  1.1760
  754MOL0     H99475   4.276   8.399   8.385 -1.2229 -0.3607 -0.9158
  754MOL0     H99476   4.159   8.520   8.322 -0.1736  1.7211  1.2006
  754MOL0     H99477   4.262   8.506   8.600 -0.2086 -1.0248 -0.8557
  754MOL0     H99478   4.259   8.668   8.521  1.2078 -0.6375  2.1612
  754MOL0     H99479   4.018   8.627   8.458 -1.3646 -1.8437  0.6640
  754MOL0     H99480   4.062   8.625   8.636 -1.1113 -1.9543  1.4590
  754MOL0     H99481   3.923   8.393   8.370  0.7666 -1.9320 -0.2655
  754MOL0     H99482   3.951   8.019   8.490  1.7258  1.8412  0.0263
  754MOL0     H99483   3.956   8.112   8.349  0.7330  1.1890  0.1506
  754MOL0     H99484   3.724   8.133   8.554 -3.0559 -1.6590  0.4317
  754MOL0     H99485   3.726   8.000   8.442 -0.6086 -0.1732 -2.4429
  754MOL0     H99486   3.571   8.172   8.379  1.1036 -2.0117  1.2860
  754MOL0     H99487   3.705   8.292   8.371 -2.5866  1.2952 -1.1605
  754MOL0     H99488   3.617   8.206   8.144 -0.6435 -1.1709 -1.2729
  754MOL0     H99489   3.690   8.052   8.185 -0.4795 -0.9956  2.3066
  754MOL0     H99490   4.056   8.282   8.101 -0.6048 -0.6749 -0.5672
  754MOL0     H99491   4.130   8.513   8.007 -0.2266  1.2041  1.2145
  754MOL0     H99492   3.697   9.009   8.001 -1.0239  1.0628 -3.8564
  754MOL0     H99493   3.728   9.259   7.956 -1.2463 -2.3069 -3.6769
  754MOL0     H99494   3.894   9.508   7.769  1.0725 -0.3448  2.0210
  754MOL0     H99495   3.841   9.341   7.726 -1.2018 -0.3683  1.9842
  754MOL0     H99496   4.028   9.412   7.575 -1.7533 -1.1664  0.5279
  754MOL0     H99497   4.095   9.293   7.684 -0.0858  0.1493  2.5087
  754MOL0     H99498   4.168   9.481   7.845 -0.5966  1.9004  0.6496
  754MOL0     H99499   4.128   9.592   7.739 -4.5178 -1.2547 -1.0199
  754MOL0     H99500   4.255   9.450   7.555 -2.5919  0.2251  0.7589
  754MOL0     H99501   4.323   9.588   7.640 -1.7893  2.0583  1.9962
  754MOL0     H99502   4.342   9.291   7.726  0.5476 -0.9137  3.9588
  754MOL0     H99503   4.433   9.413   7.807 -0.3357  0.7854  0.5770
  754MOL0     H99504   4.481   9.362   7.523  0.1634 -1.5064  0.4233
  754MOL0     H99505   4.594   9.320   7.647 -0.1561 -1.8192 -0.6916
  754MOL0     H99506   4.519   9.603   7.557 -1.7852 -2.2158 -0.5187
  754MOL0     H99507   4.596   9.580   7.706  0.0605 -0.1677 -0.1412
  754MOL0     H99508   4.703   9.499   7.436  0.9300 -1.7042  0.6681
  754MOL0     H99509   4.780   9.461   7.592 -0.2450 -1.4415 -1.7394
  754MOL0     H99510   4.157   9.201   7.957  0.0616 -0.2864 -0.6692
  754MOL0     H99511   4.118   8.968   8.046  0.5658  1.9320  2.7511
  754MOL0     H99512   3.719   8.641   8.058 -1.5145 -1.3823  0.5358
  754MOL0     H99513   3.657   8.418   8.146 -0.9782  1.4113 -2.8247
  754MOL0     H99514   4.884   8.435   7.632  1.5756 -0.5442  0.2066
  754MOL0     H99515   5.117   8.485   7.558  0.0657  1.8364 -0.7310
  754MOL0     H99516   5.605   8.341   7.639 -1.5321  1.2080  2.2221
  754MOL0     H99517   5.827   8.421   7.547  3.7984  3.9760 -1.6341
  754MOL0     H99518   5.963   8.758   7.735 -1.4938  0.9536  0.1885
  754MOL0     H99519   6.015   8.829   7.576  1.1125 -0.8050 -0.5126
  754MOL0     H99520   6.119   8.571   7.677  0.3703  0.7238  1.0182
  754MOL0     H99521   6.192   8.663   7.550  2.0088 -0.4380  1.6049
  754MOL0     H99522   6.186   8.757   7.826 -0.3517 -3.9003 -1.0965
  754MOL0     H99523   6.224   8.859   7.688 -2.6784  0.0219 -1.8219
  754MOL0     H99524   6.371   8.596   7.794  2.3555 -0.4702  0.0991
  754MOL0     H99525   6.403   8.679   7.644 -1.1573  1.7289 -0.6108
  754MOL0     H99526   6.616   8.881   7.944 -0.3605  0.3977 -0.4546
  754MOL0     H99527   5.750   8.810   7.669 -0.4133  1.0871  6.2884
  754MOL0     H99528   5.521   8.754   7.745  0.8547  0.7667 -0.1923
  755MOL0     O99529   3.366   3.812  10.834  0.5060 -0.4702 -0.1759
  755MOL0     C99530   3.442   3.780  10.929  0.0226  0.1701  0.7613
  755MOL0     O99531   3.406   3.765  11.058  0.9135  0.9889 -0.1712
  755MOL0     C99532   3.278   3.767  11.096  0.2569  0.0948  0.0552
  755MOL0     C99533   3.224   3.669  11.179 -0.1474 -0.3234  0.7626
  755MOL0     C99534   3.085   3.672  11.212  0.5906  0.1087 -0.9913
  755MOL0     C99535   3.005   3.783  11.180  0.0652  0.0312 -0.5423
  755MOL0     O99536   2.880   3.783  11.232 -0.5624 -0.1589 -0.2442
  755MOL0     C99537   2.786   3.868  11.165 -0.1099  0.4717 -0.5422
  755MOL0     C99538   2.645   3.864  11.226  0.2670 -0.4687  0.8820
  755MOL0     C99539   2.652   3.885  11.375  0.8712  0.6887  1.0237
  755MOL0     C99540   2.520   3.839  11.441 -0.6282  0.6019 -0.6956
  755MOL0     C99541   2.540   3.850  11.591  0.5726 -0.2802 -0.4441
  755MOL0     C99542   2.411   3.817  11.663 -0.6635 -0.6544  1.0381
  755MOL0     C99543   2.296   3.906  11.643  0.4997  0.4746  0.3711
  755MOL0     C99544   2.201   3.889  11.764  0.4727 -0.7308  0.3202
  755MOL0     N99545   2.079   3.979  11.741 -0.6274 -0.4510 -0.0614
  755MOL0     C99546   1.954   3.931  11.708 -0.4695 -0.4517  0.3582
  755MOL0     C99547   1.882   4.050  11.687  0.0416 -0.1512 -0.2880
  755MOL0     C99548   1.752   4.064  11.611 -0.5444 -0.4138 -0.2990
  755MOL0     C99549   1.776   4.065  11.463 -0.1103  1.4213  0.9586
  755MOL0     C99550   1.646   4.085  11.384  0.1223 -0.2129  0.0721
  755MOL0     C99551   1.545   3.973  11.410  0.3779 -0.1212  0.5805
  755MOL0     O99552   1.449   3.969  11.303  0.8686 -0.3931  0.0766
  755MOL0     C99553   1.320   3.947  11.347 -0.0302  0.4490 -0.3420
  755MOL0     C99554   1.244   3.836  11.310  0.3660  0.5569  0.0260
  755MOL0     C99555   1.106   3.822  11.341  0.3992  0.1093  0.0405
  755MOL0     C99556   1.043   3.917  11.424 -0.1988  0.5062  0.5307
  755MOL0     C99557   0.891   3.901  11.456  0.8843  0.2281 -1.0286
  755MOL0     O99558   0.824   3.790  11.418  0.6035  0.2791  0.2392
  755MOL0     C99559   0.684   3.782  11.417  0.8669 -0.5762  0.6622
  755MOL0     C99560   0.595   3.835  11.518  0.8485  0.3022  0.0121
  755MOL0     C99561   0.456   3.805  11.519  0.9688 -0.5855 -0.1686
  755MOL0     C99562   0.399   3.733  11.412 -0.2107 -0.1230 -0.3200
  755MOL0     O99563   0.268   3.710  11.395 -0.1241  0.0022  0.3955
  755MOL0     C99564   0.183   3.708  11.505 -0.2456  0.4160  0.0529
  755MOL0     C99565   0.044   3.655  11.456  0.1461  0.1132  0.1164
  755MOL0     C99566  -0.037   3.633  11.581  0.4855  0.0316 -0.8099
  755MOL0     C99567  -0.178   3.586  11.554  0.3338 -0.6701  0.8031
  755MOL0     C99568  -0.272   3.556  11.674 -0.4700  0.2123 -0.5329
  755MOL0     C99569  -0.397   3.476  11.627 -0.0619  0.0629  0.1895
  755MOL0     C99570  -0.487   3.430  11.740 -0.1855  0.3327  0.2385
  755MOL0     C99571  -0.609   3.368  11.682 -0.0228  0.3688 -0.1532
  755MOL0    Cl99572  -0.732   3.335  11.807 -0.1433  0.2926  0.1870
  755MOL0     C99573   0.485   3.694  11.310  0.4602  0.3134  0.1339
  755MOL0     C99574   0.622   3.713  11.315  0.1155 -0.2437 -0.0534
  755MOL0     O99575   0.854   3.995  11.530  0.1103  0.3709 -0.2833
  755MOL0     C99576   1.121   4.031  11.453 -0.3549 -0.2415  0.1129
  755MOL0     C99577   1.256   4.043  11.416 -0.9003 -1.2167 -0.8540
  755MOL0     N99578   1.964   4.157  11.713  0.2200  0.5958  0.5097
  755MOL0     N99579   2.080   4.111  11.758  0.1899  0.4865  0.7091
  755MOL0     C99580   3.065   3.889  11.108  0.1268 -0.1915  0.0817
  755MOL0     C99581   3.199   3.875  11.068 -0.2614 -0.0760 -0.3093
  755MOL0     C99582   3.586   3.781  10.890 -0.1089  0.4411  0.2751
  755MOL0     C99583   3.630   3.771  10.757  0.0991  0.0250 -0.0488
  755MOL0     C99584   3.766   3.787  10.725  0.9420 -0.6060 -0.5891
  755MOL0     C99585   3.855   3.815  10.826 -0.7076 -1.0883 -0.7422
  755MOL0     O99586   3.990   3.808  10.788  0.0846  0.2251 -0.1807
  755MOL0     C99587   4.083   3.771  10.888 -0.8924  0.1197 -0.5337
  755MOL0     C99588   4.091   3.619  10.926 -0.7396  0.5720  0.0993
  755MOL0     C99589   4.176   3.524  10.836  0.2691 -0.5177 -0.6844
  755MOL0     C99590   4.112   3.521  10.698 -0.4314 -0.9114  0.1384
  755MOL0     C99591   4.159   3.423  10.601 -0.3055 -0.4803 -0.4047
  755MOL0     C99592   4.225   3.364  10.516  0.7829  0.6010  0.2442
  755MOL0     C99593   3.813   3.827  10.957  0.6336 -0.6608  0.6228
  755MOL0     C99594   3.677   3.809  10.989 -0.4742  0.0733 -0.3528
  755MOL0     H99595   3.290   3.590  11.213 -1.3580 -1.2313  1.0881
  755MOL0     H99596   3.050   3.600  11.285  1.0799 -0.2164 -1.0698
  755MOL0     H99597   2.790   3.823  11.065  4.0314 -3.6440  1.1171
  755MOL0     H99598   2.811   3.974  11.164  0.9122  0.3432  2.2594
  755MOL0     H99599   2.614   3.760  11.215  0.5545 -0.8189  2.9785
  755MOL0     H99600   2.577   3.928  11.170 -2.9435 -2.5294  2.1653
  755MOL0     H99601   2.663   3.990  11.401 -0.5918  1.1249  0.0536
  755MOL0     H99602   2.737   3.830  11.417  0.9343 -0.8569 -0.9354
  755MOL0     H99603   2.433   3.896  11.407 -2.5182 -1.2887  0.7009
  755MOL0     H99604   2.503   3.738  11.405  0.2230  1.2525 -3.0687
  755MOL0     H99605   2.576   3.950  11.615 -0.6533  0.3225 -1.0236
  755MOL0     H99606   2.606   3.773  11.631 -0.8978 -0.2667  2.2375
  755MOL0     H99607   2.454   3.822  11.763  1.3745  0.3500  0.1514
  755MOL0     H99608   2.375   3.718  11.632 -1.9013  0.7066 -2.4488
  755MOL0     H99609   2.307   4.013  11.622  2.0501  0.9559  3.1587
  755MOL0     H99610   2.234   3.867  11.562  0.1658  0.5383  0.5943
  755MOL0     H99611   2.255   3.919  11.855  1.4033 -0.5761 -0.2776
  755MOL0     H99612   2.169   3.785  11.779  0.4528 -0.3260  4.0039
  755MOL0     H99613   1.918   3.833  11.677 -1.1535  0.4084 -1.7710
  755MOL0     H99614   1.714   4.160  11.648  3.3026  0.6953  1.2956
  755MOL0     H99615   1.698   3.973  11.637  0.1966 -1.2557 -1.5994
  755MOL0     H99616   1.819   3.969  11.435  1.1223  2.5790 -1.4401
  755MOL0     H99617   1.849   4.140  11.429 -0.7535  2.9667  2.7584
  755MOL0     H99618   1.608   4.183  11.414 -0.7938 -1.2492  2.5327
  755MOL0     H99619   1.670   4.079  11.277  3.4066  2.1678  0.5105
  755MOL0     H99620   1.497   3.996  11.506  1.0504  3.6316  0.2039
  755MOL0     H99621   1.593   3.876  11.418  0.5492 -0.2995 -1.8481
  755MOL0     H99622   1.290   3.756  11.252 -2.5661 -0.7677 -0.6609
  755MOL0     H99623   1.057   3.733  11.302 -0.3520  0.8933 -0.8307
  755MOL0     H99624   0.637   3.904  11.590  1.3728 -0.2764  0.2714
  755MOL0     H99625   0.390   3.842  11.597  1.9179  3.2431 -0.9825
  755MOL0     H99626   0.171   3.808  11.546  3.1809  2.0706 -2.4858
  755MOL0     H99627   0.225   3.633  11.573 -2.2132 -1.7489 -0.9898
  755MOL0     H99628   0.056   3.557  11.410 -1.6826  0.0310 -0.2334
  755MOL0     H99629  -0.005   3.710  11.375  0.5667 -2.1563 -1.7695
  755MOL0     H99630  -0.037   3.730  11.631  0.8635 -0.6732  0.6347
  755MOL0     H99631   0.014   3.559  11.644  0.7480  0.8386 -0.0610
  755MOL0     H99632  -0.236   3.660  11.498 -1.7227 -1.5828  1.6421
  755MOL0     H99633  -0.173   3.497  11.490  5.5124  0.5515 -0.9823
  755MOL0     H99634  -0.289   3.649  11.727  3.0410 -0.2128  1.7130
  755MOL0     H99635  -0.215   3.494  11.744 -0.4260  1.9735  1.0691
  755MOL0     H99636  -0.377   3.389  11.563 -2.4810 -0.5223  0.1487
  755MOL0     H99637  -0.455   3.536  11.556 -2.7589 -2.0741  0.4509
  755MOL0     H99638  -0.434   3.361  11.806  0.2254  0.6328  0.2275
  755MOL0     H99639  -0.515   3.517  11.800  1.5514  0.2667  1.2280
  755MOL0     H99640  -0.590   3.281  11.620  3.2770  1.9908 -1.6730
  755MOL0     H99641  -0.647   3.452  11.623  0.5147  1.3976  0.9001
  755MOL0     H99642   0.454   3.638  11.222  4.7933 -3.3626  0.5937
  755MOL0     H99643   0.693   3.664  11.248 -0.5587 -6.1371  2.8733
  755MOL0     H99644   1.081   4.121  11.500 -0.0109  0.2709 -0.5484
  755MOL0     H99645   1.315   4.125  11.457 -0.1609 -2.8011  1.5046
  755MOL0     H99646   3.013   3.984  11.103  3.1077  1.6476  0.9552
  755MOL0     H99647   3.239   3.966  11.024 -0.2619  0.3920  0.6345
  755MOL0     H99648   3.559   3.751  10.678 -0.0037 -2.4565  0.6178
  755MOL0     H99649   3.804   3.772  10.625 -1.0903 -0.1203 -1.4931
  755MOL0     H99650   4.059   3.827  10.979 -0.4855 -1.8869  0.8809
  755MOL0     H99651   4.179   3.799  10.844 -1.5494 -0.0151 -2.1192
  755MOL0     H99652   4.144   3.622  11.022  4.6623  3.7254 -2.5183
  755MOL0     H99653   3.991   3.575  10.933  0.6737 -2.8480  1.1479
  755MOL0     H99654   4.186   3.423  10.878  2.8275  0.3882  1.1522
  755MOL0     H99655   4.275   3.567  10.817  0.5734 -0.5433  0.7339
  755MOL0     H99656   4.005   3.516  10.719  0.0084  1.2197  3.6857
  755MOL0     H99657   4.127   3.623  10.660 -0.0203 -1.3962 -1.0501
  755MOL0     H99658   4.281   3.318  10.437 -2.0203 -2.4972 -0.1360
  755MOL0     H99659   3.875   3.847  11.043  1.5151  0.0470 -0.1422
  755MOL0     H99660   3.633   3.816  11.087 -0.8996 -1.3497 -0.4173
  756MOL0     O99661  10.931   1.738   5.350  0.5914  1.1401  0.7702
  756MOL0     C99662  10.889   1.639   5.286  0.0062 -1.1986  0.3087
  756MOL0     O99663  10.757   1.600   5.286 -0.0956 -0.2478 -0.0672
  756MOL0     C99664  10.676   1.683   5.347 -0.8680 -0.0409 -0.2276
  756MOL0     C99665  10.588   1.761   5.276 -0.9249 -0.5518  1.1842
  756MOL0     C99666  10.519   1.868   5.334 -0.0515 -0.2804 -1.1905
  756MOL0     C99667  10.521   1.881   5.475  0.6055  0.0377 -0.0568
  756MOL0     O99668  10.441   1.967   5.538  0.5577 -0.0814  0.3473
  756MOL0     C99669  10.418   1.978   5.678  0.7348 -0.0373  0.6209
  756MOL0     C99670  10.320   2.084   5.711 -0.2940 -0.8006 -0.3116
  756MOL0     C99671  10.369   2.222   5.673  0.0592 -1.3314  0.7434
  756MOL0     C99672  10.272   2.330   5.727 -0.2859  0.3277 -0.0453
  756MOL0     C99673  10.333   2.468   5.736 -0.6205 -1.2414  0.0547
  756MOL0     C99674  10.251   2.559   5.819  0.3545  0.0527 -0.0234
  756MOL0     C99675  10.142   2.634   5.741  0.5724  0.5503 -0.2929
  756MOL0     C99676  10.036   2.707   5.821  0.8234  0.1281  0.3750
  756MOL0     N99677  10.068   2.825   5.893  0.2821  0.4520  0.0691
  756MOL0     C99678  10.137   2.831   6.012 -0.1546  0.5601  0.2815
  756MOL0     C99679  10.116   2.957   6.062 -0.5697  0.7803 -0.0684
  756MOL0     C99680  10.140   3.002   6.202 -0.1460 -0.7462  0.0231
  756MOL0     C99681  10.044   3.102   6.252 -0.5149 -0.5950 -0.4518
  756MOL0     C99682   9.900   3.068   6.255 -0.0681 -0.3374  0.3003
  756MOL0     C99683   9.865   2.943   6.328 -0.4547 -0.1807 -0.1981
  756MOL0     O99684   9.735   2.911   6.285 -0.4244  0.1978 -0.5531
  756MOL0     C99685   9.627   2.972   6.342  0.0347  0.7213 -0.5611
  756MOL0     C99686   9.631   3.047   6.465 -0.1668 -0.1401  0.9260
  756MOL0     C99687   9.514   3.098   6.520  0.0972 -0.1327 -0.2941
  756MOL0     C99688   9.387   3.061   6.467  0.5788 -0.9254  0.4345
  756MOL0     C99689   9.265   3.109   6.530 -0.8378  0.7451  0.4229
  756MOL0     O99690   9.143   3.061   6.469  0.7971 -0.5153  0.2559
  756MOL0     C99691   9.024   3.122   6.483 -0.6560 -0.4637 -0.4632
  756MOL0     C99692   8.929   3.074   6.566 -0.0676 -0.0041 -0.0246
  756MOL0     C99693   8.806   3.143   6.592  0.4645 -0.6018 -0.0622
  756MOL0     C99694   8.783   3.263   6.517  0.3516  0.0647  0.0791
  756MOL0     O99695   8.662   3.335   6.520  0.4422 -0.2070  0.4029
  756MOL0     C99696   8.552   3.270   6.577  1.0917  0.9602  0.6097
  756MOL0     C99697   8.428   3.340   6.550 -0.2200 -0.4630 -1.0465
  756MOL0     C99698   8.306   3.297   6.622 -0.4895  0.5504  0.4905
  756MOL0     C99699   8.171   3.376   6.585 -0.9701  0.0856 -0.3594
  756MOL0     C99700   8.051   3.327   6.653  0.3159  0.7492  0.0720
  756MOL0     C99701   7.999   3.179   6.609 -0.0199 -0.7097 -0.8377
  756MOL0     C99702   7.863   3.148   6.671 -0.4690  0.0312 -0.0237
  756MOL0     C99703   7.738   3.231   6.614  0.4108  0.7861  0.3127
  756MOL0    Cl99704   7.586   3.133   6.593 -0.0064  0.1290  0.0703
  756MOL0     C99705   8.883   3.312   6.437 -0.0712 -0.2134  1.2331
  756MOL0     C99706   8.999   3.243   6.413 -0.0855 -0.2873 -0.0293
  756MOL0     O99707   9.276   3.191   6.619  0.8938 -0.2662 -0.6018
  756MOL0     C99708   9.379   2.979   6.354  0.5934  0.8631 -1.0885
  756MOL0     C99709   9.500   2.932   6.294  1.0093  0.1445  0.1568
  756MOL0     N99710  10.030   3.019   5.978  0.1225  0.2181 -0.1836
  756MOL0     N99711  10.007   2.950   5.872  0.3874 -0.0506  0.6601
  756MOL0     C99712  10.606   1.802   5.550  0.5902  0.7403 -0.2429
  756MOL0     C99713  10.685   1.705   5.485  0.3334  0.5571 -0.4867
  756MOL0     C99714  10.992   1.535   5.237  0.4435 -0.0401 -0.1751
  756MOL0     C99715  10.950   1.410   5.200 -0.0757  0.3772 -0.3369
  756MOL0     C99716  11.037   1.327   5.137  0.4619  0.2397  0.3415
  756MOL0     C99717  11.175   1.346   5.135  0.9171 -0.4180 -0.8126
  756MOL0     O99718  11.276   1.253   5.112  0.4989 -0.4655 -0.1780
  756MOL0     C99719  11.237   1.136   5.047 -0.4869  0.0840  0.4750
  756MOL0     C99720  11.356   1.046   5.021 -0.2958  0.0246  0.5207
  756MOL0     C99721  11.400   1.049   4.876 -0.4611 -0.0767  0.6030
  756MOL0     C99722  11.499   1.173   4.840 -0.1486 -0.0258  0.9926
  756MOL0     C99723  11.542   1.178   4.697  0.6468  0.5063 -0.6587
  756MOL0     C99724  11.589   1.189   4.588 -0.5712 -0.4485 -0.8465
  756MOL0     C99725  11.219   1.472   5.193 -0.2991  0.2636 -0.0166
  756MOL0     C99726  11.124   1.566   5.236  0.1844  0.4879  0.3247
  756MOL0     H99727  10.589   1.753   5.168 -0.1879  1.8853  0.9562
  756MOL0     H99728  10.454   1.930   5.272  0.0718  2.0629  0.8513
  756MOL0     H99729  10.507   2.005   5.736 -0.0624  0.9501  1.4300
  756MOL0     H99730  10.378   1.879   5.702  0.2702 -0.4066 -1.5238
  756MOL0     H99731  10.302   2.091   5.819  0.8351  0.8895 -0.2014
  756MOL0     H99732  10.224   2.072   5.660  1.0787  0.7377 -3.4996
  756MOL0     H99733  10.365   2.227   5.564  1.8146  1.0226  0.7067
  756MOL0     H99734  10.473   2.239   5.703 -0.0695  1.7621 -0.1975
  756MOL0     H99735  10.186   2.335   5.660  0.2035  0.8826 -0.6534
  756MOL0     H99736  10.235   2.288   5.821 -1.3759 -2.3620 -1.5569
  756MOL0     H99737  10.341   2.513   5.636  2.4252  1.7692  1.4590
  756MOL0     H99738  10.429   2.454   5.786 -2.3407  1.9366  4.9742
  756MOL0     H99739  10.316   2.628   5.875 -1.1881  0.4380  1.3598
  756MOL0     H99740  10.206   2.493   5.894 -0.3507  0.3545 -0.1744
  756MOL0     H99741  10.191   2.699   5.668  2.1929 -2.6964 -2.3484
  756MOL0     H99742  10.090   2.558   5.682 -1.9551  2.1994 -0.3197
  756MOL0     H99743  10.005   2.636   5.898 -0.2358  1.3158  1.0670
  756MOL0     H99744   9.941   2.725   5.772 -0.1119  2.5868  2.8200
  756MOL0     H99745  10.193   2.756   6.067  2.3959  4.3164  3.3809
  756MOL0     H99746  10.233   3.058   6.198 -0.6287  0.0328 -2.3437
  756MOL0     H99747  10.163   2.922   6.273  0.5661  1.8144  2.8742
  756MOL0     H99748  10.058   3.199   6.204  0.2206 -0.6197 -0.3032
  756MOL0     H99749  10.072   3.119   6.357  1.6451 -0.9817 -0.9164
  756MOL0     H99750   9.850   3.159   6.291  2.1484  2.4322 -2.9541
  756MOL0     H99751   9.857   3.056   6.156 -0.9079  0.8743  0.4930
  756MOL0     H99752   9.870   2.943   6.437 -0.5155 -1.4610 -0.1807
  756MOL0     H99753   9.929   2.858   6.303 -0.8282 -1.5826  3.1414
  756MOL0     H99754   9.730   3.069   6.504  0.1090 -0.6908  0.5619
  756MOL0     H99755   9.524   3.165   6.605 -1.7820 -0.2552  0.0694
  756MOL0     H99756   8.955   2.977   6.607 -1.1728  0.0267  0.7832
  756MOL0     H99757   8.741   3.100   6.667 -0.4410 -1.2487 -1.1941
  756MOL0     H99758   8.569   3.261   6.685  3.5379 -1.2462  0.1292
  756MOL0     H99759   8.556   3.166   6.544 -0.0535 -0.4564  4.3915
  756MOL0     H99760   8.410   3.335   6.442  1.8586  0.7115 -1.5178
  756MOL0     H99761   8.446   3.445   6.578  3.2576 -1.6778  2.0846
  756MOL0     H99762   8.321   3.310   6.729 -0.0863 -1.0890  0.6690
  756MOL0     H99763   8.304   3.189   6.604  1.6251  0.6078 -0.3621
  756MOL0     H99764   8.195   3.476   6.621  6.8539 -1.2953 -0.0304
  756MOL0     H99765   8.152   3.375   6.477 -1.2123 -1.0410 -0.3212
  756MOL0     H99766   7.969   3.396   6.631 -0.4335 -0.6989 -2.1072
  756MOL0     H99767   8.070   3.329   6.760  2.4764  3.1359 -0.2621
  756MOL0     H99768   8.066   3.102   6.646  1.4419 -0.4034 -2.7106
  756MOL0     H99769   7.982   3.172   6.501 -2.3276 -0.8369 -0.5327
  756MOL0     H99770   7.852   3.040   6.657  2.1206 -0.2776 -0.1404
  756MOL0     H99771   7.868   3.163   6.779 -1.9352  0.6896 -0.0192
  756MOL0     H99772   7.765   3.267   6.515  4.3888 -3.0604 -0.3201
  756MOL0     H99773   7.713   3.313   6.681 -3.4030  1.4390 -1.6046
  756MOL0     H99774   8.869   3.405   6.382  0.4845 -0.4155  0.7415
  756MOL0     H99775   9.072   3.285   6.345 -1.7657  1.1759 -1.0242
  756MOL0     H99776   9.287   2.965   6.298 -1.0848  3.1878  0.8392
  756MOL0     H99777   9.506   2.862   6.212 -0.6822  0.3609 -0.1923
  756MOL0     H99778  10.611   1.813   5.657  0.2417  1.6499 -0.3104
  756MOL0     H99779  10.752   1.638   5.538  1.1061  2.2566  0.7964
  756MOL0     H99780  10.846   1.379   5.202 -0.6942  2.3769  0.8167
  756MOL0     H99781  10.998   1.237   5.092 -0.3467  0.0787  1.3318
  756MOL0     H99782  11.202   1.167   4.948  1.3241 -1.8073 -0.8453
  756MOL0     H99783  11.159   1.081   5.099 -1.9688  0.2596 -1.4621
  756MOL0     H99784  11.444   1.071   5.081  0.4938 -2.8996  0.7368
  756MOL0     H99785  11.330   0.942   5.043  2.1572 -0.8545 -0.4490
  756MOL0     H99786  11.322   1.034   4.801  2.4732 -0.8354 -2.6220
  756MOL0     H99787  11.461   0.957   4.872  2.3538  1.6947 -0.5462
  756MOL0     H99788  11.450   1.265   4.874  0.2857  1.4904 -2.1466
  756MOL0     H99789  11.593   1.165   4.896  1.8938  3.5632 -1.4969
  756MOL0     H99790  11.633   1.215   4.494 -1.9473  1.4743 -1.0029
  756MOL0     H99791  11.325   1.492   5.207 -0.7175  1.4447  1.8132
  756MOL0     H99792  11.162   1.666   5.251 -0.1391  0.6273  0.2325
  757MOL0     O99793   3.650   0.895   2.561 -0.6964  0.3041  0.0777
  757MOL0     C99794   3.698   0.812   2.476  0.3119  0.0394 -0.3130
  757MOL0     O99795   3.689   0.816   2.341 -0.4543 -0.6912 -0.2823
  757MOL0     C99796   3.611   0.909   2.270  0.3799 -0.4735  0.3041
  757MOL0     C99797   3.487   0.955   2.318 -0.0357  0.5776  1.3718
  757MOL0     C99798   3.393   1.023   2.234 -0.2159  0.3218 -0.4162
  757MOL0     C99799   3.428   1.040   2.099  0.2093  0.0755 -0.0461
  757MOL0     O99800   3.340   1.099   2.008  0.2357  0.5583  0.1307
  757MOL0     C99801   3.217   1.025   1.973  0.0886 -0.3854 -0.0236
  757MOL0     C99802   3.124   1.109   1.877 -0.0883 -0.0746 -0.0835
  757MOL0     C99803   2.974   1.076   1.886 -0.7704  0.5512  0.1908
  757MOL0     C99804   2.900   1.139   1.767  0.0559  0.3926  0.4023
  757MOL0     C99805   2.746   1.122   1.761  0.1420  0.2683  0.3362
  757MOL0     C99806   2.678   1.175   1.892 -0.1385  0.5338 -0.0037
  757MOL0     C99807   2.534   1.233   1.863 -0.2875  1.0587 -0.7879
  757MOL0     C99808   2.437   1.113   1.831 -0.3533 -0.7009  0.0055
  757MOL0     N99809   2.308   1.164   1.838 -0.2769  0.3597  0.2141
  757MOL0     C99810   2.211   1.114   1.927  0.1829 -0.6857  0.6239
  757MOL0     C99811   2.092   1.182   1.900 -0.9429  0.1836  0.0184
  757MOL0     C99812   1.964   1.175   1.973 -0.2276  0.3005 -0.7439
  757MOL0     C99813   1.874   1.285   1.942  0.7296 -0.7184 -0.5529
  757MOL0     C99814   1.806   1.255   1.810 -0.5907 -0.0963 -0.1294
  757MOL0     C99815   1.722   1.369   1.755  0.0524  0.4019 -0.0048
  757MOL0     O99816   1.585   1.366   1.801 -0.3645  0.1019 -0.6721
  757MOL0     C99817   1.496   1.448   1.748  1.1514  0.4453  0.1002
  757MOL0     C99818   1.518   1.574   1.688  0.1182  0.8705  0.2787
  757MOL0     C99819   1.429   1.659   1.622  1.0607 -0.6155 -0.4922
  757MOL0     C99820   1.295   1.614   1.625 -1.0167  0.0553 -0.6844
  757MOL0     C99821   1.187   1.693   1.578  0.0381  0.2751 -0.2314
  757MOL0     O99822   1.069   1.662   1.630 -0.1139  0.1221 -0.2519
  757MOL0     C99823   0.947   1.724   1.604  0.6708 -0.8766 -0.7790
  757MOL0     C99824   0.834   1.648   1.584  0.6842 -0.5849  0.0411
  757MOL0     C99825   0.715   1.715   1.549  0.3763  0.3219  0.5257
  757MOL0     C99826   0.705   1.861   1.549 -0.9004  0.1157  0.1347
  757MOL0     O99827   0.598   1.944   1.540 -0.5488 -0.3742  0.7820
  757MOL0     C99828   0.473   1.885   1.522 -0.0504 -0.2707  1.1105
  757MOL0     C99829   0.354   1.975   1.559 -0.8250  0.0528  0.1947
  757MOL0     C99830   0.228   1.893   1.569 -0.0106 -0.1200 -0.1247
  757MOL0     C99831   0.106   1.970   1.602 -0.2576 -0.1568 -1.4054
  757MOL0     C99832  -0.024   1.897   1.576 -0.2892  0.5601 -0.1096
  757MOL0     C99833  -0.137   1.929   1.673  0.1186 -1.0589  0.0265
  757MOL0     C99834  -0.254   1.834   1.678  1.1132  0.9827  0.4092
  757MOL0     C99835  -0.385   1.881   1.748  1.3559 -0.5629  1.3154
  757MOL0    Cl99836  -0.483   1.755   1.828 -0.4539 -0.1644 -0.1745
  757MOL0     C99837   0.823   1.930   1.587  1.0234 -0.4213  0.6189
  757MOL0     C99838   0.941   1.868   1.610  0.2360 -0.0257  0.0866
  757MOL0     O99839   1.210   1.785   1.499  0.9738 -0.3630 -0.1349
  757MOL0     C99840   1.265   1.490   1.693  0.2647 -0.5336 -0.8058
  757MOL0     C99841   1.363   1.406   1.755 -0.8506 -0.1473  0.0920
  757MOL0     N99842   2.124   1.264   1.790 -0.2581 -0.2386  0.2810
  757MOL0     N99843   2.248   1.251   1.750  0.0219 -0.1341 -0.7381
  757MOL0     C99844   3.552   1.003   2.046  0.0257 -1.0003 -0.7128
  757MOL0     C99845   3.644   0.939   2.136  0.1996 -0.4275  1.0121
  757MOL0     C99846   3.777   0.698   2.533 -0.3220  0.7838 -0.0919
  757MOL0     C99847   3.777   0.674   2.674 -0.9977  0.0594 -0.1135
  757MOL0     C99848   3.847   0.566   2.718  0.7413 -0.1246 -0.2545
  757MOL0     C99849   3.923   0.482   2.639 -0.0927  0.4619  0.5029
  757MOL0     O99850   3.999   0.381   2.688 -0.1708 -0.4652 -0.2215
  757MOL0     C99851   3.981   0.342   2.826 -0.4636  0.0592 -0.4524
  757MOL0     C99852   4.046   0.213   2.862 -0.7857  1.4502  0.0380
  757MOL0     C99853   3.981   0.089   2.786  0.1582  1.1015  0.6546
  757MOL0     C99854   4.054  -0.051   2.806  0.2128 -0.0198 -0.2582
  757MOL0     C99855   4.190  -0.043   2.766  0.1957 -0.2089  0.5671
  757MOL0     C99856   4.306  -0.031   2.727 -0.3559 -0.2349 -0.6502
  757MOL0     C99857   3.920   0.504   2.507 -0.1137  0.0192 -0.1003
  757MOL0     C99858   3.852   0.612   2.451 -0.1774  0.1269 -0.3913
  757MOL0     H99859   3.452   0.933   2.418 -0.3254  2.1561  1.6441
  757MOL0     H99860   3.290   1.041   2.263  0.0054  2.6102 -0.8572
  757MOL0     H99861   3.156   1.021   2.063 -1.1133 -2.4090 -0.8750
  757MOL0     H99862   3.234   0.920   1.947 -0.6265 -0.4874 -0.0893
  757MOL0     H99863   3.160   1.084   1.777 -0.5094 -2.0996  0.2289
  757MOL0     H99864   3.137   1.216   1.893 -1.4441  0.0889  0.0437
  757MOL0     H99865   2.916   1.108   1.972 -1.4612 -0.8739  0.2831
  757MOL0     H99866   2.958   0.968   1.873 -2.4355  0.8837 -0.7483
  757MOL0     H99867   2.924   1.246   1.771 -1.7720  0.8123  0.9339
  757MOL0     H99868   2.937   1.101   1.670  1.6111  0.6915  0.8404
  757MOL0     H99869   2.724   1.015   1.752  0.0189  0.3193  0.0058
  757MOL0     H99870   2.716   1.160   1.663 -0.5798 -2.9140 -0.8108
  757MOL0     H99871   2.742   1.252   1.936  1.7602 -1.5193  1.0419
  757MOL0     H99872   2.681   1.107   1.977 -0.0451 -1.8087 -1.7860
  757MOL0     H99873   2.490   1.286   1.948  1.5614 -1.6511  2.0652
  757MOL0     H99874   2.546   1.300   1.778 -0.6106 -0.8934 -2.4589
  757MOL0     H99875   2.448   1.031   1.902 -2.4624  0.5785  1.9334
  757MOL0     H99876   2.462   1.076   1.731  0.6062 -1.6510  0.5769
  757MOL0     H99877   2.215   1.030   1.995 -2.0089 -2.1455 -0.9093
  757MOL0     H99878   1.992   1.182   2.078 -4.3099 -0.2674  0.5661
  757MOL0     H99879   1.923   1.076   1.953  1.1729 -0.7154  1.0937
  757MOL0     H99880   1.935   1.375   1.934 -0.0763 -0.3305 -3.0561
  757MOL0     H99881   1.796   1.293   2.018  2.1232 -2.8887  1.2300
  757MOL0     H99882   1.878   1.233   1.731 -0.1211 -4.0367  1.1386
  757MOL0     H99883   1.739   1.170   1.826 -3.1589  1.6153 -1.2604
  757MOL0     H99884   1.716   1.360   1.646  0.9047  3.7296 -0.4096
  757MOL0     H99885   1.766   1.467   1.768 -1.1774  0.8105  1.3306
  757MOL0     H99886   1.622   1.603   1.698  0.5365 -0.7928  1.1467
  757MOL0     H99887   1.447   1.753   1.571  1.4415 -0.7986 -0.6989
  757MOL0     H99888   0.858   1.543   1.591  2.7816 -0.1343  0.2146
  757MOL0     H99889   0.627   1.661   1.514  1.1488  0.5130 -1.8849
  757MOL0     H99890   0.460   1.801   1.591 -0.5757  0.6756  2.1899
  757MOL0     H99891   0.456   1.846   1.422 -2.3554 -2.0482  2.1027
  757MOL0     H99892   0.343   2.046   1.476 -2.5662 -0.9220 -0.4656
  757MOL0     H99893   0.360   2.029   1.654 -1.6293 -0.7919  0.7452
  757MOL0     H99894   0.228   1.819   1.650 -1.7529 -0.1197 -0.0837
  757MOL0     H99895   0.210   1.834   1.479  0.2509  0.1326 -0.3427
  757MOL0     H99896   0.112   1.994   1.709  0.3270  0.7801 -1.6383
  757MOL0     H99897   0.100   2.063   1.545 -2.3771 -2.0375 -4.5627
  757MOL0     H99898  -0.001   1.790   1.589 -0.8280  0.2574 -1.4377
  757MOL0     H99899  -0.054   1.908   1.471 -2.2976 -0.7800  0.2627
  757MOL0     H99900  -0.161   2.029   1.634  1.0836 -1.2111 -1.0085
  757MOL0     H99901  -0.099   1.935   1.775 -0.3472 -0.3178  0.1693
  757MOL0     H99902  -0.278   1.808   1.575  2.0894 -0.5378  0.5141
  757MOL0     H99903  -0.214   1.737   1.711 -1.7933 -0.8145 -0.9459
  757MOL0     H99904  -0.448   1.939   1.680  2.5847 -0.1136  0.5297
  757MOL0     H99905  -0.349   1.947   1.828 -0.3712 -0.7582  2.2961
  757MOL0     H99906   0.823   2.038   1.585  1.6126 -0.4168  0.7786
  757MOL0     H99907   1.031   1.928   1.604 -2.2849  4.0009 -2.3154
  757MOL0     H99908   1.165   1.448   1.695 -0.6303  1.4795  1.5828
  757MOL0     H99909   1.349   1.316   1.813 -1.1168  1.2646  2.3376
  757MOL0     H99910   3.573   1.017   1.940  1.3913  0.2762 -0.3053
  757MOL0     H99911   3.728   0.896   2.084 -0.5887  0.6255 -1.2605
  757MOL0     H99912   3.715   0.734   2.740  1.3776  1.1408  1.2407
  757MOL0     H99913   3.841   0.539   2.823  2.9765 -0.2449 -0.1089
  757MOL0     H99914   3.876   0.330   2.854 -0.0575  1.2057  1.8176
  757MOL0     H99915   4.024   0.413   2.897  0.0508 -2.6136  2.0531
  757MOL0     H99916   4.151   0.232   2.838 -0.7951  2.7908  0.9146
  757MOL0     H99917   4.043   0.191   2.970  1.1394 -1.2655 -0.3672
  757MOL0     H99918   3.964   0.105   2.679 -3.9471 -2.8377  0.4214
  757MOL0     H99919   3.881   0.079   2.828 -0.3841 -3.4844 -1.0441
  757MOL0     H99920   4.055  -0.058   2.915 -2.0469  3.0667  0.0683
  757MOL0     H99921   4.006  -0.135   2.755  0.2139  0.4582 -1.0654
  757MOL0     H99922   4.407  -0.010   2.697 -0.1225 -0.3165  0.0590
  757MOL0     H99923   3.992   0.442   2.453 -0.1434  1.4315 -1.8396
  757MOL0     H99924   3.851   0.620   2.342  2.2070 -1.6846 -0.6296
  758MOL0     O99925   7.412   1.307  11.175  0.5448  0.8774 -0.5349
  758MOL0     C99926   7.349   1.321  11.076  0.2619 -0.0180 -0.4660
  758MOL0     O99927   7.384   1.393  10.968 -0.3807 -0.1438  0.5833
  758MOL0     C99928   7.462   1.506  10.965 -0.4744 -0.8100  0.0759
  758MOL0     C99929   7.415   1.612  11.048 -0.0135 -1.0643 -0.7518
  758MOL0     C99930   7.486   1.732  11.056 -0.6712 -0.4074 -0.6888
  758MOL0     C99931   7.607   1.743  10.977 -0.0824  0.4375  0.5300
  758MOL0     O99932   7.689   1.856  10.987 -0.0823 -0.2364  0.2847
  758MOL0     C99933   7.752   1.897  10.861  0.7595  0.3466 -0.7779
  758MOL0     C99934   7.815   2.034  10.874 -0.5762 -0.2540 -0.1521
  758MOL0     C99935   7.699   2.134  10.872 -0.5188  0.0062  0.2532
  758MOL0     C99936   7.744   2.284  10.858  0.6876  0.1518 -0.9798
  758MOL0     C99937   7.628   2.362  10.784 -0.4485 -0.1133 -0.1523
  758MOL0     C99938   7.519   2.393  10.875 -0.4222  0.5704 -0.6779
  758MOL0     C99939   7.393   2.463  10.829 -0.2594  0.2272  0.1440
  758MOL0     C99940   7.426   2.618  10.834 -0.2098  0.2002 -0.3556
  758MOL0     N99941   7.407   2.663  10.972  0.8306  0.0183 -0.6921
  758MOL0     C99942   7.273   2.682  11.027 -1.0362 -0.9284 -0.3101
  758MOL0     C99943   7.301   2.707  11.158  0.3303  0.3904  1.0847
  758MOL0     C99944   7.196   2.741  11.261  0.1150  0.2839  0.1823
  758MOL0     C99945   7.187   2.889  11.293 -0.6609  0.9987 -0.2131
  758MOL0     C99946   7.125   2.957  11.174 -0.3737  0.2058  0.2433
  758MOL0     C99947   7.112   3.113  11.184 -0.5737 -0.4114  0.6757
  758MOL0     O99948   7.023   3.134  11.288 -0.4210 -0.4771 -0.2018
  758MOL0     C99949   6.936   3.243  11.285  0.2091  0.1046 -0.4131
  758MOL0     C99950   6.861   3.282  11.170 -0.1416 -0.1898 -0.1082
  758MOL0     C99951   6.772   3.397  11.176 -0.0272 -0.5303 -0.0063
  758MOL0     C99952   6.759   3.474  11.288  0.4002 -0.4419  0.4235
  758MOL0     C99953   6.662   3.584  11.289  0.5613 -0.2981  0.0019
  758MOL0     O99954   6.574   3.603  11.178  0.3513 -0.7677 -0.1770
  758MOL0     C99955   6.477   3.701  11.201 -0.1700  0.0021  0.1756
  758MOL0     C99956   6.490   3.818  11.132  1.5375 -0.3831  0.0317
  758MOL0     C99957   6.389   3.919  11.152  0.1220 -0.0162 -0.8566
  758MOL0     C99958   6.276   3.903  11.233 -0.1616  0.3323  0.7722
  758MOL0     O99959   6.192   4.008  11.235 -0.1107 -0.0676  0.6788
  758MOL0     C99960   6.086   4.001  11.333 -0.1773 -0.1132  0.4724
  758MOL0     C99961   5.976   4.088  11.298  0.9938 -0.4904  0.7272
  758MOL0     C99962   5.897   4.037  11.180  0.2852  0.5789  0.1104
  758MOL0     C99963   5.775   3.955  11.210  0.2384  0.1478  0.0504
  758MOL0     C99964   5.692   3.928  11.079  0.0769 -0.2338 -0.0029
  758MOL0     C99965   5.571   3.833  11.113 -0.5626 -0.1874  0.2717
  758MOL0     C99966   5.461   3.865  11.014 -0.5136 -0.4826 -0.1373
  758MOL0     C99967   5.329   3.801  11.056 -0.6439 -0.1255  0.3746
  758MOL0    Cl99968   5.260   3.866  11.201 -0.2017  0.2871 -0.4744
  758MOL0     C99969   6.271   3.787  11.314 -0.0507  0.6270 -0.4427
  758MOL0     C99970   6.363   3.682  11.298  0.3446 -0.6841  0.0105
  758MOL0     O99971   6.658   3.655  11.389  0.2970  0.0848 -0.0409
  758MOL0     C99972   6.831   3.432  11.405  0.4383 -0.5331  2.0408
  758MOL0     C99973   6.910   3.319  11.399  0.0906 -0.1692  0.3319
  758MOL0     N99974   7.435   2.711  11.175  0.3014  0.5189  0.5244
  758MOL0     N99975   7.494   2.689  11.067 -0.6455 -0.5783 -0.0416
  758MOL0     C99976   7.638   1.639  10.882  0.0339 -0.0798 -0.3253
  758MOL0     C99977   7.563   1.521  10.880 -0.2921 -0.5089 -0.1395
  758MOL0     C99978   7.223   1.240  11.067  0.7860  0.2796  0.6659
  758MOL0     C99979   7.128   1.269  10.962  0.2455 -0.3540 -0.0204
  758MOL0     C99980   7.003   1.205  10.959  0.2589 -0.2622  0.5558
  758MOL0     C99981   6.985   1.106  11.057  0.0370 -0.1895 -0.2224
  758MOL0     O99982   6.867   1.038  11.063 -1.2757  0.3454  0.1334
  758MOL0     C99983   6.753   1.065  10.985 -0.5737  0.5643 -0.3681
  758MOL0     C99984   6.630   0.969  11.005 -0.4112 -0.4969 -0.0349
  758MOL0     C99985   6.532   0.958  10.889 -0.8143 -0.7407 -0.5140
  758MOL0     C99986   6.421   0.846  10.895  0.0128 -0.3872 -1.1434
  758MOL0     C99987   6.481   0.713  10.922 -0.2776  0.0663  0.4587
  758MOL0     C99988   6.538   0.607  10.946 -0.0434 -0.2064  0.0785
  758MOL0     C99989   7.084   1.074  11.149  0.7685 -0.2086  0.0691
  758MOL0     C99990   7.201   1.138  11.158  0.0011 -1.2771  0.5877
  758MOL0     H99991   7.327   1.601  11.111  0.5013  1.9888  0.6733
  758MOL0     H99992   7.456   1.812  11.122  3.1770  0.0104  0.7581
  758MOL0     H99993   7.682   1.904  10.777 -0.2229  0.4372  0.0330
  758MOL0     H99994   7.836   1.836  10.826  2.9423  3.0098 -0.4695
  758MOL0     H99995   7.880   2.041  10.786  0.9202 -2.5514  0.7014
  758MOL0     H99996   7.879   2.042  10.962  0.7405 -0.5134 -1.0628
  758MOL0     H99997   7.650   2.123  10.969  1.0653  0.2327  1.1118
  758MOL0     H99998   7.635   2.103  10.789  0.6185  1.5529 -1.2804
  758MOL0     H99999   7.776   2.324  10.955  1.3046 -0.1308 -1.0690
  758MOL0     H    0   7.832   2.289  10.793  0.1287 -0.7170 -1.8243
  758MOL0     H    1   7.602   2.307  10.694 -0.5796  2.0717 -1.5036
  758MOL0     H    2   7.674   2.456  10.752  2.2542 -0.7291  1.5613
  758MOL0     H    3   7.579   2.449  10.948  2.3433 -2.7042 -0.1684
  758MOL0     H    4   7.489   2.298  10.918  3.8545 -0.9984 -0.6336
  758MOL0     H    5   7.366   2.433  10.727  0.1141  0.6421 -0.0801
  758MOL0     H    6   7.309   2.434  10.893 -0.2595 -2.4557 -0.9639
  758MOL0     H    7   7.347   2.667  10.777  1.2830  0.6219 -2.1500
  758MOL0     H    8   7.533   2.623  10.812 -0.0590 -2.8645 -0.7919
  758MOL0     H    9   7.180   2.662  10.976 -0.2726 -2.5190 -1.1620
  758MOL0     H   10   7.216   2.681  11.350  1.5482  0.4673 -0.0080
  758MOL0     H   11   7.096   2.716  11.223  1.1822  0.1960 -2.7977
  758MOL0     H   12   7.293   2.913  11.305  0.0599 -0.9296 -2.0364
  758MOL0     H   13   7.124   2.899  11.382 -3.7298  0.6730 -2.1920
  758MOL0     H   14   7.172   2.931  11.079  0.3467  0.2686  0.5770
  758MOL0     H   15   7.027   2.909  11.178  0.3277 -1.2183  1.3408
  758MOL0     H   16   7.093   3.157  11.086  0.2473  1.9720  1.5338
  758MOL0     H   17   7.210   3.152  11.212 -1.3340  1.7456  0.4909
  758MOL0     H   18   6.874   3.239  11.071  0.1746  4.6640 -2.4396
  758MOL0     H   19   6.718   3.424  11.085  0.5839  2.2107  0.3677
  758MOL0     H   20   6.571   3.832  11.061  2.7409 -1.3976  1.1425
  758MOL0     H   21   6.399   4.013  11.098 -0.5593  1.5133  1.5265
  758MOL0     H   22   6.121   4.038  11.430  0.8758 -0.3559  0.1985
  758MOL0     H   23   6.049   3.898  11.343 -0.9514  0.1918  0.8831
  758MOL0     H   24   6.015   4.187  11.273 -1.1422  0.8054  2.1764
  758MOL0     H   25   5.905   4.099  11.380 -3.4372 -0.4469 -2.7324
  758MOL0     H   26   5.959   3.982  11.110  1.6278  1.4780  0.5527
  758MOL0     H   27   5.870   4.133  11.134 -0.8391 -0.0633 -0.6160
  758MOL0     H   28   5.800   3.865  11.266  0.2438  0.2071  0.1441
  758MOL0     H   29   5.710   4.009  11.280 -1.1838 -1.7797  0.3009
  758MOL0     H   30   5.759   3.890  11.001  0.3994 -0.0043  0.1597
  758MOL0     H   31   5.648   4.021  11.042 -1.3567  0.6971  3.6010
  758MOL0     H   32   5.550   3.857  11.218 -0.8688 -1.9710  0.6547
  758MOL0     H   33   5.595   3.726  11.116 -0.1837 -0.2452 -2.5933
  758MOL0     H   34   5.452   3.974  11.005 -0.1275 -0.3631  0.8167
  758MOL0     H   35   5.494   3.837  10.914 -0.3442  0.2951 -0.3006
  758MOL0     H   36   5.349   3.693  11.058 -0.8948 -0.2312 -1.1501
  758MOL0     H   37   5.269   3.828  10.969  3.4978  0.6644 -2.5725
  758MOL0     H   38   6.193   3.763  11.386  0.8510 -0.6608  0.1447
  758MOL0     H   39   6.369   3.591  11.357  0.6585 -0.1589  0.8160
  758MOL0     H   40   6.829   3.494  11.494 -1.5989  3.0773 -0.2982
  758MOL0     H   41   6.964   3.279  11.485  0.0449 -0.4637  0.2251
  758MOL0     H   42   7.718   1.647  10.810 -1.6800  1.1101 -2.2103
  758MOL0     H   43   7.594   1.440  10.815 -0.6451 -1.9022  1.3740
  758MOL0     H   44   7.143   1.356  10.898 -0.8807 -1.0709 -1.2934
  758MOL0     H   45   6.934   1.246  10.886  2.5548  1.9809 -0.5141
  758MOL0     H   46   6.781   1.048  10.880 -0.3194  0.9741 -0.3676
  758MOL0     H   47   6.723   1.169  10.992 -0.0576  0.8508 -1.9338
  758MOL0     H   48   6.675   0.870  11.016 -1.3685 -0.9090  0.2895
  758MOL0     H   49   6.572   0.990  11.095 -0.2844  3.2534 -0.6611
  758MOL0     H   50   6.602   0.950  10.805  1.4817  1.7375  1.0214
  758MOL0     H   51   6.490   1.057  10.868  2.5849  0.5105 -2.3009
  758MOL0     H   52   6.344   0.854  10.972 -1.8607 -2.1912 -2.7302
  758MOL0     H   53   6.360   0.840  10.804 -0.8517  1.8853 -0.7660
  758MOL0     H   54   6.587   0.515  10.968  1.2810  1.5490  6.4680
  758MOL0     H   55   7.071   0.995  11.222  4.2932 -0.3380  0.7362
  758MOL0     H   56   7.278   1.118  11.232  0.6114 -0.6941  0.1195
  759MOL0     O   57   2.704  10.436  10.595 -0.0910 -0.2683  0.1356
  759MOL0     C   58   2.692  10.466  10.713 -0.3237  1.0209 -0.4660
  759MOL0     O   59   2.580  10.520  10.767  0.6351  0.4807 -0.0378
  759MOL0     C   60   2.455  10.512  10.712  0.7799  0.4816 -0.1323
  759MOL0     C   61   2.428  10.524  10.574  0.0657  1.4375  0.3077
  759MOL0     C   62   2.301  10.502  10.525 -0.2739 -0.2331  0.1008
  759MOL0     C   63   2.192  10.467  10.615 -0.0187 -0.1720  0.3720
  759MOL0     O   64   2.074  10.437  10.557  0.7201  1.0804  0.5465
  759MOL0     C   65   1.963  10.428  10.645 -0.2038  0.1940  0.2999
  759MOL0     C   66   1.844  10.386  10.570  0.4931  0.2718  0.5228
  759MOL0     C   67   1.788  10.463  10.447 -0.7053 -0.5215  0.3584
  759MOL0     C   68   1.761  10.616  10.464 -0.3535 -0.0929  0.6011
  759MOL0     C   69   1.646  10.684  10.391 -0.2085  0.5303  0.4816
  759MOL0     C   70   1.515  10.627  10.437  0.4939 -0.2892  0.7210
  759MOL0     C   71   1.388  10.690  10.370  0.1924  0.9006 -0.0535
  759MOL0     C   72   1.257  10.637  10.425  0.2518  0.1408 -0.1366
  759MOL0     N   73   1.227  10.496  10.391 -0.3412 -0.2943  0.0834
  759MOL0     C   74   1.127  10.459  10.305  0.4919  0.6866 -0.1301
  759MOL0     C   75   1.142  10.323  10.295  0.1797  0.1717 -0.6907
  759MOL0     C   76   1.068  10.229  10.204  0.3388  0.7305  0.3749
  759MOL0     C   77   1.087  10.078  10.233 -0.2610 -0.2204  0.3286
  759MOL0     C   78   0.971   9.992  10.194  0.1273  0.3814  0.7314
  759MOL0     C   79   0.984   9.854  10.263 -0.0242  0.1534  0.7736
  759MOL0     O   80   0.873   9.766  10.232  0.0271  0.4547 -0.1444
  759MOL0     C   81   0.750   9.790  10.284  0.1404 -0.6951  0.5797
  759MOL0     C   82   0.718   9.897  10.361  0.3817  0.0540 -0.0056
  759MOL0     C   83   0.593   9.901  10.420  0.7215 -0.2976 -0.3008
  759MOL0     C   84   0.483   9.815  10.378 -0.3167  0.7644 -0.7214
  759MOL0     C   85   0.348   9.829  10.436 -0.8095  0.4678 -0.2722
  759MOL0     O   86   0.258   9.731  10.408  0.2291 -1.2463  0.3063
  759MOL0     C   87   0.138   9.748  10.469  0.4242 -0.3933  0.5826
  759MOL0     C   88   0.056   9.852  10.419 -0.1079  0.9487 -0.7206
  759MOL0     C   89  -0.075   9.867  10.464  0.5261 -0.5301 -0.0708
  759MOL0     C   90  -0.126   9.769  10.548  0.5473  0.3178  0.0699
  759MOL0     O   91  -0.243   9.777  10.623 -0.0503  0.6771 -0.0220
  759MOL0     C   92  -0.329   9.895  10.610 -0.4280 -0.6365 -0.1790
  759MOL0     C   93  -0.472   9.882  10.663  0.4922 -0.0964  0.1878
  759MOL0     C   94  -0.527   9.753  10.605  0.4542  0.9266 -0.0021
  759MOL0     C   95  -0.650   9.706  10.679  0.2011 -0.2161 -0.5268
  759MOL0     C   96  -0.694   9.572  10.635  0.5534 -0.8238  0.6093
  759MOL0     C   97  -0.798   9.499  10.718  0.4437  0.0600 -0.3584
  759MOL0     C   98  -0.829   9.352  10.662 -0.3770 -0.0687  0.2446
  759MOL0     C   99  -0.952   9.292  10.720 -1.6223 -0.1324  0.1854
  759MOL0    Cl  100  -0.924   9.248  10.894 -0.0909  0.4340  0.2803
  759MOL0     C  101  -0.048   9.664  10.592 -0.0518  0.1739  0.4544
  759MOL0     C  102   0.088   9.653  10.553  0.6031  0.2089  0.2321
  759MOL0     O  103   0.337   9.912  10.527 -0.4175  0.3826 -0.3580
  759MOL0     C  104   0.512   9.702  10.293  0.4005  0.5287 -0.2722
  759MOL0     C  105   0.649   9.692  10.254 -0.1658  0.3249  0.0085
  759MOL0     N  106   1.256  10.290  10.362  0.3377 -0.2457  0.0846
  759MOL0     N  107   1.302  10.392  10.421 -0.2368  0.6174 -0.2236
  759MOL0     C  108   2.217  10.463  10.757 -0.2995 -0.4077 -0.1740
  759MOL0     C  109   2.343  10.482  10.803 -0.9834 -0.2184 -0.1602
  759MOL0     C  110   2.802  10.443  10.810 -0.1284 -1.0571 -0.7948
  759MOL0     C  111   2.929  10.413  10.753  0.1417 -0.0387  0.5988
  759MOL0     C  112   3.046  10.412  10.823 -0.4556 -0.0143  0.3217
  759MOL0     C  113   3.037  10.434  10.962 -1.0099  0.1780  0.5559
  759MOL0     O  114   3.157  10.409  11.027  0.7520  0.2422 -0.3239
  759MOL0     C  115   3.154  10.385  11.170  0.0600  0.6782  0.1433
  759MOL0     C  116   3.290  10.340  11.237  0.7010 -0.5870 -0.1926
  759MOL0     C  117   3.398  10.451  11.221 -0.2127  0.8104 -0.6588
  759MOL0     C  118   3.519  10.403  11.305 -0.5043  1.0101 -0.1464
  759MOL0     C  119   3.537  10.478  11.432 -0.6184 -0.1445  0.6251
  759MOL0     C  120   3.569  10.541  11.535  0.9673 -0.4113 -0.0816
  759MOL0     C  121   2.907  10.463  11.024  0.6843  0.5504  0.2292
  759MOL0     C  122   2.797  10.465  10.950 -0.0678 -0.5237 -0.4275
  759MOL0     H  123   2.504  10.533  10.496 -1.5324  1.9466 -1.2699
  759MOL0     H  124   2.283  10.506  10.418  0.3605  0.6840  0.0133
  759MOL0     H  125   1.953  10.528  10.689  2.2828  0.3678  0.6643
  759MOL0     H  126   1.989  10.346  10.714 -1.9405  0.2334  1.0507
  759MOL0     H  127   1.762  10.363  10.639  0.9471 -1.7844  0.4378
  759MOL0     H  128   1.865  10.288  10.527 -0.0961  0.2534  0.2737
  759MOL0     H  129   1.699  10.404  10.424 -1.4277 -0.3195  2.4702
  759MOL0     H  130   1.861  10.456  10.365  1.0249  0.9338  1.6892
  759MOL0     H  131   1.747  10.634  10.571  0.7212 -2.0955  1.1434
  759MOL0     H  132   1.852  10.666  10.429 -0.9739 -0.7214 -2.0942
  759MOL0     H  133   1.649  10.655  10.286 -0.5681 -0.3756  0.7065
  759MOL0     H  134   1.649  10.791  10.414 -1.1516  0.3273  1.7075
  759MOL0     H  135   1.512  10.651  10.543  0.1485 -0.7329  0.8151
  759MOL0     H  136   1.515  10.518  10.427  0.6426 -0.1988 -0.5071
  759MOL0     H  137   1.388  10.799  10.381 -1.4016  0.8275  0.8795
  759MOL0     H  138   1.402  10.671  10.263  0.0090 -0.4046  0.1334
  759MOL0     H  139   1.173  10.695  10.386 -1.4816 -1.2952  1.2807
  759MOL0     H  140   1.252  10.650  10.533  0.0113 -1.1277  0.0204
  759MOL0     H  141   1.058  10.525  10.254 -0.0348  0.4143  0.2087
  759MOL0     H  142   1.114  10.243  10.106  4.6518  0.7607  2.1679
  759MOL0     H  143   0.962  10.253  10.201 -0.3913 -2.2595 -1.6205
  759MOL0     H  144   1.105  10.072  10.340 -0.2010 -1.6846  0.2656
  759MOL0     H  145   1.179  10.045  10.185 -0.5451 -0.4702 -0.0593
  759MOL0     H  146   0.881  10.050  10.213  0.0003  1.0513 -1.6865
  759MOL0     H  147   0.972   9.980  10.085  1.8689 -2.0316  0.9307
  759MOL0     H  148   1.000   9.860  10.371 -2.5503  0.2320  1.1945
  759MOL0     H  149   1.069   9.804  10.216  0.4436  0.2996  1.4509
  759MOL0     H  150   0.794   9.972  10.383  0.0878 -0.2472  2.2932
  759MOL0     H  151   0.558   9.987  10.475 -0.9577 -0.5640 -0.9071
  759MOL0     H  152   0.108   9.929  10.362  1.6543 -1.1791 -2.1774
  759MOL0     H  153  -0.139   9.949  10.434  1.6778  0.2344 -0.4623
  759MOL0     H  154  -0.345   9.929  10.507 -0.2095 -0.3005 -0.1013
  759MOL0     H  155  -0.273   9.977  10.655  2.3022 -2.6242  0.2811
  759MOL0     H  156  -0.542   9.961  10.634  0.0723 -0.1809  0.9368
  759MOL0     H  157  -0.472   9.879  10.772 -1.6534 -0.7526  0.2162
  759MOL0     H  158  -0.451   9.675  10.594  0.5521  0.7017  1.9903
  759MOL0     H  159  -0.561   9.778  10.504 -0.1258 -1.5475 -0.4861
  759MOL0     H  160  -0.636   9.701  10.787  0.8663 -0.8509 -0.6365
  759MOL0     H  161  -0.723   9.786  10.663 -0.9765 -1.1579 -0.1151
  759MOL0     H  162  -0.607   9.505  10.633  1.4221  0.2635  0.5672
  759MOL0     H  163  -0.743   9.586  10.538  0.9553 -0.4646  0.4533
  759MOL0     H  164  -0.893   9.549  10.739 -0.0896 -0.4867 -1.3847
  759MOL0     H  165  -0.754   9.489  10.817  0.2342 -0.2590 -0.2949
  759MOL0     H  166  -0.840   9.359  10.553  2.4943  1.1993 -0.0628
  759MOL0     H  167  -0.739   9.293  10.681  0.3438  1.0775  0.4720
  759MOL0     H  168  -0.975   9.203  10.660 -1.6316  0.0223 -0.0383
  759MOL0     H  169  -1.034   9.364  10.718  0.5824  2.7437  2.8025
  759MOL0     H  170  -0.081   9.600  10.673  1.1229  2.7598  3.2241
  759MOL0     H  171   0.149   9.568  10.582 -0.3446 -0.8562 -0.7918
  759MOL0     H  172   0.440   9.632  10.252 -0.0805  2.1647 -2.4283
  759MOL0     H  173   0.667   9.606  10.189  0.1201  0.0452  0.4507
  759MOL0     H  174   2.153  10.438  10.842 -1.6904  1.1083 -0.7193
  759MOL0     H  175   2.367  10.466  10.908  3.0284  1.2688 -0.6436
  759MOL0     H  176   2.933  10.392  10.647  1.8948  0.9359  0.4323
  759MOL0     H  177   3.136  10.372  10.777 -1.0391 -0.3265 -0.5671
  759MOL0     H  178   3.077  10.312  11.192 -1.2755  2.1095  0.3845
  759MOL0     H  179   3.117  10.475  11.220 -0.6737 -0.0032  0.8580
  759MOL0     H  180   3.262  10.330  11.342 -0.5378  0.0028 -0.4447
  759MOL0     H  181   3.338  10.248  11.203  2.1432  0.4929 -1.1492
  759MOL0     H  182   3.366  10.553  11.245  2.1285  2.5333 -3.9909
  759MOL0     H  183   3.414  10.444  11.113  0.5824  1.1396 -0.5719
  759MOL0     H  184   3.514  10.297  11.330  0.2988 -0.5799 -5.3425
  759MOL0     H  185   3.609  10.405  11.243  0.5342  1.4296  1.3377
  759MOL0     H  186   3.578  10.592  11.628 -1.8954  1.0128 -0.4859
  759MOL0     H  187   2.908  10.476  11.131 -1.4080 -0.5342  0.4358
  759MOL0     H  188   2.706  10.479  11.008 -0.8593 -3.0010 -0.9402
  760MOL0     O  189   7.488   2.530   9.595 -0.0166  0.4292 -0.0450
  760MOL0     C  190   7.464   2.614   9.684 -0.3890 -0.1368 -0.5467
  760MOL0     O  191   7.358   2.691   9.699 -0.8296  0.2790  0.6457
  760MOL0     C  192   7.246   2.662   9.633  0.3397 -0.6540  0.3985
  760MOL0     C  193   7.163   2.769   9.610 -0.0298  0.0258 -0.6428
  760MOL0     C  194   7.036   2.753   9.558  0.8394  0.2695  0.8152
  760MOL0     C  195   6.984   2.632   9.523 -0.1621 -0.0231  0.3242
  760MOL0     O  196   6.861   2.615   9.459  0.4828  0.5729 -0.2608
  760MOL0     C  197   6.767   2.723   9.446 -0.3538  0.1101 -0.3713
  760MOL0     C  198   6.642   2.675   9.362  0.1368  1.0428 -0.0647
  760MOL0     C  199   6.545   2.773   9.316 -0.6035  0.6143 -0.9671
  760MOL0     C  200   6.433   2.707   9.241  0.3913  0.1922 -1.0337
  760MOL0     C  201   6.306   2.796   9.231  0.2457 -0.3635 -0.0292
  760MOL0     C  202   6.317   2.893   9.111 -0.4320  0.3157 -0.1389
  760MOL0     C  203   6.180   2.955   9.080  0.3835 -1.0132 -1.1363
  760MOL0     C  204   6.201   3.041   8.958  0.1390 -0.3850  0.3457
  760MOL0     N  205   6.261   3.170   8.977 -0.6535  0.0646  0.3188
  760MOL0     C  206   6.397   3.201   8.993  0.0456  0.2581 -0.2501
  760MOL0     C  207   6.411   3.336   9.010 -0.3692  0.4295  0.7383
  760MOL0     C  208   6.530   3.421   9.019  0.3352  0.4842 -0.2292
  760MOL0     C  209   6.573   3.440   9.164 -0.0363  0.4040 -0.3634
  760MOL0     C  210   6.473   3.523   9.253  0.0074 -0.0698 -0.6102
  760MOL0     C  211   6.518   3.544   9.398 -0.1978  0.7640  0.1197
  760MOL0     O  212   6.480   3.674   9.429  0.0832  0.5669  0.2088
  760MOL0     C  213   6.356   3.691   9.462  0.3138 -0.1662 -0.8532
  760MOL0     C  214   6.257   3.596   9.484  0.4785 -1.6847  0.1334
  760MOL0     C  215   6.123   3.635   9.509 -0.4839 -0.1617  0.2904
  760MOL0     C  216   6.072   3.769   9.517 -0.3050  1.1480 -1.0400
  760MOL0     C  217   5.931   3.803   9.544 -0.3960 -0.0323  0.0315
  760MOL0     O  218   5.846   3.707   9.550  0.7661  0.2333 -0.1264
  760MOL0     C  219   5.705   3.721   9.556 -0.0666 -0.2527 -0.0773
  760MOL0     C  220   5.628   3.838   9.587  0.4336 -0.1500 -0.2341
  760MOL0     C  221   5.488   3.828   9.584  0.5752  0.5191 -0.1199
  760MOL0     C  222   5.418   3.705   9.565 -0.5580  0.5383 -0.1014
  760MOL0     O  223   5.283   3.700   9.576 -0.0828 -0.2118  0.2657
  760MOL0     C  224   5.217   3.639   9.460  0.2275  0.0675 -0.0011
  760MOL0     C  225   5.085   3.714   9.428 -0.6157  0.7221  0.0223
  760MOL0     C  226   4.994   3.726   9.542 -0.1177 -0.4021  0.0303
  760MOL0     C  227   4.937   3.586   9.577 -0.0070 -1.0507 -0.9925
  760MOL0     C  228   4.803   3.601   9.646 -0.5407  0.4198 -0.1252
  760MOL0     C  229   4.767   3.475   9.732  0.3234  0.3994 -0.3264
  760MOL0     C  230   4.859   3.468   9.861  1.0728  0.0779  0.0208
  760MOL0     C  231   4.780   3.478   9.990 -0.1909 -0.0014  0.4686
  760MOL0    Cl  232   4.718   3.637  10.014  0.0908  0.1842 -0.2230
  760MOL0     C  233   5.492   3.596   9.541 -0.3793 -0.2278 -0.6710
  760MOL0     C  234   5.632   3.600   9.539 -0.0947  0.5530  0.5384
  760MOL0     O  235   5.906   3.922   9.548 -0.0154  0.2255  0.6622
  760MOL0     C  236   6.178   3.864   9.513  0.2248  0.8657 -0.7553
  760MOL0     C  237   6.309   3.825   9.493 -0.0480 -0.3388  0.0691
  760MOL0     N  238   6.279   3.380   9.008  0.5439 -0.0762  0.1725
  760MOL0     N  239   6.190   3.285   9.006  0.2614  0.0706  0.9526
  760MOL0     C  240   7.069   2.522   9.546 -0.4839  0.0385  0.3111
  760MOL0     C  241   7.196   2.531   9.605 -0.4044 -1.3452 -0.5400
  760MOL0     C  242   7.580   2.667   9.768 -0.2786 -0.1148 -0.1813
  760MOL0     C  243   7.572   2.788   9.841  0.5282  0.3817 -0.6059
  760MOL0     C  244   7.685   2.842   9.908 -0.5077  1.0318 -0.4786
  760MOL0     C  245   7.805   2.782   9.902 -1.0030  0.8801 -0.0736
  760MOL0     O  246   7.907   2.841   9.976  0.4313  0.4869  0.0734
  760MOL0     C  247   8.033   2.765   9.996 -0.0583 -0.3360  0.3584
  760MOL0     C  248   8.106   2.855  10.094  0.5543 -0.3659 -0.5683
  760MOL0     C  249   8.163   2.982  10.032  1.1516  0.2141 -0.4781
  760MOL0     C  250   8.186   3.070  10.156 -0.3999 -0.0126  1.0841
  760MOL0     C  251   8.260   3.193  10.122  0.1857 -0.1204  0.1405
  760MOL0     C  252   8.310   3.295  10.084 -0.5942 -0.1251 -0.5440
  760MOL0     C  253   7.812   2.666   9.829 -0.4863 -0.7009  0.1198
  760MOL0     C  254   7.705   2.609   9.767 -0.1621  0.9313  0.6547
  760MOL0     H  255   7.195   2.869   9.639  1.3157 -0.9324  1.3688
  760MOL0     H  256   6.985   2.846   9.535  1.6609  0.1559 -1.6863
  760MOL0     H  257   6.820   2.810   9.408  1.1454 -0.7498 -0.3254
  760MOL0     H  258   6.729   2.754   9.544 -0.2381  4.3706 -1.4964
  760MOL0     H  259   6.597   2.592   9.417  0.8493  0.8186  0.1838
  760MOL0     H  260   6.689   2.632   9.273  0.2271 -1.3216  1.0477
  760MOL0     H  261   6.593   2.843   9.248 -2.2476  2.6397 -0.1686
  760MOL0     H  262   6.510   2.838   9.397 -0.8912  1.6823 -1.9281
  760MOL0     H  263   6.471   2.685   9.141  1.4808  0.8369 -0.7842
  760MOL0     H  264   6.405   2.614   9.292  0.9221  0.3218 -0.4881
  760MOL0     H  265   6.285   2.863   9.316 -1.0502 -2.9315  1.8262
  760MOL0     H  266   6.216   2.737   9.210  0.5033 -0.2876 -1.4381
  760MOL0     H  267   6.346   2.839   9.020  2.4885  0.1491  0.7883
  760MOL0     H  268   6.394   2.966   9.136 -0.3213  0.1876 -0.1065
  760MOL0     H  269   6.110   2.872   9.068 -0.0167 -0.7941 -0.3573
  760MOL0     H  270   6.141   3.017   9.161  3.4482  0.0904 -0.3886
  760MOL0     H  271   6.098   3.058   8.926  0.4697  1.4225  0.1161
  760MOL0     H  272   6.260   2.997   8.877 -0.2857  1.1759 -0.8748
  760MOL0     H  273   6.474   3.125   8.994  0.1734  0.2067 -3.5458
  760MOL0     H  274   6.502   3.520   8.980  1.2470  0.6762 -0.4110
  760MOL0     H  275   6.616   3.375   8.970  1.1642 -0.2683  1.8444
  760MOL0     H  276   6.676   3.478   9.165  0.1832 -0.1423 -1.5657
  760MOL0     H  277   6.577   3.338   9.203  0.8694  0.2872 -0.7419
  760MOL0     H  278   6.468   3.623   9.210 -0.6533 -0.2038 -0.8529
  760MOL0     H  279   6.375   3.475   9.263  0.1207 -0.0308  0.9439
  760MOL0     H  280   6.626   3.528   9.404  0.0646  2.0517 -0.6172
  760MOL0     H  281   6.470   3.475   9.468 -0.8468  1.4550  0.3717
  760MOL0     H  282   6.275   3.489   9.482  2.3948 -1.3989 -1.8056
  760MOL0     H  283   6.046   3.559   9.519  1.4101 -2.0779  1.2594
  760MOL0     H  284   5.676   3.930   9.618 -1.6947 -0.0280  3.2899
  760MOL0     H  285   5.429   3.916   9.607 -1.9322 -1.2064  0.4976
  760MOL0     H  286   5.202   3.532   9.476  0.1708 -0.2164 -1.7694
  760MOL0     H  287   5.278   3.646   9.370 -2.7559  1.0896 -2.1050
  760MOL0     H  288   5.029   3.665   9.348  0.4298  0.9703 -0.8985
  760MOL0     H  289   5.112   3.813   9.389  1.4872  0.3477  0.3799
  760MOL0     H  290   4.912   3.793   9.513  1.0742  0.8194 -0.6093
  760MOL0     H  291   5.043   3.769   9.629  0.0356  2.8651 -1.5359
  760MOL0     H  292   4.911   3.538   9.482 -1.7106 -0.6050 -0.7867
  760MOL0     H  293   5.005   3.528   9.639 -1.1865  1.0743  2.5648
  760MOL0     H  294   4.731   3.619   9.566  0.2935 -1.5456 -1.3785
  760MOL0     H  295   4.806   3.686   9.715 -2.1352 -0.8450  1.6155
  760MOL0     H  296   4.775   3.385   9.670 -1.1275 -1.4573  1.9951
  760MOL0     H  297   4.666   3.478   9.773 -0.2498 -4.3207 -0.7941
  760MOL0     H  298   4.911   3.371   9.855  1.3895  0.3116 -1.2828
  760MOL0     H  299   4.930   3.551   9.864  0.9134  0.2000  0.6640
  760MOL0     H  300   4.839   3.450  10.078  1.0887 -0.2520 -0.4523
  760MOL0     H  301   4.689   3.417   9.994 -0.3388  0.2089  4.0450
  760MOL0     H  302   5.458   3.493   9.534  1.7684 -0.9607 -1.0350
  760MOL0     H  303   5.692   3.509   9.535 -0.1687  0.5191 -2.1201
  760MOL0     H  304   6.172   3.970   9.537  0.2766  0.8157 -0.5259
  760MOL0     H  305   6.385   3.899   9.475 -1.1966  0.7050 -0.5901
  760MOL0     H  306   7.037   2.425   9.508 -0.4058  0.4957 -0.9854
  760MOL0     H  307   7.243   2.438   9.632  1.5398 -0.5105 -0.9145
  760MOL0     H  308   7.484   2.851   9.843  2.0163  2.6495 -2.3319
  760MOL0     H  309   7.684   2.944   9.947 -0.0404  0.6604  0.5356
  760MOL0     H  310   8.093   2.756   9.905  0.0471  0.2324  0.3686
  760MOL0     H  311   8.011   2.667  10.039 -1.0570 -1.1215 -1.7794
  760MOL0     H  312   8.034   2.878  10.173  3.0096  2.2806  1.0902
  760MOL0     H  313   8.190   2.800  10.138 -0.7433 -0.1527  2.4605
  760MOL0     H  314   8.086   3.030   9.971  1.8733  0.0887 -1.5182
  760MOL0     H  315   8.248   2.954   9.969 -1.9168 -3.6312 -3.4141
  760MOL0     H  316   8.084   3.097  10.186 -1.4439  1.5926 -3.2340
  760MOL0     H  317   8.245   3.009  10.225 -0.9397 -1.6002  0.1710
  760MOL0     H  318   8.366   3.385  10.068 -0.2495 -0.1332  0.5057
  760MOL0     H  319   7.907   2.614   9.825  0.0644 -0.1016  3.1236
  760MOL0     H  320   7.712   2.506   9.734 -1.3074  0.0437  2.9583
  761MOL0     O  321   7.305  10.701   2.506  0.1803  0.4708  0.3528
  761MOL0     C  322   7.356  10.806   2.486 -0.8353 -0.1375 -0.1056
  761MOL0     O  323   7.284  10.923   2.453 -0.5755 -0.1525  0.4524
  761MOL0     C  324   7.145  10.912   2.436  0.4306 -0.2491  0.5389
  761MOL0     C  325   7.099  10.880   2.310 -0.4234 -0.4009 -0.7955
  761MOL0     C  326   6.958  10.881   2.283 -0.7773  1.3554  0.3374
  761MOL0     C  327   6.868  10.891   2.379 -0.4282 -0.7690  0.2625
  761MOL0     O  328   6.734  10.892   2.341  0.3621  0.1194  1.1517
  761MOL0     C  329   6.638  10.941   2.448 -0.2729 -0.4809  0.0189
  761MOL0     C  330   6.499  10.959   2.380 -0.8355 -0.3085 -0.1523
  761MOL0     C  331   6.430  10.826   2.356  0.1204 -0.8935  0.1581
  761MOL0     C  332   6.286  10.843   2.307  0.3687  0.3621  0.3566
  761MOL0     C  333   6.224  10.699   2.300  0.4567  0.2460  0.0350
  761MOL0     C  334   6.094  10.715   2.223  0.1872 -0.1954 -0.3117
  761MOL0     C  335   6.019  10.574   2.219 -0.4304  0.2277  0.7856
  761MOL0     C  336   6.014  10.504   2.355 -0.1077  0.3684 -0.4155
  761MOL0     N  337   5.923  10.392   2.360  0.0652 -0.1067  0.5023
  761MOL0     C  338   5.930  10.284   2.278  0.3287  0.0972  0.5415
  761MOL0     C  339   5.841  10.195   2.329 -0.7464 -0.8343 -0.9827
  761MOL0     C  340   5.809  10.052   2.285 -0.5173  0.8310  0.3077
  761MOL0     C  341   5.849   9.947   2.398  0.5143 -0.4693  0.7956
  761MOL0     C  342   5.734   9.933   2.502  0.2094 -0.0502  0.2674
  761MOL0     C  343   5.734   9.807   2.590 -0.6127 -0.4989  0.0993
  761MOL0     O  344   5.704   9.681   2.515  0.2187 -0.0795  0.0870
  761MOL0     C  345   5.632   9.584   2.576  0.1957 -0.6340  0.7631
  761MOL0     C  346   5.649   9.548   2.708 -0.4642 -0.8022 -0.7946
  761MOL0     C  347   5.569   9.461   2.772  0.2731 -0.4592  0.6857
  761MOL0     C  348   5.450   9.417   2.703 -0.3478  0.0616 -0.5471
  761MOL0     C  349   5.377   9.313   2.767 -0.2205  0.2600 -0.6492
  761MOL0     O  350   5.293   9.248   2.682  0.5522  0.1843 -0.0231
  761MOL0     C  351   5.219   9.150   2.744 -0.6670  0.1810  0.4205
  761MOL0     C  352   5.091   9.174   2.790  0.4551  0.4921 -0.1121
  761MOL0     C  353   5.000   9.068   2.825 -0.3018  0.0060  1.2066
  761MOL0     C  354   5.053   8.936   2.839 -0.0180 -0.0290 -0.5131
  761MOL0     O  355   4.959   8.844   2.842  0.0452 -0.0462  0.5508
  761MOL0     C  356   4.974   8.731   2.937 -0.2830 -0.5516  0.0270
  761MOL0     C  357   4.835   8.675   2.971 -0.0675 -0.6146 -0.0129
  761MOL0     C  358   4.724   8.778   3.015 -0.5996  0.1467 -0.5749
  761MOL0     C  359   4.761   8.835   3.150 -1.2476 -0.1582 -0.1368
  761MOL0     C  360   4.684   8.954   3.188 -0.9543 -0.1882  0.3082
  761MOL0     C  361   4.723   9.072   3.096 -0.5936  0.0736 -0.2703
  761MOL0     C  362   4.613   9.190   3.091 -0.0343  0.3185  0.9866
  761MOL0     C  363   4.550   9.213   3.230  0.4912  0.6001  0.3638
  761MOL0    Cl  364   4.458   9.371   3.215  0.2999 -0.1661 -0.2963
  761MOL0     C  365   5.198   8.924   2.821  1.0104  0.5316  0.3421
  761MOL0     C  366   5.278   9.027   2.775  0.5401  0.6826 -0.2253
  761MOL0     O  367   5.387   9.292   2.893  0.1871  0.0382 -0.4650
  761MOL0     C  368   5.426   9.462   2.574 -0.1561  0.2523  0.2218
  761MOL0     C  369   5.515   9.545   2.508 -0.3116  0.1179  0.0145
  761MOL0     N  370   5.773  10.264   2.434 -0.7772  0.2458  0.1446
  761MOL0     N  371   5.821  10.378   2.454  0.2466 -0.3022  0.2734
  761MOL0     C  372   6.911  10.924   2.517 -0.4228  0.1632 -0.5541
  761MOL0     C  373   7.049  10.938   2.537  0.0334  0.0314 -0.2554
  761MOL0     C  374   7.504  10.809   2.521  1.0465  0.4680 -0.0700
  761MOL0     C  375   7.568  10.926   2.480  0.2223 -0.2015  0.7126
  761MOL0     C  376   7.706  10.954   2.502  0.2372 -0.2778 -0.6539
  761MOL0     C  377   7.782  10.854   2.553  0.1331 -0.8855 -0.0114
  761MOL0     O  378   7.913  10.856   2.592  0.1866 -0.7377 -0.9996
  761MOL0     C  379   7.963  10.989   2.592 -0.0244  0.8046 -0.4828
  761MOL0     C  380   8.114  10.968   2.621  0.1553  0.0871  0.2623
  761MOL0     C  381   8.191  11.096   2.644 -0.1993  0.4542  0.5676
  761MOL0     C  382   8.326  11.055   2.688 -0.4035 -0.2391  0.8818
  761MOL0     C  383   8.434  11.140   2.645 -0.5455  0.4222 -0.3132
  761MOL0     C  384   8.542  11.200   2.626  0.0998  0.8794  0.5004
  761MOL0     C  385   7.719  10.725   2.585 -0.9018 -0.1554 -1.0009
  761MOL0     C  386   7.582  10.709   2.587  0.8709 -0.3675  1.0592
  761MOL0     H  387   7.169  10.881   2.226 -0.3264  0.4155 -0.7120
  761MOL0     H  388   6.911  10.857   2.189  0.2709 -1.9977  0.5409
  761MOL0     H  389   6.670  11.039   2.482  2.2426 -2.4933  4.2931
  761MOL0     H  390   6.634  10.881   2.539 -1.7430  1.7516  1.5330
  761MOL0     H  391   6.523  11.016   2.289  0.1788  0.2089  0.4286
  761MOL0     H  392   6.445  11.013   2.458  1.2489  1.3245  0.2507
  761MOL0     H  393   6.425  10.774   2.452  0.7054  1.1556  1.3601
  761MOL0     H  394   6.480  10.764   2.281 -0.2511  1.3697 -2.1198
  761MOL0     H  395   6.235  10.910   2.377 -0.8638  1.1823 -1.2739
  761MOL0     H  396   6.296  10.890   2.209  1.9950 -1.7141 -0.5530
  761MOL0     H  397   6.210  10.651   2.397 -0.6129 -3.7566 -1.8699
  761MOL0     H  398   6.297  10.637   2.245  1.9684  1.5945  0.4502
  761MOL0     H  399   6.126  10.747   2.123  2.0358 -3.8358 -1.0280
  761MOL0     H  400   6.035  10.789   2.278 -0.5990  0.3379 -1.8108
  761MOL0     H  401   5.922  10.585   2.171  0.4933  2.4419 -0.7137
  761MOL0     H  402   6.078  10.517   2.148 -0.7455 -2.9812  2.8812
  761MOL0     H  403   5.988  10.570   2.439  1.1772  0.4919 -0.0907
  761MOL0     H  404   6.108  10.454   2.381 -0.7096 -0.3300  0.4790
  761MOL0     H  405   6.002  10.276   2.197  3.0874  0.0609  2.8424
  761MOL0     H  406   5.865  10.023   2.196 -2.7414  1.3318 -1.3453
  761MOL0     H  407   5.703  10.046   2.258  0.3436 -1.3020 -3.1683
  761MOL0     H  408   5.936   9.980   2.456  0.6951 -2.3983  1.7137
  761MOL0     H  409   5.861   9.853   2.344 -1.2989  0.4369 -1.3121
  761MOL0     H  410   5.738  10.008   2.582  0.7712  2.1277 -1.7058
  761MOL0     H  411   5.640   9.941   2.447  0.8845  0.1401 -0.8789
  761MOL0     H  412   5.657   9.828   2.665 -1.3116 -0.3595 -0.6413
  761MOL0     H  413   5.830   9.800   2.641 -1.3060  0.0944  1.5454
  761MOL0     H  414   5.726   9.593   2.771 -1.3764  0.0513 -0.2635
  761MOL0     H  415   5.588   9.429   2.874 -2.3862 -1.7977  0.8716
  761MOL0     H  416   5.054   9.276   2.790  1.1477  0.8054  2.0131
  761MOL0     H  417   4.896   9.082   2.850 -0.6668 -0.2799 -0.1051
  761MOL0     H  418   5.025   8.762   3.028  0.7671 -0.8520 -0.4387
  761MOL0     H  419   5.034   8.652   2.890  1.6043  1.4614 -1.1487
  761MOL0     H  420   4.844   8.586   3.033  0.2265  0.5612  1.6969
  761MOL0     H  421   4.792   8.644   2.875  2.4017  1.7552 -2.0474
  761MOL0     H  422   4.631   8.722   3.032 -0.1761 -0.8230 -1.3010
  761MOL0     H  423   4.718   8.847   2.930  0.4945  0.1171 -0.6905
  761MOL0     H  424   4.750   8.751   3.219 -0.9009  0.7950  1.1256
  761MOL0     H  425   4.868   8.858   3.151 -0.5399 -3.0965  0.3841
  761MOL0     H  426   4.707   8.978   3.292 -0.2471  2.1995 -0.3430
  761MOL0     H  427   4.575   8.941   3.185 -1.1501  1.4318 -0.0952
  761MOL0     H  428   4.725   9.039   2.992 -1.8694  0.1810 -0.3506
  761MOL0     H  429   4.816   9.118   3.130 -0.9787  1.6175 -1.1897
  761MOL0     H  430   4.664   9.280   3.055  0.8866 -0.4624  0.2658
  761MOL0     H  431   4.537   9.156   3.019  2.4844 -4.7783  0.2773
  761MOL0     H  432   4.632   9.216   3.302 -0.7583 -3.0024  2.2045
  761MOL0     H  433   4.492   9.131   3.273 -1.4773  1.0960 -1.1876
  761MOL0     H  434   5.226   8.821   2.837 -4.4370 -1.9373 -3.0750
  761MOL0     H  435   5.381   9.008   2.747  0.0785 -1.4076 -0.6511
  761MOL0     H  436   5.337   9.416   2.531 -0.3992 -0.5949  1.5602
  761MOL0     H  437   5.503   9.570   2.404 -0.1733  0.5784  0.1069
  761MOL0     H  438   6.841  10.914   2.600 -1.1988 -1.6198 -1.3493
  761MOL0     H  439   7.084  10.974   2.633 -0.3720 -1.4266  0.4671
  761MOL0     H  440   7.514  11.007   2.432  1.5038 -2.1507 -4.6501
  761MOL0     H  441   7.741  11.049   2.464 -2.3524  0.1890 -2.1055
  761MOL0     H  442   7.924  11.043   2.679 -2.4468  0.3606 -1.1947
  761MOL0     H  443   7.949  11.055   2.505  0.9136  3.9972  1.6192
  761MOL0     H  444   8.135  10.900   2.704  1.6438  0.5091  0.2560
  761MOL0     H  445   8.161  10.917   2.537  1.7414  0.1979  1.0600
  761MOL0     H  446   8.131  11.163   2.706 -3.1671 -0.7604 -0.7796
  761MOL0     H  447   8.194  11.152   2.550 -2.5842  2.5947  1.6344
  761MOL0     H  448   8.320  11.055   2.798  1.0107  1.0719  0.9854
  761MOL0     H  449   8.363  10.956   2.657 -0.5080 -0.6447  1.9886
  761MOL0     H  450   8.624  11.259   2.591 -0.4537  2.2874  1.4729
  761MOL0     H  451   7.785  10.647   2.622 -2.0019 -0.6260  0.0255
  761MOL0     H  452   7.527  10.618   2.612  0.4008 -0.6992 -1.0236
  762MOL0     O  453   2.401   7.026   2.302 -0.3759  0.0310  0.4050
  762MOL0     C  454   2.391   7.119   2.217 -0.0753 -0.7049 -0.5263
  762MOL0     O  455   2.272   7.185   2.176  0.8014  0.4119 -0.5153
  762MOL0     C  456   2.149   7.137   2.210 -0.7498 -0.7907 -0.0203
  762MOL0     C  457   2.111   7.136   2.343  0.7106  0.1259  0.1325
  762MOL0     C  458   1.993   7.067   2.374  0.3531  0.6645  0.0783
  762MOL0     C  459   1.925   6.996   2.271  0.1304  0.7659 -0.0484
  762MOL0     O  460   1.824   6.918   2.316  0.5879  0.3231  0.5630
  762MOL0     C  461   1.776   6.819   2.218 -0.6242 -0.1425 -0.9371
  762MOL0     C  462   1.657   6.735   2.282 -0.4219 -0.6251 -0.2060
  762MOL0     C  463   1.547   6.828   2.322  0.7495 -0.2286  0.4872
  762MOL0     C  464   1.440   6.735   2.388 -0.6555 -0.1627 -0.7095
  762MOL0     C  465   1.315   6.799   2.438  0.4127  0.1427  0.4404
  762MOL0     C  466   1.198   6.806   2.335  0.4568  1.2498 -0.5100
  762MOL0     C  467   1.062   6.815   2.404  0.2105  0.3082  0.4268
  762MOL0     C  468   1.052   6.932   2.508  0.9518 -1.1405 -0.5903
  762MOL0     N  469   0.922   6.909   2.581  0.9112 -0.3032 -0.6071
  762MOL0     C  470   0.906   6.880   2.713  0.0878 -0.1515  0.2620
  762MOL0     C  471   0.776   6.888   2.749 -0.4846 -0.3228  0.1072
  762MOL0     C  472   0.717   6.847   2.880  0.2577  0.1101  0.7196
  762MOL0     C  473   0.580   6.903   2.883  1.1360  0.2501  0.0599
  762MOL0     C  474   0.501   6.853   3.012 -0.7016 -1.2287  0.1106
  762MOL0     C  475   0.367   6.927   3.026 -0.2134  0.2743 -0.2340
  762MOL0     O  476   0.327   6.903   3.163  0.0028  0.2816 -0.4030
  762MOL0     C  477   0.195   6.906   3.186  0.3884  0.3515 -0.3335
  762MOL0     C  478   0.140   6.828   3.290  0.8974 -0.1784 -1.3968
  762MOL0     C  479  -0.001   6.811   3.314 -0.5031  0.4464  0.1225
  762MOL0     C  480  -0.081   6.898   3.248 -0.0642  0.2172  0.4143
  762MOL0     C  481  -0.224   6.894   3.285  0.2168  0.7875 -0.3442
  762MOL0     O  482  -0.281   6.767   3.312  0.0924 -0.0526 -0.0665
  762MOL0     C  483  -0.416   6.774   3.324 -0.1625  0.8648 -0.0045
  762MOL0     C  484  -0.478   6.785   3.449 -0.5831 -0.0434  0.2399
  762MOL0     C  485  -0.614   6.790   3.447  0.2300  0.0368 -0.3600
  762MOL0     C  486  -0.694   6.755   3.333  0.2076  0.0023 -0.0460
  762MOL0     O  487  -0.827   6.734   3.328 -0.2914 -0.6621 -0.0510
  762MOL0     C  488  -0.903   6.780   3.436 -0.0226 -0.0895  0.2385
  762MOL0     C  489  -1.054   6.768   3.394 -0.8609  0.2341  0.4516
  762MOL0     C  490  -1.148   6.818   3.513 -0.6646 -0.4839 -0.2568
  762MOL0     C  491  -1.273   6.888   3.469 -0.7833 -0.6703  0.2007
  762MOL0     C  492  -1.367   6.906   3.583  0.1845  0.3493 -0.1287
  762MOL0     C  493  -1.505   6.944   3.524  1.0940  0.0776 -1.2098
  762MOL0     C  494  -1.594   7.035   3.610 -0.3134 -0.4534 -0.6432
  762MOL0     C  495  -1.657   6.969   3.737 -0.0014  0.3544  0.1042
  762MOL0    Cl  496  -1.812   6.900   3.707  0.3910  0.0313  0.1624
  762MOL0     C  497  -0.628   6.744   3.213 -0.0014  0.0584  0.6263
  762MOL0     C  498  -0.487   6.742   3.211  0.0829  0.0312  0.6609
  762MOL0     O  499  -0.280   7.001   3.267 -0.0153 -0.8381 -0.0812
  762MOL0     C  500  -0.033   6.987   3.149 -0.2461 -0.0715 -0.1454
  762MOL0     C  501   0.102   6.986   3.112 -0.3713  0.5352  0.2877
  762MOL0     N  502   0.713   6.930   2.640  0.1040  0.6807  0.6739
  762MOL0     N  503   0.798   6.959   2.543  0.0985 -0.2910  0.3965
  762MOL0     C  504   1.966   7.010   2.140  0.7225  0.3725 -0.1499
  762MOL0     C  505   2.080   7.076   2.106  0.3399  0.6637 -0.6677
  762MOL0     C  506   2.522   7.151   2.160 -0.2414 -0.1381 -0.3003
  762MOL0     C  507   2.636   7.068   2.185 -0.0533 -0.5482 -0.2515
  762MOL0     C  508   2.763   7.128   2.156 -0.1146  0.0015 -0.3448
  762MOL0     C  509   2.780   7.242   2.080  0.3889  0.3228 -0.3323
  762MOL0     O  510   2.906   7.286   2.043 -0.5165  0.1420 -0.0227
  762MOL0     C  511   3.033   7.230   2.090 -0.3217 -0.1101  0.0407
  762MOL0     C  512   3.048   7.258   2.248  0.4169  0.0143  0.1639
  762MOL0     C  513   3.105   7.396   2.276 -0.2302 -0.3478  0.5348
  762MOL0     C  514   3.139   7.417   2.420  1.2921 -0.9514 -0.2138
  762MOL0     C  515   3.145   7.559   2.456 -0.9052 -0.1817 -0.0740
  762MOL0     C  516   3.169   7.674   2.486  0.1268 -0.2284  0.2338
  762MOL0     C  517   2.667   7.319   2.050 -0.3928 -0.0350 -0.6606
  762MOL0     C  518   2.549   7.274   2.095  0.5477 -0.3351 -0.5627
  762MOL0     H  519   2.159   7.198   2.418 -2.2317  1.4926  1.0487
  762MOL0     H  520   1.962   7.063   2.478  0.1099 -1.2647 -0.0277
  762MOL0     H  521   1.856   6.747   2.199  0.7635  0.6708  1.4402
  762MOL0     H  522   1.747   6.860   2.120 -1.5344 -0.0034 -0.6221
  762MOL0     H  523   1.693   6.672   2.364  0.6396  0.2841  0.0531
  762MOL0     H  524   1.617   6.666   2.207 -1.8007 -0.8840  0.7228
  762MOL0     H  525   1.510   6.882   2.235  2.8457 -0.5379 -0.6804
  762MOL0     H  526   1.587   6.889   2.403  0.2649 -1.2063  1.4951
  762MOL0     H  527   1.411   6.655   2.320 -0.0846  0.2029 -1.3935
  762MOL0     H  528   1.492   6.696   2.475 -2.0546  0.5383  0.4847
  762MOL0     H  529   1.343   6.901   2.467 -2.0290  1.3358 -1.0612
  762MOL0     H  530   1.280   6.735   2.519 -1.1037 -1.1821 -1.1771
  762MOL0     H  531   1.200   6.715   2.273 -1.0036  1.8062 -1.4230
  762MOL0     H  532   1.205   6.885   2.260 -0.7661  2.8523  0.9801
  762MOL0     H  533   0.981   6.817   2.330 -1.0499  1.7593  1.7776
  762MOL0     H  534   1.053   6.717   2.452  3.0740 -0.0968  0.2921
  762MOL0     H  535   1.056   7.032   2.464  1.6372 -1.4705 -1.2942
  762MOL0     H  536   1.131   6.928   2.584 -0.4362 -2.3110  0.8787
  762MOL0     H  537   0.977   6.852   2.791 -0.2213 -0.1499  0.5481
  762MOL0     H  538   0.770   6.892   2.964 -1.2843  2.0648  0.7344
  762MOL0     H  539   0.737   6.740   2.884  1.1797  0.2610  0.3578
  762MOL0     H  540   0.524   6.871   2.795 -0.0384  2.6900 -0.1706
  762MOL0     H  541   0.578   7.013   2.884 -5.3011  0.5012 -0.3917
  762MOL0     H  542   0.502   6.744   3.003  0.3311 -1.2014 -0.2826
  762MOL0     H  543   0.551   6.893   3.102  0.8353 -0.7873 -0.8884
  762MOL0     H  544   0.296   6.898   2.948 -0.8504  0.5747  0.2239
  762MOL0     H  545   0.371   7.035   3.008 -2.3105  0.4731  0.2828
  762MOL0     H  546   0.208   6.762   3.343  0.6428  1.1566  0.7028
  762MOL0     H  547  -0.034   6.740   3.389 -0.2475  1.5696  1.3519
  762MOL0     H  548  -0.422   6.788   3.542 -2.3569  1.1228  1.3245
  762MOL0     H  549  -0.660   6.791   3.546 -2.1191 -5.8115 -0.9839
  762MOL0     H  550  -0.876   6.884   3.458 -2.3668  0.5870  0.2479
  762MOL0     H  551  -0.884   6.713   3.520 -1.6565 -0.6899  0.1799
  762MOL0     H  552  -1.072   6.663   3.369  0.2886  0.3778 -1.0687
  762MOL0     H  553  -1.071   6.833   3.308 -1.5328 -1.5371 -0.8053
  762MOL0     H  554  -1.090   6.884   3.578 -0.3671 -3.1502  2.4096
  762MOL0     H  555  -1.174   6.728   3.569 -0.7229 -1.8342 -2.3378
  762MOL0     H  556  -1.233   6.985   3.439  0.3618 -1.0798  0.3500
  762MOL0     H  557  -1.303   6.846   3.372  1.1409 -0.0058 -0.7130
  762MOL0     H  558  -1.337   6.991   3.644 -0.3204  0.8445 -0.5598
  762MOL0     H  559  -1.369   6.814   3.642  0.7777  0.1960 -0.3471
  762MOL0     H  560  -1.562   6.853   3.501 -2.1557  1.2024  1.4263
  762MOL0     H  561  -1.488   6.991   3.427  1.2995  1.2833 -0.6056
  762MOL0     H  562  -1.553   7.136   3.622  0.8075 -0.9917  0.1789
  762MOL0     H  563  -1.688   7.049   3.556  0.4218  2.7254 -1.3142
  762MOL0     H  564  -1.671   7.047   3.813 -0.6579 -0.8339  1.2583
  762MOL0     H  565  -1.589   6.899   3.787 -2.4285 -0.9750  1.7484
  762MOL0     H  566  -0.677   6.716   3.120 -1.0623 -3.2207  2.0090
  762MOL0     H  567  -0.443   6.732   3.113  2.1791 -2.6212  1.7385
  762MOL0     H  568  -0.092   7.060   3.095 -0.7900 -0.2093  0.2595
  762MOL0     H  569   0.145   7.053   3.038 -0.2054  0.1942  0.0770
  762MOL0     H  570   1.903   6.981   2.057  0.7193 -0.7706  0.2453
  762MOL0     H  571   2.132   7.081   2.011 -0.0560 -0.4357 -0.9558
  762MOL0     H  572   2.643   6.972   2.235 -0.7942  0.2324  1.4156
  762MOL0     H  573   2.858   7.081   2.180  1.2842  1.6004 -2.3750
  762MOL0     H  574   3.123   7.269   2.043 -0.3625 -1.2502 -1.0148
  762MOL0     H  575   3.028   7.125   2.062 -0.3182  0.5276 -2.6514
  762MOL0     H  576   2.954   7.251   2.305  0.7128  3.2404  1.2241
  762MOL0     H  577   3.120   7.181   2.277 -0.2173 -0.2760  1.0295
  762MOL0     H  578   3.031   7.474   2.254  0.8330  0.8096  0.9354
  762MOL0     H  579   3.188   7.425   2.210 -2.0451 -0.6021 -2.0143
  762MOL0     H  580   3.053   7.368   2.465  2.0274 -1.9442  0.1362
  762MOL0     H  581   3.229   7.362   2.448 -0.9510 -3.9007  1.7370
  762MOL0     H  582   3.160   7.774   2.523  0.2953 -0.3360  0.5674
  762MOL0     H  583   2.678   7.419   2.011  3.7167  0.6500  1.6494
  762MOL0     H  584   2.460   7.335   2.111 -0.6034 -2.6766  3.8635
  763MOL0     O  585   2.040   9.875   7.800 -0.1443  0.3263  0.5017
  763MOL0     C  586   2.118   9.931   7.881 -0.2005 -0.5239  0.8372
  763MOL0     O  587   2.075   9.977   8.009  0.3835  0.4694 -0.0233
  763MOL0     C  588   1.936   9.960   8.041  0.0218 -0.8209 -0.4609
  763MOL0     C  589   1.840  10.058   8.041  0.3259 -0.6719  0.2075
  763MOL0     C  590   1.718  10.035   8.096 -0.0498  0.5210  0.7828
  763MOL0     C  591   1.678   9.911   8.143 -0.2094  0.9729 -0.0349
  763MOL0     O  592   1.554   9.912   8.208 -0.4221 -1.1094 -0.0400
  763MOL0     C  593   1.499   9.780   8.244 -0.3550  0.2772 -0.6594
  763MOL0     C  594   1.353   9.804   8.276  0.9152  0.5105  0.3575
  763MOL0     C  595   1.320   9.909   8.385 -0.0143  0.0734 -0.8295
  763MOL0     C  596   1.372   9.854   8.516 -0.7101  0.3944 -0.6426
  763MOL0     C  597   1.349   9.946   8.639 -0.0158 -0.1469 -0.2240
  763MOL0     C  598   1.416   9.885   8.771  0.2565 -0.0283  1.0493
  763MOL0     C  599   1.391   9.978   8.893 -0.8506 -0.0075  0.3601
  763MOL0     C  600   1.256   9.942   8.945  0.3220 -0.3814 -0.2990
  763MOL0     N  601   1.275   9.845   9.061  0.1659 -0.7477 -0.5784
  763MOL0     C  602   1.318   9.714   9.047 -0.7322 -0.4687  0.7887
  763MOL0     C  603   1.325   9.676   9.175  0.0350  0.2131 -0.2522
  763MOL0     C  604   1.362   9.531   9.204  0.1194 -0.4941  0.8127
  763MOL0     C  605   1.515   9.513   9.182  0.1067  0.3056 -0.5651
  763MOL0     C  606   1.587   9.588   9.302  0.0885  0.0138  1.3718
  763MOL0     C  607   1.741   9.583   9.290 -0.2615 -0.8707  0.0115
  763MOL0     O  608   1.791   9.655   9.406 -0.2423 -1.0136 -0.4551
  763MOL0     C  609   1.931   9.677   9.405  0.3662 -0.0789  0.0346
  763MOL0     C  610   1.983   9.758   9.508 -0.2473  0.5929 -1.0141
  763MOL0     C  611   2.116   9.804   9.508 -0.3942  0.2010 -1.4153
  763MOL0     C  612   2.204   9.766   9.405  0.6482 -0.4024 -0.1185
  763MOL0     C  613   2.341   9.820   9.398  0.3474 -0.6064 -0.0454
  763MOL0     O  614   2.423   9.766   9.298 -0.3910  0.1134  0.0760
  763MOL0     C  615   2.550   9.817   9.288  0.3523  0.2441 -0.2393
  763MOL0     C  616   2.638   9.789   9.393 -0.1157 -0.2373  0.0038
  763MOL0     C  617   2.773   9.827   9.380  0.6482  0.3696  0.0746
  763MOL0     C  618   2.818   9.901   9.262 -0.0422  0.1410 -0.1597
  763MOL0     O  619   2.949   9.917   9.253 -0.3589 -0.7518  0.1797
  763MOL0     C  620   3.004   9.980   9.135 -0.6296 -0.2608  1.0746
  763MOL0     C  621   3.153   9.993   9.142 -0.2313 -0.0423 -0.7435
  763MOL0     C  622   3.235   9.971   9.011 -0.7095  0.2623  0.4532
  763MOL0     C  623   3.382   9.992   9.024  0.3794 -0.4071  0.5369
  763MOL0     C  624   3.457   9.930   9.149 -0.2525  0.1854  0.2878
  763MOL0     C  625   3.614   9.923   9.115  0.3502 -0.5244 -0.6426
  763MOL0     C  626   3.681   9.909   9.250 -0.2206 -0.1340  0.1230
  763MOL0     C  627   3.832   9.915   9.244  0.5330 -0.1324  0.7387
  763MOL0    Cl  628   3.892   9.786   9.134  0.2438 -0.3568 -0.3922
  763MOL0     C  629   2.725   9.937   9.165 -0.1664  0.4144 -0.3839
  763MOL0     C  630   2.597   9.884   9.173 -0.2136  0.2443  0.2184
  763MOL0     O  631   2.377   9.900   9.486 -0.0484  0.1157  0.9341
  763MOL0     C  632   2.162   9.671   9.308  0.2219  0.3039  0.3714
  763MOL0     C  633   2.021   9.636   9.310 -0.6733  1.3434 -0.3867
  763MOL0     N  634   1.294   9.777   9.265  0.2900  0.6827  0.4488
  763MOL0     N  635   1.285   9.882   9.190  0.4262 -0.1286 -0.2776
  763MOL0     C  636   1.768   9.811   8.144 -0.6797  0.1667 -0.4070
  763MOL0     C  637   1.897   9.832   8.097 -0.8911 -0.5468 -0.9662
  763MOL0     C  638   2.257   9.947   7.842 -0.3347 -0.0242 -0.7227
  763MOL0     C  639   2.303   9.915   7.720 -0.7170  0.4081 -0.2649
  763MOL0     C  640   2.432   9.919   7.671 -0.1427  0.2932  0.0010
  763MOL0     C  641   2.523   9.954   7.765  0.2429  0.1645 -0.6329
  763MOL0     O  642   2.655   9.962   7.737 -0.4581  0.1909  0.1995
  763MOL0     C  643   2.697   9.941   7.600 -0.4672 -0.8447  0.4838
  763MOL0     C  644   2.848   9.968   7.576  0.1722 -0.5439 -0.1836
  763MOL0     C  645   2.876  10.113   7.623 -0.3637  0.1950  0.2835
  763MOL0     C  646   2.842  10.213   7.508 -0.5561  0.8701  0.3319
  763MOL0     C  647   2.942  10.194   7.399 -0.2291  0.0394  0.6453
  763MOL0     C  648   3.006  10.184   7.295  0.4087  0.3337 -0.1904
  763MOL0     C  649   2.485   9.971   7.901  0.2178  0.5232 -0.1215
  763MOL0     C  650   2.351   9.969   7.939  0.1927  0.4024  0.4821
  763MOL0     H  651   1.858  10.157   8.001 -0.4078 -0.1716  1.0583
  763MOL0     H  652   1.653  10.121   8.111 -0.2331  0.3783  0.8077
  763MOL0     H  653   1.558   9.748   8.330  1.5869  0.6013 -1.8101
  763MOL0     H  654   1.500   9.705   8.165 -0.3613 -1.0218  0.5414
  763MOL0     H  655   1.302   9.713   8.311  0.4651 -0.8687 -3.4115
  763MOL0     H  656   1.308   9.835   8.182  0.3417 -1.1648  0.0477
  763MOL0     H  657   1.213   9.932   8.388  0.4503  2.5327  2.2980
  763MOL0     H  658   1.365  10.009   8.380 -1.0812  1.1832  4.6417
  763MOL0     H  659   1.311   9.765   8.534  1.1125 -0.2978  3.1224
  763MOL0     H  660   1.479   9.832   8.510 -0.6237  0.4291  0.4435
  763MOL0     H  661   1.242   9.965   8.653  0.2714 -0.5896  3.6127
  763MOL0     H  662   1.401  10.039   8.615 -0.8821  0.2633 -0.5509
  763MOL0     H  663   1.525   9.897   8.767 -0.0433  3.9888  0.1731
  763MOL0     H  664   1.384   9.782   8.786 -1.7698  0.2766 -0.6583
  763MOL0     H  665   1.467   9.961   8.970 -1.8512  1.3674  1.7205
  763MOL0     H  666   1.401  10.083   8.864 -2.5194  0.0912  0.0425
  763MOL0     H  667   1.191   9.903   8.867  1.5171 -0.7096 -1.1566
  763MOL0     H  668   1.219  10.036   8.988  3.3120  1.1437 -0.7723
  763MOL0     H  669   1.346   9.655   8.960 -0.9492  0.0649  0.3464
  763MOL0     H  670   1.303   9.472   9.134 -2.3088  0.9772  1.5135
  763MOL0     H  671   1.334   9.496   9.303 -2.3053  3.3521  1.7285
  763MOL0     H  672   1.558   9.552   9.089  2.3576 -0.0294  0.2606
  763MOL0     H  673   1.545   9.408   9.192 -1.5745 -0.0119  2.0366
  763MOL0     H  674   1.564   9.695   9.302  3.6811  0.9248 -0.4640
  763MOL0     H  675   1.567   9.532   9.394 -0.5920 -0.7214  0.7936
  763MOL0     H  676   1.783   9.631   9.201  2.0109 -1.8514  0.4837
  763MOL0     H  677   1.767   9.479   9.269 -2.7543 -1.4637 -0.4670
  763MOL0     H  678   1.919   9.786   9.591 -1.2178 -3.9696  0.0424
  763MOL0     H  679   2.136   9.878   9.585  1.8116  0.6549 -2.3386
  763MOL0     H  680   2.606   9.725   9.474 -0.3420 -0.1663 -0.0289
  763MOL0     H  681   2.836   9.778   9.453 -2.1941 -3.6352  0.1857
  763MOL0     H  682   2.957  10.078   9.135 -0.7524 -0.2851 -0.7667
  763MOL0     H  683   2.975   9.925   9.045  0.7228 -0.6091  0.8265
  763MOL0     H  684   3.196   9.922   9.213  0.6837 -0.6859 -1.8847
  763MOL0     H  685   3.174  10.091   9.187 -2.1362  0.4457 -0.8445
  763MOL0     H  686   3.193  10.040   8.937  0.3052 -0.2960 -0.6681
  763MOL0     H  687   3.234   9.867   8.978 -1.9876  1.4059 -3.7416
  763MOL0     H  688   3.430   9.948   8.936 -0.6640  0.1444 -0.3382
  763MOL0     H  689   3.394  10.100   9.033  0.2247 -0.3330 -0.0947
  763MOL0     H  690   3.430   9.825   9.163  2.1667 -0.9419 -2.3607
  763MOL0     H  691   3.437   9.995   9.235  1.7027  0.0003  0.9359
  763MOL0     H  692   3.651  10.014   9.068 -0.0230 -1.8095 -3.6263
  763MOL0     H  693   3.634   9.840   9.047  0.4361 -1.8879  0.9883
  763MOL0     H  694   3.651   9.990   9.318  3.0209  0.2717  1.2357
  763MOL0     H  695   3.658   9.810   9.289 -1.1371 -0.1728 -0.4845
  763MOL0     H  696   3.857   9.904   9.350  0.6930  2.1813  1.0050
  763MOL0     H  697   3.871  10.015   9.222 -1.5411  0.5666 -0.0760
  763MOL0     H  698   2.757   9.997   9.081  1.0579  0.9825  0.4547
  763MOL0     H  699   2.539   9.880   9.081 -0.6298 -1.2837  0.5177
  763MOL0     H  700   2.231   9.645   9.229  1.1719  0.4014  1.1517
  763MOL0     H  701   2.001   9.567   9.228  1.6868 -2.0063  1.5806
  763MOL0     H  702   1.755   9.717   8.198  3.8131  0.3736  1.4873
  763MOL0     H  703   1.988   9.773   8.100  0.7135  1.6708 -2.5138
  763MOL0     H  704   2.225   9.875   7.657 -0.2678 -1.7659  0.4657
  763MOL0     H  705   2.462   9.899   7.569 -0.7022  2.0158 -0.5316
  763MOL0     H  706   2.649  10.014   7.534  2.4383  0.8519  0.0730
  763MOL0     H  707   2.683   9.837   7.568  2.0832 -1.1216  0.0501
  763MOL0     H  708   2.902   9.886   7.624  2.4242 -0.1074 -1.8271
  763MOL0     H  709   2.877   9.954   7.471  2.6729  1.2827  0.1707
  763MOL0     H  710   2.978  10.128   7.661  0.0726  0.0143 -0.7728
  763MOL0     H  711   2.815  10.137   7.711 -3.3945 -1.5532 -1.1821
  763MOL0     H  712   2.740  10.192   7.475  0.8522 -2.3227 -2.7269
  763MOL0     H  713   2.850  10.318   7.536  2.2192  0.8100  0.0672
  763MOL0     H  714   3.036  10.163   7.194 -0.9171  0.0001 -0.5303
  763MOL0     H  715   2.552   9.991   7.984 -0.4337  2.4396 -0.0188
  763MOL0     H  716   2.319   9.984   8.042  0.9487  0.0631  0.7764
  764MOL0     O  717   8.687   9.922   1.468 -0.5796 -0.4388 -0.1491
  764MOL0     C  718   8.739   9.847   1.549  0.1232 -0.2550 -0.4173
  764MOL0     O  719   8.691   9.803   1.666 -0.5973 -0.2296 -0.2974
  764MOL0     C  720   8.569   9.839   1.718 -0.3457 -0.2154  0.8396
  764MOL0     C  721   8.477   9.938   1.672 -0.2444 -0.4322 -0.7730
  764MOL0     C  722   8.353   9.953   1.733 -0.3785  0.3951  0.8239
  764MOL0     C  723   8.321   9.873   1.840 -0.1775  0.4878  0.6783
  764MOL0     O  724   8.197   9.871   1.892 -0.7259  0.2045  0.6050
  764MOL0     C  725   8.127   9.759   1.843  0.2687  0.5276  0.0743
  764MOL0     C  726   7.983   9.774   1.882  0.2072 -1.1873  0.3297
  764MOL0     C  727   7.932   9.892   1.800 -1.4073  0.9166  0.0238
  764MOL0     C  728   7.780   9.878   1.789 -0.1884 -0.0234  0.2409
  764MOL0     C  729   7.714  10.011   1.745  0.0003 -0.6344 -0.9515
  764MOL0     C  730   7.561   9.992   1.739 -0.3147  0.1177 -0.1909
  764MOL0     C  731   7.484  10.104   1.676 -0.1913  0.5198  0.2396
  764MOL0     C  732   7.493  10.125   1.516 -0.2909  0.4291 -0.2679
  764MOL0     N  733   7.410  10.242   1.480 -0.2569  0.2362  0.1852
  764MOL0     C  734   7.460  10.374   1.471 -0.3247 -0.4793  0.3186
  764MOL0     C  735   7.353  10.457   1.448 -0.9366 -0.0928  1.2041
  764MOL0     C  736   7.363  10.610   1.434  0.8666 -0.5923 -0.5160
  764MOL0     C  737   7.341  10.679   1.568 -0.0256  0.6759  0.1313
  764MOL0     C  738   7.220  10.643   1.658  0.0897  0.0764  0.2769
  764MOL0     C  739   7.082  10.652   1.595 -1.4182  0.4188  0.0275
  764MOL0     O  740   6.975  10.613   1.677 -0.7108 -0.5603  0.3470
  764MOL0     C  741   6.858  10.549   1.630 -0.5874  0.0213  0.3462
  764MOL0     C  742   6.743  10.550   1.717 -0.7911  0.2120  0.7760
  764MOL0     C  743   6.624  10.489   1.688  0.7540  1.0868 -0.4304
  764MOL0     C  744   6.609  10.423   1.562 -0.0144  0.8082 -0.2948
  764MOL0     C  745   6.489  10.355   1.520  0.0395 -0.2809  0.2415
  764MOL0     O  746   6.379  10.399   1.586  0.0429 -0.7346 -0.6661
  764MOL0     C  747   6.259  10.334   1.573  0.1049 -0.0680 -0.3995
  764MOL0     C  748   6.247  10.202   1.626 -0.0255  0.3784 -0.5196
  764MOL0     C  749   6.125  10.136   1.623  0.4055 -0.0970 -0.0173
  764MOL0     C  750   6.021  10.187   1.551 -0.0870  0.1959  0.0749
  764MOL0     O  751   5.905  10.106   1.553 -0.0681 -0.3251  0.2063
  764MOL0     C  752   5.821  10.125   1.666 -0.5374  0.5351  0.0964
  764MOL0     C  753   5.709  10.026   1.641  0.3746  0.1497 -0.4554
  764MOL0     C  754   5.587  10.049   1.730  0.4177  0.2439  0.1362
  764MOL0     C  755   5.509   9.921   1.749  0.7869 -0.2900 -0.5546
  764MOL0     C  756   5.388   9.953   1.847 -0.4860  0.5340  0.0045
  764MOL0     C  757   5.279   9.842   1.852 -0.1415  0.4771  0.2503
  764MOL0     C  758   5.333   9.710   1.915  0.2248 -0.0087  0.6017
  764MOL0     C  759   5.228   9.599   1.918 -0.2184 -0.4368  1.1269
  764MOL0    Cl  760   5.117   9.603   2.066  0.0229  0.1119 -0.0180
  764MOL0     C  761   6.035  10.318   1.494 -0.1930 -0.6590  0.6244
  764MOL0     C  762   6.150  10.386   1.507 -0.6910 -0.6946 -0.7474
  764MOL0     O  763   6.494  10.279   1.421  0.3883 -0.6030 -0.2610
  764MOL0     C  764   6.731  10.412   1.482  0.3783 -0.2294 -0.6160
  764MOL0     C  765   6.854  10.472   1.516  0.4311  0.0319 -0.3920
  764MOL0     N  766   7.243  10.376   1.450  0.3477  0.3024 -0.1029
  764MOL0     N  767   7.279  10.251   1.453  0.4202  0.4753  0.3124
  764MOL0     C  768   8.410   9.787   1.889 -0.0564 -0.3811  0.3789
  764MOL0     C  769   8.531   9.767   1.833  0.2572 -0.6976 -0.2978
  764MOL0     C  770   8.873   9.794   1.520  0.6051 -0.1985 -0.0787
  764MOL0     C  771   8.946   9.833   1.400  0.6050 -0.2472 -0.2014
  764MOL0     C  772   9.077   9.789   1.377 -0.4151 -0.4615  0.5591
  764MOL0     C  773   9.137   9.706   1.459  0.7163 -1.0051 -0.2301
  764MOL0     O  774   9.259   9.656   1.443 -0.4005  0.0057 -0.0784
  764MOL0     C  775   9.376   9.729   1.432  0.5074  0.2403  0.1664
  764MOL0     C  776   9.431   9.728   1.294 -0.5912  0.2343 -1.0792
  764MOL0     C  777   9.576   9.765   1.289  0.2159  0.3334  0.2508
  764MOL0     C  778   9.607   9.804   1.142 -0.4539 -0.0478 -1.0906
  764MOL0     C  779   9.744   9.847   1.117 -0.5041  0.5751 -0.4671
  764MOL0     C  780   9.860   9.869   1.101 -0.3643  0.1108  0.1315
  764MOL0     C  781   9.066   9.655   1.571  1.3078  0.3886  0.1402
  764MOL0     C  782   8.945   9.701   1.606 -0.3953  0.8792  0.0265
  764MOL0     H  783   8.498   9.988   1.578 -1.2542 -0.1074 -0.8422
  764MOL0     H  784   8.276  10.020   1.696 -2.0761 -0.8987  1.8573
  764MOL0     H  785   8.158   9.667   1.894 -0.8755 -0.0049 -0.1571
  764MOL0     H  786   8.130   9.749   1.735 -0.8386  2.0310 -0.1228
  764MOL0     H  787   7.978   9.803   1.988 -0.1309  1.2674 -0.2871
  764MOL0     H  788   7.921   9.687   1.860  0.4946 -1.3851  0.2907
  764MOL0     H  789   7.973   9.900   1.699  0.7707  0.5492  0.8249
  764MOL0     H  790   7.971   9.985   1.841  3.3070  0.0006 -1.7523
  764MOL0     H  791   7.757   9.813   1.704  2.6473  0.8027 -1.2954
  764MOL0     H  792   7.738   9.843   1.884 -0.6709  0.5263  0.2326
  764MOL0     H  793   7.747  10.042   1.645  2.7287  0.7733  0.2655
  764MOL0     H  794   7.730  10.087   1.822 -2.5037 -1.5843  0.6186
  764MOL0     H  795   7.536   9.979   1.845  0.9389 -2.1483 -0.1086
  764MOL0     H  796   7.558   9.898   1.683  0.5910  0.4628 -0.8411
  764MOL0     H  797   7.380  10.078   1.699 -0.5267  1.8259  0.2786
  764MOL0     H  798   7.510  10.200   1.722  2.2476  0.4972 -0.9133
  764MOL0     H  799   7.452  10.038   1.463 -0.1465 -0.9626  1.7829
  764MOL0     H  800   7.598  10.142   1.490 -0.3082  0.9084 -0.0327
  764MOL0     H  801   7.561  10.411   1.484 -0.7984  1.4817 -1.0235
  764MOL0     H  802   7.293  10.647   1.360  0.1699  0.7661  0.7744
  764MOL0     H  803   7.461  10.651   1.409  0.9875  1.5769  2.8206
  764MOL0     H  804   7.333  10.786   1.548  0.4803  0.9242  1.1583
  764MOL0     H  805   7.429  10.658   1.629 -0.6619 -2.6060  0.1106
  764MOL0     H  806   7.240  10.540   1.689  0.3694  0.3777  1.1261
  764MOL0     H  807   7.224  10.692   1.757  0.8911 -0.0934  0.3341
  764MOL0     H  808   7.084  10.589   1.506  0.2715 -0.8312  0.9033
  764MOL0     H  809   7.065  10.754   1.561  0.2419  0.7051 -0.0179
  764MOL0     H  810   6.757  10.601   1.812 -0.8253  2.5821 -0.4170
  764MOL0     H  811   6.538  10.486   1.754  1.5700  1.0903  0.6564
  764MOL0     H  812   6.339  10.156   1.659  1.7540  3.4097 -0.9015
  764MOL0     H  813   6.129  10.033   1.659  1.5967 -0.2471 -0.5011
  764MOL0     H  814   5.786  10.229   1.667  1.6022  1.4330 -3.1542
  764MOL0     H  815   5.876  10.108   1.759  1.3935  1.3853 -0.8482
  764MOL0     H  816   5.750   9.925   1.654  1.6168  0.7495  0.4688
  764MOL0     H  817   5.673  10.040   1.539  2.5099  2.6369 -0.9590
  764MOL0     H  818   5.527  10.139   1.712  0.1174 -0.4817 -3.1317
  764MOL0     H  819   5.622  10.071   1.831  0.0383 -0.5299  0.4422
  764MOL0     H  820   5.461   9.897   1.653  0.0295  2.0188 -0.8280
  764MOL0     H  821   5.568   9.836   1.783 -0.2467 -0.5583  0.6356
  764MOL0     H  822   5.338  10.037   1.799 -1.9885  0.0019  0.5520
  764MOL0     H  823   5.408   9.981   1.951  2.3637  0.0586 -0.3386
  764MOL0     H  824   5.245   9.820   1.751  0.6957 -1.9845  0.4269
  764MOL0     H  825   5.197   9.882   1.913 -0.7689 -0.7783  0.2632
  764MOL0     H  826   5.409   9.680   1.843 -0.3660  4.1476 -2.0611
  764MOL0     H  827   5.367   9.736   2.016  0.6202  2.3861 -0.0894
  764MOL0     H  828   5.268   9.498   1.913 -1.2130 -0.8211  0.8405
  764MOL0     H  829   5.171   9.610   1.826 -2.0650  0.3844  2.2928
  764MOL0     H  830   5.950  10.351   1.434 -0.6708 -2.4530  0.2513
  764MOL0     H  831   6.144  10.485   1.462  0.1652 -0.2651  0.0485
  764MOL0     H  832   6.726  10.357   1.389 -2.1788 -1.3901  0.1121
  764MOL0     H  833   6.929  10.458   1.438  1.7054  1.9215  0.4217
  764MOL0     H  834   8.382   9.732   1.978 -0.8690 -3.0481 -1.4069
  764MOL0     H  835   8.600   9.701   1.884 -0.9010 -2.2443 -0.6430
  764MOL0     H  836   8.897   9.879   1.315 -2.2488 -0.2406  1.3110
  764MOL0     H  837   9.135   9.818   1.290 -0.7659 -2.0684 -0.2575
  764MOL0     H  838   9.448   9.669   1.488 -2.5931 -1.9549  2.1766
  764MOL0     H  839   9.360   9.834   1.455  1.2156 -0.4922  5.0299
  764MOL0     H  840   9.405   9.631   1.251 -3.6408  1.9899 -3.6125
  764MOL0     H  841   9.380   9.806   1.237 -1.5505  0.9301  0.6675
  764MOL0     H  842   9.642   9.680   1.310  1.9079  0.8873 -2.4031
  764MOL0     H  843   9.591   9.858   1.346  1.6875  1.4802 -1.8881
  764MOL0     H  844   9.589   9.722   1.071  3.9649 -1.8249 -0.5120
  764MOL0     H  845   9.547   9.892   1.120  0.0410  0.3761 -0.7544
  764MOL0     H  846   9.960   9.891   1.069 -0.5349 -0.8590 -1.1872
  764MOL0     H  847   9.118   9.584   1.633  0.5031  0.4125  0.8600
  764MOL0     H  848   8.908   9.665   1.701 -0.0779  0.9121  0.1607
  765MOL0     O  849  10.736   1.503   9.025 -0.2492 -0.1408 -0.4811
  765MOL0     C  850  10.761   1.559   9.130  0.4219 -0.6785  0.0603
  765MOL0     O  851  10.676   1.647   9.190 -0.1652 -0.3395  0.1761
  765MOL0     C  852  10.585   1.706   9.106  0.1617  0.5999  0.0550
  765MOL0     C  853  10.491   1.635   9.025 -0.1072 -0.5062  0.1582
  765MOL0     C  854  10.405   1.707   8.939  0.4935  0.4841  0.7631
  765MOL0     C  855  10.402   1.849   8.933 -0.3397 -0.0266  0.1102
  765MOL0     O  856  10.307   1.901   8.850  0.2371 -0.4462 -0.5051
  765MOL0     C  857  10.299   2.051   8.833  0.5383 -0.4779 -0.3093
  765MOL0     C  858  10.178   2.088   8.756 -0.0850 -0.2477  0.1944
  765MOL0     C  859  10.143   2.238   8.768  0.0566 -0.1716  0.4575
  765MOL0     C  860  10.261   2.326   8.720  0.7111 -0.3291  0.1313
  765MOL0     C  861  10.220   2.468   8.693 -0.0896 -0.1216  0.1079
  765MOL0     C  862  10.281   2.586   8.778  0.6937  0.1481 -1.4670
  765MOL0     C  863  10.240   2.589   8.924  0.0965 -0.2343 -0.3508
  765MOL0     C  864  10.101   2.637   8.946  0.5439 -0.5352 -0.6186
  765MOL0     N  865  10.065   2.604   9.077  0.2923 -0.0096  0.1052
  765MOL0     C  866  10.021   2.478   9.117 -0.4381  0.2001  0.2139
  765MOL0     C  867   9.958   2.494   9.233  0.0693 -0.2333 -0.7463
  765MOL0     C  868   9.895   2.385   9.319 -0.4144  0.2524 -0.0415
  765MOL0     C  869   9.745   2.364   9.286  0.5549 -0.2194 -0.0767
  765MOL0     C  870   9.697   2.249   9.369  0.4721  1.2424 -0.9268
  765MOL0     C  871   9.697   2.279   9.518  0.4237 -0.0022 -0.2155
  765MOL0     O  872   9.628   2.181   9.597  0.5376  0.1275  0.3163
  765MOL0     C  873   9.495   2.184   9.622 -0.2487  0.4224 -0.4949
  765MOL0     C  874   9.426   2.066   9.613  0.0539  0.0628  1.0782
  765MOL0     C  875   9.290   2.052   9.647 -0.4633  0.1397 -0.4267
  765MOL0     C  876   9.213   2.159   9.696  0.5270  0.3866 -0.4902
  765MOL0     C  877   9.076   2.151   9.729  0.6363  0.8130 -0.2071
  765MOL0     O  878   9.021   2.031   9.767  0.0111  0.1619 -0.1362
  765MOL0     C  879   8.888   2.021   9.794 -0.4825  0.4844  0.5240
  765MOL0     C  880   8.803   2.041   9.688  0.9262 -0.1328  0.5029
  765MOL0     C  881   8.669   2.027   9.704  0.0426 -0.3329  0.0099
  765MOL0     C  882   8.612   1.982   9.830 -0.2646  0.4687  0.5861
  765MOL0     O  883   8.471   1.974   9.832  0.1650 -0.1861  0.4319
  765MOL0     C  884   8.411   1.972   9.961 -0.3160 -0.0136  0.3406
  765MOL0     C  885   8.252   1.979   9.964 -0.8093 -0.0374 -0.7687
  765MOL0     C  886   8.197   2.119   9.999  0.0923  0.0253  1.8558
  765MOL0     C  887   8.243   2.236   9.904  0.0397 -0.5028  0.0308
  765MOL0     C  888   8.170   2.366   9.942 -1.1019 -0.2741 -0.2672
  765MOL0     C  889   8.019   2.354   9.916  0.3661 -0.0740  0.3055
  765MOL0     C  890   7.932   2.354  10.048 -0.2501  0.0926  0.5513
  765MOL0     C  891   7.817   2.248  10.048 -1.1401  1.0970  0.2254
  765MOL0    Cl  892   7.687   2.285   9.925  0.0574 -0.7481  0.0582
  765MOL0     C  893   8.702   1.951   9.934 -0.5997  0.7809  0.4189
  765MOL0     C  894   8.839   1.973   9.918 -0.4531 -0.4345  0.0741
  765MOL0     O  895   9.012   2.261   9.729 -0.2228 -0.2163  0.0722
  765MOL0     C  896   9.284   2.280   9.714 -0.0467 -0.8793 -0.6834
  765MOL0     C  897   9.420   2.289   9.677  0.1026  0.2365  0.2466
  765MOL0     N  898   9.963   2.627   9.266 -0.1552 -0.4422 -0.0605
  765MOL0     N  899  10.024   2.697   9.171 -0.2840  0.6896 -0.9792
  765MOL0     C  900  10.499   1.919   9.013 -0.3038  0.1108  1.0206
  765MOL0     C  901  10.595   1.845   9.095 -0.2401  0.2878  0.9216
  765MOL0     C  902  10.889   1.541   9.191  0.3754  1.0553 -0.6820
  765MOL0     C  903  10.911   1.565   9.326  0.5781  0.0492 -0.0847
  765MOL0     C  904  11.033   1.582   9.385  0.6869 -0.5858 -0.2302
  765MOL0     C  905  11.151   1.545   9.312 -0.3677 -0.4444  0.2525
  765MOL0     O  906  11.273   1.568   9.383 -0.3695 -0.1258 -0.0788
  765MOL0     C  907  11.391   1.530   9.315 -0.7327 -0.4697 -0.1030
  765MOL0     C  908  11.515   1.539   9.411 -0.0981  0.1016 -0.0563
  765MOL0     C  909  11.560   1.688   9.450 -0.3716 -0.2452 -0.4950
  765MOL0     C  910  11.598   1.700   9.596 -0.1960 -0.2731  1.0122
  765MOL0     C  911  11.704   1.598   9.622  0.3726  0.9357  0.4561
  765MOL0     C  912  11.794   1.522   9.640  0.3598 -0.2269  1.0333
  765MOL0     C  913  11.134   1.504   9.174 -0.2251  0.4464 -1.5804
  765MOL0     C  914  11.004   1.509   9.117 -0.1623 -0.2884  0.8485
  765MOL0     H  915  10.489   1.527   9.025 -1.1869 -0.5518 -2.1283
  765MOL0     H  916  10.333   1.654   8.877  1.6096  0.3600 -0.4802
  765MOL0     H  917  10.385   2.078   8.771  1.5771 -3.7060 -0.4213
  765MOL0     H  918  10.316   2.106   8.927 -0.8662  0.6111 -0.6472
  765MOL0     H  919  10.099   2.033   8.809  2.5816 -1.7896  2.8632
  765MOL0     H  920  10.179   2.056   8.652  2.5417 -0.0960  0.1212
  765MOL0     H  921  10.111   2.269   8.867 -1.4757  2.8990 -0.8678
  765MOL0     H  922  10.064   2.259   8.695 -0.0687  0.1007  0.6720
  765MOL0     H  923  10.329   2.318   8.805  1.7215 -1.0845 -0.7242
  765MOL0     H  924  10.308   2.278   8.634  3.6222 -0.2987  1.5627
  765MOL0     H  925  10.112   2.477   8.705  0.0579  1.2112  0.6342
  765MOL0     H  926  10.225   2.486   8.585 -0.5989 -1.7704 -0.2288
  765MOL0     H  927  10.269   2.681   8.724 -0.6931 -0.2246 -1.8595
  765MOL0     H  928  10.390   2.581   8.787  0.4940 -1.4308  0.6631
  765MOL0     H  929  10.249   2.484   8.956  1.1243  0.0174  0.2182
  765MOL0     H  930  10.312   2.658   8.967  0.7122  0.1235 -1.8902
  765MOL0     H  931  10.025   2.598   8.878 -1.7933  2.5204  0.0641
  765MOL0     H  932  10.088   2.745   8.942 -1.1572 -0.6668  0.4289
  765MOL0     H  933  10.039   2.386   9.062 -2.8842  0.5538 -1.3108
  765MOL0     H  934   9.912   2.405   9.426  1.8851 -0.0904 -0.2929
  765MOL0     H  935   9.951   2.296   9.292  0.0419  0.3057  0.6986
  765MOL0     H  936   9.719   2.347   9.181 -0.5784 -2.1239  0.4637
  765MOL0     H  937   9.689   2.454   9.313  1.0496 -0.1332  0.6805
  765MOL0     H  938   9.595   2.228   9.336 -0.3160  2.3380  0.6799
  765MOL0     H  939   9.760   2.161   9.351 -0.1160 -0.1972  3.1238
  765MOL0     H  940   9.645   2.376   9.525 -0.6206 -0.6084  0.5962
  765MOL0     H  941   9.796   2.296   9.561 -0.2057  1.6785  0.6958
  765MOL0     H  942   9.483   1.988   9.562 -0.4169  1.8290 -2.5280
  765MOL0     H  943   9.245   1.956   9.627  0.2309 -0.5128  1.0028
  765MOL0     H  944   8.840   2.100   9.604  2.7209 -1.1942  0.5008
  765MOL0     H  945   8.607   2.067   9.625  0.5540 -0.0937 -0.2721
  765MOL0     H  946   8.455   2.040  10.035 -0.2805  0.7215 -0.3433
  765MOL0     H  947   8.435   1.871   9.994 -0.9736 -0.6677 -1.1296
  765MOL0     H  948   8.218   1.912  10.043 -2.0155  2.7970  1.2321
  765MOL0     H  949   8.206   1.950   9.869  1.7181  2.7220 -3.0513
  765MOL0     H  950   8.229   2.146  10.099  1.4288  2.6744  0.8042
  765MOL0     H  951   8.087   2.114   9.996  0.0999 -0.4531 -1.3612
  765MOL0     H  952   8.352   2.247   9.903  0.0990 -0.7289 -2.1304
  765MOL0     H  953   8.222   2.206   9.801  1.8254 -0.8931 -0.2488
  765MOL0     H  954   8.217   2.442   9.879 -1.6976 -2.5797 -3.7527
  765MOL0     H  955   8.201   2.381  10.046 -1.2014  4.0832 -0.6779
  765MOL0     H  956   7.987   2.260   9.870  3.0203 -0.2545 -1.4428
  765MOL0     H  957   7.990   2.426   9.839 -3.0993 -1.9023 -0.2767
  765MOL0     H  958   7.992   2.337  10.138  0.8361 -0.3689 -0.2286
  765MOL0     H  959   7.903   2.458  10.063 -0.9922 -0.2675  1.7794
  765MOL0     H  960   7.771   2.248  10.147 -1.0855  2.2133  0.2660
  765MOL0     H  961   7.855   2.150  10.018 -0.2387  1.2509  0.8443
  765MOL0     H  962   8.659   1.909  10.024 -0.8642 -3.6308 -1.4825
  765MOL0     H  963   8.909   1.941   9.994  1.3116  1.8461 -0.4822
  765MOL0     H  964   9.231   2.371   9.741 -1.5700 -1.9510  0.1181
  765MOL0     H  965   9.480   2.378   9.695  0.1367 -0.2956  3.2530
  765MOL0     H  966  10.514   2.025   8.995 -3.8239  0.5909  0.1291
  765MOL0     H  967  10.676   1.885   9.156 -2.0155  1.7645  2.4049
  765MOL0     H  968  10.828   1.596   9.389  1.2303 -0.7274  1.1672
  765MOL0     H  969  11.043   1.638   9.478 -1.7366  0.3961 -0.4827
  765MOL0     H  970  11.411   1.605   9.238 -0.7489  1.1992  1.4661
  765MOL0     H  971  11.387   1.427   9.278  0.1187 -0.1619 -1.0991
  765MOL0     H  972  11.498   1.485   9.504 -2.7470 -1.1875 -1.1656
  765MOL0     H  973  11.604   1.505   9.358  1.6697  1.3912  1.9169
  765MOL0     H  974  11.479   1.759   9.429 -0.6196 -1.0597 -2.5444
  765MOL0     H  975  11.641   1.721   9.384  2.4589 -1.1181  2.2755
  765MOL0     H  976  11.627   1.801   9.625 -1.2505  0.9283 -1.8323
  765MOL0     H  977  11.507   1.682   9.653 -2.1969  3.0676 -0.8395
  765MOL0     H  978  11.868   1.447   9.661  2.3618  1.2377 -0.4108
  765MOL0     H  979  11.218   1.473   9.112  1.4825  3.6038 -1.0764
  765MOL0     H  980  10.984   1.472   9.016  0.4314  3.1601 -0.6710
  766MOL0     O  981   6.843   1.564   8.950 -0.3521 -0.3881 -0.8280
  766MOL0     C  982   6.943   1.547   9.022 -0.6944  0.2181  1.2668
  766MOL0     O  983   6.938   1.514   9.156 -0.7732 -0.6169  0.1536
  766MOL0     C  984   6.820   1.513   9.230  0.1601  0.7739 -0.9915
  766MOL0     C  985   6.813   1.405   9.331  0.3871 -0.0180 -0.2917
  766MOL0     C  986   6.703   1.406   9.416 -0.3149 -0.1623  0.3715
  766MOL0     C  987   6.598   1.500   9.410  0.8323  0.1870  0.0380
  766MOL0     O  988   6.479   1.489   9.480  0.4006  0.2847  0.7297
  766MOL0     C  989   6.366   1.574   9.447 -0.3567 -0.8459  0.0488
  766MOL0     C  990   6.239   1.547   9.527  0.6156  0.1798 -0.9710
  766MOL0     C  991   6.220   1.390   9.555  0.1376  0.6097  0.0734
  766MOL0     C  992   6.102   1.350   9.648  0.0638  0.5939 -0.0253
  766MOL0     C  993   6.068   1.196   9.653 -0.1834 -0.9119 -0.8457
  766MOL0     C  994   5.927   1.165   9.725 -0.4112  0.9434  0.1556
  766MOL0     C  995   5.823   1.197   9.614 -0.5144 -0.2441  0.0038
  766MOL0     C  996   5.689   1.131   9.633 -0.4270 -0.3052 -0.8118
  766MOL0     N  997   5.632   1.157   9.763 -1.2253  0.3722  0.3153
  766MOL0     C  998   5.578   1.059   9.844  1.4150 -0.6942  0.0225
  766MOL0     C  999   5.517   1.122   9.946  0.6133 -0.2122  0.4521
  766MOL0     C 1000   5.446   1.056  10.064 -0.4378 -0.4597 -0.2834
  766MOL0     C 1001   5.294   1.082  10.052 -1.0054  0.7382  0.0429
  766MOL0     C 1002   5.224   1.010  10.173 -0.8966  0.7457  0.2653
  766MOL0     C 1003   5.081   1.067  10.190  0.2211 -0.0887 -0.1433
  766MOL0     O 1004   5.022   1.036  10.315  0.1963 -0.4978 -0.2091
  766MOL0     C 1005   4.892   1.068  10.336  0.1004  0.1921  0.5963
  766MOL0     C 1006   4.824   1.158  10.258  0.4551  0.1488 -0.0818
  766MOL0     C 1007   4.687   1.192  10.277 -0.7743  0.6130  0.0061
  766MOL0     C 1008   4.616   1.147  10.384  0.4902  0.2161 -0.4595
  766MOL0     C 1009   4.476   1.175  10.418 -0.3917 -0.5180 -0.4774
  766MOL0     O 1010   4.430   1.109  10.524 -0.3941  0.8124  0.3806
  766MOL0     C 1011   4.311   1.126  10.587  0.6788  0.5744  0.4398
  766MOL0     C 1012   4.257   1.017  10.664  0.7273  0.0698  0.1784
  766MOL0     C 1013   4.153   1.049  10.755  0.4605  0.2326  0.1909
  766MOL0     C 1014   4.078   1.170  10.748 -0.8068 -0.4374 -0.7020
  766MOL0     O 1015   3.979   1.192  10.842  0.0824 -0.0879 -0.1583
  766MOL0     C 1016   3.852   1.241  10.798 -0.6467 -0.0664  0.0379
  766MOL0     C 1017   3.756   1.127  10.796 -0.1254  0.2211 -0.4247
  766MOL0     C 1018   3.607   1.159  10.791  0.0985  0.3597 -0.0091
  766MOL0     C 1019   3.574   1.184  10.643  0.0374 -0.7801 -0.3917
  766MOL0     C 1020   3.424   1.207  10.627 -0.3914 -0.3148  0.1929
  766MOL0     C 1021   3.378   1.238  10.484 -0.2614 -0.3637  0.7121
  766MOL0     C 1022   3.224   1.211  10.466 -0.6664  1.3402  0.1394
  766MOL0     C 1023   3.140   1.299  10.551 -0.0494  0.6071 -0.1880
  766MOL0    Cl 1024   2.968   1.244  10.533  0.4655 -0.4141  0.2545
  766MOL0     C 1025   4.116   1.264  10.657 -0.2547 -0.3154 -0.4365
  766MOL0     C 1026   4.235   1.244  10.583  0.7377 -0.1561 -0.3548
  766MOL0     O 1027   4.409   1.259  10.350 -0.5417  0.5562 -0.0504
  766MOL0     C 1028   4.691   1.057  10.471 -0.2825  0.3087 -0.5320
  766MOL0     C 1029   4.822   1.030  10.451  0.2987 -0.0803 -0.8768
  766MOL0     N 1030   5.530   1.264   9.922 -0.1363 -0.0169 -0.2307
  766MOL0     N 1031   5.598   1.281   9.809 -0.2916  0.4086  0.0129
  766MOL0     C 1032   6.619   1.610   9.324 -0.7170 -0.2399  0.0915
  766MOL0     C 1033   6.726   1.619   9.244  0.6975  0.9076  0.4735
  766MOL0     C 1034   7.074   1.536   8.950 -1.8089  0.6312 -1.2005
  766MOL0     C 1035   7.189   1.473   9.016 -0.1060 -0.8674 -0.4841
  766MOL0     C 1036   7.312   1.476   8.944  0.3489  0.0569 -0.5796
  766MOL0     C 1037   7.323   1.508   8.809 -0.1776 -0.4832 -0.7200
  766MOL0     O 1038   7.446   1.491   8.758 -0.3221 -0.1961 -0.4055
  766MOL0     C 1039   7.478   1.565   8.635  0.6474 -0.0956  0.5001
  766MOL0     C 1040   7.483   1.455   8.522  0.0939  0.4158 -0.8833
  766MOL0     C 1041   7.510   1.516   8.379  0.2494  0.1789 -0.5897
  766MOL0     C 1042   7.643   1.594   8.371  0.4771  0.1838  0.9613
  766MOL0     C 1043   7.774   1.527   8.381  1.2008 -0.3082  0.1057
  766MOL0     C 1044   7.866   1.451   8.406 -0.0861 -0.7876 -0.4268
  766MOL0     C 1045   7.208   1.572   8.748 -0.2099  0.2595 -0.1295
  766MOL0     C 1046   7.087   1.585   8.821 -0.0768 -0.3855 -0.2066
  766MOL0     H 1047   6.895   1.335   9.338  1.0361  0.8497  1.4423
  766MOL0     H 1048   6.695   1.315   9.475  0.3018  0.2655  1.1327
  766MOL0     H 1049   6.357   1.555   9.340  3.0743 -0.6917 -0.3866
  766MOL0     H 1050   6.388   1.681   9.451  0.3358 -0.9143 -1.4966
  766MOL0     H 1051   6.150   1.597   9.486  0.5458  1.6546  0.8331
  766MOL0     H 1052   6.252   1.596   9.624  1.3046 -0.0905 -0.9246
  766MOL0     H 1053   6.312   1.362   9.606  0.7348 -1.1418 -1.8378
  766MOL0     H 1054   6.223   1.329   9.465 -0.8510  0.1515  0.3376
  766MOL0     H 1055   6.135   1.375   9.750 -5.8469  1.2595  2.0835
  766MOL0     H 1056   6.017   1.417   9.641 -0.4446  1.0262  5.7101
  766MOL0     H 1057   6.151   1.152   9.709 -2.2227 -1.4901  1.9662
  766MOL0     H 1058   6.066   1.149   9.555 -0.9558 -3.7500  0.4122
  766MOL0     H 1059   5.903   1.220   9.817 -2.3032  0.2878  0.0937
  766MOL0     H 1060   5.928   1.059   9.751  1.5324  0.4309 -1.7222
  766MOL0     H 1061   5.808   1.305   9.612 -0.6485 -0.1755  2.3526
  766MOL0     H 1062   5.864   1.154   9.521  2.1252 -0.5886  1.2395
  766MOL0     H 1063   5.696   1.022   9.619  1.8586 -0.2864 -0.0606
  766MOL0     H 1064   5.627   1.169   9.551  0.9076  1.9523 -0.8287
  766MOL0     H 1065   5.586   0.952   9.829  0.8412 -1.0339  1.9684
  766MOL0     H 1066   5.486   1.102  10.155  1.5249 -1.6596 -0.4879
  766MOL0     H 1067   5.470   0.952  10.085  3.2354  0.7914  3.0732
  766MOL0     H 1068   5.253   1.051   9.955 -1.2170  2.3864 -0.4302
  766MOL0     H 1069   5.277   1.189  10.068  1.0997  0.9189  1.4883
  766MOL0     H 1070   5.210   0.905  10.144 -0.5054  0.4469  1.1169
  766MOL0     H 1071   5.286   1.010  10.264 -2.4618 -4.6488  1.7299
  766MOL0     H 1072   5.009   1.020  10.122 -1.7379  3.6822 -0.9416
  766MOL0     H 1073   5.094   1.173  10.167  4.0668 -0.1298  1.1052
  766MOL0     H 1074   4.874   1.210  10.177  2.0518 -2.8796 -1.1781
  766MOL0     H 1075   4.629   1.253  10.208 -0.1156  0.6819 -0.4987
  766MOL0     H 1076   4.318   0.927  10.659  1.5755  0.7119 -2.8742
  766MOL0     H 1077   4.108   0.974  10.819 -0.5557  2.1741  1.8535
  766MOL0     H 1078   3.862   1.281  10.696  0.0911  0.5578  0.3478
  766MOL0     H 1079   3.822   1.317  10.870  2.5209  0.9987  0.4049
  766MOL0     H 1080   3.785   1.062  10.879  2.6262 -2.1976 -3.0353
  766MOL0     H 1081   3.777   1.055  10.716  0.5317  1.3276 -1.2752
  766MOL0     H 1082   3.587   1.248  10.851 -1.1158 -0.7310  1.2885
  766MOL0     H 1083   3.552   1.074  10.834  2.4866 -1.1775  0.1934
  766MOL0     H 1084   3.613   1.277  10.601 -0.8231 -0.2902 -0.1466
  766MOL0     H 1085   3.613   1.108  10.576  0.2848  0.3391 -1.5517
  766MOL0     H 1086   3.399   1.283  10.701  0.5385  0.3154 -0.1283
  766MOL0     H 1087   3.378   1.111  10.651  1.1130 -0.7772  1.4081
  766MOL0     H 1088   3.438   1.185  10.409 -1.2536 -1.5780  0.7323
  766MOL0     H 1089   3.400   1.339  10.450  0.1242 -1.2593 -1.9943
  766MOL0     H 1090   3.198   1.224  10.361 -1.4879 -0.2242  0.1197
  766MOL0     H 1091   3.201   1.108  10.494  2.0768  1.0912  1.8353
  766MOL0     H 1092   3.136   1.401  10.512 -0.1643 -0.0489 -2.0065
  766MOL0     H 1093   3.171   1.285  10.655 -0.6210  0.3278 -0.0533
  766MOL0     H 1094   4.071   1.363  10.656  2.0447  0.8076 -0.2948
  766MOL0     H 1095   4.265   1.334  10.530  0.0941  0.2123 -0.1075
  766MOL0     H 1096   4.636   1.001  10.547  1.0052 -0.2464  0.0312
  766MOL0     H 1097   4.865   0.968  10.530  0.2912 -0.6169 -1.2905
  766MOL0     H 1098   6.546   1.691   9.325 -1.4124 -0.8491  0.6232
  766MOL0     H 1099   6.735   1.710   9.185 -0.8602  1.6411  1.3048
  766MOL0     H 1100   7.173   1.419   9.109  1.1810  0.5541  0.6221
  766MOL0     H 1101   7.402   1.447   8.997  0.3248 -0.9553 -1.0808
  766MOL0     H 1102   7.583   1.593   8.637  1.2797 -2.2958  0.5132
  766MOL0     H 1103   7.413   1.652   8.619 -0.0188 -0.5661  0.5910
  766MOL0     H 1104   7.568   1.392   8.549  1.3676  1.5522 -2.0910
  766MOL0     H 1105   7.393   1.392   8.521  0.4503 -0.0977 -0.8780
  766MOL0     H 1106   7.433   1.587   8.349 -0.1978  0.1396  0.4126
  766MOL0     H 1107   7.519   1.431   8.312 -0.1913 -2.1808  2.1649
  766MOL0     H 1108   7.640   1.644   8.274  1.2210 -0.2915  0.6888
  766MOL0     H 1109   7.644   1.676   8.443  1.3335 -0.0858  1.2631
  766MOL0     H 1110   7.936   1.379   8.444 -2.1757 -1.3277  2.8933
  766MOL0     H 1111   7.206   1.595   8.642  0.5514  0.6825 -0.0601
  766MOL0     H 1112   7.009   1.635   8.763  0.0659 -3.6846 -3.6544
  767MOL0     O 1113   5.121   5.154   9.824 -0.2596 -0.9451  0.6773
  767MOL0     C 1114   5.138   5.239   9.730  0.9041  0.0336 -0.0023
  767MOL0     O 1115   5.040   5.300   9.659  0.4694 -0.6933  0.7759
  767MOL0     C 1116   4.901   5.301   9.689  0.0678  0.2361 -0.8592
  767MOL0     C 1117   4.806   5.321   9.586  0.1675  0.3470 -1.0009
  767MOL0     C 1118   4.667   5.341   9.615  0.6272  0.0134 -0.3761
  767MOL0     C 1119   4.613   5.342   9.746  0.3723  0.0266  0.4467
  767MOL0     O 1120   4.478   5.345   9.789 -0.2843 -0.3127  0.4123
  767MOL0     C 1121   4.383   5.335   9.677 -0.2444  0.2420  0.3140
  767MOL0     C 1122   4.238   5.344   9.727 -0.2525  0.0006 -0.0389
  767MOL0     C 1123   4.217   5.484   9.781 -0.3466  0.7718 -0.0788
  767MOL0     C 1124   4.091   5.512   9.874  0.9727 -1.1479 -0.5108
  767MOL0     C 1125   3.962   5.499   9.791  0.3446  0.3133 -0.4400
  767MOL0     C 1126   3.857   5.566   9.872  0.0854 -0.6414 -0.1624
  767MOL0     C 1127   3.824   5.483   9.999 -0.0268  0.0291 -0.0452
  767MOL0     C 1128   3.702   5.537  10.076  0.1405 -0.2670  0.0329
  767MOL0     N 1129   3.574   5.517  10.003 -0.2194  0.3979  0.0845
  767MOL0     C 1130   3.521   5.387   9.979 -0.6307 -0.7797  0.0878
  767MOL0     C 1131   3.393   5.408   9.931 -0.1609 -1.1371 -0.6671
  767MOL0     C 1132   3.309   5.293   9.904 -0.3450 -0.3436 -0.6337
  767MOL0     C 1133   3.187   5.334   9.836 -0.2544  0.2591 -0.2086
  767MOL0     C 1134   3.103   5.210   9.782 -0.8031  0.2502 -0.1522
  767MOL0     C 1135   3.069   5.106   9.885  0.1376  0.1611 -0.0098
  767MOL0     O 1136   2.961   5.024   9.829 -0.2623  0.2116 -0.1470
  767MOL0     C 1137   2.829   5.065   9.855 -0.4378 -1.0262 -1.0159
  767MOL0     C 1138   2.788   5.098   9.989  0.0146 -0.2634  0.2405
  767MOL0     C 1139   2.654   5.135  10.004 -0.7330 -0.4558  0.1924
  767MOL0     C 1140   2.564   5.134   9.901 -0.3135 -0.0762  0.6720
  767MOL0     C 1141   2.428   5.138   9.941 -0.3696  0.4580  0.2360
  767MOL0     O 1142   2.324   5.120   9.850  0.3182 -0.8566 -0.0900
  767MOL0     C 1143   2.192   5.128   9.882  0.4520 -0.3300  0.1497
  767MOL0     C 1144   2.133   5.036   9.969  0.0203  0.6963 -0.8499
  767MOL0     C 1145   2.000   5.048  10.001  0.5251 -0.2701 -0.2412
  767MOL0     C 1146   1.916   5.153   9.958  0.1546  0.4261  0.2840
  767MOL0     O 1147   1.777   5.163   9.980  0.0991 -0.1049  0.1738
  767MOL0     C 1148   1.700   5.047   9.943  0.2080  0.2982  0.9757
  767MOL0     C 1149   1.551   5.089   9.950 -0.3309  1.0111 -1.0480
  767MOL0     C 1150   1.467   4.971   9.895 -0.4968 -0.6442  0.3655
  767MOL0     C 1151   1.315   4.997   9.905  0.5468  0.1433  1.4074
  767MOL0     C 1152   1.235   4.874   9.850 -0.1913  0.0089 -0.2349
  767MOL0     C 1153   1.087   4.869   9.896 -0.7790  0.8744 -0.4202
  767MOL0     C 1154   1.004   4.971   9.824 -0.4168  0.3985 -0.8406
  767MOL0     C 1155   0.853   4.946   9.848 -0.7711  0.0043  0.7611
  767MOL0    Cl 1156   0.758   4.933   9.699  0.0297 -0.3521  0.4278
  767MOL0     C 1157   1.978   5.254   9.874  0.3027  0.5480  0.9388
  767MOL0     C 1158   2.108   5.233   9.831 -1.3594  0.6657 -0.4276
  767MOL0     O 1159   2.409   5.164  10.057 -0.3302 -0.8532  0.3138
  767MOL0     C 1160   2.608   5.106   9.767 -0.2603  0.2635  0.0447
  767MOL0     C 1161   2.741   5.069   9.747  0.2297 -0.2068  0.9349
  767MOL0     N 1162   3.367   5.542   9.955  0.2051 -0.5726  0.2352
  767MOL0     N 1163   3.472   5.609   9.989  0.2271  0.1123  0.1030
  767MOL0     C 1164   4.706   5.311   9.837  0.0812  0.1360  0.1427
  767MOL0     C 1165   4.845   5.282   9.816 -0.5263 -0.0643  0.5152
  767MOL0     C 1166   5.275   5.287   9.698  0.5329 -0.5882  0.7344
  767MOL0     C 1167   5.301   5.408   9.631  0.0326  0.1839 -0.0640
  767MOL0     C 1168   5.427   5.460   9.612 -0.3273 -0.0330 -0.5968
  767MOL0     C 1169   5.533   5.387   9.658 -0.3717  0.1647  1.0270
  767MOL0     O 1170   5.650   5.446   9.631 -0.4134 -0.2662  0.0789
  767MOL0     C 1171   5.769   5.370   9.648 -0.5342 -0.4501  0.4971
  767MOL0     C 1172   5.890   5.441   9.590  0.4790  0.2705  0.2331
  767MOL0     C 1173   6.001   5.342   9.587  0.3460 -0.1412  0.2515
  767MOL0     C 1174   6.137   5.400   9.551 -0.3981  0.0567  0.0676
  767MOL0     C 1175   6.254   5.320   9.582  0.2241  0.4039  1.1289
  767MOL0     C 1176   6.352   5.249   9.616  0.4168 -0.2791 -0.6175
  767MOL0     C 1177   5.517   5.264   9.725 -0.2829 -0.4231 -0.7810
  767MOL0     C 1178   5.388   5.209   9.744  0.3838 -0.3071  0.3120
  767MOL0     H 1179   4.832   5.333   9.482 -0.4032  2.6452 -0.9484
  767MOL0     H 1180   4.600   5.357   9.531  0.4235  0.4471 -0.1357
  767MOL0     H 1181   4.408   5.245   9.620 -1.3982 -0.5136  0.9651
  767MOL0     H 1182   4.414   5.418   9.613  0.6503 -0.7510 -0.5859
  767MOL0     H 1183   4.221   5.263   9.798  3.1950  0.3424  1.3793
  767MOL0     H 1184   4.170   5.327   9.643  2.0338  0.4053 -2.0843
  767MOL0     H 1185   4.205   5.548   9.693  0.7641 -1.4616 -1.9578
  767MOL0     H 1186   4.306   5.513   9.837 -0.4989 -3.6775  2.9652
  767MOL0     H 1187   4.092   5.448   9.962  0.1154 -1.0400 -0.4126
  767MOL0     H 1188   4.105   5.617   9.901  3.8067 -0.5204 -3.6358
  767MOL0     H 1189   3.940   5.393   9.782  0.2215  0.4071 -1.3237
  767MOL0     H 1190   3.961   5.549   9.694 -2.8248 -0.7787 -1.0584
  767MOL0     H 1191   3.763   5.574   9.815  0.1862  2.2906 -0.0658
  767MOL0     H 1192   3.885   5.668   9.900 -1.2221  0.1588 -1.5873
  767MOL0     H 1193   3.794   5.379   9.984 -3.8445  1.1911 -1.9008
  767MOL0     H 1194   3.909   5.482  10.067  0.2508  2.6399 -0.2377
  767MOL0     H 1195   3.720   5.644  10.078  0.1638 -0.2312 -1.1019
  767MOL0     H 1196   3.686   5.511  10.181 -1.0467  2.3346  0.5551
  767MOL0     H 1197   3.577   5.296   9.998 -1.1339 -0.9534  0.7806
  767MOL0     H 1198   3.274   5.247   9.997  0.7308 -0.6820 -0.3757
  767MOL0     H 1199   3.361   5.211   9.854  2.4182  0.8343  0.1151
  767MOL0     H 1200   3.203   5.413   9.762  0.9790 -0.5944 -0.8854
  767MOL0     H 1201   3.131   5.386   9.915  0.9344 -0.8421  1.4269
  767MOL0     H 1202   3.010   5.248   9.738  0.0663  3.1221  0.3007
  767MOL0     H 1203   3.155   5.167   9.695  0.9310  2.4344 -0.2811
  767MOL0     H 1204   3.046   5.164   9.975  1.0307  1.4722 -0.5907
  767MOL0     H 1205   3.150   5.041   9.918 -0.6053  0.3141  2.3107
  767MOL0     H 1206   2.848   5.101  10.079 -0.5272  1.4975  0.6005
  767MOL0     H 1207   2.636   5.161  10.108 -0.6925  2.4863 -0.4634
  767MOL0     H 1208   2.189   4.953  10.011 -1.2961 -1.4456 -3.0662
  767MOL0     H 1209   1.959   4.973  10.067 -0.8026  0.1636 -0.5354
  767MOL0     H 1210   1.716   4.959  10.005 -0.8859 -1.0562 -0.5858
  767MOL0     H 1211   1.709   5.010   9.840  1.2456 -0.1878  1.2246
  767MOL0     H 1212   1.529   5.174   9.885 -1.0093  1.3135 -0.4356
  767MOL0     H 1213   1.527   5.105  10.055 -0.2375 -0.5465 -0.7584
  767MOL0     H 1214   1.488   4.882   9.954  1.7015 -0.0091  0.6215
  767MOL0     H 1215   1.480   4.957   9.787 -0.1539  0.4932  0.2402
  767MOL0     H 1216   1.290   4.999  10.011  0.1640  0.8719  1.3034
  767MOL0     H 1217   1.285   5.087   9.850  0.4442  0.7362  2.4224
  767MOL0     H 1218   1.281   4.779   9.879 -0.5925  0.3156  1.5231
  767MOL0     H 1219   1.240   4.878   9.741 -0.3297 -2.5199 -0.3937
  767MOL0     H 1220   1.081   4.889  10.003 -0.1397  3.1366 -0.7650
  767MOL0     H 1221   1.051   4.766   9.882 -1.5766  1.0412  0.3328
  767MOL0     H 1222   1.042   5.066   9.864 -0.7936 -0.5366  1.9907
  767MOL0     H 1223   1.014   4.977   9.715  3.8811  1.4691 -0.5481
  767MOL0     H 1224   0.817   5.031   9.906 -2.4508 -0.3959  0.3375
  767MOL0     H 1225   0.834   4.863   9.917  2.7435 -1.2329  0.4628
  767MOL0     H 1226   1.910   5.327   9.832 -2.7198 -1.6476  1.7041
  767MOL0     H 1227   2.170   5.307   9.783 -0.4231  0.0958 -0.1247
  767MOL0     H 1228   2.539   5.102   9.683  0.1269  0.5386 -0.2888
  767MOL0     H 1229   2.773   5.048   9.645  1.1598  2.8135  0.4940
  767MOL0     H 1230   4.676   5.300   9.941 -0.3429 -2.3993 -0.1850
  767MOL0     H 1231   4.916   5.263   9.896  0.2757  1.7771  0.2900
  767MOL0     H 1232   5.222   5.479   9.607 -0.3623 -0.5085 -0.8681
  767MOL0     H 1233   5.453   5.560   9.580  1.8099  0.8747  3.2694
  767MOL0     H 1234   5.755   5.279   9.588  0.5083 -0.3785  0.1096
  767MOL0     H 1235   5.799   5.348   9.751  0.7233  1.1790  0.5212
  767MOL0     H 1236   5.858   5.464   9.488 -1.8558  2.3453  1.3133
  767MOL0     H 1237   5.906   5.535   9.644 -2.0340  1.6390 -1.2010
  767MOL0     H 1238   5.973   5.245   9.544  2.7204 -1.1915  0.8755
  767MOL0     H 1239   6.012   5.314   9.693 -0.1301 -0.3989  0.2362
  767MOL0     H 1240   6.129   5.427   9.445 -3.9048  2.2081  0.7049
  767MOL0     H 1241   6.151   5.495   9.603 -0.4249  0.1709 -0.1309
  767MOL0     H 1242   6.421   5.187   9.671 -0.3812 -1.0048 -0.4007
  767MOL0     H 1243   5.599   5.214   9.776 -1.7883  0.6195  3.0112
  767MOL0     H 1244   5.375   5.116   9.800  1.5244 -0.7492 -0.1158
  768MOL0     O 1245   3.438   0.269   3.451 -0.0510  0.4495  0.3380
  768MOL0     C 1246   3.507   0.186   3.509  0.1368 -0.0186 -0.4812
  768MOL0     O 1247   3.469   0.057   3.537  0.2293 -0.2293  0.4801
  768MOL0     C 1248   3.344   0.032   3.497 -0.7862  0.0065 -1.1965
  768MOL0     C 1249   3.332  -0.035   3.381  0.1937 -1.3493 -0.0341
  768MOL0     C 1250   3.202  -0.073   3.340  0.3997  0.3523 -0.2671
  768MOL0     C 1251   3.082  -0.030   3.411  1.0973  0.0708 -0.0957
  768MOL0     O 1252   2.953  -0.073   3.381  0.6230 -0.1706  0.6301
  768MOL0     C 1253   2.938  -0.143   3.255  1.0273 -0.2639  0.8903
  768MOL0     C 1254   2.791  -0.127   3.203  0.7942  0.2882  0.2508
  768MOL0     C 1255   2.719  -0.250   3.246 -0.2134  0.1045  0.4023
  768MOL0     C 1256   2.569  -0.254   3.195  0.2941 -0.5702 -0.1848
  768MOL0     C 1257   2.481  -0.379   3.201 -0.5751 -0.2126  0.4400
  768MOL0     C 1258   2.493  -0.467   3.333 -1.0126 -0.1014  0.3354
  768MOL0     C 1259   2.390  -0.589   3.347 -0.6942 -0.5066 -0.0244
  768MOL0     C 1260   2.279  -0.563   3.455  0.8365  0.3779 -0.5049
  768MOL0     N 1261   2.173  -0.469   3.409  0.0109  0.2819  0.2032
  768MOL0     C 1262   2.188  -0.334   3.405 -0.3874 -0.0788 -1.1410
  768MOL0     C 1263   2.066  -0.280   3.373 -0.0951  0.3662 -0.0925
  768MOL0     C 1264   2.035  -0.131   3.367 -0.3744 -0.2671  0.3391
  768MOL0     C 1265   1.926  -0.073   3.465 -0.8225  0.5001  0.5508
  768MOL0     C 1266   1.864   0.069   3.431  0.4830  0.0599  0.3170
  768MOL0     C 1267   1.740   0.088   3.523  0.0455  0.0677 -0.8972
  768MOL0     O 1268   1.649   0.186   3.482  0.1721 -0.0323 -0.0891
  768MOL0     C 1269   1.532   0.199   3.556  1.2499 -0.3477  0.3215
  768MOL0     C 1270   1.520   0.180   3.696 -0.0159 -0.6143  0.0741
  768MOL0     C 1271   1.400   0.208   3.762 -0.3818  1.1370 -0.5401
  768MOL0     C 1272   1.278   0.243   3.696 -0.2928  0.3757  1.0275
  768MOL0     C 1273   1.150   0.254   3.766  0.2507  0.1440  1.3874
  768MOL0     O 1274   1.041   0.310   3.696 -0.6431  0.1538 -0.2930
  768MOL0     C 1275   0.913   0.341   3.746  0.0935  0.5068  0.3980
  768MOL0     C 1276   0.833   0.428   3.676 -0.9973  0.3217 -0.3755
  768MOL0     C 1277   0.726   0.488   3.732  0.2851  0.2183  1.0915
  768MOL0     C 1278   0.668   0.439   3.847  0.9309 -0.2381  0.0093
  768MOL0     O 1279   0.548   0.501   3.874 -0.1595  0.1726  0.1669
  768MOL0     C 1280   0.479   0.459   3.991 -0.0537 -0.0249  0.6755
  768MOL0     C 1281   0.350   0.537   3.998 -0.1487 -0.7313  0.1808
  768MOL0     C 1282   0.270   0.518   4.125  0.9756  0.1252 -0.2458
  768MOL0     C 1283   0.115   0.552   4.117 -0.3485 -0.7925  0.6326
  768MOL0     C 1284   0.054   0.511   4.250  0.0476 -0.0548  0.0914
  768MOL0     C 1285  -0.079   0.574   4.287  1.1151 -0.0972  0.7847
  768MOL0     C 1286  -0.147   0.515   4.401  0.6344  0.9022 -0.2770
  768MOL0     C 1287  -0.266   0.602   4.443  0.5522  0.2548 -0.5980
  768MOL0    Cl 1288  -0.322   0.564   4.606  0.2365  0.2723 -0.1536
  768MOL0     C 1289   0.736   0.341   3.924  0.9480  0.6125  0.4198
  768MOL0     C 1290   0.864   0.303   3.874  0.3206  0.2122 -0.0304
  768MOL0     O 1291   1.153   0.242   3.889  0.3263  0.1744 -0.0666
  768MOL0     C 1292   1.288   0.249   3.553 -0.3016 -0.2940  0.5467
  768MOL0     C 1293   1.411   0.237   3.486 -0.9575  0.4666 -0.1502
  768MOL0     N 1294   1.977  -0.392   3.366  0.5497  0.2053  0.4451
  768MOL0     N 1295   2.045  -0.497   3.390  0.0794  0.2513 -0.6877
  768MOL0     C 1296   3.102   0.046   3.529  0.5363 -0.0809 -0.2674
  768MOL0     C 1297   3.233   0.065   3.576  0.2475  0.2952  0.0145
  768MOL0     C 1298   3.646   0.215   3.541  0.9180 -0.7935  0.2402
  768MOL0     C 1299   3.696   0.345   3.517  0.6321 -0.1507 -0.5006
  768MOL0     C 1300   3.828   0.387   3.541 -0.5318  0.5804  0.7649
  768MOL0     C 1301   3.926   0.292   3.580 -0.8786 -0.3577  0.0553
  768MOL0     O 1302   4.058   0.330   3.602 -0.0715  0.5286 -0.0674
  768MOL0     C 1303   4.105   0.440   3.526 -0.4888 -0.1601  0.1809
  768MOL0     C 1304   4.254   0.451   3.548 -0.5117  0.8628 -0.4418
  768MOL0     C 1305   4.293   0.487   3.696  0.1075  0.2958 -0.3496
  768MOL0     C 1306   4.451   0.492   3.718  0.1807 -0.4565  0.0144
  768MOL0     C 1307   4.522   0.368   3.698 -0.2034  0.1111  0.6351
  768MOL0     C 1308   4.576   0.260   3.662 -1.0243 -0.0913  0.2458
  768MOL0     C 1309   3.874   0.156   3.611 -0.0144  0.4852  0.7649
  768MOL0     C 1310   3.735   0.123   3.593 -0.2265  0.7296  0.5342
  768MOL0     H 1311   3.414  -0.061   3.315  0.4471  0.1391 -0.3284
  768MOL0     H 1312   3.192  -0.126   3.246 -0.6206  1.8721 -1.0477
  768MOL0     H 1313   2.965  -0.249   3.241 -2.6655 -1.4718  1.7485
  768MOL0     H 1314   3.000  -0.099   3.177  0.4625  0.3699  0.7940
  768MOL0     H 1315   2.800  -0.109   3.096  0.4082  2.0870  0.4758
  768MOL0     H 1316   2.749  -0.039   3.253 -0.5160 -1.1938  1.8786
  768MOL0     H 1317   2.728  -0.256   3.355 -0.0111  0.0533  0.3834
  768MOL0     H 1318   2.779  -0.334   3.209 -1.5402 -0.6463 -0.1248
  768MOL0     H 1319   2.522  -0.167   3.243  1.9472  0.5500 -0.4853
  768MOL0     H 1320   2.576  -0.208   3.096 -4.1349  1.8056  0.3737
  768MOL0     H 1321   2.508  -0.440   3.114 -0.9862  0.5463 -0.2366
  768MOL0     H 1322   2.381  -0.335   3.189 -0.1564  0.2853 -1.6632
  768MOL0     H 1323   2.486  -0.396   3.416 -1.6158 -0.1720  0.3491
  768MOL0     H 1324   2.595  -0.505   3.338 -0.3033  1.4654 -1.1437
  768MOL0     H 1325   2.343  -0.614   3.252  2.4125 -1.1749 -1.5142
  768MOL0     H 1326   2.456  -0.667   3.386  0.8827  0.5623 -0.4478
  768MOL0     H 1327   2.306  -0.517   3.550 -0.1881 -1.0469  0.5115
  768MOL0     H 1328   2.228  -0.660   3.462 -1.2189  0.7354 -5.6731
  768MOL0     H 1329   2.287  -0.292   3.424  0.0550 -1.5963  0.1220
  768MOL0     H 1330   2.006  -0.114   3.263  2.2574  1.5239 -0.2016
  768MOL0     H 1331   2.122  -0.070   3.394 -1.6471  2.3337 -1.0544
  768MOL0     H 1332   1.968  -0.057   3.565  1.5395  2.9462 -0.6941
  768MOL0     H 1333   1.840  -0.140   3.478  2.1656 -3.1523  4.9652
  768MOL0     H 1334   1.938   0.146   3.451  0.9519  0.3558 -2.1723
  768MOL0     H 1335   1.833   0.092   3.329  0.5630  0.1068  0.3030
  768MOL0     H 1336   1.785   0.114   3.619 -2.2510 -0.1074  0.3044
  768MOL0     H 1337   1.690  -0.008   3.538  0.5694 -0.0890 -0.0990
  768MOL0     H 1338   1.599   0.139   3.758  1.0057  2.2363  0.8046
  768MOL0     H 1339   1.411   0.198   3.870  0.1157 -1.0086 -0.7425
  768MOL0     H 1340   0.882   0.471   3.590 -0.9720 -0.7933 -0.9307
  768MOL0     H 1341   0.684   0.576   3.684 -0.1225 -0.7708 -0.4356
  768MOL0     H 1342   0.537   0.475   4.083  1.2867 -1.0060  0.0356
  768MOL0     H 1343   0.451   0.353   3.992 -0.4145  0.0674  1.1141
  768MOL0     H 1344   0.281   0.510   3.918 -2.2673 -0.1420  1.6861
  768MOL0     H 1345   0.384   0.642   3.998  0.8911 -1.0459  0.9920
  768MOL0     H 1346   0.308   0.586   4.202  0.0394 -1.7472  2.0125
  768MOL0     H 1347   0.274   0.414   4.160 -2.2513  0.7014  2.3695
  768MOL0     H 1348   0.101   0.660   4.101  0.7560 -0.6271  0.7294
  768MOL0     H 1349   0.069   0.491   4.039  0.8773 -1.3191  0.3120
  768MOL0     H 1350   0.126   0.512   4.332 -0.0268 -1.9487  0.2386
  768MOL0     H 1351   0.027   0.405   4.250 -0.9282  0.1842 -0.2334
  768MOL0     H 1352  -0.145   0.563   4.200 -0.1255  2.0277  1.4026
  768MOL0     H 1353  -0.044   0.676   4.305 -0.7326  1.0283 -1.4409
  768MOL0     H 1354  -0.184   0.413   4.387 -0.4329  1.3376 -0.7305
  768MOL0     H 1355  -0.074   0.512   4.482 -0.6732  0.5382  0.9266
  768MOL0     H 1356  -0.346   0.583   4.372  0.1479 -1.7874  0.3552
  768MOL0     H 1357  -0.244   0.710   4.439 -1.6480  0.7117 -1.8982
  768MOL0     H 1358   0.706   0.303   4.021 -0.6473  0.1973 -0.1925
  768MOL0     H 1359   0.909   0.230   3.941 -1.0595 -0.3180  0.3526
  768MOL0     H 1360   1.194   0.271   3.502  0.0281 -0.6227 -0.2071
  768MOL0     H 1361   1.428   0.251   3.379  0.7061  1.3436  0.2051
  768MOL0     H 1362   3.013   0.079   3.580  1.7258  2.9879  0.0232
  768MOL0     H 1363   3.247   0.115   3.671  0.2214  0.7758 -0.2318
  768MOL0     H 1364   3.639   0.420   3.462 -2.3977 -0.9116  1.3597
  768MOL0     H 1365   3.857   0.490   3.526 -0.6036  1.0134  3.1119
  768MOL0     H 1366   4.064   0.531   3.573 -0.4022  0.4534 -0.8944
  768MOL0     H 1367   4.070   0.435   3.422 -1.0613  1.9369  0.2282
  768MOL0     H 1368   4.287   0.352   3.515  1.2776  1.1759  0.2825
  768MOL0     H 1369   4.301   0.520   3.478  1.3781 -0.0909 -0.1607
  768MOL0     H 1370   4.249   0.412   3.762  1.8171 -1.5324 -1.1721
  768MOL0     H 1371   4.248   0.586   3.711 -0.4294  0.7222 -3.9080
  768MOL0     H 1372   4.496   0.562   3.647 -2.0768 -0.2383 -1.3024
  768MOL0     H 1373   4.469   0.527   3.820  1.8919  0.3836 -0.5408
  768MOL0     H 1374   4.633   0.173   3.638  1.2705  1.4071  0.0344
  768MOL0     H 1375   3.944   0.077   3.638  0.3091  0.1764 -0.8737
  768MOL0     H 1376   3.705   0.024   3.625  0.6785  0.5640  0.8838
  769MOL0     O 1377   9.380   8.010   8.741  0.2515  0.4464  0.1918
  769MOL0     C 1378   9.392   7.990   8.866  0.9429  0.5262  0.1740
  769MOL0     O 1379   9.281   7.971   8.946 -0.0120 -0.3631 -0.4210
  769MOL0     C 1380   9.159   7.965   8.890 -0.2054 -0.5325  0.4385
  769MOL0     C 1381   9.085   7.848   8.869  0.2718  0.3214  0.0682
  769MOL0     C 1382   8.962   7.853   8.800 -0.3662  1.2565  0.2889
  769MOL0     C 1383   8.912   7.971   8.738  0.8095 -0.9443  0.1138
  769MOL0     O 1384   8.805   7.987   8.662 -0.5596 -0.0463  0.3861
  769MOL0     C 1385   8.696   7.904   8.680  0.5332  0.1326  0.5628
  769MOL0     C 1386   8.675   7.821   8.550  0.3805 -0.2367  0.0976
  769MOL0     C 1387   8.533   7.767   8.545 -0.5324 -1.5033  0.3021
  769MOL0     C 1388   8.434   7.864   8.492 -0.2560 -0.2698 -0.1445
  769MOL0     C 1389   8.296   7.793   8.494  0.5770 -0.0941  0.1759
  769MOL0     C 1390   8.284   7.659   8.423 -0.4273 -0.0784  0.5210
  769MOL0     C 1391   8.327   7.661   8.277 -0.1535 -0.3458 -0.8812
  769MOL0     C 1392   8.366   7.520   8.233 -0.6060 -0.0759 -0.3003
  769MOL0     N 1393   8.243   7.438   8.221 -0.7681  0.2009 -0.0292
  769MOL0     C 1394   8.160   7.404   8.316  0.3667 -0.9749 -0.0976
  769MOL0     C 1395   8.048   7.382   8.256  1.2900  0.4812  0.2496
  769MOL0     C 1396   7.906   7.366   8.321 -0.1098 -0.0912 -0.1846
  769MOL0     C 1397   7.882   7.235   8.409 -0.0334 -0.0005 -0.8675
  769MOL0     C 1398   7.763   7.159   8.350 -0.2057 -1.1297  0.2028
  769MOL0     C 1399   7.633   7.235   8.359  0.3553 -0.6254 -0.4214
  769MOL0     O 1400   7.566   7.236   8.485 -0.3164  0.3381 -0.9224
  769MOL0     C 1401   7.474   7.145   8.518  0.7402 -0.7909  0.1924
  769MOL0     C 1402   7.461   7.012   8.468  1.1306  0.6031  0.7027
  769MOL0     C 1403   7.337   6.936   8.489 -0.1046  0.2777  0.4696
  769MOL0     C 1404   7.231   6.986   8.566 -0.5157 -0.1852 -0.0989
  769MOL0     C 1405   7.117   6.900   8.595 -0.2276  1.0021 -0.9622
  769MOL0     O 1406   7.039   6.952   8.690  0.5652 -0.6496 -0.5542
  769MOL0     C 1407   6.923   6.914   8.738  0.1759 -0.4916  0.4244
  769MOL0     C 1408   6.874   7.000   8.839  0.6664  0.5093 -0.4984
  769MOL0     C 1409   6.754   6.963   8.895 -0.3499 -0.6290 -0.1060
  769MOL0     C 1410   6.675   6.853   8.860  0.1406  0.0033 -0.1892
  769MOL0     O 1411   6.554   6.850   8.919  0.3329 -0.1607 -0.5341
  769MOL0     C 1412   6.467   6.739   8.887 -0.3699  0.9219  0.0936
  769MOL0     C 1413   6.337   6.766   8.940 -0.8270  0.5209 -0.1643
  769MOL0     C 1414   6.231   6.664   8.891  0.4872 -0.0767  0.1046
  769MOL0     C 1415   6.244   6.518   8.945  0.0652 -0.4752 -0.3662
  769MOL0     C 1416   6.133   6.421   8.884  0.0486 -0.6503  0.2478
  769MOL0     C 1417   6.159   6.388   8.737  0.7714  0.1627 -1.1098
  769MOL0     C 1418   6.082   6.257   8.711 -0.1756  0.8267 -0.3468
  769MOL0     C 1419   6.071   6.214   8.565 -0.0651  0.9174  0.1203
  769MOL0    Cl 1420   6.234   6.165   8.505 -0.0852  0.1316 -0.2091
  769MOL0     C 1421   6.727   6.771   8.758 -0.5998 -0.2962 -0.1190
  769MOL0     C 1422   6.852   6.800   8.695 -0.1680 -0.4397  0.4045
  769MOL0     O 1423   7.117   6.778   8.566 -0.2435  0.3079  0.6732
  769MOL0     C 1424   7.252   7.114   8.618  0.3880  0.7588 -0.4241
  769MOL0     C 1425   7.370   7.194   8.593  0.3905  0.0295 -0.1576
  769MOL0     N 1426   8.063   7.401   8.121 -0.3546 -0.3217  0.8174
  769MOL0     N 1427   8.182   7.437   8.100  0.3717  0.3207  0.1773
  769MOL0     C 1428   8.989   8.084   8.754 -0.5569  0.7009  0.1096
  769MOL0     C 1429   9.109   8.084   8.832  0.7608  0.1671  0.0937
  769MOL0     C 1430   9.519   7.985   8.921 -0.2241  0.3690  0.2120
  769MOL0     C 1431   9.535   7.922   9.044  0.0939  0.1300  0.1010
  769MOL0     C 1432   9.664   7.902   9.106  0.7150  1.5025  1.3568
  769MOL0     C 1433   9.774   7.959   9.041 -1.0173  0.6388 -0.4159
  769MOL0     O 1434   9.905   7.963   9.093  0.2803 -0.4149  0.0095
  769MOL0     C 1435   9.941   7.914   9.223 -0.5490  0.5689 -0.1844
  769MOL0     C 1436  10.011   8.029   9.296  0.7129 -0.8767  0.1214
  769MOL0     C 1437   9.913   8.141   9.324  0.4987  0.8827  0.2316
  769MOL0     C 1438   9.986   8.260   9.403  0.2472 -0.4801 -0.2805
  769MOL0     C 1439   9.895   8.368   9.403 -0.1287 -0.1721  0.5653
  769MOL0     C 1440   9.816   8.462   9.396 -0.1373 -0.4189 -1.2392
  769MOL0     C 1441   9.760   8.035   8.922 -0.2156 -0.7488  0.1248
  769MOL0     C 1442   9.635   8.043   8.865  0.1297 -0.1769  1.1116
  769MOL0     H 1443   9.128   7.755   8.904 -0.1796  0.7487  1.8788
  769MOL0     H 1444   8.918   7.757   8.773  0.3962  0.5724  1.3855
  769MOL0     H 1445   8.615   7.976   8.694  0.5130  0.0682  0.7872
  769MOL0     H 1446   8.693   7.837   8.767 -0.6375 -0.7227 -0.1122
  769MOL0     H 1447   8.743   7.736   8.555 -1.9091 -2.1416  1.4711
  769MOL0     H 1448   8.705   7.876   8.460  1.2888  0.6859  0.9359
  769MOL0     H 1449   8.506   7.738   8.648 -1.6557 -1.2660  0.0836
  769MOL0     H 1450   8.542   7.681   8.478 -3.8916  0.6552 -3.2727
  769MOL0     H 1451   8.423   7.951   8.557 -1.9205 -0.3550 -0.2670
  769MOL0     H 1452   8.456   7.881   8.386 -3.0101  1.6363 -0.5081
  769MOL0     H 1453   8.236   7.863   8.434  1.1422  0.1098 -0.1670
  769MOL0     H 1454   8.263   7.791   8.598 -0.3010  4.8751  0.2753
  769MOL0     H 1455   8.179   7.629   8.431 -0.2798 -0.4719  1.0305
  769MOL0     H 1456   8.336   7.576   8.472 -1.4414 -3.9051 -4.1156
  769MOL0     H 1457   8.246   7.692   8.210  1.1797  0.9110 -1.9860
  769MOL0     H 1458   8.412   7.725   8.253  0.3805 -0.4432  0.6780
  769MOL0     H 1459   8.442   7.477   8.299 -2.4337 -0.2248  1.8331
  769MOL0     H 1460   8.403   7.527   8.130 -3.3832  2.5268 -1.2565
  769MOL0     H 1461   8.168   7.401   8.424 -0.8433 -1.0042  0.0059
  769MOL0     H 1462   7.836   7.360   8.238 -0.9145  1.6335  0.3172
  769MOL0     H 1463   7.881   7.448   8.389  2.8694  2.3852 -1.7793
  769MOL0     H 1464   7.867   7.250   8.516 -0.0076 -1.4391 -0.6530
  769MOL0     H 1465   7.966   7.169   8.389 -0.3348 -0.0715 -1.9956
  769MOL0     H 1466   7.792   7.128   8.249 -0.7034  2.1568 -1.0664
  769MOL0     H 1467   7.757   7.071   8.415 -1.0235 -0.3043  1.2558
  769MOL0     H 1468   7.563   7.195   8.285 -0.0857  3.3752 -2.4467
  769MOL0     H 1469   7.627   7.340   8.330 -0.6980  0.2660  2.6480
  769MOL0     H 1470   7.541   6.980   8.402  1.3237 -0.8749  1.6103
  769MOL0     H 1471   7.332   6.847   8.426  0.2162  1.3372 -1.1262
  769MOL0     H 1472   6.929   7.088   8.870 -1.1934  0.6354  2.8057
  769MOL0     H 1473   6.744   7.034   8.977  2.9964 -1.1502  0.9110
  769MOL0     H 1474   6.501   6.643   8.928 -0.3136  1.3663  1.1138
  769MOL0     H 1475   6.467   6.725   8.779  0.9447 -0.8172  0.2609
  769MOL0     H 1476   6.316   6.868   8.907  0.4787 -0.2351 -3.7964
  769MOL0     H 1477   6.343   6.742   9.047 -0.2964 -1.7098 -0.6337
  769MOL0     H 1478   6.217   6.670   8.782 -0.4842  2.9176  0.3161
  769MOL0     H 1479   6.135   6.709   8.916  0.6085  1.3801 -1.8327
  769MOL0     H 1480   6.346   6.488   8.917  0.2815  0.2894 -0.4225
  769MOL0     H 1481   6.237   6.511   9.054  1.0362 -0.9118 -0.3219
  769MOL0     H 1482   6.036   6.463   8.913  1.1264  1.7765  0.6421
  769MOL0     H 1483   6.140   6.324   8.932 -1.4055 -0.5447  0.7024
  769MOL0     H 1484   6.265   6.372   8.715  1.7528  1.2904  2.1656
  769MOL0     H 1485   6.122   6.465   8.669 -0.2838  0.8218  0.1739
  769MOL0     H 1486   6.113   6.168   8.765 -1.6063 -1.0183 -2.3878
  769MOL0     H 1487   5.980   6.268   8.749  0.1561 -1.3715  1.3588
  769MOL0     H 1488   6.030   6.290   8.498 -1.1345 -1.7674 -2.4952
  769MOL0     H 1489   6.005   6.127   8.567 -0.8782  1.5342  0.3649
  769MOL0     H 1490   6.684   6.674   8.735  0.6930 -0.8449 -0.2845
  769MOL0     H 1491   6.884   6.724   8.624  1.9699 -0.6260  1.4984
  769MOL0     H 1492   7.185   7.161   8.689 -1.2213  0.8161 -1.8917
  769MOL0     H 1493   7.367   7.297   8.625  1.6585 -0.3053  1.1821
  769MOL0     H 1494   8.971   8.176   8.699  3.0203  0.5323 -1.6455
  769MOL0     H 1495   9.167   8.175   8.825 -0.4357  1.1912  2.4113
  769MOL0     H 1496   9.448   7.887   9.100 -1.0948  0.5869 -1.3780
  769MOL0     H 1497   9.672   7.840   9.195 -1.6344 -1.6866 -0.4090
  769MOL0     H 1498  10.019   7.838   9.213 -0.3595  1.0082 -2.9422
  769MOL0     H 1499   9.859   7.874   9.283 -0.3690  0.3112 -0.1094
  769MOL0     H 1500  10.062   8.004   9.390  0.6448  0.1270  0.4348
  769MOL0     H 1501  10.086   8.063   9.224  1.1661 -2.7122 -0.3244
  769MOL0     H 1502   9.831   8.094   9.380 -0.1687 -0.0179 -1.4197
  769MOL0     H 1503   9.867   8.169   9.228  0.0768 -0.7891 -0.0863
  769MOL0     H 1504   9.984   8.228   9.507  0.1778 -2.0802 -0.7500
  769MOL0     H 1505  10.089   8.283   9.371  1.0272 -0.8953  1.7546
  769MOL0     H 1506   9.752   8.547   9.380 -0.5373 -0.2062  1.0625
  769MOL0     H 1507   9.850   8.067   8.870 -1.6979  2.7074 -0.5815
  769MOL0     H 1508   9.611   8.090   8.770 -3.9625 -2.0487  0.9617
  770MOL0     O 1509   7.939   9.217   3.965 -0.4082  0.3912 -0.2705
  770MOL0     C 1510   7.997   9.266   3.870  0.0174 -0.2919 -0.0226
  770MOL0     O 1511   7.938   9.362   3.788  0.3471 -0.1685  0.0450
  770MOL0     C 1512   7.807   9.367   3.806  0.1629  1.3240  0.5729
  770MOL0     C 1513   7.745   9.437   3.908  0.5183 -0.1960 -0.1212
  770MOL0     C 1514   7.604   9.442   3.916  0.2690 -0.1478 -0.1139
  770MOL0     C 1515   7.522   9.368   3.829 -0.5104 -0.2724  0.3169
  770MOL0     O 1516   7.388   9.381   3.851  0.1283  0.2117  0.5270
  770MOL0     C 1517   7.294   9.300   3.780 -0.8144  0.2511  0.5541
  770MOL0     C 1518   7.155   9.327   3.835 -0.4629 -0.1398  0.0770
  770MOL0     C 1519   7.064   9.260   3.739  0.0522 -0.3494  0.3989
  770MOL0     C 1520   6.922   9.296   3.765  0.1282  0.1787  0.7529
  770MOL0     C 1521   6.813   9.260   3.668 -0.0079 -0.1750 -0.3495
  770MOL0     C 1522   6.815   9.360   3.540 -0.4931  0.4755 -0.5459
  770MOL0     C 1523   6.680   9.429   3.510  0.5248  0.0945 -0.2866
  770MOL0     C 1524   6.644   9.555   3.600  0.4082 -0.5429 -0.1253
  770MOL0     N 1525   6.603   9.521   3.742  0.0986  0.3957 -0.5290
  770MOL0     C 1526   6.473   9.491   3.780 -0.0943 -0.0192 -0.1105
  770MOL0     C 1527   6.476   9.509   3.917  0.4718  0.1357 -0.9427
  770MOL0     C 1528   6.369   9.476   4.007 -0.9582  0.3969 -0.4100
  770MOL0     C 1529   6.277   9.598   4.022  0.5071 -0.0577  0.2329
  770MOL0     C 1530   6.126   9.555   4.002 -0.0543 -0.0708 -0.3421
  770MOL0     C 1531   6.028   9.665   4.032 -0.7095 -0.5108  0.4965
  770MOL0     O 1532   5.906   9.600   4.052  0.8853  0.2969 -0.4016
  770MOL0     C 1533   5.797   9.682   4.081  0.4042  0.6453 -0.3137
  770MOL0     C 1534   5.682   9.621   4.138 -0.0897  0.0132  0.4453
  770MOL0     C 1535   5.568   9.693   4.188  0.5998 -0.9196  0.7692
  770MOL0     C 1536   5.571   9.834   4.170  0.1342 -1.0249 -0.8715
  770MOL0     C 1537   5.452   9.911   4.208 -0.8914 -0.2906  0.5601
  770MOL0     O 1538   5.357   9.847   4.276  0.0213  0.0169 -0.3955
  770MOL0     C 1539   5.248   9.912   4.321  0.3190  0.0539 -0.8376
  770MOL0     C 1540   5.247  10.041   4.370  0.3348  0.0332 -0.4490
  770MOL0     C 1541   5.128  10.096   4.428  0.0583  0.4511 -0.7443
  770MOL0     C 1542   5.015  10.012   4.440  0.5120  0.1837 -0.5174
  770MOL0     O 1543   4.894  10.069   4.472 -0.9049  0.2403 -0.6279
  770MOL0     C 1544   4.817  10.014   4.568 -0.1097  0.2456 -0.4093
  770MOL0     C 1545   4.773  10.125   4.668 -0.0178  0.7177  0.3000
  770MOL0     C 1546   4.657  10.082   4.766 -0.0760  0.5723  0.6517
  770MOL0     C 1547   4.646  10.207   4.860  0.7953 -0.0611 -0.3718
  770MOL0     C 1548   4.546  10.188   4.979  0.1886  0.7449  0.2121
  770MOL0     C 1549   4.472  10.315   5.021  0.0117 -0.1780  0.1094
  770MOL0     C 1550   4.354  10.277   5.104 -0.2072  0.1177 -0.3684
  770MOL0     C 1551   4.247  10.391   5.117 -0.0475  0.9397  0.6868
  770MOL0    Cl 1552   4.139  10.361   4.974  0.2601 -0.5485  0.5207
  770MOL0     C 1553   5.020   9.876   4.398 -0.8523 -0.9484  1.4457
  770MOL0     C 1554   5.140   9.828   4.347 -0.0186 -0.0584  1.3307
  770MOL0     O 1555   5.455  10.033   4.175 -0.2690 -0.0701  0.2445
  770MOL0     C 1556   5.685   9.898   4.113  0.9230  0.5102  0.4593
  770MOL0     C 1557   5.794   9.817   4.060 -0.5134  0.7124 -0.4663
  770MOL0     N 1558   6.595   9.557   3.961  0.9608 -0.1848 -0.3144
  770MOL0     N 1559   6.672   9.554   3.855  0.4218  0.2759 -0.0776
  770MOL0     C 1560   7.591   9.293   3.729 -0.4302 -0.9476  0.7106
  770MOL0     C 1561   7.731   9.300   3.713 -0.7125 -0.1018  0.5080
  770MOL0     C 1562   8.135   9.236   3.842 -0.6467 -0.4989 -0.1296
  770MOL0     C 1563   8.193   9.128   3.908 -0.2549  0.0694  0.3712
  770MOL0     C 1564   8.337   9.106   3.887 -0.2781  0.4405  0.8470
  770MOL0     C 1565   8.421   9.189   3.815  0.2793 -1.2845 -0.0110
  770MOL0     O 1566   8.556   9.182   3.797 -0.1359  0.4125 -0.4730
  770MOL0     C 1567   8.624   9.053   3.818  0.4680  0.3685  1.5876
  770MOL0     C 1568   8.773   9.075   3.778  0.4992  0.2490  1.3898
  770MOL0     C 1569   8.785   9.109   3.626 -0.1445  0.7620  0.3137
  770MOL0     C 1570   8.932   9.148   3.600  0.9308 -0.1492  0.1636
  770MOL0     C 1571   8.949   9.150   3.452 -0.0954  0.1831  0.1620
  770MOL0     C 1572   8.963   9.137   3.331  0.1097 -0.0911  0.2330
  770MOL0     C 1573   8.357   9.305   3.762  0.1763 -1.2506  0.2157
  770MOL0     C 1574   8.219   9.326   3.769  0.5071 -0.2914 -0.1627
  770MOL0     H 1575   7.794   9.484   3.993 -1.0467 -0.2947  0.8763
  770MOL0     H 1576   7.558   9.500   3.996  1.0396  1.2472 -0.6464
  770MOL0     H 1577   7.324   9.196   3.765 -2.4828 -0.5521  2.4509
  770MOL0     H 1578   7.290   9.347   3.681 -1.4708  1.8628  1.3180
  770MOL0     H 1579   7.135   9.435   3.839  0.4400  0.0174  0.5329
  770MOL0     H 1580   7.149   9.283   3.935  1.2686 -1.7475 -0.4775
  770MOL0     H 1581   7.078   9.152   3.735  1.4866 -0.2046  1.0768
  770MOL0     H 1582   7.088   9.287   3.636  0.9515 -0.0698  0.6712
  770MOL0     H 1583   6.887   9.240   3.853  0.9269 -2.2639 -0.4177
  770MOL0     H 1584   6.914   9.403   3.788  0.4994  0.4744 -0.4578
  770MOL0     H 1585   6.728   9.268   3.736 -0.1255 -2.0708 -0.2215
  770MOL0     H 1586   6.823   9.158   3.630 -1.3214 -0.2624 -0.5111
  770MOL0     H 1587   6.835   9.291   3.458  1.7571 -0.6747  0.8542
  770MOL0     H 1588   6.897   9.433   3.544  0.8982 -1.0468  3.2752
  770MOL0     H 1589   6.678   9.466   3.407  1.4669  1.0922  0.0199
  770MOL0     H 1590   6.599   9.358   3.526 -0.0023  1.1187  2.0929
  770MOL0     H 1591   6.568   9.619   3.554  0.5107 -0.3992 -0.0965
  770MOL0     H 1592   6.737   9.613   3.606  1.5081 -2.2297  0.0712
  770MOL0     H 1593   6.397   9.450   3.715  1.6064 -0.9587 -1.6106
  770MOL0     H 1594   6.403   9.456   4.109 -4.1439 -1.3019  0.4319
  770MOL0     H 1595   6.305   9.398   3.966  0.7214 -0.0538 -2.3053
  770MOL0     H 1596   6.292   9.673   3.943  0.3077 -0.0339  0.2178
  770MOL0     H 1597   6.307   9.645   4.116  0.8947 -0.3252  0.2444
  770MOL0     H 1598   6.115   9.523   3.898 -0.2819 -0.5726 -0.1687
  770MOL0     H 1599   6.102   9.477   4.076 -3.4296  0.1131 -1.0932
  770MOL0     H 1600   6.018   9.743   3.956 -0.1782 -0.1944  0.7455
  770MOL0     H 1601   6.060   9.719   4.122  1.1644 -0.5965 -0.0805
  770MOL0     H 1602   5.671   9.514   4.125  1.3895  0.0391 -1.2682
  770MOL0     H 1603   5.477   9.651   4.231 -0.4780  2.8207  2.5831
  770MOL0     H 1604   5.332  10.109   4.369 -1.4722  2.4341 -1.0955
  770MOL0     H 1605   5.122  10.204   4.440 -0.9243  0.5432 -1.8579
  770MOL0     H 1606   4.868   9.926   4.608  1.4032  0.9316 -0.7821
  770MOL0     H 1607   4.725   9.964   4.534 -0.3766 -1.5994  2.6021
  770MOL0     H 1608   4.746  10.201   4.593  0.0485 -0.5353 -1.0407
  770MOL0     H 1609   4.860  10.159   4.725 -0.3109  1.9256  0.0586
  770MOL0     H 1610   4.681   9.995   4.828  0.1193  1.8397  2.4307
  770MOL0     H 1611   4.571  10.053   4.705 -1.4648  3.0779  1.3091
  770MOL0     H 1612   4.747  10.222   4.900  0.7568 -0.9595  0.0793
  770MOL0     H 1613   4.624  10.302   4.810  1.8697 -0.4536 -1.6337
  770MOL0     H 1614   4.613  10.156   5.060  2.4857  0.6885 -1.6136
  770MOL0     H 1615   4.479  10.103   4.962 -0.2340  1.0636  0.2876
  770MOL0     H 1616   4.436  10.378   4.938 -2.6392  0.9397  1.9733
  770MOL0     H 1617   4.539  10.387   5.067 -2.1434  0.6767  2.1048
  770MOL0     H 1618   4.313  10.186   5.061  0.1684 -0.7932  1.1626
  770MOL0     H 1619   4.383  10.243   5.203  0.1360  2.4181  0.3949
  770MOL0     H 1620   4.289  10.492   5.121  2.0399  0.0647  2.4444
  770MOL0     H 1621   4.188  10.364   5.205  0.4535  0.3897  0.8571
  770MOL0     H 1622   4.936   9.808   4.409 -1.1629 -0.8563 -0.2215
  770MOL0     H 1623   5.141   9.722   4.327 -0.7227  0.3047 -0.9080
  770MOL0     H 1624   5.682  10.005   4.095  1.0099  0.0668 -2.6934
  770MOL0     H 1625   5.875   9.881   4.027 -0.0984  0.6568  0.4077
  770MOL0     H 1626   7.539   9.229   3.658 -1.4816 -0.0811  0.6768
  770MOL0     H 1627   7.785   9.238   3.641  3.4017  0.3012  2.9101
  770MOL0     H 1628   8.130   9.064   3.969  0.1674 -1.6979 -0.9432
  770MOL0     H 1629   8.370   9.019   3.943 -1.1168 -1.0295 -0.8362
  770MOL0     H 1630   8.590   8.972   3.753  1.5201 -1.9009  3.7062
  770MOL0     H 1631   8.617   9.016   3.921 -0.4466 -1.0722  1.0422
  770MOL0     H 1632   8.809   9.152   3.848  0.7360  1.7883 -0.3617
  770MOL0     H 1633   8.814   8.977   3.804 -1.4804 -0.1039  3.5007
  770MOL0     H 1634   8.739   9.205   3.601  0.5108  0.3424 -2.9946
  770MOL0     H 1635   8.747   9.030   3.561  1.5952  1.5420 -1.7747
  770MOL0     H 1636   8.956   9.250   3.631  1.0339  0.5071 -1.8963
  770MOL0     H 1637   9.010   9.084   3.641  1.5393  0.2422 -0.3662
  770MOL0     H 1638   8.990   9.126   3.227  0.0865 -0.1877  0.2369
  770MOL0     H 1639   8.422   9.384   3.725  0.9503 -1.4389  1.1259
  770MOL0     H 1640   8.179   9.406   3.707 -2.2303 -2.2572 -1.0935
  771MOL0     O 1641   0.211   8.191   3.135  0.2450  0.4283 -0.2502
  771MOL0     C 1642   0.244   8.115   3.048 -0.3470  0.5948 -0.8304
  771MOL0     O 1643   0.175   8.084   2.934  0.1370  0.0136 -0.6197
  771MOL0     C 1644   0.049   8.142   2.908 -0.0062  0.4092  0.1184
  771MOL0     C 1645  -0.055   8.115   2.995 -0.0373  0.8079 -0.3068
  771MOL0     C 1646  -0.178   8.181   2.986 -0.6354 -0.1195 -0.1295
  771MOL0     C 1647  -0.198   8.270   2.872 -0.3755  0.5179  0.0751
  771MOL0     O 1648  -0.317   8.333   2.862 -0.5548 -0.2182  0.3061
  771MOL0     C 1649  -0.414   8.241   2.816  0.2455 -0.3075  0.1882
  771MOL0     C 1650  -0.508   8.212   2.942  0.9013  0.2779 -0.1069
  771MOL0     C 1651  -0.633   8.150   2.894  0.0205  0.1026  0.8391
  771MOL0     C 1652  -0.742   8.235   2.826 -0.8150 -0.2233  0.2584
  771MOL0     C 1653  -0.858   8.152   2.772  0.3865 -0.5909  0.3768
  771MOL0     C 1654  -0.946   8.231   2.672 -0.3382  0.3347  0.7711
  771MOL0     C 1655  -1.070   8.137   2.647 -0.8323 -0.7204 -0.3017
  771MOL0     C 1656  -1.057   8.009   2.560 -0.7925  0.4991  0.2849
  771MOL0     N 1657  -1.175   7.920   2.566 -0.3364  0.2325  0.6776
  771MOL0     C 1658  -1.219   7.843   2.670 -0.0639 -1.0072 -0.3636
  771MOL0     C 1659  -1.335   7.789   2.630  0.1011  1.4572 -0.8730
  771MOL0     C 1660  -1.416   7.694   2.723  0.5746 -0.6535  0.2568
  771MOL0     C 1661  -1.342   7.566   2.776  0.4289  0.2252  0.1669
  771MOL0     C 1662  -1.412   7.477   2.890 -0.5763 -0.6311 -0.2941
  771MOL0     C 1663  -1.487   7.357   2.826  0.1289 -0.7030 -0.5199
  771MOL0     O 1664  -1.560   7.277   2.922 -0.4252 -0.1552  0.0681
  771MOL0     C 1665  -1.659   7.191   2.870  0.0372 -0.3670 -1.5340
  771MOL0     C 1666  -1.773   7.161   2.942 -0.2390 -0.5725 -0.0870
  771MOL0     C 1667  -1.877   7.087   2.885  0.4127 -0.6336 -0.4808
  771MOL0     C 1668  -1.872   7.047   2.746 -0.2801  0.2991 -0.3449
  771MOL0     C 1669  -1.985   6.980   2.679  0.1660  1.1367 -0.4342
  771MOL0     O 1670  -2.080   6.923   2.771  0.0035 -0.1678  0.5017
  771MOL0     C 1671  -2.204   6.878   2.717  0.2435  0.0401 -0.6679
  771MOL0     C 1672  -2.281   6.956   2.628 -0.3056 -0.1224 -0.2985
  771MOL0     C 1673  -2.406   6.912   2.581  0.3572  0.5573 -0.5128
  771MOL0     C 1674  -2.466   6.785   2.627  0.2374 -0.6484  1.2506
  771MOL0     O 1675  -2.593   6.747   2.589  0.2684  1.0003  0.7490
  771MOL0     C 1676  -2.676   6.830   2.509  0.3710 -0.5031  0.0061
  771MOL0     C 1677  -2.823   6.773   2.513 -0.5978  0.3079 -0.7163
  771MOL0     C 1678  -2.886   6.740   2.653  0.2308 -0.4161 -0.0495
  771MOL0     C 1679  -3.044   6.761   2.644 -0.1097  0.9690  0.6990
  771MOL0     C 1680  -3.121   6.732   2.776  0.5626  0.1963  0.6933
  771MOL0     C 1681  -3.264   6.694   2.757 -0.4215  0.1456  0.3670
  771MOL0     C 1682  -3.351   6.775   2.647 -0.3096  0.2762 -0.2868
  771MOL0     C 1683  -3.485   6.692   2.654 -0.4871 -0.7227  0.4303
  771MOL0    Cl 1684  -3.598   6.787   2.540 -0.0164  0.3415  0.0895
  771MOL0     C 1685  -2.396   6.717   2.718  0.0385  0.1347 -0.5874
  771MOL0     C 1686  -2.266   6.754   2.757 -0.8894 -0.9901  0.5460
  771MOL0     O 1687  -1.985   6.963   2.561  0.2976  0.7712  0.6699
  771MOL0     C 1688  -1.756   7.070   2.679  0.1126  0.4043  0.0936
  771MOL0     C 1689  -1.647   7.139   2.741  0.8128  0.5691 -0.3710
  771MOL0     N 1690  -1.364   7.836   2.504  1.2384  0.5060 -0.1179
  771MOL0     N 1691  -1.272   7.912   2.472  0.2158 -0.3988 -0.1681
  771MOL0     C 1692  -0.091   8.291   2.789 -1.0389  0.6485 -0.6999
  771MOL0     C 1693   0.036   8.229   2.801 -0.6828 -0.1360 -0.1905
  771MOL0     C 1694   0.381   8.053   3.065 -0.6005  0.1475 -0.8372
  771MOL0     C 1695   0.414   7.948   2.976 -0.3648 -0.9045  0.3884
  771MOL0     C 1696   0.541   7.897   2.978  0.8597  0.8933 -0.2840
  771MOL0     C 1697   0.641   7.922   3.088  0.8827  0.3100  0.4360
  771MOL0     O 1698   0.769   7.870   3.090  0.1731  0.4145 -0.1219
  771MOL0     C 1699   0.800   7.751   3.008  0.0554 -0.1433  0.6079
  771MOL0     C 1700   0.924   7.683   3.062 -0.4825  0.1731 -0.8256
  771MOL0     C 1701   1.053   7.771   3.050  0.3839  0.5657 -0.1206
  771MOL0     C 1702   1.172   7.682   3.080 -0.0558 -0.4080 -0.1666
  771MOL0     C 1703   1.295   7.760   3.063  0.9546  0.9034  1.1530
  771MOL0     C 1704   1.412   7.793   3.070  0.2026 -0.4392  0.2505
  771MOL0     C 1705   0.597   8.018   3.178  0.5879 -0.3680 -0.4911
  771MOL0     C 1706   0.466   8.081   3.169  0.5187  0.0717 -1.0092
  771MOL0     H 1707  -0.032   8.040   3.069  0.8179  0.6766 -0.6932
  771MOL0     H 1708  -0.259   8.160   3.055  0.1323 -2.8884  0.0344
  771MOL0     H 1709  -0.374   8.149   2.775 -0.8991 -0.0965 -1.5044
  771MOL0     H 1710  -0.473   8.291   2.739  1.6485  2.4400  0.7739
  771MOL0     H 1711  -0.527   8.306   2.996  1.5112 -0.9009  2.2714
  771MOL0     H 1712  -0.468   8.147   3.019  0.9589  0.8663  0.3642
  771MOL0     H 1713  -0.676   8.099   2.980 -0.2440 -0.7745  0.2009
  771MOL0     H 1714  -0.613   8.064   2.829  0.8846  1.5051 -0.8476
  771MOL0     H 1715  -0.774   8.302   2.907  1.8097  3.1250 -1.1962
  771MOL0     H 1716  -0.690   8.295   2.751  2.2857 -1.5853  1.1278
  771MOL0     H 1717  -0.917   8.129   2.861 -1.9056 -3.5454 -1.7306
  771MOL0     H 1718  -0.822   8.059   2.727 -1.5201 -0.3646 -1.7282
  771MOL0     H 1719  -0.897   8.266   2.581 -0.9272  0.9414  0.6825
  771MOL0     H 1720  -0.989   8.323   2.713  0.0681  2.0513 -2.4039
  771MOL0     H 1721  -1.132   8.124   2.737  0.0033 -0.4203  0.3337
  771MOL0     H 1722  -1.131   8.210   2.593 -1.4290 -1.6725 -0.9400
  771MOL0     H 1723  -0.971   7.949   2.591 -1.8347 -1.5892 -0.6936
  771MOL0     H 1724  -1.041   8.040   2.457 -1.1637  0.8759  0.3398
  771MOL0     H 1725  -1.163   7.841   2.763 -0.1502 -1.1761 -0.3154
  771MOL0     H 1726  -1.512   7.668   2.676 -0.2452  1.4509  0.6145
  771MOL0     H 1727  -1.449   7.748   2.812 -0.4469 -0.8749  0.0307
  771MOL0     H 1728  -1.246   7.600   2.817 -0.7084  3.1303  0.6163
  771MOL0     H 1729  -1.328   7.497   2.693  0.3551 -1.3110  1.3881
  771MOL0     H 1730  -1.345   7.427   2.960 -0.5502 -2.4757 -1.5570
  771MOL0     H 1731  -1.483   7.542   2.942 -0.4472 -0.9643  0.3024
  771MOL0     H 1732  -1.423   7.290   2.769  0.2087 -2.6539  1.6720
  771MOL0     H 1733  -1.559   7.404   2.759 -0.1799 -0.7167 -0.1999
  771MOL0     H 1734  -1.787   7.210   3.038 -0.1309  2.0245 -1.3175
  771MOL0     H 1735  -1.969   7.079   2.941  1.6961  2.6309  2.5084
  771MOL0     H 1736  -2.262   7.056   2.591 -2.2295 -0.0992 -1.3065
  771MOL0     H 1737  -2.464   6.970   2.510 -1.5949  0.7252  1.1218
  771MOL0     H 1738  -2.626   6.842   2.412  2.3379 -1.3621  0.8727
  771MOL0     H 1739  -2.676   6.934   2.542 -1.3728 -0.0463 -1.2498
  771MOL0     H 1740  -2.821   6.683   2.450  0.2230 -2.3845  2.8156
  771MOL0     H 1741  -2.883   6.848   2.461  0.4416  2.3185  0.8636
  771MOL0     H 1742  -2.840   6.806   2.726 -1.2065  0.2253  0.3158
  771MOL0     H 1743  -2.855   6.643   2.690 -1.0051 -0.4852  0.8766
  771MOL0     H 1744  -3.063   6.864   2.611 -0.9192  1.0484  1.3545
  771MOL0     H 1745  -3.080   6.692   2.568  1.7218 -0.5962  1.1874
  771MOL0     H 1746  -3.115   6.818   2.843  2.6541  0.2848  0.4406
  771MOL0     H 1747  -3.068   6.646   2.819  0.6463  0.6525  1.5228
  771MOL0     H 1748  -3.316   6.707   2.853 -0.5146 -2.4297  0.7216
  771MOL0     H 1749  -3.263   6.588   2.731  4.3413 -0.2825  1.3200
  771MOL0     H 1750  -3.387   6.872   2.683  0.0387  0.2380  0.1707
  771MOL0     H 1751  -3.314   6.773   2.544 -3.4465 -0.4967 -1.5111
  771MOL0     H 1752  -3.507   6.689   2.761 -0.9608  1.2116  0.4172
  771MOL0     H 1753  -3.468   6.589   2.620 -0.3399 -2.3042  4.6402
  771MOL0     H 1754  -2.421   6.617   2.753  0.8235 -0.3685 -1.4216
  771MOL0     H 1755  -2.206   6.685   2.816 -0.2280 -0.1510  0.8749
  771MOL0     H 1756  -1.730   7.026   2.583 -0.3021  1.4657 -0.5170
  771MOL0     H 1757  -1.546   7.152   2.702  0.6859  1.8738 -0.3147
  771MOL0     H 1758  -0.110   8.351   2.700 -3.4895  0.6153 -0.2435
  771MOL0     H 1759   0.130   8.253   2.753 -0.2995  0.1102  0.6552
  771MOL0     H 1760   0.349   7.925   2.891  2.0807  0.4012 -2.0010
  771MOL0     H 1761   0.566   7.819   2.906 -0.5904 -1.6680  1.7817
  771MOL0     H 1762   0.822   7.775   2.904  1.4799  1.0746  1.1554
  771MOL0     H 1763   0.714   7.683   3.005  0.0617 -0.1480 -2.9179
  771MOL0     H 1764   0.903   7.653   3.164 -0.1574 -2.0495 -1.3698
  771MOL0     H 1765   0.953   7.589   3.014 -1.0940 -1.1630  1.3226
  771MOL0     H 1766   1.053   7.845   3.130 -1.4148 -0.2139  0.6619
  771MOL0     H 1767   1.067   7.817   2.952  4.3995  0.4247  0.2005
  771MOL0     H 1768   1.156   7.643   3.181  1.3787  1.7774  0.9917
  771MOL0     H 1769   1.170   7.598   3.009 -1.0107 -0.1713 -0.4378
  771MOL0     H 1770   1.515   7.821   3.069 -0.6725  3.3850 -0.9039
  771MOL0     H 1771   0.662   8.035   3.263 -0.0156  1.1453 -0.2996
  771MOL0     H 1772   0.438   8.150   3.249  0.2882 -0.4316 -0.6540
  772MOL0     O 1773   4.212   0.125   7.119  0.3209 -0.4538 -0.3088
  772MOL0     C 1774   4.216   0.111   6.997  0.2149  0.4208 -0.6010
  772MOL0     O 1775   4.335   0.097   6.927 -0.1231  0.4582 -0.0996
  772MOL0     C 1776   4.435   0.022   6.993  0.0664  0.3092 -0.1572
  772MOL0     C 1777   4.441  -0.116   7.031 -0.0998 -0.4232 -0.3148
  772MOL0     C 1778   4.560  -0.171   7.068  0.4714  0.3832  0.2981
  772MOL0     C 1779   4.675  -0.092   7.080 -0.3471  1.2547  0.2668
  772MOL0     O 1780   4.793  -0.141   7.129 -0.3870 -0.1180 -0.7149
  772MOL0     C 1781   4.826  -0.284   7.113 -0.1365 -0.9635  0.5446
  772MOL0     C 1782   4.982  -0.306   7.113  0.8053 -0.6132 -0.3130
  772MOL0     C 1783   5.057  -0.234   6.992  0.5681  0.7518 -0.5442
  772MOL0     C 1784   5.209  -0.259   6.989  0.9685 -0.4210  0.3709
  772MOL0     C 1785   5.283  -0.133   6.931 -0.5079  0.2027  0.3782
  772MOL0     C 1786   5.295  -0.005   7.026  0.1632  0.0927  0.6010
  772MOL0     C 1787   5.383   0.101   6.949 -0.4203 -0.0006  1.3757
  772MOL0     C 1788   5.359   0.235   7.012 -0.3986  0.4297  0.6413
  772MOL0     N 1789   5.424   0.334   6.922  0.2725 -0.3589  0.1266
  772MOL0     C 1790   5.367   0.448   6.863  0.5029 -0.5630 -0.6093
  772MOL0     C 1791   5.463   0.501   6.783 -0.7808 -0.8378  0.1723
  772MOL0     C 1792   5.462   0.630   6.703 -0.4013  0.1807 -0.5350
  772MOL0     C 1793   5.529   0.616   6.562 -0.3676  0.0369  0.1763
  772MOL0     C 1794   5.432   0.526   6.476  0.0380 -0.6908 -0.0408
  772MOL0     C 1795   5.475   0.543   6.326  0.9668 -0.1096  0.3848
  772MOL0     O 1796   5.406   0.658   6.265  0.5375 -0.0663  0.3364
  772MOL0     C 1797   5.264   0.656   6.262 -0.0012  0.7292 -1.0274
  772MOL0     C 1798   5.180   0.542   6.286  0.8773 -0.1048  0.3316
  772MOL0     C 1799   5.043   0.539   6.277  0.2059  0.0919  0.1891
  772MOL0     C 1800   4.975   0.661   6.250  0.4461 -0.4045 -1.0018
  772MOL0     C 1801   4.833   0.662   6.246  0.0787 -0.0921 -0.8104
  772MOL0     O 1802   4.784   0.762   6.190  0.6813  0.3534 -0.0299
  772MOL0     C 1803   4.648   0.774   6.170  0.3850  0.0251 -0.3433
  772MOL0     C 1804   4.561   0.671   6.142  0.9094 -0.4802  0.7575
  772MOL0     C 1805   4.427   0.690   6.114  0.5195  0.2224 -0.0112
  772MOL0     C 1806   4.365   0.818   6.108 -0.2220 -0.2114 -0.4138
  772MOL0     O 1807   4.232   0.855   6.098  0.1772  0.2213 -0.5793
  772MOL0     C 1808   4.155   0.763   6.173  0.1589 -0.0187 -0.2671
  772MOL0     C 1809   4.015   0.819   6.196 -0.1992 -0.1768 -0.0437
  772MOL0     C 1810   3.932   0.859   6.078  0.0088 -1.3159 -0.2933
  772MOL0     C 1811   3.865   0.746   5.998  0.0453 -0.3699  0.1446
  772MOL0     C 1812   3.804   0.801   5.871  0.8612 -0.1018 -0.7559
  772MOL0     C 1813   3.716   0.931   5.898 -0.6273  0.7861 -0.6793
  772MOL0     C 1814   3.608   0.931   6.008 -0.2081 -0.5600 -0.7776
  772MOL0     C 1815   3.517   1.057   6.005  0.2189  0.0419  0.4474
  772MOL0    Cl 1816   3.375   1.027   6.122  0.1943  0.0993 -0.3880
  772MOL0     C 1817   4.457   0.921   6.139 -0.3594  0.0951 -0.1252
  772MOL0     C 1818   4.595   0.904   6.172 -0.4985  0.3413  0.5431
  772MOL0     O 1819   4.770   0.579   6.309  0.4585  0.8328 -0.0075
  772MOL0     C 1820   5.053   0.775   6.210 -1.6732 -1.2790  0.1865
  772MOL0     C 1821   5.192   0.773   6.227  0.1150 -0.0452  0.1497
  772MOL0     N 1822   5.573   0.419   6.793 -0.0540 -0.0832 -0.1792
  772MOL0     N 1823   5.549   0.319   6.874  0.0565  0.2784 -0.1210
  772MOL0     C 1824   4.671   0.044   7.048  0.5073  0.0664 -0.2418
  772MOL0     C 1825   4.557   0.094   6.996  0.4603  0.4117  0.0029
  772MOL0     C 1826   4.097   0.138   6.913  0.9511 -0.8544  1.1117
  772MOL0     C 1827   3.979   0.189   6.981  0.0330  0.6522  0.4495
  772MOL0     C 1828   3.865   0.219   6.905 -0.0853 -0.5305  0.1692
  772MOL0     C 1829   3.854   0.186   6.767  0.4148  0.4235  0.4304
  772MOL0     O 1830   3.745   0.218   6.692  0.4371 -0.3417 -0.3519
  772MOL0     C 1831   3.648   0.113   6.683 -0.6164 -0.0473 -0.7357
  772MOL0     C 1832   3.521   0.177   6.750 -0.2195  0.2598 -0.7303
  772MOL0     C 1833   3.387   0.152   6.660 -0.9163  0.3351  0.1872
  772MOL0     C 1834   3.355   0.015   6.614  0.5924  0.5391 -1.0725
  772MOL0     C 1835   3.225   0.003   6.540 -0.8172 -0.5727  0.7109
  772MOL0     C 1836   3.123  -0.013   6.474  0.7374  0.4163 -0.0077
  772MOL0     C 1837   3.971   0.133   6.704 -0.3499 -0.4668 -1.0597
  772MOL0     C 1838   4.084   0.105   6.779  0.3525 -0.6512  0.8064
  772MOL0     H 1839   4.346  -0.167   7.031 -1.2613  1.6394  0.3586
  772MOL0     H 1840   4.561  -0.277   7.095  3.9747  0.0279 -0.7764
  772MOL0     H 1841   4.781  -0.317   7.018 -0.0530 -0.6109  0.3778
  772MOL0     H 1842   4.800  -0.339   7.203  4.2249 -1.1767  1.8702
  772MOL0     H 1843   5.010  -0.411   7.110  0.9841 -0.5854  0.2482
  772MOL0     H 1844   5.020  -0.271   7.209 -0.6593  0.3215 -0.0323
  772MOL0     H 1845   5.034  -0.127   7.002 -2.9442 -0.0460  1.7343
  772MOL0     H 1846   5.017  -0.275   6.899 -0.4681 -1.1445  0.6673
  772MOL0     H 1847   5.237  -0.276   7.093 -3.0616  1.8349  2.0915
  772MOL0     H 1848   5.225  -0.345   6.924 -0.4052 -0.6147  0.2431
  772MOL0     H 1849   5.233  -0.111   6.836  1.2420 -2.7664 -1.3951
  772MOL0     H 1850   5.383  -0.173   6.909 -1.8411 -2.5578 -1.3191
  772MOL0     H 1851   5.339  -0.025   7.124 -0.4240  2.4660  1.4161
  772MOL0     H 1852   5.194   0.033   7.045 -0.0189 -1.7604  4.0917
  772MOL0     H 1853   5.486   0.066   6.943 -0.1026  1.1051 -0.2092
  772MOL0     H 1854   5.343   0.107   6.848 -1.6380  2.6716  1.9083
  772MOL0     H 1855   5.402   0.231   7.112  0.3657  1.0917  0.3528
  772MOL0     H 1856   5.253   0.262   7.019 -0.1925  0.9851  1.7094
  772MOL0     H 1857   5.274   0.500   6.883  0.6726 -0.3312 -0.4093
  772MOL0     H 1858   5.515   0.696   6.772 -2.9383  2.3142 -0.4200
  772MOL0     H 1859   5.357   0.659   6.686 -1.7045 -3.7145 -0.1062
  772MOL0     H 1860   5.629   0.573   6.580 -0.2053 -0.0261 -0.8336
  772MOL0     H 1861   5.538   0.716   6.519  0.1364 -0.2405 -0.3912
  772MOL0     H 1862   5.446   0.423   6.510 -0.4494 -2.0117 -3.4739
  772MOL0     H 1863   5.328   0.557   6.491 -0.4034 -1.3772 -1.5622
  772MOL0     H 1864   5.468   0.460   6.255  0.3728  1.1626 -1.1059
  772MOL0     H 1865   5.580   0.573   6.327  0.5605  1.6060 -1.4037
  772MOL0     H 1866   5.226   0.449   6.320 -1.9508 -0.9483  2.1772
  772MOL0     H 1867   4.988   0.463   6.333  1.9539 -0.6580  0.9612
  772MOL0     H 1868   4.582   0.564   6.137  0.9565 -0.5133  1.5763
  772MOL0     H 1869   4.367   0.600   6.108  1.3769 -0.3959  0.3384
  772MOL0     H 1870   4.194   0.756   6.275  0.3641  1.6310 -0.1982
  772MOL0     H 1871   4.152   0.666   6.124  2.7035 -0.4148  0.2232
  772MOL0     H 1872   4.018   0.908   6.259  0.6803  1.8123 -2.7579
  772MOL0     H 1873   3.966   0.737   6.249 -0.8002  0.4583  0.3968
  772MOL0     H 1874   3.987   0.924   6.010 -1.1932 -0.4716 -0.4841
  772MOL0     H 1875   3.861   0.924   6.129  0.3175  0.0248 -1.4991
  772MOL0     H 1876   3.938   0.669   5.973 -1.6635 -1.4560 -1.8568
  772MOL0     H 1877   3.792   0.703   6.068  2.4557 -3.5618  0.9214
  772MOL0     H 1878   3.741   0.722   5.831  2.7920 -2.2106  0.1637
  772MOL0     H 1879   3.878   0.830   5.796  1.7192  1.1728  0.5147
  772MOL0     H 1880   3.664   0.955   5.804  2.1845  0.5839 -2.4052
  772MOL0     H 1881   3.784   1.016   5.911 -2.7775  2.4845  0.0839
  772MOL0     H 1882   3.549   0.840   5.993  1.4995 -1.6767 -0.9505
  772MOL0     H 1883   3.661   0.941   6.103  0.0376  1.7139 -1.1047
  772MOL0     H 1884   3.478   1.057   5.902  5.0945 -2.9672 -1.7774
  772MOL0     H 1885   3.571   1.151   6.023  0.3225  0.6120 -2.3626
  772MOL0     H 1886   4.429   1.026   6.132  2.8823  1.0769  0.1856
  772MOL0     H 1887   4.661   0.989   6.187  0.4107 -0.5408  1.7320
  772MOL0     H 1888   5.009   0.864   6.167  0.8172 -1.8000 -4.0023
  772MOL0     H 1889   5.248   0.861   6.196 -3.1027  1.5023 -1.8607
  772MOL0     H 1890   4.759   0.107   7.049 -0.6944  1.8095 -0.4296
  772MOL0     H 1891   4.556   0.200   6.973 -1.2505  0.2586 -0.8214
  772MOL0     H 1892   3.982   0.225   7.083 -0.4204 -2.3565  1.6347
  772MOL0     H 1893   3.778   0.265   6.951 -0.7282 -0.4253 -1.1157
  772MOL0     H 1894   3.678   0.025   6.740  1.2693  0.8820 -0.2070
  772MOL0     H 1895   3.633   0.073   6.582  1.6574 -4.9239  0.5753
  772MOL0     H 1896   3.503   0.150   6.854 -0.5851  2.8702 -0.0390
  772MOL0     H 1897   3.529   0.286   6.746 -1.8180  0.4523  0.2570
  772MOL0     H 1898   3.399   0.209   6.567 -0.9132 -2.1477 -1.4354
  772MOL0     H 1899   3.309   0.202   6.719 -0.0921  0.0124  1.5829
  772MOL0     H 1900   3.432  -0.021   6.545  0.1131  0.0675 -1.3747
  772MOL0     H 1901   3.339  -0.051   6.699 -1.9917  1.5308 -0.6822
  772MOL0     H 1902   3.032  -0.040   6.424  1.2848 -0.7497 -0.4047
  772MOL0     H 1903   3.973   0.108   6.599  0.9256  0.6348 -1.3132
  772MOL0     H 1904   4.168   0.068   6.720  0.8944  0.2398  1.0117
  773MOL0     O 1905  10.304   7.066   1.921 -0.1190 -0.1049  0.9502
  773MOL0     C 1906  10.345   6.964   1.867 -0.5237  0.5412 -0.5854
  773MOL0     O 1907  10.276   6.871   1.806 -0.1710 -0.5030 -0.3110
  773MOL0     C 1908  10.141   6.876   1.812 -0.3020 -0.0556  1.3117
  773MOL0     C 1909  10.063   6.974   1.750  0.2343  0.5994 -0.1619
  773MOL0     C 1910   9.919   6.973   1.748  0.7453  0.9026 -0.7481
  773MOL0     C 1911   9.851   6.860   1.804  0.4005 -0.1104 -0.5469
  773MOL0     O 1912   9.716   6.855   1.808  0.7672  0.0638 -0.0615
  773MOL0     C 1913   9.641   6.977   1.810 -0.5169  0.4991  0.3613
  773MOL0     C 1914   9.501   6.943   1.857  0.2105 -0.5313 -0.2895
  773MOL0     C 1915   9.480   6.931   2.004  0.0403 -0.2290 -0.1275
  773MOL0     C 1916   9.559   6.818   2.074 -0.6004 -0.0391  0.5376
  773MOL0     C 1917   9.504   6.758   2.198  0.4478 -0.1692 -0.7923
  773MOL0     C 1918   9.363   6.712   2.186 -0.2458 -0.2461  0.3180
  773MOL0     C 1919   9.281   6.785   2.295 -0.4604  0.4276 -0.9280
  773MOL0     C 1920   9.131   6.805   2.255  0.6187  0.7550  0.1638
  773MOL0     N 1921   9.038   6.697   2.267  0.2330 -0.1103  0.4729
  773MOL0     C 1922   9.050   6.593   2.350 -1.0956  0.8096  0.6171
  773MOL0     C 1923   8.934   6.521   2.350 -0.1300 -0.4307  0.4506
  773MOL0     C 1924   8.917   6.395   2.428 -0.3291 -0.3484  0.2377
  773MOL0     C 1925   8.797   6.322   2.386  0.3828  0.0228  0.3218
  773MOL0     C 1926   8.670   6.374   2.446  0.0290 -0.9879 -0.3858
  773MOL0     C 1927   8.547   6.284   2.426 -0.0986  0.0364  0.2066
  773MOL0     O 1928   8.443   6.346   2.493  0.9129 -0.3313 -0.2964
  773MOL0     C 1929   8.313   6.296   2.479 -0.2585  0.8190  0.4639
  773MOL0     C 1930   8.272   6.176   2.418 -0.0164 -0.1598 -1.2553
  773MOL0     C 1931   8.135   6.153   2.391  0.6243 -0.5981  0.7485
  773MOL0     C 1932   8.038   6.242   2.434  0.2593  0.0669  0.3993
  773MOL0     C 1933   7.896   6.216   2.420  0.9066  0.5968  0.0798
  773MOL0     O 1934   7.810   6.302   2.480  0.0883  0.2676 -0.5518
  773MOL0     C 1935   7.677   6.304   2.443  0.6805 -0.0162  0.3229
  773MOL0     C 1936   7.613   6.417   2.398 -0.3619 -0.0552 -0.8669
  773MOL0     C 1937   7.478   6.427   2.379 -0.1784  0.0068  1.2158
  773MOL0     C 1938   7.392   6.319   2.401  0.2300  0.0736  0.1879
  773MOL0     O 1939   7.258   6.349   2.385  0.2097  0.0015  0.1085
  773MOL0     C 1940   7.157   6.254   2.425  0.3671 -0.0164  0.0008
  773MOL0     C 1941   7.114   6.164   2.306 -0.3175  0.7769 -0.2827
  773MOL0     C 1942   7.020   6.214   2.198 -0.3133 -0.3906  0.3514
  773MOL0     C 1943   6.997   6.108   2.088  0.3117 -0.1877  0.3118
  773MOL0     C 1944   6.926   6.171   1.963 -0.3293 -0.5906 -0.3224
  773MOL0     C 1945   6.773   6.183   1.991 -1.0332  0.7298 -0.6640
  773MOL0     C 1946   6.700   6.256   1.874 -0.0609 -1.1819 -0.3131
  773MOL0     C 1947   6.733   6.416   1.881 -0.5877  0.8003 -0.0110
  773MOL0    Cl 1948   6.634   6.522   1.767 -0.1376  0.0889 -0.2348
  773MOL0     C 1949   7.450   6.196   2.438  0.3638 -0.7968 -0.8419
  773MOL0     C 1950   7.584   6.191   2.463 -1.3495 -0.6761  0.0689
  773MOL0     O 1951   7.864   6.104   2.364 -0.1556 -0.2845 -0.3486
  773MOL0     C 1952   8.076   6.347   2.514 -0.8445 -0.5561  0.2790
  773MOL0     C 1953   8.210   6.378   2.535  0.1182 -0.0362 -0.6611
  773MOL0     N 1954   8.855   6.593   2.254  0.0388 -0.1639 -0.1691
  773MOL0     N 1955   8.914   6.694   2.206  0.2041 -0.4246 -0.0455
  773MOL0     C 1956   9.931   6.765   1.863  0.4366  1.1920 -0.4434
  773MOL0     C 1957  10.074   6.776   1.861  1.0444  1.0141 -0.1209
  773MOL0     C 1958  10.492   6.944   1.860  0.0826  0.6554 -0.0507
  773MOL0     C 1959  10.578   7.049   1.902 -0.0598  0.0264  0.5453
  773MOL0     C 1960  10.709   7.031   1.907 -0.1533 -0.3593 -0.7369
  773MOL0     C 1961  10.772   6.913   1.878  0.7092  0.0485  0.0671
  773MOL0     O 1962  10.913   6.903   1.868 -0.1242  0.3729  0.2346
  773MOL0     C 1963  11.003   7.011   1.859  0.3434 -0.3418  0.1985
  773MOL0     C 1964  11.141   6.963   1.829 -0.8526  0.4241  0.3270
  773MOL0     C 1965  11.249   7.070   1.839 -0.0377  0.3112  0.6048
  773MOL0     C 1966  11.381   6.994   1.862 -0.1121 -0.3005  0.6197
  773MOL0     C 1967  11.389   6.936   1.996  0.2180  0.0471  0.2744
  773MOL0     C 1968  11.396   6.897   2.113 -0.5290 -0.2344 -0.0218
  773MOL0     C 1969  10.695   6.811   1.834 -0.4600 -0.3153 -0.0442
  773MOL0     C 1970  10.554   6.819   1.831  0.0415  0.3929 -0.2709
  773MOL0     H 1971  10.111   7.065   1.714  1.4857 -0.4535 -1.2249
  773MOL0     H 1972   9.868   7.062   1.712  0.6833  2.5508  2.9881
  773MOL0     H 1973   9.628   7.014   1.708  0.3442 -1.1174 -0.3806
  773MOL0     H 1974   9.693   7.053   1.870 -0.0367 -1.0996  2.0865
  773MOL0     H 1975   9.472   6.851   1.804 -1.3816 -0.1313 -0.1599
  773MOL0     H 1976   9.437   7.021   1.814  0.0892 -1.1831 -1.3435
  773MOL0     H 1977   9.371   6.927   2.018 -0.3926 -0.2109 -2.9098
  773MOL0     H 1978   9.511   7.027   2.046 -2.7694  1.7779 -2.1861
  773MOL0     H 1979   9.571   6.746   1.993 -0.9576 -0.2672  0.6856
  773MOL0     H 1980   9.662   6.853   2.091 -0.5358  0.2558 -0.4263
  773MOL0     H 1981   9.523   6.828   2.279  3.8119  1.3285 -2.6951
  773MOL0     H 1982   9.567   6.669   2.212 -0.2885 -0.6466 -0.4715
  773MOL0     H 1983   9.356   6.604   2.206  2.1477 -0.5741 -0.2734
  773MOL0     H 1984   9.326   6.730   2.084 -0.0157 -2.1417 -0.1524
  773MOL0     H 1985   9.301   6.735   2.390  0.2394  2.7748  0.2531
  773MOL0     H 1986   9.327   6.884   2.306  0.6359 -0.0029 -1.4188
  773MOL0     H 1987   9.138   6.832   2.149 -1.3014  0.9890  0.0718
  773MOL0     H 1988   9.089   6.889   2.310  0.0933  1.0636 -0.6910
  773MOL0     H 1989   9.139   6.562   2.404 -0.4714  0.4354 -0.5817
  773MOL0     H 1990   8.914   6.424   2.534  0.5069  0.3795  0.0816
  773MOL0     H 1991   8.999   6.329   2.398  0.7644 -1.0972  4.2446
  773MOL0     H 1992   8.801   6.216   2.412 -0.0551 -0.4368 -1.3774
  773MOL0     H 1993   8.787   6.324   2.277  2.2612 -0.1150  0.1171
  773MOL0     H 1994   8.683   6.388   2.554  0.8378 -1.0774 -0.4645
  773MOL0     H 1995   8.655   6.474   2.406  1.3162 -0.5662  0.1489
  773MOL0     H 1996   8.571   6.192   2.481  0.5008 -1.0821 -1.8246
  773MOL0     H 1997   8.523   6.266   2.321  0.2429 -1.0450  0.3010
  773MOL0     H 1998   8.346   6.101   2.390  1.1060  0.8462 -1.0864
  773MOL0     H 1999   8.104   6.062   2.340 -3.1888  1.0991 -0.2980
  773MOL0     H 2000   7.681   6.500   2.387  0.0313  0.0764  1.7982
  773MOL0     H 2001   7.446   6.527   2.351  0.9571 -0.1194 -0.7730
  773MOL0     H 2002   7.067   6.306   2.456 -0.0765  1.8331 -3.8037
  773MOL0     H 2003   7.192   6.196   2.511  0.1828  2.3688  1.7867
  773MOL0     H 2004   7.074   6.074   2.354 -0.8811  0.4998 -1.2525
  773MOL0     H 2005   7.208   6.145   2.254  0.3942 -1.1738  1.5743
  773MOL0     H 2006   7.063   6.302   2.151  0.9869 -1.2326 -0.0986
  773MOL0     H 2007   6.924   6.237   2.245  0.4650 -0.4983  2.0996
  773MOL0     H 2008   7.098   6.075   2.062  0.5115 -0.8632  1.8365
  773MOL0     H 2009   6.956   6.013   2.126  1.1505 -0.2497  1.1026
  773MOL0     H 2010   6.951   6.121   1.869  1.7544 -2.3287  1.0559
  773MOL0     H 2011   6.970   6.271   1.957 -0.9876 -0.2094  0.8403
  773MOL0     H 2012   6.763   6.240   2.084 -0.9007 -0.8680  0.3721
  773MOL0     H 2013   6.729   6.083   2.000 -2.5934  1.2448 -2.2516
  773MOL0     H 2014   6.727   6.212   1.778 -0.6777  0.9252 -1.5150
  773MOL0     H 2015   6.593   6.237   1.885 -0.2925  0.5443  0.8754
  773MOL0     H 2016   6.837   6.428   1.848  0.2343 -1.7714  1.3786
  773MOL0     H 2017   6.712   6.466   1.976  0.3889  1.4608 -0.1316
  773MOL0     H 2018   7.397   6.107   2.471  2.8710 -3.3539 -3.1437
  773MOL0     H 2019   7.629   6.097   2.493 -1.5469 -0.4796  1.0017
  773MOL0     H 2020   8.007   6.419   2.556  2.0040  3.5718 -1.5306
  773MOL0     H 2021   8.229   6.465   2.596 -1.7120  1.0118 -1.5190
  773MOL0     H 2022   9.879   6.689   1.921 -0.2037  2.6595  1.0044
  773MOL0     H 2023  10.130   6.696   1.909 -0.4124 -1.1372 -1.7670
  773MOL0     H 2024  10.548   7.153   1.898  0.3211  0.1042 -1.3791
  773MOL0     H 2025  10.765   7.123   1.920  0.4037 -0.6256 -1.2097
  773MOL0     H 2026  11.011   7.067   1.952  2.2826  0.5579 -0.4597
  773MOL0     H 2027  10.967   7.073   1.777 -0.5900 -3.0042 -1.5637
  773MOL0     H 2028  11.166   6.873   1.886 -0.7957  2.0869  3.1088
  773MOL0     H 2029  11.137   6.922   1.728 -0.0776 -1.3972  0.9723
  773MOL0     H 2030  11.238   7.140   1.922  0.1807  1.3869 -0.2545
  773MOL0     H 2031  11.254   7.130   1.748  1.9897  1.7333  1.5887
  773MOL0     H 2032  11.378   6.913   1.789 -1.6721  1.0865 -0.9556
  773MOL0     H 2033  11.470   7.048   1.830  1.1345 -1.8675  1.3036
  773MOL0     H 2034  11.397   6.863   2.215  0.1566 -1.3417 -0.3853
  773MOL0     H 2035  10.732   6.719   1.790 -1.5117 -2.3590  2.9548
  773MOL0     H 2036  10.504   6.722   1.827  1.2779 -0.3585  1.4231
  774MOL0     O 2037   1.603  11.070   5.523 -0.1976  0.5068  0.1223
  774MOL0     C 2038   1.544  11.143   5.603 -0.4763  0.4446 -0.4244
  774MOL0     O 2039   1.413  11.137   5.637 -0.3028 -0.1588  0.2779
  774MOL0     C 2040   1.325  11.071   5.549  0.0421 -0.9322 -0.0904
  774MOL0     C 2041   1.238  10.970   5.597 -0.8521  0.2700 -0.2008
  774MOL0     C 2042   1.152  10.897   5.511 -0.1229 -0.1025 -0.0531
  774MOL0     C 2043   1.137  10.943   5.379  0.3032 -0.1199 -0.1148
  774MOL0     O 2044   1.034  10.874   5.316 -0.3706  0.6869 -1.2477
  774MOL0     C 2045   0.945  10.964   5.247 -0.2345 -0.2671 -0.6910
  774MOL0     C 2046   0.820  10.878   5.200 -0.1701 -0.1862 -1.0853
  774MOL0     C 2047   0.742  10.963   5.113 -0.1701  0.4152  0.5731
  774MOL0     C 2048   0.653  10.884   5.018 -0.1625  0.2926 -1.0077
  774MOL0     C 2049   0.527  10.826   5.087 -0.6693 -0.2734 -0.4477
  774MOL0     C 2050   0.436  10.753   4.989 -0.2438 -1.3091 -0.6547
  774MOL0     C 2051   0.313  10.715   5.080  0.9222 -0.0242  0.0123
  774MOL0     C 2052   0.210  10.648   4.988 -0.5255  0.3515  0.4831
  774MOL0     N 2053   0.088  10.600   5.038 -0.3593  0.2463 -0.3006
  774MOL0     C 2054   0.080  10.495   5.131  0.5415  0.7430  0.0259
  774MOL0     C 2055  -0.049  10.497   5.174  0.5863  0.4980 -0.8230
  774MOL0     C 2056  -0.127  10.393   5.253  0.2331 -0.8219 -0.2611
  774MOL0     C 2057  -0.089  10.255   5.208 -0.2293 -0.5734 -0.0283
  774MOL0     C 2058  -0.177  10.151   5.280  0.3248 -0.8628 -0.0314
  774MOL0     C 2059  -0.330  10.172   5.297 -0.4677  1.0043  0.3101
  774MOL0     O 2060  -0.379  10.180   5.160 -0.4298  0.7611 -0.7986
  774MOL0     C 2061  -0.509  10.202   5.140  0.7695  0.9068 -0.5832
  774MOL0     C 2062  -0.563  10.172   5.015 -0.0308  0.1223  0.0434
  774MOL0     C 2063  -0.700  10.195   4.985 -0.2273  0.3403 -0.4611
  774MOL0     C 2064  -0.770  10.264   5.083 -0.1255  0.3454  0.0721
  774MOL0     C 2065  -0.912  10.278   5.059  1.0066 -1.0524 -0.0445
  774MOL0     O 2066  -0.965  10.201   4.963 -0.4942  0.1258 -0.6211
  774MOL0     C 2067  -1.102  10.200   4.935 -0.6307  0.3637 -0.1335
  774MOL0     C 2068  -1.186  10.168   5.046  0.1093 -0.6487  0.7501
  774MOL0     C 2069  -1.323  10.156   5.020  0.6142 -0.0129  0.6312
  774MOL0     C 2070  -1.372  10.189   4.899  0.0064 -0.4107 -0.0661
  774MOL0     O 2071  -1.510  10.193   4.862  0.5613 -0.2315  0.6270
  774MOL0     C 2072  -1.597  10.268   4.942 -0.3281 -0.9339  0.8164
  774MOL0     C 2073  -1.740  10.259   4.888 -0.7961 -0.3908  0.4857
  774MOL0     C 2074  -1.755  10.304   4.740  0.6107  0.6561  0.1607
  774MOL0     C 2075  -1.901  10.272   4.690 -0.9399 -0.3297 -0.7356
  774MOL0     C 2076  -1.912  10.305   4.550  0.4736 -0.6445  0.3126
  774MOL0     C 2077  -2.061  10.277   4.509 -0.3383 -0.0740  0.9234
  774MOL0     C 2078  -2.074  10.218   4.371  0.0481 -0.3513  1.5438
  774MOL0     C 2079  -2.212  10.226   4.324  0.2901 -0.4189 -0.9808
  774MOL0    Cl 2080  -2.320  10.171   4.435  0.0639  0.2555  0.4152
  774MOL0     C 2081  -1.282  10.227   4.792 -0.0276  0.0124  0.0886
  774MOL0     C 2082  -1.145  10.224   4.812  0.5320  0.4734 -0.3808
  774MOL0     O 2083  -0.981  10.354   5.134 -1.1701 -0.5699  1.2785
  774MOL0     C 2084  -0.712  10.297   5.205 -0.1960 -0.1790  0.0561
  774MOL0     C 2085  -0.587  10.263   5.231 -0.8369 -0.7672 -0.5709
  774MOL0     N 2086  -0.106  10.621   5.138  0.3570 -0.6831 -0.0269
  774MOL0     N 2087  -0.027  10.668   5.049  1.1301  0.8955 -0.4499
  774MOL0     C 2088   1.209  11.053   5.334  0.4740  0.0693 -0.3231
  774MOL0     C 2089   1.303  11.115   5.423  0.7055  0.3616 -0.2036
  774MOL0     C 2090   1.631  11.210   5.703 -0.2267 -0.3697 -0.0752
  774MOL0     C 2091   1.577  11.292   5.806 -0.3545  0.3892  0.7152
  774MOL0     C 2092   1.657  11.359   5.894 -0.4494 -0.4512 -1.3009
  774MOL0     C 2093   1.796  11.351   5.889 -0.2229  0.6588 -0.2945
  774MOL0     O 2094   1.888  11.417   5.971 -0.4477  0.7403 -0.2274
  774MOL0     C 2095   1.830  11.439   6.100 -0.2658 -1.0770  0.2378
  774MOL0     C 2096   1.957  11.458   6.185 -0.1261 -0.1539  0.0896
  774MOL0     C 2097   2.074  11.369   6.141 -0.1301 -0.3520 -0.1828
  774MOL0     C 2098   2.183  11.387   6.247 -0.0316 -0.4243  0.0104
  774MOL0     C 2099   2.295  11.480   6.214  0.5021 -0.5276  0.9100
  774MOL0     C 2100   2.371  11.566   6.174 -1.0582 -0.1779 -0.6982
  774MOL0     C 2101   1.850  11.254   5.800  1.1891  0.6579 -0.4126
  774MOL0     C 2102   1.769  11.177   5.711  0.0915 -0.0951 -0.5843
  774MOL0     H 2103   1.235  10.944   5.703 -2.8430 -1.8218 -0.6928
  774MOL0     H 2104   1.091  10.812   5.538 -2.1298  0.3744 -2.7216
  774MOL0     H 2105   1.000  10.994   5.157  1.0281 -0.9285 -0.1725
  774MOL0     H 2106   0.912  11.050   5.306 -0.1051 -0.3196 -0.5417
  774MOL0     H 2107   0.762  10.838   5.284  1.7232 -1.4744 -0.3346
  774MOL0     H 2108   0.853  10.789   5.145 -3.1733 -1.8413 -0.4558
  774MOL0     H 2109   0.805  11.032   5.056 -1.7456  0.9343 -0.6066
  774MOL0     H 2110   0.672  11.026   5.170 -4.1152 -3.1428  0.1595
  774MOL0     H 2111   0.614  10.950   4.940 -0.4751 -0.5434 -1.5817
  774MOL0     H 2112   0.707  10.810   4.958  0.6911  1.4466 -1.6819
  774MOL0     H 2113   0.466  10.901   5.138 -1.2134  0.2101 -1.7691
  774MOL0     H 2114   0.559  10.760   5.168 -1.5690  1.3082  1.2544
  774MOL0     H 2115   0.483  10.660   4.954  3.5681 -0.1436  0.9254
  774MOL0     H 2116   0.423  10.825   4.908  1.4746 -1.8887 -1.4993
  774MOL0     H 2117   0.330  10.636   5.154 -2.1109 -1.6249 -0.8092
  774MOL0     H 2118   0.261  10.798   5.129 -2.0891 -0.8842 -1.4921
  774MOL0     H 2119   0.256  10.558   4.946 -1.0476  0.0133  0.6194
  774MOL0     H 2120   0.195  10.723   4.910 -1.6022  1.0925  1.3672
  774MOL0     H 2121   0.146  10.415   5.162 -0.1415 -0.0921 -0.6247
  774MOL0     H 2122  -0.233  10.408   5.229 -0.0821 -2.3455  0.0531
  774MOL0     H 2123  -0.124  10.405   5.362 -3.0290 -2.4863  0.1435
  774MOL0     H 2124   0.015  10.233   5.230  0.1989  1.7154  0.5489
  774MOL0     H 2125  -0.103  10.242   5.100  0.5723 -1.6292 -0.0113
  774MOL0     H 2126  -0.161  10.052   5.235 -0.3840 -1.6200  1.2814
  774MOL0     H 2127  -0.130  10.142   5.378  0.9704  0.6295 -0.1791
  774MOL0     H 2128  -0.342  10.266   5.351  2.4194  1.9538 -0.4721
  774MOL0     H 2129  -0.383  10.097   5.356  0.8426  2.8574  4.2389
  774MOL0     H 2130  -0.506  10.113   4.944  0.1440 -1.4073  1.3958
  774MOL0     H 2131  -0.725  10.156   4.887  3.3894 -1.2694 -0.9346
  774MOL0     H 2132  -1.143  10.138   5.141 -0.2936 -1.2867  0.7390
  774MOL0     H 2133  -1.393  10.136   5.101 -0.4700  2.3980  0.3705
  774MOL0     H 2134  -1.564  10.371   4.931 -0.5073 -0.8855  0.7219
  774MOL0     H 2135  -1.599  10.244   5.048 -1.9319  0.4328  1.1507
  774MOL0     H 2136  -1.796  10.328   4.952  0.1204 -1.5887  2.6804
  774MOL0     H 2137  -1.775  10.157   4.900 -2.2540  0.0629  0.2873
  774MOL0     H 2138  -1.683  10.254   4.674  0.5924 -0.3028  0.8535
  774MOL0     H 2139  -1.727  10.410   4.738  0.8190  0.7916  3.5381
  774MOL0     H 2140  -1.913  10.164   4.699  1.1130 -0.6864 -1.7789
  774MOL0     H 2141  -1.981  10.308   4.755 -3.1774 -3.4630 -1.5023
  774MOL0     H 2142  -1.844  10.245   4.489 -1.9111 -0.7075 -2.5090
  774MOL0     H 2143  -1.888  10.411   4.540  1.9591 -1.0705 -1.2674
  774MOL0     H 2144  -2.125  10.366   4.517  0.8087  0.6795  2.3171
  774MOL0     H 2145  -2.097  10.196   4.574  2.3511 -1.3549  0.9322
  774MOL0     H 2146  -2.011  10.271   4.298  0.0734  0.1985  1.9559
  774MOL0     H 2147  -2.042  10.114   4.382 -0.7076 -0.8380 -0.4171
  774MOL0     H 2148  -2.231  10.176   4.228 -2.1221  1.6863 -1.7108
  774MOL0     H 2149  -2.230  10.331   4.302 -0.9736 -0.6346 -1.0723
  774MOL0     H 2150  -1.323  10.247   4.694 -0.7106 -2.9385 -0.3447
  774MOL0     H 2151  -1.076  10.256   4.735  0.4531  3.0118  0.5080
  774MOL0     H 2152  -0.768  10.369   5.263 -0.0339  0.5775 -0.6992
  774MOL0     H 2153  -0.549  10.303   5.324 -0.4597 -4.0940  0.8367
  774MOL0     H 2154   1.211  11.100   5.236 -0.6262 -0.9737 -0.8637
  774MOL0     H 2155   1.367  11.195   5.385  2.4648 -0.6652  0.4592
  774MOL0     H 2156   1.470  11.300   5.821  0.0149  1.0266  3.4592
  774MOL0     H 2157   1.608  11.435   5.953  2.0141  1.9324 -2.0899
  774MOL0     H 2158   1.773  11.351   6.132 -3.2480  0.0208 -1.6558
  774MOL0     H 2159   1.758  11.521   6.098  0.3979 -0.5057 -0.8121
  774MOL0     H 2160   1.983  11.564   6.177 -1.7148  0.1177 -3.1285
  774MOL0     H 2161   1.942  11.418   6.286 -2.2585 -0.5693 -0.3361
  774MOL0     H 2162   2.112  11.385   6.039  0.4703 -0.4674  0.0173
  774MOL0     H 2163   2.040  11.265   6.143  1.1874 -0.7997  0.1563
  774MOL0     H 2164   2.145  11.398   6.349  2.6134 -0.6309  1.0985
  774MOL0     H 2165   2.237  11.292   6.255  0.9692  0.2562  2.5939
  774MOL0     H 2166   2.446  11.638   6.149  0.2096 -1.0279  0.5177
  774MOL0     H 2167   1.957  11.234   5.799  0.6038 -3.2781 -0.8493
  774MOL0     H 2168   1.805  11.093   5.652  0.9016 -1.1142  1.2606
  775MOL0     O 2169  10.847   1.738   6.972  0.3520  0.3525  0.2418
  775MOL0     C 2170  10.804   1.851   6.953 -0.4956  0.3923  0.2418
  775MOL0     O 2171  10.887   1.962   6.938  0.1629 -0.3644 -0.4056
  775MOL0     C 2172  11.023   1.936   6.933  0.1009  0.2335  0.3009
  775MOL0     C 2173  11.107   1.979   7.035  0.2459 -1.2443 -0.1108
  775MOL0     C 2174  11.242   1.954   7.028  0.6470 -0.7924  0.6029
  775MOL0     C 2175  11.301   1.883   6.919  0.7420  0.0774  0.6633
  775MOL0     O 2176  11.437   1.874   6.904 -0.0324 -0.4845 -0.1695
  775MOL0     C 2177  11.490   1.769   6.822  0.7100 -0.8523  0.9823
  775MOL0     C 2178  11.638   1.761   6.785 -0.2567  0.2610  0.4990
  775MOL0     C 2179  11.696   1.892   6.727 -0.6454  0.0233 -0.1016
  775MOL0     C 2180  11.655   1.937   6.582 -0.3472  0.5970 -0.1137
  775MOL0     C 2181  11.733   2.072   6.540  0.0262 -0.2574 -0.0496
  775MOL0     C 2182  11.722   2.114   6.398 -0.2603  0.3913  0.5481
  775MOL0     C 2183  11.813   2.026   6.318 -0.3286  0.1021  0.1863
  775MOL0     C 2184  11.820   2.052   6.165 -0.2303  0.0582  0.1999
  775MOL0     N 2185  11.695   2.022   6.099 -0.4304 -0.8577  0.5567
  775MOL0     C 2186  11.593   2.114   6.089 -0.8549  0.0184  0.0562
  775MOL0     C 2187  11.498   2.040   6.027  0.6218  0.1697  0.7720
  775MOL0     C 2188  11.354   2.088   5.976  0.4144  0.0174  0.2223
  775MOL0     C 2189  11.272   2.174   6.068 -0.8071  0.1751 -0.4637
  775MOL0     C 2190  11.142   2.221   6.009 -0.2991  0.6287 -0.2553
  775MOL0     C 2191  11.073   2.340   6.079 -0.6260  1.1762 -0.5955
  775MOL0     O 2192  10.953   2.373   6.008 -0.2570 -0.0900 -0.0240
  775MOL0     C 2193  10.847   2.451   6.068  0.6086 -0.0963 -0.0730
  775MOL0     C 2194  10.854   2.504   6.202  0.0401  0.5356  0.6822
  775MOL0     C 2195  10.744   2.573   6.257 -0.3891 -0.4212  0.0550
  775MOL0     C 2196  10.626   2.596   6.178 -0.2342 -0.2318  0.1180
  775MOL0     C 2197  10.503   2.646   6.236 -0.1402 -0.1316 -0.3577
  775MOL0     O 2198  10.493   2.658   6.377  0.1234  0.3512  0.0408
  775MOL0     C 2199  10.384   2.711   6.437  0.0382  0.6697  0.1395
  775MOL0     C 2200  10.263   2.643   6.451  0.1881 -1.0506 -1.2833
  775MOL0     C 2201  10.151   2.701   6.510  0.3610 -0.2994  0.4953
  775MOL0     C 2202  10.151   2.829   6.569  0.5532  0.6954  0.4777
  775MOL0     O 2203  10.042   2.877   6.632  0.1615 -0.3679 -0.7340
  775MOL0     C 2204   9.983   2.793   6.724  0.8517 -0.1193  0.4971
  775MOL0     C 2205   9.833   2.783   6.705  0.7829 -1.2057  0.6714
  775MOL0     C 2206   9.757   2.886   6.789 -0.0321 -1.0190  0.1770
  775MOL0     C 2207   9.606   2.873   6.783 -0.0777  1.1780 -0.1800
  775MOL0     C 2208   9.554   2.981   6.882  0.2307  0.0542  0.2965
  775MOL0     C 2209   9.408   2.964   6.908  0.1540 -0.3078 -0.6815
  775MOL0     C 2210   9.338   3.091   6.977 -0.5533  0.9309  0.1880
  775MOL0     C 2211   9.187   3.061   6.979  0.5228  0.0555  0.5323
  775MOL0    Cl 2212   9.156   2.907   7.075 -0.3457  0.2084 -0.0596
  775MOL0     C 2213  10.265   2.909   6.537 -1.0427 -0.2271  1.6363
  775MOL0     C 2214  10.382   2.844   6.476  0.2130 -0.9448 -0.5119
  775MOL0     O 2215  10.412   2.681   6.160  0.2683 -0.1655  0.2690
  775MOL0     C 2216  10.621   2.551   6.038 -0.2750  0.5167 -0.3346
  775MOL0     C 2217  10.733   2.472   5.984  0.1778  0.6741  0.2372
  775MOL0     N 2218  11.546   1.909   6.013 -0.0934 -0.1626  0.3503
  775MOL0     N 2219  11.657   1.901   6.061  0.9934 -1.0635  0.5373
  775MOL0     C 2220  11.210   1.834   6.816  0.3409 -0.4106  0.1136
  775MOL0     C 2221  11.078   1.859   6.827 -0.1141  0.0052 -0.7043
  775MOL0     C 2222  10.658   1.881   6.950  0.2751  0.6674  0.3450
  775MOL0     C 2223  10.569   1.775   6.980  0.2507 -0.2315 -0.7918
  775MOL0     C 2224  10.435   1.794   6.992  0.0569  0.1867 -1.0572
  775MOL0     C 2225  10.375   1.920   6.980 -0.6390  0.3118  0.6011
  775MOL0     O 2226  10.245   1.926   7.023 -0.0273 -0.0794 -0.3832
  775MOL0     C 2227  10.171   2.046   6.990  0.2809 -0.0479  0.4872
  775MOL0     C 2228  10.040   2.043   7.071 -0.0126  0.5777 -0.3991
  775MOL0     C 2229  10.059   2.053   7.224 -0.0153  0.2814 -0.1341
  775MOL0     C 2230   9.943   2.000   7.307  0.3141  0.2620 -0.2152
  775MOL0     C 2231   9.815   2.066   7.288  0.1934 -0.2542 -0.8879
  775MOL0     C 2232   9.718   2.136   7.271 -0.3438  0.4858  0.3964
  775MOL0     C 2233  10.462   2.027   6.939  0.7260  1.3032 -0.7011
  775MOL0     C 2234  10.601   2.010   6.936 -0.0579 -0.2005  0.3457
  775MOL0     H 2235  11.070   2.050   7.108  1.5997 -0.7702  0.1506
  775MOL0     H 2236  11.309   1.990   7.105 -0.1145 -0.0511  0.9355
  775MOL0     H 2237  11.436   1.743   6.731  1.2374 -5.2417  1.6850
  775MOL0     H 2238  11.472   1.686   6.892 -1.8037 -0.1824  1.2025
  775MOL0     H 2239  11.654   1.688   6.706 -0.4631 -0.9085  1.5133
  775MOL0     H 2240  11.694   1.725   6.872  0.4616 -3.3118 -1.2826
  775MOL0     H 2241  11.804   1.874   6.732 -0.8507 -1.5575 -0.7079
  775MOL0     H 2242  11.678   1.974   6.797  0.5559 -0.7786  1.2134
  775MOL0     H 2243  11.683   1.859   6.512  0.7034 -0.0746  1.0292
  775MOL0     H 2244  11.548   1.961   6.578 -0.4072  0.2065 -2.5184
  775MOL0     H 2245  11.840   2.058   6.558  0.2826 -0.7126 -1.7706
  775MOL0     H 2246  11.706   2.158   6.602 -0.8798  3.1667 -4.6390
  775MOL0     H 2247  11.760   2.216   6.386 -1.2217  0.9751  2.2325
  775MOL0     H 2248  11.620   2.106   6.361  0.0898 -1.3549 -0.1553
  775MOL0     H 2249  11.914   2.037   6.357 -0.4885  0.4595  0.5116
  775MOL0     H 2250  11.781   1.922   6.335  2.6278 -0.7550  1.0499
  775MOL0     H 2251  11.895   1.988   6.118  0.3026 -0.4887  1.7334
  775MOL0     H 2252  11.848   2.158   6.157  1.2889 -0.3441 -0.0009
  775MOL0     H 2253  11.586   2.216   6.125  0.8555  0.3184 -0.3649
  775MOL0     H 2254  11.289   2.001   5.964 -0.9596  1.1486 -0.8537
  775MOL0     H 2255  11.369   2.125   5.874 -0.4093  0.2813  0.1902
  775MOL0     H 2256  11.325   2.269   6.083 -1.0194 -0.0116  1.7455
  775MOL0     H 2257  11.258   2.121   6.163  0.0563  0.2687 -0.2768
  775MOL0     H 2258  11.167   2.266   5.912  1.8697  0.9089  0.3701
  775MOL0     H 2259  11.083   2.129   6.004  1.7129 -0.8010  0.7143
  775MOL0     H 2260  11.148   2.420   6.078  0.8598 -0.0574  1.7444
  775MOL0     H 2261  11.051   2.319   6.184  0.4317  2.9318  0.0328
  775MOL0     H 2262  10.948   2.492   6.254  1.6874  2.2348 -1.6848
  775MOL0     H 2263  10.756   2.613   6.357  0.7078  0.2565 -0.3361
  775MOL0     H 2264  10.254   2.546   6.403  1.5419 -2.6154  1.4007
  775MOL0     H 2265  10.060   2.644   6.493  0.7713 -0.2178 -2.5435
  775MOL0     H 2266  10.011   2.825   6.825  0.4975  2.0991 -0.0489
  775MOL0     H 2267  10.021   2.691   6.723 -0.1247 -0.5150  1.6873
  775MOL0     H 2268   9.813   2.680   6.737 -1.5594 -1.2335 -0.7234
  775MOL0     H 2269   9.801   2.798   6.602 -1.1657  1.6154  1.5836
  775MOL0     H 2270   9.779   2.984   6.744  0.3249 -2.1354 -2.2361
  775MOL0     H 2271   9.794   2.890   6.891  1.2309 -0.9585 -0.2747
  775MOL0     H 2272   9.554   2.891   6.688 -3.0179 -1.0642  0.8486
  775MOL0     H 2273   9.587   2.771   6.816  2.7893  1.1066  1.6372
  775MOL0     H 2274   9.577   3.080   6.840 -0.7495 -0.8655 -2.6900
  775MOL0     H 2275   9.603   2.975   6.979 -3.4780  1.2154  2.4419
  775MOL0     H 2276   9.398   2.877   6.973 -0.5389 -0.4805 -1.0174
  775MOL0     H 2277   9.366   2.933   6.812 -0.5019  1.9019 -1.1624
  775MOL0     H 2278   9.377   3.104   7.078 -0.3280 -1.3032  0.4360
  775MOL0     H 2279   9.373   3.181   6.926 -0.5735  0.8238 -0.0174
  775MOL0     H 2280   9.160   3.036   6.876 -1.2918  1.4768  0.6117
  775MOL0     H 2281   9.136   3.146   7.024 -1.6849  0.6177 -2.7420
  775MOL0     H 2282  10.266   3.016   6.551 -1.3375 -0.3142  2.3331
  775MOL0     H 2283  10.470   2.905   6.456 -0.0260 -0.0026  1.1332
  775MOL0     H 2284  10.551   2.575   5.960  0.3471  0.6057 -0.8768
  775MOL0     H 2285  10.726   2.431   5.883 -4.0696  2.0841 -0.2701
  775MOL0     H 2286  11.256   1.785   6.730  1.3427 -0.4432  0.6446
  775MOL0     H 2287  11.020   1.836   6.738  2.4935  1.0275 -2.8124
  775MOL0     H 2288  10.607   1.679   7.015  1.0006 -0.8113 -3.0235
  775MOL0     H 2289  10.371   1.710   7.019 -0.6387  0.5726 -1.4618
  775MOL0     H 2290  10.147   2.065   6.885 -0.6496 -0.1594  0.6663
  775MOL0     H 2291  10.218   2.135   7.032 -1.4190  0.7897  0.7091
  775MOL0     H 2292   9.969   2.121   7.044  0.0919  1.0571  0.6641
  775MOL0     H 2293   9.996   1.944   7.059  1.2377  0.2532 -3.3428
  775MOL0     H 2294  10.082   2.153   7.263  2.0913 -1.2212  2.9120
  775MOL0     H 2295  10.136   1.979   7.248 -1.2223 -1.1495 -0.5722
  775MOL0     H 2296   9.935   1.892   7.289 -0.3655 -0.0514  1.6787
  775MOL0     H 2297   9.961   2.020   7.413 -1.4805  4.8904 -0.5606
  775MOL0     H 2298   9.620   2.179   7.264 -1.1573 -1.4325 -0.8735
  775MOL0     H 2299  10.423   2.127   6.927 -0.4863  0.8159 -1.0186
  775MOL0     H 2300  10.662   2.090   6.894 -2.2029  0.1662 -2.3779
  776MOL0     O 2301   9.450   2.240   0.213 -0.1642 -0.1764 -0.4960
  776MOL0     C 2302   9.563   2.205   0.248  0.1272  0.9376  0.6475
  776MOL0     O 2303   9.593   2.117   0.345  0.3522  0.2434  0.2865
  776MOL0     C 2304   9.485   2.075   0.434  0.3231  0.2162  1.2820
  776MOL0     C 2305   9.516   2.040   0.565 -0.0772 -0.1912  0.1562
  776MOL0     C 2306   9.410   2.008   0.660 -0.2011 -0.1136 -0.4605
  776MOL0     C 2307   9.278   1.990   0.615 -1.2070  0.5020  0.3982
  776MOL0     O 2308   9.189   1.922   0.706  0.7454  0.6252  0.0117
  776MOL0     C 2309   9.082   1.848   0.657 -0.5970  0.2117 -0.8919
  776MOL0     C 2310   8.998   1.785   0.765  0.6292  0.4827 -0.4546
  776MOL0     C 2311   8.918   1.662   0.708 -0.3271 -0.1104 -0.1764
  776MOL0     C 2312   8.788   1.624   0.796 -0.4654 -0.3239  0.9727
  776MOL0     C 2313   8.805   1.553   0.934 -0.1164  0.4861 -0.2057
  776MOL0     C 2314   8.669   1.501   0.992 -0.2804 -0.0606 -1.1393
  776MOL0     C 2315   8.699   1.390   1.102  0.4055  0.5965 -0.2587
  776MOL0     C 2316   8.803   1.414   1.207 -0.7648 -0.2471  0.4090
  776MOL0     N 2317   8.804   1.540   1.283 -0.5132 -0.2596  0.6203
  776MOL0     C 2318   8.922   1.581   1.339 -0.0632  1.2135 -0.2936
  776MOL0     C 2319   8.878   1.671   1.430 -0.9665  0.3014 -0.1634
  776MOL0     C 2320   8.970   1.760   1.520 -0.0821 -0.0014  0.7324
  776MOL0     C 2321   9.038   1.885   1.453 -0.2614  0.5133 -0.9571
  776MOL0     C 2322   8.942   2.002   1.458 -0.2349  0.6784 -0.4235
  776MOL0     C 2323   9.013   2.112   1.376  0.5073 -1.0108  0.9744
  776MOL0     O 2324   9.109   2.170   1.457 -0.1375 -0.0730 -0.0412
  776MOL0     C 2325   9.201   2.263   1.412  0.4155  0.6302 -0.1796
  776MOL0     C 2326   9.274   2.323   1.508  0.2689 -0.8928 -0.3771
  776MOL0     C 2327   9.355   2.428   1.477  0.4937  0.5842  0.7295
  776MOL0     C 2328   9.371   2.469   1.342  0.8447  0.0025  0.4728
  776MOL0     C 2329   9.475   2.563   1.304 -0.1491  0.4773  0.4863
  776MOL0     O 2330   9.533   2.563   1.177  1.0185 -0.3752 -0.2931
  776MOL0     C 2331   9.637   2.640   1.150  0.6033  0.0872  0.1068
  776MOL0     C 2332   9.755   2.620   1.228  0.3416 -0.3580 -0.3156
  776MOL0     C 2333   9.862   2.694   1.189 -0.0531  0.3528  0.8118
  776MOL0     C 2334   9.857   2.800   1.094 -0.0561 -0.4124 -0.0400
  776MOL0     O 2335   9.958   2.890   1.063  0.0599 -0.3515  0.5202
  776MOL0     C 2336  10.088   2.900   1.128 -0.4003 -0.6980  0.2201
  776MOL0     C 2337  10.089   2.992   1.252 -0.0490  0.4258  0.7205
  776MOL0     C 2338  10.023   2.935   1.385 -0.0379 -0.1321 -0.0301
  776MOL0     C 2339   9.946   3.046   1.466 -0.7317 -0.6987 -0.7996
  776MOL0     C 2340   9.849   2.996   1.580  0.4335  0.6341 -0.8919
  776MOL0     C 2341   9.721   2.953   1.518 -0.5391 -0.0033 -0.3449
  776MOL0     C 2342   9.607   2.964   1.620 -0.0260  0.1737  0.5726
  776MOL0     C 2343   9.489   2.870   1.587 -0.7098  0.2773 -0.3881
  776MOL0    Cl 2344   9.356   2.883   1.706  0.1923  0.3962 -0.4258
  776MOL0     C 2345   9.739   2.822   1.029 -0.2154  0.1555 -0.2887
  776MOL0     C 2346   9.633   2.736   1.046 -0.6501  0.6726 -0.1303
  776MOL0     O 2347   9.500   2.645   1.393 -0.8390  0.9689 -0.4510
  776MOL0     C 2348   9.291   2.411   1.246  0.6120 -0.7503  0.2423
  776MOL0     C 2349   9.206   2.311   1.281  0.4436  0.5584  0.3406
  776MOL0     N 2350   8.745   1.665   1.444  0.1319 -0.2968 -0.0144
  776MOL0     N 2351   8.699   1.593   1.358 -0.2978  0.3833 -0.2120
  776MOL0     C 2352   9.251   2.018   0.489  0.3663  0.0187 -0.0925
  776MOL0     C 2353   9.351   2.050   0.386  0.6971 -0.4385 -0.4890
  776MOL0     C 2354   9.679   2.276   0.185  0.0738 -0.8845 -0.7466
  776MOL0     C 2355   9.809   2.249   0.232  0.3666 -0.5480 -0.9998
  776MOL0     C 2356   9.917   2.301   0.167  0.2038  0.6999  0.5951
  776MOL0     C 2357   9.905   2.371   0.045  0.3956  0.1182  0.8612
  776MOL0     O 2358  10.012   2.424  -0.028 -0.1850 -0.7375 -0.4075
  776MOL0     C 2359  10.136   2.361  -0.026  0.2498 -0.2655  0.4375
  776MOL0     C 2360  10.236   2.421  -0.120 -0.1299  0.4143  0.2316
  776MOL0     C 2361  10.345   2.311  -0.147  0.0713  0.2007 -0.7547
  776MOL0     C 2362  10.454   2.347  -0.253  0.4613 -0.5006  0.2342
  776MOL0     C 2363  10.518   2.477  -0.227 -0.3676  0.1037  1.5500
  776MOL0     C 2364  10.574   2.580  -0.198  0.0658 -0.1585  0.2578
  776MOL0     C 2365   9.776   2.402   0.003 -1.3201  0.0084  0.7562
  776MOL0     C 2366   9.666   2.362   0.084 -0.3040 -0.1591  0.6063
  776MOL0     H 2367   9.621   2.045   0.592  0.0129 -1.8782  0.2257
  776MOL0     H 2368   9.448   1.997   0.761 -0.3405 -1.9654 -0.5692
  776MOL0     H 2369   9.128   1.769   0.596 -0.0968 -1.1967  1.2228
  776MOL0     H 2370   9.008   1.908   0.604  0.5001  2.8410  0.3920
  776MOL0     H 2371   8.922   1.861   0.787  1.0756  0.5619  0.8850
  776MOL0     H 2372   9.051   1.751   0.854 -2.1375 -0.8654  0.8038
  776MOL0     H 2373   8.988   1.580   0.689 -0.9372 -0.5735 -0.4241
  776MOL0     H 2374   8.882   1.700   0.612  3.4244  2.2220 -0.8992
  776MOL0     H 2375   8.735   1.718   0.811 -0.0795 -0.0820  0.8329
  776MOL0     H 2376   8.728   1.560   0.731  1.0842 -0.6982 -0.1616
  776MOL0     H 2377   8.856   1.618   1.006 -0.1421  0.7387 -0.4112
  776MOL0     H 2378   8.873   1.470   0.919  1.9991  2.3860 -1.7386
  776MOL0     H 2379   8.611   1.460   0.910 -2.3726  1.6584 -0.6014
  776MOL0     H 2380   8.614   1.585   1.036  0.7504  0.0066  0.0979
  776MOL0     H 2381   8.606   1.370   1.157  0.0818  2.3086 -0.1324
  776MOL0     H 2382   8.712   1.294   1.051 -4.5051 -0.5012  0.0402
  776MOL0     H 2383   8.898   1.417   1.155 -1.2182  0.7225 -0.3890
  776MOL0     H 2384   8.802   1.325   1.271 -1.4768 -0.5341  0.0090
  776MOL0     H 2385   9.021   1.540   1.322  0.0259 -0.5694  3.5295
  776MOL0     H 2386   9.049   1.690   1.548  0.1062 -0.5056 -0.9822
  776MOL0     H 2387   8.916   1.795   1.609 -0.6239  0.6513  0.1569
  776MOL0     H 2388   9.077   1.860   1.354 -0.2975 -0.8426 -0.6548
  776MOL0     H 2389   9.120   1.914   1.520  0.0316 -3.4981  0.7232
  776MOL0     H 2390   8.850   1.962   1.416  0.1019  0.0529 -0.5871
  776MOL0     H 2391   8.921   2.033   1.561 -2.6194 -1.3367 -0.2240
  776MOL0     H 2392   8.937   2.189   1.360 -1.8239 -3.5642 -1.2121
  776MOL0     H 2393   9.041   2.093   1.272 -2.6257 -0.4015 -0.0937
  776MOL0     H 2394   9.266   2.288   1.610  2.1839  0.3716  0.2557
  776MOL0     H 2395   9.426   2.467   1.549  0.2480 -0.5825  1.6450
  776MOL0     H 2396   9.764   2.545   1.305 -0.5234 -1.0353 -0.8573
  776MOL0     H 2397   9.957   2.676   1.240 -0.6151 -0.3698  1.6261
  776MOL0     H 2398  10.157   2.934   1.050 -1.8844  0.2986 -0.7165
  776MOL0     H 2399  10.120   2.799   1.154  1.9942  0.1103  0.7196
  776MOL0     H 2400  10.040   3.084   1.217 -1.4261 -0.8341 -0.8198
  776MOL0     H 2401  10.190   3.022   1.279  1.0482 -0.3053 -2.2001
  776MOL0     H 2402  10.100   2.890   1.448 -0.1334  0.5428  0.5851
  776MOL0     H 2403   9.948   2.868   1.342  0.5242  0.7176 -2.5539
  776MOL0     H 2404  10.029   3.099   1.513 -1.4176  1.4170 -1.8816
  776MOL0     H 2405   9.902   3.119   1.398  0.2052 -0.1238 -0.8067
  776MOL0     H 2406   9.836   3.077   1.653 -0.7436 -1.6783  1.6469
  776MOL0     H 2407   9.893   2.911   1.633  3.2696  0.9999 -2.4717
  776MOL0     H 2408   9.747   2.858   1.471  0.2962 -0.7178  1.4865
  776MOL0     H 2409   9.700   3.030   1.443  1.3400  0.4534 -0.4545
  776MOL0     H 2410   9.645   2.946   1.721  3.2207 -1.4985 -0.7902
  776MOL0     H 2411   9.561   3.063   1.616  2.3404  1.4213  1.8695
  776MOL0     H 2412   9.537   2.771   1.593 -0.9380  0.1332 -0.9050
  776MOL0     H 2413   9.460   2.888   1.483  0.1469 -1.5461 -0.9815
  776MOL0     H 2414   9.719   2.901   0.958  0.6678  0.8232  0.1885
  776MOL0     H 2415   9.535   2.754   1.003  0.6519  1.6606 -2.9840
  776MOL0     H 2416   9.308   2.447   1.145  2.1358 -1.9578  0.0271
  776MOL0     H 2417   9.148   2.269   1.200 -0.6578  0.8585  0.9592
  776MOL0     H 2418   9.147   2.010   0.461  0.2647  1.1801 -0.0874
  776MOL0     H 2419   9.315   2.069   0.285 -1.0361 -0.5307  0.0641
  776MOL0     H 2420   9.827   2.183   0.317 -2.2556 -0.5477 -0.3637
  776MOL0     H 2421  10.017   2.291   0.207  0.9171  0.1436 -1.2282
  776MOL0     H 2422  10.118   2.265  -0.077 -2.0595  0.5852 -0.4702
  776MOL0     H 2423  10.187   2.358   0.070  0.2834 -0.3525  0.4178
  776MOL0     H 2424  10.188   2.467  -0.207 -1.1092 -2.0594 -0.6285
  776MOL0     H 2425  10.295   2.491  -0.060 -0.0661 -0.9636  1.8114
  776MOL0     H 2426  10.290   2.226  -0.189  0.6130 -0.6099  0.1183
  776MOL0     H 2427  10.383   2.273  -0.051 -1.8153  2.1562  0.8710
  776MOL0     H 2428  10.523   2.262  -0.247 -1.0976 -2.0227 -1.6530
  776MOL0     H 2429  10.406   2.352  -0.352 -3.9785 -1.5666  2.0852
  776MOL0     H 2430  10.633   2.662  -0.163  3.2341 -2.3540  0.5529
  776MOL0     H 2431   9.780   2.462  -0.087  1.2761 -1.6841 -0.3812
  776MOL0     H 2432   9.570   2.411   0.071  0.4819  1.2756  0.0544
  777MOL0     O 2433   3.539   4.206  10.232 -0.7152  0.3394 -0.1823
  777MOL0     C 2434   3.527   4.289  10.142  0.1209 -0.3954  0.0340
  777MOL0     O 2435   3.425   4.374  10.125 -0.0106 -0.3048  0.8980
  777MOL0     C 2436   3.330   4.384  10.223 -0.4943  0.1894 -0.3444
  777MOL0     C 2437   3.360   4.419  10.353 -0.1855 -1.2230 -0.0618
  777MOL0     C 2438   3.253   4.419  10.451 -0.3101  0.9724  0.6818
  777MOL0     C 2439   3.118   4.416  10.411 -0.7202 -0.7239 -0.1131
  777MOL0     O 2440   3.014   4.445  10.495 -0.3296  0.5925 -0.3884
  777MOL0     C 2441   3.045   4.501  10.631 -0.6839  0.0823  1.0895
  777MOL0     C 2442   2.930   4.561  10.709  0.5583 -0.0483  0.4631
  777MOL0     C 2443   2.793   4.481  10.681  0.6014 -1.0497 -0.3722
  777MOL0     C 2444   2.678   4.549  10.766  1.0116 -0.7147  1.1108
  777MOL0     C 2445   2.545   4.482  10.745  0.2252  0.2795  0.3984
  777MOL0     C 2446   2.430   4.583  10.787 -0.5642  0.8536  1.1883
  777MOL0     C 2447   2.409   4.599  10.939 -0.1395  0.5661  0.4155
  777MOL0     C 2448   2.263   4.619  10.967  0.8964  0.6907 -0.3416
  777MOL0     N 2449   2.207   4.747  10.938 -0.2176 -0.1402  0.0980
  777MOL0     C 2450   2.072   4.785  10.956 -0.7142 -0.0243  0.7330
  777MOL0     C 2451   2.061   4.901  10.889 -0.8237 -0.3618  0.1266
  777MOL0     C 2452   1.941   4.988  10.878 -0.1630  0.5958 -0.3779
  777MOL0     C 2453   1.975   5.127  10.826  0.6782 -0.8973 -1.0363
  777MOL0     C 2454   1.846   5.217  10.831  0.3361 -0.3897  0.9140
  777MOL0     C 2455   1.882   5.346  10.773 -0.6981 -0.8467  0.3194
  777MOL0     O 2456   1.773   5.446  10.785 -0.8171 -0.0783 -0.3197
  777MOL0     C 2457   1.649   5.413  10.743 -0.4403 -0.7964  0.0830
  777MOL0     C 2458   1.536   5.448  10.818  0.2119  0.2040  0.3321
  777MOL0     C 2459   1.403   5.431  10.768  0.5934 -0.7727  0.2869
  777MOL0     C 2460   1.388   5.353  10.652 -0.2000  0.4834  0.4680
  777MOL0     C 2461   1.250   5.310  10.619  0.3677  0.7079 -0.4593
  777MOL0     O 2462   1.148   5.381  10.667 -0.3926 -0.3203  0.1020
  777MOL0     C 2463   1.018   5.337  10.656  0.1825 -0.1788 -0.0665
  777MOL0     C 2464   0.905   5.436  10.658 -1.2595  0.4721 -0.1889
  777MOL0     C 2465   0.776   5.393  10.652  0.0744  0.4559  0.4090
  777MOL0     C 2466   0.744   5.255  10.651 -0.2525 -0.5228 -0.4765
  777MOL0     O 2467   0.617   5.206  10.654  0.3586  0.1036 -0.1130
  777MOL0     C 2468   0.514   5.286  10.712 -0.1830 -0.1312 -0.3931
  777MOL0     C 2469   0.393   5.196  10.749 -0.4473 -0.4523 -0.0055
  777MOL0     C 2470   0.276   5.290  10.784 -0.2368  0.1996 -0.5146
  777MOL0     C 2471   0.153   5.200  10.817  1.4488 -0.2895  0.0236
  777MOL0     C 2472   0.023   5.278  10.837 -0.7491 -0.3656  0.1542
  777MOL0     C 2473  -0.106   5.204  10.877 -0.8059 -0.0470 -1.0372
  777MOL0     C 2474  -0.098   5.084  10.970  0.7259 -0.8274  0.5020
  777MOL0     C 2475  -0.233   5.058  11.046  0.2561 -0.4694 -0.1197
  777MOL0    Cl 2476  -0.221   5.146  11.206 -0.3097  0.2270  0.1253
  777MOL0     C 2477   0.850   5.158  10.658  0.2422 -0.1677 -0.7794
  777MOL0     C 2478   0.979   5.198  10.655 -1.0862  0.2946  0.4209
  777MOL0     O 2479   1.244   5.208  10.551 -1.1722 -0.5771  0.4137
  777MOL0     C 2480   1.503   5.316  10.582 -0.2574 -0.5741 -0.3984
  777MOL0     C 2481   1.633   5.342  10.628 -0.0386  0.3612  0.1597
  777MOL0     N 2482   2.187   4.935  10.837 -0.2586  0.1413  1.1738
  777MOL0     N 2483   2.276   4.840  10.868 -0.5352 -0.7800  0.1254
  777MOL0     C 2484   3.093   4.398  10.275 -0.3638 -0.3037 -0.3020
  777MOL0     C 2485   3.195   4.368  10.188 -0.4566  0.1006  0.3186
  777MOL0     C 2486   3.631   4.306  10.036  0.1808  0.0602 -0.0986
  777MOL0     C 2487   3.629   4.425   9.951  0.6390 -0.2392  0.4231
  777MOL0     C 2488   3.732   4.437   9.859  1.2511 -0.4926 -0.2444
  777MOL0     C 2489   3.826   4.339   9.830 -0.4854 -0.7274 -0.8671
  777MOL0     O 2490   3.911   4.336   9.714 -0.0283 -0.2138 -0.2533
  777MOL0     C 2491   3.898   4.432   9.613 -0.1659 -0.6623  0.6688
  777MOL0     C 2492   3.770   4.381   9.537  0.9372  0.3370 -0.1338
  777MOL0     C 2493   3.723   4.487   9.430 -0.4448 -0.4179 -0.1920
  777MOL0     C 2494   3.608   4.434   9.348  0.1080 -0.4008  0.4671
  777MOL0     C 2495   3.660   4.336   9.255  1.1298  0.3826  0.4419
  777MOL0     C 2496   3.679   4.248   9.176 -0.3414 -0.4117 -0.6842
  777MOL0     C 2497   3.831   4.227   9.912  0.0961 -0.1676  0.4259
  777MOL0     C 2498   3.738   4.213  10.011  0.2969  0.9688  0.0435
  777MOL0     H 2499   3.459   4.440  10.393 -0.0731  0.6996 -1.1924
  777MOL0     H 2500   3.298   4.429  10.549  0.4682 -2.3789  0.8033
  777MOL0     H 2501   3.119   4.578  10.609 -0.0097 -0.7088  0.5105
  777MOL0     H 2502   3.089   4.419  10.689 -1.2322 -2.1564 -1.4285
  777MOL0     H 2503   2.908   4.665  10.679 -2.5989 -0.6453  0.3505
  777MOL0     H 2504   2.968   4.576  10.811  1.8288  2.8924 -0.3264
  777MOL0     H 2505   2.792   4.373  10.696 -0.2532 -1.0392 -0.3220
  777MOL0     H 2506   2.781   4.489  10.572  1.4034  0.3989 -0.3922
  777MOL0     H 2507   2.684   4.563  10.874 -2.2122 -0.7645  1.3902
  777MOL0     H 2508   2.670   4.648  10.720 -2.2210 -1.1942  0.3895
  777MOL0     H 2509   2.547   4.383  10.790  3.9623 -0.5956 -1.2710
  777MOL0     H 2510   2.543   4.464  10.637  2.3840  2.7096 -0.1403
  777MOL0     H 2511   2.345   4.553  10.725  1.2370  2.4507 -2.3535
  777MOL0     H 2512   2.451   4.684  10.750  1.7565  0.0595  0.1088
  777MOL0     H 2513   2.429   4.512  11.002 -0.7362  2.2828  3.1158
  777MOL0     H 2514   2.465   4.686  10.974  2.7511 -0.0447 -2.2129
  777MOL0     H 2515   2.230   4.589  11.067  0.9779  0.7747 -0.2892
  777MOL0     H 2516   2.215   4.540  10.909  0.4891  1.5881 -1.2667
  777MOL0     H 2517   1.987   4.735  11.000  0.4390 -1.8049  1.0535
  777MOL0     H 2518   1.899   5.008  10.977 -2.9271  0.0798 -1.3632
  777MOL0     H 2519   1.864   4.933  10.824 -0.9682  0.2390  1.0795
  777MOL0     H 2520   2.020   5.137  10.727 -0.6698  2.5304 -1.4789
  777MOL0     H 2521   2.037   5.176  10.901 -0.6649 -0.3901 -0.2117
  777MOL0     H 2522   1.771   5.170  10.767 -0.2465  1.1725  0.3991
  777MOL0     H 2523   1.803   5.240  10.929 -1.8624  1.9330 -0.4755
  777MOL0     H 2524   1.912   5.340  10.668 -3.9274  0.2390 -0.7814
  777MOL0     H 2525   1.970   5.390  10.821 -0.2285  0.4590 -1.5843
  777MOL0     H 2526   1.552   5.488  10.918  2.0517 -0.6997  0.4324
  777MOL0     H 2527   1.314   5.444  10.828 -1.8704 -7.2619 -1.1337
  777MOL0     H 2528   0.922   5.544  10.655  0.8681  0.1657 -0.7362
  777MOL0     H 2529   0.693   5.461  10.668 -2.6835 -3.1670  3.4331
  777MOL0     H 2530   0.482   5.362  10.640  2.2824  2.5595  1.1863
  777MOL0     H 2531   0.549   5.335  10.803 -1.6018 -0.3783  0.3233
  777MOL0     H 2532   0.422   5.130  10.832 -0.8488  1.0757  1.3836
  777MOL0     H 2533   0.350   5.132  10.671 -1.2607 -1.0376  0.8990
  777MOL0     H 2534   0.248   5.366  10.711 -1.8881  3.4473  3.1320
  777MOL0     H 2535   0.309   5.353  10.867 -1.2704  1.3345 -0.9357
  777MOL0     H 2536   0.142   5.117  10.748  1.1580  0.1382 -0.4490
  777MOL0     H 2537   0.166   5.155  10.916 -1.2919  0.5314  0.8341
  777MOL0     H 2538  -0.012   5.317  10.741  0.7964 -1.3294 -0.8541
  777MOL0     H 2539   0.051   5.354  10.910  1.5524  0.0697 -1.0801
  777MOL0     H 2540  -0.151   5.158  10.788 -0.5707  0.7378 -1.5752
  777MOL0     H 2541  -0.181   5.271  10.921  0.2456  1.2646 -1.1939
  777MOL0     H 2542  -0.082   4.996  10.906  0.6369 -0.0391 -0.6464
  777MOL0     H 2543  -0.018   5.095  11.043  0.2468  0.3979  0.8623
  777MOL0     H 2544  -0.229   4.950  11.064 -0.7910 -1.0297 -2.7595
  777MOL0     H 2545  -0.320   5.086  10.987 -1.0491 -2.4402  0.7750
  777MOL0     H 2546   0.830   5.052  10.662 -0.5285 -0.0278 -0.8676
  777MOL0     H 2547   1.052   5.118  10.664 -0.7984  0.4311 -0.5880
  777MOL0     H 2548   1.493   5.266  10.486  2.7844 -1.8845 -0.1691
  777MOL0     H 2549   1.723   5.315  10.575  1.3104  2.5557  1.1720
  777MOL0     H 2550   2.993   4.418  10.238  0.3970  0.1830 -2.1679
  777MOL0     H 2551   3.180   4.353  10.082  2.1717 -0.8691 -0.0105
  777MOL0     H 2552   3.554   4.502   9.966  2.0473  1.3202 -0.2357
  777MOL0     H 2553   3.727   4.518   9.788 -0.1284 -0.7456 -0.4609
  777MOL0     H 2554   3.993   4.443   9.561 -0.6866  0.1171 -0.1553
  777MOL0     H 2555   3.875   4.530   9.656 -0.6798  0.2009 -1.4434
  777MOL0     H 2556   3.775   4.285   9.485 -1.8134  0.8828 -1.6110
  777MOL0     H 2557   3.688   4.373   9.609 -0.1017  4.4697 -0.6112
  777MOL0     H 2558   3.808   4.506   9.364  0.6123  1.8256  1.6763
  777MOL0     H 2559   3.676   4.567   9.487  0.2370  1.3726 -2.0351
  777MOL0     H 2560   3.531   4.387   9.410 -1.3178 -1.3650 -1.9180
  777MOL0     H 2561   3.566   4.516   9.289  1.9587 -0.2658 -0.7314
  777MOL0     H 2562   3.694   4.166   9.109 -1.7991 -1.5956  0.3830
  777MOL0     H 2563   3.910   4.155   9.890  1.9241  1.3058  1.7886
  777MOL0     H 2564   3.752   4.118  10.062 -0.2920  0.1823 -1.1927
  778MOL0     O 2565   8.129   0.651   0.184  0.4424  0.0623 -1.1354
  778MOL0     C 2566   8.155   0.534   0.214  0.7208 -0.2556  0.1966
  778MOL0     O 2567   8.060   0.437   0.238 -0.6734 -0.3956  0.3941
  778MOL0     C 2568   7.931   0.485   0.263 -0.9828 -0.4672 -0.8053
  778MOL0     C 2569   7.892   0.588   0.347 -0.3664  0.4567 -0.2455
  778MOL0     C 2570   7.754   0.618   0.380 -0.2296 -0.0555  0.4847
  778MOL0     C 2571   7.649   0.550   0.322 -0.2070  0.6331  1.6924
  778MOL0     O 2572   7.526   0.553   0.368  0.3799  0.2255 -0.0365
  778MOL0     C 2573   7.417   0.477   0.315 -0.6454  0.1465  0.3783
  778MOL0     C 2574   7.398   0.349   0.404  0.3999  0.6114  0.0740
  778MOL0     C 2575   7.279   0.262   0.348 -0.9843 -0.2143  0.7026
  778MOL0     C 2576   7.238   0.151   0.448  0.2513  0.5932 -0.5886
  778MOL0     C 2577   7.135   0.067   0.380 -0.0545  0.8418  0.2221
  778MOL0     C 2578   7.078  -0.022   0.495 -0.5584 -0.5625  0.1298
  778MOL0     C 2579   6.964  -0.100   0.454 -0.6190 -0.1306  0.7980
  778MOL0     C 2580   6.837  -0.022   0.428  0.3128 -0.6954 -0.9731
  778MOL0     N 2581   6.726  -0.101   0.382 -0.4202  0.0059  0.3587
  778MOL0     C 2582   6.651  -0.183   0.460 -0.7997 -0.2526  0.2828
  778MOL0     C 2583   6.581  -0.250   0.367 -0.2206  0.0074 -0.1156
  778MOL0     C 2584   6.478  -0.342   0.376  1.1332 -0.5823 -0.5820
  778MOL0     C 2585   6.359  -0.268   0.439  0.3010 -0.0313 -0.5126
  778MOL0     C 2586   6.238  -0.352   0.422  0.6978 -0.2991 -0.4006
  778MOL0     C 2587   6.104  -0.293   0.486 -0.0793 -0.0739  0.7547
  778MOL0     O 2588   5.995  -0.376   0.442  0.5420 -0.6027 -1.1006
  778MOL0     C 2589   5.868  -0.345   0.493  0.4633 -0.0384  0.3533
  778MOL0     C 2590   5.825  -0.217   0.539 -0.2143 -0.1787 -0.1524
  778MOL0     C 2591   5.687  -0.205   0.570  0.6746  0.2094  0.5790
  778MOL0     C 2592   5.603  -0.318   0.564 -0.2434 -0.5621  0.5040
  778MOL0     C 2593   5.455  -0.306   0.598 -0.6916  0.4371  0.1680
  778MOL0     O 2594   5.361  -0.379   0.521 -0.7950  0.5804 -0.5042
  778MOL0     C 2595   5.231  -0.382   0.558  0.0172 -0.4490 -0.1493
  778MOL0     C 2596   5.133  -0.324   0.477 -0.8427 -0.2366  0.5020
  778MOL0     C 2597   4.999  -0.315   0.518  0.0276  0.9547  0.0962
  778MOL0     C 2598   4.959  -0.378   0.640  0.7047  0.0791  0.6597
  778MOL0     O 2599   4.824  -0.370   0.675 -0.3128 -0.2477  0.3637
  778MOL0     C 2600   4.771  -0.407   0.806  0.4914 -0.4864 -0.1112
  778MOL0     C 2601   4.728  -0.559   0.804 -0.1514 -1.4766  0.0101
  778MOL0     C 2602   4.648  -0.590   0.930 -0.1718 -0.2665  0.7770
  778MOL0     C 2603   4.585  -0.728   0.909  0.2294 -0.4628  0.5076
  778MOL0     C 2604   4.518  -0.780   1.036 -1.1143 -0.0517 -0.6816
  778MOL0     C 2605   4.396  -0.874   1.004  0.7250 -0.0217 -0.2546
  778MOL0     C 2606   4.270  -0.808   0.947 -0.1292 -0.6249 -0.0383
  778MOL0     C 2607   4.139  -0.876   0.952  0.1861  0.0550  0.4463
  778MOL0    Cl 2608   4.098  -0.935   1.123 -0.2228 -0.4148  0.1146
  778MOL0     C 2609   5.054  -0.438   0.716 -0.4407 -0.1134 -0.2721
  778MOL0     C 2610   5.188  -0.434   0.682 -0.5301  0.3935 -0.0038
  778MOL0     O 2611   5.430  -0.229   0.688 -0.3205 -0.6958  0.1038
  778MOL0     C 2612   5.655  -0.442   0.529 -0.3311  1.3125 -0.4499
  778MOL0     C 2613   5.785  -0.456   0.488 -0.1640  0.3503 -0.2189
  778MOL0     N 2614   6.613  -0.209   0.236 -0.3297  0.4406  0.2534
  778MOL0     N 2615   6.702  -0.121   0.249  0.5568  0.3380  0.2752
  778MOL0     C 2616   7.692   0.456   0.223  0.4017  0.6962  0.3966
  778MOL0     C 2617   7.825   0.429   0.191  0.0728  0.3721 -0.5950
  778MOL0     C 2618   8.299   0.500   0.219 -0.3669  0.6444  0.2334
  778MOL0     C 2619   8.334   0.365   0.228 -0.0240  0.8195  0.8001
  778MOL0     C 2620   8.466   0.322   0.217 -0.1572  0.8798  1.1471
  778MOL0     C 2621   8.564   0.415   0.205  0.1213 -1.0168 -0.1477
  778MOL0     O 2622   8.693   0.366   0.197 -0.2400 -0.1578 -0.1508
  778MOL0     C 2623   8.802   0.460   0.190 -0.2047  0.4133  0.4229
  778MOL0     C 2624   8.931   0.377   0.219 -0.0327 -0.0611  0.1759
  778MOL0     C 2625   9.036   0.475   0.282 -0.7722  0.0378 -0.1637
  778MOL0     C 2626   9.175   0.416   0.295 -0.6068 -0.0603 -0.3195
  778MOL0     C 2627   9.277   0.506   0.357  1.1382 -1.1347  0.0432
  778MOL0     C 2628   9.339   0.583   0.423 -0.0308  0.1950  0.8258
  778MOL0     C 2629   8.538   0.557   0.209  0.4187  0.6082  0.3355
  778MOL0     C 2630   8.400   0.599   0.208 -0.2583 -0.8181  0.1101
  778MOL0     H 2631   7.970   0.649   0.390 -0.1962  0.5330 -0.6541
  778MOL0     H 2632   7.742   0.698   0.452 -1.0402 -1.4123  1.9321
  778MOL0     H 2633   7.429   0.465   0.207 -0.7518  2.3891  0.0749
  778MOL0     H 2634   7.333   0.545   0.329  1.4127  3.3493 -1.5827
  778MOL0     H 2635   7.365   0.384   0.502  0.8321  0.6531  0.2036
  778MOL0     H 2636   7.492   0.294   0.407 -0.0037 -0.3565 -2.5268
  778MOL0     H 2637   7.301   0.212   0.254  1.1883 -3.2371  2.6241
  778MOL0     H 2638   7.200   0.330   0.317  0.0644  0.6311 -0.2025
  778MOL0     H 2639   7.319   0.082   0.469  0.6663  0.9065 -1.1268
  778MOL0     H 2640   7.199   0.201   0.538 -2.7736 -0.2137 -1.3156
  778MOL0     H 2641   7.178   0.004   0.303 -2.4102  2.3637 -2.5693
  778MOL0     H 2642   7.056   0.126   0.332  0.0062  1.0803  0.4117
  778MOL0     H 2643   7.042   0.036   0.580  1.2252 -1.0001  1.2319
  778MOL0     H 2644   7.153  -0.089   0.536  0.7802  0.1737 -1.0118
  778MOL0     H 2645   6.998  -0.152   0.364  0.7098 -1.9897  2.2939
  778MOL0     H 2646   6.959  -0.172   0.536 -0.7711 -0.5435  0.4318
  778MOL0     H 2647   6.847   0.062   0.359  1.1898  1.3352  1.4750
  778MOL0     H 2648   6.802   0.028   0.520 -0.6495 -0.6381 -1.3582
  778MOL0     H 2649   6.641  -0.195   0.567 -0.4520 -0.4271  0.2971
  778MOL0     H 2650   6.515  -0.432   0.426  2.9824 -0.9934 -2.5168
  778MOL0     H 2651   6.448  -0.372   0.275 -0.4890  2.6293 -1.1645
  778MOL0     H 2652   6.342  -0.173   0.389 -0.6527  0.4115  0.5974
  778MOL0     H 2653   6.379  -0.248   0.545 -1.0165 -3.1520  0.4332
  778MOL0     H 2654   6.221  -0.345   0.314 -1.2625  0.2789 -0.0974
  778MOL0     H 2655   6.261  -0.451   0.462  1.3019  0.5090  1.3590
  778MOL0     H 2656   6.085  -0.191   0.452  3.3542  0.6754  0.7207
  778MOL0     H 2657   6.101  -0.289   0.595 -1.1900 -2.1615  0.8451
  778MOL0     H 2658   5.891  -0.131   0.534 -4.3555  3.2929 -2.7244
  778MOL0     H 2659   5.634  -0.114   0.598  1.6461  0.6690  0.9823
  778MOL0     H 2660   5.157  -0.275   0.383  1.7589  2.4839  2.3923
  778MOL0     H 2661   4.925  -0.264   0.457 -0.0154 -1.2632 -1.8812
  778MOL0     H 2662   4.677  -0.352   0.818  0.4043 -0.2027 -1.7980
  778MOL0     H 2663   4.842  -0.383   0.885 -0.0685  2.2718 -0.3590
  778MOL0     H 2664   4.817  -0.622   0.804 -0.7178 -2.3253 -1.5564
  778MOL0     H 2665   4.674  -0.579   0.712 -1.7600 -0.4013  0.6751
  778MOL0     H 2666   4.565  -0.524   0.956  2.1637  2.5098  1.6990
  778MOL0     H 2667   4.714  -0.600   1.016  0.2744 -1.1756  0.3473
  778MOL0     H 2668   4.514  -0.728   0.825 -0.5434  1.4791  1.0946
  778MOL0     H 2669   4.659  -0.806   0.890  2.0090  1.2640 -0.0131
  778MOL0     H 2670   4.493  -0.700   1.107  1.5367  0.9117 -0.7519
  778MOL0     H 2671   4.584  -0.846   1.093  0.5940  1.4096 -0.8818
  778MOL0     H 2672   4.377  -0.909   1.106 -0.8224 -1.3635 -0.9672
  778MOL0     H 2673   4.425  -0.957   0.939  1.9691  1.2595 -1.4140
  778MOL0     H 2674   4.253  -0.712   0.997 -0.0341 -1.5002  1.7449
  778MOL0     H 2675   4.289  -0.789   0.841  0.3782  0.6037  0.2606
  778MOL0     H 2676   4.153  -0.970   0.897  1.2030  0.4946 -0.0617
  778MOL0     H 2677   4.056  -0.821   0.907 -1.2744 -1.7972  0.7693
  778MOL0     H 2678   5.028  -0.482   0.811 -3.9679  2.2188 -0.0097
  778MOL0     H 2679   5.263  -0.492   0.735  0.4841  1.3114 -0.3987
  778MOL0     H 2680   5.587  -0.526   0.520  1.6699 -0.3745 -0.4843
  778MOL0     H 2681   5.827  -0.552   0.457  1.2177  0.6324  0.6947
  778MOL0     H 2682   7.630   0.388   0.164  3.9223 -4.0418  1.5263
  778MOL0     H 2683   7.842   0.351   0.119  2.0838 -0.2457  0.4874
  778MOL0     H 2684   8.259   0.286   0.226  0.3333  0.4045  2.4366
  778MOL0     H 2685   8.496   0.218   0.229  3.5880  1.5056 -1.1128
  778MOL0     H 2686   8.802   0.527   0.277  1.0214  0.2367  0.5702
  778MOL0     H 2687   8.804   0.512   0.094 -2.1902  0.0277  0.1245
  778MOL0     H 2688   8.919   0.295   0.291 -1.5075 -0.7835 -0.8315
  778MOL0     H 2689   8.965   0.342   0.121 -0.2246 -0.7388  0.3427
  778MOL0     H 2690   9.005   0.492   0.385 -2.4472 -0.1427 -0.6021
  778MOL0     H 2691   9.030   0.569   0.226 -0.2300  1.5184  2.1307
  778MOL0     H 2692   9.166   0.323   0.352  2.9076  0.0166  0.5601
  778MOL0     H 2693   9.208   0.407   0.191  0.9917  0.2004  0.1371
  778MOL0     H 2694   9.401   0.659   0.467  0.9205  0.4826 -0.9012
  778MOL0     H 2695   8.623   0.624   0.207  2.6298 -2.0263 -0.3815
  778MOL0     H 2696   8.372   0.703   0.210  0.0861 -0.7363  1.3084
  779MOL0     O 2697   2.392   5.948   5.030  0.1356 -0.1800  0.0192
  779MOL0     C 2698   2.466   5.852   5.056 -0.0672  0.0139 -0.3511
  779MOL0     O 2699   2.425   5.745   5.137  0.3316  1.1471  0.3748
  779MOL0     C 2700   2.291   5.726   5.165  1.0841 -0.4041  0.2804
  779MOL0     C 2701   2.229   5.791   5.272  0.0866 -0.2257  0.2072
  779MOL0     C 2702   2.091   5.773   5.297  1.2989 -0.0411  0.6113
  779MOL0     C 2703   2.011   5.691   5.208 -0.4092 -0.3648 -0.4273
  779MOL0     O 2704   1.875   5.697   5.207  0.2210 -0.0910  0.7228
  779MOL0     C 2705   1.812   5.568   5.237 -0.1489  0.5885  0.2731
  779MOL0     C 2706   1.685   5.586   5.315  0.3569 -0.3926  0.1117
  779MOL0     C 2707   1.611   5.447   5.322  0.2592 -0.3866 -0.5033
  779MOL0     C 2708   1.465   5.458   5.373 -0.1103  0.1111 -0.3331
  779MOL0     C 2709   1.405   5.329   5.400 -0.6634 -0.5889 -0.1579
  779MOL0     C 2710   1.266   5.332   5.466 -0.3098  0.3973 -0.0573
  779MOL0     C 2711   1.216   5.192   5.515  0.1535 -0.1710 -0.0384
  779MOL0     C 2712   1.118   5.176   5.629 -0.3705  0.4978 -0.3580
  779MOL0     N 2713   0.973   5.195   5.608  0.0516 -0.5357 -0.4128
  779MOL0     C 2714   0.913   5.260   5.506  0.1953 -0.0555 -0.2925
  779MOL0     C 2715   0.777   5.259   5.532  0.0747  0.4257  0.1931
  779MOL0     C 2716   0.678   5.309   5.443 -0.3760  0.8692  0.8632
  779MOL0     C 2717   0.626   5.436   5.494  0.0331  0.3049  0.4336
  779MOL0     C 2718   0.522   5.509   5.410 -0.1760  0.2321 -0.2820
  779MOL0     C 2719   0.376   5.451   5.410 -0.2950  0.2653 -0.3034
  779MOL0     O 2720   0.365   5.324   5.339  0.6424 -0.6428 -0.0628
  779MOL0     C 2721   0.236   5.287   5.305 -0.3342  0.1497  0.2498
  779MOL0     C 2722   0.197   5.149   5.324  0.4463  0.0117  0.0289
  779MOL0     C 2723   0.071   5.110   5.278  0.0909 -0.4378  0.3976
  779MOL0     C 2724  -0.018   5.195   5.219  0.1127 -0.9985  0.5652
  779MOL0     C 2725  -0.163   5.157   5.199  0.2908  0.5239  0.0205
  779MOL0     O 2726  -0.226   5.219   5.097 -0.7563  0.7363  0.5566
  779MOL0     C 2727  -0.358   5.181   5.082 -0.2811 -0.3296 -0.1789
  779MOL0     C 2728  -0.406   5.071   5.009  0.4232  0.4653  0.1029
  779MOL0     C 2729  -0.545   5.052   4.992 -0.5805 -0.0766 -0.5164
  779MOL0     C 2730  -0.638   5.134   5.056  0.3698 -0.2267  0.0508
  779MOL0     O 2731  -0.776   5.104   5.048  0.1303  0.4608 -0.7012
  779MOL0     C 2732  -0.881   5.173   5.123  0.2890  0.4819 -0.5873
  779MOL0     C 2733  -1.023   5.107   5.128 -0.4508  0.9764  0.5972
  779MOL0     C 2734  -1.110   5.148   5.018  0.8279  0.1307  0.4015
  779MOL0     C 2735  -1.256   5.099   5.042 -0.4777 -0.3921 -0.1401
  779MOL0     C 2736  -1.342   5.140   4.926  0.3647 -0.8577 -0.2091
  779MOL0     C 2737  -1.489   5.091   4.930  0.2026  0.2309 -0.3332
  779MOL0     C 2738  -1.588   5.163   5.021  0.9123 -0.1422 -0.0815
  779MOL0     C 2739  -1.732   5.130   4.992 -0.0299  0.5735  0.0594
  779MOL0    Cl 2740  -1.759   5.182   4.828 -0.0285  0.2552 -0.0592
  779MOL0     C 2741  -0.590   5.247   5.129  0.8089  0.0798 -0.3167
  779MOL0     C 2742  -0.451   5.266   5.136 -0.0267 -0.3756 -0.1360
  779MOL0     O 2743  -0.211   5.077   5.281 -0.2429 -0.2728  0.0622
  779MOL0     C 2744   0.021   5.333   5.195 -0.1669 -0.2048 -0.5282
  779MOL0     C 2745   0.149   5.375   5.236  0.2760 -0.2842 -0.1262
  779MOL0     N 2746   0.763   5.175   5.649  0.1973 -0.0263  0.2636
  779MOL0     N 2747   0.878   5.153   5.696 -0.6157  0.1118  0.4195
  779MOL0     C 2748   2.079   5.615   5.114  0.3947  0.0111  0.4393
  779MOL0     C 2749   2.218   5.632   5.086 -0.8015 -0.4771  0.8160
  779MOL0     C 2750   2.605   5.890   5.045  0.6622  1.1820 -0.0255
  779MOL0     C 2751   2.700   5.812   5.097 -0.5737 -0.2624 -0.1257
  779MOL0     C 2752   2.832   5.842   5.079 -0.2579  0.1530 -1.3444
  779MOL0     C 2753   2.870   5.954   5.002 -0.3909 -0.7753 -0.1708
  779MOL0     O 2754   3.001   5.977   4.983 -0.5093 -0.3597 -0.6729
  779MOL0     C 2755   3.067   6.080   5.058  0.1184 -0.1142  0.0240
  779MOL0     C 2756   3.225   6.060   5.042  0.8872 -0.3508  0.1169
  779MOL0     C 2757   3.296   5.985   5.163 -0.6925 -0.3230  0.1079
  779MOL0     C 2758   3.284   5.831   5.145 -0.0179  0.6588 -0.3235
  779MOL0     C 2759   3.379   5.756   5.226  0.1090 -0.3624  0.8051
  779MOL0     C 2760   3.442   5.686   5.299  0.6183  0.3072  1.3035
  779MOL0     C 2761   2.777   6.038   4.958 -0.9537  0.2668 -0.3061
  779MOL0     C 2762   2.642   6.007   4.977 -0.2232  0.3272 -0.3235
  779MOL0     H 2763   2.280   5.855   5.343  0.6486 -0.5440  0.0971
  779MOL0     H 2764   2.049   5.843   5.369 -0.8832 -0.2842 -0.3531
  779MOL0     H 2765   1.873   5.501   5.299  0.9849  1.1372 -0.2158
  779MOL0     H 2766   1.792   5.518   5.142  3.4280 -1.7060  0.5072
  779MOL0     H 2767   1.624   5.662   5.265  0.8994 -1.2808 -1.9768
  779MOL0     H 2768   1.715   5.614   5.417  2.0872 -4.0151  0.7632
  779MOL0     H 2769   1.673   5.382   5.384  0.1171  0.9160  1.0449
  779MOL0     H 2770   1.612   5.396   5.225 -1.5303  2.2145 -2.0409
  779MOL0     H 2771   1.482   5.521   5.461  3.5816 -1.7337  0.4600
  779MOL0     H 2772   1.398   5.516   5.309  0.1910  0.1755 -0.5941
  779MOL0     H 2773   1.470   5.276   5.471  0.0724  1.5104  0.8315
  779MOL0     H 2774   1.393   5.278   5.305 -0.7664  0.3322 -0.6559
  779MOL0     H 2775   1.185   5.369   5.403  0.7459 -0.3263 -1.9446
  779MOL0     H 2776   1.271   5.401   5.550 -1.0491  1.0721 -0.5539
  779MOL0     H 2777   1.186   5.139   5.425  3.5781 -0.4966 -1.1136
  779MOL0     H 2778   1.301   5.128   5.537 -0.5085 -0.5652  1.5125
  779MOL0     H 2779   1.149   5.243   5.709  0.8495  0.0971 -0.4752
  779MOL0     H 2780   1.137   5.074   5.665  1.4442  0.5906 -0.9798
  779MOL0     H 2781   0.961   5.305   5.420 -1.7838  0.7006 -1.0542
  779MOL0     H 2782   0.600   5.240   5.408  2.4844 -2.2709  0.0869
  779MOL0     H 2783   0.722   5.344   5.349 -2.2998 -0.6565 -0.7112
  779MOL0     H 2784   0.712   5.500   5.515  1.1584 -1.9173  3.4960
  779MOL0     H 2785   0.585   5.423   5.595  0.8898 -2.3909  0.5160
  779MOL0     H 2786   0.523   5.607   5.457 -2.8910  0.5195 -0.6687
  779MOL0     H 2787   0.550   5.524   5.305  1.5439 -0.4749  0.0350
  779MOL0     H 2788   0.305   5.525   5.372  1.5913  1.8099 -0.9895
  779MOL0     H 2789   0.359   5.439   5.517 -1.0168  2.4997 -0.1164
  779MOL0     H 2790   0.268   5.079   5.367 -0.4922  0.7458  3.0011
  779MOL0     H 2791   0.041   5.012   5.315  0.3978  0.4349  3.1943
  779MOL0     H 2792  -0.337   5.001   4.963 -0.3099 -1.2398  1.5203
  779MOL0     H 2793  -0.565   4.968   4.927  0.8810 -1.2010  0.4321
  779MOL0     H 2794  -0.895   5.274   5.082 -0.8869 -0.2830 -2.1638
  779MOL0     H 2795  -0.841   5.167   5.225 -2.7536  0.3208  0.7066
  779MOL0     H 2796  -1.065   5.137   5.225  1.6629  2.2493  1.1999
  779MOL0     H 2797  -1.017   4.998   5.126 -2.2218  0.8388 -1.9464
  779MOL0     H 2798  -1.078   5.094   4.929 -2.2288 -2.5486  0.7500
  779MOL0     H 2799  -1.114   5.254   4.992  1.7893 -0.7352 -4.1813
  779MOL0     H 2800  -1.263   4.990   5.055 -2.5573 -0.1970  0.8582
  779MOL0     H 2801  -1.287   5.148   5.135  0.2486 -0.5542  0.1921
  779MOL0     H 2802  -1.298   5.103   4.833  0.8804  1.8617 -1.1418
  779MOL0     H 2803  -1.340   5.249   4.921  1.4902 -0.9211 -2.0753
  779MOL0     H 2804  -1.490   4.982   4.942 -0.9516  0.2704  0.0069
  779MOL0     H 2805  -1.513   5.104   4.824  1.8485  1.2552 -0.6260
  779MOL0     H 2806  -1.567   5.124   5.121 -0.9751 -2.2634 -0.4432
  779MOL0     H 2807  -1.580   5.272   5.025 -0.5034  0.0167 -0.8431
  779MOL0     H 2808  -1.795   5.186   5.061 -0.3295 -0.8485  0.9683
  779MOL0     H 2809  -1.748   5.022   5.003 -1.1864  0.3476 -2.9146
  779MOL0     H 2810  -0.660   5.318   5.172 -1.2693 -2.5589  0.9356
  779MOL0     H 2811  -0.414   5.360   5.176 -0.2425  0.3827 -1.6415
  779MOL0     H 2812  -0.050   5.409   5.165  0.5918 -0.4036 -2.9996
  779MOL0     H 2813   0.178   5.477   5.214 -1.1665  0.2446  0.2789
  779MOL0     H 2814   2.024   5.545   5.052  2.2284 -1.2361  0.1259
  779MOL0     H 2815   2.265   5.567   5.012  2.0753 -3.1623  4.6082
  779MOL0     H 2816   2.663   5.719   5.139  0.7388 -0.1328  1.4147
  779MOL0     H 2817   2.897   5.764   5.119 -1.1596 -0.7946 -1.6675
  779MOL0     H 2818   3.038   6.088   5.163 -1.9303  0.4245 -0.5461
  779MOL0     H 2819   3.033   6.173   5.012  0.0933 -1.2168 -2.3405
  779MOL0     H 2820   3.253   6.009   4.949  0.9280  1.2396 -0.7806
  779MOL0     H 2821   3.257   6.165   5.047 -0.3586  0.0255  0.4167
  779MOL0     H 2822   3.243   6.020   5.252 -0.4680  0.4876 -0.0696
  779MOL0     H 2823   3.399   6.020   5.167  0.0689 -1.3015 -4.7858
  779MOL0     H 2824   3.186   5.793   5.172 -0.2677  2.0449  0.8587
  779MOL0     H 2825   3.290   5.816   5.037 -2.8051 -1.2876 -0.2947
  779MOL0     H 2826   3.495   5.625   5.369  0.4677 -0.7449  0.5136
  779MOL0     H 2827   2.806   6.131   4.909  0.4297  0.3258  0.5688
  779MOL0     H 2828   2.569   6.065   4.920  1.3133 -0.5203 -3.3411
  780MOL0     O 2829   3.658   4.081   5.483 -0.0361 -0.5662  0.0234
  780MOL0     C 2830   3.660   4.177   5.408  0.5813  0.0004  0.8362
  780MOL0     O 2831   3.769   4.232   5.347 -0.3283 -0.5918  0.0587
  780MOL0     C 2832   3.888   4.168   5.322  0.3638  0.2866  0.3884
  780MOL0     C 2833   3.908   4.031   5.324  0.0266  0.0451 -0.5131
  780MOL0     C 2834   4.033   3.982   5.316 -0.8122 -0.1139 -0.6474
  780MOL0     C 2835   4.150   4.054   5.296  0.0357 -0.4161 -0.1415
  780MOL0     O 2836   4.267   3.993   5.302 -0.4832  0.4534 -0.6327
  780MOL0     C 2837   4.380   4.070   5.264  0.3867 -0.1410 -0.2871
  780MOL0     C 2838   4.502   3.982   5.235 -0.6037  0.5141 -0.1417
  780MOL0     C 2839   4.629   4.073   5.204 -0.1342 -0.1643 -0.1255
  780MOL0     C 2840   4.757   3.987   5.181  0.4543  1.1736  0.5052
  780MOL0     C 2841   4.875   4.069   5.152 -0.3614  0.1641  0.3782
  780MOL0     C 2842   4.997   3.985   5.121 -0.6540 -0.1966 -0.2630
  780MOL0     C 2843   5.120   4.047   5.050  0.1769  0.3945 -0.1378
  780MOL0     C 2844   5.189   4.157   5.130  0.4020 -1.1731  0.1417
  780MOL0     N 2845   5.301   4.214   5.051  0.2185 -0.3825 -0.3950
  780MOL0     C 2846   5.419   4.144   5.013  0.6257 -0.3351 -0.9566
  780MOL0     C 2847   5.444   4.201   4.891  0.1704  0.0545 -0.0109
  780MOL0     C 2848   5.538   4.132   4.798 -0.8813  0.4811  0.1100
  780MOL0     C 2849   5.469   4.023   4.713 -0.2357 -0.4312 -0.2611
  780MOL0     C 2850   5.423   3.892   4.780  0.1918  1.1855  0.0318
  780MOL0     C 2851   5.305   3.818   4.708  0.3463 -0.3820 -0.5541
  780MOL0     O 2852   5.179   3.880   4.737 -0.1611 -0.8992  1.2084
  780MOL0     C 2853   5.082   3.897   4.636  0.4839 -0.6985 -0.6232
  780MOL0     C 2854   4.958   3.943   4.677  0.5837 -0.7858  0.2218
  780MOL0     C 2855   4.847   3.960   4.587 -0.7412 -0.3651  0.5196
  780MOL0     C 2856   4.861   3.932   4.451 -0.1642  0.7746 -0.4617
  780MOL0     C 2857   4.749   3.954   4.357 -1.0428 -0.3360 -0.3894
  780MOL0     O 2858   4.635   4.005   4.412  0.0287 -0.0967 -0.4423
  780MOL0     C 2859   4.515   4.005   4.346  0.1483 -0.4064  0.7047
  780MOL0     C 2860   4.426   4.107   4.382 -0.1042 -0.1811 -1.3511
  780MOL0     C 2861   4.297   4.089   4.343 -0.2546 -0.6329 -0.5790
  780MOL0     C 2862   4.253   3.988   4.263 -1.2836  0.1748 -0.2157
  780MOL0     O 2863   4.123   3.972   4.238  0.7444 -0.1576  0.2778
  780MOL0     C 2864   4.059   3.852   4.299  0.3997  0.6433 -0.0286
  780MOL0     C 2865   3.961   3.898   4.413  0.0238  0.2607  1.3345
  780MOL0     C 2866   3.849   3.993   4.354  0.0127  0.3601 -0.4384
  780MOL0     C 2867   3.781   3.940   4.230 -0.2973  0.0575  0.5675
  780MOL0     C 2868   3.662   4.032   4.198  0.4428  0.7181 -0.0476
  780MOL0     C 2869   3.608   3.982   4.065 -1.3251  0.6019  0.0123
  780MOL0     C 2870   3.480   4.037   4.015  0.2948  0.3698 -0.1460
  780MOL0     C 2871   3.415   3.941   3.908  0.0230 -0.5196  0.1295
  780MOL0    Cl 2872   3.262   4.009   3.840 -0.1566  0.1836 -0.4279
  780MOL0     C 2873   4.347   3.886   4.237 -0.6803  0.2875  0.4135
  780MOL0     C 2874   4.477   3.903   4.273  0.1203  0.3269  0.3271
  780MOL0     O 2875   4.769   3.926   4.244 -1.4644  0.3783  0.3375
  780MOL0     C 2876   4.986   3.891   4.416  0.0618  0.1363  0.2146
  780MOL0     C 2877   5.101   3.873   4.497  0.1275  0.7825 -0.2951
  780MOL0     N 2878   5.370   4.310   4.872  0.8743  0.8333 -0.3814
  780MOL0     N 2879   5.285   4.316   4.971  0.5937  0.4526 -0.6083
  780MOL0     C 2880   4.129   4.196   5.292 -0.0368 -0.3582 -0.2946
  780MOL0     C 2881   4.001   4.251   5.312  0.3875 -0.0002  0.2654
  780MOL0     C 2882   3.533   4.250   5.392  0.1014 -0.3517  0.5904
  780MOL0     C 2883   3.526   4.334   5.281  0.1261 -0.0170  0.1137
  780MOL0     C 2884   3.402   4.412   5.268 -0.0999  1.0007  0.1876
  780MOL0     C 2885   3.309   4.409   5.368 -0.5227 -0.8365  0.4294
  780MOL0     O 2886   3.202   4.497   5.354  0.1274 -0.5092  0.8570
  780MOL0     C 2887   3.070   4.446   5.387 -1.3658 -0.0598  0.8922
  780MOL0     C 2888   3.024   4.534   5.503  0.4271  0.0610 -0.4147
  780MOL0     C 2889   2.890   4.482   5.561  1.1481  0.0664 -0.4250
  780MOL0     C 2890   2.891   4.332   5.615 -0.3881 -0.2848 -0.5789
  780MOL0     C 2891   2.780   4.317   5.702 -0.6068 -0.4108 -0.0259
  780MOL0     C 2892   2.683   4.281   5.765  0.1049 -0.7632 -0.1254
  780MOL0     C 2893   3.323   4.327   5.479 -0.5407  1.4977  0.1887
  780MOL0     C 2894   3.434   4.246   5.492 -0.7784  0.3259 -0.1477
  780MOL0     H 2895   3.831   3.963   5.359  0.8727  0.4805  2.4170
  780MOL0     H 2896   4.027   3.874   5.318  1.3656 -0.2869 -1.1579
  780MOL0     H 2897   4.405   4.134   5.349  0.6504 -1.3471  0.5679
  780MOL0     H 2898   4.375   4.135   5.177 -0.0911 -0.2621 -0.3520
  780MOL0     H 2899   4.488   3.907   5.157  0.4035 -0.4395  0.5678
  780MOL0     H 2900   4.534   3.925   5.323  0.2669 -1.5314 -1.6998
  780MOL0     H 2901   4.662   4.145   5.280 -0.4167  1.8703 -1.8327
  780MOL0     H 2902   4.608   4.137   5.118 -1.9196 -2.3473 -1.4015
  780MOL0     H 2903   4.782   3.932   5.272  1.3694  0.6186 -0.0724
  780MOL0     H 2904   4.748   3.906   5.108  2.8818  0.3730  1.0007
  780MOL0     H 2905   4.895   4.144   5.229 -0.6834 -0.5157  1.1372
  780MOL0     H 2906   4.832   4.119   5.064 -0.0076  0.5939  0.4466
  780MOL0     H 2907   4.976   3.896   5.061 -0.4830 -0.0670 -0.5180
  780MOL0     H 2908   5.022   3.941   5.218  1.6849  0.2730 -0.5878
  780MOL0     H 2909   5.190   3.964   5.035 -1.3538 -0.6983 -1.7275
  780MOL0     H 2910   5.088   4.083   4.952 -1.4119 -2.7718 -0.9266
  780MOL0     H 2911   5.219   4.114   5.225 -1.0766  1.3163  1.8613
  780MOL0     H 2912   5.123   4.243   5.144  2.3968  0.0991  2.5394
  780MOL0     H 2913   5.456   4.055   5.063 -1.1642 -0.2372  0.6712
  780MOL0     H 2914   5.618   4.083   4.854 -0.3490  0.6498 -0.4873
  780MOL0     H 2915   5.576   4.197   4.719 -2.0138  0.4091 -0.5274
  780MOL0     H 2916   5.538   3.993   4.634 -0.1363  2.4829 -1.3972
  780MOL0     H 2917   5.388   4.079   4.666  0.3425  1.4294  0.8522
  780MOL0     H 2918   5.499   3.814   4.784 -1.1263 -0.1027  2.5763
  780MOL0     H 2919   5.392   3.915   4.882 -2.4561 -0.9812 -0.1624
  780MOL0     H 2920   5.302   3.715   4.745 -0.7182 -1.2785 -2.9025
  780MOL0     H 2921   5.334   3.800   4.604  2.0840  3.4781 -0.9049
  780MOL0     H 2922   4.950   3.966   4.783  0.0884 -1.9154  0.4474
  780MOL0     H 2923   4.752   3.987   4.633 -2.8971 -1.1520 -3.0639
  780MOL0     H 2924   4.454   4.185   4.452 -2.9114 -0.5498  0.3276
  780MOL0     H 2925   4.227   4.161   4.385 -0.4982  0.4751 -2.7420
  780MOL0     H 2926   4.127   3.780   4.344 -0.6674 -0.1015  0.4263
  780MOL0     H 2927   4.008   3.795   4.221 -0.7208  1.5499  0.0056
  780MOL0     H 2928   4.016   3.950   4.493  2.9362 -0.0464 -0.3093
  780MOL0     H 2929   3.908   3.815   4.460 -3.0676  0.0030 -2.1495
  780MOL0     H 2930   3.908   4.082   4.328  1.8686 -0.9098 -0.7633
  780MOL0     H 2931   3.775   4.011   4.432 -1.0310 -3.0319 -0.4982
  780MOL0     H 2932   3.846   3.931   4.143 -2.1046 -1.6246 -0.7049
  780MOL0     H 2933   3.754   3.835   4.243  1.7172 -0.7250 -1.1781
  780MOL0     H 2934   3.703   4.133   4.187  1.6742  0.0455 -2.5376
  780MOL0     H 2935   3.581   4.038   4.271  1.3632  3.3129  0.8637
  780MOL0     H 2936   3.594   3.874   4.073 -0.3034  0.2239 -2.4917
  780MOL0     H 2937   3.681   4.000   3.986 -1.7410  0.3206 -0.4365
  780MOL0     H 2938   3.407   4.061   4.093  1.7247  0.2914  1.2691
  780MOL0     H 2939   3.512   4.134   3.976  2.0560  0.0516  0.4147
  780MOL0     H 2940   3.389   3.843   3.948  1.0007 -1.7636 -2.1217
  780MOL0     H 2941   3.478   3.935   3.819 -0.0574  2.6164 -0.2586
  780MOL0     H 2942   4.312   3.795   4.190  0.1895  0.9068 -1.5298
  780MOL0     H 2943   4.547   3.821   4.254  0.0577  0.3726 -0.1087
  780MOL0     H 2944   5.001   3.850   4.317 -0.3135  1.6644 -0.4977
  780MOL0     H 2945   5.188   3.837   4.445  0.2142 -3.5903  2.3025
  780MOL0     H 2946   4.204   4.274   5.288  0.0967 -0.5280 -2.3782
  780MOL0     H 2947   3.984   4.358   5.322 -3.9994 -0.6911  3.2263
  780MOL0     H 2948   3.607   4.328   5.208  0.0701 -2.1383  0.1823
  780MOL0     H 2949   3.381   4.480   5.187  0.0221 -0.2740 -0.9547
  780MOL0     H 2950   3.065   4.346   5.431  0.9978 -0.7053 -0.1173
  780MOL0     H 2951   3.005   4.455   5.300 -1.5391  0.0133  1.0292
  780MOL0     H 2952   3.092   4.526   5.588 -2.3037 -1.4715  1.7776
  780MOL0     H 2953   3.010   4.641   5.482 -0.0765  0.5141  1.9639
  780MOL0     H 2954   2.806   4.499   5.493  0.5499 -1.6727 -0.1694
  780MOL0     H 2955   2.863   4.547   5.645 -0.6862 -1.0489 -0.0962
  780MOL0     H 2956   2.873   4.259   5.535  0.5252 -1.9045  0.6110
  780MOL0     H 2957   2.984   4.304   5.666 -1.0635 -0.0895  0.8151
  780MOL0     H 2958   2.600   4.254   5.827  0.1585 -0.7423 -0.0445
  780MOL0     H 2959   3.252   4.336   5.560 -0.1242  2.5981  0.4507
  780MOL0     H 2960   3.445   4.185   5.581  1.7891  2.3292  1.0426
  781MOL0     O 2961  10.183   6.706   8.120  0.3798 -0.1859 -0.3861
  781MOL0     C 2962  10.159   6.817   8.166  0.8444 -0.4674  0.7863
  781MOL0     O 2963  10.045   6.888   8.150  0.1111 -0.3842 -0.8477
  781MOL0     C 2964   9.914   6.835   8.130 -0.2840 -0.3479  0.4244
  781MOL0     C 2965   9.805   6.924   8.117 -0.4442 -0.3554  0.3783
  781MOL0     C 2966   9.668   6.883   8.129 -0.0668 -0.2838 -0.7026
  781MOL0     C 2967   9.639   6.747   8.141  0.3677  0.0555 -0.1804
  781MOL0     O 2968   9.513   6.698   8.149 -1.0354 -0.3104 -0.2620
  781MOL0     C 2969   9.406   6.785   8.170  0.4465 -0.5209  0.3485
  781MOL0     C 2970   9.287   6.705   8.229  0.5292  0.1145  0.1172
  781MOL0     C 2971   9.161   6.788   8.211 -1.1741 -0.1977 -0.2691
  781MOL0     C 2972   9.037   6.734   8.290 -0.3446 -0.1246 -0.0670
  781MOL0     C 2973   8.923   6.838   8.268  0.3500  0.7345 -0.5641
  781MOL0     C 2974   8.889   6.859   8.119 -0.2947 -0.7192 -0.4319
  781MOL0     C 2975   8.751   6.895   8.089  0.7228 -0.2337  0.2881
  781MOL0     C 2976   8.695   6.827   7.967 -0.8638  0.0721  0.4597
  781MOL0     N 2977   8.553   6.855   7.962  0.1578 -0.6303 -0.5458
  781MOL0     C 2978   8.500   6.951   7.880  0.7518 -0.1564  0.5888
  781MOL0     C 2979   8.364   6.947   7.904 -0.3562 -0.7678  0.6567
  781MOL0     C 2980   8.266   7.018   7.821  0.7958 -0.0241 -0.1777
  781MOL0     C 2981   8.118   7.006   7.876 -0.4674 -0.0604  0.8848
  781MOL0     C 2982   8.028   7.103   7.797 -0.3884  0.2909 -0.8482
  781MOL0     C 2983   7.903   7.120   7.893 -0.1709  0.4686  0.4260
  781MOL0     O 2984   7.789   7.173   7.824 -0.6758 -0.4443  0.0727
  781MOL0     C 2985   7.692   7.087   7.780 -0.2801 -0.4549 -0.7096
  781MOL0     C 2986   7.604   7.128   7.674 -0.7218  0.6987  0.1679
  781MOL0     C 2987   7.495   7.045   7.649  0.2812  0.8013  0.4115
  781MOL0     C 2988   7.472   6.926   7.714  0.1465  0.8694 -0.2587
  781MOL0     C 2989   7.364   6.830   7.669 -0.4532 -0.1867 -1.0264
  781MOL0     O 2990   7.354   6.712   7.731 -0.3031  0.1435 -0.3064
  781MOL0     C 2991   7.262   6.631   7.682  0.0130  0.9811  0.0280
  781MOL0     C 2992   7.294   6.524   7.590 -0.7295  0.7628 -0.9908
  781MOL0     C 2993   7.200   6.427   7.549 -0.5782 -0.0771 -0.2980
  781MOL0     C 2994   7.064   6.429   7.586 -0.5315 -0.7867  0.5673
  781MOL0     O 2995   6.962   6.356   7.539  0.1344  0.5058 -0.2306
  781MOL0     C 2996   6.989   6.214   7.501  0.0274  0.1985 -1.2835
  781MOL0     C 2997   6.878   6.139   7.461 -0.1538 -0.4445 -0.5763
  781MOL0     C 2998   6.787   6.220   7.363 -0.8873 -0.6831 -1.1145
  781MOL0     C 2999   6.853   6.259   7.236 -0.0941 -0.0366 -0.5015
  781MOL0     C 3000   6.782   6.359   7.151  0.2425  0.1167 -0.3059
  781MOL0     C 3001   6.864   6.393   7.023  0.3253 -0.5618 -0.2510
  781MOL0     C 3002   6.818   6.303   6.907 -0.7447 -0.1289 -0.2077
  781MOL0     C 3003   6.894   6.333   6.778 -0.3233 -0.6484 -0.5409
  781MOL0    Cl 3004   6.815   6.474   6.705  0.1517  0.5034  0.0401
  781MOL0     C 3005   7.031   6.537   7.674 -0.5337 -0.1506 -0.9514
  781MOL0     C 3006   7.133   6.631   7.728 -0.3715 -0.1719  0.0418
  781MOL0     O 3007   7.292   6.869   7.582  0.1911 -0.7779  0.3874
  781MOL0     C 3008   7.550   6.892   7.822  1.0630 -0.6185  0.5249
  781MOL0     C 3009   7.651   6.974   7.859 -0.7011 -0.4572  0.4538
  781MOL0     N 3010   8.340   6.834   7.993  0.3386 -0.0085  0.3002
  781MOL0     N 3011   8.451   6.781   8.022 -0.1436  0.1304 -0.8045
  781MOL0     C 3012   9.743   6.656   8.137  0.1628 -0.0622  0.1047
  781MOL0     C 3013   9.874   6.697   8.131 -0.4389  0.0632  0.8243
  781MOL0     C 3014  10.273   6.885   8.213 -0.8142  0.6756  0.5430
  781MOL0     C 3015  10.255   6.998   8.288 -0.2599  0.0123 -0.2707
  781MOL0     C 3016  10.362   7.053   8.355  0.5974  0.3834  0.0231
  781MOL0     C 3017  10.495   7.001   8.344 -0.0070  0.3855 -0.5544
  781MOL0     O 3018  10.602   7.061   8.410  1.0091 -0.2546  1.0972
  781MOL0     C 3019  10.730   7.018   8.386 -0.4798 -0.5086 -0.8588
  781MOL0     C 3020  10.765   7.077   8.248  0.7222 -0.4875 -0.3977
  781MOL0     C 3021  10.905   7.042   8.208 -0.6318  0.5854  0.6348
  781MOL0     C 3022  10.911   6.906   8.140 -0.3309 -0.4576 -0.3979
  781MOL0     C 3023  11.050   6.899   8.090 -0.8127  0.7213 -0.0260
  781MOL0     C 3024  11.164   6.893   8.041  0.0756 -0.3455  0.4133
  781MOL0     C 3025  10.512   6.893   8.257 -0.0654 -0.1374 -0.0445
  781MOL0     C 3026  10.405   6.840   8.188 -0.0085 -0.3728  0.1848
  781MOL0     H 3027   9.803   7.031   8.101 -2.4603 -0.4650 -0.4945
  781MOL0     H 3028   9.588   6.952   8.108  0.2727  0.5930  0.7217
  781MOL0     H 3029   9.384   6.837   8.077 -0.4521 -1.9861 -0.2940
  781MOL0     H 3030   9.425   6.862   8.245 -0.2548  1.5529 -1.4861
  781MOL0     H 3031   9.304   6.706   8.337  0.8171  2.8698  0.1013
  781MOL0     H 3032   9.271   6.608   8.180 -0.6247 -0.5674  1.7196
  781MOL0     H 3033   9.149   6.793   8.103 -0.6432  3.2502 -0.2945
  781MOL0     H 3034   9.186   6.888   8.247 -0.0702 -0.4396 -0.3436
  781MOL0     H 3035   9.000   6.641   8.245 -1.4258 -0.1144  0.7566
  781MOL0     H 3036   9.063   6.726   8.396  0.1934  1.0860 -0.0889
  781MOL0     H 3037   8.956   6.926   8.325 -0.1091  1.2846 -1.1360
  781MOL0     H 3038   8.833   6.795   8.314  0.6217  0.2232 -0.5059
  781MOL0     H 3039   8.927   6.768   8.073 -0.1370 -1.1342  0.5075
  781MOL0     H 3040   8.960   6.930   8.077  0.1069 -1.7406 -1.5255
  781MOL0     H 3041   8.691   6.863   8.174 -0.8734  1.3552 -0.1820
  781MOL0     H 3042   8.733   7.003   8.079  0.2103 -0.4931 -2.5229
  781MOL0     H 3043   8.718   6.720   7.964 -2.7941 -0.4689  2.5866
  781MOL0     H 3044   8.749   6.874   7.884  1.0197  0.7413  1.9739
  781MOL0     H 3045   8.545   7.017   7.807  3.0176 -0.9132  1.2393
  781MOL0     H 3046   8.274   6.985   7.717  1.1006  1.2217 -0.5650
  781MOL0     H 3047   8.282   7.127   7.818 -1.1167  0.2790 -0.5591
  781MOL0     H 3048   8.114   7.023   7.984  1.7597  0.0840  0.9970
  781MOL0     H 3049   8.082   6.905   7.856 -0.0841  0.1737 -1.1751
  781MOL0     H 3050   8.086   7.194   7.779  3.2373 -1.8312 -0.9036
  781MOL0     H 3051   8.000   7.051   7.705  0.2576  0.3461 -1.0839
  781MOL0     H 3052   7.938   7.185   7.973  0.4167 -0.3558  0.8472
  781MOL0     H 3053   7.882   7.021   7.933  4.4676 -1.7290 -1.8051
  781MOL0     H 3054   7.627   7.208   7.604 -0.9862 -0.8860 -1.8394
  781MOL0     H 3055   7.438   7.062   7.558  1.4493 -2.4420 -1.0847
  781MOL0     H 3056   7.399   6.503   7.571  0.4131  0.9153  3.8775
  781MOL0     H 3057   7.232   6.343   7.487  1.7290  1.1027 -0.8227
  781MOL0     H 3058   7.037   6.168   7.588  0.1697 -3.2092 -3.0342
  781MOL0     H 3059   7.055   6.211   7.414  1.3680  1.0424 -0.3437
  781MOL0     H 3060   6.829   6.107   7.553 -0.0176  0.3055 -0.2317
  781MOL0     H 3061   6.917   6.048   7.415 -1.4715 -1.1467 -0.3586
  781MOL0     H 3062   6.756   6.310   7.417 -1.1639 -1.7256  0.5425
  781MOL0     H 3063   6.696   6.161   7.350 -1.0901 -1.0450  1.4321
  781MOL0     H 3064   6.952   6.300   7.257  0.0153  0.7855 -2.3772
  781MOL0     H 3065   6.874   6.176   7.167 -0.6398  0.7812 -1.6887
  781MOL0     H 3066   6.768   6.453   7.206 -0.7930  0.2849 -0.8290
  781MOL0     H 3067   6.685   6.318   7.122 -0.3317 -0.0475  1.6743
  781MOL0     H 3068   6.973   6.390   7.031  1.0128  0.7267 -5.5443
  781MOL0     H 3069   6.840   6.499   7.012 -2.5749 -1.1340 -0.0597
  781MOL0     H 3070   6.835   6.199   6.938 -0.0965 -0.5428 -1.8140
  781MOL0     H 3071   6.711   6.322   6.897 -0.9369  1.2252  3.2443
  781MOL0     H 3072   6.895   6.245   6.714  0.6181 -0.8141 -0.3099
  781MOL0     H 3073   6.998   6.367   6.790  0.1338 -1.7876 -1.1721
  781MOL0     H 3074   6.924   6.539   7.692 -0.2815  0.2339  0.6767
  781MOL0     H 3075   7.094   6.698   7.805 -0.9288 -3.5895  2.9891
  781MOL0     H 3076   7.521   6.810   7.886  1.1854  2.3311  4.8146
  781MOL0     H 3077   7.694   6.948   7.956  3.2006 -1.3426 -1.2980
  781MOL0     H 3078   9.713   6.552   8.135 -2.2786  0.5752 -1.4486
  781MOL0     H 3079   9.942   6.611   8.133 -1.6126 -0.8892  2.0625
  781MOL0     H 3080  10.159   7.047   8.303 -0.4456 -0.1794 -0.8262
  781MOL0     H 3081  10.348   7.125   8.434 -1.6363  1.7179 -1.4896
  781MOL0     H 3082  10.750   6.910   8.384  2.2609 -0.1150  0.3836
  781MOL0     H 3083  10.804   7.053   8.458 -0.7588  2.7517 -2.0294
  781MOL0     H 3084  10.703   7.058   8.161  1.8257  2.3120 -1.9367
  781MOL0     H 3085  10.770   7.186   8.257  1.4882 -0.6344  1.6380
  781MOL0     H 3086  10.973   7.038   8.293 -2.0362 -1.1639  1.7607
  781MOL0     H 3087  10.938   7.115   8.134 -1.4893  1.6247  1.2416
  781MOL0     H 3088  10.870   6.828   8.204 -3.1664  0.5547 -0.8629
  781MOL0     H 3089  10.845   6.897   8.053 -0.1677  3.6473 -1.1595
  781MOL0     H 3090  11.263   6.885   8.000  0.2490 -1.7390  1.0362
  781MOL0     H 3091  10.610   6.851   8.235 -0.3143  0.0732 -1.6449
  781MOL0     H 3092  10.421   6.752   8.126  0.7316  0.2316 -0.4957
  782MOL0     O 3093   3.058   7.464   0.139  0.0240  0.7966  0.2143
  782MOL0     C 3094   3.064   7.421   0.028 -0.1735  0.0791  0.2483
  782MOL0     O 3095   2.962   7.401  -0.061  0.2742 -0.3042 -0.1284
  782MOL0     C 3096   2.835   7.420  -0.037 -0.1302  0.1402  0.2470
  782MOL0     C 3097   2.770   7.372   0.081 -0.1673  0.1464 -0.0424
  782MOL0     C 3098   2.628   7.356   0.077  0.5127 -0.3698  0.1768
  782MOL0     C 3099   2.546   7.381  -0.039 -0.8644 -0.0017  0.1206
  782MOL0     O 3100   2.417   7.371  -0.019  0.4722  0.0862  0.1833
  782MOL0     C 3101   2.348   7.299  -0.120 -0.3424  0.6867 -0.1714
  782MOL0     C 3102   2.199   7.289  -0.093 -0.0134  0.2232  0.1890
  782MOL0     C 3103   2.109   7.219  -0.194  1.0257 -0.5487 -0.2983
  782MOL0     C 3104   2.074   7.309  -0.313  0.6629  0.1834  0.4052
  782MOL0     C 3105   1.995   7.238  -0.420  0.9220 -0.5132  0.2924
  782MOL0     C 3106   1.964   7.342  -0.529  0.3274  0.2812  0.0424
  782MOL0     C 3107   1.933   7.276  -0.668 -0.6083  0.4349 -0.0112
  782MOL0     C 3108   1.861   7.369  -0.775 -0.6592 -0.5268  0.6218
  782MOL0     N 3109   1.717   7.378  -0.760 -0.9723 -0.1750 -0.3889
  782MOL0     C 3110   1.626   7.276  -0.754  0.1522  0.6934  1.3863
  782MOL0     C 3111   1.505   7.339  -0.741  1.0853  0.2805 -0.5650
  782MOL0     C 3112   1.366   7.286  -0.748 -0.2167 -0.2163  0.6726
  782MOL0     C 3113   1.311   7.219  -0.630  0.0940  0.4569 -0.7672
  782MOL0     C 3114   1.299   7.311  -0.509  0.4267  0.3820  0.0761
  782MOL0     C 3115   1.202   7.435  -0.516  1.0623 -0.0774  0.6029
  782MOL0     O 3116   1.070   7.381  -0.540 -1.8720  0.1198 -0.0136
  782MOL0     C 3117   0.959   7.459  -0.554 -0.3578 -0.0067  0.2285
  782MOL0     C 3118   0.948   7.594  -0.588  0.2693  0.3984 -0.1781
  782MOL0     C 3119   0.827   7.661  -0.582 -0.0113  0.7041 -0.2631
  782MOL0     C 3120   0.704   7.594  -0.546 -0.0169  0.3048  0.1592
  782MOL0     C 3121   0.571   7.660  -0.565 -0.1695 -0.0975 -0.8113
  782MOL0     O 3122   0.466   7.579  -0.533 -0.4808 -0.7494 -0.3266
  782MOL0     C 3123   0.352   7.591  -0.604 -0.1688 -0.5466 -0.3910
  782MOL0     C 3124   0.255   7.688  -0.577 -0.4532  0.1126  0.6457
  782MOL0     C 3125   0.127   7.682  -0.638  0.5935  0.5168 -0.1132
  782MOL0     C 3126   0.090   7.574  -0.719 -0.2257 -0.7932 -0.0294
  782MOL0     O 3127  -0.036   7.551  -0.767 -0.3399  0.3953  0.1343
  782MOL0     C 3128  -0.109   7.454  -0.694  0.5459 -0.1473 -0.2308
  782MOL0     C 3129  -0.228   7.517  -0.619 -0.3095 -0.2442  0.3262
  782MOL0     C 3130  -0.323   7.547  -0.730  0.5720 -0.0841  0.1860
  782MOL0     C 3131  -0.459   7.592  -0.677 -0.2899  0.3937  0.2564
  782MOL0     C 3132  -0.571   7.515  -0.742 -0.4734 -0.4501 -0.1131
  782MOL0     C 3133  -0.698   7.572  -0.672 -0.6806 -0.6760 -0.6060
  782MOL0     C 3134  -0.821   7.504  -0.723 -0.4220 -0.0849 -0.2427
  782MOL0     C 3135  -0.959   7.575  -0.693 -1.0646  0.9284 -0.8647
  782MOL0    Cl 3136  -1.001   7.532  -0.525  0.3626 -0.0025 -0.5728
  782MOL0     C 3137   0.185   7.478  -0.747 -0.0729 -0.1855 -0.6962
  782MOL0     C 3138   0.311   7.484  -0.685 -0.2374  0.4875 -0.4190
  782MOL0     O 3139   0.564   7.770  -0.613  0.2928 -0.7652  0.3821
  782MOL0     C 3140   0.720   7.452  -0.520 -0.3733  0.7290 -0.1168
  782MOL0     C 3141   0.844   7.390  -0.514  0.1435 -0.3765  0.1946
  782MOL0     N 3142   1.520   7.468  -0.735 -0.2200 -0.2137 -0.0738
  782MOL0     N 3143   1.650   7.500  -0.750 -0.2568  0.0364 -0.3342
  782MOL0     C 3144   2.610   7.429  -0.154  0.3385 -0.5606  1.7055
  782MOL0     C 3145   2.754   7.444  -0.154  0.5372 -0.1722  0.2712
  782MOL0     C 3146   3.197   7.370  -0.021  0.3445 -0.1701  0.0497
  782MOL0     C 3147   3.218   7.304  -0.147  0.1195  0.0862 -0.1242
  782MOL0     C 3148   3.334   7.248  -0.188  0.2222 -0.2645 -0.8860
  782MOL0     C 3149   3.438   7.248  -0.098 -0.6914 -0.4135 -0.3027
  782MOL0     O 3150   3.563   7.215  -0.132 -0.4013  0.1773  0.2590
  782MOL0     C 3151   3.572   7.073  -0.174  0.2454 -0.8156  0.8596
  782MOL0     C 3152   3.636   6.983  -0.065  0.3640 -0.0307  0.7093
  782MOL0     C 3153   3.720   6.875  -0.125  0.2774  0.4091  0.0876
  782MOL0     C 3154   3.797   6.801  -0.020  0.3585 -0.7441 -0.4589
  782MOL0     C 3155   3.890   6.708  -0.081 -0.2959 -0.2744  0.5784
  782MOL0     C 3156   3.943   6.616  -0.145 -0.8337 -0.9302 -0.3797
  782MOL0     C 3157   3.427   7.302   0.035 -0.5459  1.4930  0.5273
  782MOL0     C 3158   3.306   7.368   0.071 -0.2084  0.0779 -0.4878
  782MOL0     H 3159   2.829   7.343   0.168 -4.1980  1.9757  3.7096
  782MOL0     H 3160   2.572   7.311   0.159 -0.4221  0.5905  0.0830
  782MOL0     H 3161   2.389   7.199  -0.134  0.7367  1.1729 -0.5951
  782MOL0     H 3162   2.362   7.344  -0.219  0.4008 -3.4370 -2.1452
  782MOL0     H 3163   2.154   7.384  -0.065 -0.9383 -0.2086  0.1935
  782MOL0     H 3164   2.201   7.234   0.002  1.1479 -0.2187 -0.0715
  782MOL0     H 3165   2.009   7.209  -0.151  0.5237 -0.8698 -1.5013
  782MOL0     H 3166   2.154   7.125  -0.225  0.5831 -0.3695 -1.5659
  782MOL0     H 3167   2.010   7.392  -0.281  1.3916  0.6091  0.7924
  782MOL0     H 3168   2.159   7.367  -0.352 -0.5083  4.1731  3.0906
  782MOL0     H 3169   1.900   7.190  -0.392  1.8684 -3.9041 -1.7324
  782MOL0     H 3170   2.061   7.160  -0.460 -2.4483 -2.1615 -2.6452
  782MOL0     H 3171   2.047   7.413  -0.531  0.5989 -0.0403 -0.6902
  782MOL0     H 3172   1.883   7.412  -0.508 -0.3423  0.0754 -1.6612
  782MOL0     H 3173   2.025   7.234  -0.711 -1.3639 -0.3240 -0.9249
  782MOL0     H 3174   1.872   7.190  -0.643  1.2915 -0.9384  0.1101
  782MOL0     H 3175   1.881   7.335  -0.877 -0.6592 -1.8107  1.0339
  782MOL0     H 3176   1.905   7.467  -0.756  1.3441 -1.1823 -0.3301
  782MOL0     H 3177   1.637   7.168  -0.762  1.6660  0.9199 -0.1580
  782MOL0     H 3178   1.348   7.216  -0.831 -3.5621  0.0669  0.9959
  782MOL0     H 3179   1.296   7.368  -0.767 -0.7406 -1.0604 -1.2560
  782MOL0     H 3180   1.372   7.129  -0.615 -2.8487 -2.0348 -2.6174
  782MOL0     H 3181   1.212   7.181  -0.654 -0.0711  1.1553 -1.1887
  782MOL0     H 3182   1.264   7.231  -0.443 -1.9315 -0.0612 -1.5700
  782MOL0     H 3183   1.394   7.351  -0.474  0.7867 -0.1357 -0.3112
  782MOL0     H 3184   1.226   7.504  -0.597  1.7065 -0.4905  0.4383
  782MOL0     H 3185   1.205   7.490  -0.421 -2.1293  0.7651  0.3569
  782MOL0     H 3186   1.035   7.645  -0.628 -0.4509 -0.7942 -3.6282
  782MOL0     H 3187   0.832   7.767  -0.605  0.6650  0.3047 -2.1838
  782MOL0     H 3188   0.266   7.770  -0.507 -1.5892  2.4806 -1.7573
  782MOL0     H 3189   0.043   7.744  -0.610 -0.4086 -1.3643  1.3436
  782MOL0     H 3190  -0.051   7.406  -0.614  1.9433 -1.2156 -1.7993
  782MOL0     H 3191  -0.135   7.368  -0.756 -0.1319  0.8442 -1.3654
  782MOL0     H 3192  -0.195   7.600  -0.555 -1.5737 -1.2360  2.3730
  782MOL0     H 3193  -0.274   7.442  -0.555 -2.7024  0.0991 -0.9057
  782MOL0     H 3194  -0.343   7.462  -0.797  0.9504  0.2094 -0.3079
  782MOL0     H 3195  -0.281   7.629  -0.789 -1.2231  1.2235  0.6588
  782MOL0     H 3196  -0.467   7.570  -0.570  0.4655  2.6649  0.8434
  782MOL0     H 3197  -0.465   7.699  -0.701  2.6667  0.6267  0.1531
  782MOL0     H 3198  -0.566   7.408  -0.718 -0.3074 -0.0863  1.5478
  782MOL0     H 3199  -0.581   7.537  -0.849  0.0348  4.0965  0.5877
  782MOL0     H 3200  -0.713   7.678  -0.694 -0.2301 -0.3822  0.4597
  782MOL0     H 3201  -0.689   7.562  -0.563 -1.0153  3.8414  0.0371
  782MOL0     H 3202  -0.809   7.493  -0.831  0.8432  1.5476 -0.3005
  782MOL0     H 3203  -0.828   7.403  -0.681  1.8575 -0.9236 -1.6799
  782MOL0     H 3204  -1.030   7.534  -0.766 -0.5706 -0.4623 -0.6072
  782MOL0     H 3205  -0.959   7.682  -0.715  2.2974  0.7918 -2.1519
  782MOL0     H 3206   0.161   7.390  -0.807  1.9420 -0.6152 -0.9393
  782MOL0     H 3207   0.377   7.397  -0.693  1.5628  1.8840 -1.6334
  782MOL0     H 3208   0.631   7.395  -0.495  1.4135 -2.1175  0.2635
  782MOL0     H 3209   0.848   7.291  -0.472  1.4649 -0.3566  0.1568
  782MOL0     H 3210   2.557   7.457  -0.245  1.1168  1.1163  1.7359
  782MOL0     H 3211   2.799   7.494  -0.239 -2.0589  1.5522 -0.2118
  782MOL0     H 3212   3.141   7.294  -0.223  0.6631 -0.6968 -0.5999
  782MOL0     H 3213   3.339   7.200  -0.285  3.1869 -4.2646  0.9552
  782MOL0     H 3214   3.627   7.069  -0.269  2.9574  0.0497  2.2899
  782MOL0     H 3215   3.471   7.037  -0.192 -0.1944  0.0578  1.4769
  782MOL0     H 3216   3.703   7.043  -0.002  0.8159 -1.0763  1.2518
  782MOL0     H 3217   3.559   6.935  -0.005 -0.7970 -0.5180 -1.1052
  782MOL0     H 3218   3.784   6.923  -0.201  2.6382  1.3307  2.4810
  782MOL0     H 3219   3.655   6.804  -0.175 -0.2066  0.9096 -0.0033
  782MOL0     H 3220   3.856   6.869   0.042 -1.0783 -0.3827  0.5500
  782MOL0     H 3221   3.733   6.746   0.049 -0.0781 -2.3160 -2.0333
  782MOL0     H 3222   3.977   6.527  -0.195 -1.7698 -0.4480 -1.9292
  782MOL0     H 3223   3.510   7.293   0.104 -0.5361 -0.3867  0.3299
  782MOL0     H 3224   3.303   7.425   0.163  0.3130  0.4280 -0.6836
  783MOL0     O 3225   3.684   4.894   3.205 -0.6075 -0.2145  0.4441
  783MOL0     C 3226   3.696   4.782   3.159 -1.5469 -0.2495 -0.2524
  783MOL0     O 3227   3.589   4.707   3.128 -0.5796  0.0484  0.3606
  783MOL0     C 3228   3.466   4.763   3.119  0.3559 -0.4591  0.4754
  783MOL0     C 3229   3.434   4.894   3.065 -0.4465  0.8187 -0.0030
  783MOL0     C 3230   3.310   4.940   3.046 -0.0515  0.8574  0.0332
  783MOL0     C 3231   3.199   4.862   3.075 -1.0582  0.0231  0.8677
  783MOL0     O 3232   3.075   4.906   3.058  0.4032 -0.1562 -0.3312
  783MOL0     C 3233   3.036   5.035   3.108 -0.1991 -0.4130 -0.6801
  783MOL0     C 3234   2.888   5.065   3.094  0.2616 -0.8604 -0.2060
  783MOL0     C 3235   2.788   4.994   3.176 -0.2894 -0.3547 -0.6380
  783MOL0     C 3236   2.642   5.005   3.126  0.2146  0.6098  0.5744
  783MOL0     C 3237   2.551   4.970   3.246 -0.1094  0.2588  0.0598
  783MOL0     C 3238   2.400   4.961   3.211  0.8599  0.7641  0.1904
  783MOL0     C 3239   2.316   5.009   3.332  1.0313  1.1472 -0.2451
  783MOL0     C 3240   2.170   4.992   3.306 -0.0399  0.1679 -0.0465
  783MOL0     N 3241   2.106   5.061   3.423  0.2405  0.1568 -0.2726
  783MOL0     C 3242   2.103   5.013   3.553  0.6839 -0.9563 -0.9967
  783MOL0     C 3243   2.038   5.112   3.612 -0.9271 -0.7588 -0.7753
  783MOL0     C 3244   2.011   5.115   3.766  0.1783 -0.1930  1.2159
  783MOL0     C 3245   1.852   5.107   3.808 -1.0362  0.2473  0.4583
  783MOL0     C 3246   1.797   4.962   3.797 -0.0561 -0.6529  0.3287
  783MOL0     C 3247   1.670   4.946   3.870 -1.0498  0.5945  0.5731
  783MOL0     O 3248   1.557   5.004   3.795 -0.1886 -0.5999 -0.9215
  783MOL0     C 3249   1.425   4.965   3.814  0.8134 -0.2236 -0.6254
  783MOL0     C 3250   1.331   4.983   3.708 -0.8537 -0.5989 -0.3585
  783MOL0     C 3251   1.196   4.959   3.717 -0.0957  0.4363 -1.0041
  783MOL0     C 3252   1.147   4.899   3.836  0.2657 -0.1154 -0.3543
  783MOL0     C 3253   1.002   4.875   3.848 -0.2112  0.6462  0.3003
  783MOL0     O 3254   0.925   4.891   3.732  0.6993  0.5819 -0.1431
  783MOL0     C 3255   0.789   4.869   3.748 -0.8143 -0.0610  0.4241
  783MOL0     C 3256   0.726   4.786   3.660 -0.3975 -0.2513 -0.4277
  783MOL0     C 3257   0.590   4.764   3.659 -0.0700  0.7696  0.5386
  783MOL0     C 3258   0.501   4.838   3.741  0.8342  0.4585  0.4275
  783MOL0     O 3259   0.368   4.818   3.741 -0.1210  0.3018 -0.2989
  783MOL0     C 3260   0.324   4.695   3.680  0.0197  0.4978 -0.3038
  783MOL0     C 3261   0.301   4.710   3.526  1.5138  0.3130 -0.4629
  783MOL0     C 3262   0.168   4.789   3.493 -0.7021  0.0671 -0.2130
  783MOL0     C 3263   0.091   4.720   3.388 -0.7278  0.2284 -0.7986
  783MOL0     C 3264  -0.050   4.786   3.369  0.9300 -0.6192  0.1181
  783MOL0     C 3265  -0.114   4.708   3.249  0.5127 -0.4444  0.1278
  783MOL0     C 3266  -0.244   4.756   3.217  1.1694  0.1337  0.8362
  783MOL0     C 3267  -0.293   4.688   3.088 -0.0794 -0.5744 -0.5829
  783MOL0    Cl 3268  -0.463   4.718   3.059 -0.1294 -0.1085  0.3711
  783MOL0     C 3269   0.564   4.920   3.838 -0.1993  0.4143  1.0070
  783MOL0     C 3270   0.702   4.936   3.837  0.1793  0.6426  0.9111
  783MOL0     O 3271   0.961   4.834   3.958 -0.8727 -0.7620  0.2182
  783MOL0     C 3272   1.242   4.864   3.937  0.1814 -0.4633 -0.1936
  783MOL0     C 3273   1.375   4.894   3.926  0.2257 -0.4091  1.0547
  783MOL0     N 3274   2.009   5.216   3.531  1.0735  1.1032 -0.3317
  783MOL0     N 3275   2.058   5.187   3.416 -0.2308 -0.3459 -0.1468
  783MOL0     C 3276   3.227   4.728   3.123 -0.7625 -0.5760  0.3385
  783MOL0     C 3277   3.357   4.681   3.140  0.0344 -0.6131 -0.3929
  783MOL0     C 3278   3.830   4.727   3.131 -0.9967 -0.9709 -0.3857
  783MOL0     C 3279   3.938   4.788   3.180 -0.3775  0.4920  0.6591
  783MOL0     C 3280   4.071   4.752   3.156 -0.3858  0.0065  0.7093
  783MOL0     C 3281   4.093   4.651   3.063 -0.9366 -0.9975 -0.7361
  783MOL0     O 3282   4.227   4.626   3.034 -0.1921 -0.0982  0.2102
  783MOL0     C 3283   4.257   4.559   2.911  0.6482 -0.3711 -1.1945
  783MOL0     C 3284   4.405   4.561   2.905  0.2131  0.2931  0.3920
  783MOL0     C 3285   4.459   4.699   2.877  0.4446 -0.5068  0.9516
  783MOL0     C 3286   4.414   4.748   2.741 -1.3752 -0.6484  0.7065
  783MOL0     C 3287   4.513   4.698   2.650  0.1346  0.3689 -0.2633
  783MOL0     C 3288   4.581   4.656   2.559  0.0668  0.1374 -0.3389
  783MOL0     C 3289   3.986   4.593   3.001  0.4003  0.0248 -0.9001
  783MOL0     C 3290   3.856   4.621   3.040 -0.6973  0.4377 -0.6094
  783MOL0     H 3291   3.513   4.960   3.029  1.5210  0.1371  2.7449
  783MOL0     H 3292   3.303   5.039   3.003  1.9773  0.7355 -0.6953
  783MOL0     H 3293   3.090   5.115   3.056  0.9425 -0.6257  0.1359
  783MOL0     H 3294   3.064   5.058   3.212  0.2889  1.5200 -1.1877
  783MOL0     H 3295   2.870   5.061   2.986 -0.3915 -2.4216 -0.0679
  783MOL0     H 3296   2.874   5.171   3.120 -1.7755 -0.7771 -1.3893
  783MOL0     H 3297   2.791   5.024   3.281  0.7209  1.2389 -1.0846
  783MOL0     H 3298   2.813   4.888   3.164 -1.6869 -0.9095  0.9652
  783MOL0     H 3299   2.624   5.108   3.095  1.8819  1.6048  2.6522
  783MOL0     H 3300   2.621   4.934   3.046  0.9801  0.1013  0.8120
  783MOL0     H 3301   2.565   5.043   3.326 -3.4552 -0.8182  1.8244
  783MOL0     H 3302   2.601   4.880   3.285  0.4984 -0.2330 -1.7591
  783MOL0     H 3303   2.366   4.863   3.176 -2.0159  1.5473  0.5556
  783MOL0     H 3304   2.389   5.028   3.126  0.3455  1.8096  1.0594
  783MOL0     H 3305   2.337   4.949   3.421 -0.2531 -0.0320 -0.6922
  783MOL0     H 3306   2.345   5.112   3.352  1.6914  0.8947  0.1456
  783MOL0     H 3307   2.151   4.884   3.303  0.2310  0.1024  0.5202
  783MOL0     H 3308   2.151   5.031   3.205 -1.4359 -1.2765 -0.3795
  783MOL0     H 3309   2.152   4.932   3.606 -1.7393 -1.5532  0.4621
  783MOL0     H 3310   2.041   5.216   3.794  0.6502 -0.9955  3.8868
  783MOL0     H 3311   2.071   5.035   3.811 -0.2094 -2.2953 -1.6903
  783MOL0     H 3312   1.784   5.163   3.743 -3.4437 -2.4123  0.4958
  783MOL0     H 3313   1.836   5.141   3.911  0.8394 -1.8302  1.5136
  783MOL0     H 3314   1.783   4.936   3.691 -2.8383  3.1531 -0.4568
  783MOL0     H 3315   1.860   4.887   3.845 -0.7004 -1.0688  0.5383
  783MOL0     H 3316   1.679   4.990   3.970 -0.1108  2.8998 -0.4541
  783MOL0     H 3317   1.668   4.838   3.883  1.5429  0.4187  0.1175
  783MOL0     H 3318   1.374   5.014   3.614 -1.4274  2.2448  0.2451
  783MOL0     H 3319   1.141   4.988   3.628  0.2477 -0.7940 -1.6481
  783MOL0     H 3320   0.789   4.718   3.604 -0.5493 -1.9893  1.3965
  783MOL0     H 3321   0.547   4.710   3.575 -1.7434  2.9280 -0.0980
  783MOL0     H 3322   0.233   4.657   3.728 -0.8352 -1.2429 -3.0719
  783MOL0     H 3323   0.389   4.611   3.704 -2.6345 -1.1699  1.6219
  783MOL0     H 3324   0.295   4.610   3.482  0.2625 -1.1809  2.8116
  783MOL0     H 3325   0.384   4.766   3.480  0.9847  3.1859  1.7676
  783MOL0     H 3326   0.196   4.889   3.461 -3.5392  1.3684  1.0618
  783MOL0     H 3327   0.107   4.798   3.584 -0.0165 -0.5957  0.3240
  783MOL0     H 3328   0.147   4.723   3.294 -2.3382  3.1371 -1.7776
  783MOL0     H 3329   0.072   4.615   3.411 -1.5599  0.4244 -0.5482
  783MOL0     H 3330  -0.059   4.893   3.350 -2.6527 -0.8015  0.0660
  783MOL0     H 3331  -0.098   4.759   3.463  2.9999  0.1442  1.4575
  783MOL0     H 3332  -0.116   4.600   3.262  4.5541 -0.5643  1.0278
  783MOL0     H 3333  -0.058   4.716   3.156 -0.4495 -1.9246 -0.6152
  783MOL0     H 3334  -0.302   4.724   3.304  1.0377 -0.1038  0.6634
  783MOL0     H 3335  -0.234   4.865   3.215  1.1695  0.2905  4.1627
  783MOL0     H 3336  -0.275   4.580   3.084  0.4693 -0.5010 -0.1460
  783MOL0     H 3337  -0.245   4.742   3.006 -0.7457  1.6088  0.4041
  783MOL0     H 3338   0.504   4.963   3.918  1.8299  1.0293  2.2544
  783MOL0     H 3339   0.761   5.009   3.893 -0.6135  3.8312 -2.0811
  783MOL0     H 3340   1.205   4.812   4.025 -0.9056 -2.1304 -1.5633
  783MOL0     H 3341   1.451   4.874   4.000 -0.0876 -2.8310  0.8152
  783MOL0     H 3342   3.141   4.671   3.156 -0.0163 -1.5310  0.6746
  783MOL0     H 3343   3.376   4.578   3.171  1.2195  0.0737  1.3137
  783MOL0     H 3344   3.917   4.868   3.250 -0.9613 -0.0367  1.1077
  783MOL0     H 3345   4.146   4.810   3.209  0.0495  0.9449 -0.8937
  783MOL0     H 3346   4.207   4.600   2.822  1.8370  0.8767 -1.3232
  783MOL0     H 3347   4.236   4.452   2.921  1.4614 -0.2947  3.9958
  783MOL0     H 3348   4.442   4.520   2.999  4.4863 -1.3105 -1.7181
  783MOL0     H 3349   4.438   4.493   2.825  0.9816  0.5618  0.4687
  783MOL0     H 3350   4.568   4.708   2.885  0.3455  1.4174  0.6586
  783MOL0     H 3351   4.420   4.769   2.952  1.4022  0.9311  0.1593
  783MOL0     H 3352   4.317   4.710   2.706  0.2830 -3.4825 -1.2443
  783MOL0     H 3353   4.412   4.857   2.737 -1.2680 -0.6833 -1.9965
  783MOL0     H 3354   4.643   4.608   2.486  1.7012  2.9159 -0.9179
  783MOL0     H 3355   3.997   4.506   2.937  0.2249  0.1810 -1.1444
  783MOL0     H 3356   3.766   4.575   2.998 -1.4885 -0.5693  1.9631
  784MOL0     O 3357   7.183   6.500   4.605  0.0729  0.2712  0.2376
  784MOL0     C 3358   7.225   6.600   4.550  0.0639  0.5921 -0.5442
  784MOL0     O 3359   7.164   6.666   4.452  0.1331  0.5882 -0.0076
  784MOL0     C 3360   7.056   6.608   4.404 -1.2029 -1.0006 -0.8603
  784MOL0     C 3361   6.926   6.642   4.451 -0.2593 -0.2820  0.2508
  784MOL0     C 3362   6.809   6.604   4.383 -0.9253  0.3594  0.2479
  784MOL0     C 3363   6.824   6.526   4.267 -0.2612 -0.2065 -0.1882
  784MOL0     O 3364   6.711   6.485   4.196 -0.0134  0.2554  0.1348
  784MOL0     C 3365   6.634   6.590   4.130  0.8889 -0.0998 -0.7120
  784MOL0     C 3366   6.527   6.528   4.039  0.1511  0.7640 -0.8538
  784MOL0     C 3367   6.423   6.439   4.119 -0.1122 -0.0512 -0.4903
  784MOL0     C 3368   6.337   6.516   4.220  0.3204 -0.7231 -0.6634
  784MOL0     C 3369   6.203   6.446   4.265 -0.1472  0.0611 -0.1365
  784MOL0     C 3370   6.092   6.486   4.164 -0.0321  0.2595 -0.0534
  784MOL0     C 3371   5.964   6.414   4.208 -0.6484 -0.1032  0.4916
  784MOL0     C 3372   5.841   6.443   4.119  0.0930  0.3889  0.2963
  784MOL0     N 3373   5.863   6.398   3.981 -0.4328 -0.4405  0.7690
  784MOL0     C 3374   5.886   6.269   3.933  1.0696 -0.1015  0.7021
  784MOL0     C 3375   5.911   6.282   3.805  0.3337 -0.1028  0.3526
  784MOL0     C 3376   5.945   6.168   3.714  0.1482 -0.8806 -0.1376
  784MOL0     C 3377   5.816   6.117   3.643  0.7953  0.7023 -0.8206
  784MOL0     C 3378   5.827   5.976   3.585  0.0341 -0.4656  0.3799
  784MOL0     C 3379   5.712   5.953   3.484 -0.8246  0.5849  0.3824
  784MOL0     O 3380   5.595   5.990   3.549  0.6521 -0.4508  0.7366
  784MOL0     C 3381   5.483   5.998   3.468  0.5121 -0.0885  0.8872
  784MOL0     C 3382   5.480   5.986   3.333  0.2913  0.2598  1.5203
  784MOL0     C 3383   5.357   6.011   3.267  0.0868  0.6288  0.8112
  784MOL0     C 3384   5.236   6.036   3.332  0.0728 -0.1184  0.7921
  784MOL0     C 3385   5.110   6.061   3.254 -0.0518  0.3038 -0.1529
  784MOL0     O 3386   4.994   6.063   3.322 -0.2068 -0.2848 -0.5743
  784MOL0     C 3387   4.877   6.067   3.255  0.0956  0.4922 -0.3194
  784MOL0     C 3388   4.835   5.972   3.160 -0.2814  0.2468 -0.1212
  784MOL0     C 3389   4.712   5.987   3.093  0.3330 -0.6792 -0.2548
  784MOL0     C 3390   4.629   6.091   3.119 -0.6468  0.4362 -0.1000
  784MOL0     O 3391   4.518   6.101   3.040  0.2924  0.6394  0.4509
  784MOL0     C 3392   4.416   6.207   3.044 -0.8913 -0.7574 -0.2959
  784MOL0     C 3393   4.301   6.171   2.956  1.0934 -0.1309 -0.3074
  784MOL0     C 3394   4.337   6.165   2.802  0.0777  0.5523 -0.8189
  784MOL0     C 3395   4.217   6.158   2.704  0.5348  0.3375 -0.4477
  784MOL0     C 3396   4.124   6.283   2.728  0.8821  0.4013 -0.0710
  784MOL0     C 3397   4.014   6.290   2.618  0.6034 -0.3275 -0.5448
  784MOL0     C 3398   3.938   6.419   2.613  0.4633 -0.9129  0.7467
  784MOL0     C 3399   3.793   6.413   2.563  0.2764 -0.3981  0.2599
  784MOL0    Cl 3400   3.695   6.321   2.676  0.1590  0.1400  0.1473
  784MOL0     C 3401   4.661   6.189   3.227 -0.8752 -0.0350 -0.0884
  784MOL0     C 3402   4.784   6.169   3.286 -0.5999 -1.0167 -0.6392
  784MOL0     O 3403   5.123   6.064   3.133  0.1832  0.9117  0.3137
  784MOL0     C 3404   5.249   6.041   3.473  0.7308  0.5529  0.5726
  784MOL0     C 3405   5.369   6.013   3.546 -0.0700 -0.3136  0.8486
  784MOL0     N 3406   5.918   6.415   3.770  0.0534 -0.0099 -0.1949
  784MOL0     N 3407   5.879   6.485   3.874  1.2455 -0.2291  0.0963
  784MOL0     C 3408   6.957   6.486   4.226 -0.0406  0.7783  0.0162
  784MOL0     C 3409   7.072   6.538   4.291  0.3081 -0.0109 -0.0881
  784MOL0     C 3410   7.357   6.653   4.578  0.3904 -0.2799  0.1192
  784MOL0     C 3411   7.460   6.570   4.629 -0.5688 -0.4757  0.5050
  784MOL0     C 3412   7.594   6.617   4.654 -0.4533 -0.0022  1.2031
  784MOL0     C 3413   7.624   6.758   4.626 -0.0206 -0.2619  0.4298
  784MOL0     O 3414   7.753   6.793   4.644 -0.6501  0.4221 -0.4099
  784MOL0     C 3415   7.800   6.922   4.623 -0.7555 -0.0243 -0.2562
  784MOL0     C 3416   7.810   7.012   4.750 -0.0955 -0.1984  0.1212
  784MOL0     C 3417   7.897   6.959   4.851  0.4081 -0.4944  0.8719
  784MOL0     C 3418   8.042   6.928   4.815  0.0882  0.0006  1.0515
  784MOL0     C 3419   8.126   6.943   4.931  0.0294  0.6313  0.3021
  784MOL0     C 3420   8.193   6.925   5.034  1.3584  0.2424 -0.0029
  784MOL0     C 3421   7.514   6.841   4.583  0.0927  0.4646  0.8285
  784MOL0     C 3422   7.394   6.788   4.544  1.0663  0.8028  0.3477
  784MOL0     H 3423   6.927   6.707   4.537  1.5412  1.7891 -1.2341
  784MOL0     H 3424   6.711   6.628   4.426 -0.7665  1.6931 -0.0914
  784MOL0     H 3425   6.700   6.652   4.069  2.0800 -0.9756 -0.3475
  784MOL0     H 3426   6.594   6.652   4.211  2.3025 -0.3507  0.2297
  784MOL0     H 3427   6.569   6.466   3.959 -3.3222  0.0814 -2.3337
  784MOL0     H 3428   6.486   6.624   4.006  1.1763  2.8634  3.2400
  784MOL0     H 3429   6.489   6.368   4.170 -1.3758 -1.6238 -0.9767
  784MOL0     H 3430   6.357   6.385   4.051 -2.0601  0.6345  0.7550
  784MOL0     H 3431   6.389   6.540   4.313 -0.5633 -0.9466 -0.1025
  784MOL0     H 3432   6.310   6.613   4.177 -1.7890 -0.6790  0.6334
  784MOL0     H 3433   6.177   6.486   4.363  1.0973  2.6740 -0.7755
  784MOL0     H 3434   6.207   6.336   4.266 -2.9310 -0.1976 -2.7761
  784MOL0     H 3435   6.125   6.463   4.062 -0.2067  0.4219 -0.1490
  784MOL0     H 3436   6.070   6.593   4.172 -1.1171  0.0357  0.1292
  784MOL0     H 3437   5.989   6.308   4.213  0.1062  0.0410 -0.1490
  784MOL0     H 3438   5.939   6.442   4.311  2.3367 -0.8194  1.5123
  784MOL0     H 3439   5.811   6.548   4.126 -1.7290 -0.1949  2.4270
  784MOL0     H 3440   5.765   6.389   4.175  1.2047  0.6778  2.1568
  784MOL0     H 3441   5.881   6.177   3.991  0.8436 -2.0150 -2.1609
  784MOL0     H 3442   6.001   6.091   3.767 -2.8540 -2.6167  0.7283
  784MOL0     H 3443   6.019   6.207   3.644 -0.2784  2.1498  0.9303
  784MOL0     H 3444   5.782   6.195   3.574  0.1691  1.5535  0.4103
  784MOL0     H 3445   5.731   6.105   3.710 -0.0743  0.3896 -1.9447
  784MOL0     H 3446   5.921   5.949   3.535 -0.6671  1.0149 -1.8767
  784MOL0     H 3447   5.821   5.908   3.671 -0.8220  1.5527  1.9825
  784MOL0     H 3448   5.700   5.850   3.449 -0.9384  1.0043 -0.8854
  784MOL0     H 3449   5.730   6.008   3.391 -2.6588  0.0790 -0.3101
  784MOL0     H 3450   5.561   5.977   3.261  1.8865  3.5837  2.6805
  784MOL0     H 3451   5.353   6.013   3.158 -5.0884 -1.0498  0.7098
  784MOL0     H 3452   4.897   5.884   3.145 -0.1418  0.2572  0.3708
  784MOL0     H 3453   4.681   5.913   3.020 -0.1761 -2.2501  1.4662
  784MOL0     H 3454   4.457   6.305   3.017  0.2930 -0.1377  3.1922
  784MOL0     H 3455   4.392   6.204   3.150  0.7968 -3.3642  0.0973
  784MOL0     H 3456   4.228   6.251   2.969  0.0035 -0.7201 -2.3308
  784MOL0     H 3457   4.263   6.071   2.980  1.0108  0.1993  0.9834
  784MOL0     H 3458   4.397   6.076   2.781  0.9137  1.0204 -0.4772
  784MOL0     H 3459   4.402   6.251   2.784  0.3856  0.2330 -1.2303
  784MOL0     H 3460   4.243   6.154   2.598  0.0511  0.0090 -0.5575
  784MOL0     H 3461   4.160   6.069   2.732 -1.2571  1.5110 -0.1913
  784MOL0     H 3462   4.183   6.374   2.737  1.6810 -0.2668  2.4246
  784MOL0     H 3463   4.066   6.268   2.820 -0.8078  2.5097 -0.7042
  784MOL0     H 3464   3.950   6.202   2.630 -0.9903  0.2343 -3.8753
  784MOL0     H 3465   4.054   6.274   2.518  2.1122  1.0732 -0.2099
  784MOL0     H 3466   3.952   6.463   2.712  0.1376  1.5971 -0.2423
  784MOL0     H 3467   3.991   6.478   2.537 -1.0702  0.3113  0.5973
  784MOL0     H 3468   3.800   6.354   2.472  3.3033 -1.2372  0.9234
  784MOL0     H 3469   3.762   6.517   2.552 -1.1284 -0.7593  0.6343
  784MOL0     H 3470   4.598   6.271   3.259  0.6257  1.6826 -1.2591
  784MOL0     H 3471   4.820   6.237   3.362  0.7115 -0.6436 -1.5600
  784MOL0     H 3472   5.175   6.079   3.543  0.4683  0.0315  0.5817
  784MOL0     H 3473   5.384   6.005   3.653 -1.9977 -0.5549  1.1353
  784MOL0     H 3474   6.977   6.422   4.140 -1.4877 -0.2327  0.3910
  784MOL0     H 3475   7.174   6.526   4.258  0.2196 -0.7262 -0.1159
  784MOL0     H 3476   7.441   6.467   4.658  0.2696 -0.9532 -0.5529
  784MOL0     H 3477   7.681   6.556   4.676  0.4520  1.4866  1.9244
  784MOL0     H 3478   7.732   6.968   4.552 -1.5929  1.0866  1.2246
  784MOL0     H 3479   7.899   6.914   4.576  0.0099  0.7956  1.1393
  784MOL0     H 3480   7.843   7.109   4.714 -0.8680 -0.5238 -1.5382
  784MOL0     H 3481   7.711   7.027   4.794 -1.1317  1.6016 -2.5664
  784MOL0     H 3482   7.855   6.862   4.882 -0.6857 -0.0849  0.7066
  784MOL0     H 3483   7.905   7.032   4.932 -1.2553 -0.3451  0.9373
  784MOL0     H 3484   8.035   6.826   4.776 -0.3725  0.3815  0.0880
  784MOL0     H 3485   8.077   6.995   4.735 -0.2848  0.0060  0.8905
  784MOL0     H 3486   8.254   6.897   5.118  1.2233  2.3804  0.8767
  784MOL0     H 3487   7.524   6.945   4.552 -0.3221 -0.0240 -1.0293
  784MOL0     H 3488   7.321   6.851   4.495  0.3018 -0.8776 -0.7656
  785MOL0     O 3489   5.704   5.304   0.482  0.1532  0.4488  0.7137
  785MOL0     C 3490   5.735   5.199   0.543 -0.0321  0.2489  0.4138
  785MOL0     O 3491   5.658   5.087   0.552  0.1929  0.0178 -0.1619
  785MOL0     C 3492   5.524   5.078   0.536  0.7493 -1.0301  0.0770
  785MOL0     C 3493   5.472   4.959   0.488 -0.0865 -0.0110 -0.5063
  785MOL0     C 3494   5.333   4.937   0.467 -0.8655 -0.9556  0.9614
  785MOL0     C 3495   5.245   5.039   0.473 -0.6113  0.3471  0.6121
  785MOL0     O 3496   5.119   5.020   0.425  0.2220  0.1860  0.8342
  785MOL0     C 3497   5.010   5.086   0.482 -0.0260 -0.5545  0.1011
  785MOL0     C 3498   4.880   5.004   0.468  0.1623  0.6838 -0.8699
  785MOL0     C 3499   4.773   5.096   0.426  0.4272 -0.1132  0.1974
  785MOL0     C 3500   4.633   5.036   0.424 -0.3284 -0.4288 -0.9592
  785MOL0     C 3501   4.595   4.961   0.555  0.6081 -0.5854  1.2200
  785MOL0     C 3502   4.444   4.959   0.573  0.3892  0.5650  0.2808
  785MOL0     C 3503   4.382   4.861   0.679  0.2352 -0.5115 -0.0921
  785MOL0     C 3504   4.244   4.909   0.739 -0.0223  0.2123  0.1393
  785MOL0     N 3505   4.132   4.841   0.670  0.1139 -0.0114 -0.2637
  785MOL0     C 3506   4.098   4.832   0.540 -0.4359 -0.9428 -0.1473
  785MOL0     C 3507   3.994   4.745   0.539  0.8486 -0.0939 -0.2606
  785MOL0     C 3508   3.920   4.684   0.423 -0.0975 -0.7753 -0.0466
  785MOL0     C 3509   3.852   4.820   0.367 -0.8003  0.6600 -0.2828
  785MOL0     C 3510   3.752   4.790   0.252  0.3406  0.3121 -1.3489
  785MOL0     C 3511   3.695   4.910   0.175 -0.4040  0.6351 -0.1331
  785MOL0     O 3512   3.642   4.997   0.273  0.4923 -0.4060  0.5128
  785MOL0     C 3513   3.522   5.062   0.257  0.8745 -0.0421  0.9732
  785MOL0     C 3514   3.505   5.175   0.334  0.3035  0.0560 -0.4117
  785MOL0     C 3515   3.388   5.254   0.319 -1.1186 -0.3729 -0.1110
  785MOL0     C 3516   3.301   5.239   0.218  0.8364  0.5756  0.6743
  785MOL0     C 3517   3.193   5.332   0.183  0.4611  0.4548 -0.7367
  785MOL0     O 3518   3.135   5.323   0.066  0.5653 -0.1035 -0.0024
  785MOL0     C 3519   3.016   5.391   0.053 -1.0754  0.0699  0.4413
  785MOL0     C 3520   3.013   5.531   0.051  0.7679 -0.6916 -0.3852
  785MOL0     C 3521   2.897   5.601  -0.000 -0.1342 -0.2977 -0.2214
  785MOL0     C 3522   2.779   5.534  -0.036  0.0640 -0.3230 -0.4802
  785MOL0     O 3523   2.660   5.591  -0.074  0.2427  0.2030  0.0829
  785MOL0     C 3524   2.654   5.728  -0.124  0.3630 -0.5453 -0.5200
  785MOL0     C 3525   2.609   5.724  -0.265  0.2045  0.4481 -0.0470
  785MOL0     C 3526   2.557   5.856  -0.310  0.2092  0.6884 -0.3102
  785MOL0     C 3527   2.497   5.844  -0.452 -0.0619 -0.0367 -0.8230
  785MOL0     C 3528   2.406   5.959  -0.491  0.5855 -0.3613 -0.1148
  785MOL0     C 3529   2.466   6.096  -0.556  0.0123  0.1016  0.3658
  785MOL0     C 3530   2.363   6.189  -0.609 -0.1023  0.3996 -0.3211
  785MOL0     C 3531   2.396   6.331  -0.651  0.2770 -0.3093  0.4708
  785MOL0    Cl 3532   2.230   6.405  -0.709 -0.0616 -0.3651  0.0147
  785MOL0     C 3533   2.775   5.398  -0.014 -0.9579 -0.6767  0.4298
  785MOL0     C 3534   2.897   5.327   0.015  0.2599 -0.5547  0.3708
  785MOL0     O 3535   3.161   5.407   0.280  0.4034  0.3571  0.2179
  785MOL0     C 3536   3.320   5.120   0.143 -0.5048 -0.1538  0.3327
  785MOL0     C 3537   3.428   5.034   0.161 -0.6452 -0.2677 -0.1203
  785MOL0     N 3538   3.965   4.708   0.669  1.2481  0.1552  0.4409
  785MOL0     N 3539   4.046   4.777   0.750  0.8658 -0.4171  0.4141
  785MOL0     C 3540   5.289   5.165   0.528 -0.0125  0.3079 -0.0879
  785MOL0     C 3541   5.424   5.180   0.556  0.7631  0.2704 -1.4020
  785MOL0     C 3542   5.857   5.196   0.618 -0.4382  0.2286  0.6442
  785MOL0     C 3543   5.872   5.095   0.716  0.0663  0.3653  0.3064
  785MOL0     C 3544   5.977   5.106   0.808  0.0810  0.3215  0.0561
  785MOL0     C 3545   6.083   5.199   0.795  0.5425  0.1913  1.5665
  785MOL0     O 3546   6.188   5.204   0.880  0.2048 -0.3067  0.0156
  785MOL0     C 3547   6.285   5.308   0.864 -0.4045 -0.7043  0.9265
  785MOL0     C 3548   6.396   5.313   0.972 -0.7658 -0.1791 -0.4552
  785MOL0     C 3549   6.511   5.402   0.922  0.3481  0.5721  0.2691
  785MOL0     C 3550   6.642   5.362   0.999  0.2524 -0.6671  0.1632
  785MOL0     C 3551   6.748   5.458   0.965 -0.7970  0.0634  0.1961
  785MOL0     C 3552   6.842   5.524   0.958  0.2272 -0.7523 -0.2759
  785MOL0     C 3553   6.065   5.301   0.695 -0.3660  0.6444 -0.3292
  785MOL0     C 3554   5.955   5.290   0.609 -0.1155  0.0949  0.9400
  785MOL0     H 3555   5.542   4.877   0.482  0.6601  0.4417  1.3216
  785MOL0     H 3556   5.305   4.841   0.425  0.8298 -0.0973 -2.5662
  785MOL0     H 3557   5.003   5.174   0.417  1.6808 -1.2686 -1.1580
  785MOL0     H 3558   5.025   5.125   0.583  2.3653  2.2296 -1.1635
  785MOL0     H 3559   4.856   4.977   0.571 -2.5889  1.7681 -1.1593
  785MOL0     H 3560   4.890   4.911   0.411  0.6964 -0.9817  1.7827
  785MOL0     H 3561   4.798   5.129   0.325  4.6238 -1.3250  0.6351
  785MOL0     H 3562   4.766   5.181   0.494  2.8931 -0.8027  1.4285
  785MOL0     H 3563   4.560   5.112   0.394  2.1539  1.4786 -2.6686
  785MOL0     H 3564   4.619   4.955   0.352  1.1290 -4.2956  2.6834
  785MOL0     H 3565   4.643   5.011   0.640  3.7702  1.4103 -1.4435
  785MOL0     H 3566   4.627   4.860   0.528  0.6300  0.3230 -2.8963
  785MOL0     H 3567   4.388   4.935   0.482  0.4033 -3.0612  1.0816
  785MOL0     H 3568   4.410   5.059   0.600 -3.0471 -0.0043 -1.3629
  785MOL0     H 3569   4.368   4.763   0.632 -0.8392 -0.1605 -0.5467
  785MOL0     H 3570   4.454   4.854   0.760  1.3033  2.9416 -0.5755
  785MOL0     H 3571   4.235   5.018   0.731 -0.9307  0.1397  0.0826
  785MOL0     H 3572   4.252   4.884   0.846 -1.1171  0.2200  0.2366
  785MOL0     H 3573   4.122   4.888   0.450  1.3026 -1.7838 -0.2489
  785MOL0     H 3574   3.848   4.605   0.445 -0.9547 -0.5705 -1.8997
  785MOL0     H 3575   4.000   4.657   0.354  0.1715  1.2808 -0.6030
  785MOL0     H 3576   3.927   4.888   0.325 -0.4081 -0.0743 -0.8055
  785MOL0     H 3577   3.796   4.863   0.450 -1.1632  1.6321 -1.0054
  785MOL0     H 3578   3.809   4.726   0.184  2.5965  0.8411 -0.0509
  785MOL0     H 3579   3.667   4.733   0.289 -0.2964  2.4697  0.7691
  785MOL0     H 3580   3.628   4.865   0.102 -1.9909 -0.2356  1.8011
  785MOL0     H 3581   3.779   4.958   0.123  0.1405 -2.9857 -2.9694
  785MOL0     H 3582   3.581   5.210   0.402  1.6607 -1.0395 -1.3147
  785MOL0     H 3583   3.388   5.339   0.385  0.5826 -0.3533 -0.0778
  785MOL0     H 3584   3.099   5.582   0.094  1.4663 -3.5434  1.9915
  785MOL0     H 3585   2.899   5.710   0.000  0.9089 -0.3071  0.2415
  785MOL0     H 3586   2.750   5.777  -0.104  0.9081 -2.1093  0.9292
  785MOL0     H 3587   2.569   5.776  -0.075  1.3993 -0.5059  1.3509
  785MOL0     H 3588   2.533   5.647  -0.257  0.0127  0.4454 -1.6390
  785MOL0     H 3589   2.693   5.684  -0.323 -0.1935 -1.9833  0.9302
  785MOL0     H 3590   2.634   5.934  -0.318  0.7816  0.2251  0.5351
  785MOL0     H 3591   2.485   5.892  -0.236  1.5535 -0.4228  1.6087
  785MOL0     H 3592   2.588   5.847  -0.512 -1.0527  4.3971 -2.4482
  785MOL0     H 3593   2.463   5.741  -0.469  2.5237 -0.9291 -1.0724
  785MOL0     H 3594   2.345   5.988  -0.405  0.3505 -0.3788 -0.2746
  785MOL0     H 3595   2.331   5.923  -0.563 -0.8146 -0.8047  1.4867
  785MOL0     H 3596   2.526   6.069  -0.644 -1.6598 -0.3960 -0.6510
  785MOL0     H 3597   2.534   6.149  -0.488  4.1666 -2.3030 -1.4709
  785MOL0     H 3598   2.315   6.142  -0.696  0.4512 -0.8812  0.0498
  785MOL0     H 3599   2.278   6.196  -0.540 -1.5525 -1.2125 -1.8202
  785MOL0     H 3600   2.460   6.346  -0.739  2.0946 -2.1240  1.3981
  785MOL0     H 3601   2.452   6.379  -0.571  3.5173  0.6331 -2.1204
  785MOL0     H 3602   2.683   5.342  -0.025 -2.0515  1.2818 -1.0576
  785MOL0     H 3603   2.901   5.219   0.010 -0.7615 -0.6565  1.4422
  785MOL0     H 3604   3.259   5.097   0.057  1.6979 -3.6578 -0.4852
  785MOL0     H 3605   3.440   4.954   0.090  0.9446  0.2403 -0.4586
  785MOL0     H 3606   5.226   5.249   0.553 -0.2335 -0.3624  1.7159
  785MOL0     H 3607   5.452   5.279   0.592  1.1869 -0.9551  1.9756
  785MOL0     H 3608   5.794   5.025   0.745 -0.3690  1.0020  0.7003
  785MOL0     H 3609   5.981   5.045   0.897  0.6451  1.0975  0.5759
  785MOL0     H 3610   6.228   5.401   0.866 -3.6502 -2.5489  2.0379
  785MOL0     H 3611   6.332   5.289   0.767  3.1717 -1.0812  2.6065
  785MOL0     H 3612   6.356   5.351   1.066  0.9931  0.0099  0.2670
  785MOL0     H 3613   6.438   5.215   0.995 -1.2178  0.0206  1.3892
  785MOL0     H 3614   6.482   5.506   0.934 -0.4029  0.8213 -2.8203
  785MOL0     H 3615   6.529   5.388   0.815 -2.5985 -2.4044 -0.0261
  785MOL0     H 3616   6.629   5.358   1.107 -0.0522  0.6131  0.1839
  785MOL0     H 3617   6.668   5.259   0.969  0.1255 -0.5150 -0.5005
  785MOL0     H 3618   6.929   5.587   0.959 -0.6802  0.5671  1.8096
  785MOL0     H 3619   6.129   5.386   0.674 -1.6324  1.4318 -1.0363
  785MOL0     H 3620   5.947   5.374   0.540 -0.4392 -0.5573  0.1771
  786MOL0     O 3621   8.259   5.794  10.681  0.1033  0.3533  0.8543
  786MOL0     C 3622   8.355   5.873  10.689  0.7341  0.0340  0.8634
  786MOL0     O 3623   8.347   5.995  10.732  0.6559 -0.6349  0.3780
  786MOL0     C 3624   8.225   6.039  10.770  0.3164 -0.0453 -0.0562
  786MOL0     C 3625   8.121   6.040  10.680  0.8901  1.0082 -0.0249
  786MOL0     C 3626   7.994   6.094  10.712 -0.5978 -0.2986 -0.1412
  786MOL0     C 3627   7.971   6.144  10.840 -0.2911 -0.0566 -0.2694
  786MOL0     O 3628   7.854   6.199  10.898  0.3596  0.1120 -0.4449
  786MOL0     C 3629   7.738   6.258  10.825 -0.9670 -0.1259  0.1380
  786MOL0     C 3630   7.620   6.274  10.914  0.4877 -0.4030 -0.1090
  786MOL0     C 3631   7.507   6.349  10.855 -0.2975  0.3849  0.5085
  786MOL0     C 3632   7.373   6.355  10.935 -0.8683  0.3863  1.3530
  786MOL0     C 3633   7.281   6.443  10.848  0.7468 -0.1300 -0.4040
  786MOL0     C 3634   7.152   6.451  10.932 -0.4663 -0.6533 -0.2334
  786MOL0     C 3635   7.035   6.526  10.873 -0.4473 -0.7554 -0.4703
  786MOL0     C 3636   6.903   6.542  10.959 -0.2848  0.3909  0.0224
  786MOL0     N 3637   6.793   6.598  10.884  0.0912 -0.1975 -0.3921
  786MOL0     C 3638   6.765   6.734  10.869 -0.5367  0.7856  0.3132
  786MOL0     C 3639   6.635   6.743  10.819 -0.2827  0.2921  0.0729
  786MOL0     C 3640   6.549   6.862  10.778 -0.0622 -0.1273 -0.0408
  786MOL0     C 3641   6.455   6.826  10.670  0.2279  0.6335  0.1005
  786MOL0     C 3642   6.528   6.824  10.541 -0.0804  0.0348  0.5607
  786MOL0     C 3643   6.433   6.765  10.424  0.4524 -0.7124 -0.6365
  786MOL0     O 3644   6.336   6.855  10.387  0.0777 -0.2958  0.4410
  786MOL0     C 3645   6.355   6.976  10.312 -0.2414  1.1460  0.6986
  786MOL0     C 3646   6.233   7.056  10.298 -1.4155  0.2341 -0.5292
  786MOL0     C 3647   6.234   7.161  10.204  0.0519 -0.5739 -0.8897
  786MOL0     C 3648   6.344   7.200  10.124 -0.3659 -0.2622  0.1599
  786MOL0     C 3649   6.328   7.319  10.035 -0.6019  0.4045  0.6169
  786MOL0     O 3650   6.441   7.373   9.974  0.8659  0.5259  0.5435
  786MOL0     C 3651   6.405   7.462   9.880  0.4690  0.2445 -0.4319
  786MOL0     C 3652   6.419   7.426   9.752  0.5194 -1.0853  0.3300
  786MOL0     C 3653   6.383   7.520   9.639  0.3003 -0.1803 -0.2782
  786MOL0     C 3654   6.336   7.646   9.677  1.2409 -0.5989 -0.3760
  786MOL0     O 3655   6.282   7.732   9.579  0.9128  0.2617  0.1509
  786MOL0     C 3656   6.159   7.798   9.619  0.4500 -0.0529 -0.7421
  786MOL0     C 3657   6.098   7.862   9.502  0.4439 -0.4483 -0.4381
  786MOL0     C 3658   6.047   7.763   9.400  0.4118  0.8547 -0.0406
  786MOL0     C 3659   5.983   7.844   9.286  0.1381 -0.2423  0.3101
  786MOL0     C 3660   5.915   7.763   9.179 -0.2426  0.0611  0.0202
  786MOL0     C 3661   5.784   7.709   9.242  0.1279  0.4389 -0.4013
  786MOL0     C 3662   5.678   7.663   9.151 -0.8379 -0.2274  0.1113
  786MOL0     C 3663   5.720   7.551   9.063 -0.2358  1.0137 -0.4543
  786MOL0    Cl 3664   5.706   7.394   9.168  0.5141 -0.0596 -0.5924
  786MOL0     C 3665   6.341   7.682   9.811 -0.4734  0.6420 -0.0433
  786MOL0     C 3666   6.372   7.594   9.914 -0.1207  0.8532 -0.6067
  786MOL0     O 3667   6.211   7.345  10.012 -0.2064  0.3791 -0.0434
  786MOL0     C 3668   6.461   7.121  10.140  0.8504  0.0142  0.0461
  786MOL0     C 3669   6.465   7.017  10.234  0.1354 -0.5144 -0.0328
  786MOL0     N 3670   6.595   6.616  10.817  0.1150 -0.1773  0.5654
  786MOL0     N 3671   6.682   6.531  10.859  0.2736 -0.0576 -0.1378
  786MOL0     C 3672   8.084   6.148  10.929 -0.7953 -0.0366  0.1041
  786MOL0     C 3673   8.207   6.093  10.895 -0.6938 -0.7430 -0.2615
  786MOL0     C 3674   8.493   5.836  10.652 -0.0546  0.7388 -0.3950
  786MOL0     C 3675   8.612   5.900  10.708 -0.3717 -0.0467  0.1317
  786MOL0     C 3676   8.731   5.857  10.648 -0.7955 -0.0368  0.9091
  786MOL0     C 3677   8.736   5.771  10.540 -0.1100  0.8734  0.0227
  786MOL0     O 3678   8.848   5.706  10.491  0.0284 -0.6020  0.2850
  786MOL0     C 3679   8.980   5.740  10.540  0.8658 -0.5495  0.2043
  786MOL0     C 3680   9.082   5.744  10.418 -0.5283 -0.2091  0.7485
  786MOL0     C 3681   9.027   5.847  10.314 -0.8393 -0.7313  0.2718
  786MOL0     C 3682   9.013   5.788  10.168 -1.0088 -0.6030  0.0484
  786MOL0     C 3683   9.133   5.799  10.084  0.1790  0.1455  0.3682
  786MOL0     C 3684   9.229   5.838  10.020  0.3143 -0.0065 -0.0839
  786MOL0     C 3685   8.617   5.715  10.488 -0.1350 -0.4313  0.0980
  786MOL0     C 3686   8.495   5.745  10.547  0.0631  1.2337  0.6246
  786MOL0     H 3687   8.130   6.000  10.580 -1.3436  1.0133 -0.2731
  786MOL0     H 3688   7.904   6.098  10.652 -0.9369 -1.3314  0.2763
  786MOL0     H 3689   7.707   6.190  10.745  1.9565  0.5593 -1.7425
  786MOL0     H 3690   7.767   6.355  10.784 -0.5295  0.6458  2.1729
  786MOL0     H 3691   7.650   6.342  10.994  3.1462 -1.6851  0.1115
  786MOL0     H 3692   7.605   6.170  10.947  3.5003 -0.5082  1.2938
  786MOL0     H 3693   7.495   6.317  10.751  1.4126 -0.4169  0.5258
  786MOL0     H 3694   7.534   6.455  10.846 -3.0965  1.1583  0.4035
  786MOL0     H 3695   7.342   6.250  10.943  2.0206 -0.8145 -1.2243
  786MOL0     H 3696   7.389   6.396  11.035 -1.6307 -3.2317  3.1568
  786MOL0     H 3697   7.255   6.384  10.760 -2.3599  0.7544 -0.2026
  786MOL0     H 3698   7.322   6.538  10.814 -0.0964 -0.0633 -1.2674
  786MOL0     H 3699   7.185   6.497  11.025 -2.8042 -5.2011  3.2332
  786MOL0     H 3700   7.120   6.352  10.966  0.8685 -1.3465 -0.8801
  786MOL0     H 3701   7.074   6.626  10.853  0.3795 -0.8742  0.5093
  786MOL0     H 3702   7.007   6.483  10.776 -3.1694  1.3926 -0.7789
  786MOL0     H 3703   6.925   6.594  11.052  1.8974  1.0344 -0.7937
  786MOL0     H 3704   6.879   6.440  10.991 -2.4201  0.9938  0.4589
  786MOL0     H 3705   6.844   6.805  10.893  3.1904 -2.4729 -1.0637
  786MOL0     H 3706   6.620   6.942  10.754  1.2911 -0.8735  1.3381
  786MOL0     H 3707   6.497   6.899  10.867 -0.1911  0.8828 -0.5146
  786MOL0     H 3708   6.386   6.910  10.660  0.4479  0.8692  0.5256
  786MOL0     H 3709   6.400   6.735  10.696  0.2349  0.5884 -0.0442
  786MOL0     H 3710   6.558   6.924  10.508 -0.7295 -0.4891 -1.7766
  786MOL0     H 3711   6.614   6.757  10.553 -0.2364  0.0477  1.9071
  786MOL0     H 3712   6.385   6.670  10.452 -1.2269  0.1972 -0.2651
  786MOL0     H 3713   6.483   6.744  10.329  0.1061 -0.9256 -0.7755
  786MOL0     H 3714   6.140   7.032  10.349 -0.8390  0.7823  0.8551
  786MOL0     H 3715   6.130   7.189  10.189 -0.2205 -0.4010  1.0678
  786MOL0     H 3716   6.459   7.325   9.744 -0.8848 -1.6281 -0.2781
  786MOL0     H 3717   6.371   7.479   9.539 -5.2737 -3.8999  1.3930
  786MOL0     H 3718   6.179   7.878   9.691  1.6287  0.1247 -1.2409
  786MOL0     H 3719   6.096   7.719   9.659 -0.1880 -0.6786 -2.8321
  786MOL0     H 3720   6.172   7.929   9.458  0.3011  0.7896  1.1143
  786MOL0     H 3721   6.015   7.925   9.536  0.7942  1.5003 -2.9226
  786MOL0     H 3722   5.973   7.697   9.446  1.0207  1.4655  1.9287
  786MOL0     H 3723   6.125   7.695   9.363  0.3198 -0.5232  2.0889
  786MOL0     H 3724   5.913   7.915   9.331 -0.7464  0.2598 -1.7436
  786MOL0     H 3725   6.065   7.901   9.240  1.7089 -2.9435 -0.4883
  786MOL0     H 3726   5.980   7.682   9.147  0.6298 -0.6471  3.2001
  786MOL0     H 3727   5.885   7.835   9.101 -0.0704 -0.2178 -0.3027
  786MOL0     H 3728   5.733   7.791   9.293  0.6048 -0.7037  2.0664
  786MOL0     H 3729   5.805   7.626   9.310  0.5994 -0.4896 -1.6479
  786MOL0     H 3730   5.584   7.643   9.204 -1.8580  1.3020 -1.0199
  786MOL0     H 3731   5.652   7.749   9.088  0.7776 -0.8882 -1.5416
  786MOL0     H 3732   5.824   7.564   9.030  0.2870 -0.4862  0.5465
  786MOL0     H 3733   5.660   7.546   8.971  0.3444 -0.6788 -0.7758
  786MOL0     H 3734   6.315   7.781   9.845 -0.8009 -0.1473  2.1795
  786MOL0     H 3735   6.365   7.636  10.014  3.9049  0.0631  0.1997
  786MOL0     H 3736   6.551   7.139  10.081 -0.3084  1.3257 -1.4201
  786MOL0     H 3737   6.559   6.962  10.233  0.2717 -0.3361 -2.7831
  786MOL0     H 3738   8.089   6.206  11.020 -2.6296  2.6990 -1.3890
  786MOL0     H 3739   8.297   6.098  10.956  1.3083  0.9766 -3.1189
  786MOL0     H 3740   8.609   5.981  10.780 -2.0178 -0.7209  0.8815
  786MOL0     H 3741   8.821   5.902  10.686 -2.4208  2.1733  2.3951
  786MOL0     H 3742   9.024   5.667  10.609 -1.0303 -1.7822  0.1655
  786MOL0     H 3743   8.983   5.838  10.589 -1.8319  0.9707 -2.3769
  786MOL0     H 3744   9.169   5.786  10.470 -1.7553  0.9960  1.8898
  786MOL0     H 3745   9.108   5.644  10.381  0.9224  0.6890 -0.8221
  786MOL0     H 3746   9.088   5.937  10.307 -2.3998  1.1136  5.7549
  786MOL0     H 3747   8.937   5.890  10.358 -2.0190 -2.3717 -0.4151
  786MOL0     H 3748   9.000   5.680  10.175 -3.3939 -0.3736  0.0280
  786MOL0     H 3749   8.927   5.832  10.116 -1.3451 -2.7861 -1.3524
  786MOL0     H 3750   9.320   5.850   9.965  0.1831 -1.9247 -0.8085
  786MOL0     H 3751   8.615   5.651  10.401 -1.6970  1.0916 -1.0693
  786MOL0     H 3752   8.408   5.700  10.503  0.5225 -0.2751  1.1943
  787MOL0     O 3753   7.167  11.226   0.773 -0.3403  0.3191  0.8372
  787MOL0     C 3754   7.198  11.262   0.883  0.2278 -0.5088  0.4573
  787MOL0     O 3755   7.112  11.269   0.981 -0.3146 -0.4020  0.7130
  787MOL0     C 3756   6.980  11.242   0.954  0.5468 -0.2448  0.5626
  787MOL0     C 3757   6.916  11.123   1.008  0.6736 -0.8554  0.2136
  787MOL0     C 3758   6.784  11.090   0.963  0.1532  0.1821  0.1106
  787MOL0     C 3759   6.717  11.175   0.882 -0.6730  0.4440  0.8875
  787MOL0     O 3760   6.592  11.154   0.831 -0.0210 -0.1545 -0.0450
  787MOL0     C 3761   6.503  11.135   0.944  0.1253  0.2541  0.1468
  787MOL0     C 3762   6.362  11.136   0.883 -0.2531 -0.2069 -0.0332
  787MOL0     C 3763   6.260  11.071   0.981 -0.5279 -0.9081 -0.7731
  787MOL0     C 3764   6.143  11.036   0.894  0.3670 -0.5854 -0.1080
  787MOL0     C 3765   6.027  10.998   0.979 -0.0085  0.0828 -0.2043
  787MOL0     C 3766   5.888  10.986   0.906  0.7786 -0.2614 -0.1747
  787MOL0     C 3767   5.788  10.936   1.006 -0.2044 -0.6637  0.3129
  787MOL0     C 3768   5.654  10.962   0.938  1.0280 -1.4416  0.1736
  787MOL0     N 3769   5.548  10.896   1.022  0.4494 -0.8542  0.1989
  787MOL0     C 3770   5.416  10.930   1.000 -0.7541  0.0244 -0.1474
  787MOL0     C 3771   5.351  10.877   1.105 -0.4716  0.7860 -0.0800
  787MOL0     C 3772   5.207  10.877   1.134 -0.5007  0.4706  0.4351
  787MOL0     C 3773   5.162  10.999   1.213 -0.0394 -0.8050 -0.1291
  787MOL0     C 3774   5.014  11.015   1.226  0.3064 -0.6965 -0.5326
  787MOL0     C 3775   4.952  10.969   1.362 -1.0461 -0.0400  0.5268
  787MOL0     O 3776   4.844  10.878   1.343  0.1848  0.0306 -0.5390
  787MOL0     C 3777   4.724  10.913   1.289  0.1314  0.0446 -0.9724
  787MOL0     C 3778   4.626  10.818   1.309  0.9286 -0.3460 -0.2075
  787MOL0     C 3779   4.497  10.842   1.257 -0.0875 -0.0470 -0.2129
  787MOL0     C 3780   4.465  10.963   1.192 -0.2034 -0.3287 -0.1996
  787MOL0     C 3781   4.333  10.974   1.132  0.6467  0.3788 -0.3601
  787MOL0     O 3782   4.237  10.882   1.173  0.1535  0.0648  0.0949
  787MOL0     C 3783   4.110  10.906   1.120  0.3097  0.2657 -0.4583
  787MOL0     C 3784   4.032  11.015   1.175  0.2471  0.1891  0.7270
  787MOL0     C 3785   3.901  11.034   1.126  0.6345 -0.3021  0.3459
  787MOL0     C 3786   3.852  10.959   1.012 -0.8185  0.4442 -0.3458
  787MOL0     O 3787   3.729  10.982   0.971  0.0120  0.4258 -0.1342
  787MOL0     C 3788   3.714  11.105   0.899  0.0473 -0.0043  0.6876
  787MOL0     C 3789   3.572  11.154   0.922 -0.3389 -0.9237  0.4714
  787MOL0     C 3790   3.473  11.054   0.868 -0.1611  0.6908  0.4851
  787MOL0     C 3791   3.327  11.097   0.887 -0.6056 -0.4967 -0.8181
  787MOL0     C 3792   3.227  10.995   0.827 -0.2658 -0.2207  0.0804
  787MOL0     C 3793   3.081  11.028   0.841 -0.0970  1.0269 -0.6169
  787MOL0     C 3794   3.040  11.154   0.773  0.0494  0.4937 -0.0007
  787MOL0     C 3795   2.888  11.185   0.783 -0.2525 -0.7235  1.0013
  787MOL0    Cl 3796   2.839  11.205   0.954 -0.1942 -0.1543 -0.3803
  787MOL0     C 3797   3.933  10.858   0.969 -0.2269  0.5851 -0.0253
  787MOL0     C 3798   4.064  10.834   1.012 -0.2679  0.5829  0.0292
  787MOL0     O 3799   4.313  11.051   1.036 -0.0293  0.4365 -0.4752
  787MOL0     C 3800   4.557  11.071   1.208 -0.0559  0.4851 -0.2929
  787MOL0     C 3801   4.688  11.042   1.253 -0.2850  0.4169  0.7290
  787MOL0     N 3802   5.441  10.835   1.195 -0.3686 -0.1049 -0.0849
  787MOL0     N 3803   5.564  10.856   1.155 -0.0062 -0.9561  0.0518
  787MOL0     C 3804   6.778  11.290   0.826  0.7216 -0.6140 -0.6467
  787MOL0     C 3805   6.907  11.327   0.876 -0.1553 -0.5120  0.0208
  787MOL0     C 3806   7.336  11.274   0.903  0.1065  0.5186  0.1499
  787MOL0     C 3807   7.434  11.218   0.819  0.0121 -0.2363 -0.1796
  787MOL0     C 3808   7.570  11.232   0.849  0.0487 -0.8115 -0.2441
  787MOL0     C 3809   7.610  11.299   0.971 -0.9277  0.5767 -0.1554
  787MOL0     O 3810   7.744  11.286   0.996 -0.1098  0.0889 -0.1841
  787MOL0     C 3811   7.801  11.374   1.090  0.6078  0.4297 -0.3088
  787MOL0     C 3812   7.795  11.528   1.058 -0.0608 -0.6203  0.4022
  787MOL0     C 3813   7.874  11.610   1.166  0.1323 -0.1658  0.3751
  787MOL0     C 3814   7.853  11.589   1.311 -0.2705  0.9332 -0.9980
  787MOL0     C 3815   7.723  11.644   1.333  0.8315 -0.3383 -0.0973
  787MOL0     C 3816   7.613  11.700   1.329 -0.0159  0.0758 -0.3996
  787MOL0     C 3817   7.511  11.353   1.054  0.0806 -0.9478 -0.2143
  787MOL0     C 3818   7.382  11.337   1.022 -0.3042 -0.8169  0.1467
  787MOL0     H 3819   6.984  11.064   1.069  0.1958 -2.2833 -0.6046
  787MOL0     H 3820   6.749  10.992   0.993 -0.0481  0.5493  1.1087
  787MOL0     H 3821   6.514  11.210   1.024 -1.6288 -0.2805  0.9293
  787MOL0     H 3822   6.520  11.036   0.987 -1.3142  1.0835  2.8498
  787MOL0     H 3823   6.366  11.080   0.789 -0.9528 -0.4145  0.0548
  787MOL0     H 3824   6.339  11.241   0.863  1.5813  0.4795  1.1069
  787MOL0     H 3825   6.235  11.136   1.065 -0.0825 -0.6009 -0.8754
  787MOL0     H 3826   6.301  10.984   1.031  3.0807  1.4375  0.7027
  787MOL0     H 3827   6.108  11.121   0.835  1.2323  0.9843  1.5711
  787MOL0     H 3828   6.163  10.950   0.829  3.5040 -0.1372  0.1034
  787MOL0     H 3829   6.015  11.081   1.050  1.0024  0.8696 -0.9191
  787MOL0     H 3830   6.050  10.908   1.035  0.4373 -0.5221 -1.3284
  787MOL0     H 3831   5.898  10.915   0.823  0.7922 -0.8083  0.2879
  787MOL0     H 3832   5.853  11.077   0.856  1.1972 -1.5869 -3.0752
  787MOL0     H 3833   5.803  10.830   1.025 -0.7292 -0.5774  1.3324
  787MOL0     H 3834   5.780  10.991   1.101 -3.6335 -0.2738 -0.0718
  787MOL0     H 3835   5.647  10.925   0.835  1.7793 -0.4737 -0.2342
  787MOL0     H 3836   5.623  11.066   0.929 -1.1020 -2.1770 -2.1194
  787MOL0     H 3837   5.371  10.978   0.914  1.5106  2.2912 -0.2016
  787MOL0     H 3838   5.201  10.794   1.206 -0.3394  3.4899  4.2448
  787MOL0     H 3839   5.143  10.870   1.046  2.6433 -0.1851 -1.9630
  787MOL0     H 3840   5.183  11.093   1.162 -1.0996  0.0368  0.9432
  787MOL0     H 3841   5.210  11.008   1.310 -1.8692  2.8967  0.6200
  787MOL0     H 3842   4.996  11.122   1.223  1.5128 -0.5068 -3.0563
  787MOL0     H 3843   4.954  10.965   1.149  1.1210  0.3443 -1.8815
  787MOL0     H 3844   4.920  11.051   1.426 -0.9604 -0.7714  1.5274
  787MOL0     H 3845   5.029  10.919   1.420  0.1541  0.6915 -0.3951
  787MOL0     H 3846   4.642  10.721   1.355 -2.6899  0.0323  2.1984
  787MOL0     H 3847   4.436  10.753   1.251  0.3919 -0.4567  0.7838
  787MOL0     H 3848   4.073  11.064   1.263 -2.8206  1.0075  1.8188
  787MOL0     H 3849   3.842  11.112   1.173 -0.0347 -1.1090  0.8649
  787MOL0     H 3850   3.724  11.080   0.793  1.3593 -1.0162  1.0267
  787MOL0     H 3851   3.776  11.190   0.930  0.5616  0.6106 -1.7903
  787MOL0     H 3852   3.554  11.237   0.853 -0.6877  1.5077  3.2624
  787MOL0     H 3853   3.553  11.183   1.026 -0.2294 -2.5953  0.9876
  787MOL0     H 3854   3.494  10.958   0.915 -1.6964 -0.3197 -0.7883
  787MOL0     H 3855   3.491  11.020   0.765 -0.9564 -2.4883  1.2801
  787MOL0     H 3856   3.309  11.092   0.995 -0.1835 -0.7656 -0.7556
  787MOL0     H 3857   3.306  11.194   0.843  0.4820  0.4056  0.5820
  787MOL0     H 3858   3.230  10.894   0.871  0.2098 -1.2271 -2.1368
  787MOL0     H 3859   3.244  10.984   0.720  1.3777  1.2165  0.1450
  787MOL0     H 3860   3.057  11.033   0.948 -1.6269  0.8440 -0.9298
  787MOL0     H 3861   3.024  10.939   0.814  1.1458 -0.1988  0.6571
  787MOL0     H 3862   3.100  11.243   0.796 -0.9595  1.1897 -0.0040
  787MOL0     H 3863   3.059  11.138   0.667 -0.6529  2.4712 -0.4855
  787MOL0     H 3864   2.832  11.106   0.731 -1.3572  0.0769  0.9335
  787MOL0     H 3865   2.861  11.281   0.738  1.6941  1.2054  3.6466
  787MOL0     H 3866   3.885  10.799   0.891  0.3658  0.0729 -0.0073
  787MOL0     H 3867   4.117  10.752   0.966 -2.4290 -0.8098 -0.1321
  787MOL0     H 3868   4.518  11.164   1.168  1.3339  1.2531  0.0619
  787MOL0     H 3869   4.765  11.118   1.257  0.8528 -0.5155 -1.4165
  787MOL0     H 3870   6.727  11.354   0.756 -1.4467  1.0227  2.1935
  787MOL0     H 3871   6.964  11.414   0.845 -1.8390  0.5233 -0.3500
  787MOL0     H 3872   7.398  11.171   0.728 -0.9731 -1.4113  0.7789
  787MOL0     H 3873   7.648  11.198   0.781 -1.5135  2.0192 -3.7744
  787MOL0     H 3874   7.905  11.344   1.105  0.5501 -1.9927 -3.6742
  787MOL0     H 3875   7.751  11.359   1.186  1.5828 -3.8073 -0.2941
  787MOL0     H 3876   7.824  11.545   0.953 -3.8194  0.5402 -0.5830
  787MOL0     H 3877   7.693  11.565   1.064  0.1434 -0.2821  2.8067
  787MOL0     H 3878   7.867  11.716   1.139  1.3899  0.6843  3.0288
  787MOL0     H 3879   7.976  11.575   1.148 -0.3174 -0.3443 -2.2877
  787MOL0     H 3880   7.851  11.481   1.328 -1.1524  0.6386 -2.7314
  787MOL0     H 3881   7.938  11.635   1.362  1.5295  0.8266 -3.6909
  787MOL0     H 3882   7.524  11.759   1.315 -0.0080 -0.1462 -1.4764
  787MOL0     H 3883   7.541  11.410   1.141  0.2916  0.9581 -1.4831
  787MOL0     H 3884   7.296  11.371   1.079  1.1745 -1.9531  3.2823
  788MOL0     O 3885   4.106   4.210   8.560 -0.2416  0.0440  0.4550
  788MOL0     C 3886   4.154   4.267   8.464 -0.6500  0.4350 -0.3632
  788MOL0     O 3887   4.105   4.378   8.408 -0.1080  0.3205  0.4516
  788MOL0     C 3888   3.981   4.430   8.437 -0.5141  0.0261  0.2190
  788MOL0     C 3889   3.954   4.547   8.378 -0.0485 -0.0584 -0.6190
  788MOL0     C 3890   3.824   4.609   8.393  0.0751  0.1280  0.1059
  788MOL0     C 3891   3.730   4.562   8.476 -0.2538 -0.3299  0.2454
  788MOL0     O 3892   3.598   4.609   8.491  0.7738  0.1602  0.5101
  788MOL0     C 3893   3.561   4.752   8.494  0.0442  0.0621 -0.2691
  788MOL0     C 3894   3.405   4.745   8.467 -0.8059  0.3351  0.4604
  788MOL0     C 3895   3.368   4.889   8.451 -0.1771 -0.2261 -0.5299
  788MOL0     C 3896   3.216   4.901   8.430  0.1712  0.2166 -0.2905
  788MOL0     C 3897   3.174   5.038   8.364 -0.1164  0.1517  0.9594
  788MOL0     C 3898   3.025   5.039   8.323  0.1210  0.4894  0.2670
  788MOL0     C 3899   2.970   5.158   8.247 -0.5379  0.6603 -0.8136
  788MOL0     C 3900   2.984   5.280   8.328 -0.5016 -0.1632  0.2774
  788MOL0     N 3901   2.912   5.382   8.255  0.1994 -0.3868 -0.4864
  788MOL0     C 3902   2.773   5.404   8.237  0.1020  0.3002 -0.1625
  788MOL0     C 3903   2.767   5.520   8.173 -0.1422 -0.2837 -0.0984
  788MOL0     C 3904   2.641   5.591   8.130  0.4229  0.2884 -0.1155
  788MOL0     C 3905   2.612   5.735   8.169 -0.1807 -0.3852 -0.5360
  788MOL0     C 3906   2.586   5.763   8.318  0.2895 -0.6577  0.3157
  788MOL0     C 3907   2.445   5.718   8.358  0.1519 -0.1738 -0.0997
  788MOL0     O 3908   2.422   5.735   8.497 -0.2924 -0.0433 -0.5722
  788MOL0     C 3909   2.309   5.675   8.550  0.1583  0.2859 -0.8015
  788MOL0     C 3910   2.227   5.589   8.482  0.5208  0.7131 -0.2504
  788MOL0     C 3911   2.130   5.508   8.546  0.2783 -0.3384 -0.0315
  788MOL0     C 3912   2.104   5.540   8.677  0.6956 -0.5050 -1.8335
  788MOL0     C 3913   1.999   5.471   8.762  0.4777  0.2172 -0.1385
  788MOL0     O 3914   1.965   5.345   8.731  0.0120 -0.3686  0.1709
  788MOL0     C 3915   1.845   5.295   8.783 -0.1035  0.2462  0.4279
  788MOL0     C 3916   1.725   5.366   8.811  0.2205 -1.1286  0.4001
  788MOL0     C 3917   1.608   5.308   8.863 -0.0444  0.5367  0.9017
  788MOL0     C 3918   1.600   5.172   8.878  0.0383 -0.0848 -0.5299
  788MOL0     O 3919   1.478   5.124   8.924 -0.2640  0.7984 -0.5050
  788MOL0     C 3920   1.481   5.063   9.054 -0.0063  0.0433  0.6350
  788MOL0     C 3921   1.350   5.106   9.118  0.8133  0.0169  1.1889
  788MOL0     C 3922   1.217   5.061   9.058  0.1182 -0.4288  0.4863
  788MOL0     C 3923   1.107   5.135   9.139  0.1489 -0.4220 -0.2408
  788MOL0     C 3924   0.966   5.079   9.121  0.5896 -0.2353 -0.6945
  788MOL0     C 3925   0.949   4.958   9.218  0.4809 -0.8510  0.2628
  788MOL0     C 3926   0.806   4.912   9.219  0.0215 -0.0535  0.5031
  788MOL0     C 3927   0.776   4.817   9.329  0.8705  0.0960  0.3505
  788MOL0    Cl 3928   0.888   4.679   9.325 -0.0490 -0.0288 -0.6152
  788MOL0     C 3929   1.716   5.100   8.850 -0.0923 -0.4168 -0.0764
  788MOL0     C 3930   1.833   5.152   8.806  0.4357 -0.2390  0.2567
  788MOL0     O 3931   1.947   5.537   8.850  0.1568 -0.4836  0.4788
  788MOL0     C 3932   2.183   5.630   8.749  0.1109  0.3522 -0.2032
  788MOL0     C 3933   2.289   5.685   8.693 -1.0045  0.6141  0.0822
  788MOL0     N 3934   2.896   5.577   8.146  0.2397  0.8609  1.1772
  788MOL0     N 3935   2.983   5.490   8.203 -0.4956  1.0493 -0.2435
  788MOL0     C 3936   3.760   4.445   8.548 -0.3253 -0.3391  0.5700
  788MOL0     C 3937   3.882   4.374   8.519  0.7425 -0.2776 -0.8063
  788MOL0     C 3938   4.290   4.220   8.408  0.0557  0.0287  0.1830
  788MOL0     C 3939   4.331   4.271   8.281  0.0349 -0.1146  0.3456
  788MOL0     C 3940   4.434   4.224   8.209 -0.2141 -0.2433 -0.2646
  788MOL0     C 3941   4.528   4.137   8.273 -0.5060 -0.2341  0.6533
  788MOL0     O 3942   4.652   4.102   8.220 -0.0244  0.2694  0.0668
  788MOL0     C 3943   4.691   4.171   8.100  0.4379 -0.7607  0.6550
  788MOL0     C 3944   4.825   4.120   8.071  0.6012  0.0870 -0.6693
  788MOL0     C 3945   4.880   4.175   7.942 -0.2263 -0.4580  0.1172
  788MOL0     C 3946   5.012   4.113   7.888 -0.0722  0.0895 -0.2879
  788MOL0     C 3947   5.117   4.116   7.983  0.1419  0.3963 -0.0541
  788MOL0     C 3948   5.194   4.127   8.074  0.1785 -0.1170  0.7252
  788MOL0     C 3949   4.497   4.093   8.404  0.5165 -0.1054  0.1368
  788MOL0     C 3950   4.376   4.130   8.473  0.1920  0.2515  0.0786
  788MOL0     H 3951   4.028   4.588   8.310  1.1211 -1.1168 -0.0339
  788MOL0     H 3952   3.804   4.692   8.326  0.7763 -0.4713 -0.8716
  788MOL0     H 3953   3.623   4.806   8.422 -2.4483  1.6890 -1.3153
  788MOL0     H 3954   3.581   4.799   8.591  2.8389 -1.7962  0.1938
  788MOL0     H 3955   3.363   4.707   8.561  1.5445  1.4193  2.0645
  788MOL0     H 3956   3.389   4.694   8.372  0.1416  2.2818 -0.8236
  788MOL0     H 3957   3.429   4.939   8.376  1.0773 -0.6145  0.1957
  788MOL0     H 3958   3.394   4.945   8.541  1.4619 -0.5359 -0.7750
  788MOL0     H 3959   3.195   4.819   8.360  2.3918 -2.8215  2.3277
  788MOL0     H 3960   3.168   4.884   8.527  2.4551  0.7586  1.0113
  788MOL0     H 3961   3.235   5.061   8.276  0.5396 -1.4339  0.9711
  788MOL0     H 3962   3.174   5.116   8.440 -2.2871  0.6861  0.4757
  788MOL0     H 3963   2.959   5.018   8.408 -0.9412 -2.7676 -1.2019
  788MOL0     H 3964   3.008   4.948   8.265  2.0300 -0.5776  1.2861
  788MOL0     H 3965   3.033   5.174   8.159  0.6737 -1.0670 -0.3370
  788MOL0     H 3966   2.873   5.134   8.204 -0.8685  0.4484  0.0431
  788MOL0     H 3967   3.092   5.298   8.326  0.3484 -4.3306 -1.0743
  788MOL0     H 3968   2.953   5.261   8.431  0.4832 -1.7766  0.3176
  788MOL0     H 3969   2.700   5.335   8.278  3.0421 -3.6631 -1.0069
  788MOL0     H 3970   2.559   5.526   8.160  1.6602 -1.1035  0.3355
  788MOL0     H 3971   2.641   5.594   8.020 -3.2231 -3.1190 -0.4315
  788MOL0     H 3972   2.530   5.771   8.107 -0.6107  2.4999  1.5069
  788MOL0     H 3973   2.699   5.797   8.142 -1.1006  1.5735  0.7352
  788MOL0     H 3974   2.667   5.717   8.376 -0.5434 -1.6493  0.7309
  788MOL0     H 3975   2.598   5.870   8.340 -3.4509 -0.3562  1.7464
  788MOL0     H 3976   2.440   5.612   8.332  0.3626 -0.2311  0.0820
  788MOL0     H 3977   2.369   5.772   8.301  0.5980  0.6042  0.0241
  788MOL0     H 3978   2.225   5.579   8.374 -1.5625  2.9760 -0.4867
  788MOL0     H 3979   2.090   5.414   8.509 -1.6788  0.9576 -1.4492
  788MOL0     H 3980   1.728   5.474   8.797 -0.0006 -1.3521 -1.6396
  788MOL0     H 3981   1.528   5.375   8.893 -1.2703 -1.5985  2.6738
  788MOL0     H 3982   1.569   5.092   9.112  0.3029 -0.5231  0.4591
  788MOL0     H 3983   1.497   4.955   9.046  1.2613  0.3494 -1.4243
  788MOL0     H 3984   1.342   5.215   9.116 -1.3385 -0.0699  2.3701
  788MOL0     H 3985   1.352   5.066   9.220 -0.7017  0.3231  1.3514
  788MOL0     H 3986   1.213   4.952   9.062 -0.4142 -0.3740  1.9525
  788MOL0     H 3987   1.199   5.094   8.955 -0.6780  0.9955  1.0594
  788MOL0     H 3988   1.130   5.124   9.245 -1.3261  1.0122  0.2805
  788MOL0     H 3989   1.100   5.238   9.100 -1.0650  0.2858  1.7116
  788MOL0     H 3990   0.936   5.062   9.017  0.4952  2.4156 -1.1671
  788MOL0     H 3991   0.909   5.165   9.156  0.3369 -0.0753 -1.4751
  788MOL0     H 3992   0.969   4.992   9.320 -0.2766 -2.0920  0.8465
  788MOL0     H 3993   1.016   4.878   9.184 -1.3157 -2.4966  0.4466
  788MOL0     H 3994   0.740   4.998   9.231 -0.2710 -0.0744 -0.8191
  788MOL0     H 3995   0.787   4.868   9.121  1.6784  1.9767 -0.7769
  788MOL0     H 3996   0.676   4.772   9.320 -0.1945  2.0322  1.7417
  788MOL0     H 3997   0.783   4.871   9.424 -1.6052  0.9962  0.0999
  788MOL0     H 3998   1.718   4.996   8.880 -2.8428 -0.2808  0.8291
  788MOL0     H 3999   1.908   5.075   8.794 -0.1437 -0.8888  0.7620
  788MOL0     H 4000   2.164   5.660   8.851  1.7756 -0.3551  0.3427
  788MOL0     H 4001   2.352   5.762   8.735 -0.6444  0.6040 -0.4191
  788MOL0     H 4002   3.704   4.394   8.626  1.3911 -1.3584  1.1898
  788MOL0     H 4003   3.899   4.291   8.587  0.0544  0.6182  0.5022
  788MOL0     H 4004   4.267   4.338   8.224  1.3050  0.0374 -0.9798
  788MOL0     H 4005   4.463   4.268   8.114  1.4954  0.7964  0.6980
  788MOL0     H 4006   4.688   4.281   8.101 -0.7343 -0.7884  1.0134
  788MOL0     H 4007   4.618   4.135   8.026 -1.8910  0.9036  2.0094
  788MOL0     H 4008   4.892   4.152   8.152  0.5181  3.2703 -1.6846
  788MOL0     H 4009   4.826   4.012   8.053 -3.0909 -0.0081 -0.9244
  788MOL0     H 4010   4.885   4.283   7.953  1.3223 -0.4405 -0.5810
  788MOL0     H 4011   4.809   4.160   7.860 -1.4895 -0.2331  1.1307
  788MOL0     H 4012   4.983   4.010   7.866  2.1727 -0.5636 -0.3676
  788MOL0     H 4013   5.037   4.164   7.794  0.8673  2.0407  0.9563
  788MOL0     H 4014   5.250   4.127   8.166 -0.3323 -2.1542  1.0723
  788MOL0     H 4015   4.567   4.022   8.446  1.6626  1.3689  0.8359
  788MOL0     H 4016   4.345   4.080   8.564 -0.7609  2.6503  1.1828
  789MOL0     O 4017   8.178  11.241   9.483  0.3064 -0.5381 -0.8169
  789MOL0     C 4018   8.169  11.118   9.464 -0.1235 -0.1892 -0.3375
  789MOL0     O 4019   8.050  11.049   9.466  0.1698  0.4238 -0.4007
  789MOL0     C 4020   7.932  11.119   9.473  0.5309 -0.3181 -0.2450
  789MOL0     C 4021   7.845  11.092   9.575 -0.0489  0.6298 -1.0497
  789MOL0     C 4022   7.729  11.171   9.589 -0.0249 -0.3532 -0.0574
  789MOL0     C 4023   7.676  11.244   9.482 -0.4302  0.9020 -0.2765
  789MOL0     O 4024   7.552  11.306   9.475  0.0614 -0.1248 -0.1114
  789MOL0     C 4025   7.455  11.315   9.584  0.5360  0.0168  1.0686
  789MOL0     C 4026   7.366  11.440   9.562  0.7049 -0.6181 -0.0705
  789MOL0     C 4027   7.274  11.437   9.435 -0.1124 -0.1622 -0.2963
  789MOL0     C 4028   7.223  11.578   9.416  0.1773 -0.4095 -0.8059
  789MOL0     C 4029   7.073  11.577   9.369  0.6561 -0.5039  0.3236
  789MOL0     C 4030   6.966  11.579   9.484 -0.7141  0.1999 -0.6777
  789MOL0     C 4031   6.829  11.565   9.429  0.1861 -0.0073 -1.0200
  789MOL0     C 4032   6.723  11.524   9.542 -1.2836 -0.1273  0.2283
  789MOL0     N 4033   6.586  11.531   9.492 -1.3678 -0.4601  0.6689
  789MOL0     C 4034   6.478  11.592   9.560  1.1527  0.1042 -0.2826
  789MOL0     C 4035   6.369  11.561   9.478 -0.0619  0.1848 -0.0150
  789MOL0     C 4036   6.227  11.592   9.498  0.3012 -0.2234  0.3806
  789MOL0     C 4037   6.135  11.583   9.376  0.5528  0.1294  0.0783
  789MOL0     C 4038   6.022  11.674   9.389  0.7247 -0.2072 -0.4306
  789MOL0     C 4039   5.947  11.696   9.257 -0.1081  0.6027 -0.8586
  789MOL0     O 4040   5.836  11.786   9.286 -0.9743 -0.1243 -1.1884
  789MOL0     C 4041   5.711  11.730   9.309 -0.1312 -0.5099  0.5767
  789MOL0     C 4042   5.607  11.794   9.242  0.2395 -1.1113  0.1885
  789MOL0     C 4043   5.475  11.758   9.252 -1.0852  0.0685 -0.3641
  789MOL0     C 4044   5.439  11.653   9.340  0.5379 -0.0440  0.5357
  789MOL0     C 4045   5.294  11.620   9.364  0.2666  0.2833 -0.1764
  789MOL0     O 4046   5.245  11.557   9.472 -0.8324 -0.4417 -1.0367
  789MOL0     C 4047   5.111  11.529   9.479 -0.3632  0.4197 -0.6922
  789MOL0     C 4048   5.045  11.471   9.378 -0.1686  0.1780  0.3596
  789MOL0     C 4049   4.912  11.434   9.382 -0.4953 -0.0763  0.1280
  789MOL0     C 4050   4.839  11.472   9.488  0.7133 -0.0367  0.6404
  789MOL0     O 4051   4.704  11.454   9.490 -0.3125  0.0046 -0.1897
  789MOL0     C 4052   4.636  11.444   9.615  0.2208  0.3801 -0.5325
  789MOL0     C 4053   4.487  11.432   9.587 -1.5383 -0.5579  0.2439
  789MOL0     C 4054   4.395  11.507   9.691  0.2048  0.4111  0.5821
  789MOL0     C 4055   4.252  11.532   9.651  0.4076 -0.5282  0.9754
  789MOL0     C 4056   4.169  11.576   9.769  0.4779 -0.3655 -0.2047
  789MOL0     C 4057   4.209  11.721   9.803 -0.1690 -0.3824  0.3906
  789MOL0     C 4058   4.121  11.777   9.913  0.9956  0.0150 -0.5217
  789MOL0     C 4059   4.172  11.930   9.942  0.2244  0.7570  0.7538
  789MOL0    Cl 4060   4.137  11.957  10.110 -0.3935 -0.3367  0.2286
  789MOL0     C 4061   4.912  11.530   9.601 -0.0569  0.2860 -0.5477
  789MOL0     C 4062   5.043  11.562   9.596 -0.0574  0.6897  0.3574
  789MOL0     O 4063   5.226  11.662   9.274  0.1436 -0.2285  0.8100
  789MOL0     C 4064   5.542  11.586   9.412 -1.2217  0.8852  0.9827
  789MOL0     C 4065   5.678  11.617   9.392 -0.2777  1.0830 -0.2973
  789MOL0     N 4066   6.418  11.496   9.367 -0.6431  0.0564  0.5880
  789MOL0     N 4067   6.541  11.478   9.370  0.8533  0.9508 -0.5542
  789MOL0     C 4068   7.764  11.259   9.371  0.0834 -0.5684  0.2673
  789MOL0     C 4069   7.894  11.201   9.367 -0.1144 -0.5563 -0.6007
  789MOL0     C 4070   8.298  11.040   9.442  1.0157 -0.0509  1.1048
  789MOL0     C 4071   8.425  11.109   9.456 -0.6526  0.2411 -0.6611
  789MOL0     C 4072   8.540  11.050   9.426  0.1546  0.0199  0.3949
  789MOL0     C 4073   8.545  10.916   9.380 -0.3113  0.1816  0.1704
  789MOL0     O 4074   8.666  10.864   9.344 -0.4269  0.1869  0.5148
  789MOL0     C 4075   8.676  10.723   9.324 -0.3691  1.1496  0.6626
  789MOL0     C 4076   8.808  10.676   9.265 -0.2512  0.1028 -0.1641
  789MOL0     C 4077   8.911  10.665   9.385 -0.0167  0.4849  0.5226
  789MOL0     C 4078   9.052  10.628   9.322 -0.0086 -0.1828  0.1467
  789MOL0     C 4079   9.043  10.497   9.256  0.0907 -0.0987 -0.2319
  789MOL0     C 4080   9.039  10.390   9.200  0.5805 -0.6764  0.4411
  789MOL0     C 4081   8.420  10.854   9.363 -0.4272  0.5459  0.1668
  789MOL0     C 4082   8.296  10.918   9.383  0.1541  0.9507 -1.0117
  789MOL0     H 4083   7.872  11.020   9.652  0.7344  1.7724 -0.2070
  789MOL0     H 4084   7.675  11.155   9.682  1.4589  1.1047  1.0986
  789MOL0     H 4085   7.515  11.331   9.674  2.2008 -0.2386  0.0330
  789MOL0     H 4086   7.389  11.229   9.601 -2.1621  1.4307 -1.3847
  789MOL0     H 4087   7.441  11.519   9.546 -0.1397 -0.1926 -2.3976
  789MOL0     H 4088   7.307  11.459   9.652  3.0438  2.5199  0.9910
  789MOL0     H 4089   7.200  11.357   9.446 -0.8744  0.7506  1.7935
  789MOL0     H 4090   7.334  11.435   9.344  1.5508  0.7457  0.7188
  789MOL0     H 4091   7.226  11.638   9.508 -2.2864 -0.4578 -0.6391
  789MOL0     H 4092   7.271  11.634   9.336 -1.1609 -3.9571 -4.4489
  789MOL0     H 4093   7.057  11.490   9.305 -1.6642 -1.0916  1.5701
  789MOL0     H 4094   7.051  11.659   9.300  0.1048 -1.9216 -1.2529
  789MOL0     H 4095   6.970  11.663   9.555  0.0584 -0.4832  0.1200
  789MOL0     H 4096   6.982  11.491   9.547  1.9569 -0.9420 -2.7733
  789MOL0     H 4097   6.798  11.667   9.406  1.2118  0.7246  0.6097
  789MOL0     H 4098   6.823  11.505   9.337  2.9343 -0.7158 -0.8535
  789MOL0     H 4099   6.722  11.587   9.631 -3.8548 -0.9770  0.8574
  789MOL0     H 4100   6.744  11.418   9.557 -1.4563 -0.5324 -2.0288
  789MOL0     H 4101   6.486  11.658   9.646  1.9751 -1.4618  0.8965
  789MOL0     H 4102   6.214  11.695   9.533 -0.7797 -0.6217  1.2015
  789MOL0     H 4103   6.186  11.525   9.574  1.0330 -2.0248 -0.7526
  789MOL0     H 4104   6.092  11.483   9.362  0.2302  0.3358 -0.4388
  789MOL0     H 4105   6.202  11.613   9.295  0.1981 -2.1621 -1.1662
  789MOL0     H 4106   5.955  11.639   9.468  2.0734 -0.7214  0.5333
  789MOL0     H 4107   6.054  11.771   9.431 -1.8270 -1.1877  4.6257
  789MOL0     H 4108   5.909  11.606   9.208 -0.2215  0.2606 -0.1553
  789MOL0     H 4109   6.009  11.733   9.175 -2.1418  0.9490 -2.3260
  789MOL0     H 4110   5.642  11.877   9.181  1.9801 -1.9340  0.0007
  789MOL0     H 4111   5.407  11.813   9.188  1.6433  3.8889 -0.3186
  789MOL0     H 4112   5.106  11.446   9.291  0.1500  1.8702  0.0623
  789MOL0     H 4113   4.869  11.389   9.293 -0.1495 -0.7485  0.2966
  789MOL0     H 4114   4.661  11.535   9.671  0.8409  0.4036 -0.8335
  789MOL0     H 4115   4.666  11.356   9.672  0.4257  2.6232  3.1274
  789MOL0     H 4116   4.451  11.329   9.579 -1.1238 -0.7716  1.0190
  789MOL0     H 4117   4.467  11.472   9.487 -1.2440 -1.7506 -0.3198
  789MOL0     H 4118   4.448  11.599   9.715 -0.0720  0.2952  1.6783
  789MOL0     H 4119   4.399  11.441   9.778  0.9970 -0.8860 -0.3944
  789MOL0     H 4120   4.229  11.590   9.561 -1.2274 -1.8969  0.4667
  789MOL0     H 4121   4.223  11.433   9.615  0.6419  0.3727 -1.9405
  789MOL0     H 4122   4.179  11.500   9.847 -3.3953  0.0070  0.8786
  789MOL0     H 4123   4.063  11.574   9.744  0.3957 -0.7858  0.1746
  789MOL0     H 4124   4.198  11.786   9.716  1.5254  1.2239  1.3070
  789MOL0     H 4125   4.313  11.724   9.836 -0.4925 -1.4484  1.5835
  789MOL0     H 4126   4.015  11.788   9.888  0.6289 -0.8452  0.6112
  789MOL0     H 4127   4.121  11.715  10.002 -2.8416  1.4799  0.6958
  789MOL0     H 4128   4.118  12.004   9.882  0.5406  1.1797  0.9850
  789MOL0     H 4129   4.281  11.928   9.926 -0.0190  0.7265 -1.0896
  789MOL0     H 4130   4.869  11.571   9.691 -0.4371 -2.1168  0.4202
  789MOL0     H 4131   5.083  11.613   9.683 -0.3643  1.0465  0.2883
  789MOL0     H 4132   5.522  11.522   9.498  1.6150  0.7335  1.6324
  789MOL0     H 4133   5.755  11.563   9.446 -0.1470  0.5636 -0.9801
  789MOL0     H 4134   7.727  11.323   9.291 -0.2809 -2.8567 -1.4986
  789MOL0     H 4135   7.956  11.219   9.280  0.9941 -1.8012 -0.0860
  789MOL0     H 4136   8.427  11.212   9.492 -1.8590 -0.9531  3.3300
  789MOL0     H 4137   8.636  11.100   9.426 -0.2715  0.9854 -1.9457
  789MOL0     H 4138   8.598  10.705   9.249  1.5994  0.4042 -1.3171
  789MOL0     H 4139   8.658  10.661   9.412 -1.0126 -0.6442 -0.6507
  789MOL0     H 4140   8.794  10.586   9.204 -0.0752 -0.0578  0.0336
  789MOL0     H 4141   8.858  10.757   9.211  1.2874 -0.9762 -0.4201
  789MOL0     H 4142   8.880  10.587   9.455 -1.0593 -1.6147 -2.0785
  789MOL0     H 4143   8.913  10.759   9.439 -0.8765  1.8797 -1.7264
  789MOL0     H 4144   9.089  10.694   9.243  1.0819 -2.6268 -1.5206
  789MOL0     H 4145   9.128  10.626   9.401 -1.8211 -4.6090  2.0990
  789MOL0     H 4146   9.029  10.300   9.142 -0.6273  0.1209 -0.6523
  789MOL0     H 4147   8.410  10.758   9.313  1.4090 -0.2699  1.2382
  789MOL0     H 4148   8.205  10.864   9.358 -0.2019  1.3859 -0.6579
  790MOL0     O 4149   2.809   0.365   8.136 -0.5818 -0.0626  0.1159
  790MOL0     C 4150   2.832   0.338   8.019 -0.2494  0.1157 -0.0325
  790MOL0     O 4151   2.741   0.355   7.924  0.3945 -0.2606 -0.1184
  790MOL0     C 4152   2.613   0.382   7.963  0.2100  0.2515 -0.3998
  790MOL0     C 4153   2.522   0.277   7.935 -0.6529  0.0477  0.4074
  790MOL0     C 4154   2.385   0.283   7.951 -0.3275 -0.0948 -0.2786
  790MOL0     C 4155   2.334   0.401   8.010 -0.7969 -0.4016  0.2430
  790MOL0     O 4156   2.200   0.421   8.019  0.4247  0.2447  0.2411
  790MOL0     C 4157   2.154   0.511   8.118 -0.3111 -0.5243  0.8251
  790MOL0     C 4158   2.001   0.521   8.124 -1.7906 -0.5004  0.4035
  790MOL0     C 4159   1.950   0.617   8.221  0.0657  0.4370 -0.0137
  790MOL0     C 4160   1.792   0.614   8.229  0.4166 -0.2966 -0.2041
  790MOL0     C 4161   1.744   0.727   8.330 -0.6072 -0.4387 -0.1402
  790MOL0     C 4162   1.597   0.697   8.351 -1.1655  0.0449 -0.0597
  790MOL0     C 4163   1.535   0.813   8.431  0.1223  0.2402  0.5729
  790MOL0     C 4164   1.413   0.861   8.356 -0.0843 -0.0521 -0.0470
  790MOL0     N 4165   1.348   0.973   8.435  0.7593  0.7332  0.6878
  790MOL0     C 4166   1.402   1.083   8.484 -0.2071  0.3830 -1.4083
  790MOL0     C 4167   1.309   1.144   8.557  0.4003  0.5412  0.3360
  790MOL0     C 4168   1.334   1.279   8.624  0.9006  0.2065  0.4420
  790MOL0     C 4169   1.259   1.291   8.756  0.0687 -0.6191 -0.3548
  790MOL0     C 4170   1.162   1.414   8.758 -0.4575  0.0602 -1.2802
  790MOL0     C 4171   1.052   1.378   8.671  0.1310  0.3475  0.2144
  790MOL0     O 4172   0.981   1.499   8.641 -0.5205  0.3767  0.0162
  790MOL0     C 4173   0.858   1.480   8.577 -0.2908  0.1644  0.5621
  790MOL0     C 4174   0.772   1.585   8.588  0.3676 -0.4272  0.2072
  790MOL0     C 4175   0.645   1.591   8.530 -0.0504  0.1288 -0.4240
  790MOL0     C 4176   0.602   1.481   8.456 -0.4017  0.3429 -0.5916
  790MOL0     C 4177   0.474   1.476   8.386 -0.2713  0.6014  0.3586
  790MOL0     O 4178   0.411   1.597   8.386  0.0858  0.2733  0.5265
  790MOL0     C 4179   0.284   1.610   8.346 -0.3044 -0.9471 -0.8565
  790MOL0     C 4180   0.180   1.512   8.352 -0.0135  1.0492  0.1967
  790MOL0     C 4181   0.059   1.541   8.293  0.2416  0.0991 -0.2959
  790MOL0     C 4182   0.030   1.673   8.249 -0.1055 -0.3339 -0.3953
  790MOL0     O 4183  -0.087   1.717   8.184  0.2233  0.3104 -0.0426
  790MOL0     C 4184  -0.217   1.664   8.217 -0.5707 -0.1674 -0.5600
  790MOL0     C 4185  -0.309   1.784   8.242 -0.1947  0.5504 -0.4732
  790MOL0     C 4186  -0.275   1.859   8.376 -0.2239  0.1679  0.0401
  790MOL0     C 4187  -0.365   1.976   8.404 -0.4552 -0.3985  0.4107
  790MOL0     C 4188  -0.331   2.033   8.540 -0.1422 -0.0719 -1.4000
  790MOL0     C 4189  -0.415   1.978   8.650  0.4406  0.7031 -0.1788
  790MOL0     C 4190  -0.377   1.998   8.794 -0.8096 -0.1240  0.8957
  790MOL0     C 4191  -0.304   2.139   8.817  0.4796 -0.0347 -0.1478
  790MOL0    Cl 4192  -0.425   2.258   8.762 -0.1468  0.4286 -0.1276
  790MOL0     C 4193   0.125   1.770   8.254  0.2618 -0.1662 -0.5151
  790MOL0     C 4194   0.252   1.743   8.297  0.8600 -0.3430  0.1210
  790MOL0     O 4195   0.428   1.368   8.340  0.7821 -0.6483 -0.7069
  790MOL0     C 4196   0.690   1.369   8.449 -0.0806  0.3323 -0.3264
  790MOL0     C 4197   0.818   1.367   8.508 -0.0964  0.5973  0.3234
  790MOL0     N 4198   1.198   1.064   8.558  0.4828 -0.3210  0.2584
  790MOL0     N 4199   1.222   0.962   8.489  0.2455  0.6982 -0.2772
  790MOL0     C 4200   2.428   0.500   8.046 -0.8654  0.1918 -0.1883
  790MOL0     C 4201   2.566   0.498   8.019  0.6832 -0.5672 -1.0056
  790MOL0     C 4202   2.972   0.302   7.990  0.4941  0.1141  0.4127
  790MOL0     C 4203   3.034   0.332   7.869 -0.3441 -0.6924  0.7225
  790MOL0     C 4204   3.154   0.274   7.830  0.3095 -0.6889  0.2939
  790MOL0     C 4205   3.227   0.193   7.918  0.2423  0.1532 -0.6963
  790MOL0     O 4206   3.350   0.145   7.891  0.2124 -0.2463  0.1597
  790MOL0     C 4207   3.426   0.192   7.778 -0.6424  0.2599  0.0513
  790MOL0     C 4208   3.574   0.140   7.773 -0.2308 -0.2851 -0.4269
  790MOL0     C 4209   3.658   0.195   7.892  0.7107  0.4429  0.4190
  790MOL0     C 4210   3.804   0.160   7.866  0.1873 -0.0121 -1.0010
  790MOL0     C 4211   3.840   0.013   7.888 -0.2780 -0.0480 -0.7698
  790MOL0     C 4212   3.892  -0.099   7.907  0.5536  0.4057  0.0589
  790MOL0     C 4213   3.169   0.175   8.048  0.9337  0.5873 -0.6840
  790MOL0     C 4214   3.042   0.223   8.079 -0.0470  0.4248 -0.2066
  790MOL0     H 4215   2.558   0.189   7.881  2.8938  2.0013 -0.7433
  790MOL0     H 4216   2.326   0.193   7.935 -1.4964  0.3786  1.1396
  790MOL0     H 4217   2.177   0.615   8.094 -0.1094 -0.7066  0.2220
  790MOL0     H 4218   2.198   0.490   8.215  0.3555  1.2166  0.9322
  790MOL0     H 4219   1.953   0.425   8.147 -1.5473 -0.4898  0.9681
  790MOL0     H 4220   1.955   0.531   8.025 -1.8518 -2.1107  0.2379
  790MOL0     H 4221   1.983   0.721   8.212 -0.1074  0.6387  1.4045
  790MOL0     H 4222   1.986   0.588   8.320  1.1212  0.9071 -0.2361
  790MOL0     H 4223   1.743   0.629   8.133  0.7174 -0.2699 -0.3559
  790MOL0     H 4224   1.765   0.512   8.260 -1.7812 -0.2636 -1.8098
  790MOL0     H 4225   1.753   0.821   8.275  1.1502 -1.2126 -1.2685
  790MOL0     H 4226   1.801   0.713   8.422 -0.8369 -0.1149  0.0527
  790MOL0     H 4227   1.574   0.621   8.426 -0.4914 -0.0623  0.0425
  790MOL0     H 4228   1.544   0.669   8.260  0.6906  0.6912 -1.3978
  790MOL0     H 4229   1.491   0.768   8.520 -2.0237  0.1249 -0.4898
  790MOL0     H 4230   1.605   0.893   8.457 -2.3285  3.1980 -1.1677
  790MOL0     H 4231   1.358   0.766   8.350  0.2061 -0.2200 -0.0859
  790MOL0     H 4232   1.425   0.883   8.250  1.3319 -3.2329 -0.6766
  790MOL0     H 4233   1.501   1.120   8.460 -0.3516 -0.1573 -3.0169
  790MOL0     H 4234   1.288   1.346   8.551  0.5589 -1.1625 -0.6450
  790MOL0     H 4235   1.436   1.318   8.617  0.0097  2.5782 -0.2175
  790MOL0     H 4236   1.329   1.284   8.840 -1.4974  1.3982  1.2339
  790MOL0     H 4237   1.200   1.202   8.780  2.7197 -2.5470 -0.5880
  790MOL0     H 4238   1.114   1.427   8.855  2.4724  3.1580 -0.0552
  790MOL0     H 4239   1.211   1.504   8.718  1.7264 -0.3687  0.2435
  790MOL0     H 4240   0.979   1.308   8.713  3.6203 -3.5445  0.4703
  790MOL0     H 4241   1.084   1.340   8.574 -1.1759 -1.6400  0.4832
  790MOL0     H 4242   0.806   1.680   8.629 -0.7043  0.7910 -1.5954
  790MOL0     H 4243   0.581   1.678   8.542 -0.5400 -0.4127  1.0802
  790MOL0     H 4244   0.193   1.414   8.397 -0.8927 -0.7269 -3.1056
  790MOL0     H 4245  -0.006   1.454   8.289  2.8680 -2.0486  0.9780
  790MOL0     H 4246  -0.207   1.589   8.295  0.6500  0.6000  0.0556
  790MOL0     H 4247  -0.250   1.608   8.129 -0.3377 -0.8868 -0.1952
  790MOL0     H 4248  -0.412   1.748   8.246  0.3755 -1.0602  2.1952
  790MOL0     H 4249  -0.289   1.861   8.168  2.2915 -0.4534 -0.9450
  790MOL0     H 4250  -0.177   1.905   8.362 -0.2496  0.0012 -0.7082
  790MOL0     H 4251  -0.272   1.775   8.447  0.9721 -0.7879 -1.0850
  790MOL0     H 4252  -0.342   2.051   8.327  1.5249 -1.4027 -0.0516
  790MOL0     H 4253  -0.471   1.957   8.382 -0.4494  1.4695 -1.5215
  790MOL0     H 4254  -0.344   2.142   8.546  1.9914  0.1481  1.0229
  790MOL0     H 4255  -0.230   2.005   8.571 -1.0203 -1.3755  0.4076
  790MOL0     H 4256  -0.426   1.869   8.637  2.3500  0.6572 -1.9057
  790MOL0     H 4257  -0.516   2.014   8.630 -0.3163  1.0950  3.6658
  790MOL0     H 4258  -0.472   1.996   8.848 -0.9750 -0.6915  0.5969
  790MOL0     H 4259  -0.315   1.914   8.826 -1.2045 -0.6204  0.3888
  790MOL0     H 4260  -0.210   2.151   8.763 -0.0612  1.2023 -0.8445
  790MOL0     H 4261  -0.287   2.153   8.924 -1.9347 -0.3768  0.3355
  790MOL0     H 4262   0.090   1.870   8.231 -2.9991 -0.7153  1.3441
  790MOL0     H 4263   0.321   1.827   8.294 -4.0623  4.2537  1.6124
  790MOL0     H 4264   0.657   1.282   8.393 -0.7195 -0.3722  1.0977
  790MOL0     H 4265   0.888   1.287   8.486  0.0056  0.6590  0.4258
  790MOL0     H 4266   2.398   0.595   8.090  1.2839 -0.1135  2.1542
  790MOL0     H 4267   2.627   0.583   8.048 -0.9113  0.4139 -0.3570
  790MOL0     H 4268   2.981   0.395   7.799  1.2964 -0.6536 -0.5590
  790MOL0     H 4269   3.186   0.312   7.734 -1.1492 -1.7718 -0.6663
  790MOL0     H 4270   3.441   0.299   7.789  2.0722  0.0775 -1.2433
  790MOL0     H 4271   3.378   0.172   7.682  0.3471 -0.0958 -0.3791
  790MOL0     H 4272   3.570   0.031   7.784  0.2964 -0.1709  1.2341
  790MOL0     H 4273   3.613   0.161   7.673 -3.7783  0.1001 -1.8976
  790MOL0     H 4274   3.625   0.161   7.991  1.3713  0.1056  0.5254
  790MOL0     H 4275   3.650   0.304   7.888  0.7387  0.4840  1.3345
  790MOL0     H 4276   3.810   0.179   7.759 -0.3308  1.9704 -0.7173
  790MOL0     H 4277   3.864   0.223   7.933  1.7803 -2.5595  0.1463
  790MOL0     H 4278   3.933  -0.197   7.916  1.8120  0.8178 -0.8897
  790MOL0     H 4279   3.225   0.118   8.121 -1.2977 -0.2686  0.4281
  790MOL0     H 4280   3.005   0.205   8.179  1.1933  0.7313  0.3224
  791MOL0     O 4281   7.533   8.285   2.263  0.0640  0.2929 -0.1536
  791MOL0     C 4282   7.540   8.278   2.138  0.5476  0.2016  0.0067
  791MOL0     O 4283   7.439   8.256   2.053 -0.3246 -0.8770  0.8004
  791MOL0     C 4284   7.311   8.224   2.099 -0.2961  0.5619  0.2107
  791MOL0     C 4285   7.203   8.276   2.026  0.7780  0.3827  0.6397
  791MOL0     C 4286   7.075   8.249   2.072 -0.1538 -0.2019  0.8825
  791MOL0     C 4287   7.054   8.145   2.166  0.0582 -0.8598 -0.1499
  791MOL0     O 4288   6.921   8.119   2.206  0.2638 -0.0765  0.3517
  791MOL0     C 4289   6.838   8.053   2.110  0.6034  0.9445  0.2377
  791MOL0     C 4290   6.703   8.127   2.122 -0.1511  0.8505 -1.0353
  791MOL0     C 4291   6.702   8.268   2.072 -0.4498 -0.5620 -0.1649
  791MOL0     C 4292   6.559   8.313   2.027  0.5571 -0.5526 -0.3546
  791MOL0     C 4293   6.543   8.459   2.008  1.0661 -0.0183 -0.0884
  791MOL0     C 4294   6.394   8.499   1.979 -0.3548 -0.8144 -0.0675
  791MOL0     C 4295   6.390   8.638   1.921 -0.4129  1.2892 -0.4429
  791MOL0     C 4296   6.240   8.662   1.886  0.1070 -0.8425  0.3754
  791MOL0     N 4297   6.226   8.802   1.862  0.0144 -0.9834  0.4850
  791MOL0     C 4298   6.221   8.861   1.736 -0.1821 -0.4380 -0.1449
  791MOL0     C 4299   6.176   8.988   1.743 -0.0002  1.0722 -0.5785
  791MOL0     C 4300   6.132   9.082   1.634 -1.1171  0.9958  0.2096
  791MOL0     C 4301   5.982   9.101   1.617  0.5275  0.0435 -0.4529
  791MOL0     C 4302   5.901   9.116   1.748  0.6072 -0.8163 -0.5469
  791MOL0     C 4303   5.943   9.237   1.833  0.0364 -0.4510  0.5907
  791MOL0     O 4304   5.917   9.365   1.770  0.2335 -0.3056  0.2893
  791MOL0     C 4305   5.940   9.485   1.844  0.2248 -0.2081 -0.0957
  791MOL0     C 4306   5.884   9.598   1.787 -0.2865  0.1103 -0.9474
  791MOL0     C 4307   5.910   9.718   1.845 -0.3781  0.0322 -0.1397
  791MOL0     C 4308   5.989   9.729   1.959 -0.7044  0.1900  0.6294
  791MOL0     C 4309   6.039   9.858   2.006 -0.5362  0.5745 -1.5206
  791MOL0     O 4310   6.118   9.858   2.118 -0.0305  1.0364 -0.1657
  791MOL0     C 4311   6.160   9.982   2.172  0.0194  0.5035 -0.3854
  791MOL0     C 4312   6.206  10.094   2.092 -0.7539  1.0778 -0.3871
  791MOL0     C 4313   6.271  10.200   2.149 -0.0906  0.7213  1.2459
  791MOL0     C 4314   6.279  10.213   2.289 -1.6386 -0.0446 -0.1575
  791MOL0     O 4315   6.347  10.321   2.342 -0.1970  0.0604 -0.3461
  791MOL0     C 4316   6.447  10.303   2.446 -0.7669 -0.4696 -0.0186
  791MOL0     C 4317   6.486  10.447   2.487 -0.3774  0.6523  0.3864
  791MOL0     C 4318   6.609  10.434   2.586  0.0471  0.3236  0.0962
  791MOL0     C 4319   6.639  10.555   2.683 -0.1600  0.8341  0.1094
  791MOL0     C 4320   6.779  10.603   2.654 -0.2465 -0.5908 -0.2671
  791MOL0     C 4321   6.894  10.528   2.719  0.7870  0.0236  0.7466
  791MOL0     C 4322   7.026  10.597   2.697  0.9587 -0.3913 -0.0479
  791MOL0     C 4323   7.138  10.528   2.778  0.0359  0.3720  0.1943
  791MOL0    Cl 4324   7.116  10.547   2.953  0.0442  0.1122 -0.5461
  791MOL0     C 4325   6.237  10.104   2.366  0.6131  0.8929  0.4805
  791MOL0     C 4326   6.188   9.987   2.309  0.0761 -0.1837 -0.5775
  791MOL0     O 4327   6.017   9.959   1.938  0.0094  0.2207 -1.0247
  791MOL0     C 4328   6.036   9.611   2.021  0.0138 -1.1216 -0.0379
  791MOL0     C 4329   6.022   9.487   1.962 -0.4928 -0.4090 -0.3441
  791MOL0     N 4330   6.160   9.016   1.880 -0.3927  0.5173  0.7787
  791MOL0     N 4331   6.178   8.906   1.943 -0.6726  0.6526  0.5622
  791MOL0     C 4332   7.164   8.089   2.234 -0.4890 -0.2431  0.3821
  791MOL0     C 4333   7.290   8.141   2.203  0.1605  0.0328 -0.1997
  791MOL0     C 4334   7.682   8.268   2.087  0.9621 -0.7629  0.1473
  791MOL0     C 4335   7.781   8.325   2.155  0.2903 -1.2426 -0.2483
  791MOL0     C 4336   7.916   8.316   2.110  0.1363 -0.1632  0.1495
  791MOL0     C 4337   7.936   8.257   1.982  0.4054  0.6962  0.4342
  791MOL0     O 4338   8.068   8.262   1.945  0.4218  0.2733  0.4426
  791MOL0     C 4339   8.095   8.180   1.826 -0.5734 -0.0085  0.1167
  791MOL0     C 4340   8.249   8.172   1.822 -0.5792  0.4522 -0.3588
  791MOL0     C 4341   8.315   8.307   1.807  0.3111  0.4539  1.2988
  791MOL0     C 4342   8.458   8.288   1.865 -1.1769 -0.0790 -0.2253
  791MOL0     C 4343   8.541   8.402   1.833  0.5265 -0.9300 -0.4938
  791MOL0     C 4344   8.599   8.506   1.793  1.2195 -0.0637 -0.6101
  791MOL0     C 4345   7.832   8.193   1.915  0.2175  0.3794 -0.1190
  791MOL0     C 4346   7.700   8.204   1.964 -0.3477  0.2189 -0.0692
  791MOL0     H 4347   7.211   8.342   1.940  1.1438 -1.2444 -0.6200
  791MOL0     H 4348   6.986   8.301   2.037  0.6933  1.8117  1.5869
  791MOL0     H 4349   6.816   7.949   2.134  0.0945  0.6611 -1.3399
  791MOL0     H 4350   6.878   8.057   2.008  0.0067 -0.3086 -0.0654
  791MOL0     H 4351   6.683   8.123   2.229  1.7270  8.0334  0.1479
  791MOL0     H 4352   6.623   8.075   2.069  0.4028 -2.7301  1.3381
  791MOL0     H 4353   6.756   8.284   1.978  0.2942  0.2441  0.3790
  791MOL0     H 4354   6.749   8.336   2.145 -1.7049  0.9948 -0.7485
  791MOL0     H 4355   6.539   8.263   1.932  0.9205  0.7473 -1.1330
  791MOL0     H 4356   6.480   8.283   2.097 -0.3092  0.5565 -0.8274
  791MOL0     H 4357   6.613   8.485   1.927  3.4037 -0.1524  1.7842
  791MOL0     H 4358   6.572   8.509   2.100 -1.2524  1.6585 -0.1859
  791MOL0     H 4359   6.324   8.494   2.062 -1.5852  0.3739 -0.9884
  791MOL0     H 4360   6.362   8.431   1.899  0.3073  0.0170 -1.0686
  791MOL0     H 4361   6.431   8.704   1.999 -0.7094  1.4637 -0.4343
  791MOL0     H 4362   6.452   8.641   1.831  0.2234  0.1384 -0.0688
  791MOL0     H 4363   6.175   8.624   1.965 -1.5018 -0.4215 -0.6700
  791MOL0     H 4364   6.222   8.609   1.792  1.0581  0.8087 -0.7932
  791MOL0     H 4365   6.238   8.808   1.642  1.5058 -1.5751  0.7546
  791MOL0     H 4366   6.179   9.035   1.547  0.6355 -0.1725  1.7191
  791MOL0     H 4367   6.171   9.184   1.638  0.6402  0.3799 -0.1755
  791MOL0     H 4368   5.944   9.018   1.556 -1.3502 -1.4521  2.4965
  791MOL0     H 4369   5.967   9.191   1.556 -0.0494 -0.0521 -0.4549
  791MOL0     H 4370   5.795   9.134   1.732  0.1473 -1.9705  0.9921
  791MOL0     H 4371   5.907   9.023   1.806  1.4763  0.3011  1.2222
  791MOL0     H 4372   6.051   9.240   1.850  0.2572  0.1743 -0.7710
  791MOL0     H 4373   5.890   9.227   1.929  0.2862 -0.4877  0.7245
  791MOL0     H 4374   5.809   9.593   1.709 -1.2034  0.1445 -0.0791
  791MOL0     H 4375   5.859   9.805   1.805 -2.8711 -2.2640 -2.4018
  791MOL0     H 4376   6.209  10.064   1.987 -1.4770 -2.1495  0.4018
  791MOL0     H 4377   6.325  10.277   2.093 -0.3744 -0.1617 -0.3061
  791MOL0     H 4378   6.531  10.243   2.410  1.8766  2.4179  0.8929
  791MOL0     H 4379   6.403  10.261   2.536 -2.3931  0.6673 -0.2244
  791MOL0     H 4380   6.413  10.494   2.552 -1.0731  2.6760 -1.7270
  791MOL0     H 4381   6.508  10.503   2.396  2.3399 -2.1131 -0.8528
  791MOL0     H 4382   6.697  10.406   2.528 -0.5603 -0.6304 -0.3884
  791MOL0     H 4383   6.581  10.349   2.648 -0.3611  0.4277  0.0580
  791MOL0     H 4384   6.558  10.629   2.676 -1.5937 -0.7375 -0.8524
  791MOL0     H 4385   6.636  10.518   2.786  3.0194 -0.6517 -0.2162
  791MOL0     H 4386   6.780  10.697   2.709 -2.3006 -0.5262 -0.2648
  791MOL0     H 4387   6.806  10.619   2.549  0.9689 -1.1874 -0.0717
  791MOL0     H 4388   6.900  10.427   2.676  0.8728  1.8126 -4.0071
  791MOL0     H 4389   6.869  10.520   2.825 -2.9357  4.4172  0.5146
  791MOL0     H 4390   7.064  10.598   2.594  2.7941 -2.2126  0.5286
  791MOL0     H 4391   7.021  10.703   2.724 -0.5573 -0.0559 -1.5334
  791MOL0     H 4392   7.236  10.572   2.756  0.3836 -0.5625 -0.1710
  791MOL0     H 4393   7.143  10.420   2.759  1.4938  0.5570 -0.6022
  791MOL0     H 4394   6.248  10.109   2.474  4.6038  2.0240  0.1953
  791MOL0     H 4395   6.152   9.905   2.370  0.1071 -1.0192 -1.6359
  791MOL0     H 4396   6.076   9.604   2.121  1.9996  1.3587 -0.5434
  791MOL0     H 4397   6.069   9.401   2.011  0.9933 -0.1495 -1.2354
  791MOL0     H 4398   7.149   8.013   2.311  3.6042 -1.1375  0.5792
  791MOL0     H 4399   7.361   8.101   2.274 -0.9386 -0.0437  0.9037
  791MOL0     H 4400   7.752   8.386   2.240 -1.6310  0.7669 -2.2142
  791MOL0     H 4401   7.996   8.366   2.162 -1.1206  1.6643  0.4118
  791MOL0     H 4402   8.064   8.231   1.734  0.1033  0.8012  0.3274
  791MOL0     H 4403   8.055   8.078   1.826  1.3787 -0.9057 -2.7991
  791MOL0     H 4404   8.300   8.123   1.906  3.7707  1.1341 -2.3068
  791MOL0     H 4405   8.273   8.112   1.733 -0.2653 -1.6851  1.0910
  791MOL0     H 4406   8.261   8.388   1.855 -0.1655  1.1513 -0.3337
  791MOL0     H 4407   8.307   8.327   1.699  1.3100  2.0018  1.4733
  791MOL0     H 4408   8.451   8.273   1.973 -0.6859  2.8566  0.3044
  791MOL0     H 4409   8.497   8.200   1.813 -4.9932 -2.4182  0.5294
  791MOL0     H 4410   8.625   8.605   1.760  1.2123  0.1170 -0.0806
  791MOL0     H 4411   7.859   8.142   1.823  0.8092  2.4966 -1.1926
  791MOL0     H 4412   7.617   8.160   1.910  1.5371 -2.0300 -1.3405
  792MOL0     O 4413   4.253   6.550   2.324 -0.2904  0.1018 -0.1186
  792MOL0     C 4414   4.283   6.435   2.297 -0.1009  0.7092  0.4284
  792MOL0     O 4415   4.398   6.372   2.298 -1.0412  0.9931 -0.3394
  792MOL0     C 4416   4.499   6.436   2.375  0.7587 -0.7435  0.3603
  792MOL0     C 4417   4.480   6.461   2.510 -0.0744  0.1370  0.5046
  792MOL0     C 4418   4.590   6.500   2.585  0.0088  0.7553  0.4687
  792MOL0     C 4419   4.705   6.541   2.530  0.0528 -0.1451 -0.0580
  792MOL0     O 4420   4.806   6.595   2.603  0.4140 -0.3197 -0.3038
  792MOL0     C 4421   4.767   6.678   2.711 -0.3454  0.2285 -0.3780
  792MOL0     C 4422   4.830   6.801   2.680 -0.0497  0.0970  0.1954
  792MOL0     C 4423   4.840   6.880   2.816 -0.4263 -1.0929 -0.3728
  792MOL0     C 4424   4.901   7.016   2.788 -0.2279  0.4361 -0.1727
  792MOL0     C 4425   4.831   7.112   2.691 -0.3410 -0.6080  0.1943
  792MOL0     C 4426   4.829   7.258   2.734  0.0061  0.1137 -0.2516
  792MOL0     C 4427   4.777   7.348   2.621  0.2019 -0.2365  0.2389
  792MOL0     C 4428   4.614   7.318   2.597 -0.6265  0.1286 -0.4684
  792MOL0     N 4429   4.522   7.368   2.703  0.4550  0.8290 -0.3414
  792MOL0     C 4430   4.521   7.498   2.745  1.3789  0.5759  0.2470
  792MOL0     C 4431   4.417   7.501   2.833 -0.4468  0.4798 -0.4142
  792MOL0     C 4432   4.366   7.631   2.889  1.0498 -0.1283 -0.8540
  792MOL0     C 4433   4.267   7.602   3.001  1.1081  0.0335 -0.1924
  792MOL0     C 4434   4.199   7.733   3.050  0.8163 -0.8675 -0.0784
  792MOL0     C 4435   4.100   7.694   3.161 -0.0053  0.6759 -0.9968
  792MOL0     O 4436   4.054   7.822   3.213 -0.5171 -0.0174  0.1992
  792MOL0     C 4437   3.925   7.853   3.200  0.7993  0.1621  0.3443
  792MOL0     C 4438   3.838   7.782   3.116  0.0824  0.1914  0.4698
  792MOL0     C 4439   3.700   7.799   3.122 -0.2507 -1.2987  0.3082
  792MOL0     C 4440   3.648   7.896   3.208  0.1851  0.2214 -0.1473
  792MOL0     C 4441   3.500   7.929   3.215 -1.1962 -0.0065  0.2334
  792MOL0     O 4442   3.478   8.051   3.261  0.1428 -0.4162  0.5815
  792MOL0     C 4443   3.349   8.113   3.255 -0.0231 -0.8650 -0.3905
  792MOL0     C 4444   3.321   8.202   3.360  0.3783 -0.5610 -0.0675
  792MOL0     C 4445   3.203   8.271   3.370  0.0152  0.5261  0.4862
  792MOL0     C 4446   3.102   8.247   3.274  0.5089  0.0153  0.4350
  792MOL0     O 4447   2.981   8.319   3.258 -0.0956 -0.3577  0.1300
  792MOL0     C 4448   2.934   8.404   3.365 -0.2970 -0.0855 -0.3740
  792MOL0     C 4449   2.828   8.495   3.295  0.0149  0.5211 -0.3605
  792MOL0     C 4450   2.725   8.428   3.198 -0.2835  0.3730 -0.7492
  792MOL0     C 4451   2.609   8.524   3.155 -0.5898 -0.1874  0.1674
  792MOL0     C 4452   2.505   8.544   3.267  0.5685  0.2770  0.0130
  792MOL0     C 4453   2.407   8.425   3.259 -0.6647 -0.2881  0.2374
  792MOL0     C 4454   2.311   8.432   3.370  0.2724  0.4655  1.1998
  792MOL0     C 4455   2.197   8.331   3.371  0.2619  0.3369  0.0096
  792MOL0    Cl 4456   2.260   8.160   3.385  0.3670 -0.2825 -0.0864
  792MOL0     C 4457   3.122   8.152   3.168 -0.8760 -1.2323  0.7227
  792MOL0     C 4458   3.252   8.086   3.156  0.2936  0.7472  0.1061
  792MOL0     O 4459   3.428   7.842   3.167  0.0625 -0.1881  0.4807
  792MOL0     C 4460   3.734   7.974   3.294 -1.1271  0.1006  0.7627
  792MOL0     C 4461   3.875   7.945   3.287 -0.1745  0.0772  1.0457
  792MOL0     N 4462   4.355   7.380   2.840 -0.1742 -0.0376 -0.5385
  792MOL0     N 4463   4.415   7.295   2.763 -0.4162  0.0520  0.2578
  792MOL0     C 4464   4.720   6.539   2.392  0.7818  0.2739  0.2438
  792MOL0     C 4465   4.621   6.481   2.309 -0.2215  0.0478  0.5530
  792MOL0     C 4466   4.163   6.358   2.258  0.0680  0.5745  0.3513
  792MOL0     C 4467   4.039   6.419   2.239  0.3194 -0.2625 -0.8026
  792MOL0     C 4468   3.930   6.352   2.194  0.6694  0.7322 -0.9926
  792MOL0     C 4469   3.942   6.212   2.174  0.6304 -0.0135  0.5808
  792MOL0     O 4470   3.822   6.149   2.140  0.3557 -0.4986  0.1383
  792MOL0     C 4471   3.795   6.015   2.179  0.0517 -0.1485  0.4514
  792MOL0     C 4472   3.703   5.946   2.078  0.7109 -0.4119  0.1720
  792MOL0     C 4473   3.615   5.833   2.149  0.2348  0.0674 -0.5508
  792MOL0     C 4474   3.691   5.731   2.235 -1.1652  0.8859 -0.4001
  792MOL0     C 4475   3.811   5.677   2.176 -1.1126  0.3050  0.5214
  792MOL0     C 4476   3.912   5.632   2.131 -0.5693  0.8907  0.5575
  792MOL0     C 4477   4.060   6.145   2.199  0.1703  0.8298 -0.1396
  792MOL0     C 4478   4.176   6.217   2.233  0.0777 -0.1464  0.2269
  792MOL0     H 4479   4.385   6.439   2.557 -0.7913  2.2914  0.1660
  792MOL0     H 4480   4.571   6.505   2.692 -2.3672  0.8649  0.1053
  792MOL0     H 4481   4.811   6.634   2.801 -0.9793  0.6247  0.1388
  792MOL0     H 4482   4.660   6.699   2.714 -0.0649  2.3114 -2.2982
  792MOL0     H 4483   4.780   6.846   2.594 -0.9079  0.2428  0.7634
  792MOL0     H 4484   4.936   6.781   2.659  0.0164  0.9670 -0.3897
  792MOL0     H 4485   4.904   6.822   2.884 -0.0845 -1.4869 -1.0242
  792MOL0     H 4486   4.742   6.909   2.857  0.7814  0.9139  1.2858
  792MOL0     H 4487   4.922   7.057   2.887  0.7192 -2.4522  0.9265
  792MOL0     H 4488   4.993   7.006   2.730 -0.1589  0.3524 -0.0485
  792MOL0     H 4489   4.727   7.078   2.681 -1.1370  1.2062  1.7809
  792MOL0     H 4490   4.882   7.109   2.594  0.9341  0.0646  0.8252
  792MOL0     H 4491   4.933   7.277   2.763  0.1962 -1.3010  0.0411
  792MOL0     H 4492   4.773   7.269   2.827  0.0005 -1.5639 -0.0327
  792MOL0     H 4493   4.806   7.451   2.645 -1.7548  0.9611 -2.1068
  792MOL0     H 4494   4.830   7.338   2.526  0.8750  2.5247  0.2370
  792MOL0     H 4495   4.591   7.215   2.570  0.0230 -0.7882  2.2250
  792MOL0     H 4496   4.599   7.376   2.505  3.4182 -1.6379 -2.5068
  792MOL0     H 4497   4.583   7.578   2.705  0.4453 -0.4618 -3.7347
  792MOL0     H 4498   4.323   7.690   2.808 -1.7952  1.6544  1.7557
  792MOL0     H 4499   4.444   7.688   2.939 -2.8491  2.6225  2.8046
  792MOL0     H 4500   4.316   7.566   3.092 -1.8058  0.2783  1.5942
  792MOL0     H 4501   4.196   7.523   2.975 -1.0760  1.0303  2.2736
  792MOL0     H 4502   4.280   7.798   3.083 -1.4982  3.3330 -1.9453
  792MOL0     H 4503   4.147   7.782   2.967  3.0968  3.0183  0.5950
  792MOL0     H 4504   4.152   7.642   3.242 -0.1648  1.0755 -0.6283
  792MOL0     H 4505   4.028   7.612   3.149 -1.5806  1.1040  3.4398
  792MOL0     H 4506   3.873   7.702   3.052  1.1055 -0.4557  1.8187
  792MOL0     H 4507   3.642   7.755   3.042 -0.3732  0.2156 -0.4762
  792MOL0     H 4508   3.406   8.231   3.420 -0.8306 -1.4594  2.2380
  792MOL0     H 4509   3.183   8.342   3.449  1.2291  0.4410  0.8836
  792MOL0     H 4510   3.015   8.467   3.401 -0.3587 -1.4441  2.3578
  792MOL0     H 4511   2.899   8.338   3.445 -3.4658 -0.4094 -1.8445
  792MOL0     H 4512   2.885   8.570   3.239  4.0413 -1.6642  0.4313
  792MOL0     H 4513   2.768   8.544   3.372  0.0617  1.0942 -0.6756
  792MOL0     H 4514   2.684   8.338   3.245  0.9129 -1.7847 -3.5571
  792MOL0     H 4515   2.778   8.402   3.106 -0.0181 -0.5239 -0.3530
  792MOL0     H 4516   2.661   8.618   3.136 -0.9750 -0.1752 -0.8816
  792MOL0     H 4517   2.558   8.506   3.060  0.7720  1.5029 -0.9528
  792MOL0     H 4518   2.457   8.639   3.239  0.4841 -0.1057 -1.1952
  792MOL0     H 4519   2.559   8.554   3.362 -2.5353 -0.4648  1.9826
  792MOL0     H 4520   2.463   8.332   3.273 -1.9010 -1.6891 -3.0809
  792MOL0     H 4521   2.363   8.409   3.160  1.1698 -2.2725 -0.3410
  792MOL0     H 4522   2.366   8.434   3.464 -0.5724  0.4782  1.6954
  792MOL0     H 4523   2.269   8.532   3.356  0.9880  0.4108 -2.4467
  792MOL0     H 4524   2.146   8.334   3.274  0.4707 -1.1487 -0.1782
  792MOL0     H 4525   2.128   8.352   3.453 -1.0581  2.8681 -1.6102
  792MOL0     H 4526   3.046   8.128   3.093 -1.0265 -0.0150  0.4635
  792MOL0     H 4527   3.271   8.014   3.077  0.0469 -1.3970  1.9303
  792MOL0     H 4528   3.689   8.040   3.368 -1.5362 -0.7881  1.3281
  792MOL0     H 4529   3.943   8.002   3.350 -0.4104  2.1421 -0.4549
  792MOL0     H 4530   4.807   6.575   2.338  0.2778 -2.1173 -2.3486
  792MOL0     H 4531   4.621   6.479   2.201  0.3233  1.2913  0.5059
  792MOL0     H 4532   4.027   6.527   2.247  1.8286 -0.1774  1.1609
  792MOL0     H 4533   3.837   6.403   2.170  1.8778  3.5309 -0.1223
  792MOL0     H 4534   3.738   6.013   2.272  2.5665  0.1894  2.0906
  792MOL0     H 4535   3.890   5.960   2.178  0.2751  0.1321  2.5087
  792MOL0     H 4536   3.634   6.018   2.034  0.2988 -0.3030  0.9868
  792MOL0     H 4537   3.750   5.893   1.994 -2.2174 -1.2871 -1.0281
  792MOL0     H 4538   3.565   5.772   2.074 -0.3148 -1.1736  0.7912
  792MOL0     H 4539   3.539   5.875   2.215  1.7074  2.7604 -0.3951
  792MOL0     H 4540   3.715   5.781   2.330  1.8289  0.7432 -0.9589
  792MOL0     H 4541   3.628   5.645   2.261 -2.6001  1.1027 -2.8413
  792MOL0     H 4542   3.996   5.584   2.084  0.1497  3.6928 -1.2583
  792MOL0     H 4543   4.076   6.039   2.183  2.3062  0.9844  0.7135
  792MOL0     H 4544   4.269   6.164   2.253  0.0546  1.0757  4.8016
  793MOL0     O 4545   2.551   2.637  11.008 -0.3112 -0.2509 -0.8228
  793MOL0     C 4546   2.546   2.761  11.019  0.3334  0.2851 -0.1192
  793MOL0     O 4547   2.426   2.833  11.005  0.3851  0.1639 -0.3172
  793MOL0     C 4548   2.325   2.785  10.941  0.1482  0.0968  0.3691
  793MOL0     C 4549   2.336   2.709  10.821 -0.6956  0.6568 -1.1279
  793MOL0     C 4550   2.220   2.666  10.755  0.2346  0.4447 -0.1314
  793MOL0     C 4551   2.091   2.686  10.800 -0.2945  0.1190 -0.7905
  793MOL0     O 4552   1.978   2.642  10.738  0.7496 -0.7666  0.5530
  793MOL0     C 4553   1.853   2.712  10.749  0.0808  0.2236  1.1320
  793MOL0     C 4554   1.746   2.640  10.670  0.1323  0.4062  0.2780
  793MOL0     C 4555   1.723   2.507  10.744 -0.5519  0.0593 -0.8296
  793MOL0     C 4556   1.625   2.431  10.660 -0.0655  1.1449 -0.0306
  793MOL0     C 4557   1.484   2.474  10.713 -0.3576  0.1849 -0.1523
  793MOL0     C 4558   1.387   2.373  10.659 -0.6020  0.2383 -0.1594
  793MOL0     C 4559   1.239   2.407  10.700 -0.5027 -0.4355 -0.5363
  793MOL0     C 4560   1.143   2.328  10.620  0.0313  0.4953  0.3134
  793MOL0     N 4561   1.003   2.343  10.657 -0.4141 -0.8485 -0.4721
  793MOL0     C 4562   0.958   2.335  10.786  0.5206  0.1724 -0.4572
  793MOL0     C 4563   0.821   2.343  10.771  1.0275 -0.0206  0.2610
  793MOL0     C 4564   0.737   2.319  10.893  0.2075 -0.1564 -0.0471
  793MOL0     C 4565   0.581   2.323  10.868 -0.7973 -0.0721 -0.6526
  793MOL0     C 4566   0.502   2.351  11.000 -0.4009  1.3071 -0.2425
  793MOL0     C 4567   0.356   2.334  10.974  0.4852 -0.8347  0.2079
  793MOL0     O 4568   0.305   2.456  10.921  0.1700 -1.0893  0.2935
  793MOL0     C 4569   0.162   2.456  10.896 -0.9680  0.1182 -0.7979
  793MOL0     C 4570   0.115   2.567  10.835  0.7391  0.4528 -1.1638
  793MOL0     C 4571  -0.019   2.585  10.827  0.4488 -0.1270 -0.1874
  793MOL0     C 4572  -0.109   2.482  10.873 -0.5811  0.3357 -0.0058
  793MOL0     C 4573  -0.259   2.494  10.847 -1.4485  0.0015 -0.5055
  793MOL0     O 4574  -0.311   2.607  10.794 -0.0946 -0.1290  0.3481
  793MOL0     C 4575  -0.439   2.605  10.735 -1.0101  1.1423  1.7562
  793MOL0     C 4576  -0.550   2.536  10.790  0.6024  0.1697  0.9697
  793MOL0     C 4577  -0.676   2.545  10.725  0.0218  0.2293  0.0903
  793MOL0     C 4578  -0.697   2.629  10.609 -0.5370 -0.6143 -1.0305
  793MOL0     O 4579  -0.826   2.653  10.576  0.9448  0.6060  0.1645
  793MOL0     C 4580  -0.861   2.786  10.580 -0.0073 -0.6283  0.0396
  793MOL0     C 4581  -1.008   2.804  10.595  0.3532  0.2893 -0.0457
  793MOL0     C 4582  -1.065   2.769  10.733 -0.1393  0.1722 -0.4218
  793MOL0     C 4583  -1.221   2.792  10.722 -0.7432 -0.7361 -0.3259
  793MOL0     C 4584  -1.288   2.756  10.853  0.0838  0.2049 -0.5730
  793MOL0     C 4585  -1.439   2.786  10.840  0.7001 -0.3778  0.0753
  793MOL0     C 4586  -1.531   2.735  10.954 -0.0134 -0.6274 -0.1189
  793MOL0     C 4587  -1.488   2.816  11.083  0.0987 -0.0883  1.1154
  793MOL0    Cl 4588  -1.636   2.821  11.197 -0.5026 -0.0551  0.3257
  793MOL0     C 4589  -0.584   2.701  10.557 -0.6493  0.1026  0.3049
  793MOL0     C 4590  -0.452   2.688  10.612 -0.3164  1.2854 -0.0932
  793MOL0     O 4591  -0.324   2.403  10.886  0.9085 -0.6818 -0.3296
  793MOL0     C 4592  -0.056   2.365  10.923 -0.0851 -0.3210  0.6397
  793MOL0     C 4593   0.080   2.350  10.935 -0.4430 -0.1022 -0.0412
  793MOL0     N 4594   0.796   2.339  10.634  0.1780  0.5077  0.5085
  793MOL0     N 4595   0.901   2.356  10.567  0.1212 -0.5084  0.2059
  793MOL0     C 4596   2.086   2.768  10.914  0.9805  1.4054 -0.4027
  793MOL0     C 4597   2.197   2.813  10.984 -0.2509  1.0017 -0.3557
  793MOL0     C 4598   2.668   2.840  11.020  0.2662  0.4262  0.0512
  793MOL0     C 4599   2.652   2.976  11.016  0.5078 -0.2320 -0.5274
  793MOL0     C 4600   2.771   3.044  11.002  0.5763 -0.3957 -0.0875
  793MOL0     C 4601   2.900   2.994  10.993 -0.1323 -0.3386  0.0487
  793MOL0     O 4602   2.999   3.089  10.986 -0.7800 -0.0989 -0.7390
  793MOL0     C 4603   3.134   3.040  10.972  0.3862  0.3483  0.5557
  793MOL0     C 4604   3.154   2.999  10.826  0.7026  0.3886  0.2905
  793MOL0     C 4605   3.284   2.930  10.803 -0.0280 -0.0996  0.2885
  793MOL0     C 4606   3.396   3.031  10.800 -0.3349  0.0078  0.5671
  793MOL0     C 4607   3.444   3.065  10.931 -0.5383  0.6329  0.6617
  793MOL0     C 4608   3.489   3.084  11.040 -1.1251 -0.0372  0.2872
  793MOL0     C 4609   2.909   2.858  10.992 -0.0293  0.6491  0.5897
  793MOL0     C 4610   2.795   2.782  11.024  0.5686 -0.3324 -0.4359
  793MOL0     H 4611   2.432   2.688  10.774  0.4403  0.9502  0.9417
  793MOL0     H 4612   2.238   2.605  10.667  1.7656 -1.6804  1.5532
  793MOL0     H 4613   1.851   2.809  10.698  1.4312  0.2917  1.1772
  793MOL0     H 4614   1.814   2.720  10.851 -3.5035  1.3257 -0.1707
  793MOL0     H 4615   1.781   2.607  10.572  2.8446  2.9877  0.2446
  793MOL0     H 4616   1.664   2.711  10.659  0.0824  0.7927  2.5982
  793MOL0     H 4617   1.688   2.525  10.846  0.4621 -0.8105 -0.3100
  793MOL0     H 4618   1.812   2.444  10.746 -1.4464 -1.2467 -0.4905
  793MOL0     H 4619   1.631   2.453  10.553  3.4913  1.6407  0.1530
  793MOL0     H 4620   1.639   2.323  10.669 -3.0216  0.6620 -0.0277
  793MOL0     H 4621   1.456   2.575  10.684 -0.9082 -0.0126 -0.3245
  793MOL0     H 4622   1.479   2.471  10.822  0.7322 -0.1615 -0.0963
  793MOL0     H 4623   1.412   2.274  10.697 -1.4807  0.7315  1.8425
  793MOL0     H 4624   1.402   2.382  10.551 -0.7759  0.1244 -0.1933
  793MOL0     H 4625   1.215   2.377  10.803 -2.9785  2.8932  0.0282
  793MOL0     H 4626   1.216   2.511  10.676  0.5420 -0.2046 -0.5614
  793MOL0     H 4627   1.172   2.224  10.640  1.4236  1.2944  2.9045
  793MOL0     H 4628   1.157   2.355  10.515  1.8238 -0.0183  0.3868
  793MOL0     H 4629   1.013   2.316  10.877 -1.9555 -1.0730  0.8732
  793MOL0     H 4630   0.772   2.363  10.987 -1.0084 -2.6616  1.7006
  793MOL0     H 4631   0.748   2.212  10.913  1.2923  0.1526  1.1951
  793MOL0     H 4632   0.558   2.234  10.809  0.0582 -0.3270 -0.6093
  793MOL0     H 4633   0.563   2.405  10.798  3.8154  1.5075 -0.3253
  793MOL0     H 4634   0.531   2.278  11.076  0.1968  2.4742  0.6910
  793MOL0     H 4635   0.529   2.447  11.046 -2.2570  0.9211  1.8331
  793MOL0     H 4636   0.308   2.300  11.066 -0.5570 -1.3334 -0.4987
  793MOL0     H 4637   0.342   2.257  10.898 -1.5470 -0.9827  0.6733
  793MOL0     H 4638   0.186   2.648  10.818 -0.9804  2.9727  2.4362
  793MOL0     H 4639  -0.056   2.682  10.795  0.8283  0.2593  0.5169
  793MOL0     H 4640  -0.541   2.473  10.878  0.1208  1.2520  1.8161
  793MOL0     H 4641  -0.755   2.492  10.778 -0.0957 -0.8740 -1.1400
  793MOL0     H 4642  -0.839   2.831  10.482 -2.4951  1.5099  0.3516
  793MOL0     H 4643  -0.807   2.843  10.656  0.0162 -0.2281 -0.2680
  793MOL0     H 4644  -1.059   2.754  10.513  1.7135 -2.4283  0.6605
  793MOL0     H 4645  -1.007   2.913  10.579  5.5435  0.4273 -0.3265
  793MOL0     H 4646  -1.028   2.841  10.806  0.0947  1.3953 -1.7030
  793MOL0     H 4647  -1.048   2.668  10.771 -0.5796 -1.0407 -3.1929
  793MOL0     H 4648  -1.237   2.896  10.693  0.9815  0.0345  1.3024
  793MOL0     H 4649  -1.263   2.718  10.652  2.8794 -2.9035 -0.4628
  793MOL0     H 4650  -1.243   2.811  10.936 -2.0948  1.2658 -0.0272
  793MOL0     H 4651  -1.278   2.647  10.866  2.3360  0.4140 -0.1193
  793MOL0     H 4652  -1.482   2.756  10.744 -0.0027  2.2772 -0.5174
  793MOL0     H 4653  -1.452   2.894  10.840  2.3731 -0.1429 -1.4858
  793MOL0     H 4654  -1.637   2.742  10.931 -0.4194  0.4091  1.9257
  793MOL0     H 4655  -1.508   2.629  10.969  1.7042 -0.0905  1.3271
  793MOL0     H 4656  -1.452   2.914  11.050  0.1020 -0.6187 -0.5651
  793MOL0     H 4657  -1.411   2.761  11.138  1.5716  1.0444  0.2361
  793MOL0     H 4658  -0.598   2.771  10.475 -0.9035  1.8376  1.7686
  793MOL0     H 4659  -0.370   2.742  10.567 -0.3658  0.8039 -0.7770
  793MOL0     H 4660  -0.123   2.281  10.942 -2.5884  0.9785 -1.6293
  793MOL0     H 4661   0.115   2.252  10.963  0.7173 -0.4584 -2.4596
  793MOL0     H 4662   1.996   2.802  10.964 -1.4127 -1.1169 -2.6277
  793MOL0     H 4663   2.180   2.857  11.082 -0.3844  2.7810 -1.1336
  793MOL0     H 4664   2.558   3.031  11.020  0.6681  0.3313 -3.0282
  793MOL0     H 4665   2.766   3.153  11.000  0.9921 -0.3494 -3.4195
  793MOL0     H 4666   3.154   2.947  11.026  3.3809 -0.1654 -1.1908
  793MOL0     H 4667   3.212   3.111  11.003 -0.2031  0.5924  1.5330
  793MOL0     H 4668   3.079   2.922  10.802  0.5845  0.8555 -0.9127
  793MOL0     H 4669   3.140   3.085  10.759  0.1915  0.4169  0.4286
  793MOL0     H 4670   3.279   2.880  10.706  0.2710 -0.8379  0.6419
  793MOL0     H 4671   3.316   2.851  10.872  3.8993  1.3879  0.4649
  793MOL0     H 4672   3.480   2.988  10.743 -0.9031 -1.0075  0.4720
  793MOL0     H 4673   3.373   3.123  10.746  0.9669  0.8467  1.3844
  793MOL0     H 4674   3.520   3.099  11.141  0.4150 -0.3571 -0.1059
  793MOL0     H 4675   3.009   2.816  10.989 -0.6607 -0.8961 -0.4406
  793MOL0     H 4676   2.796   2.674  11.036 -0.8341 -0.2554  0.6659
  794MOL0     O 4677   0.065   9.527   6.300 -0.4134 -0.3693 -0.0412
  794MOL0     C 4678   0.088   9.501   6.186  0.0846 -0.6910  0.9401
  794MOL0     O 4679  -0.000   9.457   6.088  0.6247  0.3857  0.7091
  794MOL0     C 4680  -0.142   9.471   6.082 -0.8500  0.3696 -0.3559
  794MOL0     C 4681  -0.214   9.573   6.146 -0.5553  0.9030 -0.0770
  794MOL0     C 4682  -0.353   9.573   6.141 -0.4663  0.1565 -0.5934
  794MOL0     C 4683  -0.410   9.472   6.060 -0.1594 -0.3369  0.5648
  794MOL0     O 4684  -0.548   9.468   6.047 -0.2768  0.9736 -0.4924
  794MOL0     C 4685  -0.635   9.477   6.165 -0.1706  0.5100  0.4931
  794MOL0     C 4686  -0.780   9.444   6.129  0.2453  0.8115  0.3740
  794MOL0     C 4687  -0.878   9.483   6.238 -0.1524 -0.0054  0.9724
  794MOL0     C 4688  -1.005   9.411   6.220  0.0168 -0.0433  0.3183
  794MOL0     C 4689  -1.114   9.428   6.330  0.8892 -0.9796  0.5212
  794MOL0     C 4690  -1.222   9.317   6.329  0.0705  0.1362  0.1903
  794MOL0     C 4691  -1.330   9.345   6.444 -0.1276  0.5642  0.0452
  794MOL0     C 4692  -1.436   9.463   6.422  0.1519 -0.2841  0.2830
  794MOL0     N 4693  -1.495   9.453   6.288 -0.0835 -0.0203 -0.2005
  794MOL0     C 4694  -1.611   9.373   6.255 -0.4031 -1.1844  0.5652
  794MOL0     C 4695  -1.624   9.393   6.116  0.0882  0.1606 -0.1659
  794MOL0     C 4696  -1.733   9.334   6.022 -0.5353  0.4124 -0.2953
  794MOL0     C 4697  -1.714   9.182   6.013 -0.5927  0.3329  0.6107
  794MOL0     C 4698  -1.786   9.108   6.133  0.3681 -0.6873  0.2805
  794MOL0     C 4699  -1.798   8.958   6.094 -0.7415 -0.5971  0.0866
  794MOL0     O 4700  -1.868   8.885   6.198 -0.1160 -1.1241 -0.3600
  794MOL0     C 4701  -2.008   8.895   6.189  0.0960 -0.0431 -1.2776
  794MOL0     C 4702  -2.082   8.843   6.299 -0.0744 -0.4104 -1.1378
  794MOL0     C 4703  -2.216   8.856   6.317 -0.2824 -0.1419 -0.1385
  794MOL0     C 4704  -2.292   8.921   6.220 -0.6945 -0.2963 -0.3335
  794MOL0     C 4705  -2.429   8.936   6.246 -0.3430 -0.9523 -0.1555
  794MOL0     O 4706  -2.485   8.867   6.352  0.3839  0.0008  0.5337
  794MOL0     C 4707  -2.620   8.894   6.371 -0.0575 -0.1113  0.6227
  794MOL0     C 4708  -2.657   8.970   6.483 -0.4009  0.0263  0.1492
  794MOL0     C 4709  -2.788   9.002   6.512 -0.2525 -0.5934  0.3041
  794MOL0     C 4710  -2.891   8.936   6.440 -0.5871  0.4338 -0.9662
  794MOL0     O 4711  -3.025   8.949   6.457 -0.0265 -0.3240  0.9038
  794MOL0     C 4712  -3.069   9.015   6.568 -0.2751  0.0322  1.0028
  794MOL0     C 4713  -3.212   8.969   6.587  0.0895 -0.0616  0.1566
  794MOL0     C 4714  -3.286   9.036   6.711  0.0209 -0.0788  0.4298
  794MOL0     C 4715  -3.432   8.982   6.716  0.6248  0.2848  0.0419
  794MOL0     C 4716  -3.481   8.997   6.857  0.0608  0.1393 -0.4815
  794MOL0     C 4717  -3.611   8.916   6.860  0.2095  0.3487  0.9664
  794MOL0     C 4718  -3.679   8.926   6.996 -0.3191  0.2444 -0.3460
  794MOL0     C 4719  -3.831   8.868   6.997  0.1723  0.2875 -0.0180
  794MOL0    Cl 4720  -3.935   8.981   6.913 -0.0745 -0.1579  0.1208
  794MOL0     C 4721  -2.850   8.851   6.329 -0.4447 -0.4590  0.4307
  794MOL0     C 4722  -2.715   8.830   6.286 -1.0790  0.5500 -0.2394
  794MOL0     O 4723  -2.481   9.026   6.185 -0.4693 -0.4182 -0.0699
  794MOL0     C 4724  -2.228   8.969   6.106 -0.5033  0.6079 -0.3839
  794MOL0     C 4725  -2.090   8.953   6.087 -0.3736 -0.6397  0.4765
  794MOL0     N 4726  -1.517   9.467   6.078 -0.5283  0.1166 -0.5129
  794MOL0     N 4727  -1.452   9.519   6.179  0.2454  0.3747  0.2734
  794MOL0     C 4728  -0.344   9.380   5.992 -0.6020  0.2413 -0.3953
  794MOL0     C 4729  -0.208   9.378   5.995  0.0486  0.5306 -1.2935
  794MOL0     C 4730   0.222   9.524   6.147 -0.9386 -0.6716  0.5073
  794MOL0     C 4731   0.329   9.488   6.228 -0.0825  0.0543 -0.4445
  794MOL0     C 4732   0.458   9.482   6.179 -0.0460  0.5360  1.1316
  794MOL0     C 4733   0.492   9.523   6.048 -0.3615  0.3852 -0.2130
  794MOL0     O 4734   0.617   9.523   5.983 -0.8038 -0.5573  0.6448
  794MOL0     C 4735   0.728   9.548   6.061 -0.6951 -0.7838  0.2993
  794MOL0     C 4736   0.819   9.653   5.993 -0.4555  0.3095 -0.3654
  794MOL0     C 4737   0.761   9.795   5.962  0.4246 -1.5004  0.4647
  794MOL0     C 4738   0.747   9.892   6.078 -0.3753  0.0044 -0.4276
  794MOL0     C 4739   0.712  10.024   6.039  0.6825 -0.1281 -0.6566
  794MOL0     C 4740   0.682  10.141   6.012 -0.2202 -0.5116  0.5578
  794MOL0     C 4741   0.388   9.544   5.966 -0.1245 -0.8633  0.0480
  794MOL0     C 4742   0.251   9.550   6.010 -0.0422  0.3216 -1.4800
  794MOL0     H 4743  -0.153   9.648   6.196 -0.8097  0.2380  1.2808
  794MOL0     H 4744  -0.416   9.648   6.188 -3.2796 -1.0623 -2.1172
  794MOL0     H 4745  -0.639   9.581   6.198 -0.2040 -0.7227  5.0279
  794MOL0     H 4746  -0.600   9.404   6.238 -0.9754 -0.9090 -0.4842
  794MOL0     H 4747  -0.777   9.336   6.111  0.0450  0.7706  0.5739
  794MOL0     H 4748  -0.809   9.487   6.033  0.4772 -3.0845 -1.6785
  794MOL0     H 4749  -0.891   9.591   6.247  1.3563  0.1161  2.2776
  794MOL0     H 4750  -0.835   9.461   6.336  3.8300 -1.9061 -0.9778
  794MOL0     H 4751  -1.049   9.409   6.120 -2.0371  4.0647  0.9295
  794MOL0     H 4752  -0.984   9.305   6.233 -3.1686 -0.6641  1.1744
  794MOL0     H 4753  -1.161   9.526   6.315  1.7060 -1.0197 -3.1937
  794MOL0     H 4754  -1.061   9.418   6.426  2.5473 -0.5668 -0.3205
  794MOL0     H 4755  -1.172   9.222   6.354 -1.1715 -1.4090 -2.7099
  794MOL0     H 4756  -1.274   9.296   6.235  0.8500  0.4929 -0.3280
  794MOL0     H 4757  -1.389   9.255   6.463 -0.0781  0.1585 -1.5940
  794MOL0     H 4758  -1.277   9.366   6.537 -0.2257  1.0313 -0.0037
  794MOL0     H 4759  -1.382   9.558   6.424 -2.3999  1.4055 -2.7585
  794MOL0     H 4760  -1.501   9.473   6.509  1.4491  1.0211  1.1419
  794MOL0     H 4761  -1.677   9.313   6.317 -1.4338  0.5707  1.2290
  794MOL0     H 4762  -1.726   9.376   5.922  0.7289  1.5801  0.2590
  794MOL0     H 4763  -1.833   9.364   6.054  0.0270  0.3796  1.6559
  794MOL0     H 4764  -1.606   9.165   6.005 -0.3684  0.9654  2.0443
  794MOL0     H 4765  -1.770   9.152   5.924 -3.2409  1.0488  1.9429
  794MOL0     H 4766  -1.738   9.115   6.231  0.3505  3.4423  0.1393
  794MOL0     H 4767  -1.883   9.155   6.150  0.2349  0.0479 -2.1274
  794MOL0     H 4768  -1.701   8.910   6.083  1.1001  2.7339  0.4020
  794MOL0     H 4769  -1.843   8.954   5.994  4.6720  0.7156 -2.7458
  794MOL0     H 4770  -2.020   8.788   6.369  0.0676 -0.1059 -1.0209
  794MOL0     H 4771  -2.257   8.819   6.411  1.7040 -0.8787  0.4762
  794MOL0     H 4772  -2.578   9.005   6.548  0.4452 -1.7095  0.1256
  794MOL0     H 4773  -2.812   9.061   6.600  0.8600  0.1062  0.1423
  794MOL0     H 4774  -3.061   9.125   6.566 -3.2790  0.3668  2.1908
  794MOL0     H 4775  -3.015   8.975   6.654 -2.0326  0.4076  2.3424
  794MOL0     H 4776  -3.214   8.862   6.606 -1.9123  0.0759  0.8674
  794MOL0     H 4777  -3.268   9.004   6.499 -2.4541  2.1792  2.4851
  794MOL0     H 4778  -3.286   9.144   6.725  0.2049 -0.2366  1.7476
  794MOL0     H 4779  -3.228   8.993   6.794  0.7594  0.2508  0.0950
  794MOL0     H 4780  -3.489   9.035   6.639  1.1116  0.0461 -0.4861
  794MOL0     H 4781  -3.419   8.876   6.696  0.8823  0.1134  1.0815
  794MOL0     H 4782  -3.490   9.102   6.884 -2.1994  0.0611 -0.7719
  794MOL0     H 4783  -3.417   8.950   6.933 -2.0762 -1.3163  0.5146
  794MOL0     H 4784  -3.576   8.813   6.851 -0.3002  0.2697 -0.3845
  794MOL0     H 4785  -3.683   8.942   6.782  2.3676  0.9221 -0.9428
  794MOL0     H 4786  -3.615   8.874   7.068 -0.0669  0.8653 -0.1145
  794MOL0     H 4787  -3.678   9.028   7.035 -1.1223  0.4681 -0.8807
  794MOL0     H 4788  -3.854   8.864   7.104  4.7152 -1.7480  1.1291
  794MOL0     H 4789  -3.837   8.764   6.963  5.4688  0.2444 -1.7408
  794MOL0     H 4790  -2.936   8.808   6.277  0.4258 -2.6095  0.6486
  794MOL0     H 4791  -2.699   8.775   6.193 -0.3835  2.5327 -1.3393
  794MOL0     H 4792  -2.279   9.013   6.021 -1.7273 -2.3991 -1.3085
  794MOL0     H 4793  -2.045   9.000   6.000  2.9997 -0.2619  2.2841
  794MOL0     H 4794  -0.399   9.303   5.938 -2.2806  0.4134  0.9829
  794MOL0     H 4795  -0.152   9.308   5.934 -0.7119 -0.7617 -0.5484
  794MOL0     H 4796   0.312   9.489   6.336 -3.6750  0.1824 -0.9052
  794MOL0     H 4797   0.542   9.457   6.243  1.4039 -1.3845 -1.3447
  794MOL0     H 4798   0.786   9.456   6.067  1.0840  0.3292  1.1051
  794MOL0     H 4799   0.698   9.583   6.161 -1.1935  1.6380 -0.6274
  794MOL0     H 4800   0.909   9.659   6.056 -1.6661  0.8529  1.3783
  794MOL0     H 4801   0.853   9.608   5.899  2.0908 -3.4440  2.1011
  794MOL0     H 4802   0.659   9.787   5.924  0.4575 -0.1303  0.0475
  794MOL0     H 4803   0.830   9.839   5.890  0.2530 -0.3474  0.9927
  794MOL0     H 4804   0.677   9.852   6.152  0.9232 -1.5366  0.0285
  794MOL0     H 4805   0.843   9.893   6.131 -1.1640  3.3243  1.1535
  794MOL0     H 4806   0.657  10.237   5.972 -3.6162 -1.9938 -1.2924
  794MOL0     H 4807   0.411   9.561   5.861 -2.5689  2.1603 -0.1643
  794MOL0     H 4808   0.175   9.572   5.935 -2.0553  0.3353  0.4681
  795MOL0     O 4809   2.760   9.479   5.919  0.8532 -0.4185 -0.0322
  795MOL0     C 4810   2.834   9.567   5.881 -0.0406  0.4129 -1.0241
  795MOL0     O 4811   2.793   9.697   5.859  0.2308 -0.0390  0.1849
  795MOL0     C 4812   2.665   9.728   5.887  0.8178 -0.3673  1.1289
  795MOL0     C 4813   2.560   9.680   5.809  0.6343 -0.0984  0.6167
  795MOL0     C 4814   2.428   9.715   5.840 -0.1916  1.0956  0.0922
  795MOL0     C 4815   2.399   9.815   5.936 -0.4165 -0.3116 -0.0842
  795MOL0     O 4816   2.279   9.860   5.984  0.6313 -0.5451 -0.4304
  795MOL0     C 4817   2.160   9.793   5.945 -0.4361 -0.0030 -0.0997
  795MOL0     C 4818   2.154   9.657   6.002 -0.5381 -0.3041 -0.5035
  795MOL0     C 4819   2.014   9.606   5.999  0.3586 -0.0143 -0.5741
  795MOL0     C 4820   2.002   9.464   6.050  0.5983  0.6175  0.9040
  795MOL0     C 4821   1.867   9.426   6.098  0.0750  0.5562 -0.0449
  795MOL0     C 4822   1.747   9.478   6.013  0.1007 -0.0749  0.5003
  795MOL0     C 4823   1.616   9.426   6.072 -0.2499  0.3946  0.0916
  795MOL0     C 4824   1.495   9.445   5.973  0.2100  0.1867  0.0714
  795MOL0     N 4825   1.367   9.385   6.013  0.5484  0.2465  0.1194
  795MOL0     C 4826   1.273   9.333   5.930 -0.0606  0.0859  0.2333
  795MOL0     C 4827   1.155   9.306   6.006  1.0085 -1.4821  0.4878
  795MOL0     C 4828   1.029   9.239   5.947  1.1370  0.9633  0.4334
  795MOL0     C 4829   1.065   9.096   5.918  0.0611 -0.1312  0.4504
  795MOL0     C 4830   0.951   8.994   5.854 -0.3912  0.4080  0.5641
  795MOL0     C 4831   0.836   8.971   5.949 -0.0505  0.2380 -0.3583
  795MOL0     O 4832   0.748   8.887   5.873  0.6056  0.6357  0.2623
  795MOL0     C 4833   0.637   8.823   5.923 -0.2848  0.1486 -0.6808
  795MOL0     C 4834   0.637   8.785   6.057  0.5931 -1.1793 -0.2198
  795MOL0     C 4835   0.524   8.723   6.116 -0.0935 -0.3455 -0.3822
  795MOL0     C 4836   0.413   8.697   6.037 -0.3382  0.6996  0.2139
  795MOL0     C 4837   0.294   8.634   6.093 -0.0953 -0.2157 -1.1086
  795MOL0     O 4838   0.191   8.603   6.016 -0.0710  0.0428  0.0831
  795MOL0     C 4839   0.083   8.545   6.080  0.2143  0.0028 -1.0674
  795MOL0     C 4840   0.090   8.437   6.167 -0.3531  0.0950 -0.3899
  795MOL0     C 4841  -0.019   8.393   6.241  0.1840 -0.4455 -0.0066
  795MOL0     C 4842  -0.142   8.453   6.218 -0.8344 -0.6269  0.2423
  795MOL0     O 4843  -0.243   8.413   6.297  0.5534 -0.2381 -0.1484
  795MOL0     C 4844  -0.363   8.399   6.221  1.1049 -0.3627 -0.6350
  795MOL0     C 4845  -0.467   8.457   6.309 -0.4930 -0.3989  0.1060
  795MOL0     C 4846  -0.596   8.425   6.244  0.0779 -0.2176 -0.9028
  795MOL0     C 4847  -0.702   8.484   6.330  0.5766 -0.7304 -0.1749
  795MOL0     C 4848  -0.840   8.491   6.266  0.0108  0.1881  0.6868
  795MOL0     C 4849  -0.947   8.558   6.339  1.1080  0.8928  0.2158
  795MOL0     C 4850  -1.027   8.480   6.444 -0.3899 -0.4316  0.2562
  795MOL0     C 4851  -1.119   8.560   6.525 -1.9400  0.1762  0.5172
  795MOL0    Cl 4852  -1.250   8.629   6.441 -0.1195 -0.5388  0.5252
  795MOL0     C 4853  -0.151   8.559   6.136  0.2422 -0.0626 -0.2692
  795MOL0     C 4854  -0.038   8.606   6.061  0.0965  0.4071 -0.3553
  795MOL0     O 4855   0.285   8.633   6.221 -0.1181  0.8317  0.9605
  795MOL0     C 4856   0.414   8.719   5.897 -0.4494 -0.8080  0.3230
  795MOL0     C 4857   0.525   8.795   5.840  1.0123 -0.2364 -0.7306
  795MOL0     N 4858   1.181   9.373   6.128  0.0121  0.2665  0.1301
  795MOL0     N 4859   1.310   9.399   6.138 -0.4620 -1.1844 -0.1976
  795MOL0     C 4860   2.508   9.870   6.002 -0.1486 -1.0509 -0.7047
  795MOL0     C 4861   2.638   9.826   5.983  0.1157  0.3667  0.3074
  795MOL0     C 4862   2.978   9.547   5.852  0.1069 -0.1400 -0.1395
  795MOL0     C 4863   3.045   9.439   5.900  0.0055 -0.0466  0.1077
  795MOL0     C 4864   3.174   9.412   5.852 -0.0257 -0.2969 -0.4095
  795MOL0     C 4865   3.232   9.477   5.744 -0.0262 -0.1819  0.0938
  795MOL0     O 4866   3.358   9.444   5.694  0.1496  0.2991 -0.7795
  795MOL0     C 4867   3.462   9.387   5.781 -0.2939  0.0752 -0.0355
  795MOL0     C 4868   3.603   9.419   5.726  0.5691  0.3389 -0.1049
  795MOL0     C 4869   3.630   9.577   5.729  1.3028 -0.1855 -0.5355
  795MOL0     C 4870   3.607   9.648   5.594  0.1286  0.1679 -0.5535
  795MOL0     C 4871   3.713   9.601   5.493 -0.8264  0.2905 -0.0726
  795MOL0     C 4872   3.795   9.556   5.413 -0.0684  0.6682 -0.5973
  795MOL0     C 4873   3.150   9.571   5.675  0.0808  0.3945 -0.4153
  795MOL0     C 4874   3.028   9.608   5.738 -0.4155  0.4574 -0.0050
  795MOL0     H 4875   2.573   9.608   5.730 -1.3782 -0.4222  0.5283
  795MOL0     H 4876   2.355   9.680   5.768  2.5576  0.8976 -2.8274
  795MOL0     H 4877   2.155   9.791   5.835 -0.5052 -0.8036 -0.0894
  795MOL0     H 4878   2.072   9.854   5.971 -1.1000 -0.7486 -0.5558
  795MOL0     H 4879   2.187   9.669   6.105 -2.5313 -1.7084  0.3553
  795MOL0     H 4880   2.232   9.602   5.948  1.1300  2.7224 -1.4316
  795MOL0     H 4881   1.971   9.615   5.899 -0.9221  1.4740  0.0489
  795MOL0     H 4882   1.958   9.674   6.065  1.9322 -1.7199  2.7408
  795MOL0     H 4883   2.023   9.396   5.967  0.7676  1.3947  0.2877
  795MOL0     H 4884   2.085   9.450   6.121  0.5135 -1.7131  0.6074
  795MOL0     H 4885   1.851   9.466   6.198 -2.9203  1.3197 -0.7251
  795MOL0     H 4886   1.857   9.317   6.098  0.1357  0.5490 -0.6355
  795MOL0     H 4887   1.770   9.429   5.918  2.0017 -0.0874  0.9166
  795MOL0     H 4888   1.747   9.586   5.998  1.4359 -0.0889  0.2768
  795MOL0     H 4889   1.614   9.321   6.101  0.0179  0.4231  0.2162
  795MOL0     H 4890   1.589   9.481   6.163 -5.1577  0.0764 -0.8788
  795MOL0     H 4891   1.523   9.400   5.877 -2.3153  2.8164 -2.0565
  795MOL0     H 4892   1.481   9.553   5.959 -2.5330 -0.1990 -0.7164
  795MOL0     H 4893   1.287   9.307   5.826 -0.1953 -2.0197  0.7055
  795MOL0     H 4894   1.005   9.291   5.853  3.4628 -2.3023 -2.2031
  795MOL0     H 4895   0.942   9.230   6.012  0.8456 -0.9256 -0.1623
  795MOL0     H 4896   1.103   9.043   6.005  1.0769  0.3531  0.3277
  795MOL0     H 4897   1.151   9.113   5.851 -0.8390  0.3161 -0.6269
  795MOL0     H 4898   0.914   9.029   5.757  3.0587  0.7390 -0.7916
  795MOL0     H 4899   0.997   8.905   5.810  0.7882  1.4443 -0.3724
  795MOL0     H 4900   0.793   9.063   5.988  0.8328 -1.0467  4.2842
  795MOL0     H 4901   0.864   8.920   6.041 -2.2119 -0.9276 -0.2730
  795MOL0     H 4902   0.729   8.799   6.113  1.9583  2.5997 -2.9376
  795MOL0     H 4903   0.523   8.702   6.223 -3.3570 -0.2718 -0.2974
  795MOL0     H 4904   0.188   8.392   6.177  2.1349  4.4461 -2.3088
  795MOL0     H 4905   0.001   8.315   6.314  2.3336  0.5638  0.5444
  795MOL0     H 4906  -0.395   8.296   6.201 -3.1283  0.1046  2.4372
  795MOL0     H 4907  -0.365   8.451   6.124 -1.7699 -0.8328 -0.9234
  795MOL0     H 4908  -0.452   8.565   6.314 -2.8818 -0.0323  0.7945
  795MOL0     H 4909  -0.459   8.415   6.410 -1.6740 -0.6995  0.0895
  795MOL0     H 4910  -0.615   8.320   6.217  0.0689 -0.7300  0.9376
  795MOL0     H 4911  -0.590   8.474   6.147 -0.3563 -2.0320 -1.9073
  795MOL0     H 4912  -0.713   8.418   6.417  0.5039 -2.2503 -1.3039
  795MOL0     H 4913  -0.673   8.586   6.357 -0.4971 -0.3540 -0.3846
  795MOL0     H 4914  -0.863   8.388   6.237 -0.5107  1.0275 -2.1908
  795MOL0     H 4915  -0.822   8.541   6.170 -1.2778 -0.8277 -0.1284
  795MOL0     H 4916  -1.020   8.594   6.266  0.3704 -1.3713 -0.2290
  795MOL0     H 4917  -0.901   8.650   6.377  3.8714 -0.1081 -0.4355
  795MOL0     H 4918  -1.088   8.410   6.385 -0.6821 -0.2087  0.2919
  795MOL0     H 4919  -0.949   8.429   6.501  1.0348 -1.0605 -2.1054
  795MOL0     H 4920  -1.069   8.640   6.580  0.0124 -0.5565 -0.0942
  795MOL0     H 4921  -1.155   8.492   6.603  3.8532 -1.2722  2.4881
  795MOL0     H 4922  -0.244   8.612   6.120 -0.8147 -1.7585  0.0067
  795MOL0     H 4923  -0.041   8.688   5.990 -0.2584  1.3748  0.7591
  795MOL0     H 4924   0.326   8.702   5.834 -1.0075 -2.3267  1.4436
  795MOL0     H 4925   0.511   8.830   5.739  0.0891  0.2366 -0.4450
  795MOL0     H 4926   2.481   9.949   6.072  0.2785 -2.1866  0.7849
  795MOL0     H 4927   2.726   9.869   6.030 -0.3738  0.9571  0.7109
  795MOL0     H 4928   3.000   9.381   5.979 -2.3189  0.2746 -0.9067
  795MOL0     H 4929   3.228   9.337   5.908 -1.8783  0.6222  2.8367
  795MOL0     H 4930   3.447   9.279   5.779  3.0736 -0.5189  0.6844
  795MOL0     H 4931   3.450   9.427   5.882  0.1649 -1.1974  0.5398
  795MOL0     H 4932   3.668   9.368   5.798  1.5636  1.1021 -0.4371
  795MOL0     H 4933   3.616   9.371   5.629  2.3632 -0.3256  0.4186
  795MOL0     H 4934   3.732   9.601   5.761  0.9644  0.5950 -0.0279
  795MOL0     H 4935   3.567   9.622   5.806  1.7161 -0.2770 -0.1419
  795MOL0     H 4936   3.517   9.604   5.549  1.7577 -2.5415 -1.3947
  795MOL0     H 4937   3.587   9.755   5.605 -1.6410 -0.4047  3.1338
  795MOL0     H 4938   3.862   9.509   5.343  1.7452  1.3525  0.5805
  795MOL0     H 4939   3.186   9.619   5.585  3.2243  2.5723  1.7682
  795MOL0     H 4940   2.978   9.681   5.675 -1.4457 -1.0807 -1.0486
  796MOL0     O 4941   1.058   6.207   1.747 -0.4950 -0.2169  0.0291
  796MOL0     C 4942   1.076   6.270   1.647  0.5357 -0.5380 -0.0115
  796MOL0     O 4943   0.980   6.308   1.567 -0.2608  0.3464  0.5150
  796MOL0     C 4944   0.853   6.259   1.580 -0.0498  0.0024  0.3055
  796MOL0     C 4945   0.801   6.154   1.509 -0.0985 -0.3253 -1.1501
  796MOL0     C 4946   0.666   6.117   1.508 -0.5973  0.3948  0.2230
  796MOL0     C 4947   0.573   6.183   1.592 -0.3198 -0.1498  0.6209
  796MOL0     O 4948   0.447   6.140   1.590 -0.1151 -0.3708  0.3312
  796MOL0     C 4949   0.346   6.246   1.588 -0.7272 -0.1866 -0.3939
  796MOL0     C 4950   0.205   6.195   1.565 -0.7105 -0.2079 -0.4557
  796MOL0     C 4951   0.175   6.116   1.687  0.7131  0.1399  0.1395
  796MOL0     C 4952   0.042   6.043   1.660  0.6347  0.0898 -0.0058
  796MOL0     C 4953   0.007   5.926   1.759 -0.2404 -0.9232  0.6179
  796MOL0     C 4954  -0.046   5.978   1.885  0.8024  0.3536 -0.6130
  796MOL0     C 4955  -0.079   5.859   1.984 -0.4158  0.2774  0.1919
  796MOL0     C 4956  -0.216   5.798   1.953 -1.0246 -0.5309 -0.2945
  796MOL0     N 4957  -0.331   5.894   1.948 -0.1395  0.2466 -0.5432
  796MOL0     C 4958  -0.404   5.961   2.044 -0.6656 -0.2233 -0.1767
  796MOL0     C 4959  -0.509   6.010   1.972  0.5167  0.2837 -0.3297
  796MOL0     C 4960  -0.633   6.092   2.031 -0.2743 -0.1228  0.1998
  796MOL0     C 4961  -0.689   6.017   2.150 -0.4418 -0.2249 -0.0070
  796MOL0     C 4962  -0.801   6.083   2.225  0.8047  0.1706  0.8328
  796MOL0     C 4963  -0.934   6.083   2.163 -0.9009  0.6428 -0.8446
  796MOL0     O 4964  -1.033   6.125   2.263 -1.0502 -0.2244  0.7861
  796MOL0     C 4965  -1.160   6.078   2.245 -1.0305  0.0114  0.0385
  796MOL0     C 4966  -1.240   6.105   2.354 -1.4757  0.3538 -0.5602
  796MOL0     C 4967  -1.376   6.066   2.346  0.1176 -0.6671 -0.7615
  796MOL0     C 4968  -1.440   6.023   2.239  0.0458  0.4890  0.2710
  796MOL0     C 4969  -1.585   5.978   2.237 -1.1585  0.2816  0.4507
  796MOL0     O 4970  -1.635   5.957   2.116 -0.0229 -0.3779 -0.0315
  796MOL0     C 4971  -1.762   5.908   2.101 -0.4997  0.5709 -0.5969
  796MOL0     C 4972  -1.815   5.938   1.976 -0.9319  0.4736 -0.1847
  796MOL0     C 4973  -1.947   5.899   1.940 -0.6609  0.1156  0.6193
  796MOL0     C 4974  -2.017   5.811   2.015 -0.2915  0.6190 -0.6952
  796MOL0     O 4975  -2.138   5.776   1.962  0.5458 -0.5048  0.5108
  796MOL0     C 4976  -2.249   5.759   2.045  0.1662 -0.0515 -0.5257
  796MOL0     C 4977  -2.370   5.717   1.954 -0.1155  0.3315  0.3190
  796MOL0     C 4978  -2.490   5.662   2.044  0.0875 -0.6248  0.0795
  796MOL0     C 4979  -2.623   5.660   1.975  0.7509  0.4673 -1.0585
  796MOL0     C 4980  -2.730   5.583   2.049 -0.1661 -0.9544 -0.1756
  796MOL0     C 4981  -2.854   5.544   1.970 -0.2229 -0.0263 -0.6537
  796MOL0     C 4982  -2.924   5.669   1.908 -0.1632 -0.3757  0.4215
  796MOL0     C 4983  -3.018   5.617   1.802  0.0571 -0.1079 -0.2116
  796MOL0    Cl 4984  -2.927   5.563   1.648  0.2505  0.2771  0.1028
  796MOL0     C 4985  -1.963   5.763   2.130  0.5078  0.3176 -0.1545
  796MOL0     C 4986  -1.835   5.811   2.175  0.6614 -0.0538 -0.6540
  796MOL0     O 4987  -1.647   5.978   2.344 -0.5504  0.0007  0.0762
  796MOL0     C 4988  -1.361   6.001   2.133  0.1639  0.6047 -0.7062
  796MOL0     C 4989  -1.218   6.013   2.132  0.8296 -0.8841 -0.2533
  796MOL0     N 4990  -0.494   5.967   1.840  0.4010  0.4556 -0.1161
  796MOL0     N 4991  -0.385   5.907   1.832  0.3875  0.2172  0.8521
  796MOL0     C 4992   0.629   6.285   1.674  0.5807  0.8840  0.8492
  796MOL0     C 4993   0.762   6.324   1.666 -0.1586 -0.5558 -0.0452
  796MOL0     C 4994   1.209   6.288   1.606  0.4448  0.1112  0.3908
  796MOL0     C 4995   1.226   6.333   1.470 -0.5048 -0.2531  0.2407
  796MOL0     C 4996   1.349   6.338   1.411 -0.9778  0.0087 -1.0613
  796MOL0     C 4997   1.466   6.299   1.485  0.7547  0.2137 -0.4587
  796MOL0     O 4998   1.578   6.308   1.417 -0.7562  0.0057  0.5937
  796MOL0     C 4999   1.704   6.327   1.476 -0.5785 -0.1455 -0.3269
  796MOL0     C 5000   1.796   6.390   1.378 -0.2726  0.2587  0.2475
  796MOL0     C 5001   1.736   6.504   1.306 -0.7872  0.0910 -0.5633
  796MOL0     C 5002   1.840   6.565   1.207  0.1237  0.4834  0.1796
  796MOL0     C 5003   1.965   6.626   1.262 -0.1037  0.1261  0.4932
  796MOL0     C 5004   2.073   6.649   1.315 -0.7261 -0.5001 -0.2455
  796MOL0     C 5005   1.444   6.254   1.621  0.5358 -0.6033 -0.0331
  796MOL0     C 5006   1.315   6.246   1.680 -0.8613  0.7916 -0.2252
  796MOL0     H 5007   0.864   6.082   1.459  2.7943  1.1040  0.2203
  796MOL0     H 5008   0.631   6.035   1.447  0.7959 -0.1186  0.0647
  796MOL0     H 5009   0.383   6.318   1.514 -0.2023  1.4274  1.3821
  796MOL0     H 5010   0.356   6.298   1.683  2.6597 -2.5324  0.7397
  796MOL0     H 5011   0.210   6.121   1.484 -2.0028 -2.2565  1.1964
  796MOL0     H 5012   0.137   6.279   1.548  1.1642  1.1555 -1.6467
  796MOL0     H 5013   0.164   6.181   1.774 -0.9583  0.5175 -0.3084
  796MOL0     H 5014   0.251   6.040   1.705  1.1486  0.7679  1.0241
  796MOL0     H 5015  -0.032   6.122   1.647 -2.6416 -2.5947  0.8324
  796MOL0     H 5016   0.051   6.001   1.560 -1.3704 -2.9519  0.9547
  796MOL0     H 5017   0.100   5.869   1.765  1.0102  1.1087  2.0153
  796MOL0     H 5018  -0.066   5.863   1.708  1.7286 -0.4163 -3.1575
  796MOL0     H 5019  -0.128   6.049   1.877 -0.0728 -0.6009 -0.3076
  796MOL0     H 5020   0.024   6.034   1.948 -0.1246 -2.4258  3.2573
  796MOL0     H 5021   0.001   5.787   1.969 -1.2706 -0.2687 -2.2847
  796MOL0     H 5022  -0.060   5.878   2.090  2.0684 -2.6472  0.4001
  796MOL0     H 5023  -0.232   5.715   2.022 -0.5755  0.8677  1.5876
  796MOL0     H 5024  -0.199   5.749   1.857 -1.2556 -1.4295  0.1198
  796MOL0     H 5025  -0.378   5.961   2.149 -0.4701 -3.2466 -0.1257
  796MOL0     H 5026  -0.712   6.100   1.955  0.7854 -0.4466 -0.9812
  796MOL0     H 5027  -0.602   6.190   2.068  1.6997 -0.7680  0.3856
  796MOL0     H 5028  -0.603   6.008   2.217 -0.2844 -0.6364 -0.2603
  796MOL0     H 5029  -0.711   5.914   2.120  2.5819 -1.1817  0.7028
  796MOL0     H 5030  -0.809   6.025   2.318 -2.2221 -2.8772 -1.0960
  796MOL0     H 5031  -0.766   6.186   2.239  3.3297 -0.7232  1.6980
  796MOL0     H 5032  -0.955   5.989   2.112  4.0213 -1.5024  0.4736
  796MOL0     H 5033  -0.909   6.151   2.080  0.0122 -0.7989 -1.8107
  796MOL0     H 5034  -1.200   6.153   2.442  3.4961 -0.8011 -1.8788
  796MOL0     H 5035  -1.433   6.090   2.436  2.3506  2.5497 -0.0164
  796MOL0     H 5036  -1.745   5.977   1.903 -0.2438 -0.5423 -0.0999
  796MOL0     H 5037  -2.001   5.928   1.851  0.3095  1.1982  0.3609
  796MOL0     H 5038  -2.257   5.851   2.104 -1.8021 -0.1248 -0.6166
  796MOL0     H 5039  -2.227   5.683   2.121 -1.5122 -0.6439 -0.5908
  796MOL0     H 5040  -2.341   5.633   1.890 -3.2362  0.1811 -1.1001
  796MOL0     H 5041  -2.402   5.806   1.900  3.4880  1.1075 -0.8178
  796MOL0     H 5042  -2.499   5.718   2.137 -1.6470 -1.3320  0.3687
  796MOL0     H 5043  -2.463   5.558   2.066  0.5685 -0.8255 -1.3406
  796MOL0     H 5044  -2.654   5.765   1.975 -2.8994 -0.3740  2.1002
  796MOL0     H 5045  -2.607   5.615   1.877 -1.6353 -0.5636 -1.0461
  796MOL0     H 5046  -2.757   5.639   2.139  0.0206 -2.8580  1.1538
  796MOL0     H 5047  -2.687   5.493   2.096  1.6312 -0.2422 -0.3548
  796MOL0     H 5048  -2.922   5.502   2.044  2.4680 -0.7170  1.5939
  796MOL0     H 5049  -2.824   5.465   1.902  2.7463 -1.0716  1.6240
  796MOL0     H 5050  -2.985   5.736   1.970  1.5588  2.3026 -0.6001
  796MOL0     H 5051  -2.853   5.744   1.872 -1.8252 -0.5220 -3.5665
  796MOL0     H 5052  -3.085   5.702   1.784  3.2307  3.4304  2.8811
  796MOL0     H 5053  -3.086   5.536   1.831 -0.6580  0.3627 -0.5267
  796MOL0     H 5054  -2.002   5.686   2.197  2.1111 -0.1616  0.3033
  796MOL0     H 5055  -1.795   5.772   2.268  0.6556 -1.7267 -1.3170
  796MOL0     H 5056  -1.400   5.967   2.038 -2.0500 -1.4128  0.7928
  796MOL0     H 5057  -1.180   5.982   2.036 -1.8040  1.2625 -2.1543
  796MOL0     H 5058   0.565   6.326   1.751 -1.8523 -1.5571  0.3066
  796MOL0     H 5059   0.807   6.406   1.722 -0.3122  0.4843 -1.3929
  796MOL0     H 5060   1.145   6.367   1.406 -0.8746  0.3239  0.9994
  796MOL0     H 5061   1.354   6.373   1.308 -0.5506  0.7114 -0.8095
  796MOL0     H 5062   1.735   6.224   1.495 -1.2381 -0.7290 -2.1582
  796MOL0     H 5063   1.693   6.393   1.563  3.8151  0.0678  0.2882
  796MOL0     H 5064   1.888   6.426   1.426 -1.3296  0.5391  2.1798
  796MOL0     H 5065   1.823   6.311   1.308  0.9875 -0.0154  1.0067
  796MOL0     H 5066   1.705   6.577   1.382  0.3643  0.6492 -0.6187
  796MOL0     H 5067   1.645   6.477   1.252 -0.0944  1.4154 -2.4959
  796MOL0     H 5068   1.868   6.483   1.141 -1.4493 -1.6983  2.0185
  796MOL0     H 5069   1.768   6.621   1.148 -3.4472 -0.3601  3.3052
  796MOL0     H 5070   2.163   6.662   1.372 -0.5092 -2.3522 -0.1240
  796MOL0     H 5071   1.526   6.220   1.683  0.2420  0.5963  1.0464
  796MOL0     H 5072   1.299   6.202   1.778  1.5034  0.1735 -0.0489
  797MOL0     O 5073   7.085   8.495   5.899 -0.2522  0.0832 -0.4746
  797MOL0     C 5074   7.086   8.565   6.006 -0.4653  0.1145  0.5829
  797MOL0     O 5075   6.987   8.574   6.093  0.4856  0.5604  0.3205
  797MOL0     C 5076   6.857   8.522   6.064 -0.5305 -0.2474  0.0048
  797MOL0     C 5077   6.781   8.497   6.164  0.3672  0.6166 -0.4086
  797MOL0     C 5078   6.649   8.443   6.152  0.2599 -0.9303 -0.9882
  797MOL0     C 5079   6.590   8.423   6.026  0.3204  0.7339 -0.1199
  797MOL0     O 5080   6.456   8.374   6.034  0.1478 -0.4358  0.5420
  797MOL0     C 5081   6.385   8.365   5.908  0.3820  0.3230 -0.0601
  797MOL0     C 5082   6.236   8.388   5.936 -0.1430  0.6703 -0.9318
  797MOL0     C 5083   6.171   8.242   5.940 -0.3202 -0.0305 -0.7115
  797MOL0     C 5084   6.131   8.189   5.798 -0.2927 -0.6157 -0.4635
  797MOL0     C 5085   6.068   8.052   5.790 -1.4956  0.1691 -0.4900
  797MOL0     C 5086   6.051   8.001   5.646 -0.1852 -0.5193 -0.5656
  797MOL0     C 5087   6.185   7.960   5.569  0.2660 -0.8360 -0.0719
  797MOL0     C 5088   6.164   7.905   5.426 -0.6574  1.2828  0.0507
  797MOL0     N 5089   6.089   7.778   5.437 -0.3871  0.2237  0.5556
  797MOL0     C 5090   6.072   7.695   5.546  0.0144 -0.1180  0.3867
  797MOL0     C 5091   5.976   7.615   5.499  0.2206  0.5220 -0.0320
  797MOL0     C 5092   5.901   7.501   5.565 -0.1582 -0.8438 -0.2617
  797MOL0     C 5093   5.758   7.547   5.583 -1.4387  0.5200  0.8920
  797MOL0     C 5094   5.724   7.617   5.719 -0.4183  0.6724  0.3547
  797MOL0     C 5095   5.608   7.719   5.695  0.0136  0.6503 -0.7036
  797MOL0     O 5096   5.572   7.779   5.822  0.2387 -0.2817  0.3582
  797MOL0     C 5097   5.454   7.855   5.820  0.5557  0.6561 -0.3803
  797MOL0     C 5098   5.412   7.905   5.943 -0.1153  0.0105  0.9626
  797MOL0     C 5099   5.283   7.973   5.957  0.1126 -0.2715  0.7603
  797MOL0     C 5100   5.200   7.998   5.848 -0.3887  0.5860  0.7862
  797MOL0     C 5101   5.073   8.074   5.867  0.1500 -0.8284 -0.5370
  797MOL0     O 5102   4.995   8.109   5.760 -0.8275 -0.9383  0.5165
  797MOL0     C 5103   4.881   8.192   5.764 -0.1794 -0.1668 -0.4851
  797MOL0     C 5104   4.858   8.303   5.848  0.1694  0.3839  0.1453
  797MOL0     C 5105   4.741   8.390   5.822 -0.5127 -0.0780  0.0183
  797MOL0     C 5106   4.648   8.354   5.721 -1.2341 -0.8181 -0.0172
  797MOL0     O 5107   4.534   8.437   5.714 -0.1552  1.3698 -0.1794
  797MOL0     C 5108   4.478   8.465   5.590  0.3387  0.4023 -0.1682
  797MOL0     C 5109   4.378   8.576   5.601  0.1623 -0.5552 -0.4865
  797MOL0     C 5110   4.296   8.593   5.733  0.0893  0.1826  0.0009
  797MOL0     C 5111   4.165   8.663   5.702 -0.1275  0.1947 -0.5388
  797MOL0     C 5112   4.074   8.672   5.830  0.4667 -0.1468  0.3787
  797MOL0     C 5113   3.936   8.718   5.789 -1.3498 -0.0701  0.4648
  797MOL0     C 5114   3.832   8.698   5.902 -0.1831  1.3730 -0.2487
  797MOL0     C 5115   3.695   8.752   5.870 -0.5214 -0.5107 -0.1707
  797MOL0    Cl 5116   3.636   8.688   5.722  0.3271 -0.1199 -0.0939
  797MOL0     C 5117   4.667   8.238   5.643 -0.1221  0.9636  0.0364
  797MOL0     C 5118   4.787   8.163   5.665 -0.7018  0.0277  0.4552
  797MOL0     O 5119   5.046   8.108   5.985  0.3505  0.4737 -0.0620
  797MOL0     C 5120   5.240   7.953   5.730  0.4228 -0.2196 -0.2677
  797MOL0     C 5121   5.364   7.892   5.716  0.3190  0.0473  0.4652
  797MOL0     N 5122   5.951   7.630   5.363 -0.5103  0.0264 -0.6933
  797MOL0     N 5123   6.027   7.726   5.332 -0.1671  0.9129 -1.3377
  797MOL0     C 5124   6.672   8.472   5.914  0.4392 -0.0942  0.2845
  797MOL0     C 5125   6.801   8.519   5.936  0.0127  0.0722 -0.2331
  797MOL0     C 5126   7.220   8.627   6.044 -0.4182 -0.2855  0.6310
  797MOL0     C 5127   7.233   8.708   6.159 -1.1587  0.6011 -0.1653
  797MOL0     C 5128   7.366   8.752   6.198  0.1522  0.1226  0.3083
  797MOL0     C 5129   7.477   8.715   6.124 -0.2775 -0.9549 -0.2919
  797MOL0     O 5130   7.591   8.780   6.162  0.7022 -0.7095  0.2610
  797MOL0     C 5131   7.702   8.745   6.084 -0.1330 -0.1407  0.3771
  797MOL0     C 5132   7.830   8.816   6.136 -0.1532 -0.4865  0.4553
  797MOL0     C 5133   7.949   8.756   6.070  0.3115  0.4860  0.8010
  797MOL0     C 5134   8.076   8.829   6.121  0.0783  1.0093  0.9734
  797MOL0     C 5135   8.209   8.774   6.069 -0.1134 -0.4057  0.1651
  797MOL0     C 5136   8.312   8.724   6.032  0.7821  0.3821  1.4773
  797MOL0     C 5137   7.461   8.615   6.027  0.4322  0.0787 -0.4760
  797MOL0     C 5138   7.339   8.578   5.984  1.4323 -0.0524  0.2436
  797MOL0     H 5139   6.819   8.529   6.260 -2.0488  0.4053  0.6880
  797MOL0     H 5140   6.591   8.418   6.241  0.3998 -1.5392 -1.0617
  797MOL0     H 5141   6.409   8.271   5.857 -1.0170 -0.3321  0.4482
  797MOL0     H 5142   6.423   8.447   5.845  1.3468 -2.1877 -3.0118
  797MOL0     H 5143   6.186   8.437   5.852  3.6708  4.3404 -1.4015
  797MOL0     H 5144   6.214   8.450   6.023  0.3096  0.3136 -0.5572
  797MOL0     H 5145   6.083   8.240   6.004  0.4633  1.2212  0.4373
  797MOL0     H 5146   6.247   8.178   5.986 -0.0596  1.6351  1.3207
  797MOL0     H 5147   6.057   8.260   5.759 -0.9770 -1.0922 -0.0624
  797MOL0     H 5148   6.224   8.182   5.742  1.1355  0.6878  1.6017
  797MOL0     H 5149   5.971   8.061   5.840 -1.5571 -0.1885 -0.5431
  797MOL0     H 5150   6.135   7.980   5.837 -2.9457 -0.6714  0.3799
  797MOL0     H 5151   6.009   8.084   5.588  0.4607 -0.2224 -0.6176
  797MOL0     H 5152   5.980   7.918   5.642  1.0846 -1.6847  0.2340
  797MOL0     H 5153   6.247   8.050   5.568 -0.2321 -0.4873 -0.2461
  797MOL0     H 5154   6.229   7.883   5.633 -1.5404 -0.4705  1.7356
  797MOL0     H 5155   6.253   7.883   5.366 -1.8070 -0.3905 -1.1435
  797MOL0     H 5156   6.105   7.976   5.367  1.0004  0.1482 -3.2521
  797MOL0     H 5157   6.116   7.701   5.645  1.7926  1.1529 -0.4235
  797MOL0     H 5158   5.932   7.475   5.666 -4.0356  0.6211  1.5396
  797MOL0     H 5159   5.892   7.410   5.505 -1.6905  0.3710 -1.9920
  797MOL0     H 5160   5.693   7.461   5.566  2.4838 -2.6663  0.3053
  797MOL0     H 5161   5.731   7.620   5.507  0.7504 -1.0361 -1.5618
  797MOL0     H 5162   5.706   7.542   5.796  0.2075  2.1431  1.9888
  797MOL0     H 5163   5.801   7.687   5.752 -1.2492  0.5325  2.7595
  797MOL0     H 5164   5.528   7.664   5.642 -0.9115  2.3015 -1.0783
  797MOL0     H 5165   5.630   7.800   5.625 -1.8012 -0.6782 -2.9695
  797MOL0     H 5166   5.488   7.922   6.019  0.3576 -0.7755  0.6671
  797MOL0     H 5167   5.263   8.018   6.054 -2.6328  4.4255 -1.6866
  797MOL0     H 5168   4.938   8.328   5.917  0.9042  2.4273 -1.3585
  797MOL0     H 5169   4.743   8.467   5.898 -0.7756 -0.6269  0.5910
  797MOL0     H 5170   4.419   8.375   5.567  1.6186 -1.1691  2.2088
  797MOL0     H 5171   4.552   8.483   5.512  2.0300 -0.3133  1.1927
  797MOL0     H 5172   4.307   8.566   5.519 -1.6086 -0.5314  0.9791
  797MOL0     H 5173   4.433   8.669   5.583  3.0241 -1.7867  1.1139
  797MOL0     H 5174   4.358   8.642   5.809  0.7038 -2.3896  1.2871
  797MOL0     H 5175   4.272   8.494   5.772 -0.2415  0.5017  0.6170
  797MOL0     H 5176   4.178   8.764   5.662 -1.6461  0.9793  0.8023
  797MOL0     H 5177   4.111   8.610   5.623 -2.2314 -0.0892  1.0160
  797MOL0     H 5178   4.126   8.734   5.905 -0.3463 -1.7479  2.3779
  797MOL0     H 5179   4.077   8.569   5.869 -3.6650 -1.5518 -2.3384
  797MOL0     H 5180   3.900   8.654   5.708  0.9216 -0.7907 -0.0332
  797MOL0     H 5181   3.946   8.819   5.749  4.4786 -0.2712  0.5706
  797MOL0     H 5182   3.827   8.590   5.922  0.5569  0.7924 -2.8158
  797MOL0     H 5183   3.869   8.762   5.982 -0.0522 -1.5895  2.2630
  797MOL0     H 5184   3.703   8.861   5.865 -0.5898 -0.3005  2.5346
  797MOL0     H 5185   3.625   8.735   5.953 -1.3440 -0.8526 -0.9244
  797MOL0     H 5186   4.596   8.216   5.564  1.5694  2.1794 -1.9122
  797MOL0     H 5187   4.807   8.083   5.595  0.1197  1.1296 -0.6102
  797MOL0     H 5188   5.188   7.980   5.638  2.4904  0.9548 -1.1592
  797MOL0     H 5189   5.407   7.876   5.617  1.6814 -0.1773  1.0610
  797MOL0     H 5190   6.635   8.471   5.812 -1.7084  1.3608  0.9611
  797MOL0     H 5191   6.846   8.555   5.844  1.3164 -1.0160 -0.0584
  797MOL0     H 5192   7.143   8.743   6.208 -1.4563  0.0268 -0.2970
  797MOL0     H 5193   7.375   8.808   6.290 -3.5208 -2.6752  2.6667
  797MOL0     H 5194   7.685   8.781   5.982 -0.5677 -0.8098  0.2088
  797MOL0     H 5195   7.716   8.637   6.089  2.8858  0.1528  0.2252
  797MOL0     H 5196   7.818   8.922   6.115 -0.9005 -0.7249 -0.4396
  797MOL0     H 5197   7.832   8.802   6.244  1.0479 -2.0497  0.2658
  797MOL0     H 5198   7.945   8.763   5.960  0.6280  1.5499  0.8422
  797MOL0     H 5199   7.955   8.650   6.098  3.5415  0.3516 -0.0152
  797MOL0     H 5200   8.067   8.930   6.081 -3.2363 -0.4230 -2.6972
  797MOL0     H 5201   8.084   8.812   6.229 -1.1888 -2.1093  0.6988
  797MOL0     H 5202   8.402   8.674   6.002  0.2408  0.7065 -0.8864
  797MOL0     H 5203   7.547   8.575   5.975  1.8189  3.0782 -0.7445
  797MOL0     H 5204   7.334   8.506   5.903  0.1106  1.3581 -1.0048
  798MOL0     O 5205   7.528   0.276   7.987 -0.4971 -0.3994  0.2410
  798MOL0     C 5206   7.576   0.172   8.025  0.1057 -0.3998  0.9101
  798MOL0     O 5207   7.502   0.065   8.063 -0.1521 -0.8007 -0.0087
  798MOL0     C 5208   7.371   0.045   8.037 -0.3481 -0.9755 -0.6509
  798MOL0     C 5209   7.285   0.006   8.142 -0.2514  0.3933  0.0956
  798MOL0     C 5210   7.151  -0.007   8.132 -0.5387 -0.1744 -0.4592
  798MOL0     C 5211   7.083   0.032   8.014 -0.0268  0.0816  0.2467
  798MOL0     O 5212   6.948   0.023   7.994 -0.3376  0.1671  0.1880
  798MOL0     C 5213   6.898  -0.029   7.870  0.0741  0.1450 -0.7110
  798MOL0     C 5214   6.750  -0.047   7.875  0.3215 -0.1793  0.3262
  798MOL0     C 5215   6.705  -0.104   7.742 -0.4894 -0.7302 -0.0496
  798MOL0     C 5216   6.545  -0.114   7.729 -0.5822 -0.1919 -0.1285
  798MOL0     C 5217   6.506  -0.251   7.794  0.2269  0.1083 -0.6051
  798MOL0     C 5218   6.356  -0.258   7.773 -0.1657  0.2090  0.1523
  798MOL0     C 5219   6.297  -0.365   7.870 -0.0210  0.0727  0.1808
  798MOL0     C 5220   6.256  -0.290   7.999  0.2172  0.5659 -0.7634
  798MOL0     N 5221   6.150  -0.363   8.074  0.6085  0.1828  0.8272
  798MOL0     C 5222   6.021  -0.385   8.046  0.4085  0.4127  0.5512
  798MOL0     C 5223   5.967  -0.443   8.156 -0.1318  0.1992  0.0009
  798MOL0     C 5224   5.819  -0.490   8.171 -0.6787 -0.5195  1.0308
  798MOL0     C 5225   5.744  -0.406   8.283 -0.7430  0.2065  0.4815
  798MOL0     C 5226   5.727  -0.260   8.249  0.5218  0.3915 -0.0604
  798MOL0     C 5227   5.632  -0.242   8.127  0.3141 -0.9075  0.3539
  798MOL0     O 5228   5.503  -0.293   8.162  0.3561  0.3283 -0.5161
  798MOL0     C 5229   5.396  -0.230   8.097 -0.2737  0.2382 -0.7226
  798MOL0     C 5230   5.263  -0.252   8.130  0.4935 -0.0471  0.0894
  798MOL0     C 5231   5.151  -0.211   8.050 -0.6837 -0.3882 -0.2106
  798MOL0     C 5232   5.177  -0.131   7.936  1.1832  0.8139  0.1034
  798MOL0     C 5233   5.067  -0.080   7.859  0.8505  0.0604 -0.0611
  798MOL0     O 5234   4.942  -0.141   7.871 -0.4811  0.0138  0.1398
  798MOL0     C 5235   4.831  -0.095   7.798 -0.4738  0.5139 -1.2215
  798MOL0     C 5236   4.706  -0.102   7.849  0.1371  0.1030 -0.1642
  798MOL0     C 5237   4.590  -0.052   7.786 -0.5055 -0.2369  0.1751
  798MOL0     C 5238   4.605   0.009   7.662  0.3389 -0.8695 -0.2488
  798MOL0     O 5239   4.493   0.081   7.617  0.3205 -0.1874  0.7836
  798MOL0     C 5240   4.492   0.178   7.512 -0.5058  0.3404 -0.9054
  798MOL0     C 5241   4.351   0.177   7.439 -0.2300  0.1700  0.6676
  798MOL0     C 5242   4.232   0.169   7.531  0.8252 -0.1024  0.0982
  798MOL0     C 5243   4.101   0.188   7.453 -0.0613  0.1057  0.5652
  798MOL0     C 5244   3.972   0.188   7.534  0.0933  0.4206  0.1877
  798MOL0     C 5245   3.855   0.234   7.446 -0.6286 -0.7112 -0.5735
  798MOL0     C 5246   3.829   0.152   7.323 -0.1214 -0.3136  0.0115
  798MOL0     C 5247   3.739   0.218   7.215  0.5668  0.6397  0.0841
  798MOL0    Cl 5248   3.572   0.252   7.284  0.8842 -0.1351  0.5001
  798MOL0     C 5249   4.732   0.004   7.597 -0.3974  0.3559 -0.1693
  798MOL0     C 5250   4.835  -0.055   7.666  0.1608 -0.4788 -0.5890
  798MOL0     O 5251   5.088   0.012   7.780 -0.1974  0.3059 -0.1457
  798MOL0     C 5252   5.307  -0.109   7.904 -0.6530 -0.0600 -1.1457
  798MOL0     C 5253   5.414  -0.153   7.977  0.2585  0.1871 -0.5339
  798MOL0     N 5254   6.063  -0.441   8.253  0.0861  0.6513 -0.8292
  798MOL0     N 5255   6.172  -0.387   8.211  0.0838 -0.5259  0.0081
  798MOL0     C 5256   7.164   0.088   7.916  0.0487  0.1770  0.5945
  798MOL0     C 5257   7.305   0.088   7.921 -0.0233  1.1895  0.5419
  798MOL0     C 5258   7.723   0.153   7.999 -0.0433  0.2267 -0.4386
  798MOL0     C 5259   7.815   0.242   8.062 -0.5054 -0.0171  1.0944
  798MOL0     C 5260   7.952   0.225   8.052  0.3045 -0.3103 -0.4656
  798MOL0     C 5261   7.994   0.124   7.974  0.4801 -0.6449  0.3647
  798MOL0     O 5262   8.120   0.080   7.965  0.4240  0.0759  0.6394
  798MOL0     C 5263   8.209   0.141   8.062 -0.0419  0.3576  0.4365
  798MOL0     C 5264   8.352   0.079   8.025  0.0743 -0.6460 -0.2484
  798MOL0     C 5265   8.358  -0.075   8.024 -0.3383  0.4510  0.0199
  798MOL0     C 5266   8.495  -0.139   7.992  0.8452 -0.5979  0.5315
  798MOL0     C 5267   8.555  -0.121   7.856  0.3152  0.8933  0.2574
  798MOL0     C 5268   8.587  -0.092   7.746  0.1220  0.1448  0.1750
  798MOL0     C 5269   7.905   0.054   7.896  0.0792  0.4731  1.0883
  798MOL0     C 5270   7.768   0.066   7.903 -0.3318  0.1478  0.6276
  798MOL0     H 5271   7.332  -0.010   8.239 -1.4177  1.2987  0.8424
  798MOL0     H 5272   7.089  -0.033   8.217  0.6796 -2.6784 -0.2643
  798MOL0     H 5273   6.940  -0.128   7.848 -0.0618 -0.6778  2.2431
  798MOL0     H 5274   6.909   0.054   7.800 -3.4044  3.2457  1.9689
  798MOL0     H 5275   6.710   0.053   7.894 -0.8696 -0.3068 -1.2778
  798MOL0     H 5276   6.722  -0.111   7.959 -0.3530  0.0887  0.3099
  798MOL0     H 5277   6.739  -0.209   7.738 -0.5045 -0.7720  0.7430
  798MOL0     H 5278   6.739  -0.051   7.653  2.7835 -0.5963  1.1341
  798MOL0     H 5279   6.492  -0.025   7.765  1.3954  1.6023 -1.4110
  798MOL0     H 5280   6.536  -0.120   7.620  1.2407 -2.8059 -0.2195
  798MOL0     H 5281   6.529  -0.241   7.901 -0.2053  2.6168 -0.6961
  798MOL0     H 5282   6.562  -0.332   7.745  1.5882  0.5883  0.0943
  798MOL0     H 5283   6.351  -0.286   7.667  0.4840 -1.6310  0.5672
  798MOL0     H 5284   6.308  -0.161   7.782 -1.4314 -0.2121 -1.5657
  798MOL0     H 5285   6.205  -0.401   7.824 -1.3111  0.8088  2.0462
  798MOL0     H 5286   6.366  -0.445   7.897 -2.2510 -1.6472  1.1434
  798MOL0     H 5287   6.225  -0.185   7.985 -0.6797 -0.0342 -4.4328
  798MOL0     H 5288   6.343  -0.293   8.065 -1.9963  1.1794  2.4626
  798MOL0     H 5289   5.968  -0.362   7.955 -0.5138  0.2417  1.0406
  798MOL0     H 5290   5.806  -0.597   8.190 -3.1364 -0.8374 -1.7517
  798MOL0     H 5291   5.774  -0.476   8.072  2.5179 -0.0621 -0.4870
  798MOL0     H 5292   5.803  -0.416   8.375 -2.0898  1.4360  1.5214
  798MOL0     H 5293   5.648  -0.456   8.300 -0.9273  0.9705  1.8277
  798MOL0     H 5294   5.679  -0.218   8.338  1.5990  0.4888  0.4939
  798MOL0     H 5295   5.824  -0.210   8.237  1.6098 -2.1784 -4.0574
  798MOL0     H 5296   5.676  -0.279   8.034  1.2191  2.7508 -0.8494
  798MOL0     H 5297   5.628  -0.134   8.108  3.2740 -0.6637  0.6321
  798MOL0     H 5298   5.248  -0.314   8.218  1.9644 -0.6122 -0.0254
  798MOL0     H 5299   5.051  -0.248   8.072 -0.8163 -0.0151 -0.1882
  798MOL0     H 5300   4.692  -0.138   7.951 -0.2326 -2.7779 -1.1310
  798MOL0     H 5301   4.495  -0.042   7.837 -1.9716 -0.0324 -2.3923
  798MOL0     H 5302   4.565   0.154   7.435 -0.9098  1.4963 -1.6678
  798MOL0     H 5303   4.520   0.275   7.554 -2.0488  0.1347  0.7113
  798MOL0     H 5304   4.354   0.095   7.367  4.6162  0.6643 -0.0664
  798MOL0     H 5305   4.349   0.275   7.389 -1.4400  0.1333  0.6071
  798MOL0     H 5306   4.249   0.236   7.616  2.3695 -0.0198 -0.2337
  798MOL0     H 5307   4.234   0.068   7.573  1.9619  0.3430  1.1628
  798MOL0     H 5308   4.101   0.280   7.394  0.5836  1.7797  3.0040
  798MOL0     H 5309   4.094   0.103   7.385  0.1904  0.3388  0.2476
  798MOL0     H 5310   3.989   0.256   7.618 -0.2778  0.7261  0.0179
  798MOL0     H 5311   3.957   0.087   7.574  1.7153  0.2071  0.3323
  798MOL0     H 5312   3.889   0.328   7.400 -2.0511  0.2287  0.2367
  798MOL0     H 5313   3.765   0.244   7.506  0.0118 -2.0325  0.6670
  798MOL0     H 5314   3.926   0.118   7.285  0.8046  0.7793  1.3214
  798MOL0     H 5315   3.770   0.068   7.362 -0.1457 -0.3024 -0.0024
  798MOL0     H 5316   3.715   0.147   7.135  5.7377 -0.3954 -0.9029
  798MOL0     H 5317   3.786   0.307   7.171  0.4365 -0.2306 -1.9681
  798MOL0     H 5318   4.756   0.040   7.497  0.4806 -0.5731 -0.3090
  798MOL0     H 5319   4.934  -0.055   7.623  0.6424  4.1091  0.0306
  798MOL0     H 5320   5.320  -0.047   7.817 -2.2322  0.5922 -0.9503
  798MOL0     H 5321   5.509  -0.129   7.930 -0.8998 -1.0819 -3.8034
  798MOL0     H 5322   7.111   0.137   7.834 -0.1053 -2.8129 -1.2457
  798MOL0     H 5323   7.361   0.132   7.839 -0.6747 -1.4903 -1.4894
  798MOL0     H 5324   7.773   0.319   8.125 -3.5003 -0.5753 -0.0408
  798MOL0     H 5325   8.019   0.282   8.115  0.6752 -0.8017 -0.4160
  798MOL0     H 5326   8.181   0.118   8.165  1.2497 -3.1916  0.1324
  798MOL0     H 5327   8.219   0.249   8.048 -1.5219  0.2552 -2.0464
  798MOL0     H 5328   8.381   0.122   7.928  1.6798 -2.6604 -0.7168
  798MOL0     H 5329   8.428   0.102   8.100 -0.3084  1.3471 -0.4045
  798MOL0     H 5330   8.291  -0.127   7.955  1.2991 -0.2396 -1.1029
  798MOL0     H 5331   8.331  -0.108   8.125  3.8374  0.5616  1.3773
  798MOL0     H 5332   8.565  -0.125   8.075 -1.6020 -0.5736  2.6907
  798MOL0     H 5333   8.470  -0.246   7.993  1.0430 -0.6843 -0.9380
  798MOL0     H 5334   8.615  -0.080   7.643  2.7451 -2.5207  0.4401
  798MOL0     H 5335   7.938  -0.017   7.821 -1.7599 -1.2883  1.8910
  798MOL0     H 5336   7.693   0.008   7.850  1.4898  0.4287 -2.5005
  799MOL0     O 5337  10.177   3.771   3.811 -0.8869  0.3767 -1.0195
  799MOL0     C 5338  10.159   3.893   3.808 -0.3942  0.3641 -0.6333
  799MOL0     O 5339  10.047   3.953   3.759  0.1662 -0.5445  0.3336
  799MOL0     C 5340   9.954   3.877   3.699 -0.0475  0.0094 -0.0716
  799MOL0     C 5341   9.943   3.872   3.560  0.2105 -0.2444 -0.0194
  799MOL0     C 5342   9.840   3.806   3.498  0.6079 -0.1596  0.6373
  799MOL0     C 5343   9.748   3.738   3.574  0.2037  0.0122  0.1988
  799MOL0     O 5344   9.647   3.666   3.522  0.1218 -0.8251 -1.0032
  799MOL0     C 5345   9.677   3.535   3.482  0.0105  0.5654  0.3754
  799MOL0     C 5346   9.627   3.424   3.573  0.2979 -0.0674  0.5109
  799MOL0     C 5347   9.702   3.301   3.533  0.6050 -0.1960 -0.1086
  799MOL0     C 5348   9.637   3.172   3.578 -0.8400 -0.7831 -0.6104
  799MOL0     C 5349   9.513   3.135   3.498 -0.3334  0.3475  0.6434
  799MOL0     C 5350   9.448   3.011   3.549 -0.1615  0.2664  0.4079
  799MOL0     C 5351   9.360   3.053   3.672  0.3844  0.3203  0.3298
  799MOL0     C 5352   9.315   2.920   3.733  0.0942 -0.1133  0.1442
  799MOL0     N 5353   9.261   2.820   3.644  0.1292  0.4317 -0.0514
  799MOL0     C 5354   9.155   2.837   3.555 -0.5248 -0.3310  1.0560
  799MOL0     C 5355   9.158   2.746   3.459 -0.1141 -0.1213 -0.1778
  799MOL0     C 5356   9.060   2.729   3.349 -0.1742  0.0814  0.4637
  799MOL0     C 5357   8.994   2.589   3.362  0.0810 -0.0442  0.1455
  799MOL0     C 5358   8.880   2.575   3.260  0.4842 -0.0530  0.1686
  799MOL0     C 5359   8.833   2.427   3.238 -0.1413  0.4719 -0.5247
  799MOL0     O 5360   8.750   2.379   3.345 -0.0530  0.5483 -0.3802
  799MOL0     C 5361   8.621   2.435   3.370  0.2904  0.1720 -0.2987
  799MOL0     C 5362   8.526   2.448   3.270  0.3562  0.2726 -0.0662
  799MOL0     C 5363   8.400   2.492   3.304 -1.4667 -1.0884  0.2065
  799MOL0     C 5364   8.347   2.487   3.436 -1.0263 -1.0814  0.6242
  799MOL0     C 5365   8.204   2.508   3.467  0.0327 -0.9584 -0.7628
  799MOL0     O 5366   8.141   2.574   3.365 -0.6454  0.4367 -0.5291
  799MOL0     C 5367   8.004   2.603   3.380  0.7616  0.8377  0.0440
  799MOL0     C 5368   7.936   2.631   3.498  0.3137  0.1103  0.0770
  799MOL0     C 5369   7.802   2.659   3.489  0.4672 -0.7064 -0.5771
  799MOL0     C 5370   7.729   2.663   3.379  0.6645  0.0613  0.7426
  799MOL0     O 5371   7.605   2.725   3.380 -0.1670 -0.6424 -0.1555
  799MOL0     C 5372   7.518   2.679   3.277  1.2978  0.3988 -0.9594
  799MOL0     C 5373   7.368   2.683   3.320  0.2829  0.5237 -0.1654
  799MOL0     C 5374   7.322   2.830   3.316  0.7825  0.2833 -0.1483
  799MOL0     C 5375   7.158   2.849   3.305  0.3039  0.2850  0.1280
  799MOL0     C 5376   7.114   2.971   3.375 -0.2602 -0.5169  0.4037
  799MOL0     C 5377   7.168   3.094   3.312 -0.2731 -0.2164 -0.9819
  799MOL0     C 5378   7.072   3.213   3.343  0.0694  1.3423  0.5906
  799MOL0     C 5379   7.023   3.230   3.481  0.9339 -0.6798 -0.4029
  799MOL0    Cl 5380   7.155   3.223   3.614 -0.6261 -0.4886  0.1462
  799MOL0     C 5381   7.790   2.631   3.259 -0.7935 -1.1569  1.0008
  799MOL0     C 5382   7.932   2.603   3.256 -0.3906 -0.6627  0.8277
  799MOL0     O 5383   8.153   2.459   3.570 -0.8785 -0.2771  0.7934
  799MOL0     C 5384   8.437   2.461   3.533  0.3281 -0.2682  0.2534
  799MOL0     C 5385   8.573   2.444   3.504  0.2251  0.0630  0.4359
  799MOL0     N 5386   9.256   2.661   3.498 -0.0590 -0.2795 -1.0969
  799MOL0     N 5387   9.316   2.706   3.603 -0.1604  0.7405  0.5159
  799MOL0     C 5388   9.755   3.746   3.712  0.3943  0.0968 -0.4805
  799MOL0     C 5389   9.856   3.814   3.778 -0.0199 -0.6611 -0.4125
  799MOL0     C 5390  10.254   3.987   3.873 -0.3189 -0.5439  0.5166
  799MOL0     C 5391  10.388   3.951   3.899 -0.1768  0.7804 -0.3144
  799MOL0     C 5392  10.485   4.039   3.947  0.4454 -0.9044  0.2657
  799MOL0     C 5393  10.450   4.175   3.958  0.3104 -0.1847 -0.3272
  799MOL0     O 5394  10.540   4.273   4.002 -0.6872  0.9676 -0.1462
  799MOL0     C 5395  10.658   4.227   4.081 -0.4144  0.4979  0.3217
  799MOL0     C 5396  10.682   4.338   4.183 -0.1145 -0.3129 -0.7349
  799MOL0     C 5397  10.765   4.460   4.147  0.0181  0.5868  0.9866
  799MOL0     C 5398  10.766   4.565   4.260  0.6745  0.1633  0.8935
  799MOL0     C 5399  10.863   4.670   4.225  0.4186 -0.3126  0.6412
  799MOL0     C 5400  10.943   4.764   4.193  0.1086  0.0292 -0.4369
  799MOL0     C 5401  10.322   4.210   3.934  0.0676 -0.2327  0.2356
  799MOL0     C 5402  10.219   4.124   3.893 -0.1254 -0.2392  0.7027
  799MOL0     H 5403  10.013   3.925   3.497 -0.7908 -0.3596 -1.2568
  799MOL0     H 5404   9.816   3.811   3.392 -3.0302  1.6543  1.3778
  799MOL0     H 5405   9.775   3.517   3.438 -0.8303 -1.0777 -0.9550
  799MOL0     H 5406   9.608   3.521   3.398 -0.4061  2.5256  0.3450
  799MOL0     H 5407   9.519   3.408   3.577 -0.0355  1.7887 -0.1460
  799MOL0     H 5408   9.652   3.450   3.677  0.2847  0.4392  0.3904
  799MOL0     H 5409   9.800   3.309   3.582  1.6970 -1.1785 -2.0335
  799MOL0     H 5410   9.726   3.309   3.427 -0.3789  1.5037 -0.2452
  799MOL0     H 5411   9.716   3.097   3.566  1.6839  1.1322  2.2019
  799MOL0     H 5412   9.622   3.170   3.687 -1.2982  0.0169 -0.6564
  799MOL0     H 5413   9.534   3.109   3.393  1.7640  0.2274  1.0575
  799MOL0     H 5414   9.443   3.219   3.502 -0.0297  0.5765  1.1297
  799MOL0     H 5415   9.526   2.936   3.569  0.4412 -0.3144 -3.3291
  799MOL0     H 5416   9.383   2.970   3.471 -4.2746  3.7637  1.6615
  799MOL0     H 5417   9.419   3.094   3.755 -0.7215 -0.7059  1.6892
  799MOL0     H 5418   9.274   3.115   3.648  0.2715  0.4528  1.0387
  799MOL0     H 5419   9.238   2.932   3.810  1.8178  0.2633  1.8760
  799MOL0     H 5420   9.398   2.877   3.789 -0.7894 -0.3659  1.2997
  799MOL0     H 5421   9.093   2.926   3.556  0.3479  0.4926 -2.6253
  799MOL0     H 5422   9.116   2.724   3.255 -1.6602  2.2623 -0.6263
  799MOL0     H 5423   9.000   2.820   3.340  0.9484  0.8734  0.8360
  799MOL0     H 5424   8.965   2.580   3.467  4.8722  0.4621  1.7935
  799MOL0     H 5425   9.069   2.510   3.346  1.1284  1.0244 -0.3446
  799MOL0     H 5426   8.794   2.634   3.291 -0.6398 -1.2674 -0.5471
  799MOL0     H 5427   8.910   2.605   3.159 -2.7244  0.5673 -0.7095
  799MOL0     H 5428   8.909   2.353   3.211 -0.4892  0.4018 -1.3130
  799MOL0     H 5429   8.776   2.439   3.146 -1.8890 -2.5968  0.0610
  799MOL0     H 5430   8.545   2.432   3.165 -1.4681  2.7889 -0.8667
  799MOL0     H 5431   8.328   2.502   3.223 -1.4361 -1.8191  0.0819
  799MOL0     H 5432   7.986   2.632   3.594  2.3363 -1.8115 -0.8738
  799MOL0     H 5433   7.770   2.680   3.591  1.1976 -0.0928 -0.4713
  799MOL0     H 5434   7.542   2.574   3.255  1.0437  0.1431 -0.0483
  799MOL0     H 5435   7.528   2.740   3.187  2.3856 -1.7067 -2.3561
  799MOL0     H 5436   7.362   2.639   3.420 -3.8947  0.9779 -0.0404
  799MOL0     H 5437   7.304   2.619   3.258 -2.1882  0.3404  2.3908
  799MOL0     H 5438   7.373   2.890   3.240 -0.6595 -0.5732 -1.8608
  799MOL0     H 5439   7.357   2.867   3.413  1.8015  0.1555 -0.4636
  799MOL0     H 5440   7.124   2.837   3.202 -2.0268 -2.6600  1.0983
  799MOL0     H 5441   7.108   2.765   3.355 -1.6383 -0.6887 -3.1346
  799MOL0     H 5442   7.154   2.973   3.477  2.6199 -0.4392 -0.6263
  799MOL0     H 5443   7.006   2.979   3.385 -0.2728  1.2445 -0.6066
  799MOL0     H 5444   7.170   3.090   3.203 -0.4488  3.2845 -1.2301
  799MOL0     H 5445   7.267   3.109   3.356 -0.9887 -0.6081  0.8584
  799MOL0     H 5446   7.122   3.307   3.320  1.3826  0.7401  0.9149
  799MOL0     H 5447   6.982   3.185   3.287  0.2934  0.3764  0.6990
  799MOL0     H 5448   6.942   3.157   3.496  1.9911 -1.8153 -0.0215
  799MOL0     H 5449   6.976   3.329   3.477  1.7211 -0.3305 -1.0556
  799MOL0     H 5450   7.749   2.657   3.162  3.4610  5.5448  0.3252
  799MOL0     H 5451   7.987   2.589   3.164 -1.3129 -3.1406  0.5729
  799MOL0     H 5452   8.395   2.452   3.632 -0.9505 -0.5616 -0.2965
  799MOL0     H 5453   8.649   2.415   3.577  0.5463  1.5160  0.7078
  799MOL0     H 5454   9.689   3.676   3.762  0.3350 -0.2583 -1.0392
  799MOL0     H 5455   9.869   3.825   3.885 -6.0510 -0.0703  0.5934
  799MOL0     H 5456  10.414   3.847   3.881 -1.1966  0.1497  1.5984
  799MOL0     H 5457  10.587   4.013   3.973  0.7635  1.1818  1.3359
  799MOL0     H 5458  10.745   4.209   4.018 -0.2589  1.2465  0.3138
  799MOL0     H 5459  10.641   4.136   4.139  0.8025  0.4974  0.6884
  799MOL0     H 5460  10.582   4.370   4.210  0.9447  1.1549  1.7470
  799MOL0     H 5461  10.738   4.286   4.261 -0.6583  0.5320  0.2317
  799MOL0     H 5462  10.717   4.508   4.062 -1.1378  0.7820  1.7251
  799MOL0     H 5463  10.865   4.435   4.110 -1.5001 -2.7144 -1.3510
  799MOL0     H 5464  10.666   4.599   4.287  0.5412 -0.2690  0.9569
  799MOL0     H 5465  10.795   4.519   4.354  0.0502  0.5836  1.3012
  799MOL0     H 5466  10.999   4.852   4.167 -0.9943  0.5081 -1.2134
  799MOL0     H 5467  10.293   4.307   3.972  1.2623 -0.7554  2.6562
  799MOL0     H 5468  10.122   4.165   3.868 -0.9388 -2.2081  0.4566
  800MOL0     O 5469   9.921  10.810   2.431 -0.0873 -0.1963 -0.1046
  800MOL0     C 5470   9.911  10.734   2.337  0.8447  0.2433  0.4410
  800MOL0     O 5471   9.788  10.709   2.265 -0.7051 -0.0420 -0.5058
  800MOL0     C 5472   9.669  10.772   2.289 -0.3036 -0.0693  0.4195
  800MOL0     C 5473   9.649  10.890   2.365  0.2822 -0.6612  0.2552
  800MOL0     C 5474   9.523  10.936   2.398  0.4292  0.1057 -0.4752
  800MOL0     C 5475   9.412  10.871   2.346  0.2902  0.1313 -0.1591
  800MOL0     O 5476   9.292  10.916   2.393 -0.2512  0.9473 -0.1860
  800MOL0     C 5477   9.176  10.836   2.370  0.9895 -0.4615 -0.0565
  800MOL0     C 5478   9.043  10.907   2.425 -0.6175 -0.8637  0.4680
  800MOL0     C 5479   9.053  11.061   2.386 -0.3866  0.8410  0.6024
  800MOL0     C 5480   8.912  11.121   2.408  0.4917 -0.7588  0.3598
  800MOL0     C 5481   8.899  11.281   2.399  0.0792  0.5212 -0.2300
  800MOL0     C 5482   8.947  11.344   2.263 -0.0800 -0.4354  0.0916
  800MOL0     C 5483   8.934  11.488   2.272  0.5721  0.5958 -0.5447
  800MOL0     C 5484   9.061  11.556   2.307  0.2295 -0.1219  1.1659
  800MOL0     N 5485   9.135  11.590   2.178 -0.4596  0.1996 -0.2284
  800MOL0     C 5486   9.151  11.720   2.147 -0.1266 -0.2940  0.6596
  800MOL0     C 5487   9.233  11.709   2.035 -0.2995 -0.3914 -0.7096
  800MOL0     C 5488   9.297  11.818   1.950 -0.2520 -0.3262  0.4763
  800MOL0     C 5489   9.416  11.886   2.027  0.1706  0.5513 -0.6331
  800MOL0     C 5490   9.526  11.951   1.927 -0.6092 -0.1750  0.4222
  800MOL0     C 5491   9.665  11.973   1.993 -0.3580 -0.5317 -0.3065
  800MOL0     O 5492   9.636  12.062   2.097 -0.6577  0.3163  0.1184
  800MOL0     C 5493   9.747  12.105   2.175 -0.7515  0.2116  1.0657
  800MOL0     C 5494   9.739  12.205   2.271  0.3167 -0.4780 -0.6927
  800MOL0     C 5495   9.851  12.237   2.353 -0.0116  0.1494  0.9549
  800MOL0     C 5496   9.968  12.164   2.351 -0.1013  0.8394  0.1082
  800MOL0     C 5497  10.079  12.191   2.443  0.6532  0.0535 -0.2275
  800MOL0     O 5498  10.172  12.093   2.453 -1.3375 -0.4530  0.4012
  800MOL0     C 5499  10.303  12.096   2.515  0.7065 -0.2417 -0.8069
  800MOL0     C 5500  10.405  12.013   2.461 -0.4033 -0.5342  0.2158
  800MOL0     C 5501  10.525  12.002   2.531  0.0594 -0.7354  0.5013
  800MOL0     C 5502  10.545  12.071   2.649 -0.2023  1.0377  0.1913
  800MOL0     O 5503  10.662  12.056   2.725  0.3379  0.2771  0.3044
  800MOL0     C 5504  10.769  11.969   2.683 -0.7713  0.3913  1.2247
  800MOL0     C 5505  10.858  12.026   2.565  0.5286  0.8330 -1.1190
  800MOL0     C 5506  10.916  12.154   2.620 -0.9777 -0.1996 -0.2973
  800MOL0     C 5507  11.037  12.202   2.541  0.1161 -0.7395  0.0978
  800MOL0     C 5508  11.122  12.314   2.604  0.1398 -0.2180 -0.0062
  800MOL0     C 5509  11.196  12.264   2.723  0.1774  0.4102 -0.8216
  800MOL0     C 5510  11.270  12.372   2.794  0.2154 -0.9998  0.0433
  800MOL0     C 5511  11.314  12.345   2.934  0.1815  1.2986 -0.3013
  800MOL0    Cl 5512  11.409  12.193   2.956  0.0219  0.0436  0.1225
  800MOL0     C 5513  10.449  12.156   2.700  0.1295  0.3472 -0.7435
  800MOL0     C 5514  10.324  12.171   2.632 -0.3718  0.4832 -0.3578
  800MOL0     O 5515  10.087  12.299   2.500 -0.8744 -0.7578  0.3988
  800MOL0     C 5516   9.982  12.070   2.249  0.7480 -0.2721  0.2244
  800MOL0     C 5517   9.876  12.036   2.171  0.3805  1.1093  0.6961
  800MOL0     N 5518   9.261  11.575   2.004 -0.2159  0.3683 -0.3496
  800MOL0     N 5519   9.202  11.505   2.095  0.1035 -1.4720 -0.7614
  800MOL0     C 5520   9.425  10.762   2.255 -0.5772 -0.9910 -0.2116
  800MOL0     C 5521   9.555  10.717   2.233 -0.5049 -0.0585 -0.0519
  800MOL0     C 5522  10.026  10.655   2.282  0.7916 -0.4999  0.0864
  800MOL0     C 5523  10.003  10.543   2.203 -1.0710  0.0604  0.0777
  800MOL0     C 5524  10.107  10.453   2.181  0.7156  0.0150 -0.6428
  800MOL0     C 5525  10.238  10.485   2.230 -0.4640  0.4020 -0.1675
  800MOL0     O 5526  10.342  10.401   2.216  0.3651  0.0800  0.1861
  800MOL0     C 5527  10.374  10.343   2.090 -0.5836 -0.8766  0.4812
  800MOL0     C 5528  10.407  10.438   1.973 -0.6755 -0.2286 -0.5338
  800MOL0     C 5529  10.489  10.366   1.860 -0.3332  0.2817 -1.2747
  800MOL0     C 5530  10.592  10.462   1.801  0.6310  0.0740 -0.5514
  800MOL0     C 5531  10.557  10.589   1.745  0.3349 -1.1409  0.0917
  800MOL0     C 5532  10.535  10.698   1.707 -0.1379  0.6238 -0.2110
  800MOL0     C 5533  10.258  10.594   2.312  0.0478  0.3839  0.3694
  800MOL0     C 5534  10.156  10.678   2.343  0.3720 -0.1976 -0.3691
  800MOL0     H 5535   9.731  10.950   2.405  0.5066 -1.0212  0.3451
  800MOL0     H 5536   9.513  11.034   2.443 -0.1101  0.1594 -0.7019
  800MOL0     H 5537   9.189  10.732   2.404 -0.9218 -0.3095  1.3071
  800MOL0     H 5538   9.151  10.825   2.264  1.4434 -1.2366 -0.0937
  800MOL0     H 5539   9.047  10.899   2.534  4.6332 -0.6747  0.5258
  800MOL0     H 5540   8.956  10.855   2.382  0.2308 -1.7052 -0.2577
  800MOL0     H 5541   9.093  11.081   2.286 -1.2111  1.3728  0.3669
  800MOL0     H 5542   9.125  11.101   2.458  0.9886 -0.4210 -0.0171
  800MOL0     H 5543   8.851  11.075   2.330  0.3533  1.2491 -0.7700
  800MOL0     H 5544   8.871  11.086   2.504 -0.9842  0.1575  0.0896
  800MOL0     H 5545   8.965  11.318   2.478 -0.8360  1.7843 -0.0323
  800MOL0     H 5546   8.798  11.309   2.431 -0.3872 -0.1219 -1.1063
  800MOL0     H 5547   8.883  11.314   2.180  2.6649  0.6886 -2.6174
  800MOL0     H 5548   9.047  11.307   2.241  0.1667  0.6131 -0.6394
  800MOL0     H 5549   8.899  11.522   2.174 -0.1071  0.9497 -0.1866
  800MOL0     H 5550   8.859  11.513   2.348 -1.0897  0.2892 -2.0288
  800MOL0     H 5551   9.129  11.491   2.362  3.0947 -1.0709 -2.9947
  800MOL0     H 5552   9.046  11.644   2.371 -0.0033  0.3095  0.5255
  800MOL0     H 5553   9.115  11.816   2.182  0.7997  0.2074  0.2627
  800MOL0     H 5554   9.230  11.900   1.920  0.8449  0.3092 -0.3616
  800MOL0     H 5555   9.339  11.773   1.859 -0.3287  1.9556 -0.7662
  800MOL0     H 5556   9.480  11.812   2.077  1.5237  2.5154  0.7030
  800MOL0     H 5557   9.387  11.958   2.105  1.5260  0.8306 -0.3579
  800MOL0     H 5558   9.541  11.886   1.841 -3.4459 -1.8328  1.0372
  800MOL0     H 5559   9.489  12.048   1.891  1.1198 -0.9631 -4.1552
  800MOL0     H 5560   9.726  12.025   1.919  0.6017  1.1928  1.6137
  800MOL0     H 5561   9.701  11.882   2.042  0.4769  0.4447  0.9305
  800MOL0     H 5562   9.652  12.270   2.282  0.6130 -0.1895 -0.0140
  800MOL0     H 5563   9.844  12.323   2.419 -0.5470 -0.6246  1.9464
  800MOL0     H 5564  10.391  11.960   2.367  1.1751  1.3077 -1.1331
  800MOL0     H 5565  10.585  11.920   2.492 -0.6831 -0.6118 -1.0106
  800MOL0     H 5566  10.731  11.869   2.663 -0.7207  0.0786  2.5629
  800MOL0     H 5567  10.836  11.966   2.770  0.8568  0.7292  0.0276
  800MOL0     H 5568  10.794  12.058   2.483  1.0699 -0.0399 -1.8937
  800MOL0     H 5569  10.926  11.947   2.531  0.9004  1.4864 -1.9125
  800MOL0     H 5570  10.965  12.137   2.717 -0.1410 -1.5472 -0.9305
  800MOL0     H 5571  10.840  12.233   2.624  1.5775  2.5797 -2.0949
  800MOL0     H 5572  11.097  12.110   2.541 -1.7141 -1.9781 -0.3746
  800MOL0     H 5573  11.011  12.229   2.439 -1.7622 -0.8050  0.5190
  800MOL0     H 5574  11.054  12.395   2.633  0.4243  0.3197 -0.7980
  800MOL0     H 5575  11.193  12.348   2.528 -1.2293  1.4775 -0.6219
  800MOL0     H 5576  11.261  12.182   2.691 -1.0106 -2.0817  2.4979
  800MOL0     H 5577  11.131  12.225   2.801  0.1958  0.0850 -0.9662
  800MOL0     H 5578  11.357  12.394   2.732 -1.0149 -0.7931 -1.6544
  800MOL0     H 5579  11.209  12.463   2.792  0.1474 -1.0575 -0.6561
  800MOL0     H 5580  11.226  12.331   2.996  0.5964  1.5418  0.3507
  800MOL0     H 5581  11.362  12.431   2.983  1.8859 -1.0516  2.4829
  800MOL0     H 5582  10.473  12.211   2.790 -1.0601  1.1147 -0.8647
  800MOL0     H 5583  10.247  12.239   2.669 -0.3314 -0.2635  1.1796
  800MOL0     H 5584  10.072  12.010   2.249  1.5586  0.9207 -0.6856
  800MOL0     H 5585   9.882  11.942   2.118 -1.6585  1.0108  0.5414
  800MOL0     H 5586   9.341  10.722   2.200 -2.0190 -0.7235  1.6946
  800MOL0     H 5587   9.585  10.631   2.174  0.3619  0.3425 -0.2082
  800MOL0     H 5588   9.905  10.538   2.158 -0.6885  3.5234 -1.4325
  800MOL0     H 5589  10.093  10.374   2.108  1.4610  0.4656 -1.2909
  800MOL0     H 5590  10.287  10.281   2.066 -0.4359 -2.3577  3.3584
  800MOL0     H 5591  10.461  10.280   2.109  1.2412  2.1614  3.1072
  800MOL0     H 5592  10.316  10.492   1.943 -1.8739 -0.5997  2.1363
  800MOL0     H 5593  10.471  10.518   2.013 -0.7815 -0.3575 -0.0949
  800MOL0     H 5594  10.430  10.320   1.780 -3.1969  2.1857 -0.4191
  800MOL0     H 5595  10.551  10.289   1.905  1.5017  1.9957 -0.7032
  800MOL0     H 5596  10.665  10.483   1.879 -0.1713 -1.0334  0.5291
  800MOL0     H 5597  10.645  10.418   1.717 -2.1977 -2.2229 -1.3061
  800MOL0     H 5598  10.512  10.795   1.665 -1.6651  0.8628  1.0824
  800MOL0     H 5599  10.355  10.617   2.356 -0.2142  2.1839  0.0680
  800MOL0     H 5600  10.167  10.764   2.409  1.6794  0.6692 -1.6576
  801MOL0     O 5601   3.874   1.357   7.867 -0.1500  0.3623 -0.7263
  801MOL0     C 5602   3.983   1.324   7.804  1.2295 -0.1177  0.3017
  801MOL0     O 5603   3.988   1.229   7.706 -0.5348 -0.3469 -0.3544
  801MOL0     C 5604   3.867   1.169   7.665 -0.3922 -0.4459  0.1615
  801MOL0     C 5605   3.796   1.096   7.768 -0.3145 -0.1053 -0.1072
  801MOL0     C 5606   3.665   1.048   7.738 -0.7442 -0.1848  0.0874
  801MOL0     C 5607   3.602   1.059   7.615 -0.0641 -0.0151  0.3404
  801MOL0     O 5608   3.477   1.011   7.582 -0.3371 -0.9964 -0.1404
  801MOL0     C 5609   3.388   1.118   7.562 -0.4310  0.0899  0.1493
  801MOL0     C 5610   3.239   1.067   7.569  1.2957  0.0413 -0.1966
  801MOL0     C 5611   3.138   1.162   7.500  0.1268  0.5901 -0.5216
  801MOL0     C 5612   2.998   1.099   7.494 -0.6247  0.4267 -0.6521
  801MOL0     C 5613   2.892   1.182   7.422  0.1670  0.7005 -0.6862
  801MOL0     C 5614   2.753   1.116   7.438 -0.0906  1.5403  0.3730
  801MOL0     C 5615   2.649   1.178   7.354 -0.2932 -0.1138 -0.6115
  801MOL0     C 5616   2.517   1.098   7.375 -0.8153  0.4275 -0.2654
  801MOL0     N 5617   2.523   0.975   7.296  0.8431 -0.1257 -0.1676
  801MOL0     C 5618   2.473   0.964   7.172  0.2533 -0.3847  0.0678
  801MOL0     C 5619   2.481   0.835   7.136 -0.4208  0.9494 -0.1533
  801MOL0     C 5620   2.441   0.763   7.012  0.5764 -0.8300  0.5740
  801MOL0     C 5621   2.408   0.863   6.901  0.1699  0.0696  0.7150
  801MOL0     C 5622   2.391   0.790   6.762 -0.7484 -0.4191 -0.1897
  801MOL0     C 5623   2.275   0.694   6.751  0.7163  0.1036  0.3288
  801MOL0     O 5624   2.262   0.653   6.608  0.0601 -0.4154 -0.5030
  801MOL0     C 5625   2.139   0.600   6.568  0.7780  0.2588  0.3094
  801MOL0     C 5626   2.022   0.686   6.577  0.0375 -0.7544  0.4552
  801MOL0     C 5627   1.896   0.623   6.547 -0.2776  0.2978 -0.2580
  801MOL0     C 5628   1.888   0.500   6.492  0.4629  0.0183 -0.7347
  801MOL0     C 5629   1.755   0.443   6.433  0.1001  0.8975 -0.3531
  801MOL0     O 5630   1.640   0.517   6.433  0.8559 -0.2209 -0.4174
  801MOL0     C 5631   1.522   0.492   6.364 -0.2179 -0.2674  1.1626
  801MOL0     C 5632   1.417   0.570   6.393  0.0029  0.3902  0.0384
  801MOL0     C 5633   1.292   0.547   6.333  0.1284  0.5978  0.2888
  801MOL0     C 5634   1.278   0.442   6.234  0.2312 -0.0089  0.1267
  801MOL0     O 5635   1.156   0.407   6.171 -0.2863 -0.4730 -0.2173
  801MOL0     C 5636   1.028   0.452   6.220 -1.8116  0.1510 -0.2433
  801MOL0     C 5637   0.911   0.408   6.134 -0.0814 -0.7356  0.2232
  801MOL0     C 5638   0.774   0.465   6.173 -0.0210 -0.4296  1.1040
  801MOL0     C 5639   0.651   0.435   6.071 -0.0333  0.0420  0.9285
  801MOL0     C 5640   0.525   0.407   6.149  0.6584 -1.3465  0.1421
  801MOL0     C 5641   0.407   0.393   6.057 -0.7121  0.7264  0.2450
  801MOL0     C 5642   0.278   0.327   6.114  0.5778  0.5986  0.3880
  801MOL0     C 5643   0.302   0.174   6.125  0.3809 -0.0219  0.0385
  801MOL0    Cl 5644   0.147   0.108   6.171 -0.2852  0.1018  0.1085
  801MOL0     C 5645   1.385   0.366   6.198 -0.0939  0.6998 -0.5424
  801MOL0     C 5646   1.508   0.386   6.260  0.6925 -0.6811 -0.2817
  801MOL0     O 5647   1.759   0.326   6.384  0.1535  0.0146  0.2269
  801MOL0     C 5648   2.001   0.413   6.499 -0.4853  0.8197  0.6592
  801MOL0     C 5649   2.128   0.464   6.533  0.4188  0.4585  0.7555
  801MOL0     N 5650   2.529   0.769   7.248  0.5466 -0.3272  0.5800
  801MOL0     N 5651   2.544   0.854   7.341 -0.3718  0.6454 -0.2303
  801MOL0     C 5652   3.683   1.115   7.516  0.7297 -0.2412 -0.2215
  801MOL0     C 5653   3.811   1.162   7.536  0.4713  0.5200  0.4194
  801MOL0     C 5654   4.099   1.409   7.823 -0.1501  0.2787  0.3168
  801MOL0     C 5655   4.221   1.373   7.762  0.9897 -0.2272 -1.0277
  801MOL0     C 5656   4.328   1.450   7.786 -1.2438 -0.1219  0.4659
  801MOL0     C 5657   4.317   1.566   7.866  0.2002  0.0624 -0.0675
  801MOL0     O 5658   4.415   1.653   7.901 -0.1491 -0.4886  0.0259
  801MOL0     C 5659   4.541   1.642   7.831  0.1382  0.5618 -0.5485
  801MOL0     C 5660   4.628   1.533   7.895 -0.7173 -0.2679 -0.2174
  801MOL0     C 5661   4.689   1.584   8.026 -0.2039  0.3902 -0.0551
  801MOL0     C 5662   4.774   1.470   8.092 -0.3496 -0.0624  0.3960
  801MOL0     C 5663   4.906   1.475   8.030 -0.6534 -0.3790 -1.0048
  801MOL0     C 5664   5.004   1.502   7.976 -0.4057 -0.1786  0.6120
  801MOL0     C 5665   4.197   1.599   7.931 -0.8995 -0.5067  0.4087
  801MOL0     C 5666   4.089   1.522   7.907  1.1659  1.0063 -0.3155
  801MOL0     H 5667   3.831   1.084   7.870 -3.0637 -0.0364  0.9278
  801MOL0     H 5668   3.613   0.994   7.817  1.1813 -0.7631  1.0352
  801MOL0     H 5669   3.412   1.159   7.464  3.2073 -0.3384  0.7052
  801MOL0     H 5670   3.417   1.201   7.628 -1.8811  0.6446  0.1307
  801MOL0     H 5671   3.199   1.048   7.669 -0.3596  0.8979 -0.6713
  801MOL0     H 5672   3.240   0.967   7.524  1.4837 -1.7301  3.3685
  801MOL0     H 5673   3.166   1.173   7.395  5.1217 -1.7702  0.2508
  801MOL0     H 5674   3.122   1.251   7.561 -2.9003  0.4226 -0.9028
  801MOL0     H 5675   3.004   1.000   7.448 -0.5178 -0.4928  1.2339
  801MOL0     H 5676   2.968   1.097   7.599  1.0226  2.8520 -0.0493
  801MOL0     H 5677   2.920   1.187   7.317  2.8568 -1.5194 -0.1857
  801MOL0     H 5678   2.882   1.276   7.476 -2.5921 -0.4498  1.0007
  801MOL0     H 5679   2.712   1.111   7.539  1.6273 -4.2599  1.1928
  801MOL0     H 5680   2.763   1.013   7.402 -1.8589  0.9664  1.4327
  801MOL0     H 5681   2.617   1.277   7.388 -0.0916 -0.1762 -0.2317
  801MOL0     H 5682   2.679   1.176   7.249  2.1806 -2.5772  0.0046
  801MOL0     H 5683   2.436   1.156   7.331  0.7259  1.5565 -1.7512
  801MOL0     H 5684   2.502   1.063   7.477  0.7955 -4.1416 -1.3353
  801MOL0     H 5685   2.427   1.041   7.111 -2.8168 -1.9493  0.2545
  801MOL0     H 5686   2.345   0.710   7.024  0.5403 -1.2186 -1.1410
  801MOL0     H 5687   2.517   0.697   6.970 -0.2930  0.5646 -3.7473
  801MOL0     H 5688   2.490   0.935   6.894 -1.0816  1.8508  2.8970
  801MOL0     H 5689   2.317   0.919   6.924 -1.2083 -1.4396 -0.7487
  801MOL0     H 5690   2.373   0.862   6.682  2.6812 -2.5014 -3.1169
  801MOL0     H 5691   2.485   0.736   6.753 -0.2517 -0.2970  2.9095
  801MOL0     H 5692   2.184   0.747   6.781  2.6274  4.0787 -0.2342
  801MOL0     H 5693   2.290   0.610   6.820 -1.5295  0.6222  1.5375
  801MOL0     H 5694   2.036   0.782   6.624  0.0507 -0.4140 -0.2364
  801MOL0     H 5695   1.813   0.693   6.555 -0.8708 -0.3925 -0.2966
  801MOL0     H 5696   1.431   0.645   6.470  0.2298 -1.3762  1.8213
  801MOL0     H 5697   1.208   0.598   6.378 -0.3113 -1.8969  2.5331
  801MOL0     H 5698   1.031   0.562   6.216  0.7950  0.1506  0.1321
  801MOL0     H 5699   1.016   0.413   6.321 -0.9027 -4.0188 -1.5405
  801MOL0     H 5700   0.906   0.301   6.115  1.9146 -0.5560 -1.7814
  801MOL0     H 5701   0.922   0.455   6.035  0.1029  1.3592  1.1908
  801MOL0     H 5702   0.782   0.573   6.179  0.1102 -0.4152  0.6841
  801MOL0     H 5703   0.748   0.432   6.275 -3.7161  0.0828  0.4567
  801MOL0     H 5704   0.649   0.515   5.995  1.1828 -2.4694 -1.9639
  801MOL0     H 5705   0.674   0.346   6.012 -0.7021 -0.7438  1.8228
  801MOL0     H 5706   0.505   0.489   6.219 -3.4251 -1.8090 -0.2155
  801MOL0     H 5707   0.545   0.316   6.207 -1.0463 -0.8327  1.6082
  801MOL0     H 5708   0.443   0.341   5.967  3.0553  3.2779  0.0258
  801MOL0     H 5709   0.398   0.497   6.025 -1.2318  0.9023  0.9475
  801MOL0     H 5710   0.256   0.365   6.214 -5.1964  1.8567 -1.0297
  801MOL0     H 5711   0.196   0.349   6.045  0.3018 -1.1466  0.0997
  801MOL0     H 5712   0.382   0.153   6.196  0.4790 -2.2900 -0.6666
  801MOL0     H 5713   0.328   0.138   6.025 -0.8989  1.2204 -0.7826
  801MOL0     H 5714   1.379   0.287   6.124  3.1433  0.3193 -0.5270
  801MOL0     H 5715   1.586   0.313   6.241 -0.3001 -1.7220 -0.4290
  801MOL0     H 5716   2.000   0.313   6.458 -0.6179 -0.5121  3.6443
  801MOL0     H 5717   2.212   0.397   6.542  0.9132  1.1403  1.3369
  801MOL0     H 5718   3.644   1.120   7.415 -1.7932 -1.1659  0.6328
  801MOL0     H 5719   3.872   1.214   7.463 -1.1589 -1.3517 -2.5073
  801MOL0     H 5720   4.231   1.284   7.702 -0.2433 -2.0002  1.2487
  801MOL0     H 5721   4.417   1.422   7.729 -2.0484  0.7312 -1.2868
  801MOL0     H 5722   4.599   1.734   7.818  2.0395 -0.7086 -1.6133
  801MOL0     H 5723   4.519   1.614   7.727  0.6678 -0.3593 -0.4224
  801MOL0     H 5724   4.578   1.437   7.907 -2.2365  0.6362  0.9456
  801MOL0     H 5725   4.706   1.506   7.823 -0.1276 -0.9378  0.6586
  801MOL0     H 5726   4.607   1.608   8.095 -1.1528  1.0163 -1.3715
  801MOL0     H 5727   4.744   1.677   8.008 -1.5341  1.4743  1.1856
  801MOL0     H 5728   4.778   1.482   8.200 -0.7915  2.1784  0.2047
  801MOL0     H 5729   4.720   1.376   8.073  0.0953 -0.1451 -0.5063
  801MOL0     H 5730   5.089   1.512   7.911 -1.9129 -1.6209 -1.7522
  801MOL0     H 5731   4.168   1.684   7.991 -2.1390 -0.7584  0.1795
  801MOL0     H 5732   3.997   1.564   7.947  0.3992  0.4220 -1.4254
  802MOL0     O 5733   6.991   7.542   0.962 -0.5354  0.2418  0.4801
  802MOL0     C 5734   6.880   7.586   1.001 -0.4436 -0.5382 -0.5385
  802MOL0     O 5735   6.851   7.623   1.135  0.4957  0.1774  0.5163
  802MOL0     C 5736   6.945   7.601   1.232 -0.2152 -0.3480  0.1134
  802MOL0     C 5737   6.982   7.479   1.284 -0.3239  0.7697 -0.6316
  802MOL0     C 5738   7.092   7.470   1.376 -0.3837 -0.0005 -0.0879
  802MOL0     C 5739   7.152   7.586   1.434 -0.2572  0.8725 -0.0271
  802MOL0     O 5740   7.249   7.593   1.529  0.0280  0.5514  0.0491
  802MOL0     C 5741   7.284   7.471   1.592 -0.4428 -0.3677  0.4919
  802MOL0     C 5742   7.417   7.489   1.671 -0.5081 -0.3035 -1.1995
  802MOL0     C 5743   7.486   7.354   1.705  0.0617 -0.6381  0.3963
  802MOL0     C 5744   7.634   7.367   1.754  0.6126 -0.3007 -0.9127
  802MOL0     C 5745   7.689   7.228   1.783  0.8625  1.1936  0.5910
  802MOL0     C 5746   7.694   7.132   1.660  0.6835  0.0443  0.1733
  802MOL0     C 5747   7.749   6.998   1.720 -0.4067  0.4892  0.5955
  802MOL0     C 5748   7.903   7.018   1.736  0.2176 -0.0139  1.3733
  802MOL0     N 5749   7.964   6.891   1.759  0.4264  0.1350 -0.4552
  802MOL0     C 5750   8.033   6.821   1.669 -0.0545  0.1309 -0.3609
  802MOL0     C 5751   8.108   6.732   1.734  1.2684 -0.3698 -0.2261
  802MOL0     C 5752   8.208   6.647   1.659  0.0393 -0.4563  1.1151
  802MOL0     C 5753   8.166   6.498   1.669 -0.8649  0.6757  0.3961
  802MOL0     C 5754   8.075   6.459   1.548  0.2239 -0.2350 -0.9412
  802MOL0     C 5755   8.064   6.311   1.556 -0.3295  0.0543  1.1814
  802MOL0     O 5756   7.994   6.264   1.442 -0.1807 -0.4079  0.3446
  802MOL0     C 5757   7.871   6.208   1.442 -0.4969 -0.2496  0.1637
  802MOL0     C 5758   7.835   6.136   1.328  1.1787  0.6450 -0.7835
  802MOL0     C 5759   7.701   6.086   1.328 -1.1073 -0.2074 -0.1809
  802MOL0     C 5760   7.615   6.125   1.435  1.0043  0.6494  0.1367
  802MOL0     C 5761   7.473   6.075   1.428 -0.4470 -0.0036  0.7659
  802MOL0     O 5762   7.386   6.145   1.500 -0.1706 -0.2133  0.2052
  802MOL0     C 5763   7.254   6.107   1.507  0.5071  0.3271 -0.6190
  802MOL0     C 5764   7.172   6.091   1.401 -0.2810  0.7651  0.6545
  802MOL0     C 5765   7.040   6.024   1.399  0.6025 -1.2744 -0.3347
  802MOL0     C 5766   6.993   5.977   1.521 -0.2375 -0.0297  0.3978
  802MOL0     O 5767   6.874   5.922   1.548 -0.3582  0.6116  0.3134
  802MOL0     C 5768   6.763   5.965   1.472 -0.1750  0.4609  0.4150
  802MOL0     C 5769   6.642   5.968   1.557  0.2737 -0.1258 -0.8650
  802MOL0     C 5770   6.543   6.067   1.502  0.0433  0.1944  0.7001
  802MOL0     C 5771   6.434   6.105   1.610  0.2453 -0.1567 -0.6715
  802MOL0     C 5772   6.290   6.143   1.555 -0.7191  0.7508  0.7217
  802MOL0     C 5773   6.230   6.020   1.486  0.7396 -0.1356 -0.1861
  802MOL0     C 5774   6.089   6.054   1.441  0.3062 -0.0844  0.1882
  802MOL0     C 5775   6.094   6.170   1.348  0.8483  0.1927  0.1698
  802MOL0    Cl 5776   5.952   6.161   1.242 -0.1174  0.4564 -0.1761
  802MOL0     C 5777   7.078   6.000   1.632  0.3090 -0.4175  0.2148
  802MOL0     C 5778   7.204   6.057   1.627  0.2213 -0.2321 -0.0632
  802MOL0     O 5779   7.449   5.983   1.351  0.3456 -0.2520  1.0703
  802MOL0     C 5780   7.653   6.193   1.550  0.7057 -0.2757  0.6907
  802MOL0     C 5781   7.783   6.239   1.549 -0.3755  0.0021  0.4506
  802MOL0     N 5782   8.071   6.745   1.874 -0.2248 -0.7360 -0.4587
  802MOL0     N 5783   7.980   6.836   1.886 -1.0526 -0.1512 -0.4512
  802MOL0     C 5784   7.111   7.711   1.375 -0.6801 -0.5694 -0.1850
  802MOL0     C 5785   7.014   7.716   1.277 -0.8530  0.2171  1.0970
  802MOL0     C 5786   6.777   7.617   0.903 -0.4568 -0.1306  0.1234
  802MOL0     C 5787   6.815   7.615   0.766 -0.5187 -0.4845  0.5059
  802MOL0     C 5788   6.715   7.639   0.661 -0.3561  0.4342  0.2233
  802MOL0     C 5789   6.581   7.668   0.711 -0.7635 -0.4454  0.2593
  802MOL0     O 5790   6.480   7.696   0.618 -0.5726 -0.2824  0.4464
  802MOL0     C 5791   6.460   7.839   0.624 -0.4352 -0.0005  0.0251
  802MOL0     C 5792   6.434   7.896   0.495  0.0328 -0.6639 -0.2538
  802MOL0     C 5793   6.297   7.888   0.427 -0.3356  0.2717 -0.0742
  802MOL0     C 5794   6.307   7.933   0.286 -0.9814 -0.1638 -0.0464
  802MOL0     C 5795   6.188   7.877   0.223  0.6623 -0.9797  0.2130
  802MOL0     C 5796   6.082   7.853   0.168 -0.6506 -0.6647  0.0646
  802MOL0     C 5797   6.548   7.670   0.844  0.4389  0.3129  0.1486
  802MOL0     C 5798   6.647   7.653   0.944  1.1103 -0.5397 -0.0627
  802MOL0     H 5799   6.933   7.386   1.257  0.1711  0.3431 -0.0898
  802MOL0     H 5800   7.114   7.371   1.414 -1.4946 -0.1937  0.1013
  802MOL0     H 5801   7.317   7.404   1.512 -0.1390 -0.0899  0.3829
  802MOL0     H 5802   7.206   7.427   1.656  0.1255 -1.9083  0.1663
  802MOL0     H 5803   7.395   7.537   1.767 -3.6131  0.6017 -2.2406
  802MOL0     H 5804   7.485   7.550   1.610 -0.7793 -0.3356 -1.5368
  802MOL0     H 5805   7.501   7.291   1.617  3.2447 -0.0696  0.4395
  802MOL0     H 5806   7.424   7.301   1.778  1.5336  1.6591  3.5182
  802MOL0     H 5807   7.698   7.433   1.694 -2.0929  1.2395 -2.3556
  802MOL0     H 5808   7.639   7.421   1.849 -1.7549 -0.1375 -0.8237
  802MOL0     H 5809   7.617   7.189   1.855 -2.6947  2.4050 -2.0196
  802MOL0     H 5810   7.789   7.237   1.826  0.4947  0.0232  1.7666
  802MOL0     H 5811   7.755   7.167   1.576 -0.8199 -1.4537 -1.6252
  802MOL0     H 5812   7.594   7.108   1.622  1.5517 -4.5143  0.1761
  802MOL0     H 5813   7.707   6.969   1.816 -2.9488  0.6663 -0.3770
  802MOL0     H 5814   7.726   6.922   1.644 -2.2798 -0.6444  2.2197
  802MOL0     H 5815   7.937   7.098   1.803  0.5219  2.2205 -1.2516
  802MOL0     H 5816   7.948   7.050   1.641 -2.0006 -0.3952  0.1291
  802MOL0     H 5817   8.045   6.838   1.562  0.1724 -1.2469 -0.5696
  802MOL0     H 5818   8.304   6.655   1.710  0.6292 -0.1033 -0.0229
  802MOL0     H 5819   8.214   6.675   1.553 -0.0473 -0.2855  1.1538
  802MOL0     H 5820   8.124   6.476   1.767 -3.1014 -0.0148 -0.6422
  802MOL0     H 5821   8.257   6.437   1.663 -1.1781  0.3265 -1.7541
  802MOL0     H 5822   7.978   6.504   1.571  1.2902  0.6312  2.4609
  802MOL0     H 5823   8.117   6.488   1.452 -0.5821 -0.6258 -1.4248
  802MOL0     H 5824   8.012   6.266   1.641  0.9652 -1.1629  1.3586
  802MOL0     H 5825   8.167   6.273   1.557  0.0665  1.1031  1.0630
  802MOL0     H 5826   7.906   6.141   1.245  2.3281  4.6351  0.1953
  802MOL0     H 5827   7.666   6.031   1.242  1.5597  0.8549 -2.0546
  802MOL0     H 5828   7.203   6.114   1.300 -1.8306  0.2038  0.0192
  802MOL0     H 5829   6.982   6.016   1.309  1.7088  0.9498 -1.3399
  802MOL0     H 5830   6.744   5.911   1.378  1.4702  1.5178 -0.5705
  802MOL0     H 5831   6.776   6.069   1.441 -0.7227  0.5127  0.3586
  802MOL0     H 5832   6.668   5.985   1.662  0.3405 -0.6827 -0.7872
  802MOL0     H 5833   6.612   5.863   1.564  0.4910 -0.0835  1.3764
  802MOL0     H 5834   6.502   6.023   1.410 -1.5659  0.3337  1.3160
  802MOL0     H 5835   6.598   6.159   1.483  1.1896 -0.7063 -0.5095
  802MOL0     H 5836   6.438   6.020   1.678 -0.1102 -0.9648 -1.6223
  802MOL0     H 5837   6.472   6.196   1.658  1.3295 -0.6119 -0.6512
  802MOL0     H 5838   6.296   6.239   1.502 -1.4594 -0.0970 -0.9938
  802MOL0     H 5839   6.223   6.165   1.639 -3.1802  3.5077 -1.7220
  802MOL0     H 5840   6.242   5.926   1.543 -1.6633 -0.6521 -0.4181
  802MOL0     H 5841   6.277   5.997   1.390  0.5311 -3.3533  0.3695
  802MOL0     H 5842   6.039   5.972   1.389  0.5074  0.4458 -0.8575
  802MOL0     H 5843   6.020   6.085   1.521  1.5868 -0.3460  1.4336
  802MOL0     H 5844   6.186   6.171   1.288  0.8563  3.1298  0.0553
  802MOL0     H 5845   6.095   6.266   1.401  1.7604  0.5144 -0.3995
  802MOL0     H 5846   7.052   5.971   1.733 -0.3366  2.5018  0.9864
  802MOL0     H 5847   7.262   6.068   1.718 -1.0633 -2.2959  1.0870
  802MOL0     H 5848   7.578   6.212   1.627  2.6947  2.7054  2.1083
  802MOL0     H 5849   7.814   6.304   1.629 -3.9698  3.4318 -0.6028
  802MOL0     H 5850   7.155   7.804   1.410 -1.4989  0.0822 -0.8563
  802MOL0     H 5851   6.985   7.815   1.242  0.3520  0.1151 -0.2886
  802MOL0     H 5852   6.911   7.589   0.723 -0.3583  1.7237 -0.6360
  802MOL0     H 5853   6.745   7.627   0.557  0.5677 -0.5336  0.5878
  802MOL0     H 5854   6.551   7.890   0.656 -1.6261  0.3205  3.2905
  802MOL0     H 5855   6.377   7.859   0.692 -2.5501 -3.9016 -1.1354
  802MOL0     H 5856   6.449   8.004   0.509 -0.0532 -0.7728  0.7244
  802MOL0     H 5857   6.514   7.857   0.432  1.5671 -3.5093  3.1464
  802MOL0     H 5858   6.228   7.957   0.477 -0.5915 -0.4830  0.6379
  802MOL0     H 5859   6.264   7.784   0.439  2.8823 -0.8983 -0.6012
  802MOL0     H 5860   6.319   8.038   0.257  1.9469 -0.7347 -1.3902
  802MOL0     H 5861   6.392   7.881   0.240 -0.4165  0.2274  0.5380
  802MOL0     H 5862   5.999   7.820   0.110  0.1803 -1.3899 -0.7612
  802MOL0     H 5863   6.441   7.678   0.862  0.1124 -0.9835 -0.9895
  802MOL0     H 5864   6.610   7.649   1.046  2.9841 -0.9212  0.6550
  803MOL0     O 5865   5.799   2.376   9.435  0.6535  0.4287  0.3030
  803MOL0     C 5866   5.802   2.326   9.321 -1.1682  0.2589 -0.2167
  803MOL0     O 5867   5.791   2.187   9.286 -0.0696 -0.9886  0.1138
  803MOL0     C 5868   5.723   2.102   9.365  0.3146  0.3087 -0.5170
  803MOL0     C 5869   5.616   2.152   9.447 -0.3546 -0.4185 -0.7730
  803MOL0     C 5870   5.545   2.061   9.526 -0.4776 -0.0652  1.1635
  803MOL0     C 5871   5.568   1.925   9.520 -0.4077  0.4080 -0.1304
  803MOL0     O 5872   5.499   1.850   9.609  0.3413  0.0870 -0.5878
  803MOL0     C 5873   5.473   1.713   9.567  0.7741  0.2536 -0.7629
  803MOL0     C 5874   5.378   1.646   9.677  0.3794  0.6209 -0.4245
  803MOL0     C 5875   5.236   1.718   9.683  0.4492  0.4824 -0.2421
  803MOL0     C 5876   5.157   1.689   9.815 -0.5039  0.4113 -0.2054
  803MOL0     C 5877   5.015   1.760   9.818 -0.8028  0.7361 -0.1487
  803MOL0     C 5878   5.017   1.908   9.845  1.0455 -0.2261 -0.1171
  803MOL0     C 5879   4.883   1.980   9.806  0.3384 -0.3336 -1.1782
  803MOL0     C 5880   4.769   1.923   9.892  0.1430  0.2570 -0.3018
  803MOL0     N 5881   4.656   2.014   9.893 -0.0351  0.3421  0.1083
  803MOL0     C 5882   4.579   2.012  10.003  0.2139 -1.0885 -0.3101
  803MOL0     C 5883   4.460   2.063   9.959 -0.6449 -0.5870  0.4426
  803MOL0     C 5884   4.328   2.047  10.025 -0.0813 -0.3320 -0.8767
  803MOL0     C 5885   4.214   2.133   9.964 -0.8503  0.2361 -0.2299
  803MOL0     C 5886   4.156   2.226  10.070  0.4184 -0.4912  0.1058
  803MOL0     C 5887   4.011   2.276  10.044 -0.0733  0.8353 -0.2765
  803MOL0     O 5888   3.931   2.158  10.032  0.1499 -0.4283 -0.0047
  803MOL0     C 5889   3.799   2.157  10.056 -0.3872  0.1636  0.4462
  803MOL0     C 5890   3.734   2.255  10.136  0.4066 -0.0047  0.3560
  803MOL0     C 5891   3.606   2.235  10.174 -0.5092 -0.1612  0.5852
  803MOL0     C 5892   3.523   2.124  10.126 -0.1561  0.1221 -0.8010
  803MOL0     C 5893   3.380   2.123  10.146 -0.9475  0.3527  0.2997
  803MOL0     O 5894   3.314   2.044  10.058  0.4655  0.5272  0.1156
  803MOL0     C 5895   3.172   2.035  10.057 -0.1285  0.2420 -0.5507
  803MOL0     C 5896   3.115   1.921  10.000  0.2825  0.0489 -0.3948
  803MOL0     C 5897   2.978   1.895  10.007  0.2684 -0.1120 -0.4545
  803MOL0     C 5898   2.892   1.974  10.071  0.5447  0.2996 -0.0658
  803MOL0     O 5899   2.764   1.942  10.092  0.3221 -0.4749 -0.1779
  803MOL0     C 5900   2.665   2.048  10.109  0.1695  0.3017 -0.2832
  803MOL0     C 5901   2.536   2.014  10.040 -0.1675 -0.1168  0.1348
  803MOL0     C 5902   2.434   2.129  10.032  0.8105  0.0822  0.7872
  803MOL0     C 5903   2.313   2.078   9.943  0.8930  0.4766  0.0037
  803MOL0     C 5904   2.223   2.187   9.885 -0.6783 -0.3951  0.5756
  803MOL0     C 5905   2.190   2.307   9.982 -0.4526  0.2343  0.1207
  803MOL0     C 5906   2.081   2.397   9.926 -0.1910  0.0324  0.6134
  803MOL0     C 5907   2.112   2.534   9.983  0.5975 -0.0911  0.5730
  803MOL0    Cl 5908   1.988   2.654   9.930 -0.3654 -0.4674  0.1081
  803MOL0     C 5909   2.944   2.090  10.125 -0.4603 -0.4898  0.2545
  803MOL0     C 5910   3.083   2.125  10.109  0.0657  0.4850 -0.5897
  803MOL0     O 5911   3.337   2.191  10.230 -0.0972  0.5325  0.9451
  803MOL0     C 5912   3.586   2.031  10.049 -0.1570  0.3179  0.2724
  803MOL0     C 5913   3.721   2.047  10.013  0.5077  0.2451  0.9940
  803MOL0     N 5914   4.465   2.080   9.820  0.0588  0.1390 -0.0355
  803MOL0     N 5915   4.585   2.049   9.785 -0.2164 -0.4770 -0.0689
  803MOL0     C 5916   5.677   1.878   9.445  0.4953 -0.3591  0.3735
  803MOL0     C 5917   5.740   1.964   9.363 -0.7351  0.2928  0.3455
  803MOL0     C 5918   5.856   2.408   9.217 -0.4869 -0.6085 -0.5585
  803MOL0     C 5919   5.846   2.385   9.085  0.0211  0.3766 -0.0037
  803MOL0     C 5920   5.900   2.465   8.985 -1.3745 -0.8040 -0.2545
  803MOL0     C 5921   5.975   2.581   9.019 -0.4416 -0.3338 -0.4281
  803MOL0     O 5922   6.036   2.667   8.931 -0.6211 -0.1220 -0.1179
  803MOL0     C 5923   6.042   2.626   8.793 -0.0471 -0.3387  0.4673
  803MOL0     C 5924   6.149   2.532   8.763 -0.1729  0.6160  0.4420
  803MOL0     C 5925   6.287   2.582   8.798 -0.6667  0.3518 -0.0970
  803MOL0     C 5926   6.398   2.546   8.699 -0.2736 -0.1103 -0.8028
  803MOL0     C 5927   6.521   2.592   8.762  0.8646  0.4247 -0.5520
  803MOL0     C 5928   6.615   2.641   8.812  0.1304 -0.7587 -0.4566
  803MOL0     C 5929   5.968   2.623   9.152  0.0483 -0.2214 -0.4156
  803MOL0     C 5930   5.915   2.534   9.249 -0.4649 -0.2688  0.3606
  803MOL0     H 5931   5.585   2.256   9.444 -0.6332 -0.5194 -1.8187
  803MOL0     H 5932   5.461   2.094   9.586 -1.5892  1.8074 -1.2280
  803MOL0     H 5933   5.563   1.650   9.573  1.1293  0.8075 -0.0233
  803MOL0     H 5934   5.419   1.700   9.473 -0.0816 -2.6459  0.0101
  803MOL0     H 5935   5.409   1.652   9.782  0.1264 -1.1224 -0.2146
  803MOL0     H 5936   5.374   1.539   9.655 -0.4868  0.8063 -1.2505
  803MOL0     H 5937   5.179   1.682   9.597  2.4269 -0.0050 -1.3897
  803MOL0     H 5938   5.247   1.827   9.692 -0.6290  0.4639  5.3404
  803MOL0     H 5939   5.140   1.581   9.815  2.4678 -0.1564 -0.9358
  803MOL0     H 5940   5.212   1.710   9.907 -1.2466 -2.2034  0.9540
  803MOL0     H 5941   4.971   1.721   9.909 -0.9919  1.9404  0.3025
  803MOL0     H 5942   4.952   1.736   9.731 -2.4806  0.0512  1.2129
  803MOL0     H 5943   5.094   1.943   9.774  1.2673  0.6038  0.5170
  803MOL0     H 5944   5.046   1.936   9.946  0.4684 -0.2746  0.0633
  803MOL0     H 5945   4.894   2.086   9.830 -2.4929 -0.3631  0.6989
  803MOL0     H 5946   4.874   1.967   9.698  4.9554 -0.9896 -1.6961
  803MOL0     H 5947   4.809   1.908   9.993  2.0783  0.8586 -0.9349
  803MOL0     H 5948   4.734   1.827   9.854  1.2704 -0.6858  0.9448
  803MOL0     H 5949   4.604   1.975  10.102  0.0123 -3.1903 -0.9820
  803MOL0     H 5950   4.339   2.072  10.131 -1.4536  0.0385 -0.8018
  803MOL0     H 5951   4.308   1.940  10.013  1.0055 -0.5937 -0.4397
  803MOL0     H 5952   4.138   2.066   9.922 -0.5530 -0.2066 -0.0797
  803MOL0     H 5953   4.258   2.188   9.882  1.6031  0.3863  1.1067
  803MOL0     H 5954   4.153   2.172  10.165  1.0213 -3.0543 -1.2542
  803MOL0     H 5955   4.220   2.314  10.078  1.0418 -0.8175 -1.1247
  803MOL0     H 5956   4.005   2.312   9.940 -1.5179 -1.4398 -1.0611
  803MOL0     H 5957   3.975   2.349  10.117  0.1738 -1.4083  2.2251
  803MOL0     H 5958   3.795   2.340  10.164  1.7465 -0.7436 -0.2617
  803MOL0     H 5959   3.572   2.311  10.244  2.8471  1.1157  0.9911
  803MOL0     H 5960   3.179   1.847   9.952 -0.8476 -1.4044  0.2752
  803MOL0     H 5961   2.953   1.802   9.957  3.4418 -1.1603 -0.3876
  803MOL0     H 5962   2.693   2.150  10.082  1.4676  0.5999  1.8864
  803MOL0     H 5963   2.651   2.059  10.217  4.0111 -1.9389  0.6637
  803MOL0     H 5964   2.484   1.934  10.094 -2.4960  0.5534 -0.9886
  803MOL0     H 5965   2.555   1.969   9.942 -0.5249  1.6018 -0.7575
  803MOL0     H 5966   2.473   2.218   9.981  1.4093 -0.3912  0.3971
  803MOL0     H 5967   2.412   2.166  10.132  3.5395  0.9246  1.1467
  803MOL0     H 5968   2.335   2.003   9.866 -2.9338 -2.0224  1.0480
  803MOL0     H 5969   2.253   2.024  10.016  0.3543  1.0050 -0.0388
  803MOL0     H 5970   2.130   2.138   9.854 -0.0529  0.1608 -2.5082
  803MOL0     H 5971   2.274   2.226   9.796  1.4526  1.4299  2.4875
  803MOL0     H 5972   2.284   2.361   9.996  0.0699 -0.3090 -1.1240
  803MOL0     H 5973   2.165   2.264  10.079 -2.0460 -0.8741 -0.7292
  803MOL0     H 5974   2.079   2.408   9.818 -0.6775 -1.9512  0.3811
  803MOL0     H 5975   1.982   2.360   9.954  0.3409 -3.2712 -1.3411
  803MOL0     H 5976   2.216   2.557   9.959  0.6948 -0.8275  0.2452
  803MOL0     H 5977   2.108   2.526  10.092 -0.9198  1.4054  0.6690
  803MOL0     H 5978   2.875   2.157  10.176  3.2825  3.8094  0.3021
  803MOL0     H 5979   3.116   2.210  10.168 -0.9409  1.2704 -1.1362
  803MOL0     H 5980   3.524   1.950  10.012  1.4012 -0.8647  0.1440
  803MOL0     H 5981   3.783   1.977   9.957  2.9513  2.2888  0.9344
  803MOL0     H 5982   5.707   1.774   9.436  1.1912  0.0255 -3.8618
  803MOL0     H 5983   5.811   1.927   9.290  0.0301  0.1226  1.1506
  803MOL0     H 5984   5.796   2.290   9.070 -0.8972  0.9245 -0.5361
  803MOL0     H 5985   5.908   2.425   8.885 -0.5807 -2.3104  0.3844
  803MOL0     H 5986   6.058   2.712   8.727  3.7887 -2.8142 -2.2274
  803MOL0     H 5987   5.953   2.580   8.749  1.6288 -2.5924 -0.7915
  803MOL0     H 5988   6.133   2.433   8.806 -0.2807  0.8407  0.9184
  803MOL0     H 5989   6.154   2.522   8.654 -1.1185  0.0999  0.4385
  803MOL0     H 5990   6.309   2.541   8.897  0.4565  4.1300  1.4174
  803MOL0     H 5991   6.293   2.691   8.803  0.7337  0.4164 -1.9919
  803MOL0     H 5992   6.411   2.438   8.688  0.6164 -0.0627 -0.3352
  803MOL0     H 5993   6.379   2.596   8.604 -1.1446  1.4983  0.1674
  803MOL0     H 5994   6.693   2.691   8.866 -0.4941  2.1722 -2.0496
  803MOL0     H 5995   6.019   2.714   9.182 -0.4866 -0.1353  0.2553
  803MOL0     H 5996   5.888   2.583   9.342  0.4814  0.9493  0.0107
  804MOL0     O 5997   8.247   4.317   0.472 -0.8600 -0.4680 -0.0587
  804MOL0     C 5998   8.261   4.390   0.566 -0.8135 -0.3088  0.6682
  804MOL0     O 5999   8.181   4.393   0.680 -0.1781 -0.9671  0.0608
  804MOL0     C 6000   8.081   4.300   0.690 -0.1666 -0.3672 -0.3291
  804MOL0     C 6001   7.998   4.259   0.587  0.1982 -0.1512  0.5658
  804MOL0     C 6002   7.902   4.158   0.597 -0.3745 -0.5157  0.2673
  804MOL0     C 6003   7.873   4.099   0.722 -0.9300  0.0973  0.6673
  804MOL0     O 6004   7.797   3.986   0.727 -0.1474  0.5017 -0.9345
  804MOL0     C 6005   7.777   3.922   0.861 -0.9581 -0.3257  0.5972
  804MOL0     C 6006   7.655   3.825   0.874 -0.1872  0.3417 -0.1961
  804MOL0     C 6007   7.526   3.888   0.818  0.9552 -1.0343  0.1372
  804MOL0     C 6008   7.473   3.822   0.696  0.0010 -0.5838  0.0387
  804MOL0     C 6009   7.357   3.891   0.630  0.1656  0.0106  0.2517
  804MOL0     C 6010   7.223   3.891   0.710 -0.7468  0.2313  0.6057
  804MOL0     C 6011   7.108   3.954   0.646  0.5204 -0.4668 -0.3769
  804MOL0     C 6012   6.996   3.843   0.603  0.0063  0.0839 -0.0744
  804MOL0     N 6013   6.872   3.916   0.579  0.0307 -0.5435 -0.0659
  804MOL0     C 6014   6.789   3.897   0.466 -0.3161  0.2687  0.3145
  804MOL0     C 6015   6.691   3.984   0.483 -0.0076 -0.1465  0.1403
  804MOL0     C 6016   6.577   4.005   0.401 -0.3780 -0.3995 -0.1214
  804MOL0     C 6017   6.580   4.112   0.288 -0.1621  0.1487  0.1788
  804MOL0     C 6018   6.645   4.241   0.325  0.0784  0.5502 -0.0656
  804MOL0     C 6019   6.544   4.338   0.393 -0.5157  0.4611 -0.2592
  804MOL0     O 6020   6.442   4.354   0.295  0.2038  0.6903 -0.5859
  804MOL0     C 6021   6.308   4.319   0.315 -0.9776  0.1185  0.2038
  804MOL0     C 6022   6.213   4.369   0.221  0.3643  0.3801 -0.9520
  804MOL0     C 6023   6.076   4.353   0.231  0.5672 -0.0593  0.1916
  804MOL0     C 6024   6.034   4.292   0.353  0.2448 -1.3380 -0.4410
  804MOL0     C 6025   5.886   4.294   0.377 -0.3729  0.4133  0.1241
  804MOL0     O 6026   5.794   4.333   0.282  0.0280  0.1420  0.0581
  804MOL0     C 6027   5.664   4.288   0.304  0.4387  0.2885  0.0227
  804MOL0     C 6028   5.564   4.377   0.355  0.1563  0.5688  0.4920
  804MOL0     C 6029   5.427   4.335   0.338 -0.1132  0.1704  0.6697
  804MOL0     C 6030   5.390   4.207   0.290  0.5840  0.0549 -0.5529
  804MOL0     O 6031   5.258   4.180   0.299  1.0178 -1.4498 -0.4287
  804MOL0     C 6032   5.193   4.097   0.209  0.2312 -0.0062  1.4295
  804MOL0     C 6033   5.065   4.048   0.269 -0.1402  0.2157  0.2496
  804MOL0     C 6034   4.998   3.953   0.181 -0.4092 -0.1478 -0.3105
  804MOL0     C 6035   4.876   3.898   0.242 -0.1729  0.0730  0.4353
  804MOL0     C 6036   4.786   3.847   0.131 -0.4955 -0.8016  0.3641
  804MOL0     C 6037   4.683   3.760   0.194  1.0987 -0.4369 -0.9687
  804MOL0     C 6038   4.595   3.688   0.081 -0.7558 -0.4677 -0.2504
  804MOL0     C 6039   4.510   3.801   0.020 -1.0527 -0.0362 -0.0519
  804MOL0    Cl 6040   4.355   3.751  -0.034 -0.0430 -0.2498  0.1702
  804MOL0     C 6041   5.493   4.118   0.252  0.5873  0.8775 -0.4667
  804MOL0     C 6042   5.627   4.164   0.255 -0.2741  0.4522  0.3947
  804MOL0     O 6043   5.851   4.248   0.480 -0.4417  0.0118 -0.7348
  804MOL0     C 6044   6.123   4.249   0.451 -0.4123 -0.3456 -0.0852
  804MOL0     C 6045   6.260   4.252   0.431  0.5311  0.1901  0.4257
  804MOL0     N 6046   6.708   4.061   0.596 -0.5385 -0.4805  0.1665
  804MOL0     N 6047   6.803   4.004   0.658 -0.2478 -0.0874  0.7293
  804MOL0     C 6048   7.949   4.147   0.832 -0.2726  0.4312 -0.0773
  804MOL0     C 6049   8.047   4.244   0.813 -0.8790 -0.5303 -0.2929
  804MOL0     C 6050   8.368   4.492   0.548 -0.4624 -0.9529 -0.1974
  804MOL0     C 6051   8.387   4.583   0.653 -0.0574  0.3513 -0.2235
  804MOL0     C 6052   8.484   4.681   0.645  0.0172  0.4744 -0.1700
  804MOL0     C 6053   8.570   4.680   0.527  0.4481  0.3555  0.0462
  804MOL0     O 6054   8.688   4.762   0.518  0.5657  0.2118 -0.0927
  804MOL0     C 6055   8.747   4.799   0.646 -0.6373 -0.0715 -0.3056
  804MOL0     C 6056   8.898   4.834   0.637  0.2048  0.6424  0.7741
  804MOL0     C 6057   8.921   4.985   0.639 -0.0536  0.9932 -0.7624
  804MOL0     C 6058   8.987   5.032   0.775  0.0131 -0.0435  0.6432
  804MOL0     C 6059   8.957   5.175   0.790 -0.2293 -0.6570  0.4487
  804MOL0     C 6060   8.939   5.286   0.812  0.2233 -0.0168  0.3989
  804MOL0     C 6061   8.537   4.602   0.416 -0.4037 -0.4443  0.0679
  804MOL0     C 6062   8.439   4.509   0.430  0.5686  0.8724  0.1732
  804MOL0     H 6063   8.015   4.286   0.483  0.1323  0.0560  0.6083
  804MOL0     H 6064   7.860   4.120   0.505 -2.0122 -3.7504  2.1606
  804MOL0     H 6065   7.756   4.002   0.933  1.3725  0.0131  0.9921
  804MOL0     H 6066   7.862   3.866   0.902 -2.5540 -2.9023  0.5790
  804MOL0     H 6067   7.649   3.807   0.981 -0.8446  1.1116 -0.0881
  804MOL0     H 6068   7.669   3.728   0.825 -2.1968 -0.7792  1.2847
  804MOL0     H 6069   7.549   3.992   0.793  1.5306 -0.3773  3.1061
  804MOL0     H 6070   7.446   3.880   0.892  2.1564  0.2455  1.6249
  804MOL0     H 6071   7.549   3.811   0.618  0.1866 -1.3142  0.3147
  804MOL0     H 6072   7.442   3.721   0.725 -0.7876  0.1085  1.7450
  804MOL0     H 6073   7.337   3.856   0.528 -0.7953 -1.0750  0.7793
  804MOL0     H 6074   7.396   3.991   0.613 -0.7906  0.0596 -1.9643
  804MOL0     H 6075   7.241   3.950   0.800 -0.7970  0.1261  0.6844
  804MOL0     H 6076   7.208   3.787   0.742  0.7783 -0.9675 -2.1782
  804MOL0     H 6077   7.066   4.019   0.723  2.6910  0.2163  0.2914
  804MOL0     H 6078   7.135   4.023   0.566  0.3273  0.5713  0.4275
  804MOL0     H 6079   6.991   3.768   0.682 -0.6133 -1.6095 -1.6576
  804MOL0     H 6080   7.018   3.783   0.514  0.6039 -0.6972  0.5849
  804MOL0     H 6081   6.806   3.840   0.375  3.3696 -0.0974  1.0916
  804MOL0     H 6082   6.493   4.043   0.460  0.7633  3.7846 -0.8572
  804MOL0     H 6083   6.537   3.913   0.357  2.4267 -1.3482 -0.8502
  804MOL0     H 6084   6.479   4.128   0.250 -0.0739 -1.4261 -0.7956
  804MOL0     H 6085   6.644   4.065   0.213 -2.1388 -0.5654 -1.1277
  804MOL0     H 6086   6.723   4.221   0.399 -1.1439 -0.3893  1.0043
  804MOL0     H 6087   6.696   4.292   0.243  1.1759  1.7439  1.2918
  804MOL0     H 6088   6.587   4.435   0.419 -1.1629  0.8429 -0.5910
  804MOL0     H 6089   6.509   4.288   0.484 -2.7808  0.5322 -1.0309
  804MOL0     H 6090   6.240   4.412   0.125  2.2578  2.9653  0.5760
  804MOL0     H 6091   6.010   4.380   0.149 -0.5980 -4.0803 -0.4293
  804MOL0     H 6092   5.585   4.480   0.383  1.3503  0.0955  1.3930
  804MOL0     H 6093   5.357   4.417   0.354 -1.1036  0.4057 -3.6222
  804MOL0     H 6094   5.262   4.019   0.176  1.3573  2.6753 -3.7286
  804MOL0     H 6095   5.172   4.145   0.113  1.6959  0.1694  1.1726
  804MOL0     H 6096   5.002   4.137   0.262 -0.8238 -0.2000  0.9121
  804MOL0     H 6097   5.091   4.017   0.371 -1.3442  0.6873  0.7168
  804MOL0     H 6098   5.060   3.876   0.134  1.0345  1.1769 -0.6652
  804MOL0     H 6099   4.959   4.016   0.101  1.7907 -0.2351 -1.5265
  804MOL0     H 6100   4.887   3.820   0.317 -2.3589 -0.2123  0.5423
  804MOL0     H 6101   4.835   3.977   0.306  1.5022  1.1948  0.1868
  804MOL0     H 6102   4.839   3.793   0.052 -1.6192  0.7828 -1.5696
  804MOL0     H 6103   4.743   3.936   0.083  0.2684  0.8884  2.6070
  804MOL0     H 6104   4.626   3.817   0.268 -1.5018 -0.7022 -2.6210
  804MOL0     H 6105   4.732   3.689   0.261 -0.2463  2.8689  4.0893
  804MOL0     H 6106   4.660   3.638   0.009  1.6068 -3.7697  3.7543
  804MOL0     H 6107   4.544   3.601   0.123  0.6904 -1.6365 -0.8321
  804MOL0     H 6108   4.568   3.859  -0.052  0.7655  1.1464  2.2079
  804MOL0     H 6109   4.485   3.874   0.098 -5.4807  0.1350 -1.3707
  804MOL0     H 6110   5.467   4.016   0.228 -0.5758  1.5109 -2.0615
  804MOL0     H 6111   5.690   4.084   0.217 -1.7775 -0.0116 -1.2091
  804MOL0     H 6112   6.089   4.204   0.544 -0.1379 -1.6010 -0.5701
  804MOL0     H 6113   6.318   4.199   0.506  2.9111 -1.9559 -2.6786
  804MOL0     H 6114   7.937   4.112   0.934 -1.8012 -0.0193 -0.3852
  804MOL0     H 6115   8.110   4.272   0.897  0.7299  0.0475 -1.6158
  804MOL0     H 6116   8.331   4.569   0.745 -0.0921  1.1103 -0.1183
  804MOL0     H 6117   8.503   4.751   0.725  1.6186 -0.9671  0.7664
  804MOL0     H 6118   8.735   4.722   0.722 -0.5773  0.1559 -0.0626
  804MOL0     H 6119   8.697   4.886   0.691 -1.0562 -1.5834  2.3155
  804MOL0     H 6120   8.944   4.783   0.722 -1.2429 -3.1930 -0.5191
  804MOL0     H 6121   8.942   4.789   0.547 -0.0950 -1.2205  1.5124
  804MOL0     H 6122   8.825   5.037   0.635 -2.1540 -2.3167  1.3242
  804MOL0     H 6123   8.975   5.018   0.549  2.0520 -0.6697 -0.2121
  804MOL0     H 6124   8.939   4.974   0.855  1.5682 -1.6069  0.5259
  804MOL0     H 6125   9.095   5.017   0.785  0.4164  1.7224 -0.7639
  804MOL0     H 6126   8.939   5.392   0.828 -0.2138 -0.0565  0.6800
  804MOL0     H 6127   8.603   4.621   0.333  0.6157 -2.0728  0.4671
  804MOL0     H 6128   8.429   4.430   0.356  3.6516  0.4945  0.0596
  805MOL0     O 6129   5.721   5.770   6.669  0.1096  0.0392  0.4634
  805MOL0     C 6130   5.721   5.664   6.730  0.4260  0.0389  0.9116
  805MOL0     O 6131   5.743   5.544   6.677  0.0477  0.7059  0.6722
  805MOL0     C 6132   5.765   5.516   6.546  0.3645  0.3722  0.5882
  805MOL0     C 6133   5.753   5.599   6.436 -0.2527  0.7713  0.2257
  805MOL0     C 6134   5.781   5.561   6.306  0.2220  0.2423  0.4308
  805MOL0     C 6135   5.840   5.438   6.284  1.0103  0.7749 -0.1268
  805MOL0     O 6136   5.862   5.411   6.150  0.2177  0.4594 -0.2296
  805MOL0     C 6137   5.830   5.282   6.096  0.0147 -0.5473 -0.7782
  805MOL0     C 6138   5.738   5.303   5.971  0.6019 -0.2414  0.7245
  805MOL0     C 6139   5.799   5.374   5.851  0.0635  0.2442  0.6048
  805MOL0     C 6140   5.731   5.362   5.715  0.6741  0.1691 -0.6140
  805MOL0     C 6141   5.602   5.444   5.725 -0.5994  0.9645  0.4998
  805MOL0     C 6142   5.526   5.424   5.595  0.4677 -0.2709 -0.2461
  805MOL0     C 6143   5.389   5.504   5.602 -0.4177  0.0483 -0.3583
  805MOL0     C 6144   5.317   5.519   5.468  0.0056 -0.0642 -0.0305
  805MOL0     N 6145   5.216   5.627   5.459  0.3135 -0.2065  0.5952
  805MOL0     C 6146   5.221   5.741   5.539 -0.2597 -0.3046  0.3509
  805MOL0     C 6147   5.139   5.825   5.475 -0.5657  0.5327  0.6086
  805MOL0     C 6148   5.130   5.963   5.520 -0.2917  0.5107 -1.4348
  805MOL0     C 6149   5.219   6.048   5.434  0.3696 -0.8580  0.3320
  805MOL0     C 6150   5.219   6.192   5.478 -0.2338 -1.5209  0.1086
  805MOL0     C 6151   5.286   6.288   5.372 -0.8299  0.3395  0.4633
  805MOL0     O 6152   5.402   6.233   5.302  0.5087 -0.1263 -0.1516
  805MOL0     C 6153   5.527   6.215   5.371 -0.3894  0.3315 -0.0349
  805MOL0     C 6154   5.631   6.181   5.284  0.9994  0.2918  0.0200
  805MOL0     C 6155   5.754   6.143   5.329 -0.7816 -0.2477  0.1897
  805MOL0     C 6156   5.780   6.143   5.471 -0.3359 -0.3200  0.7375
  805MOL0     C 6157   5.920   6.114   5.519  0.5132  0.0159 -1.2469
  805MOL0     O 6158   5.961   6.171   5.636 -0.2467  0.0521  0.1426
  805MOL0     C 6159   6.083   6.137   5.684 -0.7418 -0.1439 -0.1220
  805MOL0     C 6160   6.128   6.006   5.697 -0.0542 -0.1248 -0.0108
  805MOL0     C 6161   6.254   5.977   5.750  0.6666 -0.4179 -0.0598
  805MOL0     C 6162   6.328   6.083   5.817  0.2169 -0.0680 -0.8797
  805MOL0     O 6163   6.449   6.046   5.875  0.6850 -0.0740  0.5276
  805MOL0     C 6164   6.542   6.146   5.922  0.2649  0.0413  0.5095
  805MOL0     C 6165   6.653   6.097   6.017  0.3717 -0.1450 -0.0769
  805MOL0     C 6166   6.758   6.197   6.040 -0.2551 -0.3087 -0.2263
  805MOL0     C 6167   6.895   6.144   6.101  0.3425 -0.6311  0.4924
  805MOL0     C 6168   6.984   6.264   6.140 -0.5118 -0.0236 -0.0545
  805MOL0     C 6169   7.129   6.238   6.183  0.3603  0.0967 -0.1377
  805MOL0     C 6170   7.206   6.186   6.060 -0.1654 -0.4703 -0.4286
  805MOL0     C 6171   7.347   6.144   6.104  0.1776 -0.8352  0.5324
  805MOL0    Cl 6172   7.428   6.038   5.984  0.1940  0.2214  0.2144
  805MOL0     C 6173   6.272   6.211   5.812  1.2020 -0.6416  0.3552
  805MOL0     C 6174   6.162   6.238   5.732  1.2429  0.2634 -0.0926
  805MOL0     O 6175   5.993   6.056   5.444  0.3208  0.3264 -0.7386
  805MOL0     C 6176   5.677   6.181   5.554  0.7353 -0.9900 -0.9937
  805MOL0     C 6177   5.551   6.220   5.508 -0.0124  0.3498  0.4812
  805MOL0     N 6178   5.074   5.759   5.371  0.3441 -0.2038 -0.1600
  805MOL0     N 6179   5.116   5.634   5.362  0.4076 -0.0940  0.3347
  805MOL0     C 6180   5.852   5.349   6.389 -1.0044  0.2817  0.0559
  805MOL0     C 6181   5.817   5.385   6.528 -0.1791 -0.7206  0.2261
  805MOL0     C 6182   5.723   5.660   6.875  0.1241  0.1929 -0.6463
  805MOL0     C 6183   5.801   5.564   6.946 -0.1408 -0.0886 -0.4495
  805MOL0     C 6184   5.795   5.567   7.087  0.3527  0.3109  0.3136
  805MOL0     C 6185   5.710   5.655   7.150  0.0283  0.4468 -0.3694
  805MOL0     O 6186   5.689   5.655   7.283  0.4890  0.7303  0.5613
  805MOL0     C 6187   5.779   5.581   7.367 -0.3451 -1.2091 -0.3650
  805MOL0     C 6188   5.759   5.425   7.389 -0.3679  0.7525  1.1243
  805MOL0     C 6189   5.822   5.375   7.521 -0.1235  0.8378  0.1154
  805MOL0     C 6190   5.824   5.220   7.521 -0.9443  0.1964 -1.2431
  805MOL0     C 6191   5.949   5.160   7.475 -0.0356 -0.4985 -0.8461
  805MOL0     C 6192   6.048   5.118   7.424  0.0054 -0.1197  0.3754
  805MOL0     C 6193   5.641   5.748   7.084  1.6277 -0.0276  0.0416
  805MOL0     C 6194   5.648   5.759   6.942  0.9958  0.6776  0.3037
  805MOL0     H 6195   5.696   5.690   6.451 -0.0073  1.2366 -1.4207
  805MOL0     H 6196   5.766   5.631   6.225 -2.5161 -0.4685  0.2340
  805MOL0     H 6197   5.779   5.218   6.169  0.0118 -0.0616 -0.3440
  805MOL0     H 6198   5.925   5.237   6.069  2.3002  0.4553  4.3490
  805MOL0     H 6199   5.657   5.371   6.000  1.7273  1.3389  0.3318
  805MOL0     H 6200   5.707   5.207   5.929  4.7963 -0.3617 -2.9619
  805MOL0     H 6201   5.903   5.347   5.832 -0.3581  0.3051 -2.1816
  805MOL0     H 6202   5.803   5.481   5.875 -0.6752  0.6245 -0.8481
  805MOL0     H 6203   5.799   5.387   5.634  1.6285 -2.7396 -0.8419
  805MOL0     H 6204   5.705   5.257   5.696  1.0947 -0.0654  0.0726
  805MOL0     H 6205   5.622   5.551   5.739  4.0506  0.5555 -1.3542
  805MOL0     H 6206   5.528   5.410   5.798 -1.6619  1.0761 -0.4909
  805MOL0     H 6207   5.512   5.315   5.592  2.3205 -0.5900  0.8673
  805MOL0     H 6208   5.581   5.464   5.510 -3.8008 -1.0452 -3.7000
  805MOL0     H 6209   5.327   5.440   5.665  0.5855  0.1977  0.8083
  805MOL0     H 6210   5.400   5.600   5.652  2.5000 -0.2412 -0.2786
  805MOL0     H 6211   5.274   5.427   5.427 -1.0118  0.0692  0.6996
  805MOL0     H 6212   5.399   5.553   5.404  1.3836 -0.1585  1.6166
  805MOL0     H 6213   5.286   5.774   5.620 -1.5140  0.7003  0.9825
  805MOL0     H 6214   5.161   5.983   5.623  2.1863  0.8501 -2.1729
  805MOL0     H 6215   5.028   6.001   5.509 -0.0864  1.1202 -1.2747
  805MOL0     H 6216   5.189   6.053   5.329  1.4764  1.5768  0.0692
  805MOL0     H 6217   5.321   6.010   5.445  1.5721  1.2706 -2.4620
  805MOL0     H 6218   5.120   6.233   5.500  0.5961  1.1849 -0.9031
  805MOL0     H 6219   5.275   6.205   5.572 -0.2770  3.3582 -0.3215
  805MOL0     H 6220   5.312   6.382   5.422 -1.1530  1.5675 -1.5750
  805MOL0     H 6221   5.210   6.317   5.299 -1.3203  2.5488  1.7515
  805MOL0     H 6222   5.602   6.179   5.179 -2.3611 -0.9125  0.8714
  805MOL0     H 6223   5.818   6.127   5.242 -2.6878  1.7155 -1.6849
  805MOL0     H 6224   6.076   5.916   5.666  1.0093 -0.9567  0.5038
  805MOL0     H 6225   6.291   5.878   5.728 -0.1000 -0.5002 -1.0474
  805MOL0     H 6226   6.489   6.226   5.975  1.1264  2.6457 -2.2437
  805MOL0     H 6227   6.580   6.194   5.831 -1.2847  0.1801 -0.0929
  805MOL0     H 6228   6.709   6.010   5.981 -0.3849 -1.5968  2.0436
  805MOL0     H 6229   6.593   6.062   6.102 -2.6270 -0.1700 -2.0412
  805MOL0     H 6230   6.716   6.269   6.112  2.2857  2.2540 -1.0846
  805MOL0     H 6231   6.785   6.252   5.950 -1.6085 -1.5675 -1.4351
  805MOL0     H 6232   6.883   6.078   6.188  2.2531  0.0163  1.2935
  805MOL0     H 6233   6.939   6.077   6.026 -1.5774 -2.0784  0.5688
  805MOL0     H 6234   6.939   6.310   6.229  0.5218  0.6298  0.1476
  805MOL0     H 6235   6.995   6.328   6.052 -0.3987 -1.8678 -1.4382
  805MOL0     H 6236   7.126   6.168   6.267 -1.2013 -0.2270 -0.4343
  805MOL0     H 6237   7.166   6.330   6.228 -0.1920  0.7328 -0.9557
  805MOL0     H 6238   7.144   6.101   6.028 -2.0443  0.6237  0.1355
  805MOL0     H 6239   7.212   6.261   5.980 -2.8736 -0.7149 -0.9861
  805MOL0     H 6240   7.347   6.084   6.195  1.4585 -0.0545  1.0711
  805MOL0     H 6241   7.406   6.235   6.120 -0.7137  0.3957 -2.4248
  805MOL0     H 6242   6.333   6.290   5.854 -0.8439  0.5820  1.1880
  805MOL0     H 6243   6.122   6.339   5.733 -0.1768 -0.2023 -2.4599
  805MOL0     H 6244   5.693   6.175   5.661  1.5306 -2.0137 -1.1548
  805MOL0     H 6245   5.478   6.256   5.580 -1.9828  2.9444 -2.4980
  805MOL0     H 6246   5.896   5.254   6.361 -0.1435  1.0984 -1.4825
  805MOL0     H 6247   5.834   5.316   6.610  0.0543  0.3582  1.1052
  805MOL0     H 6248   5.867   5.494   6.896  1.4889  0.4352  0.8637
  805MOL0     H 6249   5.856   5.490   7.135 -1.0917 -1.7730 -1.0223
  805MOL0     H 6250   5.764   5.624   7.467  0.2214 -0.4013 -0.6196
  805MOL0     H 6251   5.886   5.593   7.347  0.1502 -2.4291  1.2900
  805MOL0     H 6252   5.654   5.397   7.378  0.5752 -2.8347 -0.3834
  805MOL0     H 6253   5.814   5.369   7.312 -2.1987 -3.5758  2.6503
  805MOL0     H 6254   5.771   5.419   7.607  2.0197  0.3661  1.7246
  805MOL0     H 6255   5.920   5.421   7.539 -0.5622  0.4847  4.4755
  805MOL0     H 6256   5.789   5.173   7.614 -2.6939  1.5130 -1.1716
  805MOL0     H 6257   5.754   5.177   7.449  0.2658 -1.9884 -1.1740
  805MOL0     H 6258   6.126   5.091   7.356  0.7711 -0.5312  1.3913
  805MOL0     H 6259   5.573   5.816   7.135  0.3805 -1.1672 -0.0435
  805MOL0     H 6260   5.585   5.836   6.899 -3.1490 -0.4023  3.7017
  806MOL0     O 6261   4.337   6.250   3.512 -0.0331  0.9911 -0.1030
  806MOL0     C 6262   4.348   6.288   3.625  0.5977  0.1014 -1.0005
  806MOL0     O 6263   4.286   6.402   3.676 -0.1070  0.5588  0.2878
  806MOL0     C 6264   4.179   6.462   3.610  0.6554  0.3717  0.3926
  806MOL0     C 6265   4.091   6.400   3.522  0.6937 -0.0054  0.1320
  806MOL0     C 6266   3.982   6.463   3.454  0.2776 -0.0021 -0.0698
  806MOL0     C 6267   3.951   6.591   3.496 -0.3469 -0.0897 -0.0157
  806MOL0     O 6268   3.838   6.652   3.455 -0.5016 -0.7427 -0.8100
  806MOL0     C 6269   3.795   6.635   3.316  0.0483 -0.1300 -0.4166
  806MOL0     C 6270   3.674   6.720   3.298 -0.4733 -0.4705  0.4979
  806MOL0     C 6271   3.553   6.655   3.364  0.1172 -0.1477 -0.4746
  806MOL0     C 6272   3.430   6.745   3.344 -0.4641 -0.2543  0.8313
  806MOL0     C 6273   3.400   6.811   3.217  0.5412 -1.1313  0.8133
  806MOL0     C 6274   3.271   6.896   3.226  0.2515  0.0071  0.6985
  806MOL0     C 6275   3.275   7.015   3.140  0.1012 -0.0065  0.9012
  806MOL0     C 6276   3.175   7.114   3.174  1.1567 -0.6435 -0.3661
  806MOL0     N 6277   3.153   7.226   3.083 -0.3788 -0.6497  0.3653
  806MOL0     C 6278   3.117   7.352   3.121  0.9239  1.0272  0.0643
  806MOL0     C 6279   3.096   7.417   3.006  1.3071  0.0929 -0.0196
  806MOL0     C 6280   3.055   7.562   2.997 -0.2649 -0.2606  0.3939
  806MOL0     C 6281   2.915   7.588   3.062 -0.4397  0.4743 -0.8669
  806MOL0     C 6282   2.805   7.546   2.978  0.1374 -0.6072  0.2313
  806MOL0     C 6283   2.667   7.577   3.048  0.0566 -0.4597  0.9380
  806MOL0     O 6284   2.664   7.536   3.183  0.3324 -0.3088 -0.6086
  806MOL0     C 6285   2.552   7.567   3.255 -1.1879 -0.9809 -0.0746
  806MOL0     C 6286   2.553   7.512   3.387  0.3751 -0.0260  1.0396
  806MOL0     C 6287   2.432   7.522   3.455  0.6346 -1.0410 -0.4255
  806MOL0     C 6288   2.320   7.590   3.408  0.4943  0.3688  0.0593
  806MOL0     C 6289   2.194   7.595   3.491  0.2019  0.5263  0.8581
  806MOL0     O 6290   2.081   7.628   3.414  0.0623  0.5445 -0.1278
  806MOL0     C 6291   1.949   7.624   3.467 -0.1512  0.4234 -0.3069
  806MOL0     C 6292   1.903   7.523   3.562  0.1056  1.7355  0.5794
  806MOL0     C 6293   1.772   7.511   3.593  0.5049 -0.4879  0.6892
  806MOL0     C 6294   1.682   7.616   3.552  0.7940  0.5922  0.4191
  806MOL0     O 6295   1.555   7.612   3.596  0.5970 -0.1194  1.0749
  806MOL0     C 6296   1.447   7.688   3.528 -0.7809 -0.5292 -0.0354
  806MOL0     C 6297   1.320   7.670   3.604  0.8799  0.3783  0.0005
  806MOL0     C 6298   1.226   7.766   3.532  0.6366 -0.1132  0.1844
  806MOL0     C 6299   1.082   7.769   3.597  0.2708 -0.1587 -0.2916
  806MOL0     C 6300   0.972   7.842   3.512 -0.1379  0.4517 -0.4921
  806MOL0     C 6301   0.856   7.875   3.606  0.0604  0.0483 -0.5366
  806MOL0     C 6302   0.755   7.966   3.544 -0.6281 -0.4494 -0.3344
  806MOL0     C 6303   0.661   8.051   3.641  0.5654  0.5715  0.0094
  806MOL0    Cl 6304   0.745   8.184   3.721 -0.0470 -0.1413  0.6083
  806MOL0     C 6305   1.729   7.719   3.463 -0.3374  0.8827  0.2361
  806MOL0     C 6306   1.865   7.718   3.415  1.0738  0.3854 -0.4534
  806MOL0     O 6307   2.198   7.552   3.604 -0.2566  0.2576  0.3449
  806MOL0     C 6308   2.329   7.651   3.280  0.5936 -0.3376  0.1887
  806MOL0     C 6309   2.444   7.635   3.201  0.8089 -0.4122  0.3691
  806MOL0     N 6310   3.111   7.330   2.903 -0.5823 -0.1484  0.4944
  806MOL0     N 6311   3.146   7.218   2.952 -0.2803  0.3283  0.7897
  806MOL0     C 6312   4.035   6.659   3.574 -0.8209  0.3908  1.2396
  806MOL0     C 6313   4.151   6.598   3.630  0.3663  0.7840 -0.0538
  806MOL0     C 6314   4.446   6.228   3.716 -0.4754  0.3004  0.6182
  806MOL0     C 6315   4.554   6.155   3.669 -0.0780 -0.4438  0.1157
  806MOL0     C 6316   4.643   6.087   3.757 -0.7172  0.4587  0.5236
  806MOL0     C 6317   4.636   6.114   3.897 -0.3120  0.5506  0.2503
  806MOL0     O 6318   4.726   6.061   3.984 -0.4925 -1.0115  0.1697
  806MOL0     C 6319   4.730   5.920   3.987  0.3060  0.0428  0.5082
  806MOL0     C 6320   4.833   5.863   4.092 -0.8142 -0.2592  0.0851
  806MOL0     C 6321   4.857   5.708   4.083 -0.5099 -0.2239  0.2138
  806MOL0     C 6322   4.743   5.642   4.171 -0.0549  0.5557  0.7991
  806MOL0     C 6323   4.611   5.646   4.110 -0.3465 -0.3663 -0.1928
  806MOL0     C 6324   4.502   5.629   4.071  0.0752  0.5591 -0.6687
  806MOL0     C 6325   4.533   6.200   3.935  0.5483  0.2716 -0.3145
  806MOL0     C 6326   4.442   6.263   3.853  0.3170  1.2289  0.6866
  806MOL0     H 6327   4.092   6.296   3.493 -0.7067  0.5896 -2.3373
  806MOL0     H 6328   3.912   6.404   3.397 -1.3470  1.8868 -0.1457
  806MOL0     H 6329   3.767   6.536   3.279 -2.8084  2.1367 -5.4109
  806MOL0     H 6330   3.876   6.666   3.249 -0.3819  0.7050 -0.5756
  806MOL0     H 6331   3.659   6.742   3.191 -0.2483 -0.7737  0.4041
  806MOL0     H 6332   3.689   6.817   3.346  1.1011 -0.8539  0.8246
  806MOL0     H 6333   3.576   6.632   3.468 -1.8676 -2.2611 -0.4449
  806MOL0     H 6334   3.529   6.560   3.316 -2.5327 -0.3275  1.0638
  806MOL0     H 6335   3.344   6.686   3.375 -0.2406  0.1510  2.2722
  806MOL0     H 6336   3.439   6.825   3.417 -0.6243  0.5790 -0.0451
  806MOL0     H 6337   3.381   6.743   3.133  2.4024 -0.1618 -0.4597
  806MOL0     H 6338   3.486   6.870   3.185 -0.9755  0.1343 -1.1875
  806MOL0     H 6339   3.251   6.930   3.328 -2.3824  2.1705 -0.4116
  806MOL0     H 6340   3.186   6.833   3.198  0.6830  0.7469 -2.6285
  806MOL0     H 6341   3.370   7.068   3.134  0.0265  0.1117  0.7540
  806MOL0     H 6342   3.254   6.990   3.036 -0.9700  0.7096  0.9301
  806MOL0     H 6343   3.198   7.144   3.277 -1.7225 -2.7032  1.0098
  806MOL0     H 6344   3.080   7.062   3.163 -0.8512  3.2355 -5.6221
  806MOL0     H 6345   3.110   7.392   3.222 -1.4573  1.8171 -0.3628
  806MOL0     H 6346   3.049   7.591   2.891  1.9412  1.4748  0.6530
  806MOL0     H 6347   3.131   7.624   3.045  1.3108 -0.1192 -2.1056
  806MOL0     H 6348   2.894   7.695   3.071 -3.8459  0.0324 -2.2608
  806MOL0     H 6349   2.915   7.545   3.163 -1.4334  1.1261 -0.5848
  806MOL0     H 6350   2.807   7.588   2.876  0.4394 -2.8405 -0.7378
  806MOL0     H 6351   2.818   7.438   2.983  0.1876 -0.5415  3.6589
  806MOL0     H 6352   2.589   7.519   2.998  1.8204 -1.2185 -1.0977
  806MOL0     H 6353   2.648   7.684   3.040 -0.2759 -0.3767  2.5080
  806MOL0     H 6354   2.645   7.464   3.418 -0.2475 -1.8424  0.2037
  806MOL0     H 6355   2.424   7.471   3.551  1.0624  0.7220  0.5874
  806MOL0     H 6356   1.968   7.440   3.589 -1.2659 -0.0991 -1.3955
  806MOL0     H 6357   1.724   7.431   3.648 -1.8556 -1.4586 -2.4549
  806MOL0     H 6358   1.436   7.650   3.426  2.6131 -1.4358 -0.1631
  806MOL0     H 6359   1.480   7.792   3.519  1.7562 -1.1885  0.8545
  806MOL0     H 6360   1.334   7.705   3.706 -0.9569  0.6926  0.1871
  806MOL0     H 6361   1.280   7.568   3.600 -2.1055  1.3947  1.2466
  806MOL0     H 6362   1.211   7.740   3.426 -1.5794 -0.2670  0.4826
  806MOL0     H 6363   1.263   7.868   3.535  1.4038 -0.3818  3.4269
  806MOL0     H 6364   1.052   7.665   3.613 -2.5136  0.2509 -2.1988
  806MOL0     H 6365   1.099   7.815   3.695 -1.6847  1.7852 -0.8062
  806MOL0     H 6366   0.929   7.788   3.427 -3.3965 -1.1462  1.9703
  806MOL0     H 6367   1.024   7.934   3.483  1.9042 -0.2592  0.7223
  806MOL0     H 6368   0.885   7.917   3.702  0.5955 -0.9069 -0.2702
  806MOL0     H 6369   0.809   7.778   3.624 -0.1075  0.3337  0.6330
  806MOL0     H 6370   0.800   8.043   3.481 -0.7576 -1.0439 -1.1673
  806MOL0     H 6371   0.696   7.900   3.480  0.3015 -1.3523 -0.2805
  806MOL0     H 6372   0.612   7.993   3.720  1.6536  4.1174  3.5384
  806MOL0     H 6373   0.586   8.091   3.572 -2.8670 -2.9148  1.2723
  806MOL0     H 6374   1.661   7.793   3.424 -2.4122 -1.4775 -0.9300
  806MOL0     H 6375   1.892   7.799   3.349  0.5662  0.7728 -0.1927
  806MOL0     H 6376   2.245   7.709   3.244 -0.5187 -2.3775 -0.6746
  806MOL0     H 6377   2.442   7.684   3.104 -0.3169  1.0481  1.0816
  806MOL0     H 6378   4.023   6.764   3.598  2.1935  1.9466 -2.8663
  806MOL0     H 6379   4.221   6.648   3.696  1.4777  1.1754 -1.4568
  806MOL0     H 6380   4.567   6.146   3.562  2.6749  1.7844  0.1698
  806MOL0     H 6381   4.721   6.023   3.717  0.3408 -0.4867  3.8048
  806MOL0     H 6382   4.753   5.881   3.888  1.1276  0.5129  0.5011
  806MOL0     H 6383   4.631   5.882   4.016  0.1798 -0.4705 -0.5452
  806MOL0     H 6384   4.934   5.905   4.087 -0.5101 -0.9010  0.6913
  806MOL0     H 6385   4.794   5.894   4.189 -0.7466  1.1673 -0.3196
  806MOL0     H 6386   4.958   5.684   4.118 -0.2301  1.2990  0.5181
  806MOL0     H 6387   4.840   5.682   3.978  2.0115  0.5946 -0.4702
  806MOL0     H 6388   4.764   5.535   4.183  1.2678  0.8177  0.9688
  806MOL0     H 6389   4.757   5.681   4.272  0.2815  1.8578  0.2665
  806MOL0     H 6390   4.415   5.603   4.014 -0.1859 -0.4832  0.1671
  806MOL0     H 6391   4.527   6.225   4.041  0.4522 -0.4799 -0.1398
  806MOL0     H 6392   4.358   6.329   3.876 -0.0999  1.6342 -1.6476
  807MOL0     O 6393   9.005   4.613   9.923 -0.3853 -0.3083  0.7214
  807MOL0     C 6394   9.013   4.641   9.802  0.3682 -0.3384  0.1665
  807MOL0     O 6395   8.904   4.664   9.715  0.4707  0.5510 -0.9055
  807MOL0     C 6396   8.775   4.651   9.777 -0.5781 -0.0932  0.3929
  807MOL0     C 6397   8.718   4.758   9.842  0.2753  0.0169  0.4252
  807MOL0     C 6398   8.581   4.757   9.883 -0.8272  0.1915 -0.2018
  807MOL0     C 6399   8.500   4.641   9.848 -0.3226 -1.2050  0.7455
  807MOL0     O 6400   8.370   4.615   9.879 -0.1812 -0.4605 -0.0811
  807MOL0     C 6401   8.290   4.734   9.910 -0.2150 -1.1693  0.0553
  807MOL0     C 6402   8.145   4.686   9.929  0.7740  0.4702  0.4222
  807MOL0     C 6403   8.043   4.801   9.954 -0.0179  0.1475  0.8287
  807MOL0     C 6404   7.909   4.732   9.973  0.5722  0.8565  0.1702
  807MOL0     C 6405   7.781   4.818   9.958 -0.1132  0.2051  0.2370
  807MOL0     C 6406   7.778   4.935  10.062  0.1886  0.2591 -0.5869
  807MOL0     C 6407   7.647   5.013  10.035  0.2884  0.4252 -0.4089
  807MOL0     C 6408   7.515   4.942  10.058  0.2324 -0.2929 -0.0674
  807MOL0     N 6409   7.406   5.042  10.073  0.6501 -0.5146 -0.2266
  807MOL0     C 6410   7.374   5.122  10.179  0.2698 -0.2099 -0.7961
  807MOL0     C 6411   7.264   5.186  10.139  1.1017  0.8660 -0.3611
  807MOL0     C 6412   7.179   5.291  10.213  0.1413 -0.5858  0.7933
  807MOL0     C 6413   7.064   5.209  10.291 -0.7676 -0.3970  0.3303
  807MOL0     C 6414   6.969   5.308  10.355 -0.0940 -0.2071 -0.0396
  807MOL0     C 6415   6.891   5.251  10.474  0.0496  0.2672  0.4778
  807MOL0     O 6416   6.800   5.140  10.442 -0.6647  0.0022  0.3216
  807MOL0     C 6417   6.664   5.173  10.440  1.0127 -0.4300  0.0033
  807MOL0     C 6418   6.574   5.074  10.474  0.3635  0.4578  0.6340
  807MOL0     C 6419   6.444   5.098  10.486  0.2343  0.2898 -0.2925
  807MOL0     C 6420   6.388   5.221  10.451 -0.8519  0.0578 -0.4130
  807MOL0     C 6421   6.248   5.247  10.473  0.0460  0.1698 -0.0871
  807MOL0     O 6422   6.173   5.138  10.507 -0.2176  0.4553 -0.3647
  807MOL0     C 6423   6.067   5.166  10.591 -0.3078  0.4373  0.4385
  807MOL0     C 6424   5.932   5.151  10.553  0.4114 -0.5618 -0.4944
  807MOL0     C 6425   5.828   5.199  10.632 -0.5760 -0.1615 -0.1048
  807MOL0     C 6426   5.857   5.252  10.759 -0.1822  0.0706  0.1825
  807MOL0     O 6427   5.758   5.286  10.838  0.2200  0.2887 -0.2638
  807MOL0     C 6428   5.725   5.427  10.843  0.4834  0.2390  0.5640
  807MOL0     C 6429   5.595   5.433  10.908 -0.1714 -0.4440  0.3489
  807MOL0     C 6430   5.521   5.568  10.902 -0.5534  0.7281 -0.6749
  807MOL0     C 6431   5.405   5.585  10.996 -0.1698 -0.2059  0.3480
  807MOL0     C 6432   5.287   5.500  10.956  0.1632  0.0478  0.7401
  807MOL0     C 6433   5.157   5.568  11.015  0.3023 -0.5667  0.4657
  807MOL0     C 6434   5.113   5.695  10.930 -0.5974 -0.1545 -0.7088
  807MOL0     C 6435   4.974   5.734  10.969  0.3453  0.3071 -0.4348
  807MOL0    Cl 6436   4.963   5.798  11.132  0.4088 -0.2243 -0.1851
  807MOL0     C 6437   5.984   5.252  10.807 -0.4266 -1.0211 -0.2488
  807MOL0     C 6438   6.089   5.220  10.721  0.4549  0.2474 -0.2043
  807MOL0     O 6439   6.213   5.362  10.473  0.2123 -0.6214 -0.3402
  807MOL0     C 6440   6.471   5.322  10.404 -0.0447 -0.2038  1.0476
  807MOL0     C 6441   6.615   5.295  10.399  0.3417  0.3813  0.0592
  807MOL0     N 6442   7.231   5.143  10.015  0.1403  0.7210  0.4603
  807MOL0     N 6443   7.316   5.059   9.975  1.0810  0.7751  0.4370
  807MOL0     C 6444   8.556   4.546   9.760 -0.5752 -0.5371 -0.2863
  807MOL0     C 6445   8.692   4.556   9.725 -0.0438 -0.1140  0.1174
  807MOL0     C 6446   9.147   4.650   9.744 -0.2657  0.8194 -0.2945
  807MOL0     C 6447   9.250   4.708   9.813  0.1474 -0.2931  0.2063
  807MOL0     C 6448   9.371   4.729   9.745 -0.3993  0.7895  1.3900
  807MOL0     C 6449   9.389   4.693   9.607  0.0428 -0.1326 -0.6811
  807MOL0     O 6450   9.513   4.726   9.551  0.1420 -0.3327 -0.2735
  807MOL0     C 6451   9.513   4.744   9.408  0.7181  0.3991  0.0241
  807MOL0     C 6452   9.533   4.615   9.328 -0.0415 -0.4745 -0.4676
  807MOL0     C 6453   9.680   4.582   9.322 -0.6090  0.5358  0.6147
  807MOL0     C 6454   9.714   4.449   9.251 -0.6796  0.6398 -0.0933
  807MOL0     C 6455   9.854   4.404   9.242  0.1735  0.4623  0.0544
  807MOL0     C 6456   9.959   4.346   9.246  0.1316 -0.3945  0.4688
  807MOL0     C 6457   9.278   4.633   9.543 -0.0597  0.0325  0.4259
  807MOL0     C 6458   9.165   4.612   9.615  0.4027  0.6739  0.4975
  807MOL0     H 6459   8.785   4.840   9.867  3.1259 -1.6303 -1.3391
  807MOL0     H 6460   8.540   4.824   9.958 -2.2467 -2.3306  1.4275
  807MOL0     H 6461   8.293   4.812   9.834  1.3248 -1.2439 -0.0058
  807MOL0     H 6462   8.323   4.781  10.004 -1.4278 -0.2150  0.0258
  807MOL0     H 6463   8.142   4.622  10.017 -1.2072 -1.2022 -0.7718
  807MOL0     H 6464   8.119   4.626   9.841  3.0774  1.8556 -1.3263
  807MOL0     H 6465   8.033   4.871   9.871 -0.5317 -0.1858  0.6061
  807MOL0     H 6466   8.074   4.859  10.042 -1.1002  1.0692  0.6443
  807MOL0     H 6467   7.898   4.659   9.893  0.1680  0.7606  0.3132
  807MOL0     H 6468   7.899   4.686  10.071 -3.9118  1.0567  0.0303
  807MOL0     H 6469   7.696   4.750   9.965  2.0450 -2.4958  3.1398
  807MOL0     H 6470   7.770   4.859   9.858 -1.6152  0.7296  0.5921
  807MOL0     H 6471   7.857   5.009  10.048 -1.6344  2.5274  0.4458
  807MOL0     H 6472   7.782   4.889  10.161 -1.5566 -1.1340 -1.1052
  807MOL0     H 6473   7.647   5.109  10.088 -0.3526  0.4157 -0.3752
  807MOL0     H 6474   7.644   5.041   9.930 -0.9520  3.3548  0.2977
  807MOL0     H 6475   7.525   4.869  10.139  1.0379 -1.4319 -1.1580
  807MOL0     H 6476   7.498   4.889   9.964 -2.3469 -1.3228  0.9183
  807MOL0     H 6477   7.421   5.142  10.275 -1.1179 -1.5091  0.1944
  807MOL0     H 6478   7.143   5.367  10.143  3.2655 -0.9358 -1.3926
  807MOL0     H 6479   7.244   5.345  10.283 -0.2546  1.8508 -0.6091
  807MOL0     H 6480   7.114   5.140  10.359  2.2611  1.6694  0.3734
  807MOL0     H 6481   7.003   5.149  10.222  0.1141 -2.7597  1.5218
  807MOL0     H 6482   7.044   5.375  10.399 -0.8903  3.3305 -3.5555
  807MOL0     H 6483   6.903   5.362  10.287 -0.8619 -1.7325 -0.5574
  807MOL0     H 6484   6.836   5.325  10.533  0.5938  0.9887  0.1037
  807MOL0     H 6485   6.967   5.209  10.539 -0.1829 -1.6527 -0.4209
  807MOL0     H 6486   6.600   4.972  10.502 -2.3406 -1.2279 -2.2868
  807MOL0     H 6487   6.380   5.020  10.524  0.3764  1.2149  2.0022
  807MOL0     H 6488   5.912   5.101  10.458 -1.5322  0.6686 -0.7924
  807MOL0     H 6489   5.726   5.189  10.596 -0.1965  1.1278 -1.6207
  807MOL0     H 6490   5.714   5.461  10.740 -1.7663  0.2498  0.7606
  807MOL0     H 6491   5.801   5.487  10.893  0.6493 -0.4957  1.2216
  807MOL0     H 6492   5.621   5.397  11.008  0.6096  0.5641  0.5280
  807MOL0     H 6493   5.528   5.358  10.866  0.9018 -1.9370  1.2072
  807MOL0     H 6494   5.490   5.579  10.798 -0.9569 -2.2822 -0.9657
  807MOL0     H 6495   5.587   5.653  10.924 -0.9070  0.7762  0.2896
  807MOL0     H 6496   5.439   5.559  11.097  0.3598  1.7237  0.7130
  807MOL0     H 6497   5.385   5.692  11.007 -0.8704 -0.4821  2.2310
  807MOL0     H 6498   5.300   5.399  10.996  2.0161  0.1000  0.3851
  807MOL0     H 6499   5.290   5.488  10.847  1.0665  0.6115  0.6874
  807MOL0     H 6500   5.179   5.591  11.120  0.6855  0.5485  0.1556
  807MOL0     H 6501   5.076   5.495  11.014  1.1209 -1.4883  0.0539
  807MOL0     H 6502   5.183   5.776  10.954 -0.8241 -0.4794  1.2089
  807MOL0     H 6503   5.122   5.668  10.824 -0.4768  1.7854 -1.2266
  807MOL0     H 6504   4.914   5.644  10.953  0.1142  0.4361 -0.2966
  807MOL0     H 6505   4.952   5.824  10.910  1.5391  1.2006  0.4248
  807MOL0     H 6506   6.009   5.284  10.908  3.5064  0.1956 -1.4412
  807MOL0     H 6507   6.194   5.235  10.744  0.6918  1.1194 -1.6765
  807MOL0     H 6508   6.430   5.417  10.372  3.1040  0.9451  0.0416
  807MOL0     H 6509   6.695   5.355  10.356  0.8047 -2.1703 -2.9758
  807MOL0     H 6510   8.517   4.455   9.714  0.9366 -0.4772 -1.8084
  807MOL0     H 6511   8.741   4.486   9.659  1.6646 -0.0444  1.2481
  807MOL0     H 6512   9.243   4.737   9.918  0.9864  1.5278 -0.2153
  807MOL0     H 6513   9.463   4.760   9.794  1.6485 -0.7993 -1.2011
  807MOL0     H 6514   9.593   4.816   9.387  0.7138  1.2529  2.5706
  807MOL0     H 6515   9.423   4.793   9.369 -0.1342 -0.3940  0.9266
  807MOL0     H 6516   9.467   4.532   9.357  1.7542 -2.3671 -1.4743
  807MOL0     H 6517   9.504   4.644   9.227 -0.7070 -0.2535 -0.2154
  807MOL0     H 6518   9.711   4.563   9.425 -2.4318 -0.4688  1.0173
  807MOL0     H 6519   9.737   4.663   9.276  2.0851 -1.3226  0.4072
  807MOL0     H 6520   9.672   4.365   9.307  2.9259 -3.0840 -2.4321
  807MOL0     H 6521   9.680   4.446   9.147  1.3164 -2.2415 -0.7534
  807MOL0     H 6522  10.053   4.296   9.260  1.5677  1.1719 -2.5536
  807MOL0     H 6523   9.290   4.596   9.442  2.5123 -1.3435  1.1339
  807MOL0     H 6524   9.087   4.573   9.549  1.3196 -0.4094  0.0139
  808MOL0     O 6525   0.884   4.975   7.358  0.2031 -0.2098 -0.5409
  808MOL0     C 6526   0.945   5.034   7.269  0.7979  0.1009  0.2085
  808MOL0     O 6527   0.890   5.136   7.200  0.2507  0.6575  0.4968
  808MOL0     C 6528   0.759   5.163   7.205  0.4833  0.0751  0.5739
  808MOL0     C 6529   0.656   5.069   7.184 -0.1758  0.4454 -0.1910
  808MOL0     C 6530   0.529   5.109   7.188  1.0444 -0.1970 -0.2924
  808MOL0     C 6531   0.482   5.231   7.220  1.0779 -0.5364  0.5744
  808MOL0     O 6532   0.344   5.246   7.232  0.6242  0.3987  0.6575
  808MOL0     C 6533   0.289   5.369   7.301 -0.1310  0.0348  0.3270
  808MOL0     C 6534   0.156   5.342   7.365  0.8671  0.3992 -0.4137
  808MOL0     C 6535   0.184   5.260   7.488  0.7659  0.1943  0.2141
  808MOL0     C 6536   0.065   5.236   7.584 -0.0103 -0.2198  0.1420
  808MOL0     C 6537  -0.043   5.150   7.520  0.8991 -0.1181 -0.1744
  808MOL0     C 6538  -0.170   5.156   7.604 -0.2594 -1.2603  0.0019
  808MOL0     C 6539  -0.277   5.069   7.535  0.9355  0.0814 -0.2580
  808MOL0     C 6540  -0.406   5.059   7.637 -0.8605 -0.7380 -0.6353
  808MOL0     N 6541  -0.496   4.945   7.617 -0.5536 -0.4972 -0.2396
  808MOL0     C 6542  -0.601   4.948   7.527 -0.9060  0.6342 -0.3147
  808MOL0     C 6543  -0.619   4.822   7.492  0.1624  0.4538  0.3546
  808MOL0     C 6544  -0.698   4.778   7.372  0.0370  0.0678 -0.2551
  808MOL0     C 6545  -0.840   4.766   7.429 -0.8183  0.1295 -0.5224
  808MOL0     C 6546  -0.871   4.678   7.553  0.1798 -0.3390  0.0221
  808MOL0     C 6547  -1.030   4.661   7.548 -0.0529 -0.5790 -0.1302
  808MOL0     O 6548  -1.091   4.788   7.568 -0.2951 -0.0236  0.5999
  808MOL0     C 6549  -1.215   4.803   7.625  0.5894  0.1782 -0.3394
  808MOL0     C 6550  -1.324   4.715   7.591  0.0756 -0.3345  0.4113
  808MOL0     C 6551  -1.449   4.756   7.631  0.2376  0.2195  0.0866
  808MOL0     C 6552  -1.476   4.870   7.699 -1.2131 -0.5767 -0.1095
  808MOL0     C 6553  -1.612   4.903   7.744  0.1548 -0.9884 -0.4463
  808MOL0     O 6554  -1.721   4.828   7.698 -0.0818 -0.0387  0.5936
  808MOL0     C 6555  -1.852   4.834   7.736 -0.0333 -0.0937  0.2609
  808MOL0     C 6556  -1.911   4.942   7.799  0.3335 -0.1922 -0.2797
  808MOL0     C 6557  -2.049   4.949   7.833 -0.5333  0.3200  0.1013
  808MOL0     C 6558  -2.132   4.840   7.791  0.9114  0.1703  0.8609
  808MOL0     O 6559  -2.271   4.833   7.799 -0.1627  0.5126 -0.6288
  808MOL0     C 6560  -2.342   4.939   7.870  0.5932  0.0287 -0.3235
  808MOL0     C 6561  -2.492   4.906   7.852 -0.5522  0.4611 -0.2554
  808MOL0     C 6562  -2.548   4.914   7.708 -0.1743  0.2086  0.5452
  808MOL0     C 6563  -2.705   4.941   7.711 -0.4704 -0.3898 -0.0251
  808MOL0     C 6564  -2.766   4.873   7.588  0.5360 -0.7287  0.3773
  808MOL0     C 6565  -2.722   4.955   7.460  0.4225 -1.0047  0.4507
  808MOL0     C 6566  -2.767   4.885   7.334  0.4529  0.3556  0.3660
  808MOL0     C 6567  -2.793   4.985   7.227  0.3519 -0.0467 -0.0463
  808MOL0    Cl 6568  -2.836   4.893   7.079 -0.2761 -0.1656  0.3471
  808MOL0     C 6569  -2.066   4.730   7.729  0.6130 -0.0978 -0.0560
  808MOL0     C 6570  -1.934   4.725   7.701  0.3918 -0.5341 -0.0980
  808MOL0     O 6571  -1.618   4.985   7.834  0.0364 -0.1525 -0.3495
  808MOL0     C 6572  -1.363   4.951   7.738 -0.8776  0.1725 -0.3967
  808MOL0     C 6573  -1.230   4.914   7.703  0.2798 -0.0599 -0.0454
  808MOL0     N 6574  -0.549   4.742   7.570 -0.2357 -0.0556 -0.7130
  808MOL0     N 6575  -0.466   4.810   7.640 -0.5446 -0.6627  0.1151
  808MOL0     C 6576   0.584   5.334   7.249 -0.0945  0.8706 -0.3715
  808MOL0     C 6577   0.713   5.293   7.239 -0.2155 -0.2343 -0.4427
  808MOL0     C 6578   1.071   4.983   7.213 -0.1933  0.0461 -0.1526
  808MOL0     C 6579   1.152   4.900   7.292  0.5755  0.3097  0.0046
  808MOL0     C 6580   1.277   4.860   7.251 -0.6968 -0.3277  0.1541
  808MOL0     C 6581   1.329   4.904   7.119  0.2676  0.0262 -0.4897
  808MOL0     O 6582   1.444   4.850   7.059 -0.3136 -0.1510  0.6327
  808MOL0     C 6583   1.499   4.738   7.127  0.1474  1.0081 -0.6947
  808MOL0     C 6584   1.617   4.704   7.027  0.4200  0.7503  0.3191
  808MOL0     C 6585   1.712   4.821   7.004 -0.2985 -1.0468 -0.4541
  808MOL0     C 6586   1.835   4.779   6.916 -0.1747 -0.4820  0.2017
  808MOL0     C 6587   1.928   4.703   7.008  0.2404  0.2061 -0.1608
  808MOL0     C 6588   2.004   4.630   7.073  0.0940 -0.7017  0.0802
  808MOL0     C 6589   1.244   4.989   7.049  0.5739  0.3462 -0.0357
  808MOL0     C 6590   1.121   5.026   7.091 -0.6370 -0.1573 -0.6242
  808MOL0     H 6591   0.675   4.971   7.140  0.7619 -0.2385  1.6648
  808MOL0     H 6592   0.457   5.030   7.168  2.6437 -1.7015 -0.3226
  808MOL0     H 6593   0.275   5.454   7.233 -0.3366  0.9391  1.4713
  808MOL0     H 6594   0.356   5.397   7.383 -1.5022  0.4975  1.3087
  808MOL0     H 6595   0.097   5.285   7.293 -2.8679  0.5142  2.2810
  808MOL0     H 6596   0.101   5.429   7.403  0.1546 -0.8226  1.4856
  808MOL0     H 6597   0.258   5.312   7.549  1.9366  0.1440 -1.1213
  808MOL0     H 6598   0.229   5.163   7.463  1.7636  0.6246  0.3097
  808MOL0     H 6599   0.106   5.193   7.676 -2.0131 -0.9702  0.7391
  808MOL0     H 6600   0.021   5.332   7.611 -0.4485  0.1468 -1.7395
  808MOL0     H 6601  -0.000   5.050   7.531 -0.3518 -0.5677  0.9219
  808MOL0     H 6602  -0.060   5.176   7.415  3.1065 -0.2238 -0.6015
  808MOL0     H 6603  -0.211   5.257   7.600  0.4471 -1.0122 -1.6727
  808MOL0     H 6604  -0.145   5.113   7.701 -1.5179 -3.1613 -0.4585
  808MOL0     H 6605  -0.299   5.103   7.434 -0.7647 -1.2534 -0.3731
  808MOL0     H 6606  -0.242   4.968   7.513  1.3137  0.4363 -1.3341
  808MOL0     H 6607  -0.460   5.154   7.639  0.8916  0.2925  1.1403
  808MOL0     H 6608  -0.361   5.059   7.736 -0.0657 -1.1917 -0.9897
  808MOL0     H 6609  -0.644   5.023   7.461 -1.5107  0.3250 -0.2734
  808MOL0     H 6610  -0.662   4.682   7.335 -1.7554 -0.6926 -0.1642
  808MOL0     H 6611  -0.704   4.853   7.293 -0.6663  0.7677  0.4353
  808MOL0     H 6612  -0.890   4.712   7.348 -0.7097  1.1940 -1.3260
  808MOL0     H 6613  -0.866   4.872   7.440  2.5381  1.2330 -2.0584
  808MOL0     H 6614  -0.821   4.581   7.551  1.2157  0.1853  0.0607
  808MOL0     H 6615  -0.847   4.737   7.642 -0.3921  1.6874 -1.0970
  808MOL0     H 6616  -1.048   4.578   7.617 -0.9104  1.1391  1.8300
  808MOL0     H 6617  -1.066   4.633   7.449 -2.7185  1.8955  0.0208
  808MOL0     H 6618  -1.303   4.623   7.538  0.6694  0.7252 -1.2540
  808MOL0     H 6619  -1.540   4.698   7.622  1.5707 -2.4623  2.4385
  808MOL0     H 6620  -1.848   5.026   7.825  0.3543 -1.1613  3.2468
  808MOL0     H 6621  -2.098   5.034   7.880 -3.4633 -1.9139  1.3929
  808MOL0     H 6622  -2.328   5.038   7.824  1.1845  0.7216  1.2983
  808MOL0     H 6623  -2.321   4.942   7.977  1.0138  0.9470 -0.4249
  808MOL0     H 6624  -2.545   4.978   7.914 -2.9686 -2.2574  1.0445
  808MOL0     H 6625  -2.505   4.808   7.898  2.9057  0.5892  1.2798
  808MOL0     H 6626  -2.522   4.820   7.658  0.4715  0.0589  1.1262
  808MOL0     H 6627  -2.497   4.997   7.659 -1.9032  0.9765 -0.0043
  808MOL0     H 6628  -2.756   4.895   7.796 -0.6350  3.9238  2.4374
  808MOL0     H 6629  -2.718   5.049   7.700  3.6186  0.6583  3.0475
  808MOL0     H 6630  -2.875   4.861   7.586  0.5302 -0.5816 -0.7048
  808MOL0     H 6631  -2.729   4.771   7.590  1.8588 -0.2894 -0.6073
  808MOL0     H 6632  -2.612   4.962   7.456  0.3764  1.1501  1.7036
  808MOL0     H 6633  -2.756   5.058   7.471  2.7409 -0.1638  0.3675
  808MOL0     H 6634  -2.689   4.819   7.295 -0.6490 -0.7638 -0.0158
  808MOL0     H 6635  -2.856   4.824   7.350  0.7703 -0.2685 -0.2016
  808MOL0     H 6636  -2.702   5.044   7.217  1.0280 -0.7807  1.5134
  808MOL0     H 6637  -2.888   5.031   7.257 -0.2779 -1.3879  0.0911
  808MOL0     H 6638  -2.133   4.652   7.693  1.4551 -0.1789 -1.5168
  808MOL0     H 6639  -1.899   4.638   7.646  0.2349  0.4444 -1.8416
  808MOL0     H 6640  -1.378   5.027   7.814  1.6982  1.5349 -1.1557
  808MOL0     H 6641  -1.146   4.977   7.733 -1.3402  1.0105  2.6633
  808MOL0     H 6642   0.569   5.439   7.268 -1.0556  1.2681 -2.8676
  808MOL0     H 6643   0.789   5.370   7.241 -1.4651  1.0315 -0.5147
  808MOL0     H 6644   1.118   4.871   7.391  0.8513  0.1120  0.0425
  808MOL0     H 6645   1.339   4.785   7.300 -1.1974 -0.5693  0.4302
  808MOL0     H 6646   1.436   4.649   7.124  1.9081 -0.2586 -1.6269
  808MOL0     H 6647   1.533   4.758   7.228 -2.5653  1.2432  0.2656
  808MOL0     H 6648   1.671   4.617   7.064  1.2883  1.3965  0.5999
  808MOL0     H 6649   1.578   4.680   6.928  0.3944  6.1522 -1.3196
  808MOL0     H 6650   1.748   4.852   7.102 -0.0767 -0.3899 -0.7384
  808MOL0     H 6651   1.664   4.906   6.955 -0.0814  0.0222  1.1218
  808MOL0     H 6652   1.802   4.716   6.832  0.1293 -1.5706  0.8781
  808MOL0     H 6653   1.885   4.871   6.886  0.7304 -0.5648  1.4177
  808MOL0     H 6654   2.066   4.563   7.128 -1.7612 -3.0399 -0.5162
  808MOL0     H 6655   1.276   5.035   6.956 -0.6234  1.2756 -0.0033
  808MOL0     H 6656   1.060   5.079   7.019 -0.2421 -0.4583 -1.1924
  809MOL0     O 6657   7.868   4.088   7.510  0.6763  0.5068  0.6435
  809MOL0     C 6658   7.937   4.061   7.416  1.3424  0.0267 -0.0641
  809MOL0     O 6659   7.887   4.033   7.287  0.2007  0.0452 -1.0019
  809MOL0     C 6660   7.753   4.041   7.253 -0.3817  0.7488 -0.0020
  809MOL0     C 6661   7.643   4.001   7.340 -0.4201 -1.3266  0.0570
  809MOL0     C 6662   7.514   4.007   7.291  0.2625  0.5744  0.6669
  809MOL0     C 6663   7.485   4.049   7.160 -0.4499  0.1757 -0.1676
  809MOL0     O 6664   7.355   4.041   7.133 -0.0900 -0.7578  0.1938
  809MOL0     C 6665   7.323   4.057   6.991  0.5486  0.0466  0.5677
  809MOL0     C 6666   7.174   4.074   6.970 -0.1036 -0.1905 -0.8162
  809MOL0     C 6667   7.100   3.961   7.035 -0.2936  0.3701 -0.5130
  809MOL0     C 6668   6.961   3.954   6.987  0.3748  0.9499 -0.8273
  809MOL0     C 6669   6.891   3.844   7.058 -0.3922 -0.1872  1.0398
  809MOL0     C 6670   6.753   3.838   6.997  0.0500  0.3819 -0.3868
  809MOL0     C 6671   6.660   3.956   7.044  0.3125 -0.1137 -0.1787
  809MOL0     C 6672   6.577   3.912   7.168  0.6717 -0.1330 -0.3401
  809MOL0     N 6673   6.460   3.816   7.156 -0.9904 -0.4006 -0.3898
  809MOL0     C 6674   6.350   3.824   7.241 -0.8795  0.6298  0.3352
  809MOL0     C 6675   6.279   3.714   7.199  0.8502  0.2414 -0.6158
  809MOL0     C 6676   6.141   3.683   7.255 -0.0148 -1.7887  0.2023
  809MOL0     C 6677   6.037   3.775   7.180  0.7151  0.4964  0.2684
  809MOL0     C 6678   5.899   3.732   7.235 -1.1298  0.4768 -0.2887
  809MOL0     C 6679   5.780   3.773   7.155 -0.5285  0.3567 -0.0546
  809MOL0     O 6680   5.800   3.910   7.111 -0.0543  0.0165  0.5525
  809MOL0     C 6681   5.716   3.977   7.020 -0.4360  0.3138  0.2928
  809MOL0     C 6682   5.763   4.087   6.943  0.3260  0.1807 -0.5104
  809MOL0     C 6683   5.674   4.152   6.854 -0.1867 -0.3579  0.4779
  809MOL0     C 6684   5.535   4.123   6.843  0.4258  0.4419  0.5453
  809MOL0     C 6685   5.439   4.196   6.753 -0.2075 -0.8640 -0.4843
  809MOL0     O 6686   5.309   4.167   6.764 -0.2204  0.3089  0.2041
  809MOL0     C 6687   5.217   4.229   6.680  0.4949 -0.5649 -0.7299
  809MOL0     C 6688   5.225   4.358   6.629  0.1571  0.4430  0.0433
  809MOL0     C 6689   5.132   4.413   6.550  0.3523  0.4226  0.0064
  809MOL0     C 6690   5.017   4.335   6.505 -0.0324 -0.4099 -0.4759
  809MOL0     O 6691   4.916   4.400   6.439  0.2702 -0.1826  0.3174
  809MOL0     C 6692   4.881   4.539   6.458  0.9904  0.6132 -0.0562
  809MOL0     C 6693   4.743   4.578   6.408 -1.0259 -1.0312  0.1409
  809MOL0     C 6694   4.637   4.548   6.518 -0.5889 -0.3484 -0.2462
  809MOL0     C 6695   4.628   4.399   6.571 -0.1119 -0.7573  0.5420
  809MOL0     C 6696   4.505   4.398   6.671  0.2770  0.3121  0.0252
  809MOL0     C 6697   4.492   4.267   6.737 -1.0774 -0.4174 -0.4035
  809MOL0     C 6698   4.388   4.264   6.844  0.3683  0.8722 -0.6787
  809MOL0     C 6699   4.253   4.206   6.790 -0.0037  1.0654 -0.2422
  809MOL0    Cl 6700   4.119   4.234   6.920 -0.1059  0.3655  0.1965
  809MOL0     C 6701   5.004   4.205   6.549 -0.2122  0.9148  0.4773
  809MOL0     C 6702   5.105   4.157   6.636 -0.0515 -0.0841  0.0396
  809MOL0     O 6703   5.489   4.242   6.657  0.2182 -0.1361  0.3637
  809MOL0     C 6704   5.489   4.018   6.923  0.4371 -0.6393  0.5131
  809MOL0     C 6705   5.578   3.944   7.004 -0.6974 -0.5076 -0.5402
  809MOL0     N 6706   6.340   3.646   7.099 -0.0486  0.4088  0.7362
  809MOL0     N 6707   6.453   3.704   7.071 -0.4255 -0.1285  0.7270
  809MOL0     C 6708   7.595   4.081   7.075  0.1443  1.2691  0.2667
  809MOL0     C 6709   7.728   4.085   7.121 -0.4809  0.5869 -0.4623
  809MOL0     C 6710   8.084   4.042   7.438 -1.3120 -0.3824  0.7915
  809MOL0     C 6711   8.169   3.997   7.337  0.0339  0.0431  0.3770
  809MOL0     C 6712   8.305   3.990   7.362  0.0505 -0.1017  0.7181
  809MOL0     C 6713   8.361   4.037   7.482 -0.2751  0.6398 -0.2139
  809MOL0     O 6714   8.498   4.039   7.492 -0.0002  0.1410  0.7028
  809MOL0     C 6715   8.549   4.170   7.491 -0.8169 -0.1908  1.3292
  809MOL0     C 6716   8.662   4.173   7.386 -1.0532 -0.3017 -0.4515
  809MOL0     C 6717   8.620   4.147   7.242  0.1841  0.1882 -0.2727
  809MOL0     C 6718   8.732   4.141   7.139  0.6962 -0.6990 -1.0066
  809MOL0     C 6719   8.842   4.048   7.176  0.3397 -0.2108 -0.0233
  809MOL0     C 6720   8.941   3.992   7.218  0.3349  0.9459  0.7778
  809MOL0     C 6721   8.280   4.095   7.577  0.3472 -1.2025  0.4046
  809MOL0     C 6722   8.144   4.089   7.556  0.6617  0.3607  0.7024
  809MOL0     H 6723   7.664   3.989   7.446 -1.0820  3.7117  1.0106
  809MOL0     H 6724   7.425   3.985   7.349 -0.5741  3.0508  0.4426
  809MOL0     H 6725   7.365   3.968   6.944  2.4181  0.8980  0.5483
  809MOL0     H 6726   7.383   4.135   6.944  1.1353 -2.0247 -2.4442
  809MOL0     H 6727   7.150   4.096   6.866  2.5627 -1.6155 -1.8412
  809MOL0     H 6728   7.152   4.165   7.026  2.8956  0.4860 -0.5712
  809MOL0     H 6729   7.108   3.969   7.144  0.6444 -1.2499 -0.4340
  809MOL0     H 6730   7.152   3.868   7.009  0.8918  0.4305  1.4469
  809MOL0     H 6731   6.914   4.052   7.000 -1.0816 -0.0692  2.9757
  809MOL0     H 6732   6.962   3.925   6.881  0.7353  0.4634 -0.6946
  809MOL0     H 6733   6.876   3.861   7.165  0.9071  1.7299  0.9605
  809MOL0     H 6734   6.945   3.749   7.050 -0.6592 -0.2735  0.2679
  809MOL0     H 6735   6.698   3.744   7.003 -0.5255  0.3523 -4.1510
  809MOL0     H 6736   6.755   3.846   6.888  1.3385 -3.0704 -0.7367
  809MOL0     H 6737   6.717   4.044   7.075  0.1234 -0.4600  1.2423
  809MOL0     H 6738   6.608   3.983   6.952  2.3757 -0.4522 -1.5121
  809MOL0     H 6739   6.529   3.996   7.219  2.1992  0.7316 -0.2757
  809MOL0     H 6740   6.646   3.868   7.241  0.5280  0.5600  0.2327
  809MOL0     H 6741   6.310   3.904   7.302 -0.6339  1.7743 -0.9438
  809MOL0     H 6742   6.151   3.708   7.361  0.5566 -2.6820  0.3711
  809MOL0     H 6743   6.115   3.576   7.253 -0.3167 -1.7096 -0.2766
  809MOL0     H 6744   6.035   3.753   7.073 -0.2116 -0.8969  0.5490
  809MOL0     H 6745   6.064   3.880   7.188  0.2587  0.5305  1.4687
  809MOL0     H 6746   5.900   3.623   7.246  1.0771  0.7393  4.8512
  809MOL0     H 6747   5.883   3.772   7.336 -0.4859  1.6212 -0.6259
  809MOL0     H 6748   5.689   3.747   7.210 -1.3358  0.0049 -1.4951
  809MOL0     H 6749   5.764   3.717   7.062 -1.0169  3.0609 -1.7275
  809MOL0     H 6750   5.868   4.115   6.951  0.2875  0.4015 -0.7585
  809MOL0     H 6751   5.706   4.238   6.797 -0.5957 -0.4438  0.1151
  809MOL0     H 6752   5.313   4.421   6.644 -0.2916  0.9160  0.7488
  809MOL0     H 6753   5.165   4.507   6.507  4.0186 -0.6857  0.0429
  809MOL0     H 6754   4.952   4.604   6.406  0.3060  2.0235  0.7161
  809MOL0     H 6755   4.877   4.556   6.566 -1.8549  1.4170 -0.2115
  809MOL0     H 6756   4.721   4.517   6.320 -1.3123  0.5986 -0.9764
  809MOL0     H 6757   4.747   4.682   6.374  0.2771 -0.4161  2.0154
  809MOL0     H 6758   4.541   4.581   6.477 -0.1077  1.1537 -0.2319
  809MOL0     H 6759   4.673   4.608   6.603 -0.7961 -0.0655 -0.3579
  809MOL0     H 6760   4.610   4.329   6.489  0.6932 -1.8963  1.3090
  809MOL0     H 6761   4.718   4.367   6.623  0.1230 -3.7082 -1.4286
  809MOL0     H 6762   4.413   4.418   6.616 -0.6498  1.3596  1.8299
  809MOL0     H 6763   4.521   4.473   6.749  0.0681 -0.1440  0.5165
  809MOL0     H 6764   4.587   4.243   6.785 -0.2926  1.4901 -0.9182
  809MOL0     H 6765   4.487   4.179   6.672  1.6492 -2.0710  1.3946
  809MOL0     H 6766   4.415   4.192   6.922  1.0106  1.9638  0.1331
  809MOL0     H 6767   4.365   4.361   6.888 -1.4441 -0.1058  0.6410
  809MOL0     H 6768   4.254   4.099   6.767  0.0142  1.6896 -3.6645
  809MOL0     H 6769   4.227   4.237   6.689 -0.6838  0.5572 -0.2277
  809MOL0     H 6770   4.922   4.139   6.519  2.3851 -2.9381  1.1659
  809MOL0     H 6771   5.077   4.062   6.681 -1.5466 -0.1227 -0.9031
  809MOL0     H 6772   5.388   3.979   6.927 -0.7329  2.2392  1.3691
  809MOL0     H 6773   5.533   3.865   7.064  0.9308 -0.5627  0.6701
  809MOL0     H 6774   7.569   4.121   6.978 -1.2933  1.2485  0.6075
  809MOL0     H 6775   7.811   4.121   7.061  1.3848 -0.5030  1.3071
  809MOL0     H 6776   8.127   3.965   7.242 -3.2947  0.1631  1.6790
  809MOL0     H 6777   8.362   3.951   7.279 -1.8699  0.0835 -0.7532
  809MOL0     H 6778   8.584   4.201   7.590  2.4418  0.2745  0.1503
  809MOL0     H 6779   8.469   4.237   7.458 -1.3771 -0.7921  1.4442
  809MOL0     H 6780   8.720   4.265   7.388  0.3826 -1.1822  0.0423
  809MOL0     H 6781   8.725   4.088   7.415  2.2656  1.8191 -0.9499
  809MOL0     H 6782   8.547   4.223   7.215 -1.2259 -0.6334  1.0555
  809MOL0     H 6783   8.585   4.043   7.245  2.1174 -0.5255  2.0640
  809MOL0     H 6784   8.692   4.106   7.043 -0.0146 -2.1392 -0.2175
  809MOL0     H 6785   8.768   4.242   7.120 -1.8500  0.2855 -0.9924
  809MOL0     H 6786   9.042   3.971   7.247 -0.0099  0.1441  1.4308
  809MOL0     H 6787   8.311   4.132   7.674  1.2183 -3.0653  0.8917
  809MOL0     H 6788   8.081   4.124   7.636  1.1985  0.6667  0.9984
  810MOL0     O 6789   0.312   8.983   8.010 -0.2611 -0.2832 -0.0063
  810MOL0     C 6790   0.325   8.866   8.051  0.0622 -0.0290  0.4019
  810MOL0     O 6791   0.439   8.800   8.081 -0.1970  0.1831 -0.3578
  810MOL0     C 6792   0.563   8.844   8.034  0.2695  0.5455 -0.2168
  810MOL0     C 6793   0.581   8.876   7.897  0.0314  0.8687 -0.5837
  810MOL0     C 6794   0.713   8.907   7.853  0.8075 -0.0376  0.8196
  810MOL0     C 6795   0.821   8.905   7.936  0.1684 -0.5339 -0.8075
  810MOL0     O 6796   0.947   8.927   7.893 -0.3179 -0.2323  1.0308
  810MOL0     C 6797   1.002   8.821   7.812  0.2741 -0.0816 -0.5767
  810MOL0     C 6798   1.142   8.856   7.760 -0.1219  0.4521 -0.5471
  810MOL0     C 6799   1.166   8.942   7.626  1.4410 -0.1658 -0.3043
  810MOL0     C 6800   1.168   9.092   7.649 -0.2584 -0.0580  0.1249
  810MOL0     C 6801   1.225   9.171   7.529 -0.9142  0.0412  0.0479
  810MOL0     C 6802   1.376   9.166   7.502 -0.6376 -0.1285  0.6389
  810MOL0     C 6803   1.459   9.179   7.629 -0.3443  0.1468 -1.4436
  810MOL0     C 6804   1.603   9.215   7.592  0.3282  0.7270  0.1220
  810MOL0     N 6805   1.618   9.361   7.581 -0.1510 -0.1719 -0.3085
  810MOL0     C 6806   1.739   9.418   7.586 -1.1658 -0.6820  0.4804
  810MOL0     C 6807   1.708   9.552   7.568  0.3002  0.2960 -0.0775
  810MOL0     C 6808   1.828   9.650   7.550  0.1063  0.3648  0.2858
  810MOL0     C 6809   1.793   9.797   7.531 -0.5561  0.0848  0.3354
  810MOL0     C 6810   1.721   9.858   7.650  0.6287  0.4645  1.3196
  810MOL0     C 6811   1.702  10.012   7.644 -0.3315  0.2943  0.1406
  810MOL0     O 6812   1.564  10.056   7.626 -0.3541 -0.5713  0.0149
  810MOL0     C 6813   1.459  10.040   7.711  0.7531 -0.1479 -0.2963
  810MOL0     C 6814   1.477  10.035   7.847 -0.0203 -0.1055  0.3917
  810MOL0     C 6815   1.362  10.017   7.926 -0.7832 -0.5391  0.1107
  810MOL0     C 6816   1.234  10.017   7.875  0.8925 -0.5217  0.1193
  810MOL0     C 6817   1.114  10.004   7.962  0.4044  0.5976 -0.6184
  810MOL0     O 6818   0.987   9.990   7.902  0.2560  0.5286 -0.0589
  810MOL0     C 6819   0.869   9.948   7.969 -0.3135  0.1155 -0.0773
  810MOL0     C 6820   0.860   9.908   8.108 -0.2493  0.5296  0.1819
  810MOL0     C 6821   0.728   9.892   8.164 -0.2976  0.5349  0.0930
  810MOL0     C 6822   0.618   9.908   8.081  0.6742 -0.0469 -0.7859
  810MOL0     O 6823   0.493   9.892   8.137 -0.4147  0.5800 -0.3930
  810MOL0     C 6824   0.457   9.755   8.149 -0.2913  0.4358  0.1548
  810MOL0     C 6825   0.341   9.751   8.237 -0.4736  0.4130 -0.0767
  810MOL0     C 6826   0.384   9.757   8.384 -0.0956  0.2013 -0.0922
  810MOL0     C 6827   0.401   9.607   8.427 -0.1885  0.4813  0.3444
  810MOL0     C 6828   0.448   9.594   8.573 -0.7220  0.4741  0.5480
  810MOL0     C 6829   0.347   9.629   8.665  1.2428 -0.3697  0.7133
  810MOL0     C 6830   0.210   9.559   8.663  0.2125  0.3478 -0.6888
  810MOL0     C 6831   0.097   9.656   8.675  0.5041 -0.1732 -1.0614
  810MOL0    Cl 6832  -0.074   9.601   8.636  0.4029  0.0020  0.2786
  810MOL0     C 6833   0.618   9.941   7.945  0.0922 -0.0798 -0.3730
  810MOL0     C 6834   0.746   9.961   7.892 -0.0277  0.0885 -0.0953
  810MOL0     O 6835   1.139   9.983   8.080  0.1087 -0.4198  0.4750
  810MOL0     C 6836   1.219  10.030   7.736  0.8917 -1.1445 -0.1853
  810MOL0     C 6837   1.331  10.043   7.654 -0.3224 -0.6147  0.0788
  810MOL0     N 6838   1.573   9.562   7.552 -0.1280  0.0704 -0.1596
  810MOL0     N 6839   1.515   9.451   7.564 -0.4411  0.0725  0.7645
  810MOL0     C 6840   0.800   8.873   8.072  0.0663  0.6383  0.2731
  810MOL0     C 6841   0.670   8.844   8.118 -0.3052 -0.1328 -0.3209
  810MOL0     C 6842   0.195   8.799   8.085  0.1598 -0.2210 -0.5263
  810MOL0     C 6843   0.191   8.667   8.142  0.8360  0.2967 -0.1574
  810MOL0     C 6844   0.067   8.611   8.175 -0.3745  0.1339 -0.0092
  810MOL0     C 6845  -0.048   8.680   8.158  0.1831  0.1675 -0.6361
  810MOL0     O 6846  -0.162   8.608   8.196  0.1805  0.4114  0.8698
  810MOL0     C 6847  -0.293   8.656   8.151 -0.6562 -0.0751 -0.9715
  810MOL0     C 6848  -0.397   8.551   8.173 -0.2998 -1.0201  0.1424
  810MOL0     C 6849  -0.539   8.619   8.176 -0.3512 -0.0374  0.4546
  810MOL0     C 6850  -0.632   8.512   8.220 -0.2220  0.2174  0.7939
  810MOL0     C 6851  -0.765   8.564   8.229  0.0998 -0.1566 -0.1644
  810MOL0     C 6852  -0.877   8.613   8.230 -0.8360  0.2896  0.6935
  810MOL0     C 6853  -0.048   8.810   8.091 -0.5632 -0.0271  0.0791
  810MOL0     C 6854   0.075   8.866   8.065  0.3685 -0.0995  0.7526
  810MOL0     H 6855   0.502   8.863   7.823  2.1541 -5.1870 -2.4518
  810MOL0     H 6856   0.734   8.938   7.751 -1.0741  0.6023  0.5807
  810MOL0     H 6857   0.950   8.803   7.718 -1.6293  1.7055  0.0468
  810MOL0     H 6858   1.004   8.733   7.877  0.2077  1.4688  1.6683
  810MOL0     H 6859   1.174   8.758   7.725  1.2438  0.3036  1.0012
  810MOL0     H 6860   1.206   8.893   7.841  0.5763  1.1821 -1.3979
  810MOL0     H 6861   1.084   8.918   7.557  1.6625 -1.9432  0.0061
  810MOL0     H 6862   1.261   8.924   7.576  1.5245  0.5744 -0.4328
  810MOL0     H 6863   1.068   9.134   7.665  1.1908  3.5881  0.5808
  810MOL0     H 6864   1.225   9.117   7.739 -0.7987  0.0286  0.4460
  810MOL0     H 6865   1.202   9.276   7.551  1.4677  0.4870  0.7444
  810MOL0     H 6866   1.178   9.151   7.432 -0.5627 -3.8784  0.5531
  810MOL0     H 6867   1.396   9.247   7.431 -0.3142 -2.0495 -1.5699
  810MOL0     H 6868   1.414   9.079   7.449  4.3317  2.9290 -1.5606
  810MOL0     H 6869   1.418   9.240   7.710 -1.8837 -4.0065  1.2790
  810MOL0     H 6870   1.469   9.078   7.671 -0.4288  1.7723  3.0726
  810MOL0     H 6871   1.615   9.168   7.494 -2.5150 -0.9077  0.4506
  810MOL0     H 6872   1.673   9.169   7.662 -1.3989 -0.3655  1.1873
  810MOL0     H 6873   1.839   9.376   7.592 -1.2271 -2.0281 -3.9476
  810MOL0     H 6874   1.881   9.614   7.462 -0.6281  1.0896 -0.4755
  810MOL0     H 6875   1.894   9.643   7.637  0.6552 -0.7177 -0.1935
  810MOL0     H 6876   1.737   9.813   7.439  0.9630  2.4736 -0.2566
  810MOL0     H 6877   1.896   9.831   7.520  0.2124 -2.9484 -4.1152
  810MOL0     H 6878   1.621   9.813   7.657 -0.0413  1.1025 -2.1613
  810MOL0     H 6879   1.771   9.840   7.745 -0.9269 -0.6727  1.9655
  810MOL0     H 6880   1.756  10.053   7.558  1.2913  1.9391  1.8639
  810MOL0     H 6881   1.735  10.055   7.738 -1.6155  2.4796 -0.3352
  810MOL0     H 6882   1.577  10.012   7.882  0.6437 -0.5619 -1.6550
  810MOL0     H 6883   1.376   9.989   8.030 -0.7631  0.6999  0.4526
  810MOL0     H 6884   0.946   9.914   8.173 -0.9101  0.3109  1.0891
  810MOL0     H 6885   0.706   9.878   8.269  0.4542 -1.9526 -0.0222
  810MOL0     H 6886   0.542   9.703   8.193 -0.5834  0.9911  1.4093
  810MOL0     H 6887   0.419   9.713   8.055 -0.4097 -1.3561  0.9736
  810MOL0     H 6888   0.293   9.655   8.214  3.8322 -1.5664 -1.9916
  810MOL0     H 6889   0.276   9.835   8.212 -2.5450 -0.9646  0.4730
  810MOL0     H 6890   0.310   9.800   8.452  0.8503 -3.4043  3.5926
  810MOL0     H 6891   0.477   9.815   8.389  1.4601 -2.2498  1.3142
  810MOL0     H 6892   0.313   9.547   8.402  0.6824  0.6653 -4.1091
  810MOL0     H 6893   0.477   9.569   8.358 -1.3855 -0.0984 -0.7010
  810MOL0     H 6894   0.540   9.650   8.594  0.6646 -1.4609 -0.0662
  810MOL0     H 6895   0.466   9.489   8.597 -1.0395 -0.5119 -3.0001
  810MOL0     H 6896   0.331   9.737   8.652  0.5367 -0.1602  2.9611
  810MOL0     H 6897   0.390   9.620   8.764 -0.1821 -2.6785  1.1933
  810MOL0     H 6898   0.209   9.501   8.571  1.0963  0.1765 -0.5984
  810MOL0     H 6899   0.202   9.492   8.749  0.1073  1.7506  0.4347
  810MOL0     H 6900   0.116   9.754   8.630 -1.2069  0.2920 -0.8785
  810MOL0     H 6901   0.097   9.684   8.781  0.8361 -3.1690 -0.1900
  810MOL0     H 6902   0.526   9.948   7.887  0.6104 -1.7304 -1.4597
  810MOL0     H 6903   0.756   9.993   7.789  1.0481 -1.4518 -0.5115
  810MOL0     H 6904   1.117  10.021   7.698  1.2067 -0.8815 -1.1387
  810MOL0     H 6905   1.324  10.068   7.549 -1.6267 -2.0656 -0.2300
  810MOL0     H 6906   0.883   8.857   8.140 -2.5569 -1.9492  3.1824
  810MOL0     H 6907   0.654   8.813   8.221 -2.7711  0.8271 -0.3583
  810MOL0     H 6908   0.273   8.603   8.175 -0.1577 -0.6505  0.5409
  810MOL0     H 6909   0.080   8.518   8.230  2.8671 -0.4807 -1.5639
  810MOL0     H 6910  -0.289   8.661   8.042  4.0035  2.0775 -0.9183
  810MOL0     H 6911  -0.322   8.747   8.204 -1.8783 -0.6970 -0.5198
  810MOL0     H 6912  -0.399   8.475   8.095  1.3813 -0.3112 -0.6545
  810MOL0     H 6913  -0.375   8.516   8.274  2.7027  1.1635  0.4009
  810MOL0     H 6914  -0.566   8.661   8.078 -0.3568  3.1939  1.7170
  810MOL0     H 6915  -0.553   8.699   8.249  1.3231  0.2481  0.4949
  810MOL0     H 6916  -0.633   8.431   8.146  0.7840  1.5132 -0.6851
  810MOL0     H 6917  -0.608   8.471   8.318  0.5311  1.1605  1.0154
  810MOL0     H 6918  -0.975   8.651   8.211 -1.2694 -1.8080 -1.9347
  810MOL0     H 6919  -0.141   8.861   8.069  0.1131  1.4347  0.4991
  810MOL0     H 6920   0.069   8.966   8.022 -0.2762 -0.3677  0.1982
  811MOL0     O 6921   7.128   1.400   2.011 -0.1796 -0.1175  0.0614
  811MOL0     C 6922   7.129   1.446   2.127 -0.4367  0.3867  0.7381
  811MOL0     O 6923   7.014   1.489   2.192 -0.8306  0.6389 -0.7642
  811MOL0     C 6924   6.888   1.499   2.144  0.2840 -0.8868  0.4947
  811MOL0     C 6925   6.797   1.556   2.237  1.3822 -0.6996 -0.4393
  811MOL0     C 6926   6.663   1.581   2.197  0.2873 -0.5010 -0.0465
  811MOL0     C 6927   6.618   1.551   2.061  0.3425  0.7046 -0.8539
  811MOL0     O 6928   6.493   1.572   2.023 -0.5538  0.5438 -0.0278
  811MOL0     C 6929   6.480   1.670   1.923 -0.1267 -0.4635 -1.1555
  811MOL0     C 6930   6.335   1.725   1.913 -0.1587  0.6742  0.1061
  811MOL0     C 6931   6.307   1.825   1.794 -0.5854  0.5129 -0.2676
  811MOL0     C 6932   6.158   1.861   1.792  0.2338 -0.8816  1.2092
  811MOL0     C 6933   6.131   1.984   1.711  0.0345  0.5860 -0.4978
  811MOL0     C 6934   5.981   2.025   1.722 -0.5965  0.2708 -0.3159
  811MOL0     C 6935   5.969   2.171   1.672  0.3583  0.1171  0.0853
  811MOL0     C 6936   5.818   2.205   1.629  0.5613  0.4885  0.0590
  811MOL0     N 6937   5.792   2.352   1.614 -0.1442  0.4601  0.8755
  811MOL0     C 6938   5.664   2.401   1.582 -0.4308 -0.1244 -1.2615
  811MOL0     C 6939   5.677   2.531   1.555  0.6642  0.0130  0.9248
  811MOL0     C 6940   5.564   2.619   1.511  0.1425  0.2959 -0.0298
  811MOL0     C 6941   5.437   2.595   1.609 -0.6064  0.1294 -1.7103
  811MOL0     C 6942   5.465   2.664   1.749  1.5080 -0.0256  0.2399
  811MOL0     C 6943   5.359   2.649   1.861  0.1212 -0.3896 -1.0457
  811MOL0     O 6944   5.269   2.544   1.840  0.5533  0.4239 -0.5666
  811MOL0     C 6945   5.143   2.549   1.906 -0.6762  0.4471 -0.2064
  811MOL0     C 6946   5.117   2.626   2.016  0.2197 -1.0516 -0.2957
  811MOL0     C 6947   4.996   2.605   2.083 -0.0414  0.4394 -0.1423
  811MOL0     C 6948   4.898   2.512   2.043 -0.5400  1.1901 -0.9587
  811MOL0     C 6949   4.776   2.495   2.134  0.0415 -0.5301  0.4235
  811MOL0     O 6950   4.663   2.449   2.069 -0.2618  0.4334 -0.5646
  811MOL0     C 6951   4.548   2.416   2.135 -0.0247 -0.4821 -0.9707
  811MOL0     C 6952   4.437   2.430   2.058  1.1481 -0.3813  0.4497
  811MOL0     C 6953   4.310   2.409   2.114  0.4603  0.1678  0.6447
  811MOL0     C 6954   4.299   2.345   2.240  0.2550  0.5991 -0.6296
  811MOL0     O 6955   4.181   2.329   2.307 -0.9201 -0.7264  0.2609
  811MOL0     C 6956   4.066   2.294   2.225 -1.0006 -0.5358 -0.5418
  811MOL0     C 6957   3.943   2.254   2.321 -0.6758 -1.3911  0.0810
  811MOL0     C 6958   3.822   2.218   2.244 -0.2642  0.4848  0.4517
  811MOL0     C 6959   3.762   2.333   2.159 -0.0074 -0.3712  0.2452
  811MOL0     C 6960   3.635   2.293   2.082 -0.2059  0.2145 -0.1024
  811MOL0     C 6961   3.568   2.412   2.009  0.4660  0.1083 -0.3281
  811MOL0     C 6962   3.426   2.363   1.944  0.1937  0.4080 -0.6016
  811MOL0     C 6963   3.371   2.461   1.838 -0.7019  0.7763  1.5462
  811MOL0    Cl 6964   3.370   2.613   1.919  0.1537  0.1221  0.2253
  811MOL0     C 6965   4.414   2.334   2.311  0.3357  1.0940 -0.6087
  811MOL0     C 6966   4.536   2.379   2.272 -1.1158  0.0741  0.6521
  811MOL0     O 6967   4.783   2.530   2.250 -0.1019 -0.0833  0.0478
  811MOL0     C 6968   4.923   2.437   1.927  0.0948  0.2511 -0.0732
  811MOL0     C 6969   5.046   2.446   1.867  0.3520 -0.3235 -0.2256
  811MOL0     N 6970   5.810   2.554   1.552 -0.0020 -0.3709 -0.4542
  811MOL0     N 6971   5.877   2.450   1.583 -0.1245 -0.3834 -0.2553
  811MOL0     C 6972   6.708   1.489   1.972  0.5486 -0.4918  0.2129
  811MOL0     C 6973   6.839   1.466   2.019 -0.5094  0.5548 -1.1131
  811MOL0     C 6974   7.253   1.473   2.189  0.1111 -0.8817  1.5130
  811MOL0     C 6975   7.261   1.519   2.322 -0.2904 -0.4532  0.7177
  811MOL0     C 6976   7.391   1.553   2.370  0.8171  0.4852  0.4606
  811MOL0     C 6977   7.506   1.517   2.302 -1.4161  0.3461 -0.2280
  811MOL0     O 6978   7.618   1.537   2.381 -0.3302 -0.1464  0.5475
  811MOL0     C 6979   7.747   1.508   2.318 -0.3482  0.7111  0.9279
  811MOL0     C 6980   7.808   1.618   2.221 -0.5292  0.2590  0.4583
  811MOL0     C 6981   7.862   1.742   2.291  0.7401 -0.5382  0.2818
  811MOL0     C 6982   7.857   1.869   2.206  0.3401  0.6825 -0.3916
  811MOL0     C 6983   7.937   1.978   2.259 -0.0530  0.4312  0.1659
  811MOL0     C 6984   8.011   2.069   2.301 -0.6096 -0.4443  0.6985
  811MOL0     C 6985   7.501   1.462   2.178 -0.1760 -0.4107 -0.4492
  811MOL0     C 6986   7.373   1.450   2.116 -0.1419 -0.2790 -0.3775
  811MOL0     H 6987   6.831   1.570   2.339  1.1928 -0.5081 -0.4023
  811MOL0     H 6988   6.587   1.625   2.261 -1.4123  0.1580 -2.3990
  811MOL0     H 6989   6.510   1.639   1.823  1.6132  0.4695 -0.9580
  811MOL0     H 6990   6.539   1.760   1.945 -3.3672  0.9471  3.0358
  811MOL0     H 6991   6.309   1.772   2.008  0.4848 -0.4975  0.8859
  811MOL0     H 6992   6.271   1.637   1.899 -2.2930  1.7022  2.6308
  811MOL0     H 6993   6.338   1.782   1.698  0.0187 -0.9874  0.5719
  811MOL0     H 6994   6.362   1.919   1.810 -2.5008  1.5618  0.5481
  811MOL0     H 6995   6.105   1.776   1.748  0.8206 -0.3432 -0.6290
  811MOL0     H 6996   6.124   1.879   1.894 -1.2598 -1.9810  0.9349
  811MOL0     H 6997   6.156   1.951   1.610  1.2015 -1.6550  0.4501
  811MOL0     H 6998   6.204   2.060   1.741  1.2022 -0.9490  0.8065
  811MOL0     H 6999   5.942   2.027   1.823 -1.6880 -1.4478 -0.6669
  811MOL0     H 7000   5.919   1.954   1.667 -0.7608  0.4799 -0.4002
  811MOL0     H 7001   6.007   2.241   1.747  1.5596 -1.4911  1.0366
  811MOL0     H 7002   6.033   2.191   1.586 -0.0004  1.0072  0.0142
  811MOL0     H 7003   5.742   2.164   1.697  0.0562  0.7497 -0.3335
  811MOL0     H 7004   5.809   2.152   1.534  0.1024 -3.0865  1.9298
  811MOL0     H 7005   5.568   2.351   1.592 -1.7800  2.2026 -1.8611
  811MOL0     H 7006   5.526   2.592   1.411 -0.8305 -2.8024  1.0472
  811MOL0     H 7007   5.597   2.723   1.500 -2.0712  1.2422  1.5182
  811MOL0     H 7008   5.427   2.486   1.619  0.8734  0.1751  1.2871
  811MOL0     H 7009   5.353   2.652   1.569  1.0719  3.8124 -0.3940
  811MOL0     H 7010   5.552   2.610   1.787 -0.5161 -3.0082  1.0331
  811MOL0     H 7011   5.487   2.770   1.734  0.3472 -0.0687 -2.4708
  811MOL0     H 7012   5.318   2.748   1.881  4.2325  0.8574  2.7303
  811MOL0     H 7013   5.409   2.636   1.957 -2.0727 -0.3607  0.1704
  811MOL0     H 7014   5.193   2.694   2.054  0.0605 -1.1814  0.2658
  811MOL0     H 7015   4.991   2.659   2.178  1.4631  0.1049  0.1605
  811MOL0     H 7016   4.453   2.465   1.957 -0.8325 -1.7151 -0.3832
  811MOL0     H 7017   4.217   2.421   2.059  0.4447  0.7283  0.7904
  811MOL0     H 7018   4.093   2.217   2.153  1.5843  2.3676 -2.9602
  811MOL0     H 7019   4.036   2.380   2.164  0.0876 -0.7578 -1.4291
  811MOL0     H 7020   3.919   2.339   2.385 -1.3786  0.4584 -2.4819
  811MOL0     H 7021   3.982   2.172   2.382  0.6011  1.9148  4.1838
  811MOL0     H 7022   3.748   2.169   2.307  1.6496 -3.3428  0.0061
  811MOL0     H 7023   3.858   2.139   2.177  0.8619  1.5391 -0.2476
  811MOL0     H 7024   3.741   2.419   2.223  0.3016 -0.1400  0.0410
  811MOL0     H 7025   3.837   2.368   2.087  1.0692  1.1760  2.0450
  811MOL0     H 7026   3.562   2.242   2.147 -2.0349 -0.4154 -2.4987
  811MOL0     H 7027   3.663   2.221   2.004  2.8034 -0.6673  1.6312
  811MOL0     H 7028   3.643   2.452   1.940  1.0898  0.9440  0.8073
  811MOL0     H 7029   3.548   2.489   2.083  1.4318 -0.4317  0.5279
  811MOL0     H 7030   3.434   2.269   1.889 -1.4664  0.0830 -0.3479
  811MOL0     H 7031   3.354   2.345   2.023 -0.8500  1.4278 -1.2857
  811MOL0     H 7032   3.280   2.435   1.784  1.1169  0.5828 -1.7085
  811MOL0     H 7033   3.440   2.462   1.753 -0.6969  1.0732  1.5540
  811MOL0     H 7034   4.397   2.294   2.410 -3.9704  0.6608 -1.3202
  811MOL0     H 7035   4.625   2.370   2.334 -1.3962 -0.1185  1.0311
  811MOL0     H 7036   4.854   2.357   1.903  0.1868 -0.0010  0.4707
  811MOL0     H 7037   5.075   2.378   1.787 -1.4940  1.4236 -2.5164
  811MOL0     H 7038   6.678   1.464   1.871 -0.8460  0.6611  0.3185
  811MOL0     H 7039   6.902   1.410   1.950  2.4076 -1.0026  2.4733
  811MOL0     H 7040   7.171   1.541   2.379 -0.8105  0.2112 -0.3236
  811MOL0     H 7041   7.404   1.610   2.461  2.0055  0.8183  0.0935
  811MOL0     H 7042   7.733   1.415   2.262  0.7788  0.9536  0.2181
  811MOL0     H 7043   7.814   1.491   2.403  2.6489  3.0035 -0.7851
  811MOL0     H 7044   7.894   1.584   2.161 -0.0145 -0.3200  1.5014
  811MOL0     H 7045   7.722   1.647   2.160 -0.9749 -0.5961  0.6640
  811MOL0     H 7046   7.963   1.724   2.327  0.3670 -0.5645  1.3715
  811MOL0     H 7047   7.798   1.766   2.377  1.5540  0.8540  0.5255
  811MOL0     H 7048   7.897   1.854   2.105  0.0514  1.3922 -0.6153
  811MOL0     H 7049   7.755   1.909   2.202 -0.2730 -0.8276 -4.0748
  811MOL0     H 7050   8.073   2.143   2.346 -1.4998 -0.6572  2.3736
  811MOL0     H 7051   7.581   1.428   2.113 -0.8291  0.8704 -1.9806
  811MOL0     H 7052   7.371   1.432   2.009 -3.1510  0.4935 -0.5338
  812MOL0     O 7053   6.034   7.859   1.156  0.1060 -0.3727  0.1287
  812MOL0     C 7054   5.973   7.909   1.253  0.1196 -0.2256  0.0392
  812MOL0     O 7055   5.845   7.960   1.258 -0.2648  1.0216  0.4249
  812MOL0     C 7056   5.779   7.948   1.143 -0.0578 -0.7164 -0.7631
  812MOL0     C 7057   5.696   7.843   1.112 -0.1793  0.5205  0.2627
  812MOL0     C 7058   5.628   7.839   0.991  0.0967 -0.0546  0.1872
  812MOL0     C 7059   5.633   7.942   0.897 -0.0252 -0.5458 -0.6034
  812MOL0     O 7060   5.547   7.918   0.793  0.1453  0.3948 -0.4367
  812MOL0     C 7061   5.500   8.025   0.719  0.5783  0.1479 -0.4637
  812MOL0     C 7062   5.412   8.125   0.794  0.8951  1.0545  0.3676
  812MOL0     C 7063   5.283   8.054   0.836  0.1246  0.6216 -0.8728
  812MOL0     C 7064   5.179   8.152   0.887  0.7793  0.2728 -0.8578
  812MOL0     C 7065   5.037   8.108   0.872  0.0965  0.5782  0.1556
  812MOL0     C 7066   4.948   8.151   0.985 -0.3039 -0.6231  0.2169
  812MOL0     C 7067   4.804   8.145   0.931  0.1232  0.0063 -0.0211
  812MOL0     C 7068   4.702   8.217   1.019 -0.3652 -1.2096  0.6046
  812MOL0     N 7069   4.581   8.235   0.950  0.3770  0.2528 -0.0119
  812MOL0     C 7070   4.554   8.321   0.848 -0.4995  0.3712  0.0053
  812MOL0     C 7071   4.428   8.302   0.820 -0.0648 -0.3639 -0.4406
  812MOL0     C 7072   4.366   8.388   0.703  0.1005  0.3922 -0.0072
  812MOL0     C 7073   4.216   8.414   0.727 -0.5197  0.5506 -0.2942
  812MOL0     C 7074   4.134   8.318   0.803  0.5187 -0.1766 -0.0007
  812MOL0     C 7075   3.996   8.362   0.815 -0.3356  0.3853 -0.0221
  812MOL0     O 7076   3.927   8.379   0.692 -0.1938  0.5264 -0.4255
  812MOL0     C 7077   3.795   8.404   0.699  0.2427 -0.8337  0.4660
  812MOL0     C 7078   3.752   8.485   0.597  0.9440  0.2530  0.3977
  812MOL0     C 7079   3.621   8.520   0.593 -0.3256  0.1499  0.2714
  812MOL0     C 7080   3.532   8.494   0.696  0.4580  1.7162 -0.6182
  812MOL0     C 7081   3.396   8.551   0.701 -0.0561 -0.4977 -0.8630
  812MOL0     O 7082   3.349   8.639   0.602 -0.1109 -0.9245  0.6755
  812MOL0     C 7083   3.217   8.663   0.567 -0.0889 -0.7548 -0.2587
  812MOL0     C 7084   3.114   8.583   0.606 -0.5528 -0.1749 -0.0162
  812MOL0     C 7085   2.990   8.617   0.562 -0.3653  0.9898  0.2452
  812MOL0     C 7086   2.959   8.705   0.453  0.0304  1.1500 -0.0979
  812MOL0     O 7087   2.824   8.733   0.431 -0.0139  0.2589  0.4522
  812MOL0     C 7088   2.774   8.867   0.413  0.0490  0.3216 -0.2593
  812MOL0     C 7089   2.785   8.937   0.550  0.6206  0.3208 -0.6713
  812MOL0     C 7090   2.742   9.074   0.545  0.1387 -0.2301  0.2006
  812MOL0     C 7091   2.679   9.104   0.683 -0.4120  0.4921 -0.5797
  812MOL0     C 7092   2.533   9.067   0.706 -0.5786  0.8218  0.3133
  812MOL0     C 7093   2.472   9.100   0.845 -0.4447 -0.6059  0.1317
  812MOL0     C 7094   2.327   9.053   0.862  0.0022 -0.1796 -0.5203
  812MOL0     C 7095   2.280   9.083   0.995 -0.4597 -0.7197 -0.3777
  812MOL0    Cl 7096   2.103   9.057   1.004 -0.0381 -0.2287  0.0071
  812MOL0     C 7097   3.068   8.781   0.409 -1.3093 -0.2252  0.5837
  812MOL0     C 7098   3.193   8.755   0.467  0.4827  0.1642  0.8004
  812MOL0     O 7099   3.331   8.503   0.791  0.1025  0.3292  0.3861
  812MOL0     C 7100   3.584   8.413   0.804  0.0094 -0.0650 -0.0794
  812MOL0     C 7101   3.706   8.355   0.796 -0.3050  0.6658 -0.0860
  812MOL0     N 7102   4.384   8.200   0.903  0.7087  0.4221  0.9005
  812MOL0     N 7103   4.474   8.160   0.988  0.3111 -0.1718 -0.5259
  812MOL0     C 7104   5.719   8.057   0.930  0.9510 -0.8742 -0.1003
  812MOL0     C 7105   5.791   8.057   1.048  0.4576  0.1397 -0.5978
  812MOL0     C 7106   6.041   7.939   1.384  0.6264 -0.4440  0.7657
  812MOL0     C 7107   6.179   7.949   1.393 -0.5982 -0.7062 -0.2071
  812MOL0     C 7108   6.242   7.971   1.524  0.2391  0.7572  0.1488
  812MOL0     C 7109   6.155   7.984   1.641 -0.1840  0.7990 -0.1020
  812MOL0     O 7110   6.214   7.995   1.761  0.0218 -0.0398 -0.0175
  812MOL0     C 7111   6.201   7.878   1.840 -0.2566  0.3733 -0.1835
  812MOL0     C 7112   6.288   7.881   1.968  0.7355 -0.6822 -0.7753
  812MOL0     C 7113   6.431   7.843   1.946  0.1768  0.1472 -0.1896
  812MOL0     C 7114   6.506   7.798   2.081  0.1112 -0.4087  0.6158
  812MOL0     C 7115   6.637   7.727   2.040  1.0171 -0.0655 -0.6016
  812MOL0     C 7116   6.743   7.677   2.010 -0.0030 -0.2210 -0.4757
  812MOL0     C 7117   6.016   7.971   1.625  0.7292 -0.1748  0.7195
  812MOL0     C 7118   5.959   7.952   1.497 -1.1399  0.5619  0.7138
  812MOL0     H 7119   5.682   7.764   1.186 -0.3441 -0.9927 -1.3162
  812MOL0     H 7120   5.559   7.759   0.964  1.1011 -1.0616  0.5195
  812MOL0     H 7121   5.453   7.986   0.628 -0.3243 -1.7305  0.7288
  812MOL0     H 7122   5.592   8.062   0.673  0.8082  0.8284  0.5097
  812MOL0     H 7123   5.401   8.217   0.736 -0.0876  2.8507  3.1964
  812MOL0     H 7124   5.463   8.146   0.888 -1.1170  0.4803  1.6621
  812MOL0     H 7125   5.301   7.968   0.902  0.0499 -1.7101 -3.7137
  812MOL0     H 7126   5.243   8.010   0.744 -1.3597 -0.1526  0.0857
  812MOL0     H 7127   5.199   8.196   0.985 -0.3931  2.0341 -1.3597
  812MOL0     H 7128   5.189   8.230   0.811  0.3314  0.3448 -0.8434
  812MOL0     H 7129   5.025   8.000   0.863  0.6259  0.5141  0.1961
  812MOL0     H 7130   4.998   8.152   0.780  0.4693  1.5034  0.4270
  812MOL0     H 7131   4.976   8.252   1.016  0.2627 -0.4673 -0.7612
  812MOL0     H 7132   4.950   8.075   1.063  1.2600 -0.3391  0.5008
  812MOL0     H 7133   4.802   8.190   0.831 -2.0067  0.4554  0.1660
  812MOL0     H 7134   4.775   8.040   0.920 -0.2999  0.2720 -1.9573
  812MOL0     H 7135   4.743   8.308   1.064 -1.3446 -1.0131  1.1285
  812MOL0     H 7136   4.671   8.155   1.104  0.2517  0.5777  2.2171
  812MOL0     H 7137   4.618   8.386   0.790  1.8807 -0.4966  1.5072
  812MOL0     H 7138   4.375   8.342   0.605 -2.4277 -1.0500  0.3512
  812MOL0     H 7139   4.422   8.482   0.700 -0.2032  0.5463 -1.7357
  812MOL0     H 7140   4.167   8.425   0.630 -2.1820 -1.6270  0.2218
  812MOL0     H 7141   4.213   8.511   0.777  0.1177  1.0824 -1.2509
  812MOL0     H 7142   4.141   8.219   0.755 -0.5657 -0.5206  0.5090
  812MOL0     H 7143   4.172   8.306   0.905 -0.7203  1.1572  0.6530
  812MOL0     H 7144   4.008   8.458   0.867  1.7683  0.0076  0.2722
  812MOL0     H 7145   3.952   8.287   0.882 -0.6412  2.6530  2.4911
  812MOL0     H 7146   3.812   8.513   0.511  2.1817 -0.4778  1.0011
  812MOL0     H 7147   3.613   8.579   0.502  4.7179  0.7071 -0.0699
  812MOL0     H 7148   3.124   8.503   0.679  1.0121 -0.1630 -0.1709
  812MOL0     H 7149   2.910   8.556   0.604 -0.3754  1.6840  1.2716
  812MOL0     H 7150   2.674   8.875   0.369  0.1480  0.0171 -0.5484
  812MOL0     H 7151   2.842   8.921   0.346  3.8382 -2.5712  0.8797
  812MOL0     H 7152   2.889   8.928   0.580  0.5706  1.0822 -0.2358
  812MOL0     H 7153   2.720   8.876   0.612  1.1690 -1.4063 -1.7387
  812MOL0     H 7154   2.663   9.097   0.472 -0.9283 -0.5553  1.2192
  812MOL0     H 7155   2.821   9.144   0.516 -1.8604  2.1094  0.0610
  812MOL0     H 7156   2.737   9.056   0.762 -1.4412  0.7811  0.3779
  812MOL0     H 7157   2.693   9.209   0.707 -0.0252  0.6937 -1.6508
  812MOL0     H 7158   2.516   8.960   0.695 -3.6245  1.3395 -1.2190
  812MOL0     H 7159   2.475   9.106   0.623  1.5865  1.1952 -1.1033
  812MOL0     H 7160   2.473   9.210   0.853 -0.8401 -0.7581  3.9422
  812MOL0     H 7161   2.536   9.056   0.922  0.9448  0.5496 -0.3120
  812MOL0     H 7162   2.266   9.117   0.796  1.7169  1.0229 -1.0060
  812MOL0     H 7163   2.308   8.947   0.844  0.6845 -0.5462  0.7824
  812MOL0     H 7164   2.304   9.186   1.025 -0.5963 -0.6779 -0.4136
  812MOL0     H 7165   2.329   9.018   1.068 -0.6308  1.8069  2.1673
  812MOL0     H 7166   3.047   8.852   0.330  0.5853  0.8686  0.9883
  812MOL0     H 7167   3.277   8.813   0.429 -1.3999  2.8163  0.3635
  812MOL0     H 7168   3.519   8.388   0.888 -0.1464  0.9629  0.1122
  812MOL0     H 7169   3.728   8.283   0.874  1.4956  0.2277 -0.9314
  812MOL0     H 7170   5.720   8.144   0.865  0.6500  1.1090  2.4029
  812MOL0     H 7171   5.842   8.148   1.078 -5.1173  3.8117 -0.7429
  812MOL0     H 7172   6.236   7.946   1.301 -3.0667 -0.5772 -1.7979
  812MOL0     H 7173   6.348   7.957   1.543 -0.0971 -2.2718  0.1988
  812MOL0     H 7174   6.214   7.785   1.783 -0.3989  1.9166 -2.9106
  812MOL0     H 7175   6.100   7.887   1.879  0.0417  0.7527  0.5198
  812MOL0     H 7176   6.286   7.983   2.008  1.8810 -0.8461 -0.2817
  812MOL0     H 7177   6.252   7.810   2.043  1.2352 -0.1609 -0.0374
  812MOL0     H 7178   6.488   7.926   1.902  0.4384 -0.4160 -0.9428
  812MOL0     H 7179   6.429   7.756   1.880  0.4492  0.0155 -0.0263
  812MOL0     H 7180   6.517   7.881   2.152  0.4823  0.0182  0.0701
  812MOL0     H 7181   6.442   7.721   2.126  0.7240  0.2960  2.8354
  812MOL0     H 7182   6.835   7.623   2.010  0.2671  0.0465  3.0781
  812MOL0     H 7183   5.960   7.951   1.716  1.7134 -0.3674  1.2950
  812MOL0     H 7184   5.858   7.912   1.494 -0.2064 -2.0425  1.3875
  813MOL0     O 7185   2.325   7.884   2.468 -0.2059 -0.6629  0.2023
  813MOL0     C 7186   2.259   7.815   2.386  0.0220  0.4456  0.0607
  813MOL0     O 7187   2.313   7.735   2.280 -0.5182  0.2896 -0.2963
  813MOL0     C 7188   2.448   7.743   2.255  0.2226  0.3885 -0.3230
  813MOL0     C 7189   2.521   7.863   2.235 -0.1970  0.4215  0.0622
  813MOL0     C 7190   2.655   7.856   2.182 -0.3925 -0.2609 -0.1820
  813MOL0     C 7191   2.716   7.734   2.175 -0.4630 -0.1382  0.0329
  813MOL0     O 7192   2.850   7.726   2.139  0.3851 -0.0930  0.5890
  813MOL0     C 7193   2.885   7.728   1.997 -0.4544  0.3932  0.6694
  813MOL0     C 7194   2.981   7.617   1.963 -0.5505 -0.2817 -0.6526
  813MOL0     C 7195   3.029   7.620   1.818 -0.0833 -0.0742  0.1231
  813MOL0     C 7196   2.994   7.489   1.748  0.5857  0.6444 -0.2469
  813MOL0     C 7197   3.023   7.489   1.610 -0.8354  0.3981  0.1765
  813MOL0     C 7198   3.019   7.351   1.536 -0.4648  0.1575  0.2999
  813MOL0     C 7199   3.070   7.362   1.387 -0.1598  0.8550 -0.6104
  813MOL0     C 7200   2.950   7.402   1.293  0.5920 -0.8154 -0.5560
  813MOL0     N 7201   2.875   7.290   1.236  0.4470 -0.0798  0.7989
  813MOL0     C 7202   2.932   7.178   1.177 -0.2442 -0.7516 -0.7693
  813MOL0     C 7203   2.844   7.153   1.078 -0.1265 -0.0336 -0.7903
  813MOL0     C 7204   2.845   7.028   0.984  0.5562  0.2571  0.6171
  813MOL0     C 7205   2.777   6.901   1.045 -0.0842 -0.3705  0.2796
  813MOL0     C 7206   2.625   6.904   1.077  0.1582  0.4016 -0.2488
  813MOL0     C 7207   2.546   6.933   0.948  1.0545  0.2953 -0.1752
  813MOL0     O 7208   2.534   6.815   0.862  0.1822 -0.3909  0.7958
  813MOL0     C 7209   2.478   6.829   0.735 -0.2482  0.0039 -0.2579
  813MOL0     C 7210   2.450   6.707   0.656  0.3486 -1.0996  0.1185
  813MOL0     C 7211   2.396   6.712   0.530 -0.2551  0.4300  0.2481
  813MOL0     C 7212   2.371   6.833   0.469  0.5813 -0.0239 -0.2364
  813MOL0     C 7213   2.319   6.844   0.327  0.2228 -0.0633 -0.3020
  813MOL0     O 7214   2.322   6.731   0.243 -0.2563 -0.0269  0.7000
  813MOL0     C 7215   2.294   6.739   0.107  0.0405  0.8878  0.6562
  813MOL0     C 7216   2.279   6.615   0.050  0.3634  0.1167 -0.2444
  813MOL0     C 7217   2.231   6.597  -0.083 -0.2551 -0.5975 -0.8381
  813MOL0     C 7218   2.200   6.701  -0.156  0.5946  0.6259 -0.2720
  813MOL0     O 7219   2.147   6.677  -0.282  0.3527 -0.5186  0.4798
  813MOL0     C 7220   2.129   6.785  -0.381 -0.1057 -0.4450 -0.6853
  813MOL0     C 7221   2.050   6.721  -0.490  0.0374  0.4151  0.2405
  813MOL0     C 7222   2.036   6.804  -0.614 -0.5380 -0.2336 -0.3140
  813MOL0     C 7223   1.939   6.717  -0.706 -0.8266  0.2708 -0.2295
  813MOL0     C 7224   1.991   6.725  -0.851 -0.3168 -0.2133  0.1183
  813MOL0     C 7225   1.910   6.625  -0.944 -0.0001  0.3739 -1.2381
  813MOL0     C 7226   1.754   6.641  -0.956 -0.1242 -0.2292  1.0030
  813MOL0     C 7227   1.674   6.534  -1.029  0.7159 -0.1345  0.7664
  813MOL0    Cl 7228   1.523   6.608  -1.099 -0.1463 -0.3021 -0.1740
  813MOL0     C 7229   2.234   6.835  -0.110 -0.2657 -0.0061 -0.7513
  813MOL0     C 7230   2.282   6.854   0.029 -0.0600  0.0405 -0.1801
  813MOL0     O 7231   2.284   6.956   0.297  0.6218  0.2273  0.1945
  813MOL0     C 7232   2.404   6.951   0.538 -0.5586  0.4367  0.1596
  813MOL0     C 7233   2.457   6.951   0.668 -0.6760 -0.8030 -0.3049
  813MOL0     N 7234   2.747   7.246   1.074  0.2945 -0.5091 -0.2740
  813MOL0     N 7235   2.763   7.326   1.172  0.4753 -0.2828 -0.3882
  813MOL0     C 7236   2.645   7.620   2.197  1.2399 -0.1452  0.5944
  813MOL0     C 7237   2.514   7.624   2.234  0.0906  0.6625 -0.3731
  813MOL0     C 7238   2.127   7.772   2.443 -0.2447 -0.0556 -0.3000
  813MOL0     C 7239   2.042   7.862   2.499 -0.1035 -0.3058  0.8259
  813MOL0     C 7240   1.914   7.819   2.542  0.3917  0.1330 -0.8890
  813MOL0     C 7241   1.864   7.694   2.515 -0.3886  0.7340 -0.1367
  813MOL0     O 7242   1.739   7.639   2.533 -0.4784 -0.4166 -0.0950
  813MOL0     C 7243   1.639   7.728   2.518 -0.7128 -0.2591  0.0474
  813MOL0     C 7244   1.508   7.654   2.552 -0.5958 -0.5601  0.6799
  813MOL0     C 7245   1.389   7.748   2.565 -0.2925  0.3812  0.4002
  813MOL0     C 7246   1.270   7.682   2.647  0.0058 -0.2294 -0.4422
  813MOL0     C 7247   1.162   7.784   2.643 -0.6337 -0.0797 -0.8746
  813MOL0     C 7248   1.081   7.865   2.606  1.2604 -0.5284 -0.3870
  813MOL0     C 7249   1.951   7.608   2.451  0.7087 -0.2125 -0.3074
  813MOL0     C 7250   2.077   7.645   2.409 -0.0336 -0.1462  0.8243
  813MOL0     H 7251   2.468   7.957   2.242  0.6528  0.9952 -0.9513
  813MOL0     H 7252   2.715   7.946   2.167  0.9860 -1.1557 -0.2902
  813MOL0     H 7253   2.941   7.820   1.979  1.3047 -0.7372  0.1013
  813MOL0     H 7254   2.797   7.716   1.933  1.0219  0.1417 -1.3877
  813MOL0     H 7255   2.935   7.520   1.985 -0.7410  0.3643  2.2015
  813MOL0     H 7256   3.066   7.616   2.033 -0.0081 -1.4578 -1.2913
  813MOL0     H 7257   3.134   7.649   1.812  0.0087 -0.5623 -0.9687
  813MOL0     H 7258   2.978   7.705   1.773  2.3735  2.0541  1.0990
  813MOL0     H 7259   3.053   7.411   1.798  2.4746  1.9470 -0.3584
  813MOL0     H 7260   2.890   7.460   1.768  0.7959  0.9049  1.3079
  813MOL0     H 7261   3.127   7.515   1.588 -0.3940 -2.3576 -1.3945
  813MOL0     H 7262   2.957   7.559   1.557  0.5559  0.2079 -1.9169
  813MOL0     H 7263   2.922   7.301   1.545 -0.1688 -0.8316 -1.5120
  813MOL0     H 7264   3.088   7.283   1.586  1.7065  1.3433 -0.9160
  813MOL0     H 7265   3.144   7.443   1.385  0.9222 -0.1292 -2.8729
  813MOL0     H 7266   3.117   7.269   1.355  1.0113  1.3611 -0.4305
  813MOL0     H 7267   3.006   7.445   1.209 -0.1546 -0.1705 -0.7330
  813MOL0     H 7268   2.896   7.492   1.324  2.4722  0.3395 -0.4655
  813MOL0     H 7269   3.028   7.134   1.203 -0.1116  0.1539  0.3262
  813MOL0     H 7270   2.947   6.997   0.960  0.2860 -1.4373  1.4992
  813MOL0     H 7271   2.794   7.051   0.890  0.6496  2.4389  1.0529
  813MOL0     H 7272   2.830   6.870   1.135  0.1387 -2.8390 -0.6453
  813MOL0     H 7273   2.802   6.819   0.978  2.2856  0.5909 -0.0884
  813MOL0     H 7274   2.599   6.806   1.118  3.0409  0.6855  2.6821
  813MOL0     H 7275   2.606   6.982   1.151  1.7884  0.0205  0.6272
  813MOL0     H 7276   2.585   7.018   0.893 -0.4006 -0.2607 -2.1828
  813MOL0     H 7277   2.449   6.961   0.991  0.8429 -2.1761  1.1799
  813MOL0     H 7278   2.479   6.613   0.701  1.4646 -1.2013 -0.7680
  813MOL0     H 7279   2.376   6.622   0.472  1.2992 -0.5088  1.1131
  813MOL0     H 7280   2.283   6.522   0.105 -0.4473  0.6457  0.7457
  813MOL0     H 7281   2.222   6.495  -0.121 -1.1509  0.5761 -4.0917
  813MOL0     H 7282   2.223   6.821  -0.422 -0.7908 -1.5839 -3.5312
  813MOL0     H 7283   2.066   6.867  -0.345 -2.3989 -1.1624 -2.7387
  813MOL0     H 7284   1.951   6.693  -0.452  2.2710 -4.7737  3.3382
  813MOL0     H 7285   2.096   6.626  -0.520 -0.4960 -0.0047  0.7294
  813MOL0     H 7286   2.135   6.800  -0.660  0.6210 -2.4453  2.1066
  813MOL0     H 7287   2.016   6.910  -0.600  1.6179  0.1911 -0.2315
  813MOL0     H 7288   1.932   6.612  -0.675  1.1389  0.2217  0.2006
  813MOL0     H 7289   1.838   6.756  -0.697 -0.4244  0.8862  2.2441
  813MOL0     H 7290   2.097   6.697  -0.852 -0.7055 -1.7816 -0.2348
  813MOL0     H 7291   1.988   6.831  -0.879 -0.3737 -0.3431 -0.3763
  813MOL0     H 7292   1.923   6.519  -0.922 -2.9960  0.2297  0.2524
  813MOL0     H 7293   1.958   6.634  -1.042  3.0845  1.9636  0.2851
  813MOL0     H 7294   1.707   6.647  -0.857  0.6152 -2.1395  1.5056
  813MOL0     H 7295   1.746   6.737  -1.008  0.3845 -1.2766 -1.0950
  813MOL0     H 7296   1.648   6.459  -0.953  0.3260 -1.0157 -0.2178
  813MOL0     H 7297   1.737   6.488  -1.106 -1.6013 -0.5446 -1.0023
  813MOL0     H 7298   2.222   6.926  -0.168  3.1213  0.9745 -0.1196
  813MOL0     H 7299   2.298   6.954   0.068 -0.2741  0.1515 -0.3651
  813MOL0     H 7300   2.382   7.049   0.497  1.5780 -0.3320 -3.2437
  813MOL0     H 7301   2.462   7.050   0.712 -0.6630 -0.5570 -0.8632
  813MOL0     H 7302   2.689   7.521   2.197  2.1221  0.1111 -3.3860
  813MOL0     H 7303   2.461   7.531   2.250  2.1686 -0.6983 -1.0487
  813MOL0     H 7304   2.073   7.965   2.514 -0.3284  0.2766 -2.0554
  813MOL0     H 7305   1.856   7.888   2.602 -0.2838 -2.2725  1.3671
  813MOL0     H 7306   1.642   7.765   2.415 -2.9327 -0.1511 -0.0321
  813MOL0     H 7307   1.650   7.815   2.583 -0.8458 -0.0901 -0.1527
  813MOL0     H 7308   1.483   7.585   2.470 -3.0725 -0.5281  1.3236
  813MOL0     H 7309   1.529   7.597   2.643  2.5413  0.7139  0.8697
  813MOL0     H 7310   1.356   7.767   2.462 -1.0723 -2.9285 -0.0820
  813MOL0     H 7311   1.428   7.842   2.605  0.0603  1.5199 -2.3824
  813MOL0     H 7312   1.228   7.588   2.609 -1.9291 -0.6907  2.5097
  813MOL0     H 7313   1.290   7.661   2.752 -2.4926  4.2054  1.2227
  813MOL0     H 7314   1.026   7.948   2.566  1.1399  1.4152  3.4408
  813MOL0     H 7315   1.920   7.504   2.446  3.3097 -1.1521  0.8888
  813MOL0     H 7316   2.138   7.576   2.352 -0.2979 -0.2924  0.7116
  814MOL0     O 7317   1.953   8.096   3.033  0.1018 -0.5666  0.8265
  814MOL0     C 7318   1.996   8.080   2.920 -0.1786  0.1387  0.0835
  814MOL0     O 7319   1.926   8.069   2.806 -0.5152  0.8995  0.0105
  814MOL0     C 7320   1.792   8.093   2.817  0.3874 -0.4857 -0.0175
  814MOL0     C 7321   1.756   8.224   2.789 -0.1437 -1.1965 -0.8009
  814MOL0     C 7322   1.616   8.257   2.797  0.5235  0.6814 -0.3693
  814MOL0     C 7323   1.522   8.155   2.826  0.7714 -0.1699  0.0878
  814MOL0     O 7324   1.395   8.206   2.834 -0.0179  0.4459  0.9107
  814MOL0     C 7325   1.284   8.116   2.846 -0.2886 -0.2163  0.4696
  814MOL0     C 7326   1.159   8.209   2.832  0.1575  0.4648 -0.5030
  814MOL0     C 7327   1.026   8.135   2.855  0.0301  0.2435  0.9172
  814MOL0     C 7328   0.904   8.197   2.782  0.4221  0.5147 -0.4702
  814MOL0     C 7329   0.791   8.085   2.795  0.0992  0.3145 -0.7026
  814MOL0     C 7330   0.661   8.119   2.729  0.1030 -0.5920  0.1009
  814MOL0     C 7331   0.588   8.240   2.791  0.0548 -0.5289 -0.5240
  814MOL0     C 7332   0.449   8.251   2.732  0.0313  0.1220  0.1965
  814MOL0     N 7333   0.372   8.365   2.782  0.0246  0.3409  0.6507
  814MOL0     C 7334   0.342   8.390   2.910 -0.1077  0.0802  0.3439
  814MOL0     C 7335   0.268   8.498   2.909 -0.1744  0.1861  0.0013
  814MOL0     C 7336   0.211   8.574   3.022 -0.2856 -0.7943  0.0329
  814MOL0     C 7337   0.063   8.523   3.050 -1.0063 -0.8258 -0.6172
  814MOL0     C 7338  -0.018   8.617   3.144 -0.0851  0.5387  0.0407
  814MOL0     C 7339  -0.171   8.584   3.145 -1.0862 -0.6831 -0.0845
  814MOL0     O 7340  -0.202   8.453   3.206  0.4795 -0.3619  0.0643
  814MOL0     C 7341  -0.334   8.426   3.234  0.4362  0.7791 -0.4509
  814MOL0     C 7342  -0.442   8.521   3.208 -0.9446 -0.3231 -0.6859
  814MOL0     C 7343  -0.573   8.475   3.210 -0.2638 -0.0954  0.4956
  814MOL0     C 7344  -0.593   8.346   3.244  0.5839  0.0770 -0.2520
  814MOL0     C 7345  -0.741   8.302   3.242 -0.1222  0.1235  0.5921
  814MOL0     O 7346  -0.823   8.382   3.173  0.2456 -0.1512 -0.0067
  814MOL0     C 7347  -0.963   8.377   3.183 -0.4382  1.2333  0.0019
  814MOL0     C 7348  -1.037   8.264   3.148  0.4847  0.1023  0.1112
  814MOL0     C 7349  -1.175   8.263   3.156 -0.2071 -0.8428 -0.4666
  814MOL0     C 7350  -1.240   8.379   3.203 -0.0407  0.3135  0.6332
  814MOL0     O 7351  -1.374   8.390   3.205  0.3621 -0.1192 -0.6779
  814MOL0     C 7352  -1.444   8.324   3.096 -0.6653  0.2030 -0.7210
  814MOL0     C 7353  -1.601   8.363   3.087 -0.8595  0.6570 -0.1041
  814MOL0     C 7354  -1.658   8.350   3.221  0.1195 -0.2040 -0.3348
  814MOL0     C 7355  -1.803   8.385   3.219 -0.0433 -0.8233  0.1608
  814MOL0     C 7356  -1.857   8.362   3.366 -0.4223 -1.5961  1.2238
  814MOL0     C 7357  -2.009   8.348   3.372 -0.0492  0.1493  0.0591
  814MOL0     C 7358  -2.057   8.378   3.513 -0.5173  0.1336 -0.2284
  814MOL0     C 7359  -2.209   8.375   3.522 -0.0032  0.4036 -0.3851
  814MOL0    Cl 7360  -2.281   8.215   3.477 -0.0192  0.1923  0.3385
  814MOL0     C 7361  -1.162   8.490   3.242  0.3959 -0.2599 -0.5248
  814MOL0     C 7362  -1.026   8.488   3.237  0.8396  0.2993  0.3094
  814MOL0     O 7363  -0.767   8.199   3.303  0.3036  0.3748  0.4203
  814MOL0     C 7364  -0.496   8.253   3.277  0.2396  0.2495 -0.7726
  814MOL0     C 7365  -0.367   8.295   3.269  0.6148  0.1797  0.2877
  814MOL0     N 7366   0.233   8.534   2.783  0.2767 -0.5244  0.2260
  814MOL0     N 7367   0.310   8.459   2.702  0.8809 -0.8688  0.5355
  814MOL0     C 7368   1.557   8.032   2.844 -0.1681  0.0865 -0.3394
  814MOL0     C 7369   1.695   8.001   2.829  0.3266 -0.0385 -0.3401
  814MOL0     C 7370   2.141   8.072   2.911 -1.4063 -0.0317  0.2929
  814MOL0     C 7371   2.206   8.051   2.783  0.3355  0.3016  0.0571
  814MOL0     C 7372   2.347   8.047   2.773  0.2273  0.2812 -0.2274
  814MOL0     C 7373   2.427   8.063   2.885  0.4517 -0.3759 -0.1199
  814MOL0     O 7374   2.556   8.048   2.870  0.5355  0.6420  0.5536
  814MOL0     C 7375   2.636   8.057   2.988 -0.0612 -0.0034  0.2664
  814MOL0     C 7376   2.763   7.984   2.964  1.0380  0.1373 -0.9243
  814MOL0     C 7377   2.842   8.048   2.854 -0.1755  0.2252  0.4167
  814MOL0     C 7378   2.947   7.942   2.797  0.8280  0.3355  0.9703
  814MOL0     C 7379   2.928   7.943   2.650  0.7203 -1.1711  0.4653
  814MOL0     C 7380   2.927   7.941   2.528 -1.2514 -0.3521 -0.1003
  814MOL0     C 7381   2.360   8.084   3.010  0.3177 -0.6552 -0.6900
  814MOL0     C 7382   2.222   8.082   3.024  0.0623 -0.0404  0.0805
  814MOL0     H 7383   1.836   8.294   2.768  0.3211 -1.9730 -1.6642
  814MOL0     H 7384   1.590   8.363   2.802  3.4190  1.3955  2.3329
  814MOL0     H 7385   1.302   8.063   2.940  1.1920  0.4467  0.5931
  814MOL0     H 7386   1.284   8.052   2.757 -2.7309 -1.1064  1.0495
  814MOL0     H 7387   1.161   8.250   2.731  2.2710  1.1960 -0.2198
  814MOL0     H 7388   1.156   8.289   2.908 -0.9259  0.1429 -0.1775
  814MOL0     H 7389   0.992   8.118   2.957 -2.6408 -1.5679 -0.1669
  814MOL0     H 7390   1.031   8.037   2.807  2.4192  1.3194 -1.2919
  814MOL0     H 7391   0.863   8.285   2.832 -0.3410 -0.5970  0.9297
  814MOL0     H 7392   0.922   8.212   2.675 -3.0247  2.4969 -0.9272
  814MOL0     H 7393   0.765   8.097   2.901 -3.3888  1.9915 -1.5671
  814MOL0     H 7394   0.825   7.983   2.775 -1.3417 -1.1242  3.1631
  814MOL0     H 7395   0.601   8.028   2.733 -0.5104 -0.1904  3.9303
  814MOL0     H 7396   0.686   8.144   2.626 -2.2652  1.3923 -0.0958
  814MOL0     H 7397   0.578   8.221   2.898  3.2943  0.3277  0.0630
  814MOL0     H 7398   0.638   8.336   2.772  1.6994 -1.0680  0.8178
  814MOL0     H 7399   0.399   8.164   2.775  1.3114 -2.2989 -2.8896
  814MOL0     H 7400   0.455   8.251   2.623  0.0622 -1.3111  0.1787
  814MOL0     H 7401   0.378   8.349   3.004  1.7323  0.7394 -0.0182
  814MOL0     H 7402   0.204   8.679   2.995  0.4512 -1.0639 -1.3189
  814MOL0     H 7403   0.277   8.566   3.109 -1.5405 -0.0108  1.0990
  814MOL0     H 7404   0.067   8.425   3.097  0.6171 -0.5361 -0.0969
  814MOL0     H 7405   0.012   8.520   2.953 -1.4948  1.4182 -0.5011
  814MOL0     H 7406   0.011   8.607   3.249 -0.0254  1.0537  0.0745
  814MOL0     H 7407   0.003   8.718   3.107  1.3806 -0.8932 -3.5335
  814MOL0     H 7408  -0.194   8.587   3.038 -0.9204 -1.9644 -0.1667
  814MOL0     H 7409  -0.222   8.666   3.198 -1.0640 -0.3199 -0.6201
  814MOL0     H 7410  -0.419   8.622   3.175  4.1096 -1.7523 -2.4783
  814MOL0     H 7411  -0.647   8.553   3.199  0.7860  0.8734  0.1370
  814MOL0     H 7412  -0.978   8.185   3.103  1.3930  2.1063 -2.5025
  814MOL0     H 7413  -1.227   8.168   3.142 -0.4239 -0.9247  0.8196
  814MOL0     H 7414  -1.430   8.216   3.107 -1.3895  0.2804  1.2827
  814MOL0     H 7415  -1.404   8.350   2.998 -0.4061  0.5566 -0.5224
  814MOL0     H 7416  -1.658   8.291   3.028 -3.0516  0.7443  1.7884
  814MOL0     H 7417  -1.605   8.463   3.042  0.7518  1.0286  0.5135
  814MOL0     H 7418  -1.607   8.406   3.300  1.2328 -1.5991 -0.0341
  814MOL0     H 7419  -1.645   8.253   3.268  1.8570  0.0464 -0.2294
  814MOL0     H 7420  -1.813   8.488   3.183  2.3727 -0.1612  1.1597
  814MOL0     H 7421  -1.872   8.322   3.163  0.1005 -0.1378 -0.8090
  814MOL0     H 7422  -1.817   8.448   3.420  0.9312 -0.3400 -1.5411
  814MOL0     H 7423  -1.816   8.268   3.405  0.8304 -2.0269 -0.9368
  814MOL0     H 7424  -2.035   8.246   3.342 -0.0203  0.4864 -1.1756
  814MOL0     H 7425  -2.061   8.419   3.307  1.0898 -0.8750 -2.0598
  814MOL0     H 7426  -2.030   8.301   3.586 -1.5061  1.2784  1.4070
  814MOL0     H 7427  -2.026   8.477   3.547  0.8965 -0.4288  0.1837
  814MOL0     H 7428  -2.255   8.452   3.460 -0.7518 -0.3932 -0.8546
  814MOL0     H 7429  -2.244   8.409   3.620 -3.7169  0.1214 -1.4387
  814MOL0     H 7430  -1.208   8.587   3.260 -1.3740 -1.2104  0.3721
  814MOL0     H 7431  -0.974   8.581   3.258  3.7437 -1.3612  1.0552
  814MOL0     H 7432  -0.533   8.161   3.320  2.0753 -0.3928 -0.4978
  814MOL0     H 7433  -0.288   8.220   3.268 -0.6026 -1.1936  1.6420
  814MOL0     H 7434   1.486   7.956   2.875 -0.4723  0.8970  1.0387
  814MOL0     H 7435   1.728   7.898   2.834  0.7361  0.1075  0.0072
  814MOL0     H 7436   2.144   8.053   2.693  0.0984  2.8750  0.2016
  814MOL0     H 7437   2.389   8.014   2.679 -2.7387  0.7120 -1.8225
  814MOL0     H 7438   2.598   8.000   3.073  0.2355  1.3392  1.3317
  814MOL0     H 7439   2.642   8.159   3.026 -1.5948  0.8295 -1.5553
  814MOL0     H 7440   2.820   7.985   3.057 -3.4481  0.5582  2.1590
  814MOL0     H 7441   2.735   7.881   2.936  1.2128 -0.2122  0.1605
  814MOL0     H 7442   2.898   8.132   2.895 -0.3409 -0.3367  1.8531
  814MOL0     H 7443   2.769   8.073   2.778 -1.4360 -1.3506  1.0510
  814MOL0     H 7444   3.050   7.976   2.810  1.1828 -1.3330  3.0897
  814MOL0     H 7445   2.933   7.837   2.823 -0.9791  0.0698 -0.7910
  814MOL0     H 7446   2.930   7.930   2.421 -0.6020  0.9451 -0.2404
  814MOL0     H 7447   2.410   8.096   3.106 -2.6351 -0.7702  0.9911
  814MOL0     H 7448   2.182   8.103   3.123 -0.2398  3.0343 -0.6060
  815MOL0     O 7449   0.802   6.245   3.968 -0.6248 -0.2217  0.7895
  815MOL0     C 7450   0.808   6.284   4.087  0.6228  0.7381 -0.4015
  815MOL0     O 7451   0.706   6.309   4.173  0.6409  0.2733 -0.1998
  815MOL0     C 7452   0.581   6.269   4.141 -0.1474  0.3546  0.9808
  815MOL0     C 7453   0.555   6.133   4.122 -0.2667  0.4236  0.6881
  815MOL0     C 7454   0.436   6.094   4.062  0.5625 -0.3769 -0.1656
  815MOL0     C 7455   0.333   6.182   4.036  0.2108  0.0211  0.8776
  815MOL0     O 7456   0.221   6.131   3.975  0.3174 -0.2818  0.0112
  815MOL0     C 7457   0.102   6.131   4.049 -0.0860 -0.6056 -0.1992
  815MOL0     C 7458   0.114   6.034   4.163 -0.4839  0.0213  0.1262
  815MOL0     C 7459  -0.026   6.002   4.217 -0.0296  0.7109  0.1729
  815MOL0     C 7460  -0.023   5.903   4.340  0.4900 -0.1431  0.1409
  815MOL0     C 7461  -0.171   5.852   4.367 -0.3411  0.8411  0.3173
  815MOL0     C 7462  -0.187   5.787   4.505  0.5159  0.3028  0.7457
  815MOL0     C 7463  -0.337   5.745   4.529 -0.6401 -0.8732  0.0484
  815MOL0     C 7464  -0.425   5.854   4.584 -0.6497 -0.3909  0.2476
  815MOL0     N 7465  -0.559   5.795   4.615  0.3904 -0.6293  0.3520
  815MOL0     C 7466  -0.586   5.696   4.702 -0.1132  0.0280 -0.3722
  815MOL0     C 7467  -0.720   5.689   4.693  0.3360  0.1334 -1.0598
  815MOL0     C 7468  -0.796   5.582   4.762  0.1651  0.7701 -0.7284
  815MOL0     C 7469  -0.907   5.513   4.679  0.6762 -0.0371  0.7820
  815MOL0     C 7470  -0.995   5.415   4.761 -0.5921  0.6507  1.1142
  815MOL0     C 7471  -1.123   5.366   4.691 -1.1313  0.3696 -0.4446
  815MOL0     O 7472  -1.110   5.257   4.592 -0.5941 -0.1579  0.5971
  815MOL0     C 7473  -1.214   5.163   4.576 -0.0163 -0.0623 -0.1718
  815MOL0     C 7474  -1.346   5.211   4.596 -0.2122  0.0754 -0.3153
  815MOL0     C 7475  -1.458   5.133   4.569 -0.3934 -0.1630  0.5854
  815MOL0     C 7476  -1.445   5.000   4.524 -0.3334  0.2504 -0.4257
  815MOL0     C 7477  -1.556   4.904   4.523  0.3097  0.0527 -0.3833
  815MOL0     O 7478  -1.533   4.776   4.465  0.2567  0.3256  0.2315
  815MOL0     C 7479  -1.638   4.694   4.419 -0.5500 -0.8306  0.3745
  815MOL0     C 7480  -1.775   4.695   4.452  0.1265 -0.1596 -0.2467
  815MOL0     C 7481  -1.865   4.613   4.383  0.6500  0.3384  0.3777
  815MOL0     C 7482  -1.833   4.522   4.284  0.9058  0.1311  0.2738
  815MOL0     O 7483  -1.921   4.441   4.224 -0.8028  0.7535  1.0160
  815MOL0     C 7484  -1.871   4.332   4.138 -0.0760 -0.8273 -0.9058
  815MOL0     C 7485  -1.998   4.277   4.076  0.1891  0.6987 -0.2471
  815MOL0     C 7486  -2.075   4.191   4.172  0.8452 -0.3670  0.8000
  815MOL0     C 7487  -2.210   4.164   4.108  0.1840 -0.3526  0.7871
  815MOL0     C 7488  -2.276   4.024   4.143  0.3413 -0.1027  0.0404
  815MOL0     C 7489  -2.350   3.961   4.031  0.5290 -0.0744 -0.2530
  815MOL0     C 7490  -2.392   3.811   4.056  0.0958 -0.0752 -0.0710
  815MOL0     C 7491  -2.480   3.755   3.951  0.1336  0.3804 -0.7048
  815MOL0    Cl 7492  -2.510   3.578   3.969  0.0957  0.1819  0.0650
  815MOL0     C 7493  -1.690   4.528   4.253  0.1864  0.7433 -0.3485
  815MOL0     C 7494  -1.601   4.614   4.315  0.5703  0.0896  0.2728
  815MOL0     O 7495  -1.666   4.955   4.558 -0.2675  0.0968  0.3555
  815MOL0     C 7496  -1.310   4.961   4.497 -0.0412 -0.3456 -0.6042
  815MOL0     C 7497  -1.200   5.037   4.518  0.2515 -0.7498 -0.3712
  815MOL0     N 7498  -0.770   5.786   4.617  0.9143  0.6418 -0.0465
  815MOL0     N 7499  -0.672   5.851   4.570 -0.0395  0.1452  0.4246
  815MOL0     C 7500   0.353   6.320   4.061  0.4877 -0.1189  0.2935
  815MOL0     C 7501   0.480   6.364   4.113  0.2117 -0.2723  0.4371
  815MOL0     C 7502   0.941   6.296   4.145  0.1696  0.0635 -0.5379
  815MOL0     C 7503   1.059   6.270   4.064  0.9134  0.2445 -1.3911
  815MOL0     C 7504   1.184   6.261   4.123  0.5880  0.0729 -0.0996
  815MOL0     C 7505   1.202   6.291   4.255  0.6018 -1.2144 -0.8480
  815MOL0     O 7506   1.321   6.284   4.319  0.4717  0.3275 -1.2713
  815MOL0     C 7507   1.437   6.265   4.245  0.3889  0.1217  0.7263
  815MOL0     C 7508   1.494   6.404   4.217 -0.6531  0.4423 -0.2266
  815MOL0     C 7509   1.550   6.419   4.069 -0.0604 -0.2411  0.3259
  815MOL0     C 7510   1.689   6.350   4.044 -0.2352  0.4809 -0.5481
  815MOL0     C 7511   1.808   6.425   4.107  1.2292  0.2177  0.0276
  815MOL0     C 7512   1.893   6.500   4.144 -0.2176 -1.4962  0.4717
  815MOL0     C 7513   1.092   6.307   4.335 -0.2231 -0.2528 -0.6683
  815MOL0     C 7514   0.962   6.310   4.285  0.1050  0.1112  1.0308
  815MOL0     H 7515   0.634   6.059   4.121 -0.9754 -0.3409 -1.1634
  815MOL0     H 7516   0.415   5.989   4.042 -1.3128 -0.4491  1.8006
  815MOL0     H 7517   0.020   6.101   3.983  1.0862 -1.5478 -1.2681
  815MOL0     H 7518   0.085   6.233   4.084  0.6962 -0.5869  0.1473
  815MOL0     H 7519   0.183   6.082   4.233  1.3491  1.6732 -2.5929
  815MOL0     H 7520   0.159   5.938   4.136  0.4963 -0.3167  2.6937
  815MOL0     H 7521  -0.091   5.955   4.143  1.5660  0.1158 -0.9038
  815MOL0     H 7522  -0.065   6.100   4.245  0.9288  1.2744 -0.4019
  815MOL0     H 7523   0.045   5.822   4.311  1.5936  1.4224 -1.8585
  815MOL0     H 7524   0.008   5.952   4.432 -2.2599 -4.1006  3.5739
  815MOL0     H 7525  -0.203   5.786   4.285  1.4113  0.3757 -0.0494
  815MOL0     H 7526  -0.233   5.942   4.363  1.6618  2.2991  0.6600
  815MOL0     H 7527  -0.166   5.867   4.577  3.0890  1.2831 -0.9348
  815MOL0     H 7528  -0.110   5.710   4.518 -0.7130 -1.7720 -2.7877
  815MOL0     H 7529  -0.372   5.704   4.434  0.9004 -0.8368 -0.5620
  815MOL0     H 7530  -0.331   5.664   4.602  2.4002 -1.1141 -0.3570
  815MOL0     H 7531  -0.439   5.936   4.513 -1.1393  0.2133  1.0199
  815MOL0     H 7532  -0.390   5.906   4.674 -0.3488 -2.0174  1.1058
  815MOL0     H 7533  -0.519   5.633   4.759 -2.2627 -3.7713 -1.6933
  815MOL0     H 7534  -0.843   5.622   4.852  0.1963  0.2658 -0.4905
  815MOL0     H 7535  -0.724   5.504   4.787  1.1108  2.3593  1.8615
  815MOL0     H 7536  -0.863   5.454   4.598  3.5192 -0.4863  2.5132
  815MOL0     H 7537  -0.984   5.580   4.640 -1.3644 -2.0577  1.1027
  815MOL0     H 7538  -0.917   5.339   4.770  2.7852  2.9432 -3.8872
  815MOL0     H 7539  -1.025   5.480   4.844 -2.3639  2.2394 -0.6593
  815MOL0     H 7540  -1.174   5.444   4.634 -0.5929  0.6322 -0.5758
  815MOL0     H 7541  -1.187   5.328   4.771  1.1787  1.3650  2.0210
  815MOL0     H 7542  -1.366   5.316   4.618 -0.5243  0.2280 -1.2675
  815MOL0     H 7543  -1.555   5.178   4.584 -0.8489 -0.4931 -1.1665
  815MOL0     H 7544  -1.809   4.769   4.524  0.4545  3.2243 -3.3193
  815MOL0     H 7545  -1.971   4.614   4.404  0.2298  2.3966 -1.5562
  815MOL0     H 7546  -1.817   4.258   4.197 -0.7378  0.2040  1.0972
  815MOL0     H 7547  -1.807   4.368   4.058 -1.2125 -1.1803 -2.0077
  815MOL0     H 7548  -1.974   4.207   3.995  1.0604 -1.4203  1.7210
  815MOL0     H 7549  -2.062   4.356   4.036 -1.3772 -1.2797 -1.9230
  815MOL0     H 7550  -2.088   4.254   4.260  0.8336  1.8144 -0.6571
  815MOL0     H 7551  -2.028   4.096   4.197  1.5720 -0.8882 -2.1127
  815MOL0     H 7552  -2.274   4.247   4.139  1.2750 -0.2572  2.9718
  815MOL0     H 7553  -2.193   4.180   4.002  1.3922  1.4478  1.2121
  815MOL0     H 7554  -2.348   4.051   4.221  0.4418  0.4437 -0.0472
  815MOL0     H 7555  -2.198   3.956   4.178  1.9253  1.3013 -0.6151
  815MOL0     H 7556  -2.285   3.973   3.943  1.0693 -1.0246  0.0007
  815MOL0     H 7557  -2.439   4.021   4.011  0.7047  0.3870  0.3084
  815MOL0     H 7558  -2.302   3.749   4.065 -0.6280 -0.9533  1.4272
  815MOL0     H 7559  -2.441   3.790   4.151 -0.4990 -3.6736 -1.0124
  815MOL0     H 7560  -2.441   3.766   3.849  1.5951 -2.8148 -0.5971
  815MOL0     H 7561  -2.572   3.813   3.946 -2.2115 -3.0517 -0.7387
  815MOL0     H 7562  -1.653   4.456   4.180  0.2048 -0.0993  0.4741
  815MOL0     H 7563  -1.497   4.622   4.285  0.6723  0.3918  0.6996
  815MOL0     H 7564  -1.304   4.856   4.467 -0.9135  0.0988 -2.4740
  815MOL0     H 7565  -1.100   5.001   4.495 -0.7461 -3.2708 -1.1446
  815MOL0     H 7566   0.277   6.396   4.044 -1.6471 -1.6437  2.3765
  815MOL0     H 7567   0.503   6.467   4.139  0.6002 -0.0348 -0.7869
  815MOL0     H 7568   1.048   6.248   3.959 -2.1776 -0.3595 -1.0408
  815MOL0     H 7569   1.270   6.243   4.058  1.5151 -0.9402  1.3379
  815MOL0     H 7570   1.428   6.214   4.149  1.9438 -1.7548  1.5003
  815MOL0     H 7571   1.495   6.201   4.312  0.9125  0.6807  0.8272
  815MOL0     H 7572   1.413   6.474   4.239 -2.6977 -1.8608  0.0814
  815MOL0     H 7573   1.572   6.419   4.292 -0.0762 -1.1026 -0.4668
  815MOL0     H 7574   1.559   6.527   4.052 -0.1087  0.5446  4.3075
  815MOL0     H 7575   1.476   6.384   3.997  0.5329  0.4322 -0.6459
  815MOL0     H 7576   1.682   6.244   4.071  2.8523  0.1885 -0.5539
  815MOL0     H 7577   1.714   6.341   3.938  1.1790 -1.2016 -0.1230
  815MOL0     H 7578   1.980   6.554   4.175  0.4747 -1.8354 -0.7841
  815MOL0     H 7579   1.091   6.306   4.444  0.6720 -1.9471 -0.6572
  815MOL0     H 7580   0.881   6.339   4.351 -0.2828  0.2305  0.5126
  816MOL0     O 7581   0.693   9.606   9.677 -0.4922  0.0761  0.1479
  816MOL0     C 7582   0.758   9.617   9.778 -0.8941 -0.6994 -0.3088
  816MOL0     O 7583   0.719   9.589   9.901  0.1563 -0.4241 -0.0524
  816MOL0     C 7584   0.587   9.551   9.920  1.3429 -0.0017  0.0713
  816MOL0     C 7585   0.489   9.646   9.900 -0.1828  0.5420 -0.1635
  816MOL0     C 7586   0.362   9.609   9.955 -0.0656 -0.3017  0.1311
  816MOL0     C 7587   0.330   9.476   9.979  0.8886  0.3004 -0.9220
  816MOL0     O 7588   0.202   9.436  10.010 -0.7999 -0.8772 -0.0357
  816MOL0     C 7589   0.101   9.538  10.034  0.2974  0.4766  0.8446
  816MOL0     C 7590  -0.004   9.483  10.125 -0.3853  0.5565 -0.1356
  816MOL0     C 7591  -0.101   9.593  10.158  1.0537 -0.1542 -0.3187
  816MOL0     C 7592  -0.186   9.555  10.278  0.2037 -0.3353 -1.2173
  816MOL0     C 7593  -0.325   9.632  10.277  0.3863 -0.0777 -0.0601
  816MOL0     C 7594  -0.421   9.574  10.173  0.4608  0.7439 -0.2916
  816MOL0     C 7595  -0.566   9.629  10.197 -0.3557  0.6545 -0.7565
  816MOL0     C 7596  -0.641   9.633  10.065 -0.2118  0.7760 -0.1570
  816MOL0     N 7597  -0.778   9.692  10.081  0.6912  0.3882 -0.6931
  816MOL0     C 7598  -0.825   9.801  10.011  0.2628  0.0015  0.8709
  816MOL0     C 7599  -0.957   9.825  10.050  0.6512  0.8823 -0.7972
  816MOL0     C 7600  -1.036   9.958  10.032 -0.1859 -0.1150  0.5266
  816MOL0     C 7601  -1.190   9.929  10.035  0.3767  0.6019  0.1523
  816MOL0     C 7602  -1.267   9.908  10.173 -0.0233 -0.4070  1.4430
  816MOL0     C 7603  -1.422   9.907  10.151  0.0051 -0.8004 -0.8526
  816MOL0     O 7604  -1.468   9.818  10.045  0.2361  0.1817  0.9016
  816MOL0     C 7605  -1.596   9.830   9.983 -0.4062 -0.1365  0.1027
  816MOL0     C 7606  -1.700   9.916  10.021 -0.4354  0.5344  0.2527
  816MOL0     C 7607  -1.825   9.908   9.957  0.3480  0.7557 -0.5293
  816MOL0     C 7608  -1.836   9.845   9.837  0.2847 -0.2160  0.2635
  816MOL0     C 7609  -1.959   9.859   9.756 -0.6273  0.2147 -0.6604
  816MOL0     O 7610  -2.065   9.938   9.806 -0.1337  0.2638  0.2528
  816MOL0     C 7611  -2.187   9.930   9.751  0.1870 -0.4037 -0.8678
  816MOL0     C 7612  -2.261   9.814   9.733  0.4899 -0.4215 -0.0942
  816MOL0     C 7613  -2.400   9.810   9.703 -0.2135 -0.3361  0.1203
  816MOL0     C 7614  -2.459   9.931   9.689  0.6972 -0.9611 -0.0229
  816MOL0     O 7615  -2.584   9.905   9.659  0.2656 -0.3315 -0.7956
  816MOL0     C 7616  -2.666  10.030   9.652  0.1315  0.2103  0.0753
  816MOL0     C 7617  -2.809   9.972   9.631 -0.3440  1.2596 -0.5099
  816MOL0     C 7618  -2.878   9.942   9.759  0.1147 -0.4978  0.1731
  816MOL0     C 7619  -2.944  10.053   9.835 -0.5867  0.2208  0.0398
  816MOL0     C 7620  -3.040   9.995   9.940 -0.2078 -0.2551  0.1712
  816MOL0     C 7621  -2.976   9.884  10.029 -0.2864  0.4926  0.1019
  816MOL0     C 7622  -3.062   9.859  10.153 -0.0546  0.6642 -0.6043
  816MOL0     C 7623  -3.026   9.718  10.206 -0.4185 -1.1159 -0.6773
  816MOL0    Cl 7624  -2.868   9.716  10.296  0.4077 -0.0945  0.2373
  816MOL0     C 7625  -2.395  10.050   9.722  0.0163 -0.3522 -1.0347
  816MOL0     C 7626  -2.258  10.047   9.748 -0.4905 -0.5639 -1.0078
  816MOL0     O 7627  -1.964   9.794   9.649 -0.4314 -0.5461 -0.9169
  816MOL0     C 7628  -1.736   9.753   9.796 -0.2709  0.2732  0.0317
  816MOL0     C 7629  -1.613   9.750   9.871 -0.2128  0.5148 -0.0974
  816MOL0     N 7630  -0.990   9.719  10.134 -0.2920  0.2543  0.5410
  816MOL0     N 7631  -0.885   9.651  10.159 -1.2155 -0.4417  0.3015
  816MOL0     C 7632   0.436   9.387   9.994 -0.6148  1.0461  0.6374
  816MOL0     C 7633   0.560   9.425   9.968 -0.0517  0.7240 -0.7465
  816MOL0     C 7634   0.905   9.660   9.766 -0.2572  0.1912 -0.1449
  816MOL0     C 7635   0.993   9.680   9.886  0.6729  1.0584  0.3307
  816MOL0     C 7636   1.119   9.723   9.861 -0.3630  0.3243  1.3288
  816MOL0     C 7637   1.167   9.738   9.728  0.1449 -0.4028  0.3421
  816MOL0     O 7638   1.296   9.782   9.713 -0.0158  0.4232  0.2484
  816MOL0     C 7639   1.346   9.847   9.596 -0.0077  0.2547 -0.3684
  816MOL0     C 7640   1.502   9.848   9.582 -0.2542 -0.5599 -0.0315
  816MOL0     C 7641   1.556   9.983   9.624 -0.3779  0.2810 -0.1138
  816MOL0     C 7642   1.709   9.988   9.586 -0.2717 -0.5248 -0.2966
  816MOL0     C 7643   1.771  10.104   9.662 -0.3388  0.2201  0.8456
  816MOL0     C 7644   1.811  10.198   9.722 -0.2919 -0.8322 -0.6269
  816MOL0     C 7645   1.084   9.730   9.619  0.3617 -0.7121 -0.1145
  816MOL0     C 7646   0.956   9.687   9.638 -0.5988  0.1301 -0.5627
  816MOL0     H 7647   0.511   9.745   9.860 -2.0214  0.8700 -0.4851
  816MOL0     H 7648   0.284   9.684   9.962 -1.9747 -2.2770  1.0213
  816MOL0     H 7649   0.065   9.562   9.933  1.7541 -2.9511 -0.6344
  816MOL0     H 7650   0.140   9.627  10.084  0.9632  0.4081  0.4524
  816MOL0     H 7651   0.049   9.455  10.217 -4.6389 -4.0283  1.3576
  816MOL0     H 7652  -0.057   9.398  10.082  0.2151  0.9375 -1.7085
  816MOL0     H 7653  -0.157   9.615  10.067  0.3754 -1.8358 -0.3556
  816MOL0     H 7654  -0.058   9.692  10.173 -0.7978  1.0741 -2.5847
  816MOL0     H 7655  -0.199   9.446  10.285  1.8038 -0.4521  2.0216
  816MOL0     H 7656  -0.126   9.573  10.368  0.4824 -1.1068 -1.2358
  816MOL0     H 7657  -0.299   9.737  10.262  4.2610 -1.1243 -1.9918
  816MOL0     H 7658  -0.375   9.627  10.374 -0.4160 -1.4068 -0.5038
  816MOL0     H 7659  -0.416   9.466  10.186  4.3370  1.0890  3.0292
  816MOL0     H 7660  -0.396   9.593  10.068  0.0176 -2.1368 -0.9935
  816MOL0     H 7661  -0.611   9.563  10.272  1.1424 -1.5288 -1.6951
  816MOL0     H 7662  -0.567   9.735  10.226  0.7354  0.9070 -1.5520
  816MOL0     H 7663  -0.649   9.527  10.041 -2.9814  1.1816 -1.4565
  816MOL0     H 7664  -0.597   9.697   9.987 -1.2722  1.5753 -0.1388
  816MOL0     H 7665  -0.784   9.870   9.938 -4.2612  1.0181 -1.1141
  816MOL0     H 7666  -1.018  10.013   9.939  1.5079 -0.4902  0.6025
  816MOL0     H 7667  -1.009  10.024  10.115  1.4501 -1.5049  1.1515
  816MOL0     H 7668  -1.222   9.843   9.975  0.0148  0.1068  1.0339
  816MOL0     H 7669  -1.229  10.022   9.991  0.8263 -0.8156 -3.6820
  816MOL0     H 7670  -1.225   9.816  10.214  3.8740  1.1781  1.4735
  816MOL0     H 7671  -1.254   9.982  10.252  1.7494  1.7744 -0.7377
  816MOL0     H 7672  -1.468  10.007  10.148 -0.3989 -0.9947 -1.5308
  816MOL0     H 7673  -1.463   9.873  10.246 -1.5624 -1.2094 -1.6255
  816MOL0     H 7674  -1.681   9.973  10.111  1.0980  0.7640 -0.1787
  816MOL0     H 7675  -1.899   9.979   9.994 -0.2304 -0.0031 -0.2190
  816MOL0     H 7676  -2.207   9.722   9.752  1.4476  0.3067  0.8550
  816MOL0     H 7677  -2.459   9.722   9.683  0.1620 -0.8670  1.2417
  816MOL0     H 7678  -2.636  10.086   9.563 -1.7072 -0.5396 -1.0749
  816MOL0     H 7679  -2.654  10.095   9.739 -0.8321 -1.8242  1.8227
  816MOL0     H 7680  -2.803   9.877   9.578 -1.9299  0.4334  0.6871
  816MOL0     H 7681  -2.878  10.041   9.581 -2.3495  1.5125  2.3530
  816MOL0     H 7682  -2.802   9.890   9.818  0.3858 -0.2158  0.0771
  816MOL0     H 7683  -2.954   9.870   9.727 -0.1111  0.8860 -2.7124
  816MOL0     H 7684  -2.872  10.115   9.889 -3.2523  0.1423  4.1325
  816MOL0     H 7685  -3.007  10.113   9.769  1.6334  0.3415 -2.1191
  816MOL0     H 7686  -3.131   9.957   9.893  1.3587 -3.8693 -0.2671
  816MOL0     H 7687  -3.071  10.076  10.007 -3.4528 -2.8884  2.1518
  816MOL0     H 7688  -2.871   9.900  10.052  1.2174 -2.0920 -3.8303
  816MOL0     H 7689  -2.965   9.799   9.961  2.0180  0.7090  0.1174
  816MOL0     H 7690  -3.058   9.928  10.238  2.4091 -0.8611  0.6130
  816MOL0     H 7691  -3.165   9.856  10.114 -0.5151 -4.2857  0.3178
  816MOL0     H 7692  -3.015   9.642  10.128  1.8022 -2.3611  0.7295
  816MOL0     H 7693  -3.104   9.690  10.277 -1.7206  0.0929 -1.5694
  816MOL0     H 7694  -2.453  10.141   9.732 -2.5573 -2.1058  3.9427
  816MOL0     H 7695  -2.212  10.138   9.786 -0.4378 -1.2871  0.7918
  816MOL0     H 7696  -1.742   9.687   9.709  3.1702  0.2811 -0.3534
  816MOL0     H 7697  -1.537   9.673   9.861 -2.1996 -1.7291  1.1283
  816MOL0     H 7698   0.416   9.289  10.036  0.7381  0.5862  0.2445
  816MOL0     H 7699   0.651   9.369   9.988  0.5669  1.7690 -0.5678
  816MOL0     H 7700   0.963   9.658   9.988  1.9746  0.6813  0.6578
  816MOL0     H 7701   1.187   9.727   9.946 -0.1862  1.3048  1.1515
  816MOL0     H 7702   1.311   9.950   9.586 -2.3672 -0.6021 -1.8201
  816MOL0     H 7703   1.316   9.792   9.506  0.7422 -1.0176  0.1227
  816MOL0     H 7704   1.549   9.774   9.647 -0.2801  0.7398  1.4924
  816MOL0     H 7705   1.521   9.817   9.478 -0.7485  0.4316 -0.4280
  816MOL0     H 7706   1.539   9.966   9.731 -0.2104 -1.9151 -0.3857
  816MOL0     H 7707   1.512  10.076   9.586 -1.8994 -0.2183  0.3405
  816MOL0     H 7708   1.747   9.891   9.621  0.1666 -1.0626 -2.1363
  816MOL0     H 7709   1.725   9.993   9.478 -0.0635  1.1539 -0.2160
  816MOL0     H 7710   1.854  10.274   9.785 -1.0833 -2.3078  1.8451
  816MOL0     H 7711   1.120   9.749   9.518  0.8067 -1.2230 -0.0563
  816MOL0     H 7712   0.899   9.680   9.546  0.2131  0.1599 -1.0858
  817MOL0     O 7713   4.769   4.321   3.415 -0.2125  0.3788  0.8767
  817MOL0     C 7714   4.651   4.361   3.430 -0.1942 -0.1382 -0.4090
  817MOL0     O 7715   4.615   4.499   3.427 -0.4614  0.6812 -0.5376
  817MOL0     C 7716   4.718   4.585   3.446 -0.2076  0.8288 -0.6398
  817MOL0     C 7717   4.807   4.581   3.546 -0.6560 -0.5047  0.2502
  817MOL0     C 7718   4.913   4.671   3.559 -0.1683 -0.2484  0.3730
  817MOL0     C 7719   4.937   4.766   3.465 -0.4085  0.2839  0.1137
  817MOL0     O 7720   5.055   4.834   3.473  0.1493  0.1119 -0.6442
  817MOL0     C 7721   5.029   4.968   3.500  0.0833  0.1530 -0.2551
  817MOL0     C 7722   5.111   5.009   3.629  0.8215 -0.1652 -0.5912
  817MOL0     C 7723   5.066   5.155   3.670  0.3215 -0.3069  0.2217
  817MOL0     C 7724   5.131   5.202   3.796 -0.7487 -0.7621 -0.0923
  817MOL0     C 7725   5.081   5.343   3.845 -1.1224 -0.4202 -0.1434
  817MOL0     C 7726   5.060   5.371   3.987  0.5532 -0.3215 -0.7737
  817MOL0     C 7727   5.189   5.335   4.063  0.5642  0.5396 -0.3698
  817MOL0     C 7728   5.159   5.358   4.203  0.2766  0.1659  0.2301
  817MOL0     N 7729   5.286   5.335   4.280  0.6284  0.4234 -0.0085
  817MOL0     C 7730   5.341   5.210   4.301  0.8124 -0.6278  0.1159
  817MOL0     C 7731   5.457   5.234   4.360 -0.6934 -0.4391  0.0701
  817MOL0     C 7732   5.566   5.148   4.422  1.0731 -0.1636  0.3416
  817MOL0     C 7733   5.544   5.132   4.574 -0.3404 -0.6932  0.4151
  817MOL0     C 7734   5.566   5.269   4.641 -0.6994  0.1271 -0.6982
  817MOL0     C 7735   5.564   5.260   4.799  0.2200  0.0333 -0.2224
  817MOL0     O 7736   5.599   5.387   4.856 -0.3847  0.5085 -0.0146
  817MOL0     C 7737   5.731   5.393   4.895 -0.1112 -0.2188 -0.5036
  817MOL0     C 7738   5.767   5.526   4.928 -0.3874 -0.7160  0.6171
  817MOL0     C 7739   5.903   5.555   4.969 -0.6519 -0.4092  0.0004
  817MOL0     C 7740   5.997   5.456   4.997  0.5854 -0.7757 -0.6477
  817MOL0     C 7741   6.135   5.479   5.055  0.1267 -0.1477 -0.1454
  817MOL0     O 7742   6.226   5.374   5.044  0.3979  0.8499  1.1340
  817MOL0     C 7743   6.354   5.403   5.088  0.0923 -0.4412 -0.7401
  817MOL0     C 7744   6.441   5.481   5.015 -1.4159 -0.0075 -0.1512
  817MOL0     C 7745   6.570   5.517   5.061 -0.0864  0.8508 -0.8173
  817MOL0     C 7746   6.621   5.463   5.184 -0.2918  0.4976  0.6675
  817MOL0     O 7747   6.751   5.488   5.223 -1.0100 -0.2155  0.3012
  817MOL0     C 7748   6.785   5.627   5.207 -0.5178 -0.2313  0.4471
  817MOL0     C 7749   6.916   5.640   5.290 -0.9445 -0.1628 -0.2720
  817MOL0     C 7750   7.037   5.612   5.190  0.0071  0.3234 -0.2869
  817MOL0     C 7751   7.163   5.583   5.279  0.1259 -0.4296 -0.1972
  817MOL0     C 7752   7.207   5.700   5.363 -0.9642 -1.5853 -0.0758
  817MOL0     C 7753   7.321   5.656   5.462  0.2549 -0.5443  0.2527
  817MOL0     C 7754   7.363   5.757   5.566 -0.2249  0.4809  0.3284
  817MOL0     C 7755   7.447   5.869   5.515  0.4924  0.0109 -0.7341
  817MOL0    Cl 7756   7.606   5.816   5.444 -0.2104 -0.1703 -0.1422
  817MOL0     C 7757   6.528   5.385   5.253  0.6892  0.5428 -0.7609
  817MOL0     C 7758   6.397   5.348   5.209  0.9749 -0.0180  1.1531
  817MOL0     O 7759   6.167   5.589   5.099 -0.5165 -0.1781  0.1540
  817MOL0     C 7760   5.960   5.331   4.958 -0.4938  0.7322  0.2938
  817MOL0     C 7761   5.835   5.296   4.909  0.5802  0.0652 -0.2322
  817MOL0     N 7762   5.484   5.369   4.362  0.0771  0.5572  0.1785
  817MOL0     N 7763   5.379   5.432   4.312 -0.2331 -0.0762 -0.3579
  817MOL0     C 7764   4.851   4.774   3.353 -0.5183  0.4127 -0.5393
  817MOL0     C 7765   4.738   4.682   3.351 -0.0944  0.2229 -0.4115
  817MOL0     C 7766   4.555   4.257   3.454  0.5201 -0.3805 -0.3545
  817MOL0     C 7767   4.412   4.284   3.488 -1.2764  1.1315 -0.8812
  817MOL0     C 7768   4.317   4.187   3.498 -1.5848  0.7681  0.2104
  817MOL0     C 7769   4.353   4.057   3.443  0.2900  0.6353  0.0310
  817MOL0     O 7770   4.272   3.948   3.442 -0.1647  1.0071  0.2406
  817MOL0     C 7771   4.135   3.975   3.461  0.0011 -0.4290 -0.0626
  817MOL0     C 7772   4.053   3.848   3.451  0.7448 -0.0327 -0.0526
  817MOL0     C 7773   3.913   3.883   3.382 -1.1195 -0.3930  0.3416
  817MOL0     C 7774   3.821   3.765   3.382  0.3036  0.6941  1.1388
  817MOL0     C 7775   3.684   3.780   3.317 -0.5193  0.8525 -0.3894
  817MOL0     C 7776   3.571   3.803   3.266 -0.0463 -0.2342 -0.0823
  817MOL0     C 7777   4.483   4.025   3.404  0.2465  0.3175 -0.1671
  817MOL0     C 7778   4.582   4.127   3.408  0.1546  0.0930  0.3004
  817MOL0     H 7779   4.803   4.507   3.625 -0.5390 -1.0498 -0.2534
  817MOL0     H 7780   4.985   4.660   3.639 -0.6096 -1.4455  0.6197
  817MOL0     H 7781   4.926   5.005   3.512  0.6469  1.7622 -0.0557
  817MOL0     H 7782   5.067   5.032   3.420  1.2948 -1.2970 -0.8847
  817MOL0     H 7783   5.218   5.011   3.605  0.7224  3.4967 -1.2183
  817MOL0     H 7784   5.093   4.937   3.709  2.5594 -0.7807 -0.7248
  817MOL0     H 7785   4.958   5.158   3.690 -0.2508  1.5865 -2.4788
  817MOL0     H 7786   5.076   5.228   3.589 -0.5646  2.2732  2.2803
  817MOL0     H 7787   5.092   5.135   3.873 -2.0294 -0.4506 -0.4427
  817MOL0     H 7788   5.239   5.200   3.783 -0.7448 -0.1220 -0.1933
  817MOL0     H 7789   4.982   5.367   3.803  0.8044  3.6776 -3.1160
  817MOL0     H 7790   5.141   5.421   3.797 -2.3038  1.9431  1.9997
  817MOL0     H 7791   4.968   5.321   4.020  0.0591 -0.7332 -2.6922
  817MOL0     H 7792   5.042   5.479   3.995 -3.0896 -0.6262 -2.7885
  817MOL0     H 7793   5.213   5.230   4.042  2.3418  1.0441 -1.0132
  817MOL0     H 7794   5.270   5.400   4.029  0.7616  0.9023  0.7594
  817MOL0     H 7795   5.073   5.294   4.229 -0.4369  1.4169  1.0534
  817MOL0     H 7796   5.130   5.463   4.216  0.7785  0.8599 -3.3584
  817MOL0     H 7797   5.289   5.117   4.281 -0.4490 -0.6430  2.9071
  817MOL0     H 7798   5.661   5.198   4.398  0.6314  1.1341  1.2080
  817MOL0     H 7799   5.555   5.053   4.369 -0.1289  1.2192 -2.0204
  817MOL0     H 7800   5.619   5.068   4.620 -0.2009  0.2828  1.6071
  817MOL0     H 7801   5.439   5.114   4.599 -1.1204  4.2971  1.9728
  817MOL0     H 7802   5.653   5.326   4.609 -0.7357  0.7864  0.3472
  817MOL0     H 7803   5.475   5.325   4.617 -1.3650 -0.3667  0.5880
  817MOL0     H 7804   5.617   5.172   4.837  1.7979  1.7174  1.7283
  817MOL0     H 7805   5.459   5.251   4.829  0.3920 -0.9422  0.1246
  817MOL0     H 7806   5.702   5.609   4.903 -0.7391 -0.8038  1.2088
  817MOL0     H 7807   5.915   5.653   5.014 -1.0787 -0.8155  1.0352
  817MOL0     H 7808   6.401   5.510   4.918 -1.1835 -1.6866 -0.7787
  817MOL0     H 7809   6.636   5.565   4.990 -0.3281 -1.4243 -2.7295
  817MOL0     H 7810   6.719   5.701   5.253  0.8395  1.3491 -0.0312
  817MOL0     H 7811   6.800   5.659   5.103 -2.5749  0.1155  0.2174
  817MOL0     H 7812   6.915   5.566   5.370 -1.8996  1.3885  1.2368
  817MOL0     H 7813   6.916   5.740   5.333 -0.3678  0.1585 -0.9992
  817MOL0     H 7814   7.059   5.691   5.118  0.8968  2.9989  2.6622
  817MOL0     H 7815   7.028   5.514   5.142  0.0353  0.5138 -0.6848
  817MOL0     H 7816   7.132   5.499   5.342 -1.8774  0.4682  0.1141
  817MOL0     H 7817   7.256   5.561   5.227  0.6432 -2.1306  1.3263
  817MOL0     H 7818   7.125   5.737   5.425  0.4307  2.6987 -0.4690
  817MOL0     H 7819   7.242   5.777   5.294 -0.7609  0.5601  2.2901
  817MOL0     H 7820   7.408   5.625   5.404  1.0746  4.0069 -1.3484
  817MOL0     H 7821   7.290   5.562   5.509  1.1731 -0.8290  0.3073
  817MOL0     H 7822   7.273   5.801   5.610 -1.0737 -1.1485  0.2853
  817MOL0     H 7823   7.422   5.704   5.642  0.7940  1.4131  0.2299
  817MOL0     H 7824   7.475   5.940   5.594 -0.3321  0.7308 -1.0779
  817MOL0     H 7825   7.381   5.926   5.449  0.0059 -2.3066 -2.3696
  817MOL0     H 7826   6.557   5.350   5.352  2.0080 -2.1016 -1.9764
  817MOL0     H 7827   6.323   5.310   5.278 -3.3690 -0.7210 -3.3418
  817MOL0     H 7828   6.034   5.251   4.959 -2.2604 -0.9748  0.8481
  817MOL0     H 7829   5.808   5.198   4.872 -0.1510  1.0915 -2.5532
  817MOL0     H 7830   4.868   4.852   3.279 -2.3699  0.7223 -0.6812
  817MOL0     H 7831   4.667   4.684   3.269  0.5818 -1.3460 -1.0749
  817MOL0     H 7832   4.390   4.388   3.505  1.9562  1.6758  0.8749
  817MOL0     H 7833   4.212   4.204   3.521 -1.5243 -0.0559  1.2054
  817MOL0     H 7834   4.105   4.041   3.379  1.4932  0.4643  0.0704
  817MOL0     H 7835   4.106   4.020   3.557 -1.7379 -1.6769  0.0364
  817MOL0     H 7836   4.109   3.782   3.385 -3.4362 -2.2939 -1.7171
  817MOL0     H 7837   4.047   3.806   3.551 -1.1852  0.8679  0.2717
  817MOL0     H 7838   3.922   3.923   3.281 -0.1208  2.0072  1.2966
  817MOL0     H 7839   3.866   3.966   3.436  1.6570  0.6447  1.3352
  817MOL0     H 7840   3.864   3.689   3.316 -0.3355 -2.3920  4.0182
  817MOL0     H 7841   3.812   3.731   3.486  2.5162 -0.0307  1.1360
  817MOL0     H 7842   3.480   3.829   3.217  0.5648 -0.6732 -1.5027
  817MOL0     H 7843   4.516   3.938   3.348  0.4860  1.1940 -1.4378
  817MOL0     H 7844   4.681   4.102   3.372  0.5434  3.1724 -1.0466
  818MOL0     O 7845   7.273  10.607  11.056 -0.2471 -0.6985  0.0936
  818MOL0     C 7846   7.294  10.719  11.080  0.8048 -1.0756 -0.5575
  818MOL0     O 7847   7.191  10.803  11.103 -0.1441 -0.2419 -0.6370
  818MOL0     C 7848   7.066  10.745  11.116  0.4083  1.1845 -0.1550
  818MOL0     C 7849   6.964  10.800  11.046 -0.3061 -0.2120 -0.1043
  818MOL0     C 7850   6.837  10.741  11.055 -1.1478 -0.3140 -0.6364
  818MOL0     C 7851   6.815  10.618  11.116 -0.9684  0.3435 -0.7971
  818MOL0     O 7852   6.690  10.562  11.121 -0.0369 -1.1159  0.1686
  818MOL0     C 7853   6.573  10.600  11.040  0.2273  0.5660 -0.1492
  818MOL0     C 7854   6.451  10.521  11.069  0.4337 -0.0936  0.1808
  818MOL0     C 7855   6.348  10.552  10.965 -0.7072  0.9685 -1.0569
  818MOL0     C 7856   6.230  10.465  10.990  0.1219  0.8659  0.4374
  818MOL0     C 7857   6.120  10.516  10.899 -0.4209 -1.1692  0.4422
  818MOL0     C 7858   5.998  10.429  10.920 -1.3306  0.0157 -0.1333
  818MOL0     C 7859   5.891  10.445  10.819  0.7107 -0.0169  0.7592
  818MOL0     C 7860   5.836  10.590  10.816 -0.2517  0.2018  0.9555
  818MOL0     N 7861   5.765  10.628  10.944 -0.1013  1.3387 -0.0009
  818MOL0     C 7862   5.714  10.758  10.965 -0.2497  0.1844  0.5277
  818MOL0     C 7863   5.617  10.741  11.062 -0.7200 -0.0426  0.2757
  818MOL0     C 7864   5.539  10.848  11.104 -0.1143 -0.7848 -0.5539
  818MOL0     C 7865   5.433  10.900  10.998 -0.1862  0.5957  0.9771
  818MOL0     C 7866   5.341  10.782  10.962  0.8678 -0.0508 -0.2915
  818MOL0     C 7867   5.264  10.721  11.084  0.2210 -1.0253 -0.0617
  818MOL0     O 7868   5.155  10.634  11.035  0.0262 -0.5489  0.2137
  818MOL0     C 7869   5.033  10.695  11.009  0.2998  0.7240  0.0815
  818MOL0     C 7870   4.920  10.611  10.973  0.0131 -0.3516 -0.2114
  818MOL0     C 7871   4.788  10.672  10.962 -0.4621  0.1691  0.4429
  818MOL0     C 7872   4.770  10.808  10.974 -1.4755  1.2624  1.2770
  818MOL0     C 7873   4.628  10.863  10.955 -0.6652  0.7849  0.4917
  818MOL0     O 7874   4.533  10.777  10.910 -0.5150 -0.1005 -0.5659
  818MOL0     C 7875   4.400  10.799  10.930 -0.6553 -1.2552 -0.0711
  818MOL0     C 7876   4.309  10.768  10.833  0.1320 -0.0541  0.5668
  818MOL0     C 7877   4.177  10.812  10.843  0.3672  0.8900 -0.2476
  818MOL0     C 7878   4.127  10.860  10.964 -0.7057  0.5899  0.2309
  818MOL0     O 7879   3.995  10.880  10.991  0.3705  0.1589 -0.1260
  818MOL0     C 7880   3.930  10.983  10.907  0.5983 -0.9794  0.0768
  818MOL0     C 7881   3.776  11.004  10.943 -0.5123 -0.2196  0.7065
  818MOL0     C 7882   3.721  11.140  10.892  0.4652  0.6014 -0.0809
  818MOL0     C 7883   3.572  11.119  10.877  0.6903  0.2345  0.5603
  818MOL0     C 7884   3.501  11.240  10.818 -0.2111 -0.4287  1.1075
  818MOL0     C 7885   3.355  11.201  10.794  0.5190 -0.5481 -0.6658
  818MOL0     C 7886   3.274  11.335  10.769  0.6374  0.7980  0.4857
  818MOL0     C 7887   3.127  11.304  10.734 -0.3142 -0.3450  0.2552
  818MOL0    Cl 7888   3.039  11.181  10.834 -0.2294 -0.0697 -0.7058
  818MOL0     C 7889   4.217  10.895  11.065  0.2048 -0.7505  0.7208
  818MOL0     C 7890   4.353  10.866  11.048  0.0321 -0.2300  0.2670
  818MOL0     O 7891   4.618  10.988  10.975  0.0762 -0.3320 -0.2576
  818MOL0     C 7892   4.884  10.879  11.000 -1.2262 -0.0996 -1.0522
  818MOL0     C 7893   5.008  10.829  11.007  0.5040 -0.2917 -0.4550
  818MOL0     N 7894   5.619  10.610  11.107  0.4762  0.4441  0.8174
  818MOL0     N 7895   5.696  10.541  11.025  0.3575  0.7387 -0.3950
  818MOL0     C 7896   6.920  10.556  11.185 -0.6129  0.1732 -0.4661
  818MOL0     C 7897   7.047  10.619  11.191  0.5328 -0.5988 -0.6740
  818MOL0     C 7898   7.434  10.761  11.075  1.3256 -0.1029  1.3722
  818MOL0     C 7899   7.472  10.897  11.070 -0.2131 -0.0783  0.6839
  818MOL0     C 7900   7.608  10.934  11.054 -0.0603 -0.1232  0.2139
  818MOL0     C 7901   7.706  10.832  11.030  0.0904 -0.3576  0.1309
  818MOL0     O 7902   7.829  10.881  11.006  0.8451  0.0183 -0.2689
  818MOL0     C 7903   7.941  10.802  11.045  0.1252  0.8833  0.2432
  818MOL0     C 7904   8.069  10.849  10.988 -0.5315  0.4011  0.0785
  818MOL0     C 7905   8.094  11.001  10.985  0.1762 -0.9384 -0.5338
  818MOL0     C 7906   8.236  11.064  10.960  0.4538  0.1105  0.2043
  818MOL0     C 7907   8.287  11.017  10.832  0.1297  0.0488 -0.3212
  818MOL0     C 7908   8.330  10.958  10.740  1.0990  0.8631 -0.2094
  818MOL0     C 7909   7.670  10.696  11.038 -0.1413  0.4982  0.4133
  818MOL0     C 7910   7.532  10.664  11.053  0.3723  0.2443  0.2665
  818MOL0     H 7911   6.979  10.889  10.986 -1.9987  0.1040 -0.0976
  818MOL0     H 7912   6.769  10.810  11.006  0.1784  1.3498 -0.2094
  818MOL0     H 7913   6.611  10.579  10.939  2.8715 -0.6131  0.9711
  818MOL0     H 7914   6.549  10.706  11.046 -0.8940  0.3417 -0.4422
  818MOL0     H 7915   6.412  10.521  11.171 -3.9397  0.6769 -1.2977
  818MOL0     H 7916   6.490  10.420  11.056  0.7207 -0.1239  1.1834
  818MOL0     H 7917   6.382  10.529  10.864 -4.5297 -0.1572 -2.2615
  818MOL0     H 7918   6.323  10.658  10.963 -2.7060  0.5245 -2.1803
  818MOL0     H 7919   6.246  10.359  10.969 -1.8007  0.5629  0.3124
  818MOL0     H 7920   6.203  10.471  11.096 -2.0313 -2.1978  0.2022
  818MOL0     H 7921   6.145  10.516  10.793 -0.7399 -4.3760  0.2556
  818MOL0     H 7922   6.108  10.618  10.934  2.2121 -0.5512 -0.2330
  818MOL0     H 7923   5.951  10.444  11.017 -0.8905 -1.7259  0.3824
  818MOL0     H 7924   6.029  10.324  10.909  3.0583  1.1028 -0.1953
  818MOL0     H 7925   5.937  10.423  10.723 -0.3823 -1.0424  0.4612
  818MOL0     H 7926   5.807  10.377  10.836 -0.8374  1.6570  0.2247
  818MOL0     H 7927   5.766  10.604  10.733 -0.1125  1.7179  1.0637
  818MOL0     H 7928   5.925  10.651  10.799  0.3664 -0.8321  0.3783
  818MOL0     H 7929   5.743  10.847  10.908  2.4740 -1.0638 -0.2055
  818MOL0     H 7930   5.613  10.927  11.121  2.1599 -3.0735  0.9605
  818MOL0     H 7931   5.482  10.821  11.194 -3.7582  0.9229 -2.1220
  818MOL0     H 7932   5.496  10.943  10.919  0.5484  2.4009  2.4561
  818MOL0     H 7933   5.365  10.979  11.031 -2.2880 -0.7457  0.0739
  818MOL0     H 7934   5.277  10.826  10.885 -1.7919 -0.6197  1.4183
  818MOL0     H 7935   5.403  10.705  10.917 -0.2128 -0.0425 -1.8642
  818MOL0     H 7936   5.228  10.807  11.142  3.9622  2.9171 -2.8784
  818MOL0     H 7937   5.325  10.655  11.147  3.5013  1.6022 -0.1774
  818MOL0     H 7938   4.924  10.504  10.961 -2.1920 -0.6175  0.9555
  818MOL0     H 7939   4.705  10.601  10.956 -0.6382  0.4859 -1.0905
  818MOL0     H 7940   4.342  10.730  10.737  0.0011  3.4419 -1.0162
  818MOL0     H 7941   4.118  10.784  10.757 -0.8138 -2.5711  1.4903
  818MOL0     H 7942   3.956  10.964  10.802 -2.3781 -3.8397 -0.3314
  818MOL0     H 7943   3.984  11.073  10.935 -2.0610  1.1408 -1.1429
  818MOL0     H 7944   3.777  10.993  11.052 -1.6586 -1.4844  0.6119
  818MOL0     H 7945   3.713  10.922  10.906  0.8104 -1.1161  0.3411
  818MOL0     H 7946   3.763  11.159  10.793 -2.6078 -1.3326 -1.9297
  818MOL0     H 7947   3.760  11.229  10.944  0.6772  0.9872 -0.8859
  818MOL0     H 7948   3.553  11.033  10.813 -0.1809  0.7174  0.1509
  818MOL0     H 7949   3.519  11.094  10.970 -2.7818  0.7914 -1.0848
  818MOL0     H 7950   3.545  11.273  10.724  0.6586  0.3048  1.7566
  818MOL0     H 7951   3.506  11.322  10.890 -1.9214 -1.0002  1.9569
  818MOL0     H 7952   3.320  11.161  10.889  1.7519 -2.9630 -1.1597
  818MOL0     H 7953   3.339  11.133  10.710  1.1849 -2.0225  0.3595
  818MOL0     H 7954   3.266  11.386  10.865 -2.2425 -3.7621  3.0449
  818MOL0     H 7955   3.326  11.406  10.704  0.9255 -1.0864 -1.4634
  818MOL0     H 7956   3.120  11.274  10.629  0.8036  0.4388 -0.0564
  818MOL0     H 7957   3.076  11.401  10.743  0.2814  0.0282 -0.2885
  818MOL0     H 7958   4.173  10.936  11.156 -0.6966  0.0423 -0.0568
  818MOL0     H 7959   4.417  10.887  11.133 -0.6864  0.1245  0.7326
  818MOL0     H 7960   4.870  10.987  11.012  1.0568 -0.0311  2.8117
  818MOL0     H 7961   5.099  10.887  11.023  0.9246 -1.5185  2.1330
  818MOL0     H 7962   6.912  10.463  11.241  1.5120  2.4717  4.1955
  818MOL0     H 7963   7.137  10.586  11.243  0.3966  0.6178  0.3912
  818MOL0     H 7964   7.391  10.969  11.077 -0.2987  0.2619 -2.3498
  818MOL0     H 7965   7.652  11.032  11.044  0.3191  0.0900  3.1165
  818MOL0     H 7966   7.931  10.697  11.018  2.9977  0.8939 -1.3047
  818MOL0     H 7967   7.938  10.798  11.154  0.6793 -1.1236  0.2276
  818MOL0     H 7968   8.160  10.806  11.032  0.2235  1.9587  0.0836
  818MOL0     H 7969   8.072  10.825  10.881 -1.2265 -0.5132  0.2423
  818MOL0     H 7970   8.055  11.032  11.082  1.7938 -3.7648  1.1355
  818MOL0     H 7971   8.038  11.033  10.896  1.0337 -1.3559 -1.2392
  818MOL0     H 7972   8.221  11.171  10.942  1.1437 -0.1665 -2.3103
  818MOL0     H 7973   8.302  11.037  11.043 -0.0369 -2.9372 -0.2562
  818MOL0     H 7974   8.367  10.918  10.648  2.2335  0.4655  0.4130
  818MOL0     H 7975   7.725  10.607  11.007 -3.9674 -2.0187  0.2733
  818MOL0     H 7976   7.516  10.556  11.054 -2.2301  0.5264 -1.5433
  819MOL0     O 7977   6.209   8.436   9.992  0.5537  0.6020  0.1192
  819MOL0     C 7978   6.234   8.358  10.083  0.7375 -0.2091  0.7602
  819MOL0     O 7979   6.171   8.243  10.116 -0.3404  0.2668 -0.7111
  819MOL0     C 7980   6.067   8.203  10.028  0.6740 -0.4972 -0.0717
  819MOL0     C 7981   6.095   8.159   9.897  0.0141  0.5715 -0.6666
  819MOL0     C 7982   5.994   8.083   9.829  0.1257  0.4775  0.1243
  819MOL0     C 7983   5.865   8.063   9.886  0.0775  1.5158  0.7822
  819MOL0     O 7984   5.793   7.973   9.810 -0.3926  0.3000 -0.1277
  819MOL0     C 7985   5.671   7.924   9.869  0.0495 -0.3689  0.2042
  819MOL0     C 7986   5.626   7.788   9.813  0.1928  0.1261 -0.1535
  819MOL0     C 7987   5.552   7.797   9.683  0.3459  0.6508  0.6568
  819MOL0     C 7988   5.508   7.655   9.639 -0.2989  0.3934  0.0984
  819MOL0     C 7989   5.392   7.663   9.537 -0.3937  0.7857 -0.0588
  819MOL0     C 7990   5.397   7.536   9.442 -0.0719 -0.1239 -0.0799
  819MOL0     C 7991   5.318   7.549   9.301 -0.2918 -0.8750  0.0698
  819MOL0     C 7992   5.164   7.554   9.312  0.1473  0.2550  0.0295
  819MOL0     N 7993   5.122   7.542   9.173  0.3010  0.3226  0.6966
  819MOL0     C 7994   5.031   7.617   9.107 -1.2223 -0.6142  0.4684
  819MOL0     C 7995   4.996   7.551   8.997 -0.1023  0.8586  0.9482
  819MOL0     C 7996   4.894   7.580   8.890  0.1045  0.5866  0.6339
  819MOL0     C 7997   4.785   7.470   8.872 -0.2511 -0.5262  0.1807
  819MOL0     C 7998   4.653   7.538   8.824  0.4985 -0.3238 -0.0483
  819MOL0     C 7999   4.527   7.447   8.797  0.8990  0.6181  0.1205
  819MOL0     O 8000   4.407   7.515   8.768 -0.0706 -0.0713 -0.8684
  819MOL0     C 8001   4.292   7.451   8.759  0.4000  0.8179  0.1408
  819MOL0     C 8002   4.272   7.312   8.793 -0.2776  0.4392  0.4596
  819MOL0     C 8003   4.144   7.253   8.773 -0.9841 -0.8789 -0.1341
  819MOL0     C 8004   4.034   7.330   8.729  0.2518  0.5514 -0.2319
  819MOL0     C 8005   3.896   7.272   8.723 -0.9155  1.4159 -0.1672
  819MOL0     O 8006   3.787   7.349   8.727  0.3795 -0.0512 -0.7270
  819MOL0     C 8007   3.660   7.315   8.730  0.2225  0.4174  0.6712
  819MOL0     C 8008   3.587   7.394   8.647  0.3672  0.7740 -0.4863
  819MOL0     C 8009   3.452   7.381   8.653 -0.0398  0.2268  0.2880
  819MOL0     C 8010   3.387   7.289   8.738  0.6913 -0.0508 -0.9760
  819MOL0     O 8011   3.243   7.279   8.741  0.1047  0.4161  0.4618
  819MOL0     C 8012   3.174   7.220   8.858  0.9976  0.3373  0.1067
  819MOL0     C 8013   3.028   7.244   8.827  0.2735 -0.4972  0.2651
  819MOL0     C 8014   2.940   7.199   8.955 -0.1975  0.0788 -0.1417
  819MOL0     C 8015   2.795   7.245   8.921  0.0830  0.4975 -0.3125
  819MOL0     C 8016   2.694   7.240   9.041 -0.5036 -0.0289  0.6789
  819MOL0     C 8017   2.556   7.230   8.981  0.4473  0.1494  0.2348
  819MOL0     C 8018   2.443   7.237   9.087  0.0610  0.0012  0.0437
  819MOL0     C 8019   2.295   7.233   9.045 -0.0338  0.0685 -0.2031
  819MOL0    Cl 8020   2.248   7.068   8.996  0.3806  0.1905 -0.0328
  819MOL0     C 8021   3.470   7.205   8.819 -0.3966 -0.5309  0.4036
  819MOL0     C 8022   3.611   7.213   8.803  0.8655  0.7436  0.2910
  819MOL0     O 8023   3.897   7.144   8.727  0.4538 -0.7533 -0.0403
  819MOL0     C 8024   4.056   7.463   8.704  0.0151 -0.4096 -0.6940
  819MOL0     C 8025   4.178   7.521   8.711 -0.6165 -0.2713 -0.5705
  819MOL0     N 8026   5.081   7.435   8.981  1.5749  0.4060  0.3968
  819MOL0     N 8027   5.140   7.430   9.093 -0.3169  0.1747  0.3470
  819MOL0     C 8028   5.839   8.121  10.009  0.2556 -0.2026 -0.9182
  819MOL0     C 8029   5.941   8.187  10.081 -0.2851 -0.1876  0.6737
  819MOL0     C 8030   6.356   8.389  10.150 -0.0201  0.6113 -0.2987
  819MOL0     C 8031   6.437   8.503  10.112 -0.5038 -0.0960 -0.1841
  819MOL0     C 8032   6.566   8.518  10.155 -0.7068  0.5054  0.7449
  819MOL0     C 8033   6.616   8.427  10.255  0.1572  0.0040  0.5935
  819MOL0     O 8034   6.745   8.424  10.301  0.5242 -0.6754 -0.3271
  819MOL0     C 8035   6.820   8.548  10.302 -0.4732 -0.0091 -1.2060
  819MOL0     C 8036   6.916   8.557  10.423  0.2983  0.6910 -0.2003
  819MOL0     C 8037   6.999   8.424  10.422  0.1996 -0.2776  0.5204
  819MOL0     C 8038   7.124   8.431  10.504 -0.2974  1.0199 -0.0696
  819MOL0     C 8039   7.171   8.291  10.525 -0.4524  0.6309  0.7691
  819MOL0     C 8040   7.180   8.167  10.536  0.3933 -0.0437 -0.0117
  819MOL0     C 8041   6.536   8.325  10.305  0.6231 -0.8493 -0.1977
  819MOL0     C 8042   6.408   8.308  10.253 -0.6424  0.1858  0.4479
  819MOL0     H 8043   6.197   8.171   9.862  0.0513  0.3236 -0.6495
  819MOL0     H 8044   5.998   8.043   9.728 -0.2848  1.3730 -0.2613
  819MOL0     H 8045   5.597   8.005   9.870 -0.4212 -0.7764  2.5148
  819MOL0     H 8046   5.693   7.894   9.972  2.2188  1.2674  0.2847
  819MOL0     H 8047   5.569   7.733   9.888  4.1648 -0.7134  2.5791
  819MOL0     H 8048   5.717   7.729   9.798  0.1752  0.3776 -1.3418
  819MOL0     H 8049   5.632   7.812   9.610  0.0857  0.1395  0.2560
  819MOL0     H 8050   5.475   7.873   9.671 -0.8699 -0.7592 -1.1691
  819MOL0     H 8051   5.593   7.605   9.591  1.9607  3.5173  0.5273
  819MOL0     H 8052   5.476   7.600   9.729 -3.6833  1.7557 -0.1453
  819MOL0     H 8053   5.407   7.761   9.490  2.2934  0.6581  0.3723
  819MOL0     H 8054   5.298   7.672   9.593  0.4817 -2.0136  2.1337
  819MOL0     H 8055   5.353   7.464   9.512  2.9885 -2.2966 -0.1930
  819MOL0     H 8056   5.496   7.496   9.419  1.5064  2.6408  1.4070
  819MOL0     H 8057   5.356   7.643   9.261 -1.0656 -0.8387 -0.6106
  819MOL0     H 8058   5.355   7.469   9.236 -1.0200 -2.6189  1.6769
  819MOL0     H 8059   5.126   7.643   9.363  1.8674  1.6494 -1.0078
  819MOL0     H 8060   5.127   7.459   9.351 -0.1691 -0.3397 -1.6482
  819MOL0     H 8061   4.997   7.716   9.135 -2.3682 -0.3851 -1.5343
  819MOL0     H 8062   4.939   7.610   8.795  0.9669 -1.9474  0.1452
  819MOL0     H 8063   4.841   7.669   8.923 -0.4141  1.6858 -2.7112
  819MOL0     H 8064   4.775   7.429   8.973  1.1003  1.5303  1.2094
  819MOL0     H 8065   4.821   7.393   8.803  0.6485 -1.4163  1.5698
  819MOL0     H 8066   4.634   7.615   8.900  0.0337  0.0261 -0.5050
  819MOL0     H 8067   4.683   7.587   8.731 -1.2905  1.3284  0.1579
  819MOL0     H 8068   4.515   7.396   8.892  1.7355 -1.0311 -0.6172
  819MOL0     H 8069   4.552   7.373   8.721  2.4335  1.4601 -0.2364
  819MOL0     H 8070   4.347   7.248   8.839 -0.5571  0.8766  1.5595
  819MOL0     H 8071   4.138   7.147   8.796 -1.8523 -0.7267  0.3907
  819MOL0     H 8072   3.642   7.471   8.595  1.3686  0.7059  0.4280
  819MOL0     H 8073   3.381   7.448   8.607 -1.8956 -0.0694  2.5519
  819MOL0     H 8074   3.209   7.277   8.945  0.6583  0.1162  0.3906
  819MOL0     H 8075   3.194   7.114   8.872 -3.0746 -0.6999 -0.7041
  819MOL0     H 8076   3.009   7.176   8.743 -1.8807 -0.8189  0.9505
  819MOL0     H 8077   3.007   7.349   8.806  1.2271 -0.0963  1.1872
  819MOL0     H 8078   2.969   7.249   9.048  0.0080 -0.2279 -0.0436
  819MOL0     H 8079   2.941   7.092   8.975 -2.9206 -0.1926 -1.0369
  819MOL0     H 8080   2.800   7.349   8.886  2.7901  0.7314  0.5939
  819MOL0     H 8081   2.755   7.180   8.843  0.0277 -0.4843  0.5080
  819MOL0     H 8082   2.705   7.334   9.095  3.2733 -0.6045  1.1898
  819MOL0     H 8083   2.719   7.146   9.092  0.0435 -1.6945 -2.3923
  819MOL0     H 8084   2.546   7.138   8.922 -0.0226 -0.0132  0.5522
  819MOL0     H 8085   2.537   7.322   8.926  2.5430  0.6824  0.3384
  819MOL0     H 8086   2.455   7.149   9.151  0.9565 -1.0946 -1.5763
  819MOL0     H 8087   2.458   7.325   9.150 -1.4101  0.1755  0.1942
  819MOL0     H 8088   2.277   7.294   8.956  0.2253 -0.9481 -0.9681
  819MOL0     H 8089   2.229   7.268   9.125 -0.4062  0.2490 -0.5867
  819MOL0     H 8090   3.430   7.133   8.890  1.9424 -0.3480  2.0612
  819MOL0     H 8091   3.678   7.146   8.854 -2.8360 -2.1491  1.7930
  819MOL0     H 8092   3.973   7.523   8.668  0.0319 -0.2548 -0.4757
  819MOL0     H 8093   4.191   7.625   8.685  2.1301 -0.4137 -0.0912
  819MOL0     H 8094   5.745   8.112  10.063  1.6841 -0.1565  1.7197
  819MOL0     H 8095   5.932   8.217  10.185 -0.8633 -2.2680  1.2700
  819MOL0     H 8096   6.414   8.561  10.023  2.4510 -1.3765 -1.9427
  819MOL0     H 8097   6.618   8.600  10.108 -0.7563  0.4545  0.5978
  819MOL0     H 8098   6.757   8.637  10.303 -0.1475  0.3090 -3.8089
  819MOL0     H 8099   6.871   8.555  10.206  1.7631  2.9550  0.0484
  819MOL0     H 8100   6.980   8.639  10.388  1.7052  0.3777  1.5180
  819MOL0     H 8101   6.860   8.566  10.516  1.0787 -0.0625  0.3492
  819MOL0     H 8102   7.023   8.394  10.319  1.2226  3.2243 -0.3999
  819MOL0     H 8103   6.940   8.344  10.466 -0.6573  0.4282  0.7027
  819MOL0     H 8104   7.206   8.488  10.459 -0.5025  1.7871  0.5143
  819MOL0     H 8105   7.105   8.491  10.594  0.3926  0.5353  0.4076
  819MOL0     H 8106   7.187   8.061  10.521 -1.4133  0.0865 -2.5127
  819MOL0     H 8107   6.578   8.247  10.369 -0.3654 -0.8914  0.4230
  819MOL0     H 8108   6.347   8.224  10.285 -0.4917  0.5983  1.8850
  820MOL0     O 8109   2.875   9.740  10.719 -0.4731  0.2314  0.0399
  820MOL0     C 8110   2.882   9.661  10.812  0.5348  0.9368  0.7613
  820MOL0     O 8111   2.792   9.654  10.908  0.5495  0.0956 -0.5802
  820MOL0     C 8112   2.662   9.694  10.887 -0.9494  0.2718 -0.3689
  820MOL0     C 8113   2.586   9.687  10.764  0.4876 -0.4858 -0.6542
  820MOL0     C 8114   2.442   9.720  10.765 -0.0426 -1.0481 -0.9250
  820MOL0     C 8115   2.385   9.764  10.883  0.5111 -1.0036  0.4052
  820MOL0     O 8116   2.250   9.778  10.900 -0.3474  0.3258 -0.3249
  820MOL0     C 8117   2.155   9.678  10.862 -0.0887 -0.0066  0.0996
  820MOL0     C 8118   2.017   9.732  10.918 -0.1913  0.4399 -0.2691
  820MOL0     C 8119   1.910   9.631  10.877  0.4685 -0.7960 -0.3451
  820MOL0     C 8120   1.788   9.653  10.976 -0.1457  1.1974  0.4146
  820MOL0     C 8121   1.690   9.537  10.977 -0.3341  0.2203 -0.4363
  820MOL0     C 8122   1.557   9.566  10.913 -0.3857  0.3403  0.7901
  820MOL0     C 8123   1.492   9.437  10.864 -1.1139  0.0743  0.0359
  820MOL0     C 8124   1.365   9.474  10.792 -0.1169 -0.2542 -0.3868
  820MOL0     N 8125   1.260   9.375  10.820  0.5334 -0.1497 -0.2983
  820MOL0     C 8126   1.141   9.400  10.896  0.6158 -0.4368 -0.4437
  820MOL0     C 8127   1.069   9.287  10.886 -0.3679 -0.6680  0.4352
  820MOL0     C 8128   0.931   9.256  10.945  0.2788 -0.4155 -0.1869
  820MOL0     C 8129   0.880   9.377  11.036 -0.4658  1.2360 -0.2530
  820MOL0     C 8130   0.750   9.343  11.112  0.3729 -0.3294 -0.2436
  820MOL0     C 8131   0.637   9.301  11.026  1.0270 -0.3991  0.0908
  820MOL0     O 8132   0.515   9.315  11.106 -0.4546  0.1797 -0.2401
  820MOL0     C 8133   0.388   9.301  11.063 -0.4319  0.7650 -0.3300
  820MOL0     C 8134   0.290   9.281  11.162  0.7970  0.3644  1.1155
  820MOL0     C 8135   0.155   9.274  11.111 -0.2807  0.9284  0.2004
  820MOL0     C 8136   0.126   9.258  10.974  0.0497 -0.2327  0.2555
  820MOL0     C 8137  -0.019   9.227  10.930  0.1696  0.1068  0.3821
  820MOL0     O 8138  -0.031   9.178  10.802 -0.5243  0.6153  0.1391
  820MOL0     C 8139  -0.152   9.171  10.750  0.8533  0.3363 -0.0896
  820MOL0     C 8140  -0.243   9.279  10.750  0.5949  0.0543  0.4026
  820MOL0     C 8141  -0.363   9.264  10.677  0.5655 -1.1941 -0.0665
  820MOL0     C 8142  -0.398   9.145  10.608 -0.1481 -0.2921 -0.5662
  820MOL0     O 8143  -0.505   9.149  10.524  0.5377  0.2731  0.4054
  820MOL0     C 8144  -0.472   9.097  10.394 -0.3083  0.0913  0.6568
  820MOL0     C 8145  -0.554   9.174  10.289 -0.3338  0.3409  0.6456
  820MOL0     C 8146  -0.515   9.136  10.147 -0.8108  0.6179 -0.2389
  820MOL0     C 8147  -0.597   9.213  10.051  0.3492  0.3776 -0.2116
  820MOL0     C 8148  -0.574   9.177   9.901 -1.1308  0.6793  0.1262
  820MOL0     C 8149  -0.644   9.274   9.803 -0.4938 -0.8210  0.5171
  820MOL0     C 8150  -0.587   9.252   9.657 -0.4906  0.2102 -0.2740
  820MOL0     C 8151  -0.446   9.317   9.638 -0.8296 -0.2812 -0.1823
  820MOL0    Cl 8152  -0.447   9.485   9.672 -0.3334 -0.3428  0.1506
  820MOL0     C 8153  -0.317   9.030  10.634 -0.4134 -0.2118  1.1711
  820MOL0     C 8154  -0.193   9.050  10.694 -0.6319 -0.1513 -0.6211
  820MOL0     O 8155  -0.114   9.247  11.005 -0.1651  1.0434  0.6279
  820MOL0     C 8156   0.227   9.280  10.884 -0.0749  0.5590  0.2347
  820MOL0     C 8157   0.359   9.304  10.930 -0.0566 -0.3796  0.2115
  820MOL0     N 8158   1.132   9.199  10.799 -0.0348  0.1451  0.2429
  820MOL0     N 8159   1.241   9.257  10.766  0.4566  0.4787  0.1912
  820MOL0     C 8160   2.462   9.771  10.993  0.0827 -0.3313  0.0169
  820MOL0     C 8161   2.600   9.734  11.000 -0.5548  0.2180  0.5437
  820MOL0     C 8162   3.007   9.593  10.854 -0.1555  0.2133  0.0925
  820MOL0     C 8163   3.095   9.544  10.754 -0.5155 -1.2172 -0.7670
  820MOL0     C 8164   3.216   9.482  10.797 -0.3209 -0.2048 -0.0596
  820MOL0     C 8165   3.244   9.470  10.936 -0.4713  0.9009  0.1522
  820MOL0     O 8166   3.360   9.427  10.991  0.4020 -0.2251  0.1000
  820MOL0     C 8167   3.479   9.434  10.913  0.4007 -1.2315  0.3186
  820MOL0     C 8168   3.591   9.383  10.993 -0.3784  0.1897 -0.4527
  820MOL0     C 8169   3.726   9.373  10.907  1.8554  0.6350 -0.3531
  820MOL0     C 8170   3.773   9.507  10.850 -0.4177  0.3447  0.2102
  820MOL0     C 8171   3.923   9.500  10.831  0.7496  0.5845 -0.9519
  820MOL0     C 8172   4.041   9.487  10.826 -0.2365 -0.5052  0.1632
  820MOL0     C 8173   3.146   9.495  11.029  1.3025  0.5246  0.0738
  820MOL0     C 8174   3.030   9.561  10.988 -0.2042 -0.4332 -1.1388
  820MOL0     H 8175   2.627   9.653  10.669 -0.4793  0.5700 -1.4793
  820MOL0     H 8176   2.390   9.725  10.670 -0.2928 -0.4713 -0.7593
  820MOL0     H 8177   2.169   9.581  10.911 -1.0079 -0.3022 -0.1893
  820MOL0     H 8178   2.158   9.659  10.754 -0.9931 -0.1463  0.0899
  820MOL0     H 8179   1.999   9.833  10.882 -1.3166 -0.0245 -1.0505
  820MOL0     H 8180   2.035   9.747  11.025 -1.4202  0.1580 -0.0052
  820MOL0     H 8181   1.958   9.535  10.897  0.7228 -0.7069 -0.5181
  820MOL0     H 8182   1.889   9.632  10.770  0.2460 -0.1208 -0.3022
  820MOL0     H 8183   1.824   9.670  11.078 -1.0945  0.6079  0.8570
  820MOL0     H 8184   1.740   9.745  10.940  3.7269  2.4611 -2.2431
  820MOL0     H 8185   1.682   9.490  11.076  0.4608  0.4928 -0.2431
  820MOL0     H 8186   1.726   9.450  10.921 -3.4569 -2.0498  0.7765
  820MOL0     H 8187   1.585   9.624  10.825 -3.0026  0.8406  0.1777
  820MOL0     H 8188   1.489   9.622  10.978 -3.2460 -1.0512 -0.7629
  820MOL0     H 8189   1.565   9.379  10.807 -0.1697  2.8738 -1.8420
  820MOL0     H 8190   1.460   9.377  10.950  0.1677 -1.5906 -0.6009
  820MOL0     H 8191   1.386   9.483  10.685 -1.1642 -2.9606 -0.9063
  820MOL0     H 8192   1.331   9.575  10.814 -2.3874 -0.9323 -0.5368
  820MOL0     H 8193   1.109   9.491  10.945 -3.4275 -1.0891 -1.4871
  820MOL0     H 8194   0.932   9.161  11.000 -0.7043  0.8158  2.1157
  820MOL0     H 8195   0.868   9.235  10.859  1.0206 -0.0760 -0.8256
  820MOL0     H 8196   0.870   9.472  10.983  2.7642  0.2710 -2.8972
  820MOL0     H 8197   0.963   9.395  11.105  2.8955  0.1664 -3.6721
  820MOL0     H 8198   0.770   9.259  11.178 -2.5012  0.4043  1.7737
  820MOL0     H 8199   0.710   9.423  11.175  0.9791 -1.7218  2.0125
  820MOL0     H 8200   0.644   9.197  10.993  0.8166 -0.4864  0.3165
  820MOL0     H 8201   0.636   9.365  10.937  2.3449 -0.9924 -0.3733
  820MOL0     H 8202   0.314   9.283  11.267  2.2649  1.3975  0.8053
  820MOL0     H 8203   0.067   9.276  11.175 -1.6515 -0.7182 -1.5269
  820MOL0     H 8204  -0.228   9.377  10.793  0.1698 -0.7936  2.6477
  820MOL0     H 8205  -0.429   9.349  10.664  2.7492  0.6564  0.2208
  820MOL0     H 8206  -0.491   8.991  10.380  2.3851 -0.6133  1.6050
  820MOL0     H 8207  -0.366   9.111  10.368 -0.8389  2.2484 -0.6005
  820MOL0     H 8208  -0.537   9.282  10.299  0.3385  0.4573 -1.3170
  820MOL0     H 8209  -0.659   9.145  10.299 -1.6022  2.8127 -3.1082
  820MOL0     H 8210  -0.552   9.034  10.131  1.2921 -0.2193 -0.0165
  820MOL0     H 8211  -0.408   9.142  10.126 -0.5845 -1.2729  0.1622
  820MOL0     H 8212  -0.703   9.194  10.070  0.0815  2.3807  0.5727
  820MOL0     H 8213  -0.586   9.320  10.068 -1.1113  1.1705 -3.3532
  820MOL0     H 8214  -0.615   9.076   9.896  0.4000  0.0812 -1.2772
  820MOL0     H 8215  -0.467   9.176   9.878 -1.4004  2.0534 -1.3344
  820MOL0     H 8216  -0.626   9.379   9.829 -3.1932 -0.3981  1.0635
  820MOL0     H 8217  -0.750   9.245   9.801  0.0587 -3.2894  2.1770
  820MOL0     H 8218  -0.586   9.143   9.648 -2.8699 -0.0865  1.7833
  820MOL0     H 8219  -0.660   9.295   9.588 -0.3623 -2.9694 -2.5902
  820MOL0     H 8220  -0.424   9.298   9.532  0.0958 -1.4059  0.1781
  820MOL0     H 8221  -0.361   9.269   9.688 -2.0397 -1.3105  0.9703
  820MOL0     H 8222  -0.343   8.935  10.589 -2.2007  0.6135  0.3644
  820MOL0     H 8223  -0.127   8.964  10.696 -2.3867 -1.6615 -2.3705
  820MOL0     H 8224   0.206   9.271  10.778 -0.5453 -0.2096  0.3828
  820MOL0     H 8225   0.443   9.316  10.863  0.8389 -1.3853  1.1018
  820MOL0     H 8226   2.416   9.808  11.084  1.2428  0.3058  0.3755
  820MOL0     H 8227   2.657   9.748  11.091 -1.8285  0.7263  1.2946
  820MOL0     H 8228   3.071   9.561  10.650  1.0739  2.1016 -0.7325
  820MOL0     H 8229   3.281   9.452  10.715  0.2564  3.3211 -1.0882
  820MOL0     H 8230   3.496   9.536  10.878  0.6505 -2.3100 -3.1038
  820MOL0     H 8231   3.460   9.383  10.818 -0.1067  1.3863 -1.0882
  820MOL0     H 8232   3.597   9.440  11.086 -1.0718 -2.1114  1.0893
  820MOL0     H 8233   3.567   9.285  11.034 -1.8616  0.3873 -0.8072
  820MOL0     H 8234   3.696   9.301  10.831 -0.3536  0.1440  0.9033
  820MOL0     H 8235   3.806   9.321  10.962 -0.2156  0.0204  2.2954
  820MOL0     H 8236   3.730   9.530  10.753  1.5731 -0.7035 -0.9954
  820MOL0     H 8237   3.742   9.584  10.921 -2.3816  1.4516 -1.7214
  820MOL0     H 8238   4.145   9.467  10.810 -0.3843 -0.3525 -1.0667
  820MOL0     H 8239   3.168   9.469  11.132 -1.1169  1.0128  0.7547
  820MOL0     H 8240   2.962   9.598  11.064 -1.6886 -1.7247 -1.7972
  821MOL0     O 8241   7.960   8.997   4.840  0.2677 -0.2891  0.1926
  821MOL0     C 8242   7.910   9.062   4.931 -0.5137 -0.5283  0.6933
  821MOL0     O 8243   7.778   9.054   4.977  0.4325  0.0221 -0.0963
  821MOL0     C 8244   7.691   8.947   4.931  0.3866 -0.0319 -0.8817
  821MOL0     C 8245   7.551   8.966   4.939  0.2102 -0.0155 -0.2693
  821MOL0     C 8246   7.457   8.873   4.892 -0.0157  0.0508 -0.6491
  821MOL0     C 8247   7.491   8.761   4.815  0.0170  0.1946  0.0512
  821MOL0     O 8248   7.397   8.702   4.741  0.2991 -0.5147  0.0260
  821MOL0     C 8249   7.432   8.630   4.626 -0.1514 -0.6258 -0.3586
  821MOL0     C 8250   7.310   8.608   4.535 -0.2338 -0.8923  0.0719
  821MOL0     C 8251   7.173   8.634   4.593  0.4667  0.1035 -0.8898
  821MOL0     C 8252   7.069   8.616   4.483  0.8630  0.3377  0.0716
  821MOL0     C 8253   6.913   8.657   4.517 -0.4765  0.1501  1.0111
  821MOL0     C 8254   6.820   8.605   4.405 -0.7623 -0.6484  0.6671
  821MOL0     C 8255   6.677   8.612   4.440  0.3648 -0.4781  0.8641
  821MOL0     C 8256   6.600   8.617   4.311  0.1160 -0.1786 -0.5827
  821MOL0     N 8257   6.463   8.649   4.344  0.7449  0.1700 -0.1150
  821MOL0     C 8258   6.411   8.774   4.325 -0.0021  0.1822  0.1784
  821MOL0     C 8259   6.283   8.759   4.361 -0.4681 -0.5311 -0.3807
  821MOL0     C 8260   6.173   8.872   4.361 -0.7199  0.1420 -1.0822
  821MOL0     C 8261   6.034   8.828   4.424 -0.3265 -0.3017  0.2744
  821MOL0     C 8262   5.915   8.933   4.420  0.3253  0.3984  0.5529
  821MOL0     C 8263   5.883   9.007   4.551  0.0151  0.2532 -0.2020
  821MOL0     O 8264   5.794   9.119   4.524  0.4388 -0.3706 -0.0846
  821MOL0     C 8265   5.668   9.094   4.565 -0.2331  0.4246 -0.2916
  821MOL0     C 8266   5.636   9.128   4.696  1.3526 -0.6578 -0.0678
  821MOL0     C 8267   5.504   9.117   4.736 -0.5188  0.0877 -0.6080
  821MOL0     C 8268   5.404   9.076   4.648 -0.0270  0.5962 -0.4864
  821MOL0     C 8269   5.266   9.062   4.698 -0.8489 -0.5870  0.6383
  821MOL0     O 8270   5.241   9.086   4.829  0.1241  0.9702  0.1303
  821MOL0     C 8271   5.106   9.087   4.861 -0.3480  0.1581 -0.1569
  821MOL0     C 8272   5.063   9.004   4.959 -1.1308 -0.4670  0.2845
  821MOL0     C 8273   4.932   9.005   5.005  0.2041  0.5637  0.6272
  821MOL0     C 8274   4.842   9.085   4.948 -0.3240  0.4861 -0.1987
  821MOL0     O 8275   4.710   9.073   4.983 -0.0881  0.4871 -0.6056
  821MOL0     C 8276   4.608   9.116   4.895  0.0777  0.0743  0.7204
  821MOL0     C 8277   4.581   9.270   4.922 -0.3466  0.0616  0.4877
  821MOL0     C 8278   4.528   9.286   5.062  0.0918 -0.4880 -0.4399
  821MOL0     C 8279   4.522   9.434   5.093 -0.0691  0.0804 -0.7002
  821MOL0     C 8280   4.431   9.468   5.214 -0.0640  0.1262  0.1635
  821MOL0     C 8281   4.283   9.488   5.163 -0.3241 -0.2169 -0.3439
  821MOL0     C 8282   4.199   9.524   5.284  0.3062  0.3005  0.4129
  821MOL0     C 8283   4.144   9.412   5.362 -0.2685  0.4073  0.1486
  821MOL0    Cl 8284   4.023   9.317   5.270 -0.0892  0.2339  0.2649
  821MOL0     C 8285   4.881   9.168   4.844 -0.8353 -0.2624 -0.1717
  821MOL0     C 8286   5.015   9.172   4.807  0.3641  0.3803  0.6128
  821MOL0     O 8287   5.186   9.041   4.609  0.2255  0.6111 -0.0740
  821MOL0     C 8288   5.440   9.035   4.521 -1.0965  0.1726 -0.1215
  821MOL0     C 8289   5.573   9.048   4.474 -0.1870  0.2213  0.3816
  821MOL0     N 8290   6.256   8.627   4.389 -0.5686 -0.2553 -0.2157
  821MOL0     N 8291   6.361   8.560   4.382 -0.3000 -0.0430 -0.4954
  821MOL0     C 8292   7.627   8.735   4.800 -0.0291 -0.2916 -0.5817
  821MOL0     C 8293   7.724   8.821   4.867  0.0839 -0.0156  0.0948
  821MOL0     C 8294   7.971   9.184   4.982 -0.2366  0.5973 -0.4803
  821MOL0     C 8295   7.908   9.264   5.070 -0.4420  0.1793 -0.1293
  821MOL0     C 8296   7.960   9.390   5.114 -0.3708  0.2894  0.8048
  821MOL0     C 8297   8.082   9.429   5.069 -0.3279 -0.5922  0.2521
  821MOL0     O 8298   8.138   9.548   5.120 -0.3399 -0.1333  0.9123
  821MOL0     C 8299   8.267   9.518   5.178 -0.3173 -0.4530  0.5924
  821MOL0     C 8300   8.329   9.639   5.230 -0.2003 -0.4152  0.4475
  821MOL0     C 8301   8.477   9.610   5.280  0.1127 -0.2326  0.0092
  821MOL0     C 8302   8.579   9.617   5.164  0.4109 -0.2265 -0.8182
  821MOL0     C 8303   8.570   9.731   5.077  0.2274 -0.0130 -0.0006
  821MOL0     C 8304   8.564   9.830   5.014  0.6399 -0.4765 -0.1536
  821MOL0     C 8305   8.148   9.351   4.974 -0.1852 -0.6941  0.6004
  821MOL0     C 8306   8.092   9.233   4.929  0.2256 -0.1369  0.1917
  821MOL0     H 8307   7.512   9.050   4.996 -1.4474  0.2630 -1.7040
  821MOL0     H 8308   7.351   8.894   4.898 -0.1449  1.2679 -4.7619
  821MOL0     H 8309   7.476   8.532   4.646 -1.1428 -0.4111  3.7334
  821MOL0     H 8310   7.503   8.691   4.570  0.8209  0.0070  1.4953
  821MOL0     H 8311   7.309   8.512   4.483 -0.0775 -0.5200 -0.6311
  821MOL0     H 8312   7.322   8.679   4.452 -1.4900  0.0248  0.6531
  821MOL0     H 8313   7.176   8.738   4.626  1.1376 -0.3636  0.6148
  821MOL0     H 8314   7.154   8.561   4.673 -0.1781  1.4943  0.2749
  821MOL0     H 8315   7.103   8.665   4.392  0.5536 -1.1415 -0.8678
  821MOL0     H 8316   7.076   8.511   4.453 -1.7791  0.8381 -2.7548
  821MOL0     H 8317   6.903   8.766   4.520  2.0085  0.4500  1.1140
  821MOL0     H 8318   6.876   8.614   4.611 -0.2583 -0.0079  1.0261
  821MOL0     H 8319   6.832   8.503   4.368  1.2500 -0.8311  1.6520
  821MOL0     H 8320   6.839   8.679   4.327 -1.0470 -0.3523  0.8765
  821MOL0     H 8321   6.646   8.532   4.509  1.2366 -2.8627 -1.3351
  821MOL0     H 8322   6.660   8.711   4.483 -0.5205  0.8544 -2.2966
  821MOL0     H 8323   6.592   8.519   4.262  0.7010 -0.8157  0.5358
  821MOL0     H 8324   6.640   8.691   4.242  3.1242 -0.7474  0.3910
  821MOL0     H 8325   6.454   8.871   4.300 -1.7062  1.4748  1.9371
  821MOL0     H 8326   6.149   8.888   4.255 -1.3504 -3.8836 -1.7164
  821MOL0     H 8327   6.201   8.971   4.396 -1.7880 -0.2294  0.9684
  821MOL0     H 8328   6.056   8.804   4.529  0.3071 -0.8233  0.0326
  821MOL0     H 8329   5.999   8.736   4.376  0.2929 -0.0565 -0.6708
  821MOL0     H 8330   5.924   9.003   4.337 -1.1335 -0.9839 -0.8298
  821MOL0     H 8331   5.832   8.870   4.387  0.4061  0.8556 -0.5615
  821MOL0     H 8332   5.964   9.047   4.612 -1.1140 -0.7713  2.1242
  821MOL0     H 8333   5.828   8.939   4.617  1.1854 -0.3646  0.1602
  821MOL0     H 8334   5.707   9.180   4.760  0.7609  0.1765 -0.0770
  821MOL0     H 8335   5.489   9.148   4.839  1.3632 -0.4722 -0.1258
  821MOL0     H 8336   5.135   8.940   5.009  2.8429  1.3606 -2.5254
  821MOL0     H 8337   4.898   8.944   5.088 -1.7484  0.4024 -0.2570
  821MOL0     H 8338   4.520   9.053   4.910  0.1418  0.6535  4.5883
  821MOL0     H 8339   4.631   9.112   4.788  0.3574  3.8888  0.5189
  821MOL0     H 8340   4.502   9.309   4.856  2.1233 -0.8684 -3.3692
  821MOL0     H 8341   4.670   9.332   4.907 -0.0603 -0.4878 -0.1568
  821MOL0     H 8342   4.591   9.238   5.137 -1.1859 -1.9424 -0.2504
  821MOL0     H 8343   4.425   9.249   5.065 -0.5143  1.1176 -0.2999
  821MOL0     H 8344   4.619   9.480   5.114  0.3497 -0.3389 -1.6679
  821MOL0     H 8345   4.483   9.486   5.005  1.6848 -1.8706 -2.7448
  821MOL0     H 8346   4.450   9.567   5.256 -3.0939  0.9748 -0.1512
  821MOL0     H 8347   4.435   9.377   5.274  1.3593 -0.5253 -0.8739
  821MOL0     H 8348   4.232   9.403   5.116 -1.1089 -0.2657  0.5637
  821MOL0     H 8349   4.283   9.565   5.085  0.7856 -0.7514 -0.8867
  821MOL0     H 8350   4.259   9.588   5.350  2.1381  1.2283 -1.9818
  821MOL0     H 8351   4.113   9.586   5.256  0.2003  0.8078  1.7955
  821MOL0     H 8352   4.085   9.445   5.448 -0.1296 -0.1579  0.4672
  821MOL0     H 8353   4.223   9.345   5.399 -0.4650  0.7313  1.1913
  821MOL0     H 8354   4.812   9.229   4.787  1.5719  1.6720 -1.2028
  821MOL0     H 8355   5.033   9.225   4.713 -1.5593 -0.1680 -0.1089
  821MOL0     H 8356   5.378   8.986   4.447  2.3891 -3.4084 -1.0433
  821MOL0     H 8357   5.600   9.016   4.374  2.2532 -1.0081  1.3634
  821MOL0     H 8358   7.664   8.654   4.738  0.4433 -1.4415  1.1208
  821MOL0     H 8359   7.830   8.796   4.867  0.3168  0.9283  0.4758
  821MOL0     H 8360   7.814   9.235   5.116  0.6587 -0.7328  1.6547
  821MOL0     H 8361   7.924   9.454   5.194 -0.9552  0.5260  0.3617
  821MOL0     H 8362   8.333   9.458   5.114 -0.1477  0.3376  0.0167
  821MOL0     H 8363   8.239   9.451   5.260 -0.2999 -0.2219  0.7866
  821MOL0     H 8364   8.329   9.720   5.156 -0.2281  0.7988  1.7285
  821MOL0     H 8365   8.271   9.676   5.316  0.1447  2.3677 -0.4177
  821MOL0     H 8366   8.478   9.508   5.321 -4.0742  0.7383  3.2732
  821MOL0     H 8367   8.507   9.674   5.364  2.4066 -1.3761  0.1410
  821MOL0     H 8368   8.681   9.621   5.205  1.4038  1.2140 -3.2019
  821MOL0     H 8369   8.572   9.528   5.101  3.7740 -1.7074  0.6189
  821MOL0     H 8370   8.553   9.927   4.971  1.1828  0.1895  1.1438
  821MOL0     H 8371   8.246   9.388   4.946 -1.1874  2.4431  0.8440
  821MOL0     H 8372   8.139   9.170   4.854 -0.1852 -0.5057  0.2380
  822MOL0     O 8373   3.235   4.423   5.967  0.0057 -0.2022  0.1075
  822MOL0     C 8374   3.292   4.318   5.952  0.2301  0.6406  0.6174
  822MOL0     O 8375   3.234   4.197   5.973 -0.2663  0.5806 -0.5762
  822MOL0     C 8376   3.117   4.199   6.047 -1.3204 -0.2272 -0.3177
  822MOL0     C 8377   3.000   4.162   5.987 -0.3056 -0.0465  0.3378
  822MOL0     C 8378   2.874   4.183   6.046 -0.4892 -0.0774 -0.1004
  822MOL0     C 8379   2.870   4.243   6.178 -0.5306 -0.7230  0.7429
  822MOL0     O 8380   2.761   4.272   6.254  0.0193 -0.3974 -0.0218
  822MOL0     C 8381   2.636   4.224   6.204  0.0564  0.7797 -0.3943
  822MOL0     C 8382   2.518   4.260   6.302  0.5174  0.0876 -0.5588
  822MOL0     C 8383   2.532   4.176   6.429  0.2242 -0.5234 -1.0518
  822MOL0     C 8384   2.403   4.201   6.521  0.4425  0.4628  0.5965
  822MOL0     C 8385   2.283   4.100   6.464 -0.5029  0.1962  0.9749
  822MOL0     C 8386   2.158   4.134   6.537 -0.1639  0.2182  0.2466
  822MOL0     C 8387   2.038   4.085   6.449 -1.3250 -0.0491  0.5796
  822MOL0     C 8388   1.903   4.112   6.523  0.1477 -0.5615  0.5474
  822MOL0     N 8389   1.790   4.069   6.434  0.4728  0.4902 -1.1666
  822MOL0     C 8390   1.679   4.150   6.404  0.1168  0.5462  0.4637
  822MOL0     C 8391   1.599   4.062   6.336  0.7065  0.7988  0.4754
  822MOL0     C 8392   1.464   4.106   6.291 -0.9606  0.8820  1.2505
  822MOL0     C 8393   1.355   4.093   6.405 -0.6186 -0.3030 -0.3487
  822MOL0     C 8394   1.359   3.964   6.500  0.4321 -0.9082 -0.2605
  822MOL0     C 8395   1.237   3.962   6.597  0.1429 -0.6475 -0.3784
  822MOL0     O 8396   1.228   4.077   6.683 -0.4941  0.5478 -0.0949
  822MOL0     C 8397   1.113   4.124   6.730  0.3523  0.6623 -0.8321
  822MOL0     C 8398   1.117   4.258   6.732 -0.4427 -0.0362 -0.3071
  822MOL0     C 8399   1.000   4.330   6.773  0.2385 -1.1144  0.1304
  822MOL0     C 8400   0.883   4.264   6.794  1.4031  0.1843  0.2805
  822MOL0     C 8401   0.745   4.324   6.812 -0.4187 -0.7140 -0.1288
  822MOL0     O 8402   0.634   4.241   6.831 -0.3668 -0.2852  0.0290
  822MOL0     C 8403   0.510   4.300   6.844  0.0016 -0.0123 -0.2933
  822MOL0     C 8404   0.452   4.357   6.731  0.5847  0.9088 -0.1899
  822MOL0     C 8405   0.334   4.434   6.743 -0.2012 -0.1926 -0.0566
  822MOL0     C 8406   0.257   4.428   6.860  0.0382 -0.1224  0.5367
  822MOL0     O 8407   0.133   4.478   6.878  0.3427  0.2184  0.8041
  822MOL0     C 8408   0.051   4.500   6.763 -0.1140  0.1214  0.0726
  822MOL0     C 8409  -0.084   4.566   6.784  0.2534 -0.5249  0.3067
  822MOL0     C 8410  -0.189   4.518   6.680  1.0557 -0.1638  0.3483
  822MOL0     C 8411  -0.153   4.545   6.533  0.0647 -1.0839 -0.7070
  822MOL0     C 8412  -0.278   4.524   6.438 -0.0776 -0.6560 -0.2803
  822MOL0     C 8413  -0.367   4.399   6.465 -0.3526  0.0958  0.9579
  822MOL0     C 8414  -0.463   4.369   6.348 -0.0969 -0.6908  0.6473
  822MOL0     C 8415  -0.606   4.433   6.369 -0.2959  0.1925  0.8654
  822MOL0    Cl 8416  -0.642   4.510   6.221 -0.4942  0.2639 -0.6042
  822MOL0     C 8417   0.313   4.360   6.968  0.0317 -0.1577 -0.4385
  822MOL0     C 8418   0.435   4.295   6.966 -0.0531 -0.8199  0.7716
  822MOL0     O 8419   0.747   4.448   6.813  0.1826 -0.3020 -0.1162
  822MOL0     C 8420   0.883   4.123   6.771  0.6018  0.5981 -0.3102
  822MOL0     C 8421   0.996   4.051   6.750 -0.3804 -0.0187 -0.3965
  822MOL0     N 8422   1.655   3.937   6.328 -0.1418  0.2353 -0.2211
  822MOL0     N 8423   1.759   3.943   6.400 -0.6953  0.4056  0.2419
  822MOL0     C 8424   2.995   4.274   6.238  0.5385  0.1819 -0.0269
  822MOL0     C 8425   3.118   4.249   6.176 -0.2572  0.3492 -0.1868
  822MOL0     C 8426   3.430   4.330   5.904 -0.5261 -0.6765 -0.6807
  822MOL0     C 8427   3.497   4.452   5.890  0.4679  0.5143  0.8659
  822MOL0     C 8428   3.624   4.456   5.836 -0.2909 -0.0699 -0.0310
  822MOL0     C 8429   3.697   4.343   5.796 -0.0684 -0.6676 -0.4474
  822MOL0     O 8430   3.823   4.366   5.749 -0.4674  0.3828  0.0892
  822MOL0     C 8431   3.915   4.256   5.738  0.0414 -0.3020 -0.6265
  822MOL0     C 8432   4.043   4.311   5.674 -0.0063 -0.0831 -0.8000
  822MOL0     C 8433   4.084   4.451   5.704  0.1673  0.5351 -0.1662
  822MOL0     C 8434   4.148   4.493   5.830  0.0304  0.6805  0.7009
  822MOL0     C 8435   4.238   4.606   5.799 -0.0173 -0.0109  0.9694
  822MOL0     C 8436   4.298   4.711   5.768 -0.3161 -0.2934 -0.5768
  822MOL0     C 8437   3.631   4.216   5.814 -0.0232 -1.3560  0.3636
  822MOL0     C 8438   3.506   4.213   5.870 -0.4260  0.4595 -0.5437
  822MOL0     H 8439   3.004   4.123   5.886  1.6827 -0.2277  0.4483
  822MOL0     H 8440   2.787   4.157   5.985 -0.0317  0.0117 -0.8065
  822MOL0     H 8441   2.626   4.117   6.184 -0.6567  0.8841 -0.6366
  822MOL0     H 8442   2.613   4.279   6.112 -1.8045  3.6215  1.6195
  822MOL0     H 8443   2.422   4.243   6.251 -0.2119  3.3667 -0.5373
  822MOL0     H 8444   2.520   4.366   6.331  0.4577  0.2294 -1.0524
  822MOL0     H 8445   2.619   4.200   6.491 -1.0203 -2.2647  1.5665
  822MOL0     H 8446   2.539   4.068   6.410 -3.3603 -1.4615  1.8857
  822MOL0     H 8447   2.419   4.171   6.625  1.8535  0.6445  0.4499
  822MOL0     H 8448   2.374   4.306   6.520 -1.4765 -0.0263 -0.9397
  822MOL0     H 8449   2.318   3.997   6.475 -1.5775 -0.3937 -0.7628
  822MOL0     H 8450   2.260   4.113   6.358 -0.5922 -0.3858  0.9221
  822MOL0     H 8451   2.145   4.242   6.548  1.6531  0.5516 -0.5347
  822MOL0     H 8452   2.168   4.079   6.631 -1.0941 -2.0335 -0.9064
  822MOL0     H 8453   2.046   4.142   6.356  1.4139  2.8724  2.3867
  822MOL0     H 8454   2.058   3.980   6.427 -1.4149 -0.6249  2.9908
  822MOL0     H 8455   1.895   4.220   6.537 -3.5755 -0.5221 -0.7011
  822MOL0     H 8456   1.902   4.074   6.625  0.7335  2.4324  1.7476
  822MOL0     H 8457   1.672   4.257   6.421 -0.4779  0.5944 -0.0594
  822MOL0     H 8458   1.435   4.047   6.203 -0.4408 -0.8114  2.1781
  822MOL0     H 8459   1.463   4.211   6.260 -2.0646  0.2241 -1.2123
  822MOL0     H 8460   1.255   4.094   6.361 -0.7032 -0.8743 -0.1825
  822MOL0     H 8461   1.346   4.179   6.472 -1.6632 -1.0079  0.4438
  822MOL0     H 8462   1.342   3.879   6.434 -3.1523 -0.8761  0.4145
  822MOL0     H 8463   1.452   3.941   6.553  0.0405 -2.1375 -0.0727
  822MOL0     H 8464   1.254   3.873   6.657  1.7374 -0.1595 -0.0734
  822MOL0     H 8465   1.150   3.946   6.532  0.2451  2.9852 -1.6394
  822MOL0     H 8466   1.204   4.310   6.693  1.1696 -1.1251  1.6602
  822MOL0     H 8467   1.004   4.437   6.789  2.2321 -0.0143 -5.3210
  822MOL0     H 8468   0.495   4.335   6.634 -1.0426 -2.7382 -0.2446
  822MOL0     H 8469   0.296   4.483   6.654 -1.7426 -0.7812  0.2597
  822MOL0     H 8470   0.029   4.402   6.721 -1.6813  0.7160 -0.5766
  822MOL0     H 8471   0.108   4.556   6.689 -0.1842 -0.6207 -0.5511
  822MOL0     H 8472  -0.067   4.673   6.769  2.4538 -0.8126  0.4299
  822MOL0     H 8473  -0.119   4.544   6.885 -1.6954  0.3058 -0.1248
  822MOL0     H 8474  -0.282   4.572   6.701 -1.3338 -1.8742 -4.3735
  822MOL0     H 8475  -0.208   4.411   6.691  0.8233 -0.1038  0.5354
  822MOL0     H 8476  -0.121   4.649   6.527  1.0077 -1.3738 -0.9374
  822MOL0     H 8477  -0.071   4.479   6.504  0.3981 -0.0583 -2.1850
  822MOL0     H 8478  -0.239   4.528   6.336  1.6044  0.6372  0.3830
  822MOL0     H 8479  -0.349   4.607   6.444 -0.3486 -0.9437  0.7855
  822MOL0     H 8480  -0.426   4.406   6.557 -3.7327 -1.8604 -0.8449
  822MOL0     H 8481  -0.304   4.309   6.467 -0.0718 -0.1206 -4.1764
  822MOL0     H 8482  -0.416   4.417   6.261  0.4339  1.2191  1.9394
  822MOL0     H 8483  -0.468   4.260   6.333  0.9891 -0.8313  1.2076
  822MOL0     H 8484  -0.604   4.515   6.441  1.9945  3.8374 -2.8601
  822MOL0     H 8485  -0.679   4.353   6.379 -0.1828 -0.4202 -2.1283
  822MOL0     H 8486   0.263   4.349   7.064 -0.5264 -1.2686 -0.8472
  822MOL0     H 8487   0.477   4.242   7.051 -0.5906  0.8196  2.1282
  822MOL0     H 8488   0.789   4.070   6.780  1.3046 -0.7259 -0.5787
  822MOL0     H 8489   1.007   3.943   6.737  0.3563  0.0495 -0.4105
  822MOL0     H 8490   2.983   4.316   6.337 -0.1698  0.5233 -0.2478
  822MOL0     H 8491   3.212   4.288   6.214  0.2907 -0.3326 -0.8055
  822MOL0     H 8492   3.448   4.545   5.914  0.3876  0.8180 -0.4322
  822MOL0     H 8493   3.671   4.554   5.828 -1.8131  0.5643 -1.9170
  822MOL0     H 8494   3.861   4.180   5.681  1.2932 -0.4389 -1.6714
  822MOL0     H 8495   3.938   4.213   5.836  0.1163 -2.5064 -1.5708
  822MOL0     H 8496   4.127   4.247   5.706  1.3471  1.6873 -0.6408
  822MOL0     H 8497   4.029   4.303   5.566 -0.4598 -4.2965 -0.5942
  822MOL0     H 8498   3.994   4.512   5.689 -0.6087 -1.2067 -3.5700
  822MOL0     H 8499   4.148   4.485   5.621  1.9478 -0.9338  0.5442
  822MOL0     H 8500   4.073   4.525   5.903  0.8975  0.2495  1.8134
  822MOL0     H 8501   4.195   4.405   5.873  3.6489  0.5503 -2.9545
  822MOL0     H 8502   4.367   4.791   5.756 -0.4955  0.5091  2.7549
  822MOL0     H 8503   3.679   4.123   5.788 -1.1089 -1.8368  0.0420
  822MOL0     H 8504   3.459   4.115   5.870  2.3054 -0.9669 -2.2317
  823MOL0     O 8505   9.270   1.486   3.670  0.5353  0.0399 -0.0952
  823MOL0     C 8506   9.250   1.424   3.571  0.0387 -0.5749  0.8324
  823MOL0     O 8507   9.131   1.390   3.527  0.4662  0.3377  0.0968
  823MOL0     C 8508   9.022   1.415   3.603  0.4578 -0.1663  0.3307
  823MOL0     C 8509   9.010   1.351   3.729 -0.2178  0.5046 -0.6973
  823MOL0     C 8510   8.910   1.390   3.816  0.3869  0.3570 -0.6895
  823MOL0     C 8511   8.812   1.487   3.781 -0.9554  1.0136  0.1292
  823MOL0     O 8512   8.727   1.525   3.882 -0.5953  0.5759  0.1174
  823MOL0     C 8513   8.628   1.628   3.853 -0.0996 -0.4553  0.4581
  823MOL0     C 8514   8.519   1.592   3.954  0.2191 -0.0801 -0.8214
  823MOL0     C 8515   8.376   1.613   3.900 -0.0158 -0.0081 -0.5654
  823MOL0     C 8516   8.349   1.753   3.850 -0.1565 -0.1593 -0.2637
  823MOL0     C 8517   8.213   1.771   3.796  0.0495  0.3560  0.2022
  823MOL0     C 8518   8.177   1.677   3.677 -0.5403  0.3324 -0.0783
  823MOL0     C 8519   8.030   1.679   3.647 -0.0604  0.2119 -0.5480
  823MOL0     C 8520   8.005   1.619   3.508 -0.2303  0.3640 -0.6317
  823MOL0     N 8521   8.054   1.695   3.387 -0.3440  0.9246 -0.1413
  823MOL0     C 8522   7.979   1.795   3.334 -0.1104  0.1042  0.0242
  823MOL0     C 8523   8.025   1.804   3.207  0.0097  0.0972 -0.2033
  823MOL0     C 8524   7.987   1.889   3.088  0.0449  0.6076 -0.3703
  823MOL0     C 8525   7.826   1.894   3.075 -0.1711  0.4410 -0.4853
  823MOL0     C 8526   7.786   1.961   2.949  1.0019  0.3921 -0.1561
  823MOL0     C 8527   7.635   1.977   2.937  0.1908 -0.8545  0.2468
  823MOL0     O 8528   7.568   1.842   2.926 -0.2434 -0.6753  0.1212
  823MOL0     C 8529   7.431   1.837   2.927 -0.1368 -0.6544  0.5911
  823MOL0     C 8530   7.378   1.715   2.971 -0.0805  0.0694 -0.2112
  823MOL0     C 8531   7.238   1.696   2.975 -0.0263 -0.2397 -0.4211
  823MOL0     C 8532   7.155   1.803   2.946  0.9164  0.6513 -0.5441
  823MOL0     C 8533   7.007   1.797   2.935 -0.7790  0.8096  0.1168
  823MOL0     O 8534   6.946   1.905   2.873  0.1716 -0.9525 -0.4390
  823MOL0     C 8535   6.809   1.909   2.867 -0.0432 -0.3092 -0.5704
  823MOL0     C 8536   6.748   2.036   2.880  1.1217 -0.3590 -0.2546
  823MOL0     C 8537   6.604   2.045   2.861 -0.1899 -0.1132 -0.6214
  823MOL0     C 8538   6.533   1.929   2.819 -0.0713  0.1465 -0.7682
  823MOL0     O 8539   6.404   1.956   2.806  0.1294  0.0144  0.2358
  823MOL0     C 8540   6.312   1.842   2.792  0.5414 -0.5643  0.1324
  823MOL0     C 8541   6.171   1.895   2.767  0.3246 -0.0003 -0.3210
  823MOL0     C 8542   6.057   1.776   2.751  0.4681 -0.3097  1.3425
  823MOL0     C 8543   5.923   1.850   2.708 -0.4320 -0.3778  0.8255
  823MOL0     C 8544   5.824   1.751   2.654  0.1893 -0.3815  0.0075
  823MOL0     C 8545   5.682   1.810   2.664  0.5578  0.8291 -0.2216
  823MOL0     C 8546   5.580   1.713   2.599  1.0148 -0.5192  0.1504
  823MOL0     C 8547   5.453   1.791   2.551 -0.1120  0.3948  0.7375
  823MOL0    Cl 8548   5.339   1.659   2.524  0.3185  0.3377 -0.5153
  823MOL0     C 8549   6.593   1.805   2.809  0.6581 -0.1138  0.7594
  823MOL0     C 8550   6.727   1.801   2.833  0.1798 -0.1670 -0.6186
  823MOL0     O 8551   6.950   1.708   3.002 -0.4173 -0.3344  0.2692
  823MOL0     C 8552   7.210   1.927   2.910 -0.3935 -0.4495 -0.0376
  823MOL0     C 8553   7.347   1.943   2.901  0.1595 -0.2008 -0.1100
  823MOL0     N 8554   8.127   1.710   3.194  0.1397 -0.5091 -0.4480
  823MOL0     N 8555   8.143   1.643   3.298 -0.3878 -0.8164  0.3534
  823MOL0     C 8556   8.828   1.553   3.649 -0.0040  0.1345 -0.8944
  823MOL0     C 8557   8.934   1.517   3.556 -1.2806 -0.0562 -0.8041
  823MOL0     C 8558   9.359   1.410   3.469 -0.5183  0.3521 -0.0925
  823MOL0     C 8559   9.345   1.345   3.345 -0.3105  0.8320  0.0935
  823MOL0     C 8560   9.452   1.337   3.257 -0.1313  0.3634 -0.3023
  823MOL0     C 8561   9.575   1.385   3.286 -0.0541 -0.1271  1.2359
  823MOL0     O 8562   9.677   1.354   3.197 -0.3507 -0.7246 -0.1935
  823MOL0     C 8563   9.815   1.399   3.213  1.2471  0.2652 -0.9200
  823MOL0     C 8564   9.881   1.424   3.077  0.3912  0.8279 -0.3628
  823MOL0     C 8565   9.892   1.302   2.992 -0.3078  0.4771  0.8640
  823MOL0     C 8566   9.910   1.334   2.839  0.4809  0.2144 -0.0398
  823MOL0     C 8567   9.860   1.215   2.763  0.0686 -0.4487  0.2197
  823MOL0     C 8568   9.823   1.105   2.729  0.1017 -0.5247 -0.2300
  823MOL0     C 8569   9.592   1.440   3.413 -0.2524 -0.0865 -0.0395
  823MOL0     C 8570   9.486   1.458   3.496 -1.5392  0.4881 -0.3044
  823MOL0     H 8571   9.070   1.264   3.752  0.1242  0.6429 -1.0594
  823MOL0     H 8572   8.905   1.338   3.911 -0.5513 -0.6688 -1.2791
  823MOL0     H 8573   8.583   1.623   3.753 -1.4706  2.6613  0.8013
  823MOL0     H 8574   8.666   1.730   3.863 -4.0441  1.7869 -3.6104
  823MOL0     H 8575   8.536   1.645   4.049  2.3484  1.4135 -1.9517
  823MOL0     H 8576   8.539   1.489   3.982  3.7850  1.0863  1.6748
  823MOL0     H 8577   8.299   1.602   3.977 -0.3078  1.2472 -0.6428
  823MOL0     H 8578   8.363   1.537   3.823  1.1051  0.4350 -1.2159
  823MOL0     H 8579   8.378   1.818   3.933  1.3839 -0.6741 -0.3537
  823MOL0     H 8580   8.412   1.765   3.761  2.0276 -0.6192  1.1239
  823MOL0     H 8581   8.203   1.876   3.767 -1.5108  0.3425  0.6218
  823MOL0     H 8582   8.132   1.759   3.868 -1.4904  1.4852 -1.2791
  823MOL0     H 8583   8.203   1.572   3.698 -1.1057  0.0919 -0.5458
  823MOL0     H 8584   8.237   1.713   3.592 -0.9569 -1.1751 -1.0585
  823MOL0     H 8585   7.983   1.607   3.715 -0.1584  2.7046  2.2110
  823MOL0     H 8586   7.988   1.780   3.654 -3.0703 -0.8254 -1.7465
  823MOL0     H 8587   7.897   1.605   3.511 -0.2674  0.7358 -0.0342
  823MOL0     H 8588   8.040   1.516   3.503  0.5358  0.4666  1.5508
  823MOL0     H 8589   7.909   1.855   3.392  1.1057 -0.2439  1.9638
  823MOL0     H 8590   8.040   1.846   3.003  0.3212 -2.6526  1.2967
  823MOL0     H 8591   8.013   1.994   3.101 -0.3584  1.2028 -3.5119
  823MOL0     H 8592   7.803   1.960   3.160  3.6141  0.2918  0.8269
  823MOL0     H 8593   7.770   1.801   3.089 -3.0195  2.2114  1.2067
  823MOL0     H 8594   7.833   2.060   2.949  0.8763  0.4586  0.7258
  823MOL0     H 8595   7.832   1.906   2.867 -0.9086  0.0737 -1.0626
  823MOL0     H 8596   7.607   2.049   2.860  0.2489  1.4490  2.2769
  823MOL0     H 8597   7.603   2.027   3.029  0.6553 -2.1532  1.1338
  823MOL0     H 8598   7.447   1.633   2.987  2.8030  1.8051 -2.6319
  823MOL0     H 8599   7.205   1.595   2.996  0.9302 -0.5108 -0.2234
  823MOL0     H 8600   6.816   2.118   2.903 -0.9463  1.4073 -0.0782
  823MOL0     H 8601   6.551   2.132   2.898  0.7235 -0.0634  0.6425
  823MOL0     H 8602   6.308   1.786   2.886 -0.8756  1.0816  1.1104
  823MOL0     H 8603   6.336   1.778   2.707 -0.3115  0.9641 -1.3267
  823MOL0     H 8604   6.175   1.959   2.679 -0.5501 -1.3671 -1.4065
  823MOL0     H 8605   6.143   1.960   2.851 -0.1529  2.1984 -2.0962
  823MOL0     H 8606   6.051   1.718   2.843  0.4361 -1.0485  0.8846
  823MOL0     H 8607   6.094   1.712   2.670 -1.5083  1.4935 -1.1421
  823MOL0     H 8608   5.884   1.918   2.784  0.4585  2.1459 -0.8519
  823MOL0     H 8609   5.950   1.921   2.629 -0.5586 -1.7889 -0.5277
  823MOL0     H 8610   5.834   1.653   2.703  2.2750 -0.5936 -0.7792
  823MOL0     H 8611   5.842   1.733   2.548 -2.1612  0.1180 -0.5379
  823MOL0     H 8612   5.688   1.903   2.606  3.4316 -1.9186 -4.9952
  823MOL0     H 8613   5.654   1.843   2.765  0.2183 -2.3553  0.8426
  823MOL0     H 8614   5.616   1.660   2.511 -0.4411  1.5847 -1.8216
  823MOL0     H 8615   5.550   1.644   2.679  0.8799 -0.8173 -0.1585
  823MOL0     H 8616   5.466   1.841   2.454  0.8133 -0.6293  0.3181
  823MOL0     H 8617   5.427   1.872   2.621 -1.0931 -1.0953  2.1721
  823MOL0     H 8618   6.539   1.714   2.786 -0.8691  1.0861 -0.5934
  823MOL0     H 8619   6.774   1.703   2.826 -0.8520 -0.6509 -0.9515
  823MOL0     H 8620   7.154   2.018   2.890 -0.1539 -0.0963  0.8517
  823MOL0     H 8621   7.377   2.043   2.871 -0.7320 -0.0356 -0.4805
  823MOL0     H 8622   8.766   1.637   3.621  3.1610  3.4601  1.1534
  823MOL0     H 8623   8.937   1.573   3.463 -3.3129  0.7054 -0.4550
  823MOL0     H 8624   9.251   1.291   3.334  0.4899 -0.4860 -0.5107
  823MOL0     H 8625   9.444   1.275   3.168  2.9328 -0.6810  0.0457
  823MOL0     H 8626   9.878   1.334   3.274  0.7195  1.6133  1.1513
  823MOL0     H 8627   9.811   1.495   3.265  1.2695  0.9870 -2.2008
  823MOL0     H 8628   9.815   1.493   3.024 -0.1913 -1.4177 -2.7483
  823MOL0     H 8629   9.980   1.470   3.080  0.8317 -0.0723 -0.8793
  823MOL0     H 8630   9.796   1.251   3.009  0.8180 -1.4822  1.7077
  823MOL0     H 8631   9.974   1.238   3.027 -0.3363  0.1887  0.4046
  823MOL0     H 8632   9.840   1.416   2.821  0.0588 -0.5418 -2.1598
  823MOL0     H 8633  10.013   1.358   2.811  1.0478 -2.2643 -0.2972
  823MOL0     H 8634   9.795   1.005   2.703 -0.8156  0.5680 -3.9601
  823MOL0     H 8635   9.692   1.464   3.447  0.3440 -2.7271  0.2660
  823MOL0     H 8636   9.507   1.522   3.581 -1.2481 -0.3941  0.2949
  824MOL0     O 8637   6.895   4.668   5.447  0.0680 -0.2643  0.2526
  824MOL0     C 8638   6.883   4.574   5.372 -0.1082 -0.6059  0.0678
  824MOL0     O 8639   6.972   4.483   5.343 -1.1905  0.0974  0.1237
  824MOL0     C 8640   7.082   4.474   5.422 -0.6389 -0.3801  0.2957
  824MOL0     C 8641   7.122   4.541   5.541 -0.3467 -0.1494  0.9409
  824MOL0     C 8642   7.244   4.510   5.608  0.0160  0.3093  0.6495
  824MOL0     C 8643   7.319   4.405   5.570 -0.0107  0.2535  0.2460
  824MOL0     O 8644   7.425   4.384   5.657  0.3930  0.5766 -0.6345
  824MOL0     C 8645   7.521   4.285   5.624 -0.1991 -0.5926 -0.2367
  824MOL0     C 8646   7.597   4.335   5.503  0.7878  0.9552  0.4383
  824MOL0     C 8647   7.703   4.224   5.464  0.4033 -0.8218  0.2294
  824MOL0     C 8648   7.833   4.238   5.548  0.2131  0.0469  0.0974
  824MOL0     C 8649   7.930   4.121   5.535 -0.6474 -0.7407  0.3444
  824MOL0     C 8650   7.864   3.992   5.582 -0.6465 -0.2821  0.0637
  824MOL0     C 8651   7.964   3.876   5.582  0.6500 -0.1227 -0.7021
  824MOL0     C 8652   8.020   3.848   5.436  0.6406  0.5957 -0.1936
  824MOL0     N 8653   8.138   3.750   5.446  0.4160 -0.0816 -0.2172
  824MOL0     C 8654   8.258   3.770   5.386  0.3325 -0.0166  1.1631
  824MOL0     C 8655   8.331   3.665   5.430 -0.7240 -0.0119  1.0741
  824MOL0     C 8656   8.470   3.642   5.399 -0.6818  0.1218  0.2784
  824MOL0     C 8657   8.567   3.672   5.506 -0.0118  0.2042  0.7934
  824MOL0     C 8658   8.708   3.670   5.453  0.5264  0.0714 -0.0118
  824MOL0     C 8659   8.803   3.720   5.573  0.1582  0.2408 -0.5512
  824MOL0     O 8660   8.936   3.683   5.568  0.4039  0.2361  0.2039
  824MOL0     C 8661   9.012   3.686   5.685  0.2256  0.3521  0.5683
  824MOL0     C 8662   9.009   3.784   5.789  0.3671  0.3351 -0.4347
  824MOL0     C 8663   9.103   3.775   5.895  0.3812 -0.1511  0.7045
  824MOL0     C 8664   9.203   3.673   5.891  0.0976 -0.5800 -0.2974
  824MOL0     C 8665   9.307   3.660   5.987 -0.2473  0.7571 -0.2298
  824MOL0     O 8666   9.395   3.563   5.983  0.1648  0.1254 -0.0319
  824MOL0     C 8667   9.519   3.572   6.041 -0.2835 -0.2426 -0.3197
  824MOL0     C 8668   9.582   3.444   6.060  0.4177  0.3798 -0.3124
  824MOL0     C 8669   9.697   3.425   6.130 -0.3298 -0.1914 -0.1304
  824MOL0     C 8670   9.777   3.534   6.182 -0.1887  0.6259 -0.4247
  824MOL0     O 8671   9.900   3.514   6.244 -0.6400  0.3395 -0.1562
  824MOL0     C 8672   9.953   3.621   6.320  0.4745  1.0537  0.5248
  824MOL0     C 8673  10.096   3.578   6.372 -0.8677  0.0193  0.0401
  824MOL0     C 8674  10.183   3.496   6.270  0.5271  0.3695  0.7963
  824MOL0     C 8675  10.302   3.444   6.354 -0.5536  0.4036 -0.6569
  824MOL0     C 8676  10.387   3.341   6.275  0.1807 -0.2725  0.2531
  824MOL0     C 8677  10.521   3.311   6.355 -0.4880 -0.2510 -0.1246
  824MOL0     C 8678  10.584   3.171   6.310 -1.3374  0.5808  0.8959
  824MOL0     C 8679  10.701   3.142   6.410  0.3498 -0.1785 -1.1166
  824MOL0    Cl 8680  10.752   2.970   6.428 -0.1275 -0.1038 -0.0426
  824MOL0     C 8681   9.719   3.663   6.152 -0.1870  1.1020 -0.5225
  824MOL0     C 8682   9.592   3.682   6.093 -0.4923  0.5382 -0.1807
  824MOL0     O 8683   9.310   3.747   6.071  0.8253  0.2810 -0.5075
  824MOL0     C 8684   9.202   3.576   5.793 -0.8222 -0.3477  0.1876
  824MOL0     C 8685   9.115   3.584   5.685  0.3271 -0.8221 -0.1993
  824MOL0     N 8686   8.255   3.583   5.510  0.7870 -0.0047  0.4530
  824MOL0     N 8687   8.143   3.640   5.528 -0.1273 -0.3370  0.0253
  824MOL0     C 8688   7.279   4.324   5.459  0.5395 -0.4259  0.2484
  824MOL0     C 8689   7.159   4.359   5.389  0.7545 -1.0162  0.6174
  824MOL0     C 8690   6.748   4.561   5.317 -0.5447 -0.1796  0.4272
  824MOL0     C 8691   6.703   4.461   5.233 -0.0727 -0.2434  1.0640
  824MOL0     C 8692   6.570   4.456   5.186 -0.7952  0.4241 -0.3343
  824MOL0     C 8693   6.470   4.544   5.230  0.6055  0.1253 -0.0188
  824MOL0     O 8694   6.340   4.548   5.191 -0.1863  0.0824 -0.5032
  824MOL0     C 8695   6.292   4.430   5.117 -0.1254 -0.3793 -0.9072
  824MOL0     C 8696   6.140   4.419   5.138  1.5690 -0.1805  0.2987
  824MOL0     C 8697   6.065   4.543   5.071  0.2232 -0.2545 -0.4345
  824MOL0     C 8698   5.913   4.547   5.091 -0.1394 -0.4857 -0.3535
  824MOL0     C 8699   5.848   4.420   5.074  0.4573 -0.2350 -0.8650
  824MOL0     C 8700   5.803   4.310   5.048  1.0596 -0.7715 -0.0211
  824MOL0     C 8701   6.508   4.647   5.314 -0.0194  0.3293 -0.6630
  824MOL0     C 8702   6.645   4.654   5.344 -0.1619 -0.5596  0.2473
  824MOL0     H 8703   7.061   4.622   5.579 -1.3488  1.2637 -3.1820
  824MOL0     H 8704   7.268   4.561   5.701 -1.4129  2.7903 -0.2396
  824MOL0     H 8705   7.475   4.192   5.590 -0.0823  0.1917 -2.6631
  824MOL0     H 8706   7.587   4.265   5.709 -0.9151  0.3617  0.5824
  824MOL0     H 8707   7.650   4.427   5.527 -2.6538  2.4542  3.3299
  824MOL0     H 8708   7.528   4.364   5.423  0.7035 -1.3260 -0.3806
  824MOL0     H 8709   7.720   4.250   5.359 -2.3493  2.3505  0.3856
  824MOL0     H 8710   7.652   4.127   5.472 -0.2386 -0.7382 -2.0276
  824MOL0     H 8711   7.891   4.326   5.520  1.1904  0.1073  2.0836
  824MOL0     H 8712   7.804   4.261   5.651 -0.5821 -0.6504  0.0424
  824MOL0     H 8713   8.030   4.142   5.574 -0.7384  2.3103 -0.7891
  824MOL0     H 8714   7.956   4.122   5.428 -1.5064  0.1001  0.1260
  824MOL0     H 8715   7.779   3.960   5.520 -0.7521  0.2817 -0.0848
  824MOL0     H 8716   7.820   4.007   5.681 -0.0663 -0.3919  0.3422
  824MOL0     H 8717   8.046   3.905   5.649  1.0853 -2.1832 -0.2741
  824MOL0     H 8718   7.920   3.782   5.616  2.2363 -1.0799 -1.1974
  824MOL0     H 8719   8.067   3.940   5.402  0.9933  1.1550  1.6739
  824MOL0     H 8720   7.938   3.811   5.373 -0.5102  3.2804 -0.3965
  824MOL0     H 8721   8.293   3.853   5.326  3.4781  1.0289  4.1298
  824MOL0     H 8722   8.496   3.705   5.313  0.6858 -1.1369 -0.2686
  824MOL0     H 8723   8.485   3.540   5.364  2.6554  0.7741 -0.5063
  824MOL0     H 8724   8.539   3.601   5.585 -2.7014 -3.9586 -3.3892
  824MOL0     H 8725   8.559   3.776   5.540  0.1602  0.6283 -0.4184
  824MOL0     H 8726   8.733   3.569   5.421 -0.1897 -0.2653  0.4697
  824MOL0     H 8727   8.718   3.742   5.372 -2.4805  0.3086 -0.2639
  824MOL0     H 8728   8.764   3.692   5.672  0.0489  0.3817 -0.5532
  824MOL0     H 8729   8.798   3.828   5.591 -1.6731  0.2255 -0.7006
  824MOL0     H 8730   8.938   3.865   5.779 -0.8785 -0.7862 -1.0199
  824MOL0     H 8731   9.090   3.859   5.963 -1.2078 -0.3699  0.7022
  824MOL0     H 8732   9.525   3.363   6.016  0.7527 -0.0800  0.0951
  824MOL0     H 8733   9.741   3.327   6.144  2.5023  1.2601  2.2140
  824MOL0     H 8734   9.884   3.660   6.396 -1.1990  0.8998 -0.8440
  824MOL0     H 8735   9.971   3.693   6.240  0.3273 -1.0510 -1.5292
  824MOL0     H 8736  10.074   3.526   6.466  0.9266 -0.9398 -0.0198
  824MOL0     H 8737  10.148   3.666   6.412 -2.2357  0.4943  0.8320
  824MOL0     H 8738  10.198   3.553   6.178 -0.7279 -1.6270 -0.7031
  824MOL0     H 8739  10.128   3.407   6.239  0.3675  0.7236  0.0385
  824MOL0     H 8740  10.370   3.523   6.389 -0.4489 -0.4541  1.2063
  824MOL0     H 8741  10.257   3.388   6.437 -2.3921  2.3113 -0.2998
  824MOL0     H 8742  10.415   3.379   6.176 -0.7847  1.2739  0.5264
  824MOL0     H 8743  10.328   3.250   6.265  0.1758 -0.2023 -0.4095
  824MOL0     H 8744  10.512   3.305   6.464  0.1589 -4.1860 -0.1415
  824MOL0     H 8745  10.595   3.390   6.340 -2.1517  2.6052  4.6429
  824MOL0     H 8746  10.517   3.085   6.301 -1.1001  0.4935 -0.1352
  824MOL0     H 8747  10.639   3.185   6.217 -0.0764  1.7467  1.7728
  824MOL0     H 8748  10.672   3.166   6.512  2.2092  1.1184 -0.8512
  824MOL0     H 8749  10.777   3.213   6.378 -0.4876  0.6875 -1.2233
  824MOL0     H 8750   9.769   3.752   6.189 -2.9062  1.2236  3.5598
  824MOL0     H 8751   9.558   3.784   6.076  1.6855  1.2832 -0.3523
  824MOL0     H 8752   9.276   3.498   5.780  2.3558  1.9698  2.7327
  824MOL0     H 8753   9.119   3.513   5.602 -3.2746  1.3106 -2.5029
  824MOL0     H 8754   7.329   4.232   5.430 -1.3927 -1.1419 -1.0043
  824MOL0     H 8755   7.123   4.293   5.311 -1.8230 -1.5157  2.1166
  824MOL0     H 8756   6.772   4.391   5.188 -0.9217 -0.6687  0.3851
  824MOL0     H 8757   6.537   4.387   5.109 -2.0269  0.6036  0.0021
  824MOL0     H 8758   6.320   4.334   5.163 -1.6508  0.2130  1.4581
  824MOL0     H 8759   6.328   4.442   5.015  1.5418 -2.0018 -0.5769
  824MOL0     H 8760   6.111   4.334   5.076  2.1853  0.7043 -1.2384
  824MOL0     H 8761   6.108   4.415   5.243  0.9772  1.0665  0.1847
  824MOL0     H 8762   6.082   4.539   4.963 -0.1520 -3.6227 -0.4602
  824MOL0     H 8763   6.101   4.640   5.109 -0.0532 -0.0524 -0.6823
  824MOL0     H 8764   5.889   4.585   5.190 -2.9699 -0.9300 -0.7705
  824MOL0     H 8765   5.869   4.614   5.017 -0.2804 -0.9829 -0.7285
  824MOL0     H 8766   5.761   4.221   5.005  1.4934  0.1226 -2.4910
  824MOL0     H 8767   6.429   4.715   5.343 -1.6483 -0.0828 -3.7486
  824MOL0     H 8768   6.657   4.742   5.406  2.0058  0.4781 -1.5037
  825MOL0     O 8769   1.321   2.679   1.939  0.2328 -0.2874 -0.1316
  825MOL0     C 8770   1.369   2.775   1.874  0.6964 -0.1227  0.5617
  825MOL0     O 8771   1.294   2.868   1.800  0.1190 -0.6781 -0.3356
  825MOL0     C 8772   1.162   2.867   1.833  0.7142 -0.1539 -0.7169
  825MOL0     C 8773   1.053   2.838   1.741 -0.3935 -0.2234 -0.1876
  825MOL0     C 8774   0.918   2.829   1.780 -0.1274 -0.0747  0.9742
  825MOL0     C 8775   0.885   2.864   1.908  0.4937 -0.5593  0.0187
  825MOL0     O 8776   0.759   2.865   1.959 -0.1832 -0.5138 -0.1977
  825MOL0     C 8777   0.642   2.826   1.884  0.4798  0.0654 -0.3529
  825MOL0     C 8778   0.522   2.839   1.978 -0.2685 -0.6351  0.0838
  825MOL0     C 8779   0.395   2.810   1.894 -0.2451 -0.6982 -0.5043
  825MOL0     C 8780   0.280   2.807   1.988 -0.2418 -0.7021  0.4339
  825MOL0     C 8781   0.155   2.779   1.903  0.4381 -0.4405 -0.4915
  825MOL0     C 8782   0.048   2.755   1.994 -0.1961 -0.7616  0.4601
  825MOL0     C 8783  -0.085   2.726   1.923 -0.0107  0.9747  0.5463
  825MOL0     C 8784  -0.153   2.857   1.863  0.0349  0.6717  0.3370
  825MOL0     N 8785  -0.295   2.831   1.829  0.4870 -0.4681 -0.2398
  825MOL0     C 8786  -0.387   2.938   1.810 -1.3997 -0.0329  0.0936
  825MOL0     C 8787  -0.505   2.877   1.792  0.2733  0.8278 -0.3535
  825MOL0     C 8788  -0.626   2.945   1.736 -0.4234  0.7603  0.0822
  825MOL0     C 8789  -0.701   2.887   1.618  1.0802  0.0841 -0.2183
  825MOL0     C 8790  -0.834   2.961   1.604 -0.3757  0.6715 -0.0370
  825MOL0     C 8791  -0.948   2.932   1.699  0.2609 -0.9692  0.2318
  825MOL0     O 8792  -1.011   2.815   1.655 -0.1643  0.3111  0.8496
  825MOL0     C 8793  -1.121   2.784   1.714 -0.3781 -0.1009 -0.4520
  825MOL0     C 8794  -1.198   2.700   1.644 -0.0995 -0.1187 -0.0731
  825MOL0     C 8795  -1.327   2.654   1.682 -0.5245  0.3602 -0.5229
  825MOL0     C 8796  -1.370   2.698   1.809 -0.3495  0.1608  0.2142
  825MOL0     C 8797  -1.491   2.632   1.861 -0.3698 -0.3981  0.2918
  825MOL0     O 8798  -1.531   2.530   1.784  0.1318  0.7165  0.1469
  825MOL0     C 8799  -1.645   2.452   1.826  0.4886  0.3410 -1.3090
  825MOL0     C 8800  -1.764   2.507   1.813  0.5597 -0.9492  0.0044
  825MOL0     C 8801  -1.879   2.426   1.821 -0.2284  0.4227 -0.8703
  825MOL0     C 8802  -1.870   2.286   1.857  0.4210  0.4334 -0.0405
  825MOL0     O 8803  -1.989   2.214   1.875  0.1977 -0.4778  0.1415
  825MOL0     C 8804  -1.980   2.071   1.867  0.3285 -0.3163  0.3983
  825MOL0     C 8805  -2.113   1.999   1.873 -0.7232 -0.3292 -0.4967
  825MOL0     C 8806  -2.217   2.035   1.986 -1.0060  0.1028 -0.0022
  825MOL0     C 8807  -2.349   1.968   1.965 -0.2727  0.1778 -0.5836
  825MOL0     C 8808  -2.449   2.007   2.073  0.1626 -0.6598  0.0772
  825MOL0     C 8809  -2.597   1.988   2.033  0.8981  0.1726 -0.5247
  825MOL0     C 8810  -2.700   2.045   2.140 -0.1828  0.5181 -0.2571
  825MOL0     C 8811  -2.837   2.043   2.088  0.1410  0.3987  0.1573
  825MOL0    Cl 8812  -2.959   2.103   2.207  0.2510  0.0176 -0.0507
  825MOL0     C 8813  -1.739   2.232   1.867 -0.5142 -0.2939 -0.3415
  825MOL0     C 8814  -1.628   2.315   1.849  0.8429  0.6632  0.6695
  825MOL0     O 8815  -1.544   2.659   1.972 -0.2371 -0.0893 -0.1187
  825MOL0     C 8816  -1.296   2.794   1.875 -0.2401 -0.9711  0.0961
  825MOL0     C 8817  -1.179   2.837   1.830  0.1052 -0.2438 -0.8062
  825MOL0     N 8818  -0.493   2.741   1.812  1.0697 -0.7387  0.6565
  825MOL0     N 8819  -0.372   2.718   1.846 -0.1473 -0.5205  0.0993
  825MOL0     C 8820   0.989   2.908   2.001 -0.4863 -1.0095  0.2869
  825MOL0     C 8821   1.129   2.897   1.964 -0.1973  0.5577  0.2903
  825MOL0     C 8822   1.515   2.787   1.856 -0.2688 -0.2112 -0.1102
  825MOL0     C 8823   1.599   2.720   1.940  0.7435 -0.7739 -0.2777
  825MOL0     C 8824   1.734   2.739   1.936  0.2442  0.5096 -0.5130
  825MOL0     C 8825   1.788   2.816   1.835  0.5182 -1.1801 -0.2956
  825MOL0     O 8826   1.919   2.828   1.832 -0.4940 -0.6756 -0.2361
  825MOL0     C 8827   1.976   2.951   1.782 -0.4176  0.1641  0.2874
  825MOL0     C 8828   2.132   2.960   1.788 -0.4789 -0.1921 -0.4935
  825MOL0     C 8829   2.187   2.954   1.931  0.0397 -0.2676 -0.5959
  825MOL0     C 8830   2.196   3.087   2.010  0.0968  0.3772  0.3422
  825MOL0     C 8831   2.282   3.185   1.951  0.0695  0.3393 -1.2056
  825MOL0     C 8832   2.345   3.270   1.901 -0.4609  0.4034 -0.2796
  825MOL0     C 8833   1.704   2.881   1.745  0.2479 -1.0004  0.3073
  825MOL0     C 8834   1.568   2.878   1.763  0.1811  0.6096  0.0864
  825MOL0     H 8835   1.086   2.825   1.638 -0.1218 -1.0660  0.0023
  825MOL0     H 8836   0.845   2.802   1.705 -0.4970  2.4824  0.3060
  825MOL0     H 8837   0.652   2.724   1.847 -2.3899 -1.0579  1.5794
  825MOL0     H 8838   0.637   2.903   1.806 -1.8412 -0.0503 -0.3948
  825MOL0     H 8839   0.516   2.941   2.016  1.9361 -0.3552 -0.1670
  825MOL0     H 8840   0.534   2.769   2.060  0.0784 -0.0566  0.5309
  825MOL0     H 8841   0.404   2.720   1.833 -1.8499 -0.4029 -1.2402
  825MOL0     H 8842   0.387   2.895   1.824 -0.5314  1.4830  2.0079
  825MOL0     H 8843   0.295   2.721   2.054 -2.2898 -1.6895 -0.2979
  825MOL0     H 8844   0.261   2.898   2.045  1.6266  0.3627 -0.5844
  825MOL0     H 8845   0.173   2.698   1.832 -1.3180 -1.2495 -0.0580
  825MOL0     H 8846   0.129   2.872   1.851  3.0793  1.7887  1.8431
  825MOL0     H 8847   0.040   2.845   2.056  0.8427 -1.4444  1.6365
  825MOL0     H 8848   0.076   2.672   2.060  2.1185  0.5252  1.1954
  825MOL0     H 8849  -0.068   2.644   1.853 -0.8313  0.1532  1.2745
  825MOL0     H 8850  -0.161   2.694   1.995  1.9298  0.7371  2.5789
  825MOL0     H 8851  -0.097   2.886   1.774 -0.6582  2.6308  0.4915
  825MOL0     H 8852  -0.134   2.934   1.938 -0.0064  1.0077  0.0010
  825MOL0     H 8853  -0.379   3.046   1.811  0.5059 -0.1163 -0.9155
  825MOL0     H 8854  -0.606   3.049   1.704  1.6077  0.8352  1.3794
  825MOL0     H 8855  -0.688   2.951   1.826  1.8043  2.3283  1.6370
  825MOL0     H 8856  -0.731   2.787   1.651 -2.7608  1.2688  0.3631
  825MOL0     H 8857  -0.636   2.880   1.530  0.2020 -1.2935 -0.8098
  825MOL0     H 8858  -0.806   3.066   1.621  1.1760  0.4752 -1.1451
  825MOL0     H 8859  -0.864   2.964   1.499  1.0386  0.2312 -0.4742
  825MOL0     H 8860  -1.014   3.019   1.708 -0.4294 -1.5399  0.7955
  825MOL0     H 8861  -0.911   2.916   1.800  0.3508 -2.1051  0.0334
  825MOL0     H 8862  -1.151   2.646   1.562 -2.0250  0.9328 -1.9731
  825MOL0     H 8863  -1.379   2.575   1.630  0.6215  0.5319 -1.9806
  825MOL0     H 8864  -1.773   2.613   1.789  0.9076 -0.5215  1.6028
  825MOL0     H 8865  -1.976   2.469   1.801 -1.3548 -1.4295  0.3929
  825MOL0     H 8866  -1.918   2.028   1.946 -2.0254 -0.2108  2.4377
  825MOL0     H 8867  -1.943   2.047   1.767  0.3116  2.6566 -0.4227
  825MOL0     H 8868  -2.090   1.893   1.881  0.3248 -0.0272  0.9922
  825MOL0     H 8869  -2.169   2.019   1.782  1.5499  0.7446 -1.7487
  825MOL0     H 8870  -2.231   2.143   1.993  1.1768  0.4426 -0.2842
  825MOL0     H 8871  -2.175   1.997   2.079  0.1330  1.1323 -0.0782
  825MOL0     H 8872  -2.397   2.004   1.873  1.1582 -1.9908 -2.2543
  825MOL0     H 8873  -2.337   1.860   1.963  0.1731  0.2254 -0.4745
  825MOL0     H 8874  -2.449   2.113   2.100 -1.9945 -0.6171  0.0952
  825MOL0     H 8875  -2.436   1.951   2.166 -0.6277  0.3990  0.8600
  825MOL0     H 8876  -2.614   1.881   2.017  0.1164  0.2957 -0.5591
  825MOL0     H 8877  -2.611   2.045   1.941 -1.8841 -0.5029 -0.6136
  825MOL0     H 8878  -2.678   1.991   2.233  0.2152 -0.7401 -1.0493
  825MOL0     H 8879  -2.681   2.148   2.171 -1.4094  0.0110  2.4495
  825MOL0     H 8880  -2.859   1.938   2.068  0.4930  0.0839  1.3395
  825MOL0     H 8881  -2.835   2.092   1.990  2.3842  0.7327  0.3196
  825MOL0     H 8882  -1.717   2.127   1.886  0.2643 -0.1957 -0.6757
  825MOL0     H 8883  -1.526   2.277   1.847 -0.0456 -1.9902 -1.9924
  825MOL0     H 8884  -1.316   2.832   1.974 -0.6308  1.3091 -0.7991
  825MOL0     H 8885  -1.128   2.905   1.898  0.2266 -1.2296  0.1103
  825MOL0     H 8886   0.959   2.937   2.101 -2.2720  1.3314 -0.8281
  825MOL0     H 8887   1.207   2.920   2.036  1.0942  3.1569 -1.7617
  825MOL0     H 8888   1.562   2.664   2.025  0.9793 -2.0523 -0.9748
  825MOL0     H 8889   1.797   2.699   2.015 -1.3759  0.3373  0.7190
  825MOL0     H 8890   1.930   3.031   1.842 -1.4488 -0.8011  0.8115
  825MOL0     H 8891   1.954   2.957   1.675  2.6653  2.2609 -0.3478
  825MOL0     H 8892   2.176   2.890   1.717  0.2734  0.1883 -0.4090
  825MOL0     H 8893   2.163   3.054   1.740  0.4617 -0.4300 -0.3726
  825MOL0     H 8894   2.289   2.918   1.916 -0.0641 -1.6798  1.6078
  825MOL0     H 8895   2.130   2.879   1.987 -0.4548  0.4483 -0.1279
  825MOL0     H 8896   2.094   3.127   2.014  0.0404  0.1569  1.1873
  825MOL0     H 8897   2.234   3.062   2.109  3.7593  0.0691 -0.9991
  825MOL0     H 8898   2.387   3.355   1.850  0.2488  0.8722  1.0302
  825MOL0     H 8899   1.744   2.935   1.660 -0.3708  0.0928  0.6920
  825MOL0     H 8900   1.497   2.931   1.701 -0.3664 -3.0939 -2.8213
  826MOL0     O 8901  11.290  10.784   8.739 -0.1443  0.6699  0.1209
  826MOL0     C 8902  11.372  10.826   8.661  0.4648 -0.5685  0.0734
  826MOL0     O 8903  11.354  10.933   8.566  0.4774 -0.2767 -0.0260
  826MOL0     C 8904  11.239  11.008   8.553  0.0734  0.2810 -1.0048
  826MOL0     C 8905  11.104  10.959   8.556 -0.3549 -0.3683 -0.4957
  826MOL0     C 8906  10.996  11.043   8.533 -0.2779 -0.1988 -0.1903
  826MOL0     C 8907  11.016  11.176   8.501  0.5596 -0.5311  0.5253
  826MOL0     O 8908  10.901  11.258   8.472  0.1031 -0.6175  0.6265
  826MOL0     C 8909  10.818  11.282   8.588 -0.1682 -0.8429 -0.5289
  826MOL0     C 8910  10.725  11.404   8.561  0.1565 -0.0206  0.9658
  826MOL0     C 8911  10.648  11.398   8.429  0.5967  0.1238  0.5448
  826MOL0     C 8912  10.521  11.488   8.416  0.6406  0.9975  0.6532
  826MOL0     C 8913  10.485  11.499   8.266  0.0941  0.7866  0.3046
  826MOL0     C 8914  10.411  11.373   8.211  0.2245  0.2449  0.2748
  826MOL0     C 8915  10.363  11.408   8.071  0.7331 -0.0994 -0.1248
  826MOL0     C 8916  10.324  11.276   7.980 -0.5750 -0.9085  0.4735
  826MOL0     N 8917  10.436  11.223   7.900  0.9640 -0.2112 -0.8838
  826MOL0     C 8918  10.565  11.212   7.949 -0.3158  1.0283  0.0666
  826MOL0     C 8919  10.633  11.149   7.846 -0.3800 -0.7104 -0.3920
  826MOL0     C 8920  10.778  11.099   7.846 -0.1913 -0.1251 -0.1867
  826MOL0     C 8921  10.828  11.074   7.989  0.0613  1.1064  0.3823
  826MOL0     C 8922  10.938  10.968   7.998 -0.3943 -0.5801 -0.0800
  826MOL0     C 8923  10.902  10.831   7.956 -0.3720 -0.0052  1.1896
  826MOL0     O 8924  11.019  10.755   7.961  0.0283  0.8744 -0.3699
  826MOL0     C 8925  11.098  10.737   7.845 -0.1535 -1.0423 -0.8972
  826MOL0     C 8926  11.177  10.630   7.833 -0.9312 -0.2080  0.8498
  826MOL0     C 8927  11.262  10.622   7.723  0.3249  0.5466  0.4846
  826MOL0     C 8928  11.260  10.719   7.626 -0.0420  0.7977 -0.3143
  826MOL0     C 8929  11.346  10.700   7.507 -0.4950  0.5869 -0.1739
  826MOL0     O 8930  11.392  10.566   7.490  0.1068 -0.2729 -0.2954
  826MOL0     C 8931  11.468  10.540   7.388 -0.2560  0.3306  0.2108
  826MOL0     C 8932  11.597  10.490   7.401 -1.0668  0.3026  0.2688
  826MOL0     C 8933  11.666  10.447   7.287 -0.1360 -0.1545 -0.5973
  826MOL0     C 8934  11.613  10.462   7.157 -0.4611  0.4790  0.1461
  826MOL0     O 8935  11.677  10.428   7.039 -0.0314 -0.1338  0.8900
  826MOL0     C 8936  11.821  10.384   7.038  0.0156  0.3725 -0.5064
  826MOL0     C 8937  11.873  10.375   6.891  0.2796  0.4052 -0.0774
  826MOL0     C 8938  11.848  10.506   6.817  0.3665 -0.5084  0.4195
  826MOL0     C 8939  11.921  10.497   6.678  0.0218  0.0607 -0.9211
  826MOL0     C 8940  11.894  10.619   6.586 -0.3225  0.0357  0.3864
  826MOL0     C 8941  11.983  10.614   6.450 -0.0905 -0.4512  0.0657
  826MOL0     C 8942  12.011  10.769   6.405 -0.3856 -0.6228  0.8513
  826MOL0     C 8943  12.116  10.759   6.289 -0.7634 -0.9966  0.2496
  826MOL0    Cl 8944  12.044  10.705   6.121  0.1030  0.1503 -0.7540
  826MOL0     C 8945  11.493  10.518   7.144  0.1438  0.0200  0.3549
  826MOL0     C 8946  11.417  10.552   7.258 -0.7063  0.2695  0.5284
  826MOL0     O 8947  11.374  10.801   7.436  0.4540 -0.3723 -0.9082
  826MOL0     C 8948  11.169  10.821   7.631  0.6945  0.2628  0.4180
  826MOL0     C 8949  11.077  10.826   7.740  0.3131 -1.1792 -0.0019
  826MOL0     N 8950  10.541  11.126   7.741 -0.3626 -0.2132 -0.7582
  826MOL0     N 8951  10.424  11.167   7.776 -0.1366  0.2552  0.0058
  826MOL0     C 8952  11.147  11.232   8.497  0.2968  0.1814 -0.1998
  826MOL0     C 8953  11.258  11.151   8.528 -0.0752  0.4372  0.0133
  826MOL0     C 8954  11.502  10.758   8.656  0.4062 -0.5986  0.5780
  826MOL0     C 8955  11.520  10.628   8.692 -0.1999  0.2111  0.1937
  826MOL0     C 8956  11.646  10.575   8.701  0.7266 -0.4450 -0.1902
  826MOL0     C 8957  11.756  10.652   8.662 -0.9905 -0.4684 -0.3122
  826MOL0     O 8958  11.884  10.611   8.678  0.1394  0.1207  0.4272
  826MOL0     C 8959  11.912  10.465   8.674  0.0230  0.2394 -0.6365
  826MOL0     C 8960  11.939  10.405   8.813  0.0221 -0.4328 -0.1969
  826MOL0     C 8961  12.023  10.492   8.904  1.3736 -0.5135 -0.2688
  826MOL0     C 8962  12.024  10.446   9.046 -1.0458 -0.4428  0.5837
  826MOL0     C 8963  12.123  10.532   9.104 -0.5119 -0.5601 -0.5460
  826MOL0     C 8964  12.215  10.590   9.155  0.8866  0.2020 -0.0193
  826MOL0     C 8965  11.738  10.778   8.615  0.0866  0.0917  0.1584
  826MOL0     C 8966  11.612  10.836   8.619  0.0243  0.6331  0.0685
  826MOL0     H 8967  11.083  10.853   8.569 -0.7137 -0.3359 -0.8169
  826MOL0     H 8968  10.900  11.005   8.499 -0.3003  0.6035 -1.0543
  826MOL0     H 8969  10.884  11.298   8.674  2.2761 -0.0706 -2.4433
  826MOL0     H 8970  10.748  11.203   8.619 -0.0812  0.0290  2.1958
  826MOL0     H 8971  10.783  11.497   8.559  1.7524 -0.8737 -3.0989
  826MOL0     H 8972  10.647  11.405   8.637 -2.1882 -0.2166 -1.3024
  826MOL0     H 8973  10.620  11.294   8.413  0.1956  0.1217  1.2546
  826MOL0     H 8974  10.724  11.404   8.350 -0.3147 -1.1565 -0.4691
  826MOL0     H 8975  10.437  11.439   8.466  0.4845 -1.4297 -1.7085
  826MOL0     H 8976  10.546  11.588   8.451  0.8899  1.5559 -1.0315
  826MOL0     H 8977  10.578  11.521   8.212  0.8528 -3.0956 -0.2984
  826MOL0     H 8978  10.419  11.585   8.261  1.3238  1.7444  0.1645
  826MOL0     H 8979  10.328  11.362   8.282  0.7652  3.6761  1.6393
  826MOL0     H 8980  10.470  11.281   8.214 -0.0329  0.0738  0.1098
  826MOL0     H 8981  10.280  11.478   8.083  1.3249  0.0874  5.0612
  826MOL0     H 8982  10.450  11.456   8.024 -0.1136  1.5345 -0.0727
  826MOL0     H 8983  10.242  11.293   7.910  1.0413 -1.4266 -1.6139
  826MOL0     H 8984  10.285  11.210   8.058 -2.6237 -0.3736 -0.0341
  826MOL0     H 8985  10.598  11.234   8.050 -0.5577  0.4755  0.2719
  826MOL0     H 8986  10.840  11.181   7.808  0.9903 -1.2168 -0.6997
  826MOL0     H 8987  10.804  11.022   7.772  1.2026  0.9960 -0.9094
  826MOL0     H 8988  10.751  11.051   8.063  1.6702 -3.7146  0.9119
  826MOL0     H 8989  10.860  11.175   8.016 -0.5640  1.5886 -0.6085
  826MOL0     H 8990  11.027  10.992   7.940 -1.3193  2.0197 -0.5790
  826MOL0     H 8991  10.969  10.970   8.102 -1.2668  6.1898  0.5157
  826MOL0     H 8992  10.849  10.830   7.860  0.1772  0.6494  0.8735
  826MOL0     H 8993  10.836  10.798   8.036 -0.4797 -0.4624  0.9184
  826MOL0     H 8994  11.188  10.545   7.899  1.7042 -3.0308 -2.7639
  826MOL0     H 8995  11.323  10.534   7.703 -3.1223 -1.5832 -1.9130
  826MOL0     H 8996  11.650  10.474   7.494 -1.1029 -0.9941  0.0838
  826MOL0     H 8997  11.768  10.413   7.301  0.8479  2.9931  0.6192
  826MOL0     H 8998  11.825  10.289   7.094  1.6700  0.3815 -0.5704
  826MOL0     H 8999  11.881  10.458   7.091 -0.7051 -0.3279  1.4056
  826MOL0     H 9000  11.823  10.292   6.840  2.9107 -2.3382  1.4370
  826MOL0     H 9001  11.976  10.339   6.896 -0.6744 -2.4717  2.8991
  826MOL0     H 9002  11.879  10.590   6.880  3.2839 -0.8365 -0.4301
  826MOL0     H 9003  11.740  10.515   6.800  0.4218 -0.1764  0.2265
  826MOL0     H 9004  12.028  10.490   6.700  0.2959 -0.0662 -2.2170
  826MOL0     H 9005  11.885  10.402   6.635  0.1392  0.2451 -1.4310
  826MOL0     H 9006  11.918  10.706   6.648  2.1111  0.8186 -1.4983
  826MOL0     H 9007  11.789  10.624   6.557  0.4570 -1.6458 -3.3056
  826MOL0     H 9008  11.926  10.557   6.376 -0.1449 -2.2566  1.4452
  826MOL0     H 9009  12.078  10.560   6.457  0.8847  1.1162 -0.2370
  826MOL0     H 9010  11.920  10.820   6.375  0.0026 -0.3004  0.2020
  826MOL0     H 9011  12.048  10.826   6.491  0.7033  0.8766 -0.5478
  826MOL0     H 9012  12.186  10.680   6.317 -0.7426 -0.7647  0.8610
  826MOL0     H 9013  12.170  10.853   6.274 -4.1629  1.1969  0.5847
  826MOL0     H 9014  11.447  10.542   7.048 -0.7977  0.9381  1.0142
  826MOL0     H 9015  11.315  10.585   7.243 -0.0807  1.4513 -1.5040
  826MOL0     H 9016  11.160  10.885   7.544 -0.7150 -1.1677 -0.5549
  826MOL0     H 9017  11.016  10.916   7.739  0.2471 -1.2123  0.7295
  826MOL0     H 9018  11.158  11.338   8.479 -0.6903  0.0042 -2.0424
  826MOL0     H 9019  11.360  11.188   8.536  0.4425 -1.1118  1.0556
  826MOL0     H 9020  11.434  10.569   8.722  0.0531 -1.4803 -2.0669
  826MOL0     H 9021  11.644  10.478   8.751 -0.0542  0.5137  1.7661
  826MOL0     H 9022  12.000  10.460   8.609 -1.1569 -0.4197 -2.2619
  826MOL0     H 9023  11.832  10.402   8.633  0.3325 -1.2324  0.9607
  826MOL0     H 9024  11.844  10.389   8.864  0.0412  3.0615  1.2208
  826MOL0     H 9025  11.995  10.311   8.806  0.8512 -0.1632  2.0280
  826MOL0     H 9026  11.978  10.592   8.915  0.7151 -1.0292  2.4643
  826MOL0     H 9027  12.121  10.503   8.857  1.4906 -0.4457 -0.0119
  826MOL0     H 9028  11.924  10.450   9.090 -0.5806  1.8720  1.6381
  826MOL0     H 9029  12.058  10.343   9.044 -0.1230 -0.1590  0.9240
  826MOL0     H 9030  12.296  10.656   9.177  1.1435 -0.1545  0.1232
  826MOL0     H 9031  11.815  10.849   8.584  0.1953  0.0638  0.3577
  826MOL0     H 9032  11.592  10.937   8.584 -2.2096  0.7943  1.5855
  827MOL0     O 9033   9.388   3.753   8.862  0.5683  0.1313 -0.9875
  827MOL0     C 9034   9.394   3.654   8.933 -0.6004  0.5852  0.1625
  827MOL0     O 9035   9.290   3.591   8.991  1.2240 -0.0188 -0.2135
  827MOL0     C 9036   9.158   3.631   8.951 -0.1875 -0.3159 -0.4917
  827MOL0     C 9037   9.117   3.594   8.820  0.2245 -0.1387  0.4608
  827MOL0     C 9038   8.992   3.647   8.774 -0.1619  0.4843 -0.2174
  827MOL0     C 9039   8.908   3.725   8.857 -0.2946  0.8067 -0.2269
  827MOL0     O 9040   8.789   3.763   8.799 -0.1683 -0.2634 -0.1782
  827MOL0     C 9041   8.716   3.864   8.883  0.4211 -0.0857 -0.0230
  827MOL0     C 9042   8.588   3.905   8.795 -0.8731 -0.3685 -0.6876
  827MOL0     C 9043   8.468   3.812   8.814 -0.2616  0.5306 -0.0870
  827MOL0     C 9044   8.500   3.681   8.753  0.0363  0.7862 -0.1625
  827MOL0     C 9045   8.373   3.589   8.732 -0.7258 -0.8393  0.1125
  827MOL0     C 9046   8.285   3.636   8.613  0.1943 -0.4090 -0.3271
  827MOL0     C 9047   8.141   3.582   8.609  0.0381  0.2682  0.2784
  827MOL0     C 9048   8.131   3.435   8.655 -0.0599 -0.4566 -0.4558
  827MOL0     N 9049   7.993   3.393   8.640 -0.6141  0.1245 -0.4769
  827MOL0     C 9050   7.921   3.388   8.520 -0.6089  0.1551  0.0090
  827MOL0     C 9051   7.815   3.305   8.541 -0.5932 -0.0805  0.2620
  827MOL0     C 9052   7.709   3.264   8.444 -0.4847 -0.7406 -0.1859
  827MOL0     C 9053   7.585   3.347   8.434 -0.5950 -0.3527 -0.5455
  827MOL0     C 9054   7.483   3.275   8.337 -0.0420 -0.1958 -0.0493
  827MOL0     C 9055   7.350   3.333   8.354 -0.7660 -0.7773 -0.7426
  827MOL0     O 9056   7.248   3.243   8.322  1.0328 -0.6648  0.1875
  827MOL0     C 9057   7.114   3.287   8.349 -0.6421 -0.1563  0.5169
  827MOL0     C 9058   7.015   3.195   8.334  0.5094  0.2338 -0.4455
  827MOL0     C 9059   6.879   3.227   8.346  0.0190 -0.0672  0.1524
  827MOL0     C 9060   6.840   3.357   8.384  0.4225 -0.2284 -0.4251
  827MOL0     C 9061   6.693   3.399   8.388 -0.8890  0.8934  0.2694
  827MOL0     O 9062   6.660   3.515   8.448 -0.6183 -0.0821  0.0688
  827MOL0     C 9063   6.532   3.535   8.488 -0.2628 -0.8973  0.1895
  827MOL0     C 9064   6.492   3.508   8.622  0.5140 -0.3885  0.0710
  827MOL0     C 9065   6.354   3.520   8.654  0.6573 -0.0825 -0.3492
  827MOL0     C 9066   6.261   3.585   8.565 -1.2405 -0.2188 -0.0109
  827MOL0     O 9067   6.131   3.619   8.601 -0.1464  0.7264  0.2257
  827MOL0     C 9068   6.108   3.610   8.750  0.4963 -0.5049  0.8602
  827MOL0     C 9069   5.967   3.666   8.758  0.6624  0.3075 -0.5676
  827MOL0     C 9070   5.950   3.810   8.707  0.3732  1.1199  0.5002
  827MOL0     C 9071   5.821   3.871   8.758 -0.3903 -0.5288  0.2691
  827MOL0     C 9072   5.798   4.008   8.689 -0.4642 -0.1025 -0.1463
  827MOL0     C 9073   5.668   4.068   8.731 -0.2307  0.1683  0.1149
  827MOL0     C 9074   5.663   4.215   8.691 -0.0017  0.1932  0.6508
  827MOL0     C 9075   5.541   4.287   8.749  0.0101  0.5520 -0.3717
  827MOL0    Cl 9076   5.389   4.241   8.684  0.0539  0.0797 -0.2154
  827MOL0     C 9077   6.309   3.626   8.444 -0.0561 -0.0875 -0.4291
  827MOL0     C 9078   6.444   3.597   8.397 -0.7079  0.4690  0.0613
  827MOL0     O 9079   6.617   3.314   8.339  0.3185  0.1548  0.0416
  827MOL0     C 9080   6.940   3.452   8.407  0.0752 -0.6693  0.5321
  827MOL0     C 9081   7.075   3.416   8.386  0.7184 -0.3987 -0.0709
  827MOL0     N 9082   7.819   3.263   8.676  0.2703 -0.0199 -0.4021
  827MOL0     N 9083   7.923   3.316   8.726 -0.1057  0.4705  0.4014
  827MOL0     C 9084   8.954   3.745   8.995  0.4665  0.4424 -0.6375
  827MOL0     C 9085   9.076   3.702   9.037  0.4132  0.6666 -0.3988
  827MOL0     C 9086   9.533   3.621   8.971 -0.4301  0.0914  1.4811
  827MOL0     C 9087   9.650   3.685   8.909  0.1641 -0.5983  0.7733
  827MOL0     C 9088   9.778   3.639   8.942  0.0149 -0.2701 -0.3171
  827MOL0     C 9089   9.796   3.548   9.043 -0.7109  0.8002  0.4132
  827MOL0     O 9090   9.922   3.499   9.087 -0.1916 -0.0055 -0.4624
  827MOL0     C 9091  10.039   3.586   9.088  0.9219  0.2468  0.0122
  827MOL0     C 9092  10.151   3.497   9.134  0.0480  0.2711 -0.3046
  827MOL0     C 9093  10.182   3.366   9.060  0.4484 -0.7703  0.4443
  827MOL0     C 9094  10.212   3.401   8.904  0.2776 -0.6350  0.2996
  827MOL0     C 9095  10.271   3.283   8.841 -0.0486 -0.3839  0.6948
  827MOL0     C 9096  10.307   3.190   8.783  0.6756  0.4309  0.5511
  827MOL0     C 9097   9.694   3.476   9.095 -0.1657 -0.2305 -0.4314
  827MOL0     C 9098   9.561   3.513   9.055 -0.3011  0.0216  0.1205
  827MOL0     H 9099   9.179   3.534   8.754 -0.1759  0.0109 -0.0512
  827MOL0     H 9100   8.971   3.620   8.671  1.1836 -2.5626  0.2099
  827MOL0     H 9101   8.782   3.948   8.906  0.9706 -0.5590  0.1585
  827MOL0     H 9102   8.675   3.827   8.977 -3.7602  0.2962 -1.4908
  827MOL0     H 9103   8.623   3.898   8.692 -0.6728  2.5824 -0.9280
  827MOL0     H 9104   8.555   4.006   8.822  2.2327  1.1139 -2.0064
  827MOL0     H 9105   8.371   3.840   8.771 -0.7421 -4.0261 -2.5661
  827MOL0     H 9106   8.454   3.795   8.921  2.5653  1.4249  0.5149
  827MOL0     H 9107   8.546   3.705   8.656  2.5236 -1.4367  0.3626
  827MOL0     H 9108   8.580   3.634   8.812  1.6926  0.1083 -2.7806
  827MOL0     H 9109   8.327   3.589   8.832  0.9303 -0.4937  0.9056
  827MOL0     H 9110   8.407   3.489   8.704 -0.4186 -0.5229 -0.6437
  827MOL0     H 9111   8.331   3.607   8.518  0.1479 -2.1155  0.1436
  827MOL0     H 9112   8.279   3.745   8.601  2.3074 -0.3512 -1.2543
  827MOL0     H 9113   8.074   3.639   8.674  2.9756  2.9015  1.2080
  827MOL0     H 9114   8.116   3.594   8.503 -1.1439 -0.0690  0.5030
  827MOL0     H 9115   8.142   3.449   8.763 -1.4801 -3.2740  0.1552
  827MOL0     H 9116   8.210   3.366   8.626  0.0438 -0.9336  0.8741
  827MOL0     H 9117   7.935   3.442   8.427  1.0726  3.5667  2.0456
  827MOL0     H 9118   7.690   3.160   8.469  0.8667 -0.8142  0.6456
  827MOL0     H 9119   7.750   3.263   8.342  0.5275 -0.8752  0.2051
  827MOL0     H 9120   7.605   3.449   8.402  0.6337 -0.0833  0.9360
  827MOL0     H 9121   7.548   3.358   8.537  3.1481  1.6826  0.7721
  827MOL0     H 9122   7.505   3.290   8.231  0.2696  2.8766  0.3753
  827MOL0     H 9123   7.476   3.171   8.371  0.6252 -0.4311 -0.6015
  827MOL0     H 9124   7.358   3.420   8.287 -0.3960  0.2029  0.5264
  827MOL0     H 9125   7.350   3.379   8.453  2.8105 -1.2916 -0.3585
  827MOL0     H 9126   7.040   3.094   8.305  0.3678  0.4278 -1.2524
  827MOL0     H 9127   6.819   3.140   8.322  0.8756 -0.0231 -2.3399
  827MOL0     H 9128   6.555   3.464   8.698 -1.3107  1.5349  2.8906
  827MOL0     H 9129   6.317   3.500   8.754  2.6384 -1.3110  0.1886
  827MOL0     H 9130   6.170   3.671   8.815 -1.9733  3.3756 -0.0343
  827MOL0     H 9131   6.101   3.504   8.777  0.2102 -1.6169 -2.9840
  827MOL0     H 9132   5.945   3.659   8.865 -0.1524  0.1477 -0.7387
  827MOL0     H 9133   5.893   3.603   8.708 -0.0438  0.6156  0.0642
  827MOL0     H 9134   5.980   3.805   8.602  1.5524 -0.4547  0.8742
  827MOL0     H 9135   6.035   3.867   8.745  0.9842  1.8529 -1.7857
  827MOL0     H 9136   5.734   3.805   8.752  0.8308 -2.1837 -0.1359
  827MOL0     H 9137   5.845   3.886   8.864 -1.0382 -3.3545  0.8872
  827MOL0     H 9138   5.808   4.002   8.581  1.1471 -0.3872 -0.0052
  827MOL0     H 9139   5.876   4.074   8.730  0.0884  0.2981 -1.7746
  827MOL0     H 9140   5.654   4.059   8.839  1.2715 -0.8614  0.2545
  827MOL0     H 9141   5.579   4.020   8.688 -0.7064  2.7416 -2.0463
  827MOL0     H 9142   5.757   4.255   8.729 -0.1557  1.0389  0.1779
  827MOL0     H 9143   5.661   4.229   8.583  0.2035  3.0513  0.9379
  827MOL0     H 9144   5.558   4.392   8.723  1.1789  0.4055 -0.2588
  827MOL0     H 9145   5.550   4.284   8.858  2.4262  0.5769 -0.5062
  827MOL0     H 9146   6.232   3.676   8.387 -1.6815 -0.8322  1.0209
  827MOL0     H 9147   6.480   3.626   8.298 -0.2212  0.2304  0.1686
  827MOL0     H 9148   6.915   3.556   8.427 -0.5759 -0.9130  1.0264
  827MOL0     H 9149   7.147   3.497   8.391  1.1186 -0.8064  1.0083
  827MOL0     H 9150   8.891   3.805   9.060 -1.9712 -1.2814 -1.2587
  827MOL0     H 9151   9.101   3.719   9.141 -2.9659  0.6915  0.5332
  827MOL0     H 9152   9.650   3.770   8.841  1.4706  0.3827  1.9613
  827MOL0     H 9153   9.866   3.677   8.890  1.1006  0.0955  1.6844
  827MOL0     H 9154  10.021   3.664   9.163  1.5014 -1.7249  2.3160
  827MOL0     H 9155  10.068   3.627   8.991  1.1157 -1.9660 -0.9238
  827MOL0     H 9156  10.239   3.561   9.129  0.8805 -0.7281  0.9005
  827MOL0     H 9157  10.124   3.469   9.236  0.9072  1.5282  0.2994
  827MOL0     H 9158  10.095   3.300   9.058 -0.6613  0.6612 -0.8795
  827MOL0     H 9159  10.275   3.326   9.101  1.4969 -1.2631 -2.2001
  827MOL0     H 9160  10.112   3.420   8.863  0.6401 -0.8403 -0.7074
  827MOL0     H 9161  10.280   3.485   8.891 -1.9566  0.8384 -3.1886
  827MOL0     H 9162  10.340   3.097   8.740  0.5560  0.5553  0.1908
  827MOL0     H 9163   9.691   3.397   9.169 -4.0945  0.6759  0.6016
  827MOL0     H 9164   9.480   3.459   9.103  2.4854 -2.5391  2.2996
  828MOL0     O 9165   9.408   3.516   8.405 -0.1118  0.0935 -0.1027
  828MOL0     C 9166   9.360   3.629   8.395  0.2989 -0.5801  0.6645
  828MOL0     O 9167   9.434   3.743   8.421  0.9383  0.3057 -0.4743
  828MOL0     C 9168   9.573   3.730   8.421 -0.8830  0.0857 -0.0987
  828MOL0     C 9169   9.647   3.631   8.494 -0.5047 -0.8286  0.4529
  828MOL0     C 9170   9.791   3.635   8.488 -0.0893  0.0188  0.6720
  828MOL0     C 9171   9.850   3.734   8.425 -0.2913 -0.4567 -0.2024
  828MOL0     O 9172   9.990   3.723   8.413 -0.4593 -1.1532  0.5953
  828MOL0     C 9173  10.077   3.841   8.432 -0.0325  0.2131  0.1071
  828MOL0     C 9174  10.216   3.836   8.360  0.8497 -0.3894  0.1163
  828MOL0     C 9175  10.216   3.827   8.198 -0.3175 -0.3844 -0.0193
  828MOL0     C 9176  10.150   3.951   8.144 -0.2457  1.0014  0.0457
  828MOL0     C 9177  10.169   3.974   7.995  0.2615  0.0352  0.0736
  828MOL0     C 9178  10.152   4.124   7.953 -1.0989 -0.0706  0.1913
  828MOL0     C 9179  10.232   4.160   7.829 -0.5545 -0.7594  0.9901
  828MOL0     C 9180  10.163   4.125   7.692 -0.2944  0.0334  0.3602
  828MOL0     N 9181  10.050   4.214   7.667 -0.5506 -0.4960 -0.1500
  828MOL0     C 9182   9.919   4.183   7.704 -0.0196 -0.4343  0.1443
  828MOL0     C 9183   9.849   4.289   7.653  0.7101  0.2636 -0.6983
  828MOL0     C 9184   9.701   4.313   7.658 -0.5668 -0.0452 -0.0406
  828MOL0     C 9185   9.657   4.407   7.771 -0.0198  0.7071 -0.0533
  828MOL0     C 9186   9.647   4.340   7.907 -0.5593 -0.0107 -0.2200
  828MOL0     C 9187   9.502   4.349   7.968 -0.1473 -1.3519 -0.0651
  828MOL0     O 9188   9.430   4.273   7.880  0.1878 -0.2265  0.3570
  828MOL0     C 9189   9.293   4.283   7.885 -1.0461 -0.1461 -0.1945
  828MOL0     C 9190   9.211   4.382   7.940  0.5005  0.0903 -0.0949
  828MOL0     C 9191   9.077   4.391   7.898  0.0559  0.3797 -0.4633
  828MOL0     C 9192   9.021   4.296   7.810  0.2619  0.5179 -0.4273
  828MOL0     C 9193   8.877   4.307   7.766 -0.8200 -0.3625  0.7900
  828MOL0     O 9194   8.805   4.413   7.802  0.6889 -0.7814  1.1342
  828MOL0     C 9195   8.667   4.429   7.806  1.0462 -0.5093 -0.2252
  828MOL0     C 9196   8.606   4.556   7.786 -0.3253  0.0727  0.7200
  828MOL0     C 9197   8.472   4.584   7.781  0.2029  0.3031 -0.8653
  828MOL0     C 9198   8.381   4.482   7.800 -0.0115  0.3699 -0.6451
  828MOL0     O 9199   8.245   4.516   7.814 -0.4220  0.1388 -0.6498
  828MOL0     C 9200   8.141   4.435   7.761 -0.2802 -0.0343 -0.5947
  828MOL0     C 9201   8.110   4.479   7.619 -0.1963  0.3795 -0.9035
  828MOL0     C 9202   8.034   4.609   7.626 -0.0899 -0.0162 -0.2104
  828MOL0     C 9203   8.012   4.656   7.484 -0.7302  1.0039  0.4210
  828MOL0     C 9204   8.134   4.715   7.427 -0.3354  0.3182  0.1648
  828MOL0     C 9205   8.107   4.822   7.321 -1.0171 -0.0345 -0.6461
  828MOL0     C 9206   8.114   4.965   7.377 -0.0810  0.0793 -0.1013
  828MOL0     C 9207   8.100   5.075   7.280  0.6709  0.1045 -0.6197
  828MOL0    Cl 9208   7.929   5.087   7.235  0.2316  0.2488  0.8158
  828MOL0     C 9209   8.437   4.352   7.831  0.3244 -1.4710  0.7930
  828MOL0     C 9210   8.575   4.329   7.830  0.1895 -0.1950 -0.2131
  828MOL0     O 9211   8.827   4.212   7.707 -0.0138 -0.2468 -0.3053
  828MOL0     C 9212   9.095   4.190   7.763  0.1786 -0.9128  0.1048
  828MOL0     C 9213   9.232   4.192   7.798  0.5329  0.2407  0.1627
  828MOL0     N 9214   9.932   4.371   7.579 -0.3556  0.6121 -0.0004
  828MOL0     N 9215  10.053   4.313   7.575 -0.2797 -0.8572  0.1816
  828MOL0     C 9216   9.786   3.834   8.356 -0.1877  0.9369 -0.4752
  828MOL0     C 9217   9.644   3.826   8.347  1.3420  0.7510  0.1923
  828MOL0     C 9218   9.215   3.639   8.401  1.1623 -0.6775  0.4497
  828MOL0     C 9219   9.139   3.524   8.380 -0.0232  0.4375  0.4574
  828MOL0     C 9220   8.998   3.527   8.362  0.3179 -0.2412 -0.6532
  828MOL0     C 9221   8.939   3.655   8.382 -0.4837 -0.5382  0.1937
  828MOL0     O 9222   8.808   3.687   8.359 -0.5053  0.7519 -0.3145
  828MOL0     C 9223   8.727   3.578   8.349 -0.6244  0.6395  0.3307
  828MOL0     C 9224   8.573   3.603   8.349  0.0746 -0.6337  0.2912
  828MOL0     C 9225   8.513   3.663   8.218  1.0362  0.5525 -0.0087
  828MOL0     C 9226   8.361   3.684   8.245 -0.1456 -0.5947  0.5473
  828MOL0     C 9227   8.292   3.547   8.243 -0.1224 -0.3729 -0.1473
  828MOL0     C 9228   8.244   3.440   8.261 -0.2122  0.3475  0.7665
  828MOL0     C 9229   9.013   3.770   8.402 -0.1749  0.8385 -0.8175
  828MOL0     C 9230   9.148   3.766   8.413 -0.2847  0.4857 -0.0139
  828MOL0     H 9231   9.594   3.554   8.551  2.9112 -3.6344  0.1653
  828MOL0     H 9232   9.853   3.556   8.530  1.5558 -2.7681 -5.8515
  828MOL0     H 9233  10.096   3.844   8.540  1.5640 -2.1928 -0.0282
  828MOL0     H 9234  10.034   3.935   8.396 -0.1098 -0.8391 -2.7579
  828MOL0     H 9235  10.277   3.750   8.388  2.7855  1.3107  1.4083
  828MOL0     H 9236  10.279   3.919   8.394  0.2899 -0.3388  1.0946
  828MOL0     H 9237  10.162   3.736   8.171 -1.3310 -0.2354  1.3969
  828MOL0     H 9238  10.320   3.820   8.164 -0.7787  1.7591 -2.1325
  828MOL0     H 9239  10.041   3.940   8.157 -0.0323  1.7640  3.3245
  828MOL0     H 9240  10.187   4.035   8.203  1.6037 -2.1994  3.9335
  828MOL0     H 9241  10.092   3.920   7.938 -0.6002  1.3113  0.0008
  828MOL0     H 9242  10.272   3.944   7.972  0.8036 -1.3283  3.6623
  828MOL0     H 9243  10.179   4.200   8.027  0.3745  1.6584 -1.9863
  828MOL0     H 9244  10.043   4.130   7.945 -1.0252 -0.8891 -2.1602
  828MOL0     H 9245  10.254   4.267   7.832 -0.2540 -0.8110  0.7228
  828MOL0     H 9246  10.330   4.112   7.821 -0.7901 -1.0059 -0.7397
  828MOL0     H 9247  10.140   4.018   7.683 -2.5582  0.6524 -2.8054
  828MOL0     H 9248  10.237   4.158   7.619 -0.0114 -3.4368 -1.1276
  828MOL0     H 9249   9.877   4.095   7.754 -1.7346  1.0628  1.5167
  828MOL0     H 9250   9.663   4.214   7.685  1.1765 -0.3875  1.3463
  828MOL0     H 9251   9.663   4.364   7.569 -0.3910  1.5399  0.7664
  828MOL0     H 9252   9.563   4.458   7.747 -0.2741  1.0242  1.4801
  828MOL0     H 9253   9.731   4.488   7.779 -0.9728  1.4271  2.2222
  828MOL0     H 9254   9.687   4.240   7.892  0.5822  0.7819 -2.9816
  828MOL0     H 9255   9.723   4.387   7.970 -1.9144  0.0579  1.4446
  828MOL0     H 9256   9.462   4.451   7.975  0.1796 -1.1593 -0.9374
  828MOL0     H 9257   9.491   4.298   8.065 -0.7193 -3.1451 -1.0295
  828MOL0     H 9258   9.250   4.458   8.007  0.9460 -2.3581  2.6340
  828MOL0     H 9259   9.010   4.469   7.933  0.4038  0.8623 -0.8647
  828MOL0     H 9260   8.678   4.636   7.774  0.8103 -0.7261  2.0673
  828MOL0     H 9261   8.431   4.684   7.770  0.2324  0.3380 -0.6650
  828MOL0     H 9262   8.057   4.444   7.831  1.7838 -1.3846  2.2214
  828MOL0     H 9263   8.154   4.327   7.754 -2.3443 -0.4612  1.2242
  828MOL0     H 9264   8.040   4.406   7.576 -1.0742  0.5206  0.2442
  828MOL0     H 9265   8.205   4.484   7.566  0.8350 -2.2153  0.5168
  828MOL0     H 9266   8.079   4.693   7.680 -0.4830  0.6808 -0.9499
  828MOL0     H 9267   7.933   4.594   7.666  0.1793  0.1298  0.5478
  828MOL0     H 9268   7.974   4.576   7.420 -1.5740  0.2282  1.8231
  828MOL0     H 9269   7.931   4.730   7.480 -0.5697  1.2361  1.1963
  828MOL0     H 9270   8.196   4.632   7.389 -1.2986 -1.0366  1.4251
  828MOL0     H 9271   8.193   4.747   7.513 -2.1176  3.0705  0.4785
  828MOL0     H 9272   8.011   4.793   7.279 -1.0100 -0.9092 -0.0746
  828MOL0     H 9273   8.197   4.818   7.258  0.2525  2.4114  0.8556
  828MOL0     H 9274   8.036   4.975   7.453  2.3514  1.1657  2.4423
  828MOL0     H 9275   8.203   4.973   7.440  0.7651 -3.0831 -0.7472
  828MOL0     H 9276   8.172   5.067   7.197  3.0035  1.1747  1.1982
  828MOL0     H 9277   8.146   5.160   7.331  0.3586 -0.4458  0.6139
  828MOL0     H 9278   8.370   4.272   7.863 -0.4570 -2.0510 -1.9780
  828MOL0     H 9279   8.616   4.233   7.862 -1.2867 -0.4773  0.9276
  828MOL0     H 9280   9.056   4.109   7.703 -1.5754  0.1554 -0.2718
  828MOL0     H 9281   9.302   4.115   7.765  1.0631  0.7025  0.1946
  828MOL0     H 9282   9.842   3.896   8.287 -0.7511  0.6370 -1.2269
  828MOL0     H 9283   9.586   3.902   8.295  2.4843  2.4122  1.2293
  828MOL0     H 9284   9.185   3.427   8.365 -1.5892 -0.0029 -2.1515
  828MOL0     H 9285   8.945   3.436   8.338 -0.7783  1.0036 -3.3259
  828MOL0     H 9286   8.747   3.525   8.443  2.6393  4.2643  1.9755
  828MOL0     H 9287   8.743   3.515   8.262 -4.5705  0.3152 -0.3342
  828MOL0     H 9288   8.531   3.502   8.358 -0.3300 -1.0584 -4.3643
  828MOL0     H 9289   8.549   3.659   8.440  1.2749  1.1043 -0.4090
  828MOL0     H 9290   8.531   3.601   8.130  1.9098  0.9176 -0.1015
  828MOL0     H 9291   8.556   3.761   8.195 -2.0212  1.8594 -0.5739
  828MOL0     H 9292   8.347   3.730   8.343  1.2013 -1.7286  1.2977
  828MOL0     H 9293   8.329   3.747   8.162 -1.3807 -0.5590  1.0374
  828MOL0     H 9294   8.213   3.341   8.285  4.4989 -1.6089 -0.1605
  828MOL0     H 9295   8.959   3.864   8.397 -1.1899  0.2421 -1.4437
  828MOL0     H 9296   9.209   3.854   8.433  1.5164 -0.8529  0.6623
  829MOL0     O 9297   5.334   0.735   1.368  0.6644 -0.7627 -0.2498
  829MOL0     C 9298   5.384   0.844   1.338  0.5480  1.2591 -0.0088
  829MOL0     O 9299   5.321   0.953   1.284 -0.0733  0.1737  0.8128
  829MOL0     C 9300   5.198   0.945   1.218  0.2339 -0.0015 -0.5716
  829MOL0     C 9301   5.130   1.071   1.213  0.0717  0.3805 -0.1624
  829MOL0     C 9302   4.994   1.075   1.183 -0.0010  0.2679 -0.3221
  829MOL0     C 9303   4.921   0.952   1.144 -0.0234 -1.1297  0.1692
  829MOL0     O 9304   4.791   0.956   1.103 -0.5447  0.0920 -0.1435
  829MOL0     C 9305   4.734   0.841   1.030 -0.7331  0.5832  0.3839
  829MOL0     C 9306   4.605   0.866   0.958  0.6117  0.8583 -0.2760
  829MOL0     C 9307   4.500   0.846   1.071  0.0639 -0.3058 -0.1643
  829MOL0     C 9308   4.373   0.919   1.026 -0.8000 -0.1133  0.0426
  829MOL0     C 9309   4.239   0.877   1.099  0.0026  0.4254  0.2929
  829MOL0     C 9310   4.184   0.742   1.047  0.0718  0.5715  0.1731
  829MOL0     C 9311   4.073   0.687   1.139  0.0261 -0.1162  0.3918
  829MOL0     C 9312   3.938   0.712   1.071  0.0238  0.0745  0.3743
  829MOL0     N 9313   3.825   0.663   1.151 -0.3267  0.2629 -0.2247
  829MOL0     C 9314   3.790   0.538   1.199 -0.1179 -0.5784  1.0498
  829MOL0     C 9315   3.658   0.545   1.233 -0.1017 -0.3046  0.2378
  829MOL0     C 9316   3.585   0.424   1.298  0.0125  0.0184  0.5230
  829MOL0     C 9317   3.439   0.445   1.293 -0.8753 -0.8406  0.0942
  829MOL0     C 9318   3.379   0.450   1.155  0.2507 -0.4252 -0.2574
  829MOL0     C 9319   3.230   0.473   1.155 -0.8458  0.0745 -0.0793
  829MOL0     O 9320   3.179   0.532   1.032 -0.4857 -0.5803 -0.0557
  829MOL0     C 9321   3.078   0.458   0.975  1.6019 -0.2594  0.0974
  829MOL0     C 9322   3.098   0.402   0.844 -0.8625 -0.2073 -1.1282
  829MOL0     C 9323   2.987   0.339   0.781 -0.2402  0.6282  1.1071
  829MOL0     C 9324   2.862   0.337   0.840  0.6658 -0.3463 -0.0125
  829MOL0     C 9325   2.750   0.259   0.785  0.2260  0.1062 -0.8797
  829MOL0     O 9326   2.648   0.216   0.873 -0.0943  0.5302  0.2070
  829MOL0     C 9327   2.546   0.151   0.812  0.5562  0.2742 -0.8406
  829MOL0     C 9328   2.504   0.046   0.889  0.2839  0.1044 -0.5799
  829MOL0     C 9329   2.412  -0.048   0.844 -0.4733 -0.0093 -0.0067
  829MOL0     C 9330   2.364  -0.041   0.720  0.8409 -0.2643 -0.1038
  829MOL0     O 9331   2.273  -0.135   0.695 -0.6016  0.3309 -0.4291
  829MOL0     C 9332   2.246  -0.173   0.563  0.7601  0.1046 -0.0779
  829MOL0     C 9333   2.112  -0.114   0.523  0.1695 -0.4868 -0.5520
  829MOL0     C 9334   2.056  -0.161   0.384  0.6264 -0.0320  0.0207
  829MOL0     C 9335   1.927  -0.086   0.338 -0.2450  0.2325 -0.5764
  829MOL0     C 9336   1.810  -0.115   0.429 -0.6580  0.0221 -0.0343
  829MOL0     C 9337   1.783  -0.262   0.459 -0.3611  0.0498 -0.6023
  829MOL0     C 9338   1.647  -0.307   0.515 -0.1890  0.1251  0.0661
  829MOL0     C 9339   1.536  -0.267   0.409 -0.2769  0.7833 -0.3631
  829MOL0    Cl 9340   1.382  -0.350   0.430 -0.2210 -0.3809  0.1148
  829MOL0     C 9341   2.386   0.075   0.642 -0.0804 -0.7247  0.6306
  829MOL0     C 9342   2.479   0.168   0.689 -0.1489  0.0377 -0.5262
  829MOL0     O 9343   2.766   0.224   0.671 -0.0134 -0.6759 -0.3958
  829MOL0     C 9344   2.842   0.396   0.968  0.0713  0.6471 -0.3438
  829MOL0     C 9345   2.950   0.467   1.027  0.2273  0.0143 -0.1750
  829MOL0     N 9346   3.620   0.676   1.228  0.6847  0.4328  0.1173
  829MOL0     N 9347   3.714   0.740   1.170 -0.5344 -0.4509  0.4943
  829MOL0     C 9348   4.993   0.830   1.129  0.0304 -0.7625 -1.0894
  829MOL0     C 9349   5.129   0.826   1.173 -0.4591 -0.5859 -0.1726
  829MOL0     C 9350   5.531   0.851   1.360  0.3852  0.0962  0.4333
  829MOL0     C 9351   5.590   0.979   1.338 -0.2138  0.4448 -1.1397
  829MOL0     C 9352   5.727   0.994   1.335  0.6132 -0.4578 -0.0545
  829MOL0     C 9353   5.816   0.882   1.340 -0.3600  0.5189 -1.0849
  829MOL0     O 9354   5.954   0.913   1.339  0.0397 -0.3936  0.8612
  829MOL0     C 9355   6.049   0.802   1.317 -0.4815 -0.3289 -0.8176
  829MOL0     C 9356   6.176   0.865   1.258  0.7821 -0.5164  0.2729
  829MOL0     C 9357   6.291   0.758   1.222 -0.7632  0.1906 -0.2565
  829MOL0     C 9358   6.414   0.831   1.155  1.0248 -0.4000 -0.0283
  829MOL0     C 9359   6.544   0.783   1.212 -0.1535  1.1868 -0.1681
  829MOL0     C 9360   6.655   0.733   1.241  0.0734 -0.3190  0.2575
  829MOL0     C 9361   5.760   0.757   1.359  1.4031  0.4728 -0.5515
  829MOL0     C 9362   5.621   0.738   1.366  0.2223  0.1766  0.7343
  829MOL0     H 9363   5.181   1.163   1.240 -0.6728  0.0442  2.7226
  829MOL0     H 9364   4.935   1.166   1.188 -2.0868 -0.8907 -1.9615
  829MOL0     H 9365   4.737   0.751   1.092 -3.0564  1.9504  2.6336
  829MOL0     H 9366   4.808   0.819   0.951  1.6114  1.3192  2.2531
  829MOL0     H 9367   4.579   0.796   0.879 -2.1693  1.3525  0.0838
  829MOL0     H 9368   4.594   0.966   0.915 -2.9406  0.1843 -1.2017
  829MOL0     H 9369   4.532   0.877   1.172  0.1688  1.2248 -0.6432
  829MOL0     H 9370   4.476   0.740   1.086 -2.4847  0.3679  1.0988
  829MOL0     H 9371   4.402   1.023   1.039  1.2716 -0.4245 -1.5396
  829MOL0     H 9372   4.356   0.890   0.922 -3.5967  0.5623  0.2424
  829MOL0     H 9373   4.165   0.956   1.082  0.9952  0.9510 -1.9333
  829MOL0     H 9374   4.272   0.862   1.202  1.8349  0.0003 -0.3179
  829MOL0     H 9375   4.267   0.672   1.058 -0.0015  0.4687  0.0787
  829MOL0     H 9376   4.164   0.746   0.939 -1.1640 -2.9961  0.1131
  829MOL0     H 9377   4.094   0.581   1.159  0.2444 -0.5111 -1.6555
  829MOL0     H 9378   4.080   0.743   1.232 -2.4714  0.0567  0.5227
  829MOL0     H 9379   3.931   0.670   0.970  1.5369 -2.2146  1.1644
  829MOL0     H 9380   3.917   0.819   1.059 -1.4998 -0.2234  0.1906
  829MOL0     H 9381   3.849   0.449   1.216  1.4948  0.8669  3.7354
  829MOL0     H 9382   3.622   0.413   1.400 -1.8062 -2.5010  1.0134
  829MOL0     H 9383   3.602   0.330   1.244  1.2485 -0.7474  2.1519
  829MOL0     H 9384   3.419   0.537   1.348 -0.7701  0.0117 -1.2462
  829MOL0     H 9385   3.398   0.354   1.339 -0.1675 -2.0516 -1.5773
  829MOL0     H 9386   3.421   0.521   1.083 -3.3321  1.2045 -0.9825
  829MOL0     H 9387   3.398   0.349   1.117  2.2244  1.2356 -4.3386
  829MOL0     H 9388   3.220   0.543   1.238  1.1173 -2.0679  2.1241
  829MOL0     H 9389   3.174   0.382   1.179 -4.5285  1.9075 -0.8589
  829MOL0     H 9390   3.195   0.413   0.798 -0.3247 -1.7485 -0.4531
  829MOL0     H 9391   3.013   0.293   0.687  2.8799  1.6894  1.3549
  829MOL0     H 9392   2.551   0.047   0.987  2.5763  2.9296 -1.5941
  829MOL0     H 9393   2.375  -0.126   0.911 -1.1824  1.4630  1.3798
  829MOL0     H 9394   2.234  -0.282   0.562 -0.5051  0.2228  0.4995
  829MOL0     H 9395   2.328  -0.153   0.493  2.2723 -3.3208  0.5052
  829MOL0     H 9396   2.109  -0.005   0.515  0.1495 -0.4317  0.2065
  829MOL0     H 9397   2.031  -0.118   0.596  0.1176  0.6260 -0.5185
  829MOL0     H 9398   2.047  -0.270   0.378 -2.7931  0.2455 -2.6687
  829MOL0     H 9399   2.122  -0.129   0.303 -0.1771 -0.1230 -0.6819
  829MOL0     H 9400   1.947   0.022   0.343  1.4284 -0.0953  0.4327
  829MOL0     H 9401   1.898  -0.122   0.239  1.7350 -0.2940 -1.0031
  829MOL0     H 9402   1.722  -0.071   0.381 -0.2959 -2.1990 -3.0360
  829MOL0     H 9403   1.826  -0.067   0.526 -0.5397  1.9146 -0.9465
  829MOL0     H 9404   1.858  -0.299   0.530 -0.4533 -0.8755 -0.9661
  829MOL0     H 9405   1.794  -0.320   0.367 -1.2434 -1.7567  0.3735
  829MOL0     H 9406   1.649  -0.415   0.530  1.0915 -0.0759 -1.3242
  829MOL0     H 9407   1.633  -0.270   0.617 -1.0239 -2.3716  0.9311
  829MOL0     H 9408   1.572  -0.279   0.306  0.6899 -0.1499  0.0677
  829MOL0     H 9409   1.525  -0.159   0.425  2.1026  1.0342 -0.0524
  829MOL0     H 9410   2.337   0.085   0.546 -0.0331 -1.5678  0.5101
  829MOL0     H 9411   2.512   0.249   0.625  0.8853 -0.7219 -1.0070
  829MOL0     H 9412   2.746   0.385   1.019 -0.1209  1.5615 -0.4886
  829MOL0     H 9413   2.945   0.524   1.120  1.8651  0.3749 -0.2707
  829MOL0     H 9414   4.958   0.730   1.105  1.5449 -0.8585 -3.1414
  829MOL0     H 9415   5.183   0.732   1.169  0.1541 -0.2067 -3.6071
  829MOL0     H 9416   5.531   1.068   1.317  0.7099  0.6984 -2.8592
  829MOL0     H 9417   5.760   1.097   1.322 -0.1310  0.0731  1.9878
  829MOL0     H 9418   6.003   0.733   1.245 -2.3470 -1.7696  1.5725
  829MOL0     H 9419   6.060   0.752   1.414  1.6289  1.6891  0.0860
  829MOL0     H 9420   6.153   0.912   1.162  2.4689  2.3004  1.1203
  829MOL0     H 9421   6.217   0.942   1.324  1.3313 -2.0537  1.7947
  829MOL0     H 9422   6.247   0.683   1.156  2.6789 -0.8809 -1.5740
  829MOL0     H 9423   6.327   0.706   1.311 -0.8281  1.4428  0.5293
  829MOL0     H 9424   6.424   0.826   1.046  2.5613  1.8075 -0.0596
  829MOL0     H 9425   6.407   0.940   1.168  1.6777  0.1080 -3.0883
  829MOL0     H 9426   6.751   0.709   1.280  0.1671  2.6125  2.1775
  829MOL0     H 9427   5.818   0.665   1.357 -0.2579 -0.7713 -5.4382
  829MOL0     H 9428   5.592   0.634   1.361  0.4628  0.0397  1.9689
  830MOL0     O 9429   6.377   2.667   0.616  0.6473  0.3066  0.3524
  830MOL0     C 9430   6.398   2.597   0.721  0.9817 -0.6779 -0.0737
  830MOL0     O 9431   6.301   2.529   0.787  0.5009 -0.1651 -0.2680
  830MOL0     C 9432   6.171   2.537   0.744 -0.4186 -0.1406  0.0824
  830MOL0     C 9433   6.121   2.526   0.614 -0.2011 -0.0209 -0.5371
  830MOL0     C 9434   5.987   2.534   0.578  0.2708 -0.2136 -0.0562
  830MOL0     C 9435   5.889   2.546   0.683  0.3537 -0.0319 -0.1004
  830MOL0     O 9436   5.758   2.561   0.658  0.9577 -0.0676  0.3180
  830MOL0     C 9437   5.719   2.551   0.520 -0.3964 -0.3040 -0.5545
  830MOL0     C 9438   5.568   2.582   0.514 -1.0570 -0.2616 -0.4533
  830MOL0     C 9439   5.521   2.599   0.371  0.4966  0.0516 -0.2194
  830MOL0     C 9440   5.376   2.671   0.377  0.3846 -0.2794  0.2744
  830MOL0     C 9441   5.330   2.708   0.241 -0.0939 -0.2444 -0.0446
  830MOL0     C 9442   5.222   2.811   0.257 -1.3218  0.4076 -0.0061
  830MOL0     C 9443   5.096   2.755   0.305 -0.1632  0.4096  0.3255
  830MOL0     C 9444   4.986   2.843   0.257 -0.1579  0.0317 -0.4718
  830MOL0     N 9445   4.871   2.800   0.331 -0.6031 -0.5425 -0.2028
  830MOL0     C 9446   4.769   2.712   0.301  0.4796 -0.2775  0.1520
  830MOL0     C 9447   4.679   2.708   0.396  0.1860  0.7521  0.0192
  830MOL0     C 9448   4.551   2.630   0.382  0.5813 -0.0406  0.9492
  830MOL0     C 9449   4.457   2.696   0.277 -0.3431 -0.5259  0.4442
  830MOL0     C 9450   4.409   2.844   0.320  0.2377 -0.8056 -0.8439
  830MOL0     C 9451   4.331   2.856   0.460  0.4792  0.3911  0.2008
  830MOL0     O 9452   4.218   2.783   0.474 -0.7232  0.2293  0.0798
  830MOL0     C 9453   4.098   2.838   0.428  0.3609  0.5689  0.6576
  830MOL0     C 9454   3.985   2.751   0.438 -0.3160 -1.1838 -0.3258
  830MOL0     C 9455   3.858   2.787   0.395 -0.0696  0.4724  0.4830
  830MOL0     C 9456   3.835   2.912   0.333 -0.4958 -0.0954  0.4894
  830MOL0     C 9457   3.696   2.942   0.293  1.0955  0.8828  0.7626
  830MOL0     O 9458   3.588   2.859   0.319  0.6986 -0.3923  0.1055
  830MOL0     C 9459   3.468   2.884   0.251 -0.7284  0.8462 -0.7623
  830MOL0     C 9460   3.359   2.901   0.332 -0.2818  0.2930 -1.1518
  830MOL0     C 9461   3.230   2.907   0.279 -0.2526  0.2168 -0.1367
  830MOL0     C 9462   3.205   2.895   0.142  0.8109  1.0204 -0.9810
  830MOL0     O 9463   3.081   2.864   0.082 -0.4858 -0.3430 -0.5507
  830MOL0     C 9464   2.966   2.828   0.167  0.4872  0.0505  0.0063
  830MOL0     C 9465   2.850   2.847   0.071  1.6573 -0.1083 -0.0916
  830MOL0     C 9466   2.725   2.821   0.174 -0.2945 -0.5023  0.2592
  830MOL0     C 9467   2.598   2.837   0.081 -1.0753 -0.4752 -0.0154
  830MOL0     C 9468   2.465   2.834   0.154  0.0756 -0.1590  0.1509
  830MOL0     C 9469   2.346   2.832   0.060  0.2622  0.0092  0.5620
  830MOL0     C 9470   2.226   2.842   0.151  1.0078  0.6542 -0.3714
  830MOL0     C 9471   2.120   2.940   0.096 -0.4407 -0.0473 -0.2006
  830MOL0    Cl 9472   2.010   2.844  -0.003  0.2719  0.1584 -0.0187
  830MOL0     C 9473   3.322   2.877   0.062  0.8768  0.1384 -0.0088
  830MOL0     C 9474   3.454   2.871   0.113  0.2217 -0.5547  0.0037
  830MOL0     O 9475   3.685   3.046   0.228 -0.3621  0.5543 -0.2322
  830MOL0     C 9476   3.948   3.009   0.333  0.1692  0.2830 -0.0447
  830MOL0     C 9477   4.076   2.971   0.371  0.2548 -0.0670  0.4149
  830MOL0     N 9478   4.708   2.806   0.485  0.1734 -0.6535  0.5488
  830MOL0     N 9479   4.813   2.867   0.441  0.2550  0.5057 -0.2769
  830MOL0     C 9480   5.929   2.548   0.816  0.6409  0.3494  0.4274
  830MOL0     C 9481   6.068   2.549   0.845 -0.2161 -0.7257 -0.2972
  830MOL0     C 9482   6.531   2.609   0.779  0.0425  0.1080 -0.0899
  830MOL0     C 9483   6.634   2.656   0.701  0.2312  0.1267 -0.5998
  830MOL0     C 9484   6.749   2.705   0.757 -0.1324 -0.1110  0.3605
  830MOL0     C 9485   6.766   2.685   0.902 -0.4208 -0.0930 -0.2322
  830MOL0     O 9486   6.880   2.714   0.975  0.4271  0.1909  0.2498
  830MOL0     C 9487   7.003   2.689   0.913  0.6277  0.3421  0.1547
  830MOL0     C 9488   7.118   2.694   1.010  1.5866 -0.7104 -0.4579
  830MOL0     C 9489   7.254   2.679   0.939 -0.4694 -0.3092 -0.3184
  830MOL0     C 9490   7.362   2.657   1.049 -0.0329 -0.4217 -0.1286
  830MOL0     C 9491   7.482   2.592   0.990  0.1325 -0.1471  0.1489
  830MOL0     C 9492   7.566   2.536   0.929  0.3994  0.4281 -0.5247
  830MOL0     C 9493   6.657   2.648   0.974  0.6632  0.6208 -0.6003
  830MOL0     C 9494   6.537   2.602   0.921 -0.2155 -0.4209  0.5850
  830MOL0     H 9495   6.203   2.511   0.544  0.0622  0.0587 -0.2469
  830MOL0     H 9496   5.971   2.524   0.471  0.5095  0.5219 -0.1673
  830MOL0     H 9497   5.735   2.450   0.480  2.5382  0.0763 -0.5308
  830MOL0     H 9498   5.767   2.630   0.461 -0.7673  0.1358 -0.2750
  830MOL0     H 9499   5.546   2.676   0.566 -1.4349 -0.1356 -0.8327
  830MOL0     H 9500   5.506   2.522   0.582 -0.3348  0.5600  0.9887
  830MOL0     H 9501   5.513   2.500   0.326  0.2056  1.6802 -4.1426
  830MOL0     H 9502   5.588   2.658   0.308 -1.4488 -1.0613 -3.5499
  830MOL0     H 9503   5.307   2.607   0.434 -1.6416  2.9051  1.6673
  830MOL0     H 9504   5.379   2.765   0.434  0.5450 -0.2855  0.2745
  830MOL0     H 9505   5.293   2.619   0.188 -0.0452 -1.1699  1.4247
  830MOL0     H 9506   5.410   2.760   0.187 -1.8902  2.6367 -0.1190
  830MOL0     H 9507   5.215   2.857   0.158 -2.5081  3.1022  1.2404
  830MOL0     H 9508   5.255   2.902   0.308 -2.1147  1.0550 -0.6311
  830MOL0     H 9509   5.087   2.658   0.256  1.4202  1.1314 -1.5305
  830MOL0     H 9510   5.102   2.742   0.413  3.7992 -1.3717  0.0377
  830MOL0     H 9511   4.959   2.844   0.151  0.5487 -1.7035 -0.7078
  830MOL0     H 9512   5.012   2.946   0.285  1.0562 -0.4655  0.3266
  830MOL0     H 9513   4.758   2.655   0.210  1.9703  1.7715 -1.4135
  830MOL0     H 9514   4.499   2.625   0.478 -1.6319 -1.2889 -0.2176
  830MOL0     H 9515   4.563   2.525   0.353 -0.8485 -0.2082  0.8874
  830MOL0     H 9516   4.370   2.637   0.246  0.3637 -0.2845 -2.2033
  830MOL0     H 9517   4.507   2.699   0.180  0.8241 -0.2739  1.0369
  830MOL0     H 9518   4.497   2.909   0.326 -0.9165  0.7091  1.0347
  830MOL0     H 9519   4.334   2.877   0.247 -1.5461  1.3910  1.7631
  830MOL0     H 9520   4.314   2.963   0.467  0.9591  0.4605  0.3800
  830MOL0     H 9521   4.392   2.823   0.545  0.4694  1.9423  0.8462
  830MOL0     H 9522   3.990   2.657   0.491  0.4787 -0.1871  1.4529
  830MOL0     H 9523   3.778   2.715   0.407 -0.1730  0.8806  2.9439
  830MOL0     H 9524   3.373   2.911   0.439 -0.5804  1.5412 -1.2094
  830MOL0     H 9525   3.151   2.919   0.352  0.2509 -2.7134  1.0245
  830MOL0     H 9526   2.948   2.903   0.245 -2.8226  0.2294 -0.7533
  830MOL0     H 9527   2.979   2.728   0.210  1.8658 -0.9734 -2.5329
  830MOL0     H 9528   2.843   2.790  -0.022 -0.3818 -0.7304  0.3850
  830MOL0     H 9529   2.837   2.953   0.050  1.1455 -0.1620 -0.0480
  830MOL0     H 9530   2.728   2.893   0.257  0.6563  0.5982 -0.6949
  830MOL0     H 9531   2.732   2.722   0.218 -0.9783  0.1192  1.8286
  830MOL0     H 9532   2.601   2.929   0.023 -1.6114  0.5340  1.4916
  830MOL0     H 9533   2.609   2.756   0.008  2.4934 -2.1676  2.0808
  830MOL0     H 9534   2.450   2.926   0.211 -1.3375  0.8634 -1.7537
  830MOL0     H 9535   2.457   2.749   0.222  0.3184 -0.0214  0.3536
  830MOL0     H 9536   2.334   2.737   0.006  1.3703 -1.1773  2.2788
  830MOL0     H 9537   2.350   2.913  -0.013 -0.2757 -0.4169  0.0475
  830MOL0     H 9538   2.180   2.746   0.178 -0.7092  2.2270  2.9426
  830MOL0     H 9539   2.244   2.883   0.251 -1.1738 -1.2682  0.9290
  830MOL0     H 9540   2.169   3.023   0.044 -0.2356  1.6449  2.4796
  830MOL0     H 9541   2.074   2.992   0.181  4.4348  0.1238  2.7561
  830MOL0     H 9542   3.328   2.867  -0.046  0.9108 -1.5917  0.1227
  830MOL0     H 9543   3.535   2.869   0.041  0.4305 -1.1348  0.2541
  830MOL0     H 9544   3.943   3.113   0.300  3.7331  1.3632  2.2139
  830MOL0     H 9545   4.155   3.044   0.355  0.0985 -0.5604 -3.6263
  830MOL0     H 9546   5.850   2.558   0.889 -1.0104 -0.9173 -1.1088
  830MOL0     H 9547   6.105   2.544   0.947 -0.0707 -1.3214 -0.3766
  830MOL0     H 9548   6.628   2.666   0.593  0.1547  0.0764 -0.6001
  830MOL0     H 9549   6.831   2.736   0.693 -0.9650  0.0509 -0.6324
  830MOL0     H 9550   7.017   2.760   0.831  0.5566  0.5591  0.3279
  830MOL0     H 9551   6.997   2.599   0.851 -0.8930  2.0518 -2.3475
  830MOL0     H 9552   7.124   2.791   1.059  1.5979 -1.1678  0.4768
  830MOL0     H 9553   7.106   2.611   1.080 -0.2970  0.0204  0.1380
  830MOL0     H 9554   7.276   2.763   0.873 -1.2388 -0.6144 -0.9770
  830MOL0     H 9555   7.242   2.593   0.873 -2.6460 -1.5643  1.5610
  830MOL0     H 9556   7.371   2.758   1.090 -3.5696 -0.3978  0.9610
  830MOL0     H 9557   7.326   2.587   1.124 -1.0264 -0.3595 -0.5244
  830MOL0     H 9558   7.640   2.484   0.871  0.6678  0.1611  0.0557
  830MOL0     H 9559   6.648   2.633   1.082 -2.4192  0.7111 -0.7810
  830MOL0     H 9560   6.455   2.579   0.988 -1.5781  0.6850 -0.6618
  831MOL0     O 9561  10.779  10.038   2.050  0.5062  0.4544  0.4030
  831MOL0     C 9562  10.811   9.971   2.154 -0.8804 -0.0279  0.4052
  831MOL0     O 9563  10.729   9.934   2.249 -1.2779 -0.4413 -0.3584
  831MOL0     C 9564  10.599   9.965   2.257  0.7887 -0.3697  1.0686
  831MOL0     C 9565  10.507   9.869   2.223 -0.3916 -0.5225  0.2435
  831MOL0     C 9566  10.372   9.891   2.262 -0.6920  0.4295  0.3161
  831MOL0     C 9567  10.321  10.014   2.302  0.3338 -0.0090 -0.7241
  831MOL0     O 9568  10.185  10.021   2.317  0.0705 -0.0093  0.1318
  831MOL0     C 9569  10.115  10.131   2.269 -0.2683  0.0834 -0.9967
  831MOL0     C 9570   9.968  10.118   2.314 -0.8509  0.4047 -0.2629
  831MOL0     C 9571   9.920   9.974   2.295  0.2597 -0.2938 -0.6248
  831MOL0     C 9572   9.763   9.966   2.290  0.1003  0.2540 -0.9274
  831MOL0     C 9573   9.737   9.822   2.336 -0.9546 -0.2158 -0.5451
  831MOL0     C 9574   9.593   9.777   2.316 -0.9110  0.4177 -1.3455
  831MOL0     C 9575   9.531   9.763   2.457 -0.1610  0.0382  1.0030
  831MOL0     C 9576   9.400   9.696   2.451  0.8511  0.3224  0.9898
  831MOL0     N 9577   9.407   9.557   2.410  1.2320  0.5756  1.5943
  831MOL0     C 9578   9.435   9.449   2.483  0.1190  0.5040 -0.2766
  831MOL0     C 9579   9.409   9.344   2.409 -0.5630 -0.5451  0.1084
  831MOL0     C 9580   9.412   9.209   2.469  0.0884  0.4472  0.2803
  831MOL0     C 9581   9.275   9.177   2.539  0.5341  0.3012  1.1284
  831MOL0     C 9582   9.166   9.150   2.436  0.5925  0.4300 -0.3264
  831MOL0     C 9583   9.172   9.007   2.368 -0.6595 -0.2175  0.4579
  831MOL0     O 9584   9.178   8.894   2.458 -0.0852 -1.0155  0.1417
  831MOL0     C 9585   9.058   8.846   2.510 -0.5562  0.9088  0.6187
  831MOL0     C 9586   8.933   8.885   2.471  0.2473  0.2517  0.0365
  831MOL0     C 9587   8.822   8.847   2.546  0.5925  0.3891 -0.1678
  831MOL0     C 9588   8.823   8.758   2.651 -0.3874 -0.4090 -0.9126
  831MOL0     C 9589   8.696   8.718   2.719 -0.0425 -0.4691  0.0092
  831MOL0     O 9590   8.581   8.788   2.684 -0.0896 -0.5086  0.0687
  831MOL0     C 9591   8.466   8.777   2.753  0.0623  0.3883  0.1046
  831MOL0     C 9592   8.432   8.745   2.881  0.1418  0.5064 -0.1054
  831MOL0     C 9593   8.302   8.746   2.930 -0.0502 -0.2127 -0.0966
  831MOL0     C 9594   8.198   8.776   2.846  0.7081 -1.0099 -0.6860
  831MOL0     O 9595   8.067   8.785   2.884 -0.4895  0.5441 -0.0877
  831MOL0     C 9596   8.013   8.701   2.986 -0.4857 -0.7188 -0.1643
  831MOL0     C 9597   7.857   8.678   2.987 -0.1954  0.3282 -0.5001
  831MOL0     C 9598   7.790   8.816   2.980  0.0564 -0.2329 -0.1107
  831MOL0     C 9599   7.653   8.815   3.056 -0.4639  0.0657 -0.5616
  831MOL0     C 9600   7.582   8.953   3.013 -1.2726  0.4822  0.3181
  831MOL0     C 9601   7.440   8.961   3.071 -0.5045  0.4365  0.1533
  831MOL0     C 9602   7.348   8.841   3.055  0.5045 -0.3040  0.3006
  831MOL0     C 9603   7.208   8.888   3.091 -0.1041  0.2737 -0.4143
  831MOL0    Cl 9604   7.098   8.749   3.054 -0.3900  0.1349  0.1651
  831MOL0     C 9605   8.225   8.816   2.716  0.0549  0.2994 -0.7523
  831MOL0     C 9606   8.359   8.810   2.666 -0.5100 -0.4216 -0.6871
  831MOL0     O 9607   8.703   8.631   2.802  0.7475 -0.5138 -0.1919
  831MOL0     C 9608   8.950   8.716   2.686 -0.4788 -0.3155 -0.1926
  831MOL0     C 9609   9.063   8.762   2.615  1.1047  0.3910  0.4358
  831MOL0     N 9610   9.356   9.376   2.287 -0.6258 -1.3144 -0.9931
  831MOL0     N 9611   9.366   9.506   2.285 -0.3691  1.0644 -0.3887
  831MOL0     C 9612  10.424  10.115   2.327  0.6440  0.6481  0.8736
  831MOL0     C 9613  10.561  10.093   2.311  1.1849  0.8075 -0.1293
  831MOL0     C 9614  10.950   9.921   2.158  0.1136 -0.0973  0.8348
  831MOL0     C 9615  11.047   9.967   2.067 -0.4085  0.0075 -0.7108
  831MOL0     C 9616  11.179   9.926   2.068 -0.1373  0.4302  0.6196
  831MOL0     C 9617  11.218   9.829   2.154  0.6624  0.2636  0.0830
  831MOL0     O 9618  11.341   9.768   2.150  0.9570  0.9779  0.2745
  831MOL0     C 9619  11.374   9.655   2.062 -0.3096  0.8653 -0.6593
  831MOL0     C 9620  11.447   9.549   2.147 -0.5810  0.2410  0.1196
  831MOL0     C 9621  11.380   9.516   2.284 -0.9424  0.8260  0.2169
  831MOL0     C 9622  11.476   9.435   2.366  0.0507  0.4719 -0.9514
  831MOL0     C 9623  11.401   9.378   2.482 -1.0916 -0.2106  1.5311
  831MOL0     C 9624  11.350   9.351   2.588 -0.4638 -0.2259  0.0341
  831MOL0     C 9625  11.118   9.768   2.244  0.3340  0.4761 -1.0346
  831MOL0     C 9626  10.989   9.819   2.247  0.3036 -0.8840 -0.3646
  831MOL0     H 9627  10.530   9.776   2.172 -1.2295 -1.5076  1.5920
  831MOL0     H 9628  10.312   9.804   2.239  1.9655 -1.4648  0.0798
  831MOL0     H 9629  10.123  10.153   2.162  2.5883 -0.3916 -0.9556
  831MOL0     H 9630  10.152  10.218   2.324 -1.2120 -0.3877  0.4570
  831MOL0     H 9631   9.911  10.187   2.251  3.0795  2.7427 -1.6060
  831MOL0     H 9632   9.953  10.148   2.418 -1.7148 -0.7524 -0.0349
  831MOL0     H 9633   9.966   9.907   2.367  2.0685  0.1449 -1.3153
  831MOL0     H 9634   9.951   9.927   2.201  0.5284 -2.1157  0.3389
  831MOL0     H 9635   9.710  10.043   2.346 -0.2689 -1.3465  1.0297
  831MOL0     H 9636   9.740   9.981   2.184  1.4134 -1.6385 -1.5466
  831MOL0     H 9637   9.767   9.803   2.440 -0.1714  0.2192 -0.6820
  831MOL0     H 9638   9.801   9.758   2.274  0.3480  0.5542 -0.0411
  831MOL0     H 9639   9.583   9.680   2.267 -1.2959  0.0637 -0.5809
  831MOL0     H 9640   9.538   9.843   2.248 -1.2745 -1.0298 -2.5275
  831MOL0     H 9641   9.602   9.725   2.530  1.0812  3.3111  1.6706
  831MOL0     H 9642   9.520   9.867   2.489 -0.8322 -0.3868  2.1860
  831MOL0     H 9643   9.338   9.747   2.377  1.0006 -0.4008  0.3439
  831MOL0     H 9644   9.349   9.693   2.548  0.5600 -3.1265  0.8786
  831MOL0     H 9645   9.478   9.442   2.583  0.5772  1.2060 -0.4152
  831MOL0     H 9646   9.497   9.193   2.536  1.2217 -3.2231 -1.7686
  831MOL0     H 9647   9.423   9.141   2.385  2.0124  3.2777 -1.9630
  831MOL0     H 9648   9.244   9.260   2.603 -0.2327 -0.4502  1.7513
  831MOL0     H 9649   9.289   9.092   2.606  0.2840  0.3262  1.2126
  831MOL0     H 9650   9.070   9.140   2.488  0.8440 -0.9778 -0.0742
  831MOL0     H 9651   9.163   9.228   2.360 -2.0839  0.0758 -0.6764
  831MOL0     H 9652   9.254   8.998   2.297  0.3187  1.8099  1.2299
  831MOL0     H 9653   9.088   8.986   2.302 -0.3378 -1.2875  0.3704
  831MOL0     H 9654   8.915   8.959   2.392  1.9282 -0.9650 -1.5503
  831MOL0     H 9655   8.722   8.885   2.525  0.6226  0.8583  0.4924
  831MOL0     H 9656   8.515   8.718   2.945 -0.0544  1.0269  0.3818
  831MOL0     H 9657   8.273   8.714   3.029  0.0283 -0.9218 -0.3019
  831MOL0     H 9658   8.031   8.744   3.085 -3.9350  2.5812 -0.7343
  831MOL0     H 9659   8.059   8.602   2.991  0.9094 -0.0441  3.5020
  831MOL0     H 9660   7.830   8.628   3.081  1.1398  0.6864  0.1009
  831MOL0     H 9661   7.817   8.614   2.908 -1.9306  1.9806 -1.0234
  831MOL0     H 9662   7.789   8.850   2.876 -2.5989 -1.9854 -0.7423
  831MOL0     H 9663   7.857   8.876   3.043 -0.1240  0.3496 -0.4675
  831MOL0     H 9664   7.592   8.726   3.033 -1.3656  0.0064  1.7629
  831MOL0     H 9665   7.661   8.804   3.164 -2.3920 -1.9378 -0.5332
  831MOL0     H 9666   7.584   8.952   2.904 -1.3998 -1.3933  0.3054
  831MOL0     H 9667   7.644   9.032   3.056  1.9985 -1.6092 -0.1769
  831MOL0     H 9668   7.380   9.039   3.022 -1.2563 -0.8268 -1.0178
  831MOL0     H 9669   7.450   8.972   3.179  1.1335 -0.6196  0.1447
  831MOL0     H 9670   7.342   8.800   2.953  0.6448 -0.9969  0.5697
  831MOL0     H 9671   7.391   8.773   3.129 -0.9117 -1.3878  0.1656
  831MOL0     H 9672   7.183   8.982   3.041  1.9183  1.7193  1.1395
  831MOL0     H 9673   7.195   8.904   3.198 -2.0380 -0.1311 -0.5449
  831MOL0     H 9674   8.155   8.855   2.643  0.5976  0.3479 -1.2493
  831MOL0     H 9675   8.384   8.841   2.565 -0.6990  2.4212  0.0512
  831MOL0     H 9676   8.964   8.645   2.767 -1.1129  1.7737  1.8329
  831MOL0     H 9677   9.162   8.734   2.651  0.3406 -0.1352  2.2711
  831MOL0     H 9678  10.396  10.218   2.344 -1.8170  0.4967 -1.5670
  831MOL0     H 9679  10.642  10.161   2.334  1.8123  1.1349 -2.8986
  831MOL0     H 9680  11.019  10.044   1.996 -1.8042 -0.1819 -0.3838
  831MOL0     H 9681  11.260   9.967   2.008  0.7529  0.4715  1.8007
  831MOL0     H 9682  11.447   9.700   1.995  0.0520  0.4154 -0.5720
  831MOL0     H 9683  11.284   9.617   2.013 -2.5116  2.6246  1.7417
  831MOL0     H 9684  11.455   9.455   2.091 -0.6842  0.0636  0.4022
  831MOL0     H 9685  11.549   9.589   2.146 -0.3469 -0.3377 -1.0570
  831MOL0     H 9686  11.289   9.461   2.261  0.0277 -0.1256 -1.5818
  831MOL0     H 9687  11.339   9.602   2.337  0.1106  0.8358  1.0817
  831MOL0     H 9688  11.532   9.356   2.316  0.9503  1.2659 -1.2312
  831MOL0     H 9689  11.552   9.499   2.412 -0.1614  0.5990 -0.7718
  831MOL0     H 9690  11.295   9.332   2.678  1.4960 -1.3908  1.0336
  831MOL0     H 9691  11.148   9.688   2.311 -3.3744  1.6546  2.4765
  831MOL0     H 9692  10.914   9.769   2.308  0.3093  0.2578  0.6272
  832MOL0     O 9693   3.893   8.426  10.538  0.0717 -0.0305  1.1666
  832MOL0     C 9694   3.943   8.326  10.593 -0.0197 -0.0726  0.3418
  832MOL0     O 9695   3.875   8.236  10.666 -0.1892 -0.0303  1.2340
  832MOL0     C 9696   3.739   8.244  10.686 -0.0419  0.4621  0.4335
  832MOL0     C 9697   3.695   8.190  10.805 -0.5223 -0.1870  0.1865
  832MOL0     C 9698   3.564   8.192  10.838  0.7177 -0.2890  0.2109
  832MOL0     C 9699   3.468   8.247  10.758 -0.2921  0.1021 -1.2486
  832MOL0     O 9700   3.338   8.224  10.802 -0.4860 -0.4299 -0.6509
  832MOL0     C 9701   3.241   8.287  10.720 -0.1732 -0.8192  0.3385
  832MOL0     C 9702   3.107   8.282  10.802  0.0225  0.6169 -0.4245
  832MOL0     C 9703   3.003   8.373  10.737  0.7644  0.0327  0.3821
  832MOL0     C 9704   2.873   8.359  10.807  1.1726 -0.0951 -0.4825
  832MOL0     C 9705   2.774   8.466  10.761  0.0936  0.1834  0.2160
  832MOL0     C 9706   2.637   8.444  10.835 -0.5544 -0.2429 -0.3643
  832MOL0     C 9707   2.550   8.564  10.794  0.7865  0.5292  0.2983
  832MOL0     C 9708   2.419   8.576  10.883 -0.3621 -0.8914  0.4662
  832MOL0     N 9709   2.317   8.486  10.827  0.1067 -0.1844  0.2848
  832MOL0     C 9710   2.289   8.353  10.867  0.1445 -0.5213 -0.5490
  832MOL0     C 9711   2.190   8.311  10.787 -0.1662 -0.5132  0.5379
  832MOL0     C 9712   2.115   8.182  10.804  0.0918  0.2470  1.0610
  832MOL0     C 9713   2.002   8.206  10.898 -0.1817  0.9288  0.5475
  832MOL0     C 9714   2.059   8.189  11.045 -0.2682 -0.1185 -0.3760
  832MOL0     C 9715   1.954   8.170  11.156  0.6287 -0.0033 -0.3321
  832MOL0     O 9716   1.842   8.241  11.119 -0.3967  0.4048 -0.0666
  832MOL0     C 9717   1.727   8.209  11.187  0.6749  0.0758 -0.3402
  832MOL0     C 9718   1.725   8.204  11.327  0.5645 -0.7359  0.2259
  832MOL0     C 9719   1.606   8.177  11.398  0.7720  0.0292 -0.2305
  832MOL0     C 9720   1.482   8.165  11.326  0.7396  0.4278 -0.0596
  832MOL0     C 9721   1.355   8.133  11.389  0.4913 -0.3608  0.0336
  832MOL0     O 9722   1.236   8.162  11.320  0.1290  0.5404  0.0160
  832MOL0     C 9723   1.117   8.155  11.393 -0.4483 -0.0319 -0.5998
  832MOL0     C 9724   1.076   8.269  11.463 -0.5485  0.0451 -0.8921
  832MOL0     C 9725   0.941   8.276  11.502 -0.1152 -0.2117 -1.1297
  832MOL0     C 9726   0.856   8.165  11.511 -0.1742  0.3639 -0.8275
  832MOL0     O 9727   0.734   8.154  11.579 -0.3495 -0.2969 -0.7544
  832MOL0     C 9728   0.701   8.272  11.664 -0.1092  0.6201  0.4266
  832MOL0     C 9729   0.568   8.258  11.743  1.0709 -0.1689 -0.0787
  832MOL0     C 9730   0.451   8.205  11.660 -0.5726  0.4728 -0.1278
  832MOL0     C 9731   0.327   8.200  11.739  0.1143 -0.2530  0.0974
  832MOL0     C 9732   0.227   8.104  11.665  1.0129 -0.2770 -0.7501
  832MOL0     C 9733   0.091   8.071  11.744 -0.3784  0.2233  0.1863
  832MOL0     C 9734  -0.001   7.966  11.682  0.7472  0.1257 -0.1239
  832MOL0     C 9735   0.070   7.834  11.693  0.4566  0.4204 -0.1552
  832MOL0    Cl 9736  -0.041   7.696  11.639  0.3573  0.1015 -0.0741
  832MOL0     C 9737   0.906   8.053  11.453 -0.5101  0.1434 -0.8306
  832MOL0     C 9738   1.032   8.045  11.395  0.9634  0.8393 -0.9573
  832MOL0     O 9739   1.363   8.090  11.508  0.7941 -0.8474  0.0307
  832MOL0     C 9740   1.486   8.170  11.185  0.4371 -0.1079 -0.4550
  832MOL0     C 9741   1.601   8.189  11.115 -0.2931  0.4327 -0.0778
  832MOL0     N 9742   2.163   8.407  10.695 -0.4092 -0.5578  0.2881
  832MOL0     N 9743   2.237   8.514  10.723  0.7003  0.6282 -0.0153
  832MOL0     C 9744   3.503   8.292  10.630  0.8135 -0.7787  0.1112
  832MOL0     C 9745   3.640   8.292  10.595 -0.4021 -0.3914 -0.1684
  832MOL0     C 9746   4.078   8.312  10.556 -0.7552 -1.0469  0.5619
  832MOL0     C 9747   4.136   8.192  10.561  0.4480 -0.1746  0.8915
  832MOL0     C 9748   4.280   8.175  10.540  0.0426 -0.2278  0.1955
  832MOL0     C 9749   4.354   8.287  10.486  0.0164 -0.6313  0.2343
  832MOL0     O 9750   4.479   8.264  10.439  0.4431  0.3955 -0.0415
  832MOL0     C 9751   4.572   8.231  10.543 -0.7839  1.0046  1.0319
  832MOL0     C 9752   4.684   8.141  10.479  0.9544 -0.6806 -0.8812
  832MOL0     C 9753   4.776   8.099  10.594 -0.3108  0.2097  0.2506
  832MOL0     C 9754   4.877   7.998  10.536  0.2712  0.0128 -0.0394
  832MOL0     C 9755   4.972   7.956  10.635 -0.2276 -0.1500  0.4750
  832MOL0     C 9756   5.065   7.945  10.713  0.3891 -0.1821 -0.4978
  832MOL0     C 9757   4.284   8.405  10.469 -0.8929 -0.3226 -0.7701
  832MOL0     C 9758   4.154   8.426  10.503 -0.1468 -0.3600 -0.4455
  832MOL0     H 9759   3.751   8.132  10.877 -0.9292 -3.7253 -2.1133
  832MOL0     H 9760   3.532   8.142  10.929  1.7260  0.0672  0.7729
  832MOL0     H 9761   3.217   8.230  10.630  0.9874  1.6032 -1.6357
  832MOL0     H 9762   3.262   8.390  10.688 -1.2448  0.4029  3.2529
  832MOL0     H 9763   3.130   8.321  10.901  3.9785  1.6583 -1.5975
  832MOL0     H 9764   3.074   8.177  10.809  0.5895  0.4436 -0.3300
  832MOL0     H 9765   2.987   8.332  10.636  0.5177  0.6230  0.1793
  832MOL0     H 9766   3.039   8.476  10.738  0.7534  0.1970 -3.2126
  832MOL0     H 9767   2.827   8.261  10.791 -0.2547 -0.2529  3.4629
  832MOL0     H 9768   2.888   8.377  10.914 -1.4811  3.4398 -0.5582
  832MOL0     H 9769   2.752   8.450  10.655 -1.8141 -4.3891  1.0827
  832MOL0     H 9770   2.818   8.563  10.786  1.4636 -0.9159  2.3176
  832MOL0     H 9771   2.655   8.454  10.943 -1.0867 -1.8931 -0.0986
  832MOL0     H 9772   2.603   8.342  10.817  2.5531 -1.4630 -0.1034
  832MOL0     H 9773   2.612   8.654  10.789  2.7972 -0.8516 -1.9720
  832MOL0     H 9774   2.525   8.556  10.688  0.8686  1.5556  0.1907
  832MOL0     H 9775   2.381   8.679  10.881  1.2422 -0.1801  2.5427
  832MOL0     H 9776   2.437   8.553  10.988 -3.2081  0.8915  1.4619
  832MOL0     H 9777   2.341   8.311  10.953 -0.1812  0.6994  0.2716
  832MOL0     H 9778   2.177   8.096  10.831  1.2030  0.7993  0.3549
  832MOL0     H 9779   2.080   8.167  10.702  1.9206 -2.2959  0.6978
  832MOL0     H 9780   1.919   8.138  10.873  1.4458 -0.5792 -1.1067
  832MOL0     H 9781   1.965   8.308  10.902  2.8030  2.0985  0.6810
  832MOL0     H 9782   2.123   8.100  11.051 -0.4547 -0.2194  0.1798
  832MOL0     H 9783   2.109   8.282  11.072 -0.4033  0.0572 -0.7249
  832MOL0     H 9784   1.988   8.207  11.253  1.1950  0.3276 -0.6546
  832MOL0     H 9785   1.930   8.065  11.175 -2.1591 -0.1519 -3.6902
  832MOL0     H 9786   1.814   8.220  11.387  0.9969 -0.6106 -0.4343
  832MOL0     H 9787   1.606   8.162  11.505 -0.5746 -1.4540 -0.4001
  832MOL0     H 9788   1.154   8.344  11.472 -0.7324  0.1730 -0.3265
  832MOL0     H 9789   0.908   8.371  11.543 -0.1587 -2.2550  4.3963
  832MOL0     H 9790   0.683   8.355  11.595  0.7327  1.6903  1.4626
  832MOL0     H 9791   0.785   8.313  11.720  1.6683 -0.7640 -1.0946
  832MOL0     H 9792   0.539   8.357  11.781 -1.0905 -2.0950  3.9383
  832MOL0     H 9793   0.574   8.200  11.835  0.1496  1.4327  1.0535
  832MOL0     H 9794   0.481   8.105  11.630  2.1012  0.8130  1.1046
  832MOL0     H 9795   0.444   8.263  11.567  2.4032 -0.7354 -1.2343
  832MOL0     H 9796   0.352   8.167  11.840  0.6648 -0.3722 -0.0739
  832MOL0     H 9797   0.286   8.301  11.740 -0.5818 -0.5323  0.9884
  832MOL0     H 9798   0.285   8.011  11.657  1.4760 -0.2623  1.6361
  832MOL0     H 9799   0.194   8.142  11.568 -0.6308  2.2156  0.7009
  832MOL0     H 9800   0.038   8.161  11.774  1.4315  1.7344 -0.8799
  832MOL0     H 9801   0.128   8.029  11.838  0.9428  2.3480  0.6708
  832MOL0     H 9802  -0.086   7.950  11.748 -0.5677  3.6931 -0.7484
  832MOL0     H 9803  -0.026   7.995  11.579  1.9914  6.1784  0.9051
  832MOL0     H 9804   0.095   7.822  11.798  1.3079  0.5921 -0.3373
  832MOL0     H 9805   0.162   7.825  11.634  0.1720  0.2748 -0.5858
  832MOL0     H 9806   0.847   7.963  11.468  1.0850 -0.3576  4.3113
  832MOL0     H 9807   1.053   7.959  11.331 -0.9958 -0.1464 -0.3743
  832MOL0     H 9808   1.400   8.150  11.121  1.4752 -1.8837 -1.3929
  832MOL0     H 9809   1.599   8.183  11.006 -3.3255 -0.3922 -0.0744
  832MOL0     H 9810   3.423   8.312  10.560  1.6111 -2.1919 -1.2628
  832MOL0     H 9811   3.665   8.337  10.499 -1.3734 -2.0179 -1.2517
  832MOL0     H 9812   4.072   8.108  10.587  0.7399 -0.1303  1.7926
  832MOL0     H 9813   4.328   8.079  10.556  2.3524  0.7555 -0.4275
  832MOL0     H 9814   4.520   8.184  10.627 -1.4928 -0.3258 -0.1016
  832MOL0     H 9815   4.619   8.318  10.590  0.4054  0.7068  0.4347
  832MOL0     H 9816   4.635   8.055  10.432 -2.1688 -0.9024  2.3947
  832MOL0     H 9817   4.734   8.196  10.398 -1.0662 -1.4885 -2.8054
  832MOL0     H 9818   4.718   8.049  10.672 -1.1782  2.4457  1.1057
  832MOL0     H 9819   4.820   8.187  10.641 -1.3547 -1.4521  4.8488
  832MOL0     H 9820   4.830   7.909  10.493 -0.5534  0.4870 -0.1386
  832MOL0     H 9821   4.931   8.048  10.455  0.1353  1.3971  0.6935
  832MOL0     H 9822   5.144   7.957  10.784 -1.5426  0.3299  1.6999
  832MOL0     H 9823   4.329   8.494  10.427 -0.4341  0.2459  0.8434
  832MOL0     H 9824   4.095   8.516  10.486 -0.7351 -0.4647  0.8717
  833MOL0     O 9825   1.759   4.607  10.773 -0.0629 -0.0938  0.1708
  833MOL0     C 9826   1.813   4.517  10.712 -0.2064 -0.0062  0.6078
  833MOL0     O 9827   1.758   4.386  10.709 -0.7420 -0.4511 -0.1367
  833MOL0     C 9828   1.643   4.366  10.782  0.3072 -0.4795 -0.3461
  833MOL0     C 9829   1.637   4.355  10.922  0.3250  0.1216 -0.5329
  833MOL0     C 9830   1.515   4.341  10.991  0.2643 -0.6131 -0.3205
  833MOL0     C 9831   1.391   4.350  10.916 -0.2655 -0.0221 -0.2020
  833MOL0     O 9832   1.265   4.328  10.965  0.6763  0.9442 -0.3121
  833MOL0     C 9833   1.254   4.223  11.063  0.0622 -0.3544 -0.1824
  833MOL0     C 9834   1.109   4.179  11.060 -0.1856  0.2277 -0.6514
  833MOL0     C 9835   1.008   4.289  11.087 -0.5388 -0.6906 -0.5556
  833MOL0     C 9836   0.866   4.241  11.074  0.1316  0.1853  0.0813
  833MOL0     C 9837   0.825   4.131  11.170 -0.2050  0.1602  0.6109
  833MOL0     C 9838   0.677   4.086  11.154 -0.0775  0.1396  0.3105
  833MOL0     C 9839   0.660   4.013  11.021 -1.2036 -0.0141  0.9413
  833MOL0     C 9840   0.518   3.942  11.019 -0.3391  0.4009  0.6005
  833MOL0     N 9841   0.469   3.908  10.881 -0.0269 -0.2782 -0.0925
  833MOL0     C 9842   0.340   3.920  10.835  0.1010 -0.0788  0.9932
  833MOL0     C 9843   0.339   3.884  10.703  0.2729 -0.2373 -0.9224
  833MOL0     C 9844   0.221   3.884  10.614  0.7771  0.2772  0.0327
  833MOL0     C 9845   0.193   4.021  10.554  0.8427 -0.8129  0.1462
  833MOL0     C 9846   0.142   4.007  10.404  0.8807 -0.5314  0.8189
  833MOL0     C 9847   0.034   3.895  10.387  0.3321 -0.1537  0.7108
  833MOL0     O 9848  -0.091   3.917  10.437  0.3238 -0.7840  0.2339
  833MOL0     C 9849  -0.185   3.824  10.426 -0.0845  1.0155 -0.4689
  833MOL0     C 9850  -0.194   3.719  10.514  0.3767 -0.4123 -1.0007
  833MOL0     C 9851  -0.290   3.621  10.488 -0.5481 -0.0817 -0.8546
  833MOL0     C 9852  -0.373   3.621  10.379  0.2648  0.3399  1.0645
  833MOL0     C 9853  -0.483   3.524  10.351 -0.2739  0.9210  0.8699
  833MOL0     O 9854  -0.581   3.552  10.258 -0.2976  0.1782 -0.1911
  833MOL0     C 9855  -0.683   3.462  10.243 -0.1578  0.7888  0.4051
  833MOL0     C 9856  -0.662   3.345  10.177 -0.3832  0.4052  0.1981
  833MOL0     C 9857  -0.773   3.264  10.153  1.1174 -0.6178  0.8808
  833MOL0     C 9858  -0.903   3.298  10.193  0.0657  0.6482 -0.2179
  833MOL0     O 9859  -1.002   3.203  10.185  0.8216 -0.4423  0.2080
  833MOL0     C 9860  -1.143   3.247  10.173  0.3459  0.1539 -1.2223
  833MOL0     C 9861  -1.192   3.233  10.030 -0.2415 -0.3960  0.9591
  833MOL0     C 9862  -1.216   3.086   9.993 -0.2083  0.0106  0.0446
  833MOL0     C 9863  -1.296   3.085   9.870  0.3145 -0.2194 -0.1321
  833MOL0     C 9864  -1.407   2.980   9.864 -0.1201 -0.1057  0.8173
  833MOL0     C 9865  -1.552   3.031   9.910 -1.4649 -0.5766 -0.6978
  833MOL0     C 9866  -1.657   2.925   9.920  0.0183 -0.6418 -0.0602
  833MOL0     C 9867  -1.773   2.978   9.996  0.8980 -0.2261 -0.3882
  833MOL0    Cl 9868  -1.910   2.861   9.982 -0.0573 -0.2379  0.3183
  833MOL0     C 9869  -0.925   3.428  10.254  0.4314  0.7883 -0.0693
  833MOL0     C 9870  -0.812   3.511  10.262  0.2831 -0.0288 -0.4020
  833MOL0     O 9871  -0.478   3.417  10.418 -0.1959 -0.2641  0.1766
  833MOL0     C 9872  -0.352   3.720  10.285  0.3537  0.5884 -0.0235
  833MOL0     C 9873  -0.269   3.827  10.312 -1.3093 -0.2911 -0.2359
  833MOL0     N 9874   0.476   3.863  10.669 -0.9952 -1.2400 -0.1808
  833MOL0     N 9875   0.546   3.865  10.778 -0.0703  0.5642  0.3709
  833MOL0     C 9876   1.401   4.371  10.782  0.5172  0.3684  0.4245
  833MOL0     C 9877   1.526   4.365  10.713  0.6805  0.2551 -0.1140
  833MOL0     C 9878   1.931   4.542  10.631 -0.2661  0.1895 -0.7962
  833MOL0     C 9879   1.998   4.661  10.652  0.2568 -0.0971 -0.3374
  833MOL0     C 9880   2.118   4.686  10.597  0.3858  1.0169  1.0392
  833MOL0     C 9881   2.171   4.594  10.510  0.9614  0.1941  1.2701
  833MOL0     O 9882   2.278   4.642  10.444 -0.7553  0.4554  0.1808
  833MOL0     C 9883   2.361   4.534  10.389  0.6120  0.5433 -0.4847
  833MOL0     C 9884   2.484   4.586  10.318 -0.1799 -0.8785  0.1402
  833MOL0     C 9885   2.579   4.480  10.255  0.0170  0.2098  0.0254
  833MOL0     C 9886   2.663   4.531  10.136  0.1989 -0.6857  0.1713
  833MOL0     C 9887   2.781   4.601  10.187  0.8099 -0.6975 -0.9405
  833MOL0     C 9888   2.877   4.647  10.240  0.0521  0.2922 -0.4537
  833MOL0     C 9889   2.107   4.472  10.489 -0.2621 -0.1814  0.6379
  833MOL0     C 9890   1.988   4.442  10.552 -0.5003 -0.6584 -1.2141
  833MOL0     H 9891   1.735   4.355  10.969  0.8186  2.1420 -1.4603
  833MOL0     H 9892   1.500   4.326  11.098 -0.1554 -1.9697 -0.5476
  833MOL0     H 9893   1.277   4.264  11.162  0.1662 -0.5721 -0.1153
  833MOL0     H 9894   1.309   4.133  11.035  2.1722 -0.4401  3.6129
  833MOL0     H 9895   1.104   4.097  11.132 -0.2860 -0.4630 -1.4328
  833MOL0     H 9896   1.079   4.135  10.965 -0.1826 -1.6595  0.1783
  833MOL0     H 9897   1.036   4.377  11.029  0.8934 -0.9526 -0.2940
  833MOL0     H 9898   1.034   4.317  11.189 -1.9131  3.6027 -1.1973
  833MOL0     H 9899   0.810   4.331  11.102  0.5034  0.1818  0.8272
  833MOL0     H 9900   0.850   4.215  10.968 -2.5415 -1.7095  0.8339
  833MOL0     H 9901   0.850   4.150  11.275  3.7006 -1.4155  0.1222
  833MOL0     H 9902   0.889   4.043  11.155  0.1719  0.7618 -1.9036
  833MOL0     H 9903   0.615   4.175  11.144 -0.6771 -0.4213 -1.2026
  833MOL0     H 9904   0.653   4.023  11.240  1.0259  1.5540  1.7239
  833MOL0     H 9905   0.677   4.077  10.934  2.0354  0.1183  1.5548
  833MOL0     H 9906   0.737   3.936  11.021  1.4981  2.4999  0.2340
  833MOL0     H 9907   0.445   3.999  11.079 -1.7480 -0.4399 -0.2638
  833MOL0     H 9908   0.543   3.849  11.071  0.7165  0.1637 -0.2923
  833MOL0     H 9909   0.253   3.935  10.898  0.6776  0.0953  1.7617
  833MOL0     H 9910   0.128   3.861  10.668 -0.8331  2.2745 -1.7432
  833MOL0     H 9911   0.248   3.807  10.541 -3.2880 -1.8409  0.4531
  833MOL0     H 9912   0.276   4.091  10.541 -1.9730  2.5824 -1.3268
  833MOL0     H 9913   0.129   4.080  10.620 -0.3779  0.6415 -2.1952
  833MOL0     H 9914   0.104   4.106  10.376 -1.3391 -0.2594  4.1845
  833MOL0     H 9915   0.227   3.977  10.341 -0.2634  1.1660 -1.7244
  833MOL0     H 9916   0.071   3.797  10.419  0.6282 -1.0790 -2.1682
  833MOL0     H 9917   0.034   3.880  10.278 -3.1209 -0.0750  0.5888
  833MOL0     H 9918  -0.140   3.718  10.608  0.1132 -1.7578 -0.8293
  833MOL0     H 9919  -0.312   3.546  10.564 -1.2450  0.9180 -0.0450
  833MOL0     H 9920  -0.561   3.312  10.153  1.2955  4.0101  1.5000
  833MOL0     H 9921  -0.760   3.179  10.086  1.1205 -0.7128  1.0021
  833MOL0     H 9922  -1.160   3.352  10.200 -2.1875 -0.0556 -1.7132
  833MOL0     H 9923  -1.205   3.181  10.234  1.6952  0.5523  0.6742
  833MOL0     H 9924  -1.112   3.263   9.962 -0.2938 -6.3108 -2.4209
  833MOL0     H 9925  -1.285   3.288  10.014 -0.3239 -1.5381 -3.8185
  833MOL0     H 9926  -1.268   3.044  10.080 -0.5438  0.6664  0.1640
  833MOL0     H 9927  -1.127   3.024   9.980 -0.2060 -0.0322  0.2622
  833MOL0     H 9928  -1.345   3.178   9.840 -1.5705 -0.3948  2.0845
  833MOL0     H 9929  -1.224   3.059   9.792  0.0931  1.1715 -0.8300
  833MOL0     H 9930  -1.388   2.900   9.936  0.0354 -0.6475  0.1855
  833MOL0     H 9931  -1.428   2.945   9.763  0.9705  0.9480  0.1925
  833MOL0     H 9932  -1.576   3.109   9.837  4.9822  2.8501  0.0979
  833MOL0     H 9933  -1.530   3.069  10.010 -0.7576 -2.2074 -0.2026
  833MOL0     H 9934  -1.687   2.878   9.826  0.6982 -0.8547 -0.1742
  833MOL0     H 9935  -1.618   2.845   9.984  0.7062 -0.6781 -0.5112
  833MOL0     H 9936  -1.810   3.075   9.960  2.9284  0.9489  0.5450
  833MOL0     H 9937  -1.747   2.997  10.100 -2.4868  3.6439 -0.0053
  833MOL0     H 9938  -1.025   3.456  10.283 -0.7153 -1.4501 -1.6164
  833MOL0     H 9939  -0.831   3.616  10.280 -1.1537  0.2196 -2.9387
  833MOL0     H 9940  -0.410   3.720  10.193 -4.1105 -2.2461  2.4615
  833MOL0     H 9941  -0.250   3.906  10.240  1.0632 -1.3493 -0.8830
  833MOL0     H 9942   1.310   4.381  10.724  0.6088 -0.4100  0.1338
  833MOL0     H 9943   1.537   4.377  10.606  1.3411  0.1574 -0.0562
  833MOL0     H 9944   1.959   4.735  10.722 -2.6253 -1.4015 -0.3943
  833MOL0     H 9945   2.165   4.784  10.597  1.8860  0.3622 -0.6737
  833MOL0     H 9946   2.302   4.478  10.316 -0.1234  0.7529 -0.0656
  833MOL0     H 9947   2.386   4.461  10.466  2.3873  1.8776  0.2723
  833MOL0     H 9948   2.446   4.641  10.231 -1.5181  0.1031  1.2986
  833MOL0     H 9949   2.551   4.647  10.379 -0.1241  2.4550 -2.9014
  833MOL0     H 9950   2.517   4.396  10.222  0.5254  0.0061 -0.4279
  833MOL0     H 9951   2.640   4.452  10.342 -1.4722  0.7952  1.3154
  833MOL0     H 9952   2.708   4.449  10.080  0.8189  0.6541 -1.3720
  833MOL0     H 9953   2.595   4.586  10.070  0.8629  1.7071  1.3830
  833MOL0     H 9954   2.960   4.690  10.293 -2.6694  2.1828  2.6186
  833MOL0     H 9955   2.149   4.396  10.423 -0.8463  1.0845 -1.2702
  833MOL0     H 9956   1.942   4.345  10.537 -1.6711 -0.3381  0.0747
  834MOL0     O 9957   9.626   9.302   4.840 -0.1124  0.8984  0.2159
  834MOL0     C 9958   9.654   9.185   4.809 -0.0652 -1.1519 -0.2350
  834MOL0     O 9959   9.563   9.087   4.786 -0.1840  0.0760  0.6306
  834MOL0     C 9960   9.427   9.109   4.767 -0.0787 -0.3326 -0.5820
  834MOL0     C 9961   9.363   9.232   4.722 -0.1004  0.0867  0.1641
  834MOL0     C 9962   9.228   9.235   4.698  0.0285 -0.0013  0.1590
  834MOL0     C 9963   9.149   9.123   4.722  0.3732 -0.6050 -0.2480
  834MOL0     O 9964   9.015   9.119   4.690  0.0459 -0.8874  0.4096
  834MOL0     C 9965   8.951   9.223   4.624 -0.6076  0.5202 -0.2075
  834MOL0     C 9966   8.811   9.180   4.577 -1.0104 -0.1882  0.2481
  834MOL0     C 9967   8.817   9.059   4.487  0.1375  0.7244 -0.6424
  834MOL0     C 9968   8.686   9.041   4.419  0.1789  0.7536 -0.1473
  834MOL0     C 9969   8.689   8.928   4.320 -0.1624  0.3820 -0.1123
  834MOL0     C 9970   8.547   8.893   4.259 -1.4194 -0.1639 -0.7159
  834MOL0     C 9971   8.436   8.839   4.349 -0.0635  0.3362  0.5732
  834MOL0     C 9972   8.407   8.689   4.323 -0.3169  0.6862 -0.8564
  834MOL0     N 9973   8.268   8.660   4.357 -0.0949  0.3384  0.7847
  834MOL0     C 9974   8.210   8.653   4.476 -0.1321  0.8111  0.0993
  834MOL0     C 9975   8.081   8.617   4.451 -0.5754  0.2901 -0.6570
  834MOL0     C 9976   7.987   8.584   4.572  1.3396 -0.4652  0.4474
  834MOL0     C 9977   7.970   8.434   4.611  0.4244  0.1913  0.1752
  834MOL0     C 9978   7.875   8.425   4.723  0.4136  0.2380  0.0839
  834MOL0     C 9979   7.867   8.285   4.776 -0.0373 -0.2096  0.4000
  834MOL0     O 9980   7.748   8.266   4.853 -0.1441 -0.0585 -0.3219
  834MOL0     C 9981   7.622   8.265   4.796  0.4539  0.3280  0.7495
  834MOL0     C 9982   7.597   8.269   4.657 -0.9265 -0.2854 -0.6059
  834MOL0     C 9983   7.471   8.252   4.606  0.4578  0.2382  0.8053
  834MOL0     C 9984   7.355   8.242   4.691  0.0541  0.0897 -0.2260
  834MOL0     C 9985   7.229   8.210   4.627  0.0807 -0.0810  0.6108
  834MOL0     O 9986   7.237   8.171   4.494 -0.0843  1.1183  0.4902
  834MOL0     C 9987   7.123   8.159   4.419  0.6319  0.1451  0.5655
  834MOL0     C 9988   7.102   8.253   4.324 -0.2573 -0.1876 -0.4887
  834MOL0     C 9989   6.988   8.250   4.244  0.6455  0.8146  0.4554
  834MOL0     C 9990   6.908   8.135   4.243  0.7945  0.3384 -0.2999
  834MOL0     O 9991   6.802   8.114   4.152  0.5257  0.6562  0.6345
  834MOL0     C 9992   6.676   8.174   4.189 -0.2855 -0.7862 -0.6112
  834MOL0     C 9993   6.622   8.115   4.320  0.3805 -0.4354  0.2297
  834MOL0     C 9994   6.486   8.193   4.348  0.7883 -0.0508  0.2219
  834MOL0     C 9995   6.437   8.151   4.494  0.2664 -0.2066 -0.7866
  834MOL0     C 9996   6.301   8.207   4.517  0.6026 -0.2761  0.9093
  834MOL0     C 9997   6.231   8.168   4.648  0.0346 -0.4194  0.6201
  834MOL0     C 9998   6.132   8.051   4.628  0.7595 -0.8933 -0.3686
  834MOL0     C 9999   5.994   8.094   4.580  0.0980 -0.7291  0.2552
  834MOL0    Cl10000   5.867   7.961   4.600  0.0053 -0.3604  0.2877
  834MOL0     C10001   6.927   8.036   4.341 -1.0557 -0.3725  0.9132
  834MOL0     C10002   7.043   8.048   4.426  0.6722 -0.3611  0.2924
  834MOL0     O10003   7.120   8.231   4.686  0.4255  0.1395 -0.8579
  834MOL0     C10004   7.377   8.257   4.828 -0.7719  0.3332  0.9697
  834MOL0     C10005   7.505   8.269   4.881 -0.4516 -0.7572 -0.6525
  834MOL0     N10006   8.063   8.589   4.314  0.0571 -0.0141 -0.3981
  834MOL0     N10007   8.179   8.626   4.259 -0.8362  0.3554 -0.3427
  834MOL0     C10008   9.213   9.005   4.768  0.4669 -0.2450 -0.5344
  834MOL0     C10009   9.348   8.997   4.786 -0.4322  0.0901 -0.2709
  834MOL0     C10010   9.790   9.140   4.815 -0.3803 -0.3552  0.4024
  834MOL0     C10011   9.908   9.225   4.796 -0.1057  0.7559 -0.3434
  834MOL0     C10012  10.034   9.177   4.806  0.1728  0.3057  0.1681
  834MOL0     C10013  10.062   9.043   4.856 -0.1911  0.2406  0.3486
  834MOL0     O10014  10.183   8.985   4.888 -0.0893 -0.0117 -0.4482
  834MOL0     C10015  10.298   9.066   4.857  0.0930  0.3134  0.1927
  834MOL0     C10016  10.426   8.993   4.899 -0.5192 -0.8455  0.2274
  834MOL0     C10017  10.540   9.082   4.910 -0.7008 -0.5466 -1.0288
  834MOL0     C10018  10.658   9.013   4.967 -0.4739  0.5174  0.5111
  834MOL0     C10019  10.766   9.109   4.975 -0.6671  0.6128  0.2669
  834MOL0     C10020  10.862   9.179   4.997 -0.2486  0.1803 -0.0884
  834MOL0     C10021   9.952   8.966   4.879 -0.2022 -0.5634 -0.3646
  834MOL0     C10022   9.816   9.009   4.864  0.3149  0.1217 -0.0261
  834MOL0     H10023   9.438   9.304   4.693  1.3523 -1.4212 -0.0202
  834MOL0     H10024   9.203   9.337   4.669  0.5154  0.4817  1.3619
  834MOL0     H10025   9.010   9.256   4.538 -1.6060  0.7958 -0.8068
  834MOL0     H10026   8.941   9.306   4.695 -2.4280  1.4449 -1.4501
  834MOL0     H10027   8.767   9.268   4.530 -0.1351 -0.3431 -0.8901
  834MOL0     H10028   8.754   9.157   4.668  0.7646  2.1842  2.1274
  834MOL0     H10029   8.849   8.972   4.545  2.2968  0.6867 -1.7988
  834MOL0     H10030   8.893   9.079   4.410 -0.9504 -0.0569 -1.9820
  834MOL0     H10031   8.615   9.029   4.502  1.8379  0.3316  1.2610
  834MOL0     H10032   8.652   9.136   4.378 -2.2762  0.4212  0.9183
  834MOL0     H10033   8.734   8.846   4.377 -1.4009 -0.3443 -0.1393
  834MOL0     H10034   8.749   8.970   4.239 -0.8544 -0.8361 -1.3134
  834MOL0     H10035   8.562   8.829   4.172  0.3121 -0.4770 -0.2268
  834MOL0     H10036   8.511   8.981   4.206 -1.2334  0.6223  0.4350
  834MOL0     H10037   8.455   8.849   4.457  0.3958  0.5716  0.4759
  834MOL0     H10038   8.341   8.882   4.319  0.1069 -0.7484 -1.7431
  834MOL0     H10039   8.468   8.622   4.383 -2.3590  1.1109  1.8803
  834MOL0     H10040   8.427   8.670   4.217  1.4431  0.2175 -0.4710
  834MOL0     H10041   8.262   8.673   4.569  0.4573  0.3491 -0.1263
  834MOL0     H10042   7.888   8.626   4.552  2.4366  3.2363  1.8823
  834MOL0     H10043   8.015   8.637   4.663  1.1413 -1.0065  0.8283
  834MOL0     H10044   8.067   8.386   4.627  0.8752  0.4189 -1.6291
  834MOL0     H10045   7.915   8.382   4.532 -0.0091  0.7232  0.1228
  834MOL0     H10046   7.903   8.500   4.797  0.0129  2.9735 -2.3583
  834MOL0     H10047   7.776   8.446   4.681  1.0731 -1.2770 -2.4278
  834MOL0     H10048   7.961   8.271   4.830 -0.5355  0.0146  1.3434
  834MOL0     H10049   7.885   8.212   4.697 -0.2125 -0.7310  0.8409
  834MOL0     H10050   7.681   8.267   4.588  1.0276  1.7239  1.5217
  834MOL0     H10051   7.460   8.257   4.498  4.5989  0.3508  0.2331
  834MOL0     H10052   7.158   8.346   4.313  0.6195 -0.4669  1.2949
  834MOL0     H10053   6.978   8.327   4.168  3.5512 -0.3061 -1.2418
  834MOL0     H10054   6.604   8.169   4.107  2.1814  1.4862 -3.1122
  834MOL0     H10055   6.679   8.281   4.207 -0.5339 -0.7361 -0.8626
  834MOL0     H10056   6.689   8.124   4.405 -1.4295 -0.4225  1.7065
  834MOL0     H10057   6.611   8.006   4.313 -0.5714 -0.3795  0.7211
  834MOL0     H10058   6.405   8.168   4.279  2.0844  0.0296 -1.3582
  834MOL0     H10059   6.500   8.301   4.351  1.8211 -0.1841  0.7329
  834MOL0     H10060   6.425   8.044   4.514 -0.1110  0.0963  0.7808
  834MOL0     H10061   6.518   8.188   4.558  3.5465 -1.2950 -3.9360
  834MOL0     H10062   6.239   8.173   4.434  0.9393 -0.3622  0.6953
  834MOL0     H10063   6.313   8.316   4.520  0.4623 -0.2093 -0.3978
  834MOL0     H10064   6.168   8.253   4.677 -0.4899  0.4820 -2.7351
  834MOL0     H10065   6.310   8.158   4.723  2.6149  1.5472 -1.6493
  834MOL0     H10066   6.171   7.984   4.551 -0.6009  1.5626 -3.4116
  834MOL0     H10067   6.116   7.996   4.721 -2.6379 -1.4201 -1.1255
  834MOL0     H10068   6.001   8.128   4.476  0.9745 -0.0958  0.5077
  834MOL0     H10069   5.968   8.180   4.642 -1.7151 -1.3393  0.3970
  834MOL0     H10070   6.873   7.942   4.351  1.0622 -1.7994 -0.1120
  834MOL0     H10071   7.057   7.970   4.501  1.0511  0.2696  0.8833
  834MOL0     H10072   7.282   8.245   4.880 -1.2678 -2.7136 -0.4155
  834MOL0     H10073   7.520   8.272   4.989 -0.7049 -2.5500 -0.5439
  834MOL0     H10074   9.158   8.915   4.794 -0.3149  0.6981  1.2603
  834MOL0     H10075   9.401   8.912   4.825 -1.6254 -0.6538 -0.2137
  834MOL0     H10076   9.902   9.327   4.758  0.9136  0.6231 -0.9176
  834MOL0     H10077  10.109   9.255   4.805 -1.1637  1.6463  1.0807
  834MOL0     H10078  10.294   9.163   4.908 -1.8923 -0.7207  2.1982
  834MOL0     H10079  10.308   9.068   4.748  1.4278 -3.5649  0.1079
  834MOL0     H10080  10.406   8.955   5.000  0.9127 -1.9096  0.1246
  834MOL0     H10081  10.437   8.905   4.835  1.5952 -1.6714  1.6353
  834MOL0     H10082  10.504   9.164   4.972  0.6993 -2.2076  2.2171
  834MOL0     H10083  10.561   9.119   4.809  2.6418  1.3672  0.2096
  834MOL0     H10084  10.638   8.979   5.069 -1.0458  1.6632  0.7891
  834MOL0     H10085  10.680   8.926   4.905 -0.0615 -0.5362  2.0764
  834MOL0     H10086  10.956   9.225   5.019 -0.5592  1.6907 -1.6559
  834MOL0     H10087   9.969   8.868   4.923  0.0491 -0.6432 -0.6389
  834MOL0     H10088   9.734   8.943   4.892  0.8657 -0.1121  1.0894
  835MOL0     O10089   3.682   2.662   5.547 -0.1533 -0.2265  0.2122
  835MOL0     C10090   3.787   2.731   5.559 -0.9039  0.5873  0.4388
  835MOL0     O10091   3.802   2.848   5.633  0.2443  0.4446  0.1147
  835MOL0     C10092   3.691   2.932   5.667  0.6565  0.1863  0.4795
  835MOL0     C10093   3.705   3.002   5.782  0.2749  0.0469  0.0543
  835MOL0     C10094   3.608   3.098   5.820  0.6935 -0.2721  1.4344
  835MOL0     C10095   3.490   3.122   5.741  0.8444 -0.0555 -0.6241
  835MOL0     O10096   3.399   3.220   5.762  0.0968 -0.5951  0.6204
  835MOL0     C10097   3.358   3.250   5.898  0.6240 -0.0691  0.0264
  835MOL0     C10098   3.256   3.363   5.909  0.6692  0.8795 -0.7875
  835MOL0     C10099   3.116   3.323   5.852 -0.3705  0.3533  0.1080
  835MOL0     C10100   3.015   3.273   5.968  0.4374 -0.2762  0.1442
  835MOL0     C10101   3.026   3.122   6.007  0.0970 -0.3565  0.4227
  835MOL0     C10102   2.967   3.096   6.144 -0.7149 -0.2110  0.3864
  835MOL0     C10103   2.839   3.015   6.138  1.0627  0.0980  0.6305
  835MOL0     C10104   2.731   3.105   6.071  0.3786  0.8769 -0.1411
  835MOL0     N10105   2.597   3.036   6.060  0.4855 -0.1806  0.1735
  835MOL0     C10106   2.499   3.018   6.152 -0.7349  0.0919 -0.2100
  835MOL0     C10107   2.420   2.930   6.098  0.1058  0.5190 -0.2808
  835MOL0     C10108   2.306   2.863   6.166  0.0693 -0.1512 -0.3052
  835MOL0     C10109   2.176   2.881   6.080 -0.5623  0.2386 -0.5152
  835MOL0     C10110   2.064   2.787   6.134 -1.5284 -0.7441 -0.3240
  835MOL0     C10111   1.957   2.756   6.035  0.0032 -1.7051  0.1042
  835MOL0     O10112   1.917   2.882   5.978 -0.2416 -0.1278 -0.1558
  835MOL0     C10113   1.831   2.960   6.056  0.7539 -0.0104 -0.0914
  835MOL0     C10114   1.773   2.935   6.183  0.0816 -0.7644  0.6508
  835MOL0     C10115   1.680   3.022   6.243 -0.5387  0.8217  1.1635
  835MOL0     C10116   1.656   3.145   6.185  1.0901 -0.1399 -0.5382
  835MOL0     C10117   1.569   3.234   6.259  0.7672  0.2763  0.6449
  835MOL0     O10118   1.512   3.339   6.190 -0.1247 -0.1388  0.1320
  835MOL0     C10119   1.406   3.397   6.259  0.1174  0.2367 -0.1170
  835MOL0     C10120   1.272   3.391   6.213 -0.6729 -0.3777 -0.6587
  835MOL0     C10121   1.174   3.471   6.284  0.3024  0.2894  0.3039
  835MOL0     C10122   1.205   3.559   6.383 -1.4689  0.7068  1.0431
  835MOL0     O10123   1.123   3.647   6.451 -0.4158  0.9827  0.5285
  835MOL0     C10124   0.984   3.608   6.449  0.1305 -0.7039  0.3027
  835MOL0     C10125   0.910   3.726   6.509 -0.3925  0.0564  0.4288
  835MOL0     C10126   0.759   3.726   6.469  0.2143  0.6607 -0.1858
  835MOL0     C10127   0.689   3.847   6.535  1.0132 -0.2304  0.3663
  835MOL0     C10128   0.553   3.845   6.467 -0.9522 -0.4899  0.0941
  835MOL0     C10129   0.460   3.960   6.518  0.3443  0.0761  0.0802
  835MOL0     C10130   0.320   3.918   6.547 -1.1688 -0.2352 -0.6648
  835MOL0     C10131   0.246   4.037   6.608 -0.1349  0.1600 -0.2030
  835MOL0    Cl10132   0.252   4.178   6.487 -0.5679 -0.1394 -0.1265
  835MOL0     C10133   1.343   3.568   6.420 -0.6481  0.4501  0.6085
  835MOL0     C10134   1.439   3.494   6.357  0.3417  0.7875 -0.2619
  835MOL0     O10135   1.534   3.210   6.371 -0.0099 -0.0797  0.3341
  835MOL0     C10136   1.707   3.167   6.052 -0.0747  0.6763 -0.0476
  835MOL0     C10137   1.790   3.068   5.994  0.5916 -0.0730 -0.0614
  835MOL0     N10138   2.461   2.900   5.979  0.3582  0.3507  0.9237
  835MOL0     N10139   2.574   2.947   5.960 -0.7736  0.3709 -0.5716
  835MOL0     C10140   3.476   3.045   5.625  0.1463  0.0953 -0.7156
  835MOL0     C10141   3.572   2.952   5.593  0.3274  0.1341  0.8009
  835MOL0     C10142   3.923   2.675   5.503  0.4598  0.2521 -0.6413
  835MOL0     C10143   3.915   2.574   5.413 -0.5639  0.1048  0.9368
  835MOL0     C10144   4.030   2.502   5.370 -0.5885  0.2344 -0.1036
  835MOL0     C10145   4.151   2.555   5.409  0.3566 -0.1841  0.4705
  835MOL0     O10146   4.267   2.512   5.357 -0.5724  0.4789 -0.4428
  835MOL0     C10147   4.260   2.398   5.276 -0.3228 -0.6653 -0.4201
  835MOL0     C10148   4.411   2.396   5.220 -0.0551  0.5111  0.0260
  835MOL0     C10149   4.444   2.260   5.166  0.2814  0.4195  0.9830
  835MOL0     C10150   4.561   2.283   5.059  0.3234  0.6102 -0.7361
  835MOL0     C10151   4.578   2.173   4.965 -0.3647 -0.1928  0.1254
  835MOL0     C10152   4.606   2.094   4.877 -0.2069  0.1399 -0.3725
  835MOL0     C10153   4.165   2.669   5.493  0.2604 -0.2243 -0.0292
  835MOL0     C10154   4.049   2.735   5.532  1.1356 -0.2412  0.9762
  835MOL0     H10155   3.802   2.989   5.829  0.5278  0.5939 -0.3137
  835MOL0     H10156   3.631   3.142   5.917  2.8371 -3.4003  2.5031
  835MOL0     H10157   3.447   3.285   5.952  0.2663  2.1484 -0.7167
  835MOL0     H10158   3.326   3.156   5.943 -0.6534 -0.1217 -0.9449
  835MOL0     H10159   3.298   3.456   5.871  0.1314  3.1865  3.6594
  835MOL0     H10160   3.237   3.386   6.015 -3.1540 -4.2392  0.0402
  835MOL0     H10161   3.124   3.236   5.787 -2.2097 -0.4696  0.9065
  835MOL0     H10162   3.077   3.415   5.806 -1.4073 -0.8603 -1.5695
  835MOL0     H10163   3.035   3.337   6.054 -0.2672  0.8675 -0.5205
  835MOL0     H10164   2.911   3.299   5.948  0.5717  1.0599  1.0223
  835MOL0     H10165   3.132   3.096   6.012  0.2465  0.1722  0.1172
  835MOL0     H10166   2.984   3.058   5.930 -1.1872 -1.1629  1.7439
  835MOL0     H10167   2.951   3.191   6.198  1.8107  0.6826 -0.2798
  835MOL0     H10168   3.039   3.044   6.207 -0.6249 -4.4950 -2.8553
  835MOL0     H10169   2.864   2.919   6.093  0.6017  0.0422  0.4872
  835MOL0     H10170   2.812   2.988   6.241  0.3188  0.4509  0.5302
  835MOL0     H10171   2.755   3.129   5.967 -0.1766 -0.0106 -0.4886
  835MOL0     H10172   2.714   3.186   6.142 -0.7788  1.4805 -1.0758
  835MOL0     H10173   2.483   3.059   6.252  0.4095  1.2227 -0.4604
  835MOL0     H10174   2.295   2.907   6.266  0.6248  0.8438 -0.6740
  835MOL0     H10175   2.331   2.757   6.170  0.4156 -0.3893 -4.4739
  835MOL0     H10176   2.188   2.857   5.974 -0.1760 -1.1523 -0.1703
  835MOL0     H10177   2.153   2.988   6.068  1.4178  0.6524 -0.9010
  835MOL0     H10178   2.107   2.689   6.156  0.7053  0.6483  2.0535
  835MOL0     H10179   2.022   2.810   6.232  2.6127  2.1250  1.0174
  835MOL0     H10180   1.879   2.694   6.081 -1.1924  0.1156  0.6538
  835MOL0     H10181   2.003   2.688   5.963  1.2181  0.1325 -0.9130
  835MOL0     H10182   1.807   2.846   6.234 -1.1071 -1.2627  0.6007
  835MOL0     H10183   1.650   2.997   6.345 -3.6163  3.2229  0.9975
  835MOL0     H10184   1.245   3.315   6.140 -0.3747  0.4790 -1.6785
  835MOL0     H10185   1.072   3.463   6.247  0.2270  2.4301 -0.0956
  835MOL0     H10186   0.951   3.520   6.505 -0.5401 -1.6700 -1.5487
  835MOL0     H10187   0.940   3.601   6.349 -1.2314  0.2265  0.8035
  835MOL0     H10188   0.959   3.817   6.474 -0.9268  0.0807 -0.2789
  835MOL0     H10189   0.919   3.725   6.618  2.9013 -0.2773  0.2753
  835MOL0     H10190   0.699   3.637   6.489 -0.0646 -0.1774 -3.9270
  835MOL0     H10191   0.751   3.740   6.361 -0.9082  1.6732 -0.0025
  835MOL0     H10192   0.690   3.841   6.644 -2.6839  0.3493  0.5545
  835MOL0     H10193   0.747   3.935   6.505  3.4792 -2.3085 -1.4491
  835MOL0     H10194   0.509   3.752   6.503 -0.2560 -1.1237 -0.6650
  835MOL0     H10195   0.548   3.854   6.358 -0.7198  2.6727  0.2354
  835MOL0     H10196   0.450   4.045   6.449  0.7719  1.0260  1.1623
  835MOL0     H10197   0.496   3.997   6.614 -0.2494 -0.2293  0.4287
  835MOL0     H10198   0.261   3.891   6.459 -1.9861  0.9408 -0.5014
  835MOL0     H10199   0.313   3.834   6.617 -1.2334 -0.6275 -1.1442
  835MOL0     H10200   0.283   4.060   6.708 -2.9456 -0.2512  1.0332
  835MOL0     H10201   0.139   4.014   6.620  0.2106 -0.9492  0.9291
  835MOL0     H10202   1.372   3.640   6.495 -0.2343  2.3012 -1.2365
  835MOL0     H10203   1.543   3.511   6.383  1.0890  1.4050 -3.2113
  835MOL0     H10204   1.686   3.262   6.004  1.4599 -0.3000 -2.9096
  835MOL0     H10205   1.835   3.081   5.895  1.4244 -1.1278  0.1599
  835MOL0     H10206   3.407   3.076   5.547 -1.1629  3.8761  1.6653
  835MOL0     H10207   3.563   2.908   5.494 -1.0857  0.1938  0.8863
  835MOL0     H10208   3.816   2.552   5.374 -0.1058 -0.5264  0.0927
  835MOL0     H10209   4.018   2.414   5.308 -1.0395  1.8674 -2.4810
  835MOL0     H10210   4.205   2.409   5.182  2.7082  3.6038 -1.9884
  835MOL0     H10211   4.233   2.310   5.335 -3.0284  0.7390  0.6220
  835MOL0     H10212   4.428   2.479   5.151 -2.1176  1.5234  0.6248
  835MOL0     H10213   4.467   2.413   5.313 -0.6256 -0.6925  0.6142
  835MOL0     H10214   4.353   2.219   5.121 -0.5747 -0.2617  3.2258
  835MOL0     H10215   4.472   2.196   5.251  1.8350  3.0618  2.5845
  835MOL0     H10216   4.551   2.371   4.995  0.0148 -0.1906 -1.8040
  835MOL0     H10217   4.655   2.295   5.113  1.0777 -0.8151 -1.6740
  835MOL0     H10218   4.630   2.024   4.799  1.8164 -0.7389  0.9503
  835MOL0     H10219   4.260   2.720   5.505 -0.9579  2.8109 -2.0263
  835MOL0     H10220   4.058   2.823   5.594  1.3363 -1.8115  3.3166
  836MOL0     O10221  10.906   4.194   2.975 -0.1370 -0.3890 -0.8382
  836MOL0     C10222  10.961   4.227   2.872  0.1897 -0.3158  0.1439
  836MOL0     O10223  10.902   4.257   2.743 -0.5450 -0.4569 -0.3333
  836MOL0     C10224  10.777   4.249   2.699 -0.0500  0.0810 -0.0844
  836MOL0     C10225  10.759   4.189   2.574  0.3162 -0.3915  1.0113
  836MOL0     C10226  10.633   4.169   2.527  0.2355  0.3544  0.7426
  836MOL0     C10227  10.519   4.213   2.595  0.7612  0.8576  1.1017
  836MOL0     O10228  10.399   4.197   2.520  0.7964 -0.5512 -1.1623
  836MOL0     C10229  10.278   4.186   2.603 -0.4174 -0.4723 -0.1600
  836MOL0     C10230  10.159   4.190   2.503 -0.3239  0.9976 -0.2320
  836MOL0     C10231  10.123   4.315   2.439 -0.0937 -0.0546 -0.1956
  836MOL0     C10232  10.011   4.271   2.336  0.9129  0.3809 -0.2675
  836MOL0     C10233   9.871   4.261   2.403  0.2885  0.6977 -0.9478
  836MOL0     C10234   9.771   4.214   2.299  0.1521  0.5703 -0.6734
  836MOL0     C10235   9.629   4.209   2.364  0.2554  0.2964  0.3709
  836MOL0     C10236   9.545   4.082   2.311 -0.1254 -0.5692  0.5363
  836MOL0     N10237   9.404   4.093   2.332  0.8041  1.0261  0.0490
  836MOL0     C10238   9.312   4.152   2.255  1.0432 -0.3109 -0.2079
  836MOL0     C10239   9.193   4.106   2.284 -0.1901  0.9035 -0.7036
  836MOL0     C10240   9.070   4.102   2.198  0.2284  0.0365 -0.2042
  836MOL0     C10241   9.030   3.957   2.142  0.2958  0.1264  0.5580
  836MOL0     C10242   8.937   3.970   2.015  0.0617  0.0653 -0.5191
  836MOL0     C10243   8.856   3.846   1.993 -0.0750  0.1432  0.1604
  836MOL0     O10244   8.777   3.809   2.108 -0.0707 -0.1614 -0.1898
  836MOL0     C10245   8.677   3.891   2.157 -1.5845 -0.4956 -0.2532
  836MOL0     C10246   8.553   3.894   2.096 -0.5160  0.4999 -0.2848
  836MOL0     C10247   8.458   3.984   2.151  0.2496 -0.2656 -0.6764
  836MOL0     C10248   8.479   4.063   2.258 -0.5228 -1.0182 -0.5586
  836MOL0     C10249   8.366   4.148   2.322  0.5852 -0.2398 -0.2633
  836MOL0     O10250   8.272   4.197   2.230  1.6501 -0.5907 -0.1598
  836MOL0     C10251   8.157   4.269   2.263 -0.6757 -0.3782  0.6662
  836MOL0     C10252   8.177   4.391   2.326  0.3228 -0.3177 -0.8145
  836MOL0     C10253   8.068   4.469   2.363 -0.5940  0.4501  0.5439
  836MOL0     C10254   7.936   4.424   2.343 -0.4046  0.1901 -0.4946
  836MOL0     O10255   7.834   4.509   2.370 -0.6165 -0.2833 -0.4688
  836MOL0     C10256   7.702   4.464   2.345 -0.0074 -0.1411 -0.1363
  836MOL0     C10257   7.599   4.573   2.371 -0.4497 -0.1143  0.2630
  836MOL0     C10258   7.473   4.528   2.298  0.0709  0.9710 -0.4364
  836MOL0     C10259   7.362   4.642   2.308 -0.1970 -0.0935  1.1824
  836MOL0     C10260   7.242   4.582   2.238  0.2529 -0.1559 -0.3946
  836MOL0     C10261   7.149   4.693   2.205  0.7201 -0.2707  0.4910
  836MOL0     C10262   7.036   4.652   2.118  0.6745  0.0985 -0.1650
  836MOL0     C10263   6.931   4.762   2.108 -0.1340 -0.5523 -0.5644
  836MOL0    Cl10264   6.772   4.687   2.074  0.2942  0.0383  0.2999
  836MOL0     C10265   7.923   4.293   2.286 -0.1571  0.2591 -0.8267
  836MOL0     C10266   8.031   4.213   2.256 -0.7576 -0.2379 -0.0267
  836MOL0     O10267   8.350   4.152   2.445 -0.3949 -0.0719  0.4355
  836MOL0     C10268   8.588   4.033   2.337  0.7062  0.2743  0.1220
  836MOL0     C10269   8.685   3.949   2.282 -0.4669 -0.6607 -0.3267
  836MOL0     N10270   9.215   4.027   2.400  0.2930  0.2641  0.6753
  836MOL0     N10271   9.341   4.031   2.435  0.2705 -0.7711 -0.3320
  836MOL0     C10272  10.534   4.265   2.720 -0.0815 -1.1155  0.1767
  836MOL0     C10273  10.665   4.273   2.775  1.3127 -0.2077 -0.0194
  836MOL0     C10274  11.119   4.228   2.877  1.0299  0.6581  0.2658
  836MOL0     C10275  11.195   4.204   2.763  0.0839  0.2368 -0.0540
  836MOL0     C10276  11.335   4.197   2.768  0.0169  0.0924  0.2496
  836MOL0     C10277  11.399   4.209   2.889 -0.2592 -0.3684  0.4562
  836MOL0     O10278  11.544   4.199   2.880  0.2937 -0.1517  0.3994
  836MOL0     C10279  11.623   4.256   2.990  0.8685  0.0637 -0.7429
  836MOL0     C10280  11.708   4.161   3.066 -0.2780  0.7072  0.3942
  836MOL0     C10281  11.638   4.038   3.130  0.0888  0.0467 -0.2888
  836MOL0     C10282  11.736   3.925   3.179 -1.7215 -0.3939 -0.6447
  836MOL0     C10283  11.816   3.973   3.299  0.6134 -0.2495  0.7451
  836MOL0     C10284  11.884   4.022   3.378  0.8827  0.5914  0.2026
  836MOL0     C10285  11.324   4.237   3.005 -0.9577  0.1918 -0.2767
  836MOL0     C10286  11.191   4.256   2.997  0.4528  0.4221  0.0977
  836MOL0     H10287  10.841   4.161   2.509 -1.3582  0.5463 -1.6837
  836MOL0     H10288  10.621   4.132   2.425  0.5307 -1.4017  1.3133
  836MOL0     H10289  10.259   4.269   2.672 -0.4899 -1.4393  1.0268
  836MOL0     H10290  10.283   4.090   2.655 -0.1885 -1.6324 -2.2146
  836MOL0     H10291  10.073   4.149   2.557 -0.8355  0.8504 -1.1496
  836MOL0     H10292  10.189   4.129   2.417 -1.7025 -0.1301  0.0475
  836MOL0     H10293  10.203   4.361   2.380  0.0339  5.0381  3.3182
  836MOL0     H10294  10.092   4.391   2.511 -0.3421  0.6015 -0.9792
  836MOL0     H10295  10.004   4.344   2.255 -3.1785 -1.7293 -2.1253
  836MOL0     H10296  10.034   4.176   2.287  0.9163 -0.0546  0.5642
  836MOL0     H10297   9.844   4.362   2.437  3.4754  1.1130  0.7773
  836MOL0     H10298   9.875   4.194   2.489  2.4383 -2.5599 -3.3608
  836MOL0     H10299   9.804   4.115   2.269 -0.6213 -0.5973  2.0067
  836MOL0     H10300   9.775   4.275   2.208  1.0890 -1.7297 -2.2425
  836MOL0     H10301   9.638   4.197   2.473 -2.0425 -0.9076  0.4996
  836MOL0     H10302   9.577   4.303   2.344 -0.5524 -0.4823 -1.4499
  836MOL0     H10303   9.587   3.987   2.347 -0.1414 -0.8124 -0.0797
  836MOL0     H10304   9.555   4.075   2.202 -0.7672  3.1855  0.1107
  836MOL0     H10305   9.342   4.203   2.164  2.7284 -2.9220 -1.2077
  836MOL0     H10306   9.090   4.174   2.118  1.5763  0.8392  0.8031
  836MOL0     H10307   8.980   4.133   2.252 -0.8435 -1.0153 -1.3299
  836MOL0     H10308   8.977   3.915   2.228  0.9466  1.8559  1.8558
  836MOL0     H10309   9.118   3.894   2.131 -0.6256 -0.8480 -1.8416
  836MOL0     H10310   8.870   4.056   2.028 -2.4618 -2.2295  4.2603
  836MOL0     H10311   9.003   3.991   1.931 -1.3383  1.5184 -1.3281
  836MOL0     H10312   8.926   3.767   1.965 -4.9733 -3.7256 -2.9411
  836MOL0     H10313   8.785   3.861   1.911 -0.0835  0.7009  0.2707
  836MOL0     H10314   8.542   3.838   2.004  2.0784  0.0364 -0.3948
  836MOL0     H10315   8.364   3.983   2.098  0.2096  0.6865 -0.6478
  836MOL0     H10316   8.280   4.424   2.334 -0.1392  0.9058  0.6563
  836MOL0     H10317   8.093   4.553   2.428  0.0938 -1.4117  2.8586
  836MOL0     H10318   7.678   4.375   2.405  1.1153 -1.5680 -1.7146
  836MOL0     H10319   7.704   4.433   2.240 -1.7906  0.0718 -0.2698
  836MOL0     H10320   7.632   4.672   2.340  1.3243 -0.8351 -0.2528
  836MOL0     H10321   7.587   4.588   2.479 -4.5897  2.2633 -0.2946
  836MOL0     H10322   7.433   4.430   2.327 -0.9807  1.3761 -0.4586
  836MOL0     H10323   7.496   4.514   2.192 -1.7844 -0.2725 -0.7333
  836MOL0     H10324   7.336   4.669   2.411 -2.5110  0.1575  0.5902
  836MOL0     H10325   7.407   4.725   2.253  1.5060 -1.2355  0.7662
  836MOL0     H10326   7.194   4.494   2.283  1.4724 -0.9859 -0.6791
  836MOL0     H10327   7.283   4.545   2.144  1.5891  1.8598 -0.6579
  836MOL0     H10328   7.201   4.767   2.143 -0.2558 -0.4290 -0.5570
  836MOL0     H10329   7.105   4.740   2.293  0.6965  1.2986 -0.3254
  836MOL0     H10330   7.068   4.618   2.018  2.4538  0.5456  0.2267
  836MOL0     H10331   6.983   4.571   2.168 -0.7705  0.4312 -1.0969
  836MOL0     H10332   6.956   4.851   2.050 -3.8647  0.7875 -0.3858
  836MOL0     H10333   6.926   4.805   2.208  0.7178  0.7433 -1.0513
  836MOL0     H10334   7.829   4.258   2.244 -0.3405 -2.7367  1.7048
  836MOL0     H10335   8.024   4.117   2.207  1.8850 -0.8803  0.7412
  836MOL0     H10336   8.615   4.066   2.436 -2.5382  1.0425  0.8627
  836MOL0     H10337   8.776   3.939   2.341 -1.1168  2.6543  1.4631
  836MOL0     H10338  10.455   4.307   2.782 -0.3846 -1.0516 -0.2463
  836MOL0     H10339  10.666   4.310   2.877  0.3795 -3.6700  1.3678
  836MOL0     H10340  11.141   4.192   2.670  2.5476 -4.1601 -1.2121
  836MOL0     H10341  11.393   4.154   2.687 -0.9172 -1.6690  0.4623
  836MOL0     H10342  11.554   4.309   3.056 -0.8160 -2.6544 -0.1643
  836MOL0     H10343  11.692   4.333   2.955  0.3529  1.6090  1.4257
  836MOL0     H10344  11.797   4.127   3.011 -0.5920  3.2448 -1.8931
  836MOL0     H10345  11.758   4.204   3.154  4.8406 -2.5326 -0.4743
  836MOL0     H10346  11.570   3.994   3.056 -0.6690 -1.5152  1.2696
  836MOL0     H10347  11.593   4.078   3.221  1.2211 -0.2632  0.4368
  836MOL0     H10348  11.662   3.858   3.225  0.2694 -2.8803 -0.7854
  836MOL0     H10349  11.794   3.880   3.098  2.5552  3.2105  0.0461
  836MOL0     H10350  11.937   4.063   3.462 -0.8204 -0.2756  1.7795
  836MOL0     H10351  11.381   4.221   3.096  2.7112  2.7653 -1.8572
  836MOL0     H10352  11.134   4.262   3.090  3.7796  0.7729  2.2860
  837MOL0     O10353   1.155   5.957   2.611  0.1633  0.1489 -0.0129
  837MOL0     C10354   1.139   6.079   2.595 -0.5599  0.4451 -0.2364
  837MOL0     O10355   1.031   6.153   2.602 -0.2264 -0.4942  0.5545
  837MOL0     C10356   0.915   6.087   2.637 -0.2597  0.2108 -0.0490
  837MOL0     C10357   0.808   6.068   2.541  0.4366  0.4722  0.5205
  837MOL0     C10358   0.692   5.999   2.568  0.0973 -0.3713  0.0809
  837MOL0     C10359   0.667   5.944   2.698  0.2005  0.4444 -0.5370
  837MOL0     O10360   0.534   5.891   2.722  0.6629  0.5148 -0.3577
  837MOL0     C10361   0.507   5.835   2.847 -0.7682  0.9265  0.2761
  837MOL0     C10362   0.425   5.930   2.934 -0.0362 -0.9062 -0.2292
  837MOL0     C10363   0.278   5.885   2.944  1.1253  0.2802 -0.2113
  837MOL0     C10364   0.199   5.972   3.040 -0.1631 -0.2110  0.3487
  837MOL0     C10365   0.062   5.920   3.060 -0.3825 -0.2069  0.1859
  837MOL0     C10366  -0.024   6.003   3.163  0.1066 -0.4260  0.0097
  837MOL0     C10367  -0.172   5.979   3.158  0.4383  0.4606 -0.2113
  837MOL0     C10368  -0.246   6.062   3.260  0.1818  0.4584 -0.2646
  837MOL0     N10369  -0.388   6.029   3.258  0.3185 -0.4849  0.4884
  837MOL0     C10370  -0.446   5.948   3.353  0.7353 -0.0963 -0.2428
  837MOL0     C10371  -0.579   5.949   3.320  0.3238 -0.0961 -1.1251
  837MOL0     C10372  -0.684   5.865   3.394 -0.0675 -0.1465 -0.6968
  837MOL0     C10373  -0.668   5.722   3.337 -0.0363 -0.8447  1.0304
  837MOL0     C10374  -0.740   5.629   3.426  0.6099 -0.4838  0.0477
  837MOL0     C10375  -0.891   5.648   3.439  0.0706 -0.0545 -0.2984
  837MOL0     O10376  -0.957   5.606   3.312 -0.3943 -0.4221  0.3929
  837MOL0     C10377  -1.089   5.601   3.293  0.2443 -0.0833 -0.3250
  837MOL0     C10378  -1.138   5.562   3.171 -0.1762 -0.2350 -0.8714
  837MOL0     C10379  -1.267   5.555   3.140  0.0755  0.1131 -1.2789
  837MOL0     C10380  -1.364   5.587   3.242  0.0030  0.7747  0.4799
  837MOL0     C10381  -1.503   5.578   3.204 -0.6283 -0.2919  0.8330
  837MOL0     O10382  -1.537   5.554   3.071 -0.3537  0.2696 -0.3401
  837MOL0     C10383  -1.668   5.538   3.034  0.2838 -0.0166 -0.0802
  837MOL0     C10384  -1.728   5.617   2.934 -0.0063  0.1196 -0.6389
  837MOL0     C10385  -1.861   5.594   2.902  0.3234  0.0392 -0.1312
  837MOL0     C10386  -1.932   5.482   2.948 -0.3647 -0.0451 -0.2605
  837MOL0     O10387  -2.050   5.452   2.901  0.0422  0.5647  0.6153
  837MOL0     C10388  -2.141   5.548   2.849  0.3019 -0.2931 -0.0003
  837MOL0     C10389  -2.267   5.473   2.809 -0.6297 -0.0277  0.2310
  837MOL0     C10390  -2.365   5.572   2.743 -0.3122 -0.9112 -0.0240
  837MOL0     C10391  -2.501   5.506   2.712  0.2673 -0.1168 -0.8260
  837MOL0     C10392  -2.621   5.608   2.705  0.4034  0.1923 -0.4435
  837MOL0     C10393  -2.756   5.531   2.702 -1.0642 -0.6630  0.5151
  837MOL0     C10394  -2.876   5.619   2.675 -0.1719 -0.1540 -1.3080
  837MOL0     C10395  -3.008   5.539   2.705  0.4395  0.7837  0.6066
  837MOL0    Cl10396  -3.012   5.382   2.619  0.5716 -0.2172 -0.1255
  837MOL0     C10397  -1.877   5.403   3.045  0.1335  0.8482  0.2560
  837MOL0     C10398  -1.747   5.435   3.086  0.6906 -0.2280  0.0835
  837MOL0     O10399  -1.576   5.600   3.298  0.2855  0.3256  0.0164
  837MOL0     C10400  -1.310   5.630   3.365  0.4221 -0.2063 -0.6623
  837MOL0     C10401  -1.181   5.634   3.392 -0.0978  0.1320  0.3689
  837MOL0     N10402  -0.602   6.031   3.215  0.3541  0.4501 -0.3017
  837MOL0     N10403  -0.490   6.080   3.179 -0.1727 -0.3228 -0.0709
  837MOL0     C10404   0.767   5.953   2.794 -0.3475  0.1974  0.2996
  837MOL0     C10405   0.882   6.026   2.766  0.5341  0.3353  0.2526
  837MOL0     C10406   1.259   6.140   2.533  1.0192  0.0400 -0.6594
  837MOL0     C10407   1.259   6.266   2.467  0.3047 -0.4292 -0.4445
  837MOL0     C10408   1.379   6.312   2.407 -0.2020 -0.3865  0.3043
  837MOL0     C10409   1.504   6.247   2.431 -0.3177 -0.3465  0.2625
  837MOL0     O10410   1.621   6.301   2.387  0.4185  0.3569  0.1975
  837MOL0     C10411   1.692   6.392   2.474 -0.4885 -0.2549  0.8339
  837MOL0     C10412   1.848   6.402   2.452 -0.1606 -0.0750 -0.0556
  837MOL0     C10413   1.915   6.272   2.507  0.4309 -0.0355 -0.2927
  837MOL0     C10414   2.070   6.267   2.490  0.2499 -0.2316  0.3812
  837MOL0     C10415   2.131   6.392   2.541  0.2918  0.2017  0.0776
  837MOL0     C10416   2.174   6.498   2.588  0.3426  1.2790 -0.8006
  837MOL0     C10417   1.507   6.129   2.501  0.0649  0.6683 -1.2012
  837MOL0     C10418   1.386   6.082   2.559  0.9424 -0.4029  0.2465
  837MOL0     H10419   0.819   6.093   2.436 -0.0200 -0.9267  0.1096
  837MOL0     H10420   0.632   5.960   2.486  2.5614 -2.3303 -0.9186
  837MOL0     H10421   0.593   5.816   2.913 -0.8486  1.8374  0.6534
  837MOL0     H10422   0.474   5.731   2.835  0.6530  0.5543 -0.7773
  837MOL0     H10423   0.428   6.026   2.881  1.6113 -2.0344 -2.3611
  837MOL0     H10424   0.460   5.943   3.037 -1.5553  0.2435  0.1904
  837MOL0     H10425   0.270   5.782   2.978 -2.3714 -0.2074 -2.0628
  837MOL0     H10426   0.236   5.879   2.843  1.2295 -3.3473 -0.1683
  837MOL0     H10427   0.251   5.970   3.137 -1.5947 -3.9058  1.2293
  837MOL0     H10428   0.182   6.071   2.998 -1.2810 -0.9452 -0.9946
  837MOL0     H10429   0.070   5.813   3.080  2.3275 -0.7414 -2.8977
  837MOL0     H10430   0.007   5.916   2.965  0.5104 -1.5529 -0.3048
  837MOL0     H10431   0.012   6.106   3.154  1.6150 -1.0722 -2.0139
  837MOL0     H10432   0.005   5.975   3.264  3.5693  1.6489 -0.2633
  837MOL0     H10433  -0.223   5.997   3.063 -2.9196 -1.3350  1.1139
  837MOL0     H10434  -0.191   5.872   3.169 -0.7066  0.7667  0.9460
  837MOL0     H10435  -0.243   6.168   3.235 -1.6422  0.8977  1.0937
  837MOL0     H10436  -0.203   6.048   3.360  3.6116  0.8082 -1.5950
  837MOL0     H10437  -0.395   5.901   3.436 -1.5693 -0.0271  1.2929
  837MOL0     H10438  -0.784   5.907   3.377  0.3673 -0.0370 -3.3669
  837MOL0     H10439  -0.668   5.861   3.503  2.9493 -1.5147 -1.0860
  837MOL0     H10440  -0.561   5.703   3.334  1.2662  4.9511 -0.4889
  837MOL0     H10441  -0.706   5.713   3.235  1.3312 -2.9702  0.6390
  837MOL0     H10442  -0.736   5.524   3.397 -1.0475 -0.9839  1.4861
  837MOL0     H10443  -0.701   5.636   3.528 -1.9365  2.7910  1.0015
  837MOL0     H10444  -0.917   5.752   3.463 -0.2563 -0.4770  1.2909
  837MOL0     H10445  -0.934   5.585   3.518 -2.5941  1.8987 -0.0506
  837MOL0     H10446  -1.057   5.532   3.106 -0.0236 -0.8759 -0.3972
  837MOL0     H10447  -1.306   5.517   3.046 -3.3942  0.1432 -0.0280
  837MOL0     H10448  -1.669   5.697   2.891 -0.1421  1.6620  1.8386
  837MOL0     H10449  -1.912   5.650   2.824 -2.4627  0.2658  1.7377
  837MOL0     H10450  -2.118   5.600   2.755 -1.6385  0.7957  0.0679
  837MOL0     H10451  -2.157   5.625   2.925  0.0796 -1.1145  0.7973
  837MOL0     H10452  -2.296   5.428   2.904 -0.6620  1.0875  0.7620
  837MOL0     H10453  -2.249   5.388   2.743  0.7611 -1.5097  2.3938
  837MOL0     H10454  -2.326   5.618   2.651  1.0155  0.1038  0.9981
  837MOL0     H10455  -2.384   5.654   2.813 -2.2480 -0.6138 -0.8364
  837MOL0     H10456  -2.499   5.454   2.616 -2.0591 -2.1467  0.1268
  837MOL0     H10457  -2.524   5.436   2.792  2.4112  0.1962  0.1495
  837MOL0     H10458  -2.624   5.658   2.608  0.0243 -0.2009 -0.6388
  837MOL0     H10459  -2.617   5.685   2.783 -2.4303  0.7392 -0.7350
  837MOL0     H10460  -2.772   5.483   2.799  0.4415 -1.0707  0.5993
  837MOL0     H10461  -2.743   5.455   2.624 -0.4401  1.8527 -1.9828
  837MOL0     H10462  -2.875   5.699   2.749  0.3974  0.3591 -1.8603
  837MOL0     H10463  -2.884   5.653   2.571  0.2572 -1.9457 -1.9570
  837MOL0     H10464  -3.088   5.605   2.673  2.0064  2.4627 -0.0453
  837MOL0     H10465  -3.027   5.521   2.812  0.8863  0.5630  0.6532
  837MOL0     H10466  -1.939   5.322   3.082 -0.1802 -0.6040 -3.0849
  837MOL0     H10467  -1.716   5.368   3.165  1.1781  0.4804  0.5000
  837MOL0     H10468  -1.380   5.659   3.442 -0.2588  1.9023 -1.9758
  837MOL0     H10469  -1.153   5.670   3.491 -1.6213  3.8003 -0.3741
  837MOL0     H10470   0.755   5.913   2.894  1.6634 -1.7847 -0.1652
  837MOL0     H10471   0.956   6.051   2.841  2.2271  1.0802 -1.5796
  837MOL0     H10472   1.168   6.325   2.465  0.0812 -0.6729 -3.8859
  837MOL0     H10473   1.368   6.408   2.357  0.0168  0.4139  1.7321
  837MOL0     H10474   1.676   6.352   2.575 -0.0213 -2.3378  0.1335
  837MOL0     H10475   1.643   6.489   2.473 -1.4603 -0.7281  0.6468
  837MOL0     H10476   1.860   6.424   2.345 -0.6495  1.3001  0.1517
  837MOL0     H10477   1.876   6.496   2.501  0.1662 -0.4127  0.4106
  837MOL0     H10478   1.875   6.180   2.464  1.0853 -1.0426  1.1860
  837MOL0     H10479   1.896   6.262   2.614  1.9939  1.2570  0.1406
  837MOL0     H10480   2.112   6.176   2.536  1.2247 -0.9814 -1.8605
  837MOL0     H10481   2.090   6.249   2.384  1.1644 -2.1022  0.8232
  837MOL0     H10482   2.211   6.580   2.647 -0.1335  0.4173  0.7534
  837MOL0     H10483   1.599   6.076   2.521  2.1946  3.2065 -3.5971
  837MOL0     H10484   1.387   5.986   2.610 -2.1343  0.1112  1.5178
  838MOL0     O10485   2.992   0.716   4.127  0.0055 -0.3194 -0.6690
  838MOL0     C10486   3.007   0.819   4.058  0.0324 -0.1495  0.2901
  838MOL0     O10487   2.901   0.886   3.999  0.1284  0.6508 -0.1718
  838MOL0     C10488   2.775   0.822   4.006  0.1062  0.9432 -0.9367
  838MOL0     C10489   2.676   0.871   4.093  0.2151 -0.5479 -0.0805
  838MOL0     C10490   2.550   0.793   4.099  0.8559 -0.3949 -0.7766
  838MOL0     C10491   2.519   0.687   4.011 -0.1017  0.3039  0.1708
  838MOL0     O10492   2.397   0.619   4.021 -0.1107  0.2575  0.7517
  838MOL0     C10493   2.315   0.627   4.140 -0.2217  0.0506  0.4868
  838MOL0     C10494   2.194   0.541   4.112  0.4521 -0.3092 -0.2025
  838MOL0     C10495   2.101   0.606   4.003  0.1788 -0.3194  0.3728
  838MOL0     C10496   1.946   0.625   4.039 -0.5721 -0.0064 -0.1032
  838MOL0     C10497   1.874   0.741   3.974  0.9453 -0.0789 -0.2782
  838MOL0     C10498   1.921   0.886   4.016  0.8139 -0.4727  0.1359
  838MOL0     C10499   1.808   0.994   3.982  0.3218  0.0980 -1.0248
  838MOL0     C10500   1.715   1.001   4.106 -0.6292 -0.7701 -0.3999
  838MOL0     N10501   1.633   1.114   4.072 -0.4134  0.6739  0.6505
  838MOL0     C10502   1.500   1.121   4.029  0.3863  0.1049 -0.1069
  838MOL0     C10503   1.466   1.244   3.999 -0.9066  0.7041 -0.0369
  838MOL0     C10504   1.334   1.298   3.942 -0.6109 -0.0005 -0.0111
  838MOL0     C10505   1.216   1.282   4.037  0.4522 -0.7800 -0.4617
  838MOL0     C10506   1.089   1.357   3.975 -0.9002  1.0682  0.1992
  838MOL0     C10507   1.098   1.504   3.927  0.3897 -0.7247 -0.7954
  838MOL0     O10508   0.975   1.553   3.867  0.9214  0.0843 -0.5102
  838MOL0     C10509   0.866   1.573   3.957  0.2118 -0.9232  0.7384
  838MOL0     C10510   0.873   1.561   4.097 -0.4275  0.0403 -1.0662
  838MOL0     C10511   0.754   1.572   4.172  0.0821 -0.0902  1.3883
  838MOL0     C10512   0.636   1.601   4.114 -0.1793 -0.3078  0.4505
  838MOL0     C10513   0.511   1.601   4.198 -0.3098  0.4456 -1.1367
  838MOL0     O10514   0.403   1.538   4.146  0.2757  0.3492  0.7728
  838MOL0     C10515   0.282   1.551   4.211  0.2811  0.0257 -0.0396
  838MOL0     C10516   0.220   1.444   4.283 -0.2397  0.3791  0.0265
  838MOL0     C10517   0.095   1.457   4.338  1.3928 -0.1072  0.6118
  838MOL0     C10518   0.023   1.581   4.337  0.5475 -0.2257  0.0041
  838MOL0     O10519  -0.109   1.595   4.379 -0.1973 -0.1980 -0.2200
  838MOL0     C10520  -0.187   1.478   4.420 -0.1350 -0.5799  0.5512
  838MOL0     C10521  -0.333   1.523   4.416  0.1712  0.0398 -0.3897
  838MOL0     C10522  -0.376   1.650   4.492 -0.6126  0.6639 -0.7577
  838MOL0     C10523  -0.528   1.687   4.494 -0.2894  0.4776  0.1204
  838MOL0     C10524  -0.549   1.829   4.571 -0.3817  0.2060  0.2539
  838MOL0     C10525  -0.700   1.831   4.611 -0.8453 -0.2574  0.3078
  838MOL0     C10526  -0.730   1.973   4.664  0.3225  0.0233  0.5227
  838MOL0     C10527  -0.863   1.962   4.737 -0.6751 -0.0632 -0.3410
  838MOL0    Cl10528  -0.986   1.887   4.642  0.4123 -0.2835  0.1976
  838MOL0     C10529   0.086   1.691   4.274  0.7370 -0.0505  0.3595
  838MOL0     C10530   0.211   1.670   4.216 -0.7810  0.5521  0.8615
  838MOL0     O10531   0.516   1.657   4.312 -0.8605 -0.2296  0.4706
  838MOL0     C10532   0.629   1.636   3.980  0.0721  0.0179 -0.7928
  838MOL0     C10533   0.750   1.621   3.902 -0.8927 -0.0954 -0.3933
  838MOL0     N10534   1.579   1.328   4.032 -0.0337  0.7237 -0.0954
  838MOL0     N10535   1.671   1.242   4.079 -0.8433  0.2028  0.5788
  838MOL0     C10536   2.613   0.660   3.917 -0.3409  0.1100  0.5235
  838MOL0     C10537   2.738   0.722   3.918 -0.7415  0.3085  0.5121
  838MOL0     C10538   3.141   0.874   4.037  0.5558 -0.0213 -0.5225
  838MOL0     C10539   3.160   1.007   3.988  0.5625  0.7478  0.3416
  838MOL0     C10540   3.289   1.064   3.987  0.2453 -0.6529 -0.6208
  838MOL0     C10541   3.403   0.996   4.029 -0.4633  0.5963  0.2409
  838MOL0     O10542   3.527   1.054   4.009 -0.0922  0.0402 -0.4080
  838MOL0     C10543   3.647   0.972   4.045 -0.1008 -0.0545 -0.2059
  838MOL0     C10544   3.766   1.071   4.027  1.0251 -0.4256 -0.9212
  838MOL0     C10545   3.895   1.032   4.087  0.5119 -0.0770  0.3878
  838MOL0     C10546   4.002   1.133   4.039 -0.3826 -0.1092  0.8614
  838MOL0     C10547   4.137   1.103   4.093 -0.6097  0.1836 -0.1537
  838MOL0     C10548   4.252   1.084   4.134  0.0053 -0.2020 -0.7247
  838MOL0     C10549   3.377   0.869   4.073  0.5130 -0.0426 -0.0112
  838MOL0     C10550   3.249   0.814   4.085 -0.0383  0.4076 -1.0249
  838MOL0     H10551   2.693   0.962   4.150  3.1992 -0.0446 -1.6034
  838MOL0     H10552   2.479   0.833   4.170  0.8767  2.4279 -2.2256
  838MOL0     H10553   2.270   0.725   4.157 -4.0696 -1.4356 -0.0587
  838MOL0     H10554   2.364   0.585   4.228 -1.7218 -1.7014  0.5634
  838MOL0     H10555   2.128   0.545   4.199 -0.0211 -1.0693 -0.5176
  838MOL0     H10556   2.206   0.434   4.094 -0.2408 -0.2504 -1.0896
  838MOL0     H10557   2.109   0.553   3.908 -0.1242 -0.6605  0.5383
  838MOL0     H10558   2.142   0.706   3.986  1.1226 -0.5273  1.3092
  838MOL0     H10559   1.894   0.531   4.018  1.3101 -1.5566  1.6695
  838MOL0     H10560   1.924   0.641   4.145 -1.4153 -2.0288  0.0679
  838MOL0     H10561   1.770   0.732   4.006  0.3507  0.3125 -1.9677
  838MOL0     H10562   1.875   0.722   3.866  0.2836 -1.1352 -0.1127
  838MOL0     H10563   2.011   0.920   3.964 -0.0016  0.0328 -1.0121
  838MOL0     H10564   1.939   0.894   4.123 -0.3260 -1.1507  0.3978
  838MOL0     H10565   1.866   1.086   3.991 -2.8346  2.0602  1.4270
  838MOL0     H10566   1.755   0.982   3.888  0.1726  3.3420 -1.4674
  838MOL0     H10567   1.778   1.020   4.193 -0.9989 -0.1128 -0.2719
  838MOL0     H10568   1.654   0.914   4.129 -0.7367  0.0969  3.0747
  838MOL0     H10569   1.428   1.041   4.012 -1.3496 -0.1582  6.0936
  838MOL0     H10570   1.326   1.240   3.850  5.1209 -0.4833 -0.5567
  838MOL0     H10571   1.349   1.402   3.912  2.0083 -0.0506  0.8030
  838MOL0     H10572   1.236   1.333   4.132  0.1399 -4.5175  1.8360
  838MOL0     H10573   1.202   1.176   4.060  0.5852 -0.3639  1.8196
  838MOL0     H10574   1.061   1.298   3.888 -0.0626 -0.7612  1.1183
  838MOL0     H10575   1.011   1.339   4.049  0.8049  1.1004  2.1023
  838MOL0     H10576   1.178   1.512   3.853  1.1923  1.2047  0.2117
  838MOL0     H10577   1.122   1.566   4.014 -2.3884  1.6947 -1.6018
  838MOL0     H10578   0.961   1.524   4.148 -1.1231 -0.5965 -0.3165
  838MOL0     H10579   0.755   1.562   4.280  0.7357  3.8278  1.9163
  838MOL0     H10580   0.278   1.352   4.277  2.5902  1.9435  1.2013
  838MOL0     H10581   0.053   1.369   4.385 -1.3125  1.3781  1.1696
  838MOL0     H10582  -0.152   1.443   4.518 -0.3744  1.0700  1.2491
  838MOL0     H10583  -0.188   1.396   4.346  0.4885 -0.7967  0.7745
  838MOL0     H10584  -0.392   1.439   4.454 -0.2144  0.7114  0.5186
  838MOL0     H10585  -0.355   1.534   4.309 -0.8282 -2.1865 -0.4785
  838MOL0     H10586  -0.320   1.735   4.453  2.9741 -0.4467  1.4998
  838MOL0     H10587  -0.343   1.635   4.595 -1.3356 -0.5668 -0.6754
  838MOL0     H10588  -0.577   1.682   4.396 -1.3960  1.0232  0.6212
  838MOL0     H10589  -0.572   1.610   4.558  4.0102 -0.9761  1.6870
  838MOL0     H10590  -0.517   1.916   4.513 -1.7513  1.1391  0.8479
  838MOL0     H10591  -0.485   1.826   4.660 -1.4972 -1.5356  1.0678
  838MOL0     H10592  -0.721   1.750   4.682  0.9792 -2.5868 -1.6366
  838MOL0     H10593  -0.757   1.802   4.522 -1.4753 -0.5432  0.7937
  838MOL0     H10594  -0.651   2.009   4.730 -0.0300 -1.3081  1.7183
  838MOL0     H10595  -0.734   2.048   4.585 -1.8642 -0.7429 -0.1616
  838MOL0     H10596  -0.872   2.070   4.752  3.0607  0.3667 -0.3373
  838MOL0     H10597  -0.856   1.915   4.835 -0.6955  2.1436  0.7658
  838MOL0     H10598   0.029   1.783   4.267 -1.6932 -1.5295 -0.4760
  838MOL0     H10599   0.258   1.761   4.179  0.0419  0.8987  2.6572
  838MOL0     H10600   0.541   1.657   3.921  0.3321  1.9151 -0.5834
  838MOL0     H10601   0.753   1.621   3.793 -0.9802 -1.2358 -0.3993
  838MOL0     H10602   2.599   0.581   3.844  3.3379 -1.1051  0.9339
  838MOL0     H10603   2.810   0.683   3.847 -0.2373  0.9083  0.6831
  838MOL0     H10604   3.085   1.079   3.958  1.1285  1.2919  0.2219
  838MOL0     H10605   3.296   1.164   3.946  0.3052 -1.4475 -2.6484
  838MOL0     H10606   3.668   0.892   3.974 -0.8758  0.0079 -0.5123
  838MOL0     H10607   3.628   0.936   4.147 -2.8663  3.3680  0.6832
  838MOL0     H10608   3.767   1.097   3.920 -1.9286 -0.4628 -1.0462
  838MOL0     H10609   3.737   1.163   4.078  2.2309 -1.3193  1.4878
  838MOL0     H10610   3.925   0.929   4.066  0.8383  0.1628 -0.3616
  838MOL0     H10611   3.876   1.046   4.194  0.0127  1.5665  0.1103
  838MOL0     H10612   4.012   1.131   3.930  3.2851 -2.3955  1.0791
  838MOL0     H10613   3.980   1.234   4.075  2.0895 -0.1078  2.6190
  838MOL0     H10614   4.348   1.044   4.157 -0.4113 -0.4445  0.6526
  838MOL0     H10615   3.460   0.806   4.106  0.2526 -1.4858 -1.9178
  838MOL0     H10616   3.254   0.719   4.137 -1.3894  1.0520  0.3380
  839MOL0     O10617   5.049   8.447  10.603  0.6287 -0.8348 -0.0808
  839MOL0     C10618   5.096   8.443  10.718 -0.4728 -0.2094  0.0733
  839MOL0     O10619   5.071   8.521  10.828  0.5655  0.2265  0.5968
  839MOL0     C10620   4.989   8.627  10.804  0.0593  0.2168  0.4421
  839MOL0     C10621   4.859   8.626  10.760  0.4466 -0.6175 -0.5048
  839MOL0     C10622   4.781   8.747  10.760 -0.4434  0.8745 -0.2715
  839MOL0     C10623   4.841   8.868  10.790  0.1218 -0.1876  0.1598
  839MOL0     O10624   4.778   8.992  10.789  0.7842 -0.3590  0.5587
  839MOL0     C10625   4.640   9.007  10.745 -0.3850  1.0362 -0.1454
  839MOL0     C10626   4.608   9.157  10.734  0.3343 -0.8820 -0.6081
  839MOL0     C10627   4.459   9.190  10.710  0.5816 -0.3368 -0.6062
  839MOL0     C10628   4.377   9.114  10.810  0.1509 -0.0026 -0.6179
  839MOL0     C10629   4.227   9.151  10.798  0.0266  0.1301  0.0265
  839MOL0     C10630   4.145   9.064  10.895 -0.4416 -0.3526 -0.5353
  839MOL0     C10631   3.992   9.098  10.878 -0.2212 -0.6292  0.5925
  839MOL0     C10632   3.899   8.996  10.943  0.0713 -0.4695 -0.0643
  839MOL0     N10633   3.881   9.030  11.081 -1.2586 -0.8095  0.3759
  839MOL0     C10634   3.960   9.040  11.186 -0.6030  0.0739 -0.5423
  839MOL0     C10635   3.881   9.088  11.285 -0.3326 -0.4992  0.5743
  839MOL0     C10636   3.933   9.133  11.425 -0.2423  0.2257  0.2733
  839MOL0     C10637   3.884   9.277  11.445 -0.9927  0.0000 -0.5440
  839MOL0     C10638   3.942   9.337  11.570 -0.6407  0.6026  0.4050
  839MOL0     C10639   3.911   9.255  11.693  0.5739  0.1332 -0.6368
  839MOL0     O10640   3.780   9.201  11.705  0.2343 -0.7762 -0.4480
  839MOL0     C10641   3.687   9.289  11.739 -0.8049  0.8980  0.2950
  839MOL0     C10642   3.692   9.387  11.843  0.5734 -0.3949 -0.8110
  839MOL0     C10643   3.585   9.473  11.869  0.6485  0.5023 -0.3170
  839MOL0     C10644   3.469   9.470  11.784 -1.2310  0.2933  1.1839
  839MOL0     C10645   3.352   9.550  11.816  0.3364 -0.3211  0.7379
  839MOL0     O10646   3.381   9.656  11.894  0.1933  0.4157  0.3049
  839MOL0     C10647   3.290   9.757  11.914  0.5315 -0.0014 -0.1538
  839MOL0     C10648   3.340   9.891  11.918 -0.1222 -0.7726 -0.1295
  839MOL0     C10649   3.257  10.000  11.957 -0.1048 -0.2526  0.1631
  839MOL0     C10650   3.119   9.981  11.984 -1.2900  0.1950 -0.6377
  839MOL0     O10651   3.040  10.093  12.000 -0.0548  0.3959 -0.6398
  839MOL0     C10652   2.907  10.090  11.957 -0.1920  0.0582  0.6113
  839MOL0     C10653   2.816  10.107  12.076  0.6685 -0.0822 -0.3099
  839MOL0     C10654   2.677  10.151  12.026 -0.1370 -0.0960  0.4501
  839MOL0     C10655   2.577  10.146  12.149 -0.0995 -0.2530 -0.3062
  839MOL0     C10656   2.484  10.266  12.151  0.1571 -0.3795 -0.7688
  839MOL0     C10657   2.375  10.267  12.254  0.0195  0.2357 -0.8842
  839MOL0     C10658   2.313  10.407  12.254  0.4041 -0.3444  0.5635
  839MOL0     C10659   2.175  10.400  12.305 -0.4264  0.6926 -0.0160
  839MOL0    Cl10660   2.075  10.317  12.171 -0.0076  0.2685 -0.7873
  839MOL0     C10661   3.073   9.853  11.985  0.6129  0.2104 -0.5041
  839MOL0     C10662   3.151   9.743  11.951  0.0041  0.1201  0.4259
  839MOL0     O10663   3.234   9.523  11.772 -0.2254 -0.5416 -0.1269
  839MOL0     C10664   3.469   9.371  11.689 -0.4081  0.6486  0.0277
  839MOL0     C10665   3.573   9.280  11.662 -0.8928  0.1826  0.0437
  839MOL0     N10666   3.748   9.100  11.242  0.5366  0.0610  0.7734
  839MOL0     N10667   3.758   9.077  11.115  0.0690  0.6933 -0.4521
  839MOL0     C10668   4.973   8.871  10.835 -0.9422  0.3368  1.0381
  839MOL0     C10669   5.044   8.751  10.838 -0.1157  0.2602  0.2718
  839MOL0     C10670   5.206   8.344  10.736  0.2694  0.2774  0.6728
  839MOL0     C10671   5.225   8.229  10.658  0.5757  0.0139 -0.8642
  839MOL0     C10672   5.326   8.141  10.689  1.3211 -0.5614 -0.0295
  839MOL0     C10673   5.415   8.168  10.797 -0.4927 -0.3410 -0.6286
  839MOL0     O10674   5.522   8.094  10.830 -1.7344 -0.4635 -0.1033
  839MOL0     C10675   5.502   7.959  10.848  0.2050 -0.2145 -0.9409
  839MOL0     C10676   5.531   7.913  10.997  0.1206 -0.1048  0.2635
  839MOL0     C10677   5.425   7.954  11.104  0.2272  0.4925  0.0037
  839MOL0     C10678   5.422   7.854  11.215 -0.1871  0.0412  0.1230
  839MOL0     C10679   5.548   7.855  11.285 -0.0105 -0.1352 -0.5909
  839MOL0     C10680   5.647   7.846  11.355 -0.7010  0.3702 -0.3769
  839MOL0     C10681   5.409   8.294  10.862  0.3480  0.9425 -0.3942
  839MOL0     C10682   5.299   8.370  10.842 -0.8543  0.7156 -0.3125
  839MOL0     H10683   4.810   8.533  10.731 -1.5050  0.2108 -0.0335
  839MOL0     H10684   4.680   8.740  10.720  0.5461 -2.3684 -2.5918
  839MOL0     H10685   4.569   8.949  10.805  0.4419 -0.1573 -0.2870
  839MOL0     H10686   4.632   8.960  10.646 -0.6064 -1.7620  1.1278
  839MOL0     H10687   4.660   9.208  10.653 -1.4918 -0.4807 -1.5755
  839MOL0     H10688   4.628   9.210  10.828  1.2579  3.7297 -3.1094
  839MOL0     H10689   4.427   9.159  10.610 -1.5197  2.7357 -1.0191
  839MOL0     H10690   4.435   9.297  10.711  0.4286 -0.3673  0.3840
  839MOL0     H10691   4.388   9.006  10.798 -0.0166  0.2599 -4.2058
  839MOL0     H10692   4.422   9.134  10.908  0.0085 -0.9430 -0.3463
  839MOL0     H10693   4.204   9.141  10.692 -0.7879 -1.1276  0.2992
  839MOL0     H10694   4.222   9.256  10.828  0.4032 -0.1151  0.9860
  839MOL0     H10695   4.187   9.067  10.996 -0.9602  0.0073 -0.3300
  839MOL0     H10696   4.161   8.962  10.857  0.5083  0.6732 -3.1601
  839MOL0     H10697   3.975   9.195  10.926  3.8089 -1.9966  5.6989
  839MOL0     H10698   3.968   9.105  10.772 -3.2589 -0.6747  1.2043
  839MOL0     H10699   3.945   8.899  10.921 -0.2235 -0.1467 -2.4418
  839MOL0     H10700   3.800   8.994  10.896 -0.4443 -0.7613  1.0013
  839MOL0     H10701   4.064   9.016  11.206  0.6737  5.9797  2.4154
  839MOL0     H10702   4.042   9.130  11.415 -0.4127  2.1916 -4.3080
  839MOL0     H10703   3.894   9.055  11.492 -1.0241 -0.8516 -1.3783
  839MOL0     H10704   3.775   9.290  11.447 -0.8882  0.9764 -0.4981
  839MOL0     H10705   3.911   9.338  11.358  0.6665 -0.6443 -0.5173
  839MOL0     H10706   4.051   9.352  11.573 -0.6848  0.7834  2.1679
  839MOL0     H10707   3.897   9.436  11.580 -1.1591  0.3045  1.0727
  839MOL0     H10708   3.954   9.295  11.786  1.3987  2.0126 -1.7667
  839MOL0     H10709   3.986   9.175  11.682 -0.2877 -1.0677  1.5475
  839MOL0     H10710   3.779   9.378  11.908 -1.6566 -0.9309  2.3615
  839MOL0     H10711   3.598   9.550  11.944 -2.1476  1.8755 -1.1073
  839MOL0     H10712   3.446   9.912  11.906  0.3418 -1.9592  1.6309
  839MOL0     H10713   3.283  10.106  11.958  2.4275 -0.8037 -0.7552
  839MOL0     H10714   2.883  10.004  11.894  2.3329  0.4829 -1.0653
  839MOL0     H10715   2.896  10.177  11.892 -2.4663 -2.1198 -2.1581
  839MOL0     H10716   2.855  10.183  12.144 -0.3642  0.6999 -0.5585
  839MOL0     H10717   2.817  10.011  12.129 -2.0473 -1.1151 -1.8842
  839MOL0     H10718   2.638  10.088  11.945  0.5764 -0.7675  0.6140
  839MOL0     H10719   2.688  10.251  11.983  0.6238 -0.5525 -0.4585
  839MOL0     H10720   2.525  10.050  12.135 -0.0615 -0.0509 -2.1139
  839MOL0     H10721   2.632  10.154  12.243  0.4133  1.1465 -0.7008
  839MOL0     H10722   2.447  10.278  12.049 -1.7293  0.6681 -0.0043
  839MOL0     H10723   2.553  10.349  12.170  2.5695 -2.0335 -1.7465
  839MOL0     H10724   2.433  10.236  12.341  1.7149 -0.0976 -2.0780
  839MOL0     H10725   2.300  10.190  12.237  3.5228 -3.3309 -1.7504
  839MOL0     H10726   2.368  10.479  12.314 -1.3750  1.6021 -0.0409
  839MOL0     H10727   2.310  10.435  12.148  3.2728  0.6506  0.6608
  839MOL0     H10728   2.129  10.499  12.310 -1.5712  0.1915 -0.3070
  839MOL0     H10729   2.170  10.355  12.405  2.3090 -0.6180 -0.3893
  839MOL0     H10730   2.970   9.830  12.013  0.7178 -0.0790 -0.3451
  839MOL0     H10731   3.102   9.648  11.967  0.0241  0.1987  0.9920
  839MOL0     H10732   3.374   9.351  11.640 -0.8356  1.2984  0.5675
  839MOL0     H10733   3.567   9.203  11.586  0.1063  0.7303 -0.6150
  839MOL0     H10734   5.019   8.957  10.882 -2.1829  1.3139  0.5325
  839MOL0     H10735   5.148   8.766  10.868  0.4328  2.5404 -2.3090
  839MOL0     H10736   5.159   8.209  10.575 -0.6733 -0.1399  0.1369
  839MOL0     H10737   5.342   8.054  10.626  3.4114  0.0944 -0.5016
  839MOL0     H10738   5.576   7.918  10.780  2.3316 -2.2264  2.2974
  839MOL0     H10739   5.405   7.916  10.822  0.7811 -2.9844  1.0180
  839MOL0     H10740   5.535   7.806  10.979 -2.3097  0.0232 -1.4676
  839MOL0     H10741   5.635   7.940  11.019  0.2541 -0.2131 -0.2303
  839MOL0     H10742   5.325   7.947  11.059  0.0542 -2.1525  0.6245
  839MOL0     H10743   5.418   8.055  11.146  1.2260  0.1128  1.1078
  839MOL0     H10744   5.344   7.883  11.286  0.1328 -1.2759  1.0452
  839MOL0     H10745   5.407   7.753  11.176  0.9217  0.2615 -0.9343
  839MOL0     H10746   5.738   7.834  11.410 -0.0977 -0.1988 -1.4688
  839MOL0     H10747   5.485   8.320  10.934  2.2791 -2.7582 -0.8634
  839MOL0     H10748   5.303   8.466  10.892  4.0688 -0.6031  2.4583
  840MOL0     O10749   0.607   8.238   4.108  0.2302 -0.4818  0.3507
  840MOL0     C10750   0.579   8.150   4.033  0.7348  0.0262 -0.4732
  840MOL0     O10751   0.472   8.135   3.951 -0.4946 -0.1082  0.1181
  840MOL0     C10752   0.365   8.225   3.961 -0.4735  0.2592  0.5052
  840MOL0     C10753   0.292   8.265   3.842  0.3359 -0.5836  0.0928
  840MOL0     C10754   0.191   8.372   3.863 -0.7319 -1.1473  0.5269
  840MOL0     C10755   0.153   8.416   3.994 -0.7356  0.4616  0.2379
  840MOL0     O10756   0.057   8.503   4.014 -0.4253  0.0240  0.0917
  840MOL0     C10757  -0.072   8.447   4.012 -0.0557  0.3352  0.1596
  840MOL0     C10758  -0.167   8.568   4.001 -0.1994  0.0723  0.5368
  840MOL0     C10759  -0.312   8.526   4.032  0.0337  0.3552 -0.6445
  840MOL0     C10760  -0.403   8.655   4.036  0.2848  0.4733  0.7482
  840MOL0     C10761  -0.549   8.638   4.057 -0.2416  0.2554 -0.2789
  840MOL0     C10762  -0.636   8.744   4.009  0.9257 -0.3263  0.3317
  840MOL0     C10763  -0.783   8.726   4.056 -0.3557  0.7741 -0.1427
  840MOL0     C10764  -0.837   8.622   3.953  0.0208  0.0553 -0.2766
  840MOL0     N10765  -0.978   8.586   3.989 -0.9898  0.0534  0.8222
  840MOL0     C10766  -1.003   8.461   4.054  0.6088  0.0666  0.6074
  840MOL0     C10767  -1.135   8.474   4.082 -0.2178  0.2262 -0.3688
  840MOL0     C10768  -1.228   8.386   4.155 -0.1055 -1.0557 -0.4284
  840MOL0     C10769  -1.359   8.364   4.075  0.1872  0.2166  0.9041
  840MOL0     C10770  -1.465   8.298   4.167  0.0801 -0.4017  1.1483
  840MOL0     C10771  -1.599   8.281   4.088 -0.1243  0.4311  0.9108
  840MOL0     O10772  -1.646   8.414   4.077  0.4037 -0.6760 -0.2766
  840MOL0     C10773  -1.780   8.425   4.054 -0.2088 -0.3705 -0.4442
  840MOL0     C10774  -1.843   8.548   4.083 -0.2572 -0.1899 -0.2564
  840MOL0     C10775  -1.984   8.570   4.055 -0.0774  0.8307  0.4233
  840MOL0     C10776  -2.054   8.471   3.995 -0.0488  0.2538  0.7691
  840MOL0     C10777  -2.199   8.495   3.971 -0.0371 -0.3845  0.5294
  840MOL0     O10778  -2.262   8.603   4.030  0.2036  0.0343 -0.2024
  840MOL0     C10779  -2.395   8.616   4.004 -0.7504 -0.3603 -0.2242
  840MOL0     C10780  -2.440   8.691   3.886 -0.1705  0.4061 -0.6592
  840MOL0     C10781  -2.574   8.714   3.865 -0.0594  0.1492  1.4359
  840MOL0     C10782  -2.671   8.660   3.957 -0.5964  0.4041  0.5238
  840MOL0     O10783  -2.797   8.696   3.956 -0.0265  0.2774  0.8268
  840MOL0     C10784  -2.868   8.703   3.831  0.4023 -0.5237 -0.9920
  840MOL0     C10785  -3.018   8.738   3.865 -0.9614 -0.1808  0.2425
  840MOL0     C10786  -3.104   8.755   3.738  0.0256 -0.4001 -0.4018
  840MOL0     C10787  -3.249   8.766   3.796  0.5063 -1.1299  0.6350
  840MOL0     C10788  -3.361   8.776   3.685 -1.3200 -0.7349 -0.0094
  840MOL0     C10789  -3.499   8.807   3.745 -0.0138  0.9203  0.1630
  840MOL0     C10790  -3.498   8.939   3.828  0.3365 -0.0881  0.0595
  840MOL0     C10791  -3.634   8.987   3.832  0.6085 -0.9138 -0.4435
  840MOL0    Cl10792  -3.753   8.864   3.892 -0.0600 -0.0410 -0.4421
  840MOL0     C10793  -2.628   8.571   4.058 -1.2311 -0.3849 -0.3979
  840MOL0     C10794  -2.488   8.562   4.081  0.4925  0.7707  0.2769
  840MOL0     O10795  -2.245   8.413   3.893  0.2148  0.0122  0.8910
  840MOL0     C10796  -1.991   8.351   3.969  0.1560  0.3742  0.5078
  840MOL0     C10797  -1.856   8.332   3.994  0.4219  0.7622 -0.7291
  840MOL0     N10798  -1.174   8.597   4.036  0.1951  0.0551  0.2369
  840MOL0     N10799  -1.083   8.661   3.971  0.4534 -0.6314  0.1594
  840MOL0     C10800   0.219   8.370   4.107 -0.1432  0.4158 -0.1476
  840MOL0     C10801   0.317   8.272   4.085  0.2144  0.1204 -0.4757
  840MOL0     C10802   0.675   8.038   4.026 -0.3750 -0.1566  0.0587
  840MOL0     C10803   0.810   8.057   4.074  1.1328  0.1449 -0.1578
  840MOL0     C10804   0.906   7.952   4.073  0.6666 -0.2366  1.2434
  840MOL0     C10805   0.876   7.828   4.016  0.3434  0.2032  0.5101
  840MOL0     O10806   0.984   7.739   4.021  0.2713  0.0634 -0.2093
  840MOL0     C10807   0.960   7.606   3.976 -1.0206  1.1957  0.6122
  840MOL0     C10808   1.095   7.527   4.009  0.3107  0.6123 -0.5790
  840MOL0     C10809   1.091   7.395   3.927 -0.0525  0.0701 -0.5340
  840MOL0     C10810   1.231   7.311   3.932  0.3035 -0.4762 -0.2530
  840MOL0     C10811   1.344   7.398   3.899 -0.7749 -0.5424 -0.0513
  840MOL0     C10812   1.424   7.490   3.877 -0.2194  0.0225 -0.4077
  840MOL0     C10813   0.746   7.802   3.970  0.5123  0.1883 -0.8442
  840MOL0     C10814   0.642   7.905   3.981 -0.4582  0.3044 -0.6531
  840MOL0     H10815   0.308   8.219   3.745  2.0426  0.4290 -0.1411
  840MOL0     H10816   0.137   8.404   3.775  2.1577  0.9818 -0.6592
  840MOL0     H10817  -0.101   8.387   4.099  1.1972  1.1692  1.1968
  840MOL0     H10818  -0.086   8.374   3.932 -1.3463 -1.7725  2.1724
  840MOL0     H10819  -0.159   8.625   3.908 -0.2261  1.4170  1.3466
  840MOL0     H10820  -0.135   8.647   4.069  0.0609  3.8637 -3.5285
  840MOL0     H10821  -0.313   8.487   4.134 -1.6249 -1.0227 -1.1314
  840MOL0     H10822  -0.347   8.449   3.963 -1.4012 -0.6935  1.1799
  840MOL0     H10823  -0.373   8.721   4.117  0.2713  2.9816 -1.1625
  840MOL0     H10824  -0.387   8.704   3.939 -0.1098  0.2453  0.5636
  840MOL0     H10825  -0.552   8.638   4.167 -0.0511  0.1436 -0.2722
  840MOL0     H10826  -0.569   8.536   4.023 -4.3468  0.8330 -0.0226
  840MOL0     H10827  -0.609   8.761   3.904  1.1127  0.3692  0.4871
  840MOL0     H10828  -0.599   8.831   4.064 -0.9446 -1.2115  3.2414
  840MOL0     H10829  -0.781   8.692   4.160 -1.8941 -0.8577 -0.5981
  840MOL0     H10830  -0.850   8.810   4.037 -1.3798 -0.4946 -2.6456
  840MOL0     H10831  -0.781   8.529   3.965  1.0064  0.2050 -2.9779
  840MOL0     H10832  -0.820   8.661   3.852 -1.6886  1.9340  0.1087
  840MOL0     H10833  -0.941   8.375   4.074 -0.1315 -1.0027 -1.4050
  840MOL0     H10834  -1.243   8.430   4.254  0.2901 -0.7188 -0.5136
  840MOL0     H10835  -1.180   8.288   4.167  0.3220 -1.1401 -2.4656
  840MOL0     H10836  -1.341   8.310   3.982 -0.9334  0.6419  0.4290
  840MOL0     H10837  -1.401   8.460   4.045  2.2113  1.4725  1.9078
  840MOL0     H10838  -1.435   8.202   4.211 -2.3493 -1.8317 -0.1488
  840MOL0     H10839  -1.490   8.370   4.245  1.6451  0.5230  0.8405
  840MOL0     H10840  -1.670   8.216   4.141  0.3086 -1.3138 -0.5792
  840MOL0     H10841  -1.574   8.238   3.991 -1.9273 -1.7103  1.3189
  840MOL0     H10842  -1.796   8.627   4.141 -1.2082  1.4807 -1.6893
  840MOL0     H10843  -2.045   8.652   4.091 -0.9143 -0.2905  1.7052
  840MOL0     H10844  -2.377   8.734   3.808  0.5724 -0.8578 -0.7872
  840MOL0     H10845  -2.603   8.787   3.790  2.5102  0.5978  0.7767
  840MOL0     H10846  -2.859   8.604   3.786 -0.0953 -2.3375  2.5300
  840MOL0     H10847  -2.816   8.784   3.779 -0.5932  0.2348 -0.8302
  840MOL0     H10848  -3.024   8.808   3.948  4.0749  0.3964  0.4195
  840MOL0     H10849  -3.054   8.649   3.918 -1.1801  1.4425  2.9849
  840MOL0     H10850  -3.097   8.667   3.674 -3.8422 -1.3415  0.2738
  840MOL0     H10851  -3.071   8.850   3.694 -1.1594  0.6509  0.8735
  840MOL0     H10852  -3.264   8.678   3.860  0.2638  0.7298  3.3374
  840MOL0     H10853  -3.252   8.857   3.856 -0.8943  0.3187 -1.4888
  840MOL0     H10854  -3.357   8.688   3.620  1.1749  0.3526 -1.5045
  840MOL0     H10855  -3.342   8.847   3.603 -2.3694 -2.0894 -1.4863
  840MOL0     H10856  -3.527   8.727   3.814 -0.8738  0.0845 -1.1058
  840MOL0     H10857  -3.570   8.809   3.662  0.5259 -0.6848 -0.3713
  840MOL0     H10858  -3.444   8.919   3.921 -0.2162 -2.2195 -0.0361
  840MOL0     H10859  -3.437   9.018   3.784 -0.2860  1.6503  2.1278
  840MOL0     H10860  -3.676   9.029   3.740 -3.0200 -0.1601  1.3728
  840MOL0     H10861  -3.630   9.066   3.907 -1.6572 -0.8215 -0.3390
  840MOL0     H10862  -2.703   8.521   4.118 -1.5955  1.9623  1.2726
  840MOL0     H10863  -2.472   8.508   4.174 -2.3236 -1.3388 -0.3305
  840MOL0     H10864  -2.052   8.281   3.912 -1.6278 -0.0261  2.7585
  840MOL0     H10865  -1.808   8.237   3.972  1.4365  1.0471  0.1868
  840MOL0     H10866   0.184   8.405   4.204 -0.7891 -0.0555 -0.2011
  840MOL0     H10867   0.360   8.228   4.174 -2.7484  1.5583  1.8216
  840MOL0     H10868   0.848   8.149   4.119  0.9406  0.7948 -1.2888
  840MOL0     H10869   1.001   7.975   4.121  0.5561  1.2368  0.8281
  840MOL0     H10870   0.942   7.618   3.868  2.6317 -0.6813 -0.3674
  840MOL0     H10871   0.878   7.566   4.035  0.0425 -0.8630  0.7930
  840MOL0     H10872   1.177   7.590   3.972 -0.5451  1.2487 -1.4373
  840MOL0     H10873   1.097   7.519   4.118  0.8345 -3.6750 -0.7212
  840MOL0     H10874   1.054   7.404   3.824 -2.3209 -0.4590  0.1595
  840MOL0     H10875   1.009   7.341   3.975  0.7313 -0.4115  0.2913
  840MOL0     H10876   1.252   7.278   4.034  1.1311 -1.1826 -0.6403
  840MOL0     H10877   1.237   7.219   3.873  0.4748 -1.0615  0.6600
  840MOL0     H10878   1.485   7.576   3.862  3.0785 -1.8603  1.2562
  840MOL0     H10879   0.733   7.709   3.916  0.8853  0.6724 -1.7912
  840MOL0     H10880   0.546   7.884   3.935  1.3177 -1.4660 -3.9702
  841MOL0     O10881   2.288   0.677   8.628 -0.3227  0.4115 -0.4819
  841MOL0     C10882   2.392   0.702   8.690 -1.7567  0.0274 -0.0587
  841MOL0     O10883   2.405   0.766   8.813 -0.6317 -0.0941 -0.1072
  841MOL0     C10884   2.291   0.769   8.886 -0.5142  0.1372 -0.6825
  841MOL0     C10885   2.257   0.665   8.973 -0.5577 -0.1673  0.3467
  841MOL0     C10886   2.145   0.661   9.052 -0.4323 -0.6921 -0.3206
  841MOL0     C10887   2.045   0.760   9.037  0.7087  0.3902  0.8557
  841MOL0     O10888   1.920   0.743   9.108 -0.1619 -0.1986  0.6599
  841MOL0     C10889   1.811   0.836   9.090 -0.5366  0.1707 -0.3234
  841MOL0     C10890   1.699   0.807   9.192  0.0244 -0.2403  0.7328
  841MOL0     C10891   1.604   0.928   9.206 -0.2037  1.0291  0.0703
  841MOL0     C10892   1.474   0.895   9.289 -0.4782 -0.0716  0.3839
  841MOL0     C10893   1.407   1.021   9.329  0.2449  0.2637  1.0044
  841MOL0     C10894   1.483   1.104   9.433  0.1898 -0.0927  0.1967
  841MOL0     C10895   1.420   1.243   9.441  1.0200 -0.6914 -0.4100
  841MOL0     C10896   1.284   1.246   9.511  1.3638  0.8240 -0.2189
  841MOL0     N10897   1.163   1.210   9.434  0.0897 -0.0120 -0.0303
  841MOL0     C10898   1.142   1.252   9.299  0.1594  1.0676 -0.8765
  841MOL0     C10899   1.033   1.181   9.260  1.0604  0.4052 -0.7036
  841MOL0     C10900   0.972   1.182   9.119 -0.2769  0.1594  0.0183
  841MOL0     C10901   0.821   1.147   9.130  0.2829  0.5388  0.6016
  841MOL0     C10902   0.744   1.253   9.227 -0.0957  0.1076 -0.0408
  841MOL0     C10903   0.764   1.397   9.187 -0.4788  0.6940  0.0206
  841MOL0     O10904   0.733   1.420   9.048  0.1678 -0.5079 -0.2069
  841MOL0     C10905   0.600   1.435   9.017  0.0801 -0.0680  0.7882
  841MOL0     C10906   0.567   1.434   8.883  0.5550  0.0427 -0.2412
  841MOL0     C10907   0.435   1.449   8.838 -0.7145  0.2570 -0.4513
  841MOL0     C10908   0.335   1.478   8.936  0.2561 -0.1991  0.3289
  841MOL0     C10909   0.189   1.505   8.905 -0.5945 -0.1823  0.4747
  841MOL0     O10910   0.160   1.510   8.770 -0.3951  0.2391  0.0902
  841MOL0     C10911   0.031   1.537   8.728  0.2013 -0.3853 -0.1061
  841MOL0     C10912  -0.058   1.430   8.720 -0.4559  0.6101  0.4089
  841MOL0     C10913  -0.190   1.456   8.690  0.0463  0.7886 -0.0060
  841MOL0     C10914  -0.242   1.579   8.680  0.3603 -0.1454  0.1274
  841MOL0     O10915  -0.366   1.607   8.645  0.3850 -0.4234 -0.0233
  841MOL0     C10916  -0.467   1.523   8.697 -0.3881 -0.1984  0.2377
  841MOL0     C10917  -0.603   1.599   8.686 -0.1389 -0.3124  0.5604
  841MOL0     C10918  -0.622   1.661   8.547  0.3067 -1.0629  0.4623
  841MOL0     C10919  -0.730   1.759   8.550  1.8720  0.3163  0.1760
  841MOL0     C10920  -0.764   1.834   8.417 -0.1363  1.0253 -0.2952
  841MOL0     C10921  -0.897   1.906   8.435  0.2450  0.9377 -0.0436
  841MOL0     C10922  -0.942   1.979   8.303  0.5208 -0.3328  0.4713
  841MOL0     C10923  -1.039   2.096   8.346 -1.2872  0.7299 -0.3778
  841MOL0    Cl10924  -1.198   2.026   8.395 -0.1619 -0.1684 -0.1439
  841MOL0     C10925  -0.157   1.687   8.698 -0.2522 -0.3086 -0.2096
  841MOL0     C10926  -0.014   1.669   8.720  0.1618  0.1913 -0.9910
  841MOL0     O10927   0.116   1.542   8.995  0.2003  0.0489 -0.6851
  841MOL0     C10928   0.374   1.499   9.070 -0.0565  0.5766 -0.6066
  841MOL0     C10929   0.499   1.456   9.108 -1.0901 -0.4627 -0.3530
  841MOL0     N10930   0.997   1.095   9.368 -0.0421 -0.2212  0.5305
  841MOL0     N10931   1.080   1.110   9.470 -0.4696 -0.6072 -0.6524
  841MOL0     C10932   2.075   0.870   8.948  0.3687 -0.3193  0.3404
  841MOL0     C10933   2.197   0.878   8.875  0.4204 -0.4277  0.1368
  841MOL0     C10934   2.521   0.674   8.617  0.2833  0.3844  0.2396
  841MOL0     C10935   2.617   0.587   8.672 -0.0760 -0.5283  0.1684
  841MOL0     C10936   2.726   0.555   8.598  0.1799 -0.0347  0.1713
  841MOL0     C10937   2.743   0.615   8.471 -0.1073 -0.4542 -0.0200
  841MOL0     O10938   2.864   0.607   8.411 -0.5825 -0.0406  0.0432
  841MOL0     C10939   2.904   0.684   8.293  0.6663  0.0164 -0.2961
  841MOL0     C10940   3.057   0.684   8.281  0.4658  0.5807  0.0180
  841MOL0     C10941   3.106   0.542   8.236  0.0895 -0.0175  0.2777
  841MOL0     C10942   3.246   0.556   8.179 -0.4998  0.1131 -0.4150
  841MOL0     C10943   3.334   0.437   8.176 -0.1990 -0.3980 -0.5641
  841MOL0     C10944   3.422   0.355   8.160  0.0206  0.0004  0.0430
  841MOL0     C10945   2.649   0.700   8.415  0.4707  0.2305  0.6170
  841MOL0     C10946   2.532   0.717   8.489  0.4975 -0.7382  0.4055
  841MOL0     H10947   2.327   0.584   8.986 -0.4836 -0.3099 -0.8808
  841MOL0     H10948   2.112   0.586   9.124 -1.9625  1.2529  1.1173
  841MOL0     H10949   1.786   0.839   8.984 -0.5641 -1.4273 -0.3781
  841MOL0     H10950   1.847   0.937   9.115  3.0635 -0.7548 -1.2553
  841MOL0     H10951   1.744   0.786   9.289 -1.3676  0.1154  1.4867
  841MOL0     H10952   1.635   0.721   9.167  0.0621  0.0097 -0.2376
  841MOL0     H10953   1.560   0.956   9.110 -1.1348 -0.4261  0.0342
  841MOL0     H10954   1.663   1.011   9.246 -2.0513  3.0825 -1.2314
  841MOL0     H10955   1.402   0.833   9.235 -1.1563  0.5404  0.5672
  841MOL0     H10956   1.497   0.838   9.379  1.5505  1.5013  0.9456
  841MOL0     H10957   1.310   0.994   9.370  0.3281  0.0743  1.0771
  841MOL0     H10958   1.394   1.086   9.242  0.0037  2.1825  2.4016
  841MOL0     H10959   1.589   1.108   9.406  0.1483 -3.7657 -1.1434
  841MOL0     H10960   1.473   1.053   9.529 -0.8570 -2.5455 -1.1186
  841MOL0     H10961   1.497   1.292   9.502  1.7788 -3.8092  1.3454
  841MOL0     H10962   1.423   1.292   9.344 -0.1261  0.8828  0.2886
  841MOL0     H10963   1.270   1.346   9.554  0.2957  0.7070 -0.2680
  841MOL0     H10964   1.286   1.168   9.587  0.3294 -0.2612 -1.2510
  841MOL0     H10965   1.213   1.315   9.246  1.2662  0.1953 -0.4460
  841MOL0     H10966   1.025   1.112   9.053 -1.8161  0.0056 -1.1089
  841MOL0     H10967   0.994   1.277   9.070  0.5371 -1.8073 -3.7738
  841MOL0     H10968   0.802   1.047   9.169  2.3287 -0.2758 -0.3325
  841MOL0     H10969   0.781   1.149   9.029  3.2949  2.0342 -0.7018
  841MOL0     H10970   0.638   1.229   9.211 -0.6546  3.0579 -1.6957
  841MOL0     H10971   0.767   1.234   9.332  1.7774 -2.4354 -0.8385
  841MOL0     H10972   0.871   1.414   9.200 -0.2972  1.7109 -2.2529
  841MOL0     H10973   0.728   1.472   9.257  4.5210  1.8258  1.7691
  841MOL0     H10974   0.651   1.428   8.816  1.2867 -1.4701  0.7578
  841MOL0     H10975   0.406   1.429   8.736 -1.3178  1.8145 -0.6098
  841MOL0     H10976  -0.018   1.330   8.714  1.5734  1.3596  0.5078
  841MOL0     H10977  -0.259   1.373   8.676 -1.5806  2.4456 -2.7847
  841MOL0     H10978  -0.438   1.500   8.800 -0.7466  1.3365  0.7020
  841MOL0     H10979  -0.475   1.431   8.639 -2.5282  0.1034 -0.0290
  841MOL0     H10980  -0.605   1.680   8.760 -1.4183 -0.5323  0.7942
  841MOL0     H10981  -0.679   1.527   8.718 -1.9189  1.0476 -0.3869
  841MOL0     H10982  -0.643   1.583   8.473 -3.2962 -1.9028  2.1422
  841MOL0     H10983  -0.537   1.725   8.522 -1.3705  2.6550  3.3862
  841MOL0     H10984  -0.817   1.697   8.571  3.0339 -2.2863 -2.1897
  841MOL0     H10985  -0.710   1.826   8.635  4.5997 -1.5760  1.1688
  841MOL0     H10986  -0.770   1.758   8.338 -1.2476 -0.0635  0.7850
  841MOL0     H10987  -0.689   1.911   8.398 -2.2028  3.1906 -0.1582
  841MOL0     H10988  -0.873   1.975   8.516  5.6414 -0.1058 -0.3735
  841MOL0     H10989  -0.972   1.836   8.475  2.2726 -2.6699 -2.0286
  841MOL0     H10990  -0.858   2.012   8.242  0.0367 -1.6620 -0.9663
  841MOL0     H10991  -1.002   1.915   8.238 -1.5530  0.5314  1.4457
  841MOL0     H10992  -1.056   2.165   8.262  4.1225  2.5440 -0.4237
  841MOL0     H10993  -0.988   2.137   8.433  2.6683  3.3127 -3.4929
  841MOL0     H10994  -0.186   1.792   8.695  2.3800  0.5053  0.2843
  841MOL0     H10995   0.058   1.746   8.742  1.0821 -1.2124  1.1472
  841MOL0     H10996   0.298   1.522   9.144  1.4233  1.0932  0.7958
  841MOL0     H10997   0.532   1.473   9.210 -0.8922 -0.3321 -0.4379
  841MOL0     H10998   2.003   0.951   8.942 -1.1349 -1.3833  2.6777
  841MOL0     H10999   2.221   0.969   8.823 -0.0654  2.6293  4.6538
  841MOL0     H11000   2.594   0.546   8.770 -0.8087 -0.0543  0.1971
  841MOL0     H11001   2.800   0.481   8.626 -1.1058 -1.9309 -1.2512
  841MOL0     H11002   2.878   0.788   8.317 -2.9088 -0.7264 -0.4448
  841MOL0     H11003   2.846   0.647   8.208  0.4586 -0.3871  0.0213
  841MOL0     H11004   3.094   0.755   8.206  1.1856  0.8603  0.6334
  841MOL0     H11005   3.096   0.707   8.380  0.9732  3.9946 -0.8584
  841MOL0     H11006   3.033   0.506   8.163  1.2166 -1.1548 -0.3352
  841MOL0     H11007   3.111   0.484   8.328  3.1237  2.8950  2.1596
  841MOL0     H11008   3.234   0.589   8.076 -0.7261  0.2947 -0.3310
  841MOL0     H11009   3.300   0.630   8.238  0.6970 -2.4929  1.9908
  841MOL0     H11010   3.502   0.285   8.149 -0.7458 -0.5779 -2.6335
  841MOL0     H11011   2.651   0.747   8.317 -3.2905  0.1193  0.3623
  841MOL0     H11012   2.457   0.789   8.456  3.3370  0.9292 -3.1244
  842MOL0     O11013   3.287   2.484   5.448  1.4111 -0.1547  0.0576
  842MOL0     C11014   3.281   2.377   5.505  0.3094 -0.1060 -0.2676
  842MOL0     O11015   3.182   2.297   5.523  0.5322  0.3463  0.0330
  842MOL0     C11016   3.064   2.314   5.450 -0.3677 -0.8747  0.1997
  842MOL0     C11017   3.069   2.366   5.314 -0.9685 -0.2445  0.6109
  842MOL0     C11018   2.952   2.397   5.245  0.0831 -0.6080  0.1614
  842MOL0     C11019   2.833   2.382   5.305  0.0872  0.8068  0.3578
  842MOL0     O11020   2.722   2.407   5.235 -0.5678 -0.0411 -0.9341
  842MOL0     C11021   2.633   2.294   5.198  0.1379 -0.7416 -0.6815
  842MOL0     C11022   2.491   2.332   5.225  0.5351 -0.4453 -0.6037
  842MOL0     C11023   2.430   2.452   5.150 -0.2985 -0.5352  0.3116
  842MOL0     C11024   2.281   2.453   5.146 -0.1068  0.2339 -0.4508
  842MOL0     C11025   2.239   2.565   5.051  0.1397 -0.3677 -0.0222
  842MOL0     C11026   2.083   2.569   5.044  0.3156  0.1046  0.0927
  842MOL0     C11027   2.038   2.702   4.977 -0.3849  0.2021  0.1408
  842MOL0     C11028   2.070   2.710   4.825  0.5264  1.2579 -0.5338
  842MOL0     N11029   1.996   2.818   4.765  0.2942  0.9143  1.2275
  842MOL0     C11030   2.039   2.949   4.763  0.7497 -0.1491 -0.4483
  842MOL0     C11031   1.931   3.012   4.717  0.3659 -0.3205 -0.0442
  842MOL0     C11032   1.917   3.161   4.692  0.2480  0.9400 -0.8915
  842MOL0     C11033   1.770   3.208   4.698 -0.1618  0.7174 -0.2362
  842MOL0     C11034   1.713   3.199   4.553  0.3991 -0.0702 -0.2868
  842MOL0     C11035   1.570   3.250   4.557  0.0928 -0.3351  1.1227
  842MOL0     O11036   1.507   3.233   4.419  0.1097 -0.0333 -0.6941
  842MOL0     C11037   1.373   3.239   4.406  0.8299 -0.0642 -0.0591
  842MOL0     C11038   1.308   3.173   4.296 -0.5776 -0.5029 -0.3100
  842MOL0     C11039   1.167   3.173   4.275  0.2662 -0.1636 -0.4263
  842MOL0     C11040   1.087   3.222   4.373 -0.3303 -0.1070  0.4260
  842MOL0     C11041   0.940   3.233   4.354  0.4861 -0.4319  0.4409
  842MOL0     O11042   0.886   3.214   4.231 -0.2802 -0.1925  0.3066
  842MOL0     C11043   0.754   3.188   4.201 -0.0086  0.4399  0.0240
  842MOL0     C11044   0.654   3.264   4.254  0.3721  0.1149 -0.3385
  842MOL0     C11045   0.523   3.250   4.208 -0.8389 -0.1115  0.9311
  842MOL0     C11046   0.498   3.164   4.113  0.6262 -0.4222  0.0365
  842MOL0     O11047   0.361   3.165   4.074 -0.0632 -0.0699  0.2913
  842MOL0     C11048   0.300   3.034   4.059  0.4271  0.1009  0.0887
  842MOL0     C11049   0.140   3.045   4.047 -0.0328  0.0243 -0.6262
  842MOL0     C11050   0.093   2.896   4.077  0.3318 -0.7883 -0.3918
  842MOL0     C11051  -0.050   2.890   4.027 -0.1871  0.1224  0.0407
  842MOL0     C11052  -0.146   2.960   4.126 -0.6645  0.3400  0.8018
  842MOL0     C11053  -0.278   2.990   4.060 -0.1572  0.7102 -0.7439
  842MOL0     C11054  -0.371   3.051   4.164  0.2107 -0.9252 -0.0511
  842MOL0     C11055  -0.511   3.070   4.098 -0.9516 -0.0307 -0.3263
  842MOL0    Cl11056  -0.611   2.919   4.073  0.2662  0.2356 -0.3043
  842MOL0     C11057   0.594   3.076   4.061  0.2996  0.0511  0.0329
  842MOL0     C11058   0.724   3.100   4.092  0.1052  0.2177 -0.2498
  842MOL0     O11059   0.873   3.270   4.451 -0.7055  0.0968  0.0056
  842MOL0     C11060   1.143   3.276   4.487 -0.1219 -0.4629  0.1935
  842MOL0     C11061   1.284   3.289   4.506  0.3678  0.1242  0.0342
  842MOL0     N11062   1.831   2.921   4.677  0.3763 -0.2440  0.5846
  842MOL0     N11063   1.872   2.803   4.710 -0.0018 -0.3771  0.7951
  842MOL0     C11064   2.817   2.339   5.436  0.1239  0.3959  0.3969
  842MOL0     C11065   2.936   2.304   5.512  0.6892  1.1422  0.8146
  842MOL0     C11066   3.410   2.325   5.561  0.1601  0.6692 -0.4074
  842MOL0     C11067   3.419   2.194   5.616 -0.7581  0.6807 -0.1982
  842MOL0     C11068   3.540   2.137   5.647  0.6861 -0.2389 -0.2918
  842MOL0     C11069   3.663   2.209   5.637  0.7958  0.3838  0.6821
  842MOL0     O11070   3.788   2.166   5.676 -0.3118 -0.2073 -0.1755
  842MOL0     C11071   3.795   2.093   5.803  0.1274 -0.1775  0.0504
  842MOL0     C11072   3.789   2.192   5.923  0.4537  0.1705  1.2360
  842MOL0     C11073   3.777   2.112   6.051 -0.1373 -0.1269 -0.4528
  842MOL0     C11074   3.745   2.199   6.161  1.9718 -1.1113  1.5357
  842MOL0     C11075   3.817   2.179   6.280  0.1740 -0.3574  0.4324
  842MOL0     C11076   3.867   2.145   6.382 -0.3778 -0.2412 -0.4578
  842MOL0     C11077   3.650   2.333   5.580  0.0503 -0.4890  0.2475
  842MOL0     C11078   3.531   2.393   5.534  0.6344  0.7072 -0.3584
  842MOL0     H11079   3.164   2.374   5.262 -1.1023 -0.3602  0.3434
  842MOL0     H11080   2.955   2.425   5.140  0.5710  2.3090  0.8524
  842MOL0     H11081   2.653   2.198   5.246 -1.6592 -0.8399 -0.0672
  842MOL0     H11082   2.643   2.277   5.091 -1.0075  1.3681 -1.1721
  842MOL0     H11083   2.480   2.346   5.333  3.0377  1.0251 -0.4494
  842MOL0     H11084   2.432   2.245   5.194 -0.2636  0.1276 -0.6980
  842MOL0     H11085   2.466   2.455   5.047 -0.3587 -3.8889  0.0713
  842MOL0     H11086   2.467   2.536   5.209 -2.0910  0.2732  0.3541
  842MOL0     H11087   2.257   2.353   5.111  3.2379 -0.4152 -1.2623
  842MOL0     H11088   2.248   2.461   5.250  1.1988  2.1135 -0.1211
  842MOL0     H11089   2.288   2.558   4.953  1.2024 -1.8272  0.5755
  842MOL0     H11090   2.269   2.660   5.097  0.0387 -0.8366  1.0333
  842MOL0     H11091   2.046   2.584   5.146 -3.3357  4.2794 -1.5411
  842MOL0     H11092   2.039   2.477   5.005  0.1714  1.3579 -3.0493
  842MOL0     H11093   1.931   2.722   4.988 -0.1245  0.2335  3.7338
  842MOL0     H11094   2.077   2.793   5.024 -2.7399  2.0133 -1.1742
  842MOL0     H11095   2.038   2.617   4.777  2.2504 -0.9208  2.1883
  842MOL0     H11096   2.179   2.711   4.812  0.8871 -3.2867  0.2858
  842MOL0     H11097   2.128   2.996   4.805  0.0146  0.8588  0.0038
  842MOL0     H11098   1.967   3.160   4.595  0.3031  0.1919 -0.8541
  842MOL0     H11099   1.978   3.224   4.758 -2.2418  3.8800 -1.1166
  842MOL0     H11100   1.750   3.310   4.731  1.2927  1.1551 -0.6794
  842MOL0     H11101   1.714   3.142   4.766  0.6236 -0.9328 -1.1200
  842MOL0     H11102   1.770   3.271   4.493 -0.8072  2.1886  1.1568
  842MOL0     H11103   1.719   3.103   4.501  0.6488  0.9331 -2.2335
  842MOL0     H11104   1.588   3.358   4.559 -1.2930 -0.0627  0.5186
  842MOL0     H11105   1.510   3.216   4.641  2.3938 -0.7581  2.6669
  842MOL0     H11106   1.369   3.125   4.221  1.9588  0.3043  1.0862
  842MOL0     H11107   1.121   3.119   4.193  1.3264  1.5767 -2.2509
  842MOL0     H11108   0.675   3.340   4.329  3.2645 -1.1545  0.3093
  842MOL0     H11109   0.453   3.329   4.233 -0.7307  0.2781  0.0406
  842MOL0     H11110   0.335   2.977   4.145  0.7406 -0.3763 -0.3565
  842MOL0     H11111   0.346   2.996   3.967 -0.2735  1.4359 -0.8613
  842MOL0     H11112   0.118   3.082   3.947 -0.7817 -1.7513 -1.1388
  842MOL0     H11113   0.104   3.119   4.119 -0.4822 -0.0861 -0.7381
  842MOL0     H11114   0.089   2.875   4.184  1.1500  0.7615 -0.0212
  842MOL0     H11115   0.160   2.825   4.028  2.9245 -0.0157  1.7986
  842MOL0     H11116  -0.066   2.940   3.931 -0.6138  1.6227  0.8535
  842MOL0     H11117  -0.079   2.786   4.012 -1.8569  0.3773  1.2308
  842MOL0     H11118  -0.102   3.053   4.165 -1.1322  2.5348 -3.3324
  842MOL0     H11119  -0.171   2.883   4.199 -0.4044 -1.5532 -1.0317
  842MOL0     H11120  -0.314   2.890   4.033 -0.9559  0.2899  1.6374
  842MOL0     H11121  -0.263   3.047   3.968  1.9871 -0.5956 -1.2860
  842MOL0     H11122  -0.363   2.994   4.258  1.4007 -1.1675 -0.2849
  842MOL0     H11123  -0.331   3.151   4.181  1.8502 -1.0624 -2.5781
  842MOL0     H11124  -0.481   3.106   4.000  1.6829 -0.9443  0.0648
  842MOL0     H11125  -0.559   3.157   4.144 -0.5640 -0.0640  0.1469
  842MOL0     H11126   0.561   3.012   3.979  0.1038  0.2102 -0.0146
  842MOL0     H11127   0.801   3.058   4.029 -2.0122  1.4270 -3.9702
  842MOL0     H11128   1.078   3.313   4.566 -4.8199  1.5092 -4.0866
  842MOL0     H11129   1.333   3.344   4.585  4.1687  1.2743 -2.8342
  842MOL0     H11130   2.713   2.325   5.465 -0.2679  2.1639  0.0337
  842MOL0     H11131   2.934   2.261   5.612 -0.1862  0.1995  0.4228
  842MOL0     H11132   3.324   2.142   5.614 -0.4532  0.1357 -2.2546
  842MOL0     H11133   3.536   2.040   5.696 -0.5589 -0.2999 -0.4944
  842MOL0     H11134   3.891   2.040   5.810  2.2073  3.2630 -0.5664
  842MOL0     H11135   3.718   2.016   5.814 -0.4430  0.5475  1.3613
  842MOL0     H11136   3.888   2.239   5.917  2.5161 -3.9508 -1.7336
  842MOL0     H11137   3.706   2.262   5.911 -0.1135 -0.8582 -1.4101
  842MOL0     H11138   3.877   2.070   6.066 -0.1973 -0.2844 -0.5021
  842MOL0     H11139   3.709   2.027   6.045 -0.4865  0.1947 -1.3293
  842MOL0     H11140   3.744   2.304   6.130 -1.5069 -2.2520 -3.5543
  842MOL0     H11141   3.641   2.172   6.182  1.4481 -2.0707 -1.7671
  842MOL0     H11142   3.915   2.107   6.470  2.5895  1.1877 -1.3163
  842MOL0     H11143   3.742   2.386   5.560 -0.8301  0.8807 -0.3052
  842MOL0     H11144   3.544   2.488   5.483  2.5123  1.0213  0.5797
  843MOL0     O11145   9.594   4.510  10.522 -0.0867 -0.2514 -0.3424
  843MOL0     C11146   9.600   4.386  10.527 -0.1428  0.3016 -0.0871
  843MOL0     O11147   9.696   4.306  10.478 -0.3699 -0.2995 -0.0333
  843MOL0     C11148   9.801   4.371  10.412  0.4085  0.0429  0.3835
  843MOL0     C11149   9.783   4.416  10.285 -0.7474  1.1072  0.7649
  843MOL0     C11150   9.888   4.455  10.211 -0.1799 -0.5610 -0.4629
  843MOL0     C11151  10.020   4.477  10.268 -0.3242 -0.0018  0.1016
  843MOL0     O11152  10.132   4.531  10.198  0.0426 -0.1137  0.5718
  843MOL0     C11153  10.130   4.587  10.074 -0.3873 -0.2241  0.0557
  843MOL0     C11154  10.271   4.600  10.032  0.9791 -0.3410 -0.2722
  843MOL0     C11155  10.286   4.667   9.890 -0.1883  0.3990  0.5587
  843MOL0     C11156  10.428   4.726   9.872 -1.1016  0.0719 -0.6987
  843MOL0     C11157  10.547   4.632   9.884 -0.8583  0.3371 -0.3213
  843MOL0     C11158  10.564   4.528   9.779  0.0258  0.5000 -0.6315
  843MOL0     C11159  10.599   4.577   9.641  0.2421  0.3471  0.5458
  843MOL0     C11160  10.727   4.662   9.623  0.0418  0.5212  0.9480
  843MOL0     N11161  10.700   4.808   9.611 -0.1395  0.7794 -0.2660
  843MOL0     C11162  10.626   4.871   9.514 -0.5701  0.3893  0.0084
  843MOL0     C11163  10.630   5.002   9.538  0.3345 -0.3090 -0.3413
  843MOL0     C11164  10.579   5.107   9.440  0.4828  0.1191 -0.6756
  843MOL0     C11165  10.427   5.080   9.414  0.5592  0.5078  0.4331
  843MOL0     C11166  10.326   5.106   9.527 -0.4932 -0.2536  0.4192
  843MOL0     C11167  10.178   5.101   9.490  0.0082  0.4585  0.1462
  843MOL0     O11168  10.094   5.119   9.605  0.1452  0.4297  0.3923
  843MOL0     C11169   9.961   5.115   9.593  0.5124 -0.4245 -0.5314
  843MOL0     C11170   9.892   5.143   9.706  0.4129 -0.2697 -0.8253
  843MOL0     C11171   9.748   5.150   9.705  0.8886 -0.0380 -0.0383
  843MOL0     C11172   9.681   5.144   9.586  0.4314 -0.0855 -0.4038
  843MOL0     C11173   9.534   5.137   9.578 -0.2098 -0.3430 -0.0838
  843MOL0     O11174   9.469   5.101   9.462  0.1428 -0.3763 -0.3833
  843MOL0     C11175   9.336   5.102   9.469 -0.0268  0.3525 -0.0817
  843MOL0     C11176   9.268   5.017   9.556 -0.1838  0.0871 -0.1343
  843MOL0     C11177   9.128   5.024   9.572 -0.8342  0.5768 -0.9836
  843MOL0     C11178   9.048   5.099   9.491 -0.2545 -0.1154  0.2289
  843MOL0     O11179   8.912   5.090   9.476 -0.4645  0.3484  0.1341
  843MOL0     C11180   8.872   4.960   9.452  0.2219  0.3106 -0.8065
  843MOL0     C11181   8.726   4.949   9.433 -0.0731  0.6108  0.2062
  843MOL0     C11182   8.676   4.800   9.455 -0.4593  0.5992 -0.5560
  843MOL0     C11183   8.551   4.746   9.388 -1.4940 -0.8831 -0.0189
  843MOL0     C11184   8.422   4.821   9.437 -0.3086 -0.2546  0.2620
  843MOL0     C11185   8.294   4.757   9.390 -0.3532 -0.3399 -0.4394
  843MOL0     C11186   8.275   4.611   9.435 -0.4732  0.5364  0.0066
  843MOL0     C11187   8.134   4.559   9.417 -0.9549  0.4177 -0.4484
  843MOL0    Cl11188   8.024   4.613   9.547 -0.3344 -0.3836 -0.2617
  843MOL0     C11189   9.119   5.184   9.402  0.2157  0.0982 -0.2617
  843MOL0     C11190   9.268   5.189   9.394  1.2202 -0.6098  0.5209
  843MOL0     O11191   9.476   5.160   9.681 -0.0974  0.2500  0.3929
  843MOL0     C11192   9.754   5.137   9.468 -0.0253  0.3569 -0.0759
  843MOL0     C11193   9.894   5.099   9.474  0.6271 -0.7826  0.1012
  843MOL0     N11194  10.692   5.014   9.658 -0.9731  0.1157 -1.0338
  843MOL0     N11195  10.744   4.903   9.696  1.1720  0.7259 -0.5143
  843MOL0     C11196  10.040   4.426  10.394  0.5086 -0.1595 -0.2580
  843MOL0     C11197   9.932   4.376  10.466  1.1288 -0.3835  0.2862
  843MOL0     C11198   9.482   4.321  10.588 -0.0041  0.5678 -0.0094
  843MOL0     C11199   9.382   4.392  10.662  0.1469 -0.1474 -0.3673
  843MOL0     C11200   9.271   4.331  10.707  0.3898 -0.2008 -0.1898
  843MOL0     C11201   9.256   4.192  10.684  0.0712  0.4506 -0.4830
  843MOL0     O11202   9.141   4.115  10.712  0.3626 -0.2772 -0.9595
  843MOL0     C11203   9.033   4.181  10.772 -1.0358  0.2311  0.6117
  843MOL0     C11204   8.911   4.087  10.778 -0.7076 -0.7475 -0.9548
  843MOL0     C11205   8.938   3.964  10.864  0.3622  0.5356 -0.5807
  843MOL0     C11206   8.819   3.872  10.858  0.4014 -0.3974  0.2782
  843MOL0     C11207   8.867   3.760  10.933 -0.1073  0.3951  1.4378
  843MOL0     C11208   8.917   3.661  10.972 -0.4849 -0.2392  0.0641
  843MOL0     C11209   9.354   4.122  10.612 -0.3290 -0.5335  0.3173
  843MOL0     C11210   9.469   4.182  10.564  0.9368  0.0363  1.0791
  843MOL0     H11211   9.682   4.394  10.251 -0.0280 -0.8953 -0.2522
  843MOL0     H11212   9.863   4.488  10.110  2.8503  3.3449 -0.1546
  843MOL0     H11213  10.089   4.686  10.092 -0.1580 -0.2692  0.8474
  843MOL0     H11214  10.068   4.533  10.001 -1.6279  1.6309 -0.3413
  843MOL0     H11215  10.316   4.501  10.021  2.1319  0.0002  1.1562
  843MOL0     H11216  10.323   4.662  10.104 -0.0502  1.6481 -1.1637
  843MOL0     H11217  10.210   4.744   9.878  0.0081  0.3933 -0.8710
  843MOL0     H11218  10.266   4.593   9.812 -0.3219  0.3261  0.6630
  843MOL0     H11219  10.435   4.785   9.780 -1.3750  0.9203 -0.1860
  843MOL0     H11220  10.442   4.805   9.946 -3.1073  1.4998 -1.7145
  843MOL0     H11221  10.533   4.585   9.982 -2.6501  1.7295  0.1568
  843MOL0     H11222  10.636   4.696   9.887 -0.9276  0.4607 -0.9142
  843MOL0     H11223  10.476   4.463   9.767 -0.3187  1.2032 -2.2410
  843MOL0     H11224  10.649   4.467   9.811 -0.1605  1.1609  1.2457
  843MOL0     H11225  10.615   4.498   9.568 -1.5599 -0.5807  1.0796
  843MOL0     H11226  10.517   4.635   9.598 -2.6845 -4.2008 -0.7300
  843MOL0     H11227  10.782   4.631   9.534 -1.9713  3.0808 -1.3762
  843MOL0     H11228  10.794   4.646   9.708  0.0422  0.5000  0.9438
  843MOL0     H11229  10.583   4.831   9.422  1.3030 -0.6357 -0.4846
  843MOL0     H11230  10.628   5.120   9.343  2.2634 -0.3892  0.1387
  843MOL0     H11231  10.586   5.199   9.499 -0.7409  0.0182 -0.3491
  843MOL0     H11232  10.417   4.981   9.371  1.8166  0.5385  0.0231
  843MOL0     H11233  10.401   5.151   9.335 -0.1370 -0.6897 -0.4477
  843MOL0     H11234  10.346   5.021   9.594 -3.7278 -0.2177  1.6390
  843MOL0     H11235  10.354   5.195   9.584  0.7487 -1.7877  2.3672
  843MOL0     H11236  10.164   5.000   9.451  0.5310  0.0263  1.0482
  843MOL0     H11237  10.152   5.182   9.421  0.2725 -0.7268 -1.4042
  843MOL0     H11238   9.956   5.159   9.793 -0.0428 -2.4148 -0.0269
  843MOL0     H11239   9.690   5.162   9.796  2.1538 -1.3268  0.9823
  843MOL0     H11240   9.313   4.943   9.621 -4.8202 -2.3029  0.7202
  843MOL0     H11241   9.085   4.952   9.640  0.4380 -1.7878 -2.5594
  843MOL0     H11242   8.888   4.904   9.545 -2.6169  0.5563 -0.0793
  843MOL0     H11243   8.929   4.916   9.370  0.1169  0.4335 -0.9472
  843MOL0     H11244   8.687   4.970   9.333 -0.8927 -0.2633  0.3282
  843MOL0     H11245   8.685   5.016   9.509 -1.4610  0.5788 -0.4778
  843MOL0     H11246   8.672   4.791   9.564  0.2339  2.0473 -0.3865
  843MOL0     H11247   8.756   4.733   9.422  0.0939  0.7393  0.4820
  843MOL0     H11248   8.556   4.746   9.278 -2.9755 -4.1936 -0.1949
  843MOL0     H11249   8.547   4.639   9.408 -1.0934 -1.6584 -3.4168
  843MOL0     H11250   8.424   4.920   9.391  1.9954  0.2846  1.3469
  843MOL0     H11251   8.424   4.845   9.544 -0.0753 -1.3037  0.5107
  843MOL0     H11252   8.303   4.765   9.282  0.0870  2.6869 -0.2642
  843MOL0     H11253   8.213   4.825   9.418 -0.6347 -1.2169  1.0066
  843MOL0     H11254   8.348   4.548   9.384 -0.5430  0.9227 -0.5813
  843MOL0     H11255   8.298   4.611   9.542 -3.6148  3.2558  0.8617
  843MOL0     H11256   8.140   4.449   9.421  1.2205  0.3749 -2.6624
  843MOL0     H11257   8.100   4.588   9.318  0.2062  3.0316 -0.1539
  843MOL0     H11258   9.056   5.246   9.339  2.4217 -0.1409 -2.9626
  843MOL0     H11259   9.317   5.248   9.317 -1.2256 -1.5103 -1.9234
  843MOL0     H11260   9.690   5.124   9.381 -0.5958  0.5375  0.3088
  843MOL0     H11261   9.934   5.064   9.380 -0.6188 -1.5259 -0.1759
  843MOL0     H11262  10.135   4.421  10.447 -0.6463 -0.4935  1.9100
  843MOL0     H11263   9.942   4.350  10.571 -3.1076 -2.1158  0.4708
  843MOL0     H11264   9.403   4.495  10.691  1.7013 -0.3504 -0.7027
  843MOL0     H11265   9.208   4.388  10.776 -1.7414 -1.5943 -0.8738
  843MOL0     H11266   9.018   4.275  10.718 -0.5390  0.6002  1.0952
  843MOL0     H11267   9.064   4.209  10.873  1.2469  1.5874 -0.3986
  843MOL0     H11268   8.828   4.155  10.801 -0.0260  0.1911 -1.1920
  843MOL0     H11269   8.890   4.041  10.681  2.3678 -2.5814 -0.8496
  843MOL0     H11270   8.941   3.988  10.971 -3.4526  0.9797 -0.4499
  843MOL0     H11271   9.019   3.898  10.832 -0.9789 -1.3617 -0.2379
  843MOL0     H11272   8.731   3.918  10.904  2.3516  3.7543  0.4169
  843MOL0     H11273   8.789   3.846  10.756 -1.7331  0.2553  0.6930
  843MOL0     H11274   8.960   3.567  11.001  4.0459  1.1920 -1.1739
  843MOL0     H11275   9.340   4.019  10.581  1.4217  0.0157 -2.6492
  843MOL0     H11276   9.540   4.133  10.498  2.6567  1.0260  2.1192
  844MOL0     O11277  10.371  11.053   5.463  0.6091 -0.3323 -0.0951
  844MOL0     C11278  10.444  11.049   5.562  0.6638  0.2868 -1.0615
  844MOL0     O11279  10.413  11.012   5.684  0.5288 -0.6627 -0.5264
  844MOL0     C11280  10.283  11.023   5.728  0.1475  0.6749 -0.0429
  844MOL0     C11281  10.188  10.920   5.719  0.7945 -0.2118  0.0932
  844MOL0     C11282  10.057  10.928   5.773 -0.4308 -0.5239  0.3993
  844MOL0     C11283  10.018  11.053   5.837  0.4662  0.4994  0.3418
  844MOL0     O11284   9.903  11.074   5.901 -0.0745 -0.0155  0.3990
  844MOL0     C11285   9.789  11.081   5.824  0.3093  0.6985 -0.5218
  844MOL0     C11286   9.671  11.096   5.921  0.3587 -0.1395  0.6653
  844MOL0     C11287   9.539  11.060   5.859  0.0149  0.1688 -0.4651
  844MOL0     C11288   9.431  11.051   5.965 -1.1020  0.2967  0.2463
  844MOL0     C11289   9.289  11.055   5.910 -0.0284  0.1284  0.6279
  844MOL0     C11290   9.201  11.052   6.041 -0.1726 -0.5085  0.9392
  844MOL0     C11291   9.058  11.016   6.003  0.5562  0.1663 -0.0484
  844MOL0     C11292   9.033  10.863   6.040  0.1904 -0.3890 -0.1937
  844MOL0     N11293   8.918  10.814   5.967  0.4941  0.1512 -0.9079
  844MOL0     C11294   8.902  10.783   5.837 -0.4388 -0.2240  0.2718
  844MOL0     C11295   8.776  10.752   5.823  0.4224  0.3200 -0.3103
  844MOL0     C11296   8.725  10.671   5.715 -0.0578  0.8976  1.4577
  844MOL0     C11297   8.642  10.551   5.769  0.3960 -0.2939 -0.2625
  844MOL0     C11298   8.496  10.597   5.782 -0.2977  0.0685  0.0299
  844MOL0     C11299   8.410  10.486   5.847  0.2057 -0.0923  0.1944
  844MOL0     O11300   8.384  10.378   5.755  0.2238 -0.5250  0.1386
  844MOL0     C11301   8.300  10.270   5.792 -0.2135  0.1372  0.4831
  844MOL0     C11302   8.232  10.277   5.917  0.5164  1.2735 -0.1658
  844MOL0     C11303   8.158  10.167   5.967 -1.4425  0.5249  0.1873
  844MOL0     C11304   8.151  10.051   5.893  0.0211  1.0463  0.1475
  844MOL0     C11305   8.066   9.935   5.929  0.3134  0.6685 -0.1174
  844MOL0     O11306   8.052   9.831   5.835 -0.7674 -0.4355  0.7633
  844MOL0     C11307   7.968   9.725   5.873 -0.0223 -0.5896 -0.7186
  844MOL0     C11308   8.029   9.603   5.905  0.1702  0.5403 -0.4623
  844MOL0     C11309   7.954   9.488   5.941  0.4662 -0.8600  0.0968
  844MOL0     C11310   7.812   9.494   5.935 -0.7419  0.6084  0.3999
  844MOL0     O11311   7.737   9.382   5.938 -0.4994  0.8424  0.2513
  844MOL0     C11312   7.600   9.390   5.962 -0.5677 -0.1720  0.3035
  844MOL0     C11313   7.544   9.245   5.969 -0.0344 -0.4019  0.0803
  844MOL0     C11314   7.414   9.250   6.047 -0.8492 -0.6404  0.8984
  844MOL0     C11315   7.348   9.109   6.056 -0.1897  0.0730 -0.7873
  844MOL0     C11316   7.196   9.136   6.068  0.2925 -0.7039 -0.9327
  844MOL0     C11317   7.115   9.008   6.072  1.4169  0.3620 -0.1847
  844MOL0     C11318   7.009   9.009   5.959 -1.1106  1.3464  0.4468
  844MOL0     C11319   6.932   8.873   5.944  0.5625 -0.9203 -0.2170
  844MOL0    Cl11320   6.855   8.845   6.096  0.0703 -0.4712 -0.0016
  844MOL0     C11321   7.756   9.612   5.905  0.5129  0.1323 -0.4169
  844MOL0     C11322   7.826   9.733   5.873 -0.6296 -0.3530 -0.5453
  844MOL0     O11323   8.017   9.939   6.041  0.1137  0.6205  0.0974
  844MOL0     C11324   8.222  10.043   5.767  0.3044  0.0538  0.6899
  844MOL0     C11325   8.299  10.150   5.721 -0.0026  0.8979 -0.0254
  844MOL0     N11326   8.711  10.765   5.949 -0.5045  0.6905  0.4472
  844MOL0     N11327   8.798  10.809   6.035 -0.1707 -0.4776  0.5745
  844MOL0     C11328  10.101  11.165   5.822 -0.1829 -0.2397 -0.1399
  844MOL0     C11329  10.227  11.150   5.761 -0.1973  1.3405  0.5117
  844MOL0     C11330  10.583  11.090   5.544 -0.1042 -0.6330 -0.0221
  844MOL0     C11331  10.666  11.089   5.656  0.3163 -0.8563  0.0301
  844MOL0     C11332  10.798  11.140   5.646 -0.7491 -0.1794 -0.2149
  844MOL0     C11333  10.850  11.163   5.519 -0.4263  0.3776  0.1305
  844MOL0     O11334  10.977  11.214   5.507  0.1799  0.0605  0.1204
  844MOL0     C11335  11.082  11.153   5.578  0.4692 -0.5763  0.1670
  844MOL0     C11336  11.220  11.225   5.524  0.1583 -0.0624  0.0421
  844MOL0     C11337  11.339  11.181   5.610  0.7994  0.8219 -0.7830
  844MOL0     C11338  11.470  11.247   5.566  0.9249  0.1597  0.7226
  844MOL0     C11339  11.479  11.389   5.594  0.8099 -0.0045 -0.4849
  844MOL0     C11340  11.501  11.509   5.610  0.7147 -0.4043 -0.0619
  844MOL0     C11341  10.773  11.151   5.407 -0.3859  0.0632 -0.0050
  844MOL0     C11342  10.639  11.116   5.419 -0.5678  0.6790 -0.8032
  844MOL0     H11343  10.221  10.826   5.677 -0.6036 -1.0583  0.8206
  844MOL0     H11344  10.002  10.835   5.761 -0.2176 -0.5495 -0.4758
  844MOL0     H11345   9.780  10.986   5.770  0.4671  1.5478 -2.0945
  844MOL0     H11346   9.794  11.167   5.757  2.8000  0.3196 -0.9135
  844MOL0     H11347   9.676  11.200   5.952  1.9286  0.1314 -0.3808
  844MOL0     H11348   9.686  11.024   6.002  0.7702  1.2307  1.8409
  844MOL0     H11349   9.548  10.966   5.803  1.3340 -0.5587  0.9051
  844MOL0     H11350   9.504  11.134   5.787 -2.6650 -1.8196 -1.3961
  844MOL0     H11351   9.444  10.962   6.028  1.3648  0.1370 -0.3875
  844MOL0     H11352   9.452  11.142   6.022  1.4429 -0.0729 -0.0006
  844MOL0     H11353   9.271  10.963   5.853  0.1560  0.5675 -0.1547
  844MOL0     H11354   9.271  11.139   5.843  0.3966  0.0577  0.4290
  844MOL0     H11355   9.203  11.149   6.090 -1.2352  0.7322 -1.3083
  844MOL0     H11356   9.238  10.976   6.110  2.0077  0.5659  1.0600
  844MOL0     H11357   8.985  11.082   6.051 -0.8993 -0.8157 -0.8393
  844MOL0     H11358   9.047  11.031   5.895  1.6825  0.6833 -0.1038
  844MOL0     H11359   9.020  10.856   6.148  0.4234 -1.7840 -0.2332
  844MOL0     H11360   9.122  10.813   6.001  0.9152  2.0499 -1.8921
  844MOL0     H11361   8.975  10.780   5.757 -0.2839 -2.2281  0.4358
  844MOL0     H11362   8.805  10.623   5.658 -0.4309  2.4775 -0.5082
  844MOL0     H11363   8.668  10.734   5.647 -0.5646  0.0925  1.1270
  844MOL0     H11364   8.683  10.519   5.866 -0.7962 -2.4906 -0.4145
  844MOL0     H11365   8.646  10.461   5.707  0.8686 -1.2871  1.1372
  844MOL0     H11366   8.484  10.691   5.837 -3.8850  1.4153 -2.7358
  844MOL0     H11367   8.452  10.617   5.684 -2.9665 -0.6968  0.9981
  844MOL0     H11368   8.314  10.526   5.883  0.3521 -0.4388  1.0077
  844MOL0     H11369   8.449  10.451   5.943 -1.6799 -0.8122  0.7428
  844MOL0     H11370   8.216  10.364   5.981 -1.1596  2.9839 -2.6772
  844MOL0     H11371   8.091  10.173   6.052  0.4423 -1.3127  1.9353
  844MOL0     H11372   8.135   9.622   5.921  0.1120  0.1154  0.4631
  844MOL0     H11373   8.012   9.400   5.964  1.4619 -0.2362  0.0333
  844MOL0     H11374   7.551   9.447   5.882 -1.1617 -2.5717 -1.1373
  844MOL0     H11375   7.584   9.447   6.054  2.6298 -0.7649  1.3637
  844MOL0     H11376   7.611   9.185   6.032 -2.1354 -1.3166  1.5420
  844MOL0     H11377   7.545   9.208   5.866 -0.6586  2.1089 -0.9121
  844MOL0     H11378   7.351   9.322   5.994 -1.2170 -1.2622  0.4712
  844MOL0     H11379   7.424   9.292   6.147 -1.1176 -0.4549  0.8496
  844MOL0     H11380   7.354   9.039   5.972 -2.3546 -2.3946  0.9532
  844MOL0     H11381   7.385   9.046   6.138 -2.4474 -0.4574 -0.1165
  844MOL0     H11382   7.166   9.199   5.983 -0.6412  1.3171  0.8053
  844MOL0     H11383   7.177   9.201   6.153 -0.3584 -2.8949  0.6900
  844MOL0     H11384   7.063   8.995   6.167 -1.2211  2.7531 -1.1778
  844MOL0     H11385   7.184   8.923   6.074  1.8353  0.7008 -0.0043
  844MOL0     H11386   6.931   9.085   5.969 -2.0700  0.3352  1.0156
  844MOL0     H11387   7.069   9.024   5.869 -0.1923  3.9702  1.4070
  844MOL0     H11388   7.009   8.798   5.924  0.9391 -0.4461 -0.5534
  844MOL0     H11389   6.856   8.877   5.866 -2.9789 -0.0657  2.9678
  844MOL0     H11390   7.649   9.623   5.890  0.0922 -3.0566 -0.5973
  844MOL0     H11391   7.767   9.819   5.843 -3.0371 -2.4382 -2.2138
  844MOL0     H11392   8.225   9.963   5.693  0.7897  1.5360 -0.9559
  844MOL0     H11393   8.361  10.147   5.632 -3.0488  1.8328 -2.3671
  844MOL0     H11394  10.060  11.259   5.857 -1.7169 -1.6615  2.1709
  844MOL0     H11395  10.297  11.231   5.743  0.6277  0.5575  0.0789
  844MOL0     H11396  10.636  11.036   5.746 -1.0788 -0.8308 -0.4001
  844MOL0     H11397  10.849  11.147   5.742 -3.0781 -0.8808  1.1715
  844MOL0     H11398  11.078  11.044   5.565 -1.1160 -0.5317  0.1153
  844MOL0     H11399  11.062  11.176   5.683 -0.1505  1.9594 -0.4448
  844MOL0     H11400  11.230  11.189   5.421 -0.5162  0.5563 -0.2503
  844MOL0     H11401  11.203  11.333   5.516 -0.1578 -0.1032  0.1370
  844MOL0     H11402  11.370  11.077   5.594  0.1710  0.4993  0.0075
  844MOL0     H11403  11.316  11.195   5.716 -1.3895  3.7745 -1.4993
  844MOL0     H11404  11.556  11.197   5.611  0.4143 -1.6088 -0.1665
  844MOL0     H11405  11.487  11.227   5.460 -1.1366 -0.7012  0.5084
  844MOL0     H11406  11.538  11.609   5.602 -2.3231  0.7215 -2.0242
  844MOL0     H11407  10.812  11.183   5.311 -1.4375  2.5893  0.3034
  844MOL0     H11408  10.577  11.116   5.330  0.5223  2.5201 -1.6296
  845MOL0     O11409   0.733  10.916   3.680 -0.2112  0.3204  0.3185
  845MOL0     C11410   0.742  10.792   3.654 -0.3655 -0.6413  0.4537
  845MOL0     O11411   0.645  10.698   3.672  0.8757  0.3311  0.1505
  845MOL0     C11412   0.514  10.721   3.706 -0.5386 -0.9790  0.0732
  845MOL0     C11413   0.472  10.662   3.823  0.5782 -0.0556 -0.0028
  845MOL0     C11414   0.334  10.667   3.857  0.2248  0.2657 -0.1751
  845MOL0     C11415   0.238  10.724   3.772  0.3126  0.3440  0.5709
  845MOL0     O11416   0.105  10.729   3.788  0.5638  0.2740  0.1161
  845MOL0     C11417   0.034  10.736   3.913 -0.4280 -0.4670  0.6179
  845MOL0     C11418  -0.101  10.796   3.899  0.5431 -0.1614 -0.0414
  845MOL0     C11419  -0.190  10.770   4.024 -0.7490 -0.6781  0.3842
  845MOL0     C11420  -0.330  10.842   4.025  0.0956  0.2837  0.6004
  845MOL0     C11421  -0.427  10.812   4.145 -0.1911 -0.5159 -0.1609
  845MOL0     C11422  -0.540  10.920   4.158 -0.1057  0.1911 -0.2626
  845MOL0     C11423  -0.599  10.947   4.301  0.0221 -1.0698 -0.3580
  845MOL0     C11424  -0.648  10.815   4.356 -0.2599 -0.1753 -0.5011
  845MOL0     N11425  -0.762  10.755   4.279  0.1490  0.9221 -0.3395
  845MOL0     C11426  -0.891  10.805   4.249  0.3083 -0.9280  0.2377
  845MOL0     C11427  -0.934  10.711   4.167  0.1786 -0.1756  0.5525
  845MOL0     C11428  -1.067  10.701   4.080  0.0380  0.1192  0.2363
  845MOL0     C11429  -1.058  10.779   3.954  0.1376  0.1528  0.0998
  845MOL0     C11430  -1.186  10.788   3.882  0.5579  0.3039  0.0381
  845MOL0     C11431  -1.187  10.871   3.758 -0.1685  0.1569  0.0655
  845MOL0     O11432  -1.272  10.983   3.780 -0.2168 -0.2808 -0.0926
  845MOL0     C11433  -1.407  10.968   3.778  0.1374 -0.0697 -0.2280
  845MOL0     C11434  -1.481  11.079   3.831 -0.0000  0.1001 -0.4768
  845MOL0     C11435  -1.618  11.073   3.843  0.2981 -0.5616 -0.1350
  845MOL0     C11436  -1.686  10.955   3.804 -0.7397  0.4194 -0.1878
  845MOL0     C11437  -1.837  10.946   3.813 -0.3082  0.6393  0.3232
  845MOL0     O11438  -1.896  10.826   3.765 -0.0824  0.2876  0.5274
  845MOL0     C11439  -2.034  10.816   3.789 -0.0301 -0.3632  0.0869
  845MOL0     C11440  -2.106  10.847   3.915  0.0405  0.5769  0.0535
  845MOL0     C11441  -2.241  10.816   3.924  0.8147 -0.6311  0.8518
  845MOL0     C11442  -2.316  10.759   3.814  0.5009  0.5245 -0.2242
  845MOL0     O11443  -2.454  10.761   3.803  0.2722  0.6346 -0.1780
  845MOL0     C11444  -2.502  10.621   3.804 -0.0656  0.3556 -0.8324
  845MOL0     C11445  -2.622  10.589   3.705  1.3796  0.2020 -0.4128
  845MOL0     C11446  -2.743  10.673   3.738  0.7241 -0.3920 -0.8803
  845MOL0     C11447  -2.863  10.631   3.649  0.0229 -0.3372 -0.7037
  845MOL0     C11448  -2.984  10.715   3.700 -0.5778 -0.6726  1.0603
  845MOL0     C11449  -3.111  10.662   3.646 -0.0360 -0.3296  0.2619
  845MOL0     C11450  -3.229  10.744   3.669 -0.1271  0.4143  0.0050
  845MOL0     C11451  -3.251  10.875   3.596 -0.5682 -0.0863  0.2453
  845MOL0    Cl11452  -3.287  10.838   3.424  0.3551  0.4959 -0.1870
  845MOL0     C11453  -2.251  10.746   3.696 -0.0132 -0.3857 -0.1878
  845MOL0     C11454  -2.113  10.763   3.684 -0.2567 -0.2654  0.0039
  845MOL0     O11455  -1.901  11.049   3.850 -1.0660  0.2250  0.1752
  845MOL0     C11456  -1.612  10.843   3.752 -0.2623 -0.0709 -0.5813
  845MOL0     C11457  -1.474  10.848   3.745  0.5479 -1.0640  0.1228
  845MOL0     N11458  -0.838  10.617   4.133  0.2294 -0.6080  0.5899
  845MOL0     N11459  -0.740  10.640   4.208  0.5378  0.5957  0.5552
  845MOL0     C11460   0.277  10.789   3.655 -0.1532 -0.2152  0.4163
  845MOL0     C11461   0.411  10.783   3.627 -0.5697 -0.2125 -0.1079
  845MOL0     C11462   0.865  10.741   3.593 -0.0566 -0.1555 -0.8251
  845MOL0     C11463   0.865  10.622   3.521 -0.1696 -0.0349 -0.2843
  845MOL0     C11464   0.983  10.562   3.463 -0.4465  0.1314 -0.4078
  845MOL0     C11465   1.107  10.623   3.477 -0.3225 -0.1102 -0.3522
  845MOL0     O11466   1.220  10.563   3.431 -0.2875 -0.2785  0.0676
  845MOL0     C11467   1.314  10.642   3.363 -0.5689 -0.9096  1.3171
  845MOL0     C11468   1.420  10.554   3.286  0.5199  0.2536  1.6759
  845MOL0     C11469   1.498  10.451   3.363 -0.3628  0.4828  0.7553
  845MOL0     C11470   1.586  10.359   3.277 -0.1561 -0.5137 -0.0028
  845MOL0     C11471   1.695  10.447   3.222  0.3958  0.6969  0.0887
  845MOL0     C11472   1.777  10.513   3.165 -0.6077  0.0654 -1.4559
  845MOL0     C11473   1.107  10.752   3.542 -0.2278  0.0883  0.5548
  845MOL0     C11474   0.987  10.814   3.597 -0.7031  0.0028 -0.2438
  845MOL0     H11475   0.551  10.625   3.888  2.0302  0.5818 -1.3412
  845MOL0     H11476   0.312  10.630   3.957 -2.0253 -1.6719 -1.2803
  845MOL0     H11477   0.089  10.789   3.992  0.1449  1.9149 -1.2552
  845MOL0     H11478   0.016  10.634   3.949 -5.8284  0.3782  1.0899
  845MOL0     H11479  -0.165  10.762   3.818 -1.4622  0.6210  1.1568
  845MOL0     H11480  -0.079  10.901   3.881  4.7906 -0.7294  0.7333
  845MOL0     H11481  -0.132  10.801   4.112  0.7529 -0.0622 -0.7916
  845MOL0     H11482  -0.211  10.663   4.031 -2.8632 -0.2623  0.9666
  845MOL0     H11483  -0.310  10.949   4.032  4.6972 -0.3729  0.4493
  845MOL0     H11484  -0.372  10.813   3.929  1.1845  0.4791  0.0470
  845MOL0     H11485  -0.375  10.810   4.241 -2.1536 -0.4200  0.9502
  845MOL0     H11486  -0.473  10.713   4.137 -0.6826 -0.5824  2.7245
  845MOL0     H11487  -0.615  10.906   4.080 -0.1722 -0.4093 -0.0994
  845MOL0     H11488  -0.493  11.017   4.141 -2.3046  0.9008 -3.0925
  845MOL0     H11489  -0.517  10.988   4.360 -1.5596  0.8251  0.6413
  845MOL0     H11490  -0.687  11.012   4.290 -0.7481 -1.3074  3.2525
  845MOL0     H11491  -0.691  10.847   4.451  2.9034  2.6468  0.1654
  845MOL0     H11492  -0.566  10.745   4.372 -0.5628 -0.5166 -0.4193
  845MOL0     H11493  -0.951  10.883   4.295 -0.1125 -2.8383  3.1690
  845MOL0     H11494  -1.160  10.732   4.130 -0.7954 -0.7957 -0.6906
  845MOL0     H11495  -1.089  10.596   4.057  0.2158  0.0571  0.3491
  845MOL0     H11496  -0.980  10.733   3.893 -2.3911  0.8364 -3.9653
  845MOL0     H11497  -1.023  10.881   3.976 -1.0800  0.8289 -0.9689
  845MOL0     H11498  -1.202  10.683   3.856 -1.1629  0.2994  0.9256
  845MOL0     H11499  -1.265  10.816   3.952  0.6849  0.0643  0.2797
  845MOL0     H11500  -1.212  10.814   3.668  0.5510 -1.3655  0.7952
  845MOL0     H11501  -1.085  10.905   3.740 -0.1904  1.1009  1.5615
  845MOL0     H11502  -1.419  11.164   3.857 -0.0751  0.7713 -2.3124
  845MOL0     H11503  -1.668  11.159   3.886 -1.1320 -0.6767 -1.4979
  845MOL0     H11504  -2.049  10.886   3.999  0.3106  0.9554 -0.2988
  845MOL0     H11505  -2.296  10.856   4.008 -0.4947  1.1215 -0.7662
  845MOL0     H11506  -2.522  10.589   3.906  0.5602 -0.5921 -0.9850
  845MOL0     H11507  -2.415  10.559   3.777 -0.1593  0.0882 -0.5201
  845MOL0     H11508  -2.642  10.482   3.714  2.6676 -0.3314 -2.8575
  845MOL0     H11509  -2.591  10.612   3.602  2.1237 -3.3422 -1.1020
  845MOL0     H11510  -2.726  10.780   3.726  0.2045 -0.4481 -2.3005
  845MOL0     H11511  -2.766  10.658   3.844 -0.6301 -1.2409 -1.2676
  845MOL0     H11512  -2.840  10.642   3.542  1.3337 -3.9388 -0.9074
  845MOL0     H11513  -2.877  10.523   3.653  0.6583 -0.4023 -0.0725
  845MOL0     H11514  -2.965  10.821   3.683 -0.4973 -0.2307  3.5625
  845MOL0     H11515  -2.981  10.705   3.809  2.2041 -1.2169  1.0169
  845MOL0     H11516  -3.130  10.567   3.697  1.2793 -0.5197  0.4547
  845MOL0     H11517  -3.103  10.636   3.540  1.3503  1.2945 -0.0904
  845MOL0     H11518  -3.318  10.684   3.647 -0.7936  1.5886 -0.5273
  845MOL0     H11519  -3.243  10.764   3.775 -0.7660  1.8521 -0.3327
  845MOL0     H11520  -3.159  10.931   3.615  0.5064 -1.8014  0.3262
  845MOL0     H11521  -3.344  10.915   3.637 -1.0710 -1.5863  0.6703
  845MOL0     H11522  -2.300  10.727   3.601 -0.8223 -0.3549  0.2102
  845MOL0     H11523  -2.050  10.739   3.599 -0.1480 -1.0757  0.3059
  845MOL0     H11524  -1.649  10.744   3.725 -2.4143  0.6471 -0.4619
  845MOL0     H11525  -1.433  10.756   3.704  1.0083 -0.0451 -1.8418
  845MOL0     H11526   0.202  10.821   3.583  2.0874  1.2837 -1.4228
  845MOL0     H11527   0.426  10.829   3.530 -3.5343 -1.4543 -1.2948
  845MOL0     H11528   0.773  10.564   3.517 -0.9118  1.1073 -0.2723
  845MOL0     H11529   0.978  10.467   3.410 -0.3677 -0.2818  0.2979
  845MOL0     H11530   1.360  10.718   3.428  1.4010 -2.3036  1.6409
  845MOL0     H11531   1.268  10.689   3.276  3.9483  0.4066 -0.6493
  845MOL0     H11532   1.371  10.505   3.202 -0.1551  0.8142  1.7392
  845MOL0     H11533   1.485  10.627   3.236 -1.3574  1.1279  0.3907
  845MOL0     H11534   1.413  10.397   3.408 -0.4554  1.2169  1.4707
  845MOL0     H11535   1.551  10.504   3.442 -3.8181  1.2787  2.7929
  845MOL0     H11536   1.617  10.283   3.350 -0.8202 -0.5032  0.3000
  845MOL0     H11537   1.516  10.318   3.204 -1.0712 -1.0412  1.1356
  845MOL0     H11538   1.840  10.571   3.101  1.6753 -1.3339 -0.5672
  845MOL0     H11539   1.206  10.797   3.546  1.1094 -2.4866 -0.8562
  845MOL0     H11540   0.988  10.903   3.660  1.3537  1.3506 -2.0203
  846MOL0     O11541   5.219   3.404  10.511  0.0624  0.1995 -1.1451
  846MOL0     C11542   5.205   3.279  10.485  0.8449  0.4294 -0.4740
  846MOL0     O11543   5.089   3.222  10.451  0.3464 -0.5135 -0.2232
  846MOL0     C11544   4.972   3.302  10.456 -0.2494 -0.3571 -0.2990
  846MOL0     C11545   4.934   3.372  10.576 -0.1616  0.5829 -0.3749
  846MOL0     C11546   4.819   3.451  10.564 -0.1098 -0.2672 -0.4810
  846MOL0     C11547   4.735   3.440  10.451 -0.8029  1.7018  0.0489
  846MOL0     O11548   4.620   3.511  10.452 -0.0290 -0.5758  0.4334
  846MOL0     C11549   4.547   3.539  10.329  0.4564  0.3574 -0.9454
  846MOL0     C11550   4.415   3.625  10.368  0.1221 -0.0570 -0.6466
  846MOL0     C11551   4.306   3.619  10.265 -0.4283 -0.0511  0.1903
  846MOL0     C11552   4.187   3.717  10.308  0.4020  0.1898 -0.8623
  846MOL0     C11553   4.219   3.861  10.253 -0.3690 -0.4598 -1.0074
  846MOL0     C11554   4.107   3.961  10.269 -0.4820 -0.0511  0.5947
  846MOL0     C11555   4.041   3.962  10.405 -0.3683 -0.6864  0.4961
  846MOL0     C11556   3.925   4.061  10.389  0.7890  0.1178 -0.1243
  846MOL0     N11557   3.855   4.091  10.514 -0.1817 -0.7183 -0.6963
  846MOL0     C11558   3.722   4.086  10.531  0.5567  0.0712 -1.2237
  846MOL0     C11559   3.706   4.119  10.663 -0.0811  0.0109 -0.4316
  846MOL0     C11560   3.570   4.123  10.742  0.0885  0.3989 -0.1811
  846MOL0     C11561   3.523   4.261  10.775  0.2014 -0.0783 -0.2204
  846MOL0     C11562   3.404   4.266  10.873 -0.4159  0.1117 -0.1164
  846MOL0     C11563   3.281   4.197  10.821 -0.2615  0.1341 -0.0601
  846MOL0     O11564   3.173   4.251  10.894 -0.1630 -0.8179 -0.5105
  846MOL0     C11565   3.046   4.203  10.878 -1.1515  0.5299  1.0970
  846MOL0     C11566   3.030   4.076  10.825 -0.0618  0.3991  0.2326
  846MOL0     C11567   2.900   4.023  10.833 -0.1328 -0.0451  0.4186
  846MOL0     C11568   2.786   4.091  10.867 -0.1718  0.2703 -0.3504
  846MOL0     C11569   2.658   4.021  10.847 -0.1147  0.2039 -0.6487
  846MOL0     O11570   2.553   4.089  10.903  0.2643  0.1430 -0.2783
  846MOL0     C11571   2.426   4.035  10.916 -0.6989  0.4852 -0.8795
  846MOL0     C11572   2.418   3.900  10.936  0.4840  0.3205  0.3877
  846MOL0     C11573   2.283   3.849  10.947  0.2464 -0.1728 -0.8514
  846MOL0     C11574   2.164   3.930  10.938 -0.4641 -0.1496  0.5321
  846MOL0     O11575   2.041   3.878  10.944  0.3907  0.1033 -0.6360
  846MOL0     C11576   1.957   3.938  11.048 -0.2450  0.0713 -0.1848
  846MOL0     C11577   1.818   3.896  11.050  0.0705  0.6760 -0.1466
  846MOL0     C11578   1.799   3.756  11.104  0.4600  0.1681 -0.8390
  846MOL0     C11579   1.652   3.727  11.081  0.1913 -0.5496  1.0394
  846MOL0     C11580   1.620   3.586  11.138  0.0735 -1.0665  0.0594
  846MOL0     C11581   1.476   3.547  11.110 -0.5636 -0.1862 -0.1559
  846MOL0     C11582   1.415   3.470  11.220  1.2697  0.4587  0.3767
  846MOL0     C11583   1.263   3.432  11.212  0.0487  0.3559  0.6899
  846MOL0    Cl11584   1.226   3.334  11.072  0.1273 -0.0176 -0.1140
  846MOL0     C11585   2.183   4.064  10.905 -1.1154 -0.4193 -0.1777
  846MOL0     C11586   2.314   4.117  10.910 -0.8062 -0.2893  1.0225
  846MOL0     O11587   2.653   3.916  10.780 -0.7698  0.2522 -0.4401
  846MOL0     C11588   2.802   4.218  10.923 -0.5286 -0.7100  0.0935
  846MOL0     C11589   2.932   4.273  10.916  0.0502  0.2640 -0.7628
  846MOL0     N11590   3.825   4.145  10.723 -0.3691  0.3865  1.0794
  846MOL0     N11591   3.916   4.133  10.629  0.3277  1.1920 -0.9046
  846MOL0     C11592   4.777   3.384  10.333  0.0599  0.3763  0.0121
  846MOL0     C11593   4.894   3.309  10.336  0.4223 -0.1003  0.0681
  846MOL0     C11594   5.317   3.185  10.484 -0.3982  0.2476 -0.0288
  846MOL0     C11595   5.321   3.058  10.416 -0.1108  0.1222 -0.8969
  846MOL0     C11596   5.444   2.986  10.409 -0.2792 -0.5643  0.4462
  846MOL0     C11597   5.564   3.028  10.464  0.4758  0.5638 -1.0710
  846MOL0     O11598   5.670   2.943  10.449 -0.2549  0.0002  0.9919
  846MOL0     C11599   5.807   2.979  10.487  0.7757 -0.7061  0.0775
  846MOL0     C11600   5.879   3.017  10.364 -0.5992 -0.3186 -0.6645
  846MOL0     C11601   6.021   3.076  10.395 -0.2301 -0.3462 -0.6955
  846MOL0     C11602   6.112   2.977  10.438 -0.9562  0.5023 -0.0852
  846MOL0     C11603   6.223   3.042  10.505  0.3862  0.3488 -0.0150
  846MOL0     C11604   6.329   3.071  10.557  0.1014  0.5900 -0.6072
  846MOL0     C11605   5.560   3.148  10.533  0.6332 -1.4739 -0.4772
  846MOL0     C11606   5.437   3.227  10.543 -0.0898  0.6009 -0.5936
  846MOL0     H11607   4.987   3.362  10.670 -0.5747  1.2075 -0.0723
  846MOL0     H11608   4.799   3.512  10.651  0.2371  0.4724 -0.9116
  846MOL0     H11609   4.520   3.453  10.267  1.7237  0.7353 -2.0612
  846MOL0     H11610   4.616   3.599  10.269 -0.5946  3.2684  0.5744
  846MOL0     H11611   4.452   3.728  10.378 -1.1151  0.2999  0.5255
  846MOL0     H11612   4.379   3.598  10.468 -0.7013  2.7609 -0.1051
  846MOL0     H11613   4.274   3.515  10.262  2.0111 -0.8625  0.6534
  846MOL0     H11614   4.348   3.648  10.168  1.3187 -0.4115  0.8193
  846MOL0     H11615   4.100   3.680  10.254  0.4035  0.1060 -0.8069
  846MOL0     H11616   4.175   3.703  10.416 -0.7347 -0.2971 -1.0328
  846MOL0     H11617   4.243   3.863  10.146  0.2421  1.0509 -0.8607
  846MOL0     H11618   4.307   3.890  10.310 -0.3028 -2.5154  0.0319
  846MOL0     H11619   4.034   3.940  10.190  1.0441 -0.1690 -0.8590
  846MOL0     H11620   4.140   4.064  10.251  1.2713 -0.4203  1.4529
  846MOL0     H11621   4.003   3.861  10.420  2.9790 -1.9303  1.5131
  846MOL0     H11622   4.117   3.995  10.477  0.1541  2.1514 -1.1801
  846MOL0     H11623   3.854   4.011  10.323  2.8119 -2.6943 -0.3374
  846MOL0     H11624   3.951   4.160  10.350 -0.1410 -0.3688 -2.1000
  846MOL0     H11625   3.646   4.063  10.457  1.4001 -2.2852 -1.4531
  846MOL0     H11626   3.587   4.085  10.843  0.3534  4.7167  1.6118
  846MOL0     H11627   3.496   4.062  10.689 -0.0816  0.6098 -0.1901
  846MOL0     H11628   3.486   4.296  10.678 -0.2623 -1.8023 -0.6850
  846MOL0     H11629   3.611   4.316  10.811 -0.2226  0.3282  0.1954
  846MOL0     H11630   3.441   4.220  10.965  1.4751  3.1171  0.7626
  846MOL0     H11631   3.374   4.370  10.883 -0.4604  0.0966 -0.0945
  846MOL0     H11632   3.286   4.088  10.833 -0.6405  0.0772 -0.4027
  846MOL0     H11633   3.268   4.218  10.715  0.1110 -2.4471 -0.6951
  846MOL0     H11634   3.099   4.013  10.770 -0.4579  1.4538 -1.5614
  846MOL0     H11635   2.882   3.926  10.788 -1.9089  0.4227  0.0374
  846MOL0     H11636   2.503   3.833  10.937  0.6187  0.4623 -0.5231
  846MOL0     H11637   2.278   3.747  10.985  0.2525  0.7595  1.8575
  846MOL0     H11638   1.947   4.046  11.028 -0.3770  0.1071  0.0733
  846MOL0     H11639   2.007   3.920  11.143  0.9091  1.7368 -0.4301
  846MOL0     H11640   1.778   3.897  10.949 -0.0626 -0.7747 -0.1284
  846MOL0     H11641   1.753   3.964  11.106  0.4414  0.7040  0.2541
  846MOL0     H11642   1.814   3.751  11.212 -2.6942  1.7612 -0.2065
  846MOL0     H11643   1.870   3.688  11.056  2.6940  1.8235 -0.0046
  846MOL0     H11644   1.590   3.798  11.137 -0.2948 -1.9089  2.3069
  846MOL0     H11645   1.631   3.728  10.974 -0.0995 -2.1081  1.0586
  846MOL0     H11646   1.630   3.592  11.247 -2.3277  2.3989  0.2500
  846MOL0     H11647   1.691   3.516  11.093 -1.1579 -2.2949 -0.0376
  846MOL0     H11648   1.469   3.494  11.014  1.4895  0.0732 -0.5094
  846MOL0     H11649   1.425   3.643  11.110  3.0617  1.9528 -1.2078
  846MOL0     H11650   1.469   3.377  11.241 -1.5486 -1.2621  0.5804
  846MOL0     H11651   1.428   3.523  11.315 -0.2761  0.1404  0.8064
  846MOL0     H11652   1.200   3.521  11.209 -2.7011 -1.4679 -2.3218
  846MOL0     H11653   1.233   3.370  11.297  1.2004 -0.8000  0.2820
  846MOL0     H11654   2.098   4.131  10.894  0.7928  2.2086  0.0126
  846MOL0     H11655   2.334   4.217  10.875 -0.4382 -0.3560  1.0406
  846MOL0     H11656   2.716   4.273  10.957 -0.7163 -0.9132 -0.0505
  846MOL0     H11657   2.936   4.372  10.961 -3.2991 -0.3691  1.3414
  846MOL0     H11658   4.713   3.385  10.246  0.1595  0.3361 -0.0611
  846MOL0     H11659   4.945   3.269  10.249  2.8422 -2.8035  2.5017
  846MOL0     H11660   5.228   3.034  10.365  0.2341 -0.1410 -1.4021
  846MOL0     H11661   5.436   2.894  10.351 -0.1459 -1.7168  2.1728
  846MOL0     H11662   5.856   2.895  10.537 -0.2505 -2.8770 -2.2555
  846MOL0     H11663   5.801   3.057  10.563 -2.3753 -0.1669 -0.5691
  846MOL0     H11664   5.897   2.932  10.298 -3.1939 -1.5881  0.0890
  846MOL0     H11665   5.823   3.095  10.312  1.4748  2.2343  0.6888
  846MOL0     H11666   6.000   3.143  10.480 -1.1910 -1.5047  0.0272
  846MOL0     H11667   6.054   3.124  10.303 -1.1570  2.6180  0.3981
  846MOL0     H11668   6.063   2.908  10.507 -0.0972 -1.4431 -1.3647
  846MOL0     H11669   6.150   2.911  10.360  1.9073 -1.2851  2.5927
  846MOL0     H11670   6.425   3.093  10.601  1.2044  1.2330 -3.1382
  846MOL0     H11671   5.648   3.202  10.567  0.0856 -0.0384 -1.2461
  846MOL0     H11672   5.443   3.321  10.597  3.1906  0.9633 -1.3550
  847MOL0     O11673   2.521   3.494  11.041  1.1231  1.3580 -0.0842
  847MOL0     C11674   2.535   3.458  10.922  1.0204 -0.4266 -0.1202
  847MOL0     O11675   2.432   3.400  10.846  0.1055  0.4056  0.7011
  847MOL0     C11676   2.320   3.366  10.912 -0.7066  0.6591 -0.7969
  847MOL0     C11677   2.319   3.259  10.997 -0.3330  0.4229  0.0458
  847MOL0     C11678   2.204   3.214  11.055  1.0216 -0.0455  0.2212
  847MOL0     C11679   2.081   3.274  11.038  0.0784 -0.5002  0.1501
  847MOL0     O11680   1.971   3.214  11.100 -1.3077  0.4741  0.1960
  847MOL0     C11681   1.845   3.242  11.041 -0.7818 -0.1010 -0.2926
  847MOL0     C11682   1.726   3.154  11.073 -0.2620 -1.1890  0.0311
  847MOL0     C11683   1.762   3.005  11.067  0.1374  1.0419  0.0382
  847MOL0     C11684   1.650   2.914  11.122 -0.4303 -0.2822 -0.8209
  847MOL0     C11685   1.688   2.766  11.142 -0.2732 -0.6234 -0.2286
  847MOL0     C11686   1.572   2.685  11.198 -0.2410 -0.1887 -0.6339
  847MOL0     C11687   1.601   2.542  11.176 -0.3501  0.3630  0.5030
  847MOL0     C11688   1.498   2.456  11.240 -0.4532  0.8660  0.2183
  847MOL0     N11689   1.362   2.477  11.191 -0.2941 -0.1201  0.3359
  847MOL0     C11690   1.257   2.551  11.241  0.3608  0.1412  0.4202
  847MOL0     C11691   1.142   2.512  11.170 -0.0099 -0.4162 -0.1764
  847MOL0     C11692   0.996   2.554  11.193  0.1698  0.6932  0.3168
  847MOL0     C11693   0.959   2.704  11.175 -0.2360  0.9905  0.5962
  847MOL0     C11694   0.917   2.718  11.029  0.7557 -0.0223  0.0986
  847MOL0     C11695   0.914   2.860  10.968  0.0201  0.7797  0.6747
  847MOL0     O11696   0.821   2.932  11.050  0.1496 -0.1421  0.5497
  847MOL0     C11697   0.689   2.931  11.011  0.1977  0.7171 -0.7083
  847MOL0     C11698   0.607   3.030  11.052 -0.0449 -0.0639  0.6470
  847MOL0     C11699   0.470   3.037  11.022 -0.2323  0.0044 -0.6781
  847MOL0     C11700   0.407   2.932  10.959  0.2704  0.3102  0.6690
  847MOL0     C11701   0.265   2.943  10.935  0.9168  0.8059 -0.0159
  847MOL0     O11702   0.219   2.905  10.807  0.2664  0.1147 -0.8775
  847MOL0     C11703   0.088   2.934  10.767  0.5590  0.6572  0.3553
  847MOL0     C11704   0.057   2.988  10.637 -0.4892  0.0089 -0.2465
  847MOL0     C11705  -0.078   3.000  10.593  0.0181 -0.4350  0.8503
  847MOL0     C11706  -0.186   2.986  10.680 -0.4162 -0.0418  0.1021
  847MOL0     O11707  -0.309   3.017  10.633 -0.2199  0.5149  0.4371
  847MOL0     C11708  -0.353   3.147  10.678  0.1948  0.5298  0.2514
  847MOL0     C11709  -0.446   3.142  10.792  0.5852  0.0347  0.8827
  847MOL0     C11710  -0.578   3.068  10.755 -0.2483 -0.0938  0.3892
  847MOL0     C11711  -0.678   3.082  10.869 -1.2651 -0.1868  0.0484
  847MOL0     C11712  -0.676   2.948  10.954  0.1614  0.3029 -0.7235
  847MOL0     C11713  -0.758   2.974  11.080  0.0612 -0.7871 -0.6688
  847MOL0     C11714  -0.891   3.049  11.050 -0.4976  0.5128  0.5202
  847MOL0     C11715  -0.983   3.049  11.177  0.4364  0.8861  0.2445
  847MOL0    Cl11716  -1.159   3.069  11.115 -0.1674  0.4759 -0.5129
  847MOL0     C11717  -0.153   2.947  10.806 -0.0070 -0.1876 -0.1983
  847MOL0     C11718  -0.024   2.923  10.855 -0.2459 -0.0879  0.2775
  847MOL0     O11719   0.199   2.987  11.031 -0.1319 -0.3669  0.4150
  847MOL0     C11720   0.487   2.826  10.912  0.2928 -0.2520  0.6071
  847MOL0     C11721   0.627   2.828  10.937 -0.1438 -0.3038  0.6382
  847MOL0     N11722   1.186   2.428  11.072 -0.8879  0.3345 -0.0318
  847MOL0     N11723   1.311   2.401  11.091  0.1157  0.1602  0.6979
  847MOL0     C11724   2.080   3.388  10.952  0.0147  0.1514 -1.0589
  847MOL0     C11725   2.199   3.436  10.892  0.3659  0.3885  0.2856
  847MOL0     C11726   2.673   3.480  10.859  0.6409 -0.6823  0.4340
  847MOL0     C11727   2.694   3.432  10.731  0.4359 -1.3139 -0.0224
  847MOL0     C11728   2.813   3.461  10.670 -1.2013  0.2628 -0.5576
  847MOL0     C11729   2.921   3.515  10.740 -0.9996 -0.0745  0.4692
  847MOL0     O11730   3.034   3.523  10.668 -0.3221  0.0892  0.2927
  847MOL0     C11731   3.165   3.538  10.732 -0.5996 -0.3679 -0.0891
  847MOL0     C11732   3.208   3.413  10.796 -0.0685 -0.0726 -0.0290
  847MOL0     C11733   3.329   3.424  10.883 -0.1484 -0.9798  0.0794
  847MOL0     C11734   3.460   3.466  10.818  0.7864  0.2595  0.2157
  847MOL0     C11735   3.579   3.455  10.907 -0.0841  0.4395 -0.0890
  847MOL0     C11736   3.671   3.441  10.982 -0.4782 -0.4155  0.3754
  847MOL0     C11737   2.903   3.558  10.868 -0.2951  0.2378 -0.4280
  847MOL0     C11738   2.774   3.553  10.925 -0.1920 -0.4641 -0.0746
  847MOL0     H11739   2.415   3.209  11.006 -0.9086 -0.6151  0.5441
  847MOL0     H11740   2.214   3.122  11.112  0.1682 -0.0717  0.3331
  847MOL0     H11741   1.853   3.249  10.932 -0.4664 -2.6479 -0.5029
  847MOL0     H11742   1.826   3.341  11.081 -0.0974 -0.7266  1.6799
  847MOL0     H11743   1.641   3.174  11.008  0.0974 -0.7311 -0.3030
  847MOL0     H11744   1.699   3.176  11.177  2.4422  2.0718  0.1956
  847MOL0     H11745   1.849   2.989  11.131  0.3440 -0.8071 -0.6300
  847MOL0     H11746   1.788   2.972  10.965  0.3135 -0.4601  0.5353
  847MOL0     H11747   1.600   2.951  11.212 -4.2419 -3.5179 -1.3368
  847MOL0     H11748   1.569   2.914  11.048 -1.8221 -4.0189  0.4922
  847MOL0     H11749   1.766   2.774  11.219  0.5615  1.0797 -1.2037
  847MOL0     H11750   1.741   2.717  11.060 -1.8004 -1.4358 -0.7702
  847MOL0     H11751   1.484   2.711  11.138 -0.5380 -0.2982 -0.2477
  847MOL0     H11752   1.564   2.725  11.300  1.5974  0.1087 -0.5621
  847MOL0     H11753   1.599   2.517  11.069  0.1394 -0.4176  0.6658
  847MOL0     H11754   1.704   2.526  11.209  0.2899 -0.5404 -1.7528
  847MOL0     H11755   1.492   2.477  11.347 -0.7600 -1.6793  0.7493
  847MOL0     H11756   1.521   2.353  11.213 -1.9855  1.0706 -2.2447
  847MOL0     H11757   1.264   2.611  11.332  0.3145 -0.9051  1.1367
  847MOL0     H11758   0.973   2.535  11.298  2.2981  0.1377  0.7222
  847MOL0     H11759   0.925   2.496  11.132  0.3223  0.8604 -0.0221
  847MOL0     H11760   1.048   2.762  11.201  2.4573 -3.0613  1.4373
  847MOL0     H11761   0.880   2.736  11.244  0.0250  2.4334  0.2574
  847MOL0     H11762   0.965   2.651  10.957 -0.0995  0.7216 -1.2224
  847MOL0     H11763   0.816   2.677  11.019  0.8592 -0.6048  1.3291
  847MOL0     H11764   0.883   2.858  10.863 -0.5808 -1.0843  0.8508
  847MOL0     H11765   1.012   2.909  10.970  0.4951 -0.1720  1.0761
  847MOL0     H11766   0.662   3.110  11.100 -0.0070 -0.4856  1.3227
  847MOL0     H11767   0.420   3.132  11.037 -2.1497 -1.2362  1.3678
  847MOL0     H11768   0.135   3.003  10.564  0.8526 -3.2054  0.3624
  847MOL0     H11769  -0.090   3.027  10.488 -1.4207  2.4930  1.6709
  847MOL0     H11770  -0.406   3.202  10.600 -1.4732  0.6023  1.3956
  847MOL0     H11771  -0.261   3.200  10.705  2.3260 -2.3490 -0.7960
  847MOL0     H11772  -0.482   3.245  10.803  0.8342  0.3775 -1.1810
  847MOL0     H11773  -0.400   3.110  10.886 -1.7865  0.3358  2.2261
  847MOL0     H11774  -0.556   2.961  10.745 -1.1567 -0.3419  0.8769
  847MOL0     H11775  -0.620   3.098  10.659  1.5946 -0.3732 -0.5423
  847MOL0     H11776  -0.652   3.170  10.928  1.1862  1.6310 -3.4108
  847MOL0     H11777  -0.777   3.102  10.827 -2.4193 -3.8965  0.5730
  847MOL0     H11778  -0.574   2.914  10.973 -0.9778 -2.2477  1.3412
  847MOL0     H11779  -0.721   2.868  10.894 -1.2121 -0.4983  1.2840
  847MOL0     H11780  -0.699   3.037  11.147 -1.8505 -2.4190  2.8319
  847MOL0     H11781  -0.773   2.872  11.116  2.5862 -1.8744 -2.4395
  847MOL0     H11782  -0.870   3.153  11.026  3.7683 -0.2943 -0.0765
  847MOL0     H11783  -0.941   3.003  10.964 -1.9225  1.8408  0.6028
  847MOL0     H11784  -0.964   3.132  11.246 -1.0145  3.7480 -2.5560
  847MOL0     H11785  -0.965   2.953  11.227  1.2103  0.8215 -0.1377
  847MOL0     H11786  -0.234   2.925  10.874  0.7000 -1.4286  0.2778
  847MOL0     H11787  -0.017   2.897  10.960  0.6116 -1.8259 -0.1747
  847MOL0     H11788   0.440   2.743  10.860 -0.5163  0.0159  0.8963
  847MOL0     H11789   0.696   2.762  10.886 -0.7593  0.4582 -1.2752
  847MOL0     H11790   1.987   3.443  10.946  0.4880  0.8061 -4.1937
  847MOL0     H11791   2.202   3.515  10.818  4.6487  0.8741  0.7561
  847MOL0     H11792   2.620   3.389  10.665  0.7178 -0.2670 -1.0465
  847MOL0     H11793   2.830   3.431  10.567 -0.7869 -2.3921  0.2053
  847MOL0     H11794   3.176   3.628  10.793  0.5458  0.8248 -1.9633
  847MOL0     H11795   3.243   3.556  10.657  0.9612  0.7550  1.7224
  847MOL0     H11796   3.126   3.380  10.861 -0.8979  0.1155 -0.9386
  847MOL0     H11797   3.217   3.336  10.719 -1.5776  1.0820 -1.4403
  847MOL0     H11798   3.339   3.324  10.926  0.4609 -1.2448 -0.6453
  847MOL0     H11799   3.328   3.490  10.970  3.0297 -1.0673  0.2821
  847MOL0     H11800   3.473   3.399  10.733  0.0926 -1.5407  1.4829
  847MOL0     H11801   3.451   3.570  10.784  1.0762 -0.1708 -1.2238
  847MOL0     H11802   3.758   3.439  11.043 -0.6445 -0.8441  0.6011
  847MOL0     H11803   2.981   3.612  10.920  0.9886 -2.0782  0.1806
  847MOL0     H11804   2.756   3.589  11.026  1.1783  0.5019 -0.1382
  848MOL0     O11805   4.333   0.272   1.525 -0.2107 -0.5209  0.2931
  848MOL0     C11806   4.442   0.231   1.484 -0.6520  0.2762 -0.3610
  848MOL0     O11807   4.456   0.154   1.368  1.2057  0.0491 -0.3525
  848MOL0     C11808   4.354   0.168   1.276  0.1085 -0.2066 -0.2496
  848MOL0     C11809   4.315   0.292   1.217  0.1868  0.6479  0.5694
  848MOL0     C11810   4.221   0.308   1.121 -0.2631 -0.5839 -0.5541
  848MOL0     C11811   4.169   0.187   1.066  0.3766 -0.1365 -0.3661
  848MOL0     O11812   4.074   0.203   0.975  0.0693 -0.4096 -0.5007
  848MOL0     C11813   3.965   0.111   0.968  0.1669 -0.4262 -0.1640
  848MOL0     C11814   3.822   0.180   0.987 -0.9431  1.1057  0.1655
  848MOL0     C11815   3.789   0.265   0.870 -0.0555 -0.1740 -1.1612
  848MOL0     C11816   3.662   0.331   0.919  0.5785  0.2421 -0.3335
  848MOL0     C11817   3.554   0.342   0.808 -0.1017  0.5188 -0.6578
  848MOL0     C11818   3.586   0.458   0.719  0.4795  0.1472  0.8783
  848MOL0     C11819   3.467   0.494   0.632 -0.1232 -0.9339  0.4575
  848MOL0     C11820   3.504   0.603   0.531 -0.8532  0.2694 -0.4151
  848MOL0     N11821   3.414   0.614   0.420  0.3076  0.0671  0.3180
  848MOL0     C11822   3.308   0.690   0.407 -0.3072  0.0396  0.7143
  848MOL0     C11823   3.261   0.659   0.282  0.1220  0.2100  0.8879
  848MOL0     C11824   3.134   0.702   0.212 -0.0669 -0.5572  0.3984
  848MOL0     C11825   3.033   0.590   0.201  0.2986  0.6424  0.0210
  848MOL0     C11826   2.987   0.550   0.341 -0.4435 -0.3012 -0.3027
  848MOL0     C11827   2.857   0.465   0.346  0.2109  0.1709  0.0205
  848MOL0     O11828   2.749   0.520   0.277  0.2327 -0.0617 -0.7643
  848MOL0     C11829   2.629   0.448   0.273  0.2537  0.0549 -0.4643
  848MOL0     C11830   2.518   0.512   0.217 -0.1133 -0.9268 -0.0991
  848MOL0     C11831   2.398   0.451   0.211  0.9282 -1.1410 -0.4989
  848MOL0     C11832   2.380   0.319   0.253  0.3232 -0.6135 -0.6318
  848MOL0     C11833   2.235   0.272   0.251 -0.2919  0.2228  0.6188
  848MOL0     O11834   2.135   0.355   0.211 -0.5660 -0.3826  0.2996
  848MOL0     C11835   2.009   0.300   0.180 -0.4431  0.4388 -0.0164
  848MOL0     C11836   1.993   0.241   0.057  0.0948  0.4924 -0.3971
  848MOL0     C11837   1.873   0.200   0.010  1.1433  0.2883  0.5471
  848MOL0     C11838   1.759   0.218   0.088 -0.1119  0.2149 -0.5711
  848MOL0     O11839   1.638   0.181   0.043  0.2914  0.0384  0.5974
  848MOL0     C11840   1.526   0.139   0.127 -1.1173  0.2527 -0.0386
  848MOL0     C11841   1.493  -0.005   0.081 -0.6174 -0.5547  0.4706
  848MOL0     C11842   1.373  -0.058   0.151  0.3109 -0.1165 -0.5270
  848MOL0     C11843   1.293  -0.171   0.073  0.6273 -0.5499 -0.4729
  848MOL0     C11844   1.153  -0.174   0.124 -0.6045 -0.0239  0.5422
  848MOL0     C11845   1.069  -0.266   0.035  0.1870 -0.0128  0.0381
  848MOL0     C11846   1.087  -0.421   0.055 -0.8289  0.1967  0.1413
  848MOL0     C11847   1.076  -0.471   0.202  0.5114 -0.4205 -0.7555
  848MOL0    Cl11848   0.905  -0.457   0.267 -0.0378 -0.4628 -0.2618
  848MOL0     C11849   1.771   0.284   0.219 -0.5523  0.0775 -0.0138
  848MOL0     C11850   1.901   0.320   0.262 -0.3975  0.2443  0.1627
  848MOL0     O11851   2.215   0.157   0.288 -0.3963 -0.1102 -0.1078
  848MOL0     C11852   2.481   0.242   0.307  0.3148 -0.4378  0.3023
  848MOL0     C11853   2.608   0.309   0.319 -0.2300 -0.6492  0.7133
  848MOL0     N11854   3.335   0.550   0.236  0.6090  0.1758  0.6068
  848MOL0     N11855   3.430   0.530   0.323  0.4925  0.0200  0.8003
  848MOL0     C11856   4.206   0.065   1.122 -1.1977 -0.1318  0.0982
  848MOL0     C11857   4.298   0.055   1.224 -0.0580  0.3064  0.3441
  848MOL0     C11858   4.563   0.265   1.562 -0.0308  0.5830  0.8407
  848MOL0     C11859   4.554   0.371   1.661 -0.2437 -0.1766  0.1719
  848MOL0     C11860   4.671   0.423   1.716  0.4279 -0.0396  0.6340
  848MOL0     C11861   4.800   0.371   1.686  0.4930  0.6746 -0.6542
  848MOL0     O11862   4.921   0.419   1.737 -0.0604  0.6555  0.2347
  848MOL0     C11863   4.995   0.512   1.650  0.3210 -0.3029 -0.2497
  848MOL0     C11864   4.963   0.667   1.662 -0.1229 -0.1383 -0.1462
  848MOL0     C11865   5.022   0.752   1.546  0.5262 -0.2335  0.7650
  848MOL0     C11866   4.991   0.905   1.550  0.1056  0.1912 -0.2665
  848MOL0     C11867   4.846   0.932   1.542  0.8176  0.3078  0.1297
  848MOL0     C11868   4.725   0.953   1.520 -0.4596 -0.2997  0.2887
  848MOL0     C11869   4.805   0.267   1.589 -0.3814 -0.1497  0.2722
  848MOL0     C11870   4.686   0.216   1.527 -0.0667  0.1346 -0.1614
  848MOL0     H11871   4.372   0.375   1.256 -0.2981  1.2868 -0.0666
  848MOL0     H11872   4.187   0.400   1.075  0.2002  0.5491  1.2684
  848MOL0     H11873   3.969   0.028   1.039 -2.0146 -1.5768 -1.2663
  848MOL0     H11874   3.962   0.068   0.868 -1.3575 -0.8320  0.0242
  848MOL0     H11875   3.832   0.231   1.084 -1.7352 -0.5596  1.1641
  848MOL0     H11876   3.743   0.105   0.996 -2.6231  2.7651 -0.1904
  848MOL0     H11877   3.776   0.218   0.773  0.6647 -0.6164 -1.0468
  848MOL0     H11878   3.871   0.338   0.867  1.3246 -1.5443  0.7986
  848MOL0     H11879   3.612   0.275   0.999  0.5764  1.2622  0.4107
  848MOL0     H11880   3.688   0.429   0.960  0.2276  2.1528 -4.2488
  848MOL0     H11881   3.453   0.349   0.849 -0.1049  1.4507 -0.8027
  848MOL0     H11882   3.559   0.248   0.753  1.0335  0.7074 -0.8900
  848MOL0     H11883   3.666   0.439   0.647  0.0053 -0.6329  0.5368
  848MOL0     H11884   3.612   0.545   0.779  1.0832 -0.3874  1.4107
  848MOL0     H11885   3.423   0.410   0.578  0.2865  0.7778 -2.7588
  848MOL0     H11886   3.390   0.532   0.700 -0.0600  1.0617 -0.5017
  848MOL0     H11887   3.600   0.577   0.486 -1.4568 -3.6990  0.2064
  848MOL0     H11888   3.509   0.702   0.577  0.7342  0.0072  0.0429
  848MOL0     H11889   3.265   0.759   0.479 -1.5467  0.9617 -0.8425
  848MOL0     H11890   3.161   0.739   0.112  0.2644 -2.5948 -0.3124
  848MOL0     H11891   3.087   0.784   0.267 -1.0334 -0.0336 -1.1434
  848MOL0     H11892   3.071   0.507   0.141  1.3256  0.4875  0.8501
  848MOL0     H11893   2.949   0.623   0.140 -2.4662 -0.2533  3.0689
  848MOL0     H11894   3.062   0.493   0.397  0.0574  1.7538  1.2579
  848MOL0     H11895   2.975   0.645   0.394  1.1236 -0.9257  1.2689
  848MOL0     H11896   2.826   0.466   0.451 -2.0668  1.3343 -0.6061
  848MOL0     H11897   2.886   0.372   0.296  0.8194  1.1639 -1.5336
  848MOL0     H11898   2.538   0.612   0.181  1.8122  0.2398  3.6224
  848MOL0     H11899   2.316   0.502   0.162  1.9412 -1.0912 -2.2340
  848MOL0     H11900   2.080   0.226  -0.006 -1.7179  1.1512 -3.2259
  848MOL0     H11901   1.869   0.161  -0.092 -2.7177  2.7197 -0.4311
  848MOL0     H11902   1.434   0.194   0.103 -1.7257 -2.1336 -4.1274
  848MOL0     H11903   1.542   0.145   0.235 -1.1886  0.0550 -0.0178
  848MOL0     H11904   1.581  -0.069   0.096 -0.1592  0.0713  0.4652
  848MOL0     H11905   1.478  -0.008  -0.027  1.4617 -1.7429  0.1575
  848MOL0     H11906   1.305   0.026   0.167  1.2253  0.4303  0.6311
  848MOL0     H11907   1.401  -0.090   0.252 -1.3839  0.2434  0.0889
  848MOL0     H11908   1.280  -0.158  -0.035 -1.3397 -2.0755 -0.4766
  848MOL0     H11909   1.352  -0.259   0.101 -0.4436 -0.2252  3.2546
  848MOL0     H11910   1.111  -0.073   0.131 -0.5026 -0.0921  4.9207
  848MOL0     H11911   1.153  -0.211   0.227  0.9363  2.0680  1.3683
  848MOL0     H11912   1.096  -0.237  -0.067  0.0058 -2.8432 -0.8940
  848MOL0     H11913   0.964  -0.250   0.061 -0.3486  0.4638 -2.2289
  848MOL0     H11914   1.015  -0.479  -0.004 -1.4534 -1.4614  2.4079
  848MOL0     H11915   1.189  -0.448   0.025 -1.2488 -0.4023 -0.8166
  848MOL0     H11916   1.145  -0.422   0.271  0.7113 -2.1470  0.3170
  848MOL0     H11917   1.109  -0.575   0.200  1.3095 -0.1873 -0.0270
  848MOL0     H11918   1.683   0.301   0.281 -0.8763  0.1966 -0.5026
  848MOL0     H11919   1.918   0.375   0.354  0.8239  1.7755 -0.9338
  848MOL0     H11920   2.460   0.139   0.335 -1.3402  0.0852  1.1243
  848MOL0     H11921   2.691   0.244   0.345 -0.1738  0.0546  2.4521
  848MOL0     H11922   4.180  -0.035   1.088  0.0538  0.0515 -1.4997
  848MOL0     H11923   4.322  -0.047   1.251 -0.0409  0.0855 -0.4659
  848MOL0     H11924   4.461   0.422   1.684 -0.5703  0.0837 -1.5343
  848MOL0     H11925   4.664   0.501   1.791 -0.2900  1.6206 -1.0761
  848MOL0     H11926   4.967   0.495   1.546 -0.7864 -1.2546  0.1849
  848MOL0     H11927   5.102   0.489   1.652  0.5287  0.6209  0.2504
  848MOL0     H11928   4.856   0.684   1.646  0.0467  1.1631 -0.0147
  848MOL0     H11929   5.001   0.698   1.759 -0.0008 -1.9685  0.4366
  848MOL0     H11930   4.985   0.714   1.451  1.8387 -2.4078  1.0569
  848MOL0     H11931   5.131   0.747   1.545  0.5333 -0.3974  1.5079
  848MOL0     H11932   5.037   0.961   1.632 -2.2457  0.4712  0.9337
  848MOL0     H11933   5.039   0.936   1.457  0.2573  1.0563  0.0933
  848MOL0     H11934   4.627   0.994   1.507 -0.6663 -1.0311 -0.5803
  848MOL0     H11935   4.902   0.227   1.561  1.0049  3.5992 -0.9260
  848MOL0     H11936   4.688   0.155   1.437 -2.7401  1.7042 -1.4048
  849MOL0     O11937   0.920   0.552   7.848  0.1970 -0.6634 -0.5646
  849MOL0     C11938   0.922   0.495   7.742 -0.5171 -0.2325  0.1711
  849MOL0     O11939   0.819   0.477   7.658  0.3834 -0.6262 -1.5681
  849MOL0     C11940   0.695   0.541   7.663  0.1176 -0.3017  0.3948
  849MOL0     C11941   0.602   0.514   7.557 -0.4964  0.0161 -0.3951
  849MOL0     C11942   0.473   0.564   7.560  0.8904 -0.4806  0.2921
  849MOL0     C11943   0.430   0.659   7.656  0.5407  0.1506  0.1861
  849MOL0     O11944   0.299   0.697   7.646 -0.2859  0.0229  0.4972
  849MOL0     C11945   0.230   0.743   7.769 -0.8464  0.6829  0.4363
  849MOL0     C11946   0.078   0.752   7.766 -0.4656  0.6964  0.0772
  849MOL0     C11947   0.023   0.773   7.908  0.4811  0.1262 -0.4697
  849MOL0     C11948  -0.123   0.742   7.914  0.1582  0.2919  0.1926
  849MOL0     C11949  -0.196   0.777   8.035 -0.0584  0.0114 -0.3174
  849MOL0     C11950  -0.324   0.848   8.024  0.1052 -0.6811 -0.2238
  849MOL0     C11951  -0.434   0.772   7.964 -0.6632 -0.4519 -1.0499
  849MOL0     C11952  -0.540   0.874   7.909 -0.6164  0.1220 -0.4613
  849MOL0     N11953  -0.504   0.937   7.771 -0.6750  0.0445 -0.0936
  849MOL0     C11954  -0.456   0.857   7.672  1.3739  0.1208 -0.0413
  849MOL0     C11955  -0.390   0.944   7.596 -0.2094 -0.0499  0.1321
  849MOL0     C11956  -0.313   0.920   7.458  0.1208  0.4142  0.5228
  849MOL0     C11957  -0.167   0.904   7.483 -0.0648 -0.5862  0.2791
  849MOL0     C11958  -0.093   0.874   7.351  0.4661 -0.2476 -0.1425
  849MOL0     C11959   0.060   0.874   7.373  0.1601 -0.1182 -0.8816
  849MOL0     O11960   0.130   0.898   7.252 -0.0389 -0.1373 -0.6845
  849MOL0     C11961   0.256   0.854   7.242 -0.0919  0.2753  0.0627
  849MOL0     C11962   0.346   0.808   7.334  0.1421  0.5976  1.0542
  849MOL0     C11963   0.473   0.758   7.283  0.3161  0.4753  0.0740
  849MOL0     C11964   0.492   0.744   7.149 -0.8145  0.8245  0.2114
  849MOL0     C11965   0.605   0.657   7.109  0.9960  0.2848  1.2976
  849MOL0     O11966   0.701   0.642   7.206 -0.3252  0.3553  0.8804
  849MOL0     C11967   0.817   0.568   7.174  0.0404  0.7550 -0.6679
  849MOL0     C11968   0.840   0.456   7.252 -0.6329 -0.3707 -0.3736
  849MOL0     C11969   0.960   0.382   7.239  0.5346 -0.4421 -0.0147
  849MOL0     C11970   1.058   0.420   7.153  0.2906  0.4012  0.3577
  849MOL0     O11971   1.171   0.342   7.162 -0.8610  0.3336  0.6828
  849MOL0     C11972   1.281   0.350   7.062  0.6240  0.3025  0.0433
  849MOL0     C11973   1.377   0.225   7.082 -1.3769  0.3511 -0.5324
  849MOL0     C11974   1.530   0.275   7.093  1.1347 -0.3732  0.5335
  849MOL0     C11975   1.613   0.158   7.147  0.9460 -0.1463  0.2120
  849MOL0     C11976   1.761   0.169   7.141  0.2406 -0.5997  1.2443
  849MOL0     C11977   1.820   0.233   7.011 -0.1589  0.7572 -0.3204
  849MOL0     C11978   1.963   0.194   6.990 -0.6610 -0.5364  0.4482
  849MOL0     C11979   2.006   0.237   6.842 -1.2043 -0.4349  0.1191
  849MOL0    Cl11980   2.178   0.228   6.802  0.1336  0.0448  0.0049
  849MOL0     C11981   1.026   0.526   7.068 -0.4676 -0.9919 -0.3382
  849MOL0     C11982   0.908   0.600   7.080 -0.0769 -0.0133  0.8043
  849MOL0     O11983   0.617   0.622   6.989  1.1615 -0.2808  0.1940
  849MOL0     C11984   0.396   0.792   7.057 -0.4706  0.7608 -0.4710
  849MOL0     C11985   0.276   0.845   7.104  0.1848  0.1380 -0.2466
  849MOL0     N11986  -0.400   1.070   7.654  0.2876  0.0347  1.0834
  849MOL0     N11987  -0.470   1.062   7.747 -0.3645 -0.1352 -0.4185
  849MOL0     C11988   0.527   0.699   7.746 -0.4816 -0.3651  0.5611
  849MOL0     C11989   0.654   0.644   7.752 -1.3258  0.6238  0.5528
  849MOL0     C11990   1.047   0.426   7.687 -0.4742  0.2948 -0.8135
  849MOL0     C11991   1.163   0.429   7.764  0.7143 -0.0715  0.7891
  849MOL0     C11992   1.284   0.365   7.732 -0.5083 -0.0947  0.2216
  849MOL0     C11993   1.292   0.307   7.606  0.5074 -0.1109  0.0867
  849MOL0     O11994   1.409   0.248   7.571  0.1414  0.3967 -0.1625
  849MOL0     C11995   1.481   0.335   7.488 -0.1291 -0.1456  0.2488
  849MOL0     C11996   1.579   0.422   7.567  0.1396  0.7542  0.0005
  849MOL0     C11997   1.682   0.345   7.653  0.2962 -1.3752 -0.1934
  849MOL0     C11998   1.816   0.413   7.664  0.1928 -0.2154 -0.6615
  849MOL0     C11999   1.920   0.340   7.739  0.5241 -0.5062  0.8177
  849MOL0     C12000   1.996   0.267   7.799  0.3859 -0.2718 -1.3421
  849MOL0     C12001   1.174   0.305   7.526 -0.5781  0.4085 -0.5973
  849MOL0     C12002   1.051   0.360   7.566  0.6282 -0.4109 -0.4000
  849MOL0     H12003   0.616   0.436   7.483  1.1299 -1.8947  1.7935
  849MOL0     H12004   0.408   0.526   7.481  2.8960  1.8878 -2.7489
  849MOL0     H12005   0.271   0.843   7.786 -2.2886  0.9184  3.0092
  849MOL0     H12006   0.270   0.676   7.845  0.6397  0.1240 -0.7743
  849MOL0     H12007   0.033   0.664   7.720 -1.5613  1.5378 -0.5347
  849MOL0     H12008   0.052   0.845   7.714 -0.9922  2.5809  3.4656
  849MOL0     H12009   0.033   0.873   7.950  5.1311 -0.5228  0.5412
  849MOL0     H12010   0.072   0.712   7.985 -1.5377 -0.0426  0.7447
  849MOL0     H12011  -0.177   0.789   7.831  1.3419 -1.9693 -2.0198
  849MOL0     H12012  -0.132   0.634   7.894  2.6298 -0.1497  1.0801
  849MOL0     H12013  -0.129   0.838   8.097 -0.0999 -2.2646  2.1248
  849MOL0     H12014  -0.212   0.683   8.087 -0.0280 -0.1594 -0.6158
  849MOL0     H12015  -0.306   0.941   7.968 -3.1429  0.0303 -0.2568
  849MOL0     H12016  -0.350   0.877   8.127  0.7181  0.3689 -0.3427
  849MOL0     H12017  -0.404   0.712   7.878 -0.7673  0.5365 -1.7950
  849MOL0     H12018  -0.480   0.707   8.040  0.9902 -2.1800 -1.4555
  849MOL0     H12019  -0.564   0.957   7.976  1.3157  0.5515 -0.2392
  849MOL0     H12020  -0.636   0.822   7.906 -1.1510  0.7822  2.4398
  849MOL0     H12021  -0.479   0.754   7.647 -0.3323 -0.0850  2.1026
  849MOL0     H12022  -0.338   1.010   7.400 -0.0272  2.1875  3.1544
  849MOL0     H12023  -0.351   0.823   7.424 -2.3115  0.3939  2.9582
  849MOL0     H12024  -0.146   0.823   7.553 -1.7083 -0.0938  1.3931
  849MOL0     H12025  -0.126   0.997   7.523  4.1458 -0.6763 -3.1224
  849MOL0     H12026  -0.131   0.784   7.302  2.6257 -1.0366 -0.5089
  849MOL0     H12027  -0.103   0.959   7.283  1.1256 -1.0361 -1.2669
  849MOL0     H12028   0.092   0.777   7.414  1.7477 -0.1823 -2.1460
  849MOL0     H12029   0.093   0.953   7.442  0.1422  0.0463 -1.0612
  849MOL0     H12030   0.335   0.800   7.442  0.4782 -3.8283  0.9619
  849MOL0     H12031   0.536   0.704   7.352 -0.8323  1.9737  2.4157
  849MOL0     H12032   0.761   0.420   7.317  0.7985 -2.6094  0.2360
  849MOL0     H12033   0.975   0.293   7.300 -2.6907  0.1126  1.7745
  849MOL0     H12034   1.328   0.448   7.074 -2.8305  2.4290 -2.2235
  849MOL0     H12035   1.232   0.353   6.964  0.3928 -3.5862 -0.1213
  849MOL0     H12036   1.373   0.171   6.987 -1.1450 -0.2806 -0.1895
  849MOL0     H12037   1.353   0.161   7.168 -1.7103  1.6964  0.4121
  849MOL0     H12038   1.537   0.353   7.170  1.2145  1.3229 -1.1193
  849MOL0     H12039   1.566   0.304   6.994  0.9961  0.4797  0.7260
  849MOL0     H12040   1.576   0.154   7.250  2.1623  1.4662  0.7460
  849MOL0     H12041   1.585   0.065   7.095  2.5385 -2.1179  2.6437
  849MOL0     H12042   1.790   0.064   7.146  2.6145 -0.2458 -1.9288
  849MOL0     H12043   1.802   0.228   7.224  0.9175  0.4022  0.2242
  849MOL0     H12044   1.813   0.343   7.016 -1.8200  0.7294  5.5649
  849MOL0     H12045   1.750   0.208   6.931 -0.9565 -1.6961  1.0407
  849MOL0     H12046   2.030   0.252   7.054  0.5174  0.9715 -2.0030
  849MOL0     H12047   1.984   0.089   7.010  3.1017 -0.2041 -0.9726
  849MOL0     H12048   1.990   0.344   6.825  0.2481 -0.3888 -1.0768
  849MOL0     H12049   1.951   0.180   6.766 -0.7280 -2.4534  1.2001
  849MOL0     H12050   1.098   0.553   6.992 -1.2867 -1.2332 -1.2161
  849MOL0     H12051   0.889   0.691   7.023 -1.6620 -1.8914 -1.9074
  849MOL0     H12052   0.405   0.789   6.949 -0.6135 -2.2071 -0.4958
  849MOL0     H12053   0.199   0.871   7.032 -2.6661 -1.2002  2.1149
  849MOL0     H12054   0.503   0.779   7.816  4.1085  0.2294  1.7594
  849MOL0     H12055   0.720   0.677   7.832  2.5669 -1.4437 -1.5317
  849MOL0     H12056   1.155   0.503   7.844 -0.1709  3.7090 -2.4970
  849MOL0     H12057   1.371   0.382   7.794 -1.5904 -1.9404  2.3888
  849MOL0     H12058   1.426   0.409   7.430 -2.2898 -2.3573 -0.6906
  849MOL0     H12059   1.540   0.276   7.418  0.9285 -0.6814  1.5284
  849MOL0     H12060   1.629   0.474   7.485 -0.7093 -0.9576 -1.6984
  849MOL0     H12061   1.528   0.488   7.637  0.1323  0.0981  0.6221
  849MOL0     H12062   1.705   0.247   7.609  4.2744 -0.0075 -1.6665
  849MOL0     H12063   1.645   0.314   7.751  3.0196 -1.6110  0.8688
  849MOL0     H12064   1.845   0.430   7.559  1.0241 -0.2464 -0.4439
  849MOL0     H12065   1.806   0.512   7.709  2.2382 -0.8346  1.3366
  849MOL0     H12066   2.063   0.190   7.832 -0.5659 -0.0128  1.4049
  849MOL0     H12067   1.164   0.252   7.432 -0.0062  0.2593 -0.5831
  849MOL0     H12068   0.959   0.346   7.510  0.8658 -0.5731 -0.7599
  850MOL0     O12069  10.905   7.914   8.556 -0.2536 -0.2772 -0.4500
  850MOL0     C12070  10.945   7.938   8.672 -0.5099  0.9922 -0.2866
  850MOL0     O12071  10.864   7.996   8.778  0.1498  0.4468  0.0597
  850MOL0     C12072  10.749   8.057   8.739 -0.3613 -0.0006 -0.5407
  850MOL0     C12073  10.635   7.985   8.710 -0.6662  0.6784 -0.1218
  850MOL0     C12074  10.518   8.057   8.667 -0.9856  0.8218  0.3926
  850MOL0     C12075  10.520   8.194   8.662  0.3091  1.2666  0.0791
  850MOL0     O12076  10.405   8.251   8.613  0.4125  0.1234  0.0526
  850MOL0     C12077  10.414   8.359   8.534 -0.5758  0.1974 -0.3941
  850MOL0     C12078  10.265   8.404   8.487  0.7031  0.2035 -0.0521
  850MOL0     C12079  10.215   8.310   8.370  0.5937 -0.2491  0.8207
  850MOL0     C12080  10.069   8.305   8.329  0.1641  0.0400  0.0335
  850MOL0     C12081   9.973   8.258   8.442 -0.3623  0.1410 -1.7227
  850MOL0     C12082   9.823   8.284   8.419 -0.6211 -0.2911  0.0720
  850MOL0     C12083   9.742   8.210   8.520  0.8828 -0.5150 -0.4215
  850MOL0     C12084   9.598   8.194   8.483  0.4388  0.7242 -0.0690
  850MOL0     N12085   9.512   8.295   8.533 -0.0710 -0.8241  0.4543
  850MOL0     C12086   9.498   8.419   8.477  0.1352  0.2953 -0.2203
  850MOL0     C12087   9.428   8.497   8.572 -0.5243 -0.8670  0.2736
  850MOL0     C12088   9.367   8.638   8.569 -0.3293  0.3748 -0.2685
  850MOL0     C12089   9.463   8.739   8.508 -0.2993 -0.0728 -0.2347
  850MOL0     C12090   9.397   8.864   8.452  0.2386  0.4942  0.5848
  850MOL0     C12091   9.496   8.972   8.437 -1.0659  0.4156 -0.6744
  850MOL0     O12092   9.443   9.069   8.356  0.0483 -0.0366  0.8347
  850MOL0     C12093   9.337   9.145   8.406 -0.4541  0.7005 -0.2861
  850MOL0     C12094   9.294   9.143   8.538  0.4166 -0.3784  0.5698
  850MOL0     C12095   9.168   9.210   8.570 -0.0368  0.2199  0.2233
  850MOL0     C12096   9.108   9.289   8.468 -0.7234  0.1843  0.5127
  850MOL0     C12097   8.979   9.360   8.490  0.7768  0.1996  0.7916
  850MOL0     O12098   8.952   9.482   8.425  0.2413 -0.1713 -1.0303
  850MOL0     C12099   8.824   9.541   8.435  0.0162 -0.6056 -0.0932
  850MOL0     C12100   8.704   9.488   8.423 -0.6835  0.4517 -0.1304
  850MOL0     C12101   8.586   9.559   8.452 -0.7389  0.3791 -0.0024
  850MOL0     C12102   8.598   9.699   8.477  0.1521  1.2019  0.3066
  850MOL0     O12103   8.484   9.767   8.488  0.1854 -0.0732 -0.0537
  850MOL0     C12104   8.356   9.709   8.520 -0.3565  0.7336  0.1013
  850MOL0     C12105   8.259   9.820   8.520 -0.1347 -0.3244  0.2117
  850MOL0     C12106   8.117   9.778   8.565  0.3339 -0.9609 -0.5621
  850MOL0     C12107   8.009   9.895   8.559 -0.7520  0.1783  0.0165
  850MOL0     C12108   7.878   9.845   8.616 -0.2839 -0.5417  0.1629
  850MOL0     C12109   7.786   9.963   8.647 -0.6061  0.0724 -0.0573
  850MOL0     C12110   7.647   9.914   8.692  0.5514  0.4665 -0.2319
  850MOL0     C12111   7.531  10.002   8.657 -0.1472 -0.7791  0.3175
  850MOL0    Cl12112   7.534  10.154   8.726  0.0660 -0.7458 -0.0601
  850MOL0     C12113   8.723   9.754   8.504  0.6279  0.4874  0.4915
  850MOL0     C12114   8.832   9.673   8.478 -0.9396  0.7952  0.3637
  850MOL0     O12115   8.897   9.297   8.565 -0.8270 -0.2548  0.2402
  850MOL0     C12116   9.163   9.303   8.341  0.4435 -0.5073 -0.4701
  850MOL0     C12117   9.278   9.238   8.313  0.1520 -0.5897  0.1647
  850MOL0     N12118   9.399   8.414   8.675 -0.2502  0.2189  1.4269
  850MOL0     N12119   9.444   8.289   8.653 -0.3709 -0.0483  0.0770
  850MOL0     C12120  10.630   8.267   8.710  0.2394  1.7351 -0.3520
  850MOL0     C12121  10.749   8.198   8.733 -1.2011 -0.1525 -0.4078
  850MOL0     C12122  11.087   7.909   8.710  0.5191  0.0866 -0.5173
  850MOL0     C12123  11.165   7.824   8.634  0.5663  0.0658 -0.3938
  850MOL0     C12124  11.304   7.809   8.657  0.5145  0.0885 -0.3316
  850MOL0     C12125  11.363   7.884   8.757  0.0777  1.0862 -0.0585
  850MOL0     O12126  11.497   7.905   8.769 -0.2241  0.0873  0.3900
  850MOL0     C12127  11.585   7.879   8.663 -0.5783 -0.9995 -0.6241
  850MOL0     C12128  11.716   7.956   8.694 -1.0025 -0.5752 -0.1386
  850MOL0     C12129  11.705   8.109   8.664 -0.3734  0.3186  0.0675
  850MOL0     C12130  11.807   8.187   8.747 -0.1749  0.6737 -0.5359
  850MOL0     C12131  11.932   8.185   8.676  0.0072  0.3951  0.2994
  850MOL0     C12132  12.025   8.154   8.612  0.0553 -0.4824 -0.1042
  850MOL0     C12133  11.283   7.960   8.840  0.6791  0.7382 -0.1031
  850MOL0     C12134  11.147   7.980   8.808  0.3416 -0.4446 -0.4161
  850MOL0     H12135  10.637   7.876   8.718  1.0056  0.6946 -0.0630
  850MOL0     H12136  10.428   8.003   8.638 -0.3445 -0.3600  0.5723
  850MOL0     H12137  10.485   8.345   8.451 -2.0356 -0.2218 -1.6101
  850MOL0     H12138  10.449   8.449   8.586 -0.7993  0.0627 -0.0124
  850MOL0     H12139  10.258   8.509   8.458 -0.6538  0.2447  0.3460
  850MOL0     H12140  10.201   8.392   8.576 -0.0758  1.0040 -0.4892
  850MOL0     H12141  10.230   8.206   8.401  1.0557 -0.9424 -1.5307
  850MOL0     H12142  10.270   8.329   8.278  1.9660  2.8950  2.1669
  850MOL0     H12143  10.045   8.409   8.304 -0.7586  0.0877  1.0567
  850MOL0     H12144  10.052   8.254   8.234  0.5702  2.5253 -1.4735
  850MOL0     H12145  10.005   8.294   8.540  2.5986 -0.0465 -2.5139
  850MOL0     H12146   9.986   8.149   8.447  2.5280  0.3890 -1.8959
  850MOL0     H12147   9.796   8.252   8.318 -1.1341 -0.1934  0.1756
  850MOL0     H12148   9.807   8.392   8.423 -0.5342 -0.3216  2.5016
  850MOL0     H12149   9.781   8.107   8.525 -2.9602 -2.1079  0.4384
  850MOL0     H12150   9.770   8.255   8.616  0.9705 -2.2143  0.3937
  850MOL0     H12151   9.571   8.099   8.530 -1.0145  0.6568 -0.9848
  850MOL0     H12152   9.589   8.185   8.375 -0.7900  2.0433 -0.1081
  850MOL0     H12153   9.541   8.445   8.380  1.3547  1.7444  0.6692
  850MOL0     H12154   9.352   8.671   8.673  0.0257 -0.5517  0.0818
  850MOL0     H12155   9.266   8.634   8.528 -0.1011  2.6418 -1.1958
  850MOL0     H12156   9.512   8.688   8.425  1.1312 -1.5462  1.4144
  850MOL0     H12157   9.547   8.763   8.575 -1.0118 -1.5609  1.2790
  850MOL0     H12158   9.343   8.847   8.358 -2.2949 -1.9367  2.3368
  850MOL0     H12159   9.332   8.892   8.535 -1.5600  1.3438 -1.0139
  850MOL0     H12160   9.589   8.939   8.390 -0.5215  1.9821 -0.7628
  850MOL0     H12161   9.527   9.015   8.533 -2.3579  1.7590 -0.8415
  850MOL0     H12162   9.343   9.092   8.620  0.2498 -2.3474 -0.4813
  850MOL0     H12163   9.129   9.209   8.671  0.4419  2.0343  0.4625
  850MOL0     H12164   8.688   9.386   8.388 -1.7555  0.1414  1.1771
  850MOL0     H12165   8.493   9.510   8.427 -1.0632  0.9020  0.1511
  850MOL0     H12166   8.355   9.673   8.624  2.4699  2.9073  1.0309
  850MOL0     H12167   8.330   9.643   8.437 -0.8077  0.1735  0.6823
  850MOL0     H12168   8.253   9.847   8.414 -0.2635 -2.5749 -0.3924
  850MOL0     H12169   8.300   9.909   8.570 -1.8765  0.7908 -0.2367
  850MOL0     H12170   8.122   9.750   8.670  1.7988  1.6512  0.1511
  850MOL0     H12171   8.078   9.687   8.519 -2.9172  0.8130 -1.6396
  850MOL0     H12172   8.062   9.965   8.625  3.9593 -2.1958 -0.7688
  850MOL0     H12173   7.985   9.935   8.459 -0.5552 -1.0063 -0.5147
  850MOL0     H12174   7.876   9.798   8.715 -1.0185  1.5733  1.2192
  850MOL0     H12175   7.834   9.769   8.550 -2.3195 -0.0419  0.8851
  850MOL0     H12176   7.775  10.036   8.566  1.1011  3.3816  2.4358
  850MOL0     H12177   7.838  10.025   8.721 -3.6730  3.1992 -0.2466
  850MOL0     H12178   7.632   9.810   8.661 -1.1332  0.7025 -0.2683
  850MOL0     H12179   7.650   9.903   8.800 -1.4603 -2.9658 -0.3689
  850MOL0     H12180   7.439   9.961   8.699 -1.5227  1.5927 -0.2029
  850MOL0     H12181   7.515  10.010   8.549 -0.2252 -0.2311  0.3704
  850MOL0     H12182   8.732   9.861   8.523  2.2646  0.6497 -0.8978
  850MOL0     H12183   8.929   9.721   8.489  0.5580 -1.7047 -0.9379
  850MOL0     H12184   9.122   9.364   8.261  1.7320 -1.8441 -2.2489
  850MOL0     H12185   9.320   9.238   8.213 -0.2584  0.1915 -0.0118
  850MOL0     H12186  10.633   8.375   8.722  1.3691  1.5523  1.3561
  850MOL0     H12187  10.833   8.257   8.767 -3.4507  2.6658  0.7203
  850MOL0     H12188  11.128   7.781   8.541  0.8676 -0.1442 -0.4180
  850MOL0     H12189  11.359   7.748   8.586 -0.2545 -0.5924 -0.3522
  850MOL0     H12190  11.545   7.918   8.569  0.0096  1.3025  0.0359
  850MOL0     H12191  11.604   7.771   8.655 -2.0707 -1.2077 -1.9332
  850MOL0     H12192  11.740   7.949   8.801  0.3104  3.7271  0.0302
  850MOL0     H12193  11.796   7.907   8.639  0.4416  0.9546  0.5028
  850MOL0     H12194  11.609   8.153   8.691 -1.1888 -1.9087  1.0234
  850MOL0     H12195  11.724   8.128   8.558  0.2399 -4.8068 -1.0423
  850MOL0     H12196  11.773   8.289   8.769  2.5223  1.4263  0.5430
  850MOL0     H12197  11.826   8.143   8.845 -0.3789 -1.7528 -1.5224
  850MOL0     H12198  12.121   8.155   8.565  0.6755  0.8302  1.1018
  850MOL0     H12199  11.323   8.029   8.914 -0.1260  1.2190 -0.1085
  850MOL0     H12200  11.085   8.042   8.872 -2.0830 -3.6794  0.6042
  851MOL0     O12201   2.605   3.784   3.674 -0.0694 -0.5008  0.5363
  851MOL0     C12202   2.601   3.717   3.773 -0.4568 -0.0226  0.1516
  851MOL0     O12203   2.484   3.665   3.826  0.0047 -0.8084 -0.1467
  851MOL0     C12204   2.367   3.681   3.762 -0.8150 -0.2398 -0.6022
  851MOL0     C12205   2.306   3.808   3.743 -0.3429  0.2725 -0.1069
  851MOL0     C12206   2.184   3.811   3.672 -0.2379 -0.5989  0.7311
  851MOL0     C12207   2.127   3.706   3.620  0.7984  0.1166 -0.4408
  851MOL0     O12208   2.012   3.722   3.547  0.2452 -0.7518  0.8059
  851MOL0     C12209   1.969   3.607   3.461  0.1073  0.3190 -0.8606
  851MOL0     C12210   1.829   3.633   3.388 -0.7639 -0.3208 -0.1486
  851MOL0     C12211   1.710   3.590   3.480  0.1344 -0.6639 -0.9436
  851MOL0     C12212   1.581   3.633   3.409 -0.0166  0.4196  0.0651
  851MOL0     C12213   1.446   3.607   3.490 -0.5192  0.4789 -0.5510
  851MOL0     C12214   1.332   3.665   3.406  0.5752 -0.1754 -0.8920
  851MOL0     C12215   1.210   3.667   3.484  0.6535 -0.3182 -0.0253
  851MOL0     C12216   1.093   3.725   3.398 -0.7492  1.5028  0.4841
  851MOL0     N12217   0.971   3.746   3.488 -0.2496  0.3472  0.5785
  851MOL0     C12218   0.886   3.644   3.540  0.1100  0.3967  0.3220
  851MOL0     C12219   0.770   3.709   3.576  0.2837  0.8784  0.0898
  851MOL0     C12220   0.639   3.634   3.595  0.2340 -0.3997  0.3137
  851MOL0     C12221   0.551   3.653   3.470  0.1247  0.1939 -0.4912
  851MOL0     C12222   0.447   3.542   3.449 -0.3887 -0.5903 -0.9171
  851MOL0     C12223   0.370   3.562   3.322  0.4374  0.5190 -0.3491
  851MOL0     O12224   0.285   3.446   3.297 -0.8170 -0.0363  0.1083
  851MOL0     C12225   0.154   3.452   3.325 -0.1621 -0.2420  0.6876
  851MOL0     C12226   0.085   3.566   3.371  1.0570 -1.0434  0.6981
  851MOL0     C12227  -0.056   3.569   3.370 -0.1230 -0.0285 -0.8350
  851MOL0     C12228  -0.121   3.455   3.328 -0.8247 -1.0748 -0.2437
  851MOL0     C12229  -0.266   3.456   3.336 -0.6099 -0.3922 -0.2455
  851MOL0     O12230  -0.320   3.347   3.282 -0.4902  0.7579 -1.2582
  851MOL0     C12231  -0.456   3.333   3.252  0.4693  0.3828  0.7524
  851MOL0     C12232  -0.491   3.194   3.254  1.0512  0.3198  0.7598
  851MOL0     C12233  -0.629   3.158   3.239 -0.6522 -0.9129  0.6130
  851MOL0     C12234  -0.725   3.254   3.211 -0.0985  0.0238  0.5357
  851MOL0     O12235  -0.854   3.208   3.222 -0.4775 -0.1097  0.4863
  851MOL0     C12236  -0.958   3.267   3.140 -0.0147 -0.4701 -0.0405
  851MOL0     C12237  -1.066   3.172   3.108  0.3231 -1.0329  0.6514
  851MOL0     C12238  -1.170   3.224   3.008  0.1390 -0.0303  0.6646
  851MOL0     C12239  -1.282   3.288   3.087 -1.2753  0.2018 -0.7266
  851MOL0     C12240  -1.359   3.379   2.998  0.3899 -0.1785 -0.3580
  851MOL0     C12241  -1.464   3.462   3.080 -0.2601 -0.1780 -0.1659
  851MOL0     C12242  -1.536   3.558   2.978 -0.2480 -0.0176 -0.2504
  851MOL0     C12243  -1.629   3.663   3.052 -0.4513  0.2190  0.0076
  851MOL0    Cl12244  -1.751   3.572   3.148 -0.0682  0.3191  0.3224
  851MOL0     C12245  -0.699   3.390   3.217  0.6632 -0.3808  0.3822
  851MOL0     C12246  -0.566   3.425   3.244 -0.4915  0.3099 -0.6525
  851MOL0     O12247  -0.335   3.548   3.382  0.4103  0.2584 -0.4098
  851MOL0     C12248  -0.053   3.336   3.291 -0.6293 -0.5628  0.4132
  851MOL0     C12249   0.081   3.332   3.295  0.7872 -0.1404 -0.4493
  851MOL0     N12250   0.800   3.842   3.570  0.1947 -0.1394 -0.6694
  851MOL0     N12251   0.909   3.867   3.502  0.5257  0.0116 -0.0538
  851MOL0     C12252   2.196   3.585   3.628 -0.5469 -0.3517 -0.0940
  851MOL0     C12253   2.314   3.575   3.693 -0.0642  0.2254  0.0426
  851MOL0     C12254   2.714   3.736   3.876  0.1282  0.2921  0.6685
  851MOL0     C12255   2.688   3.737   4.016 -0.6794  0.7631 -0.5836
  851MOL0     C12256   2.794   3.762   4.100  0.0621  0.7715 -0.3028
  851MOL0     C12257   2.924   3.769   4.045  0.0560  0.8484  0.5634
  851MOL0     O12258   3.019   3.786   4.143  0.7020 -0.4902 -0.1998
  851MOL0     C12259   3.159   3.815   4.124 -0.8472 -0.9298  0.8565
  851MOL0     C12260   3.247   3.830   4.258 -0.2723 -0.8846  0.4159
  851MOL0     C12261   3.216   3.716   4.353  0.3143 -0.0232  0.2823
  851MOL0     C12262   3.290   3.749   4.482 -0.1357 -0.1345 -0.2827
  851MOL0     C12263   3.436   3.748   4.453  0.0022 -0.2647  0.6779
  851MOL0     C12264   3.556   3.735   4.445  0.1091  0.4419 -0.0562
  851MOL0     C12265   2.943   3.765   3.908 -0.7610  0.5879  0.2242
  851MOL0     C12266   2.847   3.736   3.819 -0.2439 -0.3219  0.2378
  851MOL0     H12267   2.341   3.896   3.796 -1.1948  0.4004  0.2478
  851MOL0     H12268   2.139   3.908   3.655 -0.2078 -0.7265 -0.0832
  851MOL0     H12269   1.955   3.520   3.525  1.6707  2.1125  2.1870
  851MOL0     H12270   2.049   3.585   3.389  1.4787  4.2664 -0.8042
  851MOL0     H12271   1.826   3.587   3.289  1.2130 -2.6341  0.7523
  851MOL0     H12272   1.831   3.737   3.356 -2.6245 -0.0162  0.6356
  851MOL0     H12273   1.716   3.636   3.580  1.3574 -0.6618 -1.0004
  851MOL0     H12274   1.701   3.481   3.485  0.1824 -0.6910 -1.4254
  851MOL0     H12275   1.590   3.738   3.378  0.7226  1.1240  2.4060
  851MOL0     H12276   1.585   3.577   3.315  0.0936 -2.0328  1.4390
  851MOL0     H12277   1.448   3.632   3.597 -2.4675  0.9029 -0.5801
  851MOL0     H12278   1.432   3.498   3.487 -2.8925  0.7667 -2.2568
  851MOL0     H12279   1.319   3.596   3.322 -0.8203  0.9753 -1.6503
  851MOL0     H12280   1.364   3.761   3.365  1.3329 -0.6223 -1.3718
  851MOL0     H12281   1.201   3.563   3.518 -0.2449 -1.4692 -3.3833
  851MOL0     H12282   1.222   3.735   3.569  0.3713  0.4516 -0.5870
  851MOL0     H12283   1.072   3.651   3.321  3.2780 -2.8836  3.1071
  851MOL0     H12284   1.119   3.822   3.354 -1.2908  1.9806  1.1772
  851MOL0     H12285   0.893   3.536   3.532 -0.0616  0.3755  0.4680
  851MOL0     H12286   0.582   3.671   3.681 -1.7071  0.4662 -1.2655
  851MOL0     H12287   0.659   3.529   3.621  2.1443 -0.4149 -1.0516
  851MOL0     H12288   0.614   3.670   3.382 -0.8241  2.7565 -0.7641
  851MOL0     H12289   0.498   3.748   3.467 -1.2837 -0.5798 -0.8138
  851MOL0     H12290   0.500   3.447   3.442 -1.7085 -1.4907  0.7278
  851MOL0     H12291   0.399   3.528   3.546  0.3473 -0.1115 -0.4680
  851MOL0     H12292   0.440   3.567   3.238  0.2979  1.3837 -0.4261
  851MOL0     H12293   0.325   3.662   3.317 -0.8532 -0.0600 -0.5943
  851MOL0     H12294   0.129   3.662   3.395 -0.6527  0.0853 -0.4290
  851MOL0     H12295  -0.103   3.655   3.417  1.1158  0.4411 -0.3983
  851MOL0     H12296  -0.416   3.118   3.275  0.0696 -1.0929 -0.6068
  851MOL0     H12297  -0.638   3.051   3.256  1.1876 -1.4116 -1.1407
  851MOL0     H12298  -0.910   3.307   3.050  3.1348 -0.6580  1.4327
  851MOL0     H12299  -1.010   3.349   3.191 -3.0275 -2.6352  0.6354
  851MOL0     H12300  -1.114   3.139   3.201 -1.6621  1.3207  0.5420
  851MOL0     H12301  -1.026   3.081   3.061  2.1334 -0.7070  1.4595
  851MOL0     H12302  -1.210   3.139   2.952  1.2269 -2.2679  3.0574
  851MOL0     H12303  -1.115   3.292   2.942  0.7922  0.3321  1.5612
  851MOL0     H12304  -1.344   3.208   3.126 -1.0206 -0.1895 -1.1200
  851MOL0     H12305  -1.234   3.339   3.171  1.2893  1.2580 -2.6641
  851MOL0     H12306  -1.415   3.318   2.926 -0.1617  0.7183 -0.7086
  851MOL0     H12307  -1.289   3.443   2.943  2.4337 -2.0967 -0.1171
  851MOL0     H12308  -1.405   3.515   3.156  2.2722  0.5504 -2.4821
  851MOL0     H12309  -1.535   3.402   3.138 -2.5168  2.0740 -0.4158
  851MOL0     H12310  -1.464   3.606   2.911 -2.6281  2.6321 -1.1205
  851MOL0     H12311  -1.601   3.499   2.913 -0.3913  0.0518 -0.1685
  851MOL0     H12312  -1.686   3.725   2.982 -1.3286 -0.5905 -0.0166
  851MOL0     H12313  -1.574   3.733   3.115  0.1727 -0.2166 -0.0397
  851MOL0     H12314  -0.784   3.458   3.214  0.6086 -0.4670 -1.3946
  851MOL0     H12315  -0.549   3.531   3.263  0.2797  0.4720 -2.0611
  851MOL0     H12316  -0.107   3.247   3.260 -1.1668  0.0698 -0.5309
  851MOL0     H12317   0.128   3.237   3.271 -1.0971 -1.1186 -0.4380
  851MOL0     H12318   2.162   3.498   3.572  1.1406 -0.7300 -0.6164
  851MOL0     H12319   2.368   3.481   3.691 -0.3198  0.0788 -0.2586
  851MOL0     H12320   2.590   3.717   4.058 -1.0498  1.7354 -0.9556
  851MOL0     H12321   2.774   3.777   4.205 -1.5870  0.7387 -0.5962
  851MOL0     H12322   3.167   3.902   4.057  0.8512 -1.9301 -0.3327
  851MOL0     H12323   3.193   3.730   4.064 -1.2795 -1.5513  1.4876
  851MOL0     H12324   3.353   3.820   4.235  0.5335  0.6794  3.0012
  851MOL0     H12325   3.239   3.929   4.304 -0.5686 -0.0682 -1.3179
  851MOL0     H12326   3.247   3.615   4.324  0.6445 -0.3475  1.6586
  851MOL0     H12327   3.107   3.716   4.368  0.1940  1.7624 -0.3446
  851MOL0     H12328   3.265   3.853   4.508 -2.0032 -0.8284  0.8421
  851MOL0     H12329   3.276   3.683   4.568  1.5121  0.6277  0.6067
  851MOL0     H12330   3.659   3.703   4.448  0.3206  0.9197 -1.4936
  851MOL0     H12331   3.045   3.776   3.873 -0.5647 -2.0395 -0.2443
  851MOL0     H12332   2.854   3.710   3.714  1.2717 -3.4701  1.0003
  852MOL0     O12333   8.940   0.849   0.240 -0.7751  0.1122 -0.4426
  852MOL0     C12334   8.979   0.958   0.275  0.0052 -0.6411  0.7706
  852MOL0     O12335   8.893   1.062   0.302 -0.0893  0.0863  0.1552
  852MOL0     C12336   8.754   1.046   0.312 -0.5667 -0.2769  0.3176
  852MOL0     C12337   8.674   0.934   0.325 -0.2397 -0.7007  0.7627
  852MOL0     C12338   8.534   0.946   0.347 -0.2123  0.0694 -0.3653
  852MOL0     C12339   8.471   1.071   0.357 -0.1854 -0.3246  0.3114
  852MOL0     O12340   8.331   1.087   0.369 -0.4149  0.5535  0.3210
  852MOL0     C12341   8.263   1.011   0.267 -1.6699  0.3448 -0.3567
  852MOL0     C12342   8.113   1.058   0.259  0.4155  0.5609  0.2251
  852MOL0     C12343   8.021   0.990   0.153 -0.0019 -0.1913 -0.3101
  852MOL0     C12344   7.892   1.058   0.131  0.1876  0.0953 -0.2497
  852MOL0     C12345   7.770   0.975   0.070 -0.4582  0.5772 -0.6932
  852MOL0     C12346   7.643   1.072   0.080  0.0637 -0.4215  1.2471
  852MOL0     C12347   7.519   0.993   0.033 -0.1895 -0.1348 -0.1252
  852MOL0     C12348   7.486   0.854   0.094 -0.5922 -0.3483 -0.5711
  852MOL0     N12349   7.342   0.835   0.099  0.4728 -0.0169 -0.3879
  852MOL0     C12350   7.267   0.772   0.012  1.1713  0.2425  0.3147
  852MOL0     C12351   7.137   0.793   0.052 -0.8429  0.1239  0.4608
  852MOL0     C12352   7.018   0.726  -0.006  0.0766 -0.1509  0.8161
  852MOL0     C12353   6.880   0.756   0.068 -0.1403 -0.2016 -0.3517
  852MOL0     C12354   6.818   0.879   0.020  0.3733 -0.1127  0.6068
  852MOL0     C12355   6.683   0.906   0.074  0.2949  0.4569 -0.1014
  852MOL0     O12356   6.582   0.824   0.009 -0.0266 -0.7059  0.2708
  852MOL0     C12357   6.451   0.845   0.028  0.2604 -0.1869 -0.7204
  852MOL0     C12358   6.403   0.958   0.098  0.5729 -0.5917  1.5846
  852MOL0     C12359   6.265   0.962   0.112 -0.0439  0.2612  0.0025
  852MOL0     C12360   6.172   0.860   0.081 -0.5617  0.2575 -0.1062
  852MOL0     C12361   6.031   0.864   0.114 -0.1548  0.8078 -0.6731
  852MOL0     O12362   5.950   0.789   0.034 -0.0360 -0.3747 -0.7833
  852MOL0     C12363   5.820   0.819   0.017  0.8059  0.7586  0.1843
  852MOL0     C12364   5.753   0.748  -0.091  0.2213  0.4168  0.7503
  852MOL0     C12365   5.620   0.779  -0.132  1.1118  0.2894  0.1235
  852MOL0     C12366   5.541   0.858  -0.054 -0.3553  0.2282  0.1157
  852MOL0     O12367   5.408   0.881  -0.093 -0.0442 -0.0813  0.8314
  852MOL0     C12368   5.324   0.772  -0.137 -0.9750 -0.6966 -0.4261
  852MOL0     C12369   5.188   0.810  -0.193 -0.2968 -0.0402 -0.4555
  852MOL0     C12370   5.124   0.689  -0.274  0.8238 -0.4325  0.2363
  852MOL0     C12371   4.978   0.694  -0.301  0.2171 -0.0834 -0.2062
  852MOL0     C12372   4.917   0.810  -0.396 -0.3505  0.3884  0.7189
  852MOL0     C12373   4.775   0.823  -0.367  0.5080 -0.0014  0.2415
  852MOL0     C12374   4.720   0.924  -0.472 -0.7254  1.0289  0.1365
  852MOL0     C12375   4.579   0.970  -0.432 -0.3798 -0.2560  0.3982
  852MOL0    Cl12376   4.470   0.827  -0.426  0.2900 -0.3160  0.5252
  852MOL0     C12377   5.604   0.917   0.059  0.4664 -0.5750 -0.9625
  852MOL0     C12378   5.738   0.890   0.095  0.5684  0.6805 -0.5259
  852MOL0     O12379   5.991   0.926   0.214  0.1627  0.5200  0.1106
  852MOL0     C12380   6.228   0.751   0.012  1.3582 -0.0004 -0.7325
  852MOL0     C12381   6.366   0.750  -0.012 -0.6087 -0.1533 -0.2375
  852MOL0     N12382   7.141   0.862   0.173  0.3738 -0.5764 -0.0919
  852MOL0     N12383   7.263   0.903   0.191 -0.2713 -0.6767  0.5076
  852MOL0     C12384   8.551   1.178   0.348 -0.4928 -0.8035  0.3064
  852MOL0     C12385   8.692   1.171   0.319 -0.5557  0.5180 -0.3876
  852MOL0     C12386   9.125   0.973   0.293  0.4319 -0.2030 -0.9439
  852MOL0     C12387   9.170   1.087   0.363  0.0321  0.5873  0.5035
  852MOL0     C12388   9.306   1.105   0.367 -0.1146 -0.2244  0.8294
  852MOL0     C12389   9.397   1.015   0.310  0.2249  0.6387 -0.2601
  852MOL0     O12390   9.530   1.055   0.287 -0.0807  0.7260  0.3800
  852MOL0     C12391   9.558   1.201   0.273  0.4999 -0.9946 -0.2909
  852MOL0     C12392   9.702   1.228   0.218  0.7291 -0.4268 -0.1559
  852MOL0     C12393   9.737   1.374   0.214 -0.4122 -0.9376  0.5076
  852MOL0     C12394   9.884   1.395   0.177 -0.4729  0.0576  0.1656
  852MOL0     C12395   9.965   1.384   0.296 -0.2527  1.1846  0.1797
  852MOL0     C12396  10.039   1.374   0.392 -0.8938 -0.8071 -0.2912
  852MOL0     C12397   9.352   0.887   0.261 -0.7602  0.2048  0.1444
  852MOL0     C12398   9.212   0.866   0.255  0.7926  0.1207 -0.7446
  852MOL0     H12399   8.724   0.838   0.314  0.3404 -0.2225 -1.1861
  852MOL0     H12400   8.480   0.855   0.369 -0.7412  0.6048  0.6458
  852MOL0     H12401   8.281   0.906   0.293  0.9843  0.9373  0.5910
  852MOL0     H12402   8.298   1.015   0.163 -2.1133 -2.1467 -0.6597
  852MOL0     H12403   8.102   1.163   0.232  1.2477  0.6923  0.3570
  852MOL0     H12404   8.068   1.057   0.359  0.0982  2.2865  0.1218
  852MOL0     H12405   8.005   0.885   0.178 -0.2281 -0.9260 -3.1932
  852MOL0     H12406   8.074   0.987   0.057 -0.0190 -0.3498 -0.3144
  852MOL0     H12407   7.865   1.089   0.232 -1.1098 -1.1773 -0.1726
  852MOL0     H12408   7.908   1.148   0.071  0.8752 -0.2560 -0.6061
  852MOL0     H12409   7.759   0.886   0.132  0.5032  2.0669  1.7528
  852MOL0     H12410   7.797   0.945  -0.032  4.0127 -0.5626  0.5988
  852MOL0     H12411   7.661   1.167   0.029  0.0166 -1.7296 -1.3762
  852MOL0     H12412   7.618   1.104   0.182  0.0490  0.8973  0.8485
  852MOL0     H12413   7.434   1.057   0.060 -0.3886 -0.7983  0.8560
  852MOL0     H12414   7.533   0.988  -0.075 -0.4462  0.9094 -0.2259
  852MOL0     H12415   7.527   0.844   0.195  2.1259  1.8377 -1.3200
  852MOL0     H12416   7.527   0.769   0.038 -0.0619 -1.8896  2.0114
  852MOL0     H12417   7.297   0.718  -0.078  0.1403  3.6385 -2.2918
  852MOL0     H12418   7.037   0.619  -0.002  4.9783  0.4649  1.0209
  852MOL0     H12419   7.013   0.761  -0.110 -0.5761  0.8852  1.1813
  852MOL0     H12420   6.898   0.763   0.175  0.0268  1.9688 -0.4838
  852MOL0     H12421   6.812   0.670   0.055 -1.1581  0.4431  0.5238
  852MOL0     H12422   6.888   0.960   0.041  0.2751  0.5710 -1.5106
  852MOL0     H12423   6.807   0.853  -0.086  0.3294 -0.0518  0.5969
  852MOL0     H12424   6.661   1.013   0.067  0.7066  0.5595  0.1616
  852MOL0     H12425   6.672   0.885   0.180 -2.4365 -1.0767 -0.5795
  852MOL0     H12426   6.459   1.047   0.125  2.5864 -0.4571 -2.3015
  852MOL0     H12427   6.235   1.051   0.167  0.1503 -1.0207  2.3201
  852MOL0     H12428   5.818   0.683  -0.148 -3.2855 -2.6044 -0.1785
  852MOL0     H12429   5.584   0.732  -0.223  0.1933  2.8934 -0.9662
  852MOL0     H12430   5.322   0.692  -0.063 -3.3098 -1.6107 -1.4019
  852MOL0     H12431   5.373   0.735  -0.228 -2.4142 -2.9703 -0.3358
  852MOL0     H12432   5.191   0.900  -0.256 -2.4039  2.1399  2.2893
  852MOL0     H12433   5.114   0.828  -0.114  0.9798  0.9674  0.5684
  852MOL0     H12434   5.148   0.598  -0.218 -0.4162 -1.0914 -0.2581
  852MOL0     H12435   5.182   0.676  -0.366 -0.8710 -0.2147 -0.9125
  852MOL0     H12436   4.949   0.596  -0.340  0.6414 -0.2214 -0.1825
  852MOL0     H12437   4.926   0.688  -0.205 -0.5399  1.8165 -0.4556
  852MOL0     H12438   4.937   0.803  -0.503  0.5455  0.7900  0.8492
  852MOL0     H12439   4.967   0.901  -0.362 -1.2165  0.4088  2.0219
  852MOL0     H12440   4.751   0.864  -0.269 -1.7707 -0.9802  0.1574
  852MOL0     H12441   4.723   0.728  -0.381 -2.3707  1.0644  2.6167
  852MOL0     H12442   4.788   1.009  -0.478 -0.5754  0.8073 -2.4197
  852MOL0     H12443   4.725   0.876  -0.571 -0.8564 -0.2368  0.7243
  852MOL0     H12444   4.552   1.034  -0.516  0.8665 -0.1886  0.0278
  852MOL0     H12445   4.589   1.025  -0.339 -0.6793 -1.0905  0.9354
  852MOL0     H12446   5.536   0.979   0.116  0.4662 -1.6460  0.2511
  852MOL0     H12447   5.771   0.945   0.183  0.5163  0.2245 -0.2177
  852MOL0     H12448   6.172   0.661  -0.010  2.3371 -0.9371  0.4430
  852MOL0     H12449   6.409   0.666  -0.066  1.3562  0.6279  0.0038
  852MOL0     H12450   8.506   1.276   0.361 -1.5418 -1.4434  1.8780
  852MOL0     H12451   8.747   1.264   0.328 -2.2093  1.4037  1.1710
  852MOL0     H12452   9.110   1.158   0.417 -0.0394  0.0089  1.2021
  852MOL0     H12453   9.335   1.198   0.415  1.0462  0.7621 -1.6306
  852MOL0     H12454   9.553   1.252   0.370 -1.3977 -0.5082 -0.6025
  852MOL0     H12455   9.484   1.251   0.210  0.0333 -0.2426  0.8105
  852MOL0     H12456   9.777   1.171   0.274  1.4277  0.0658 -0.5727
  852MOL0     H12457   9.703   1.204   0.111  0.5379 -1.2344  0.0166
  852MOL0     H12458   9.727   1.432   0.306  0.0758  2.7205 -1.5438
  852MOL0     H12459   9.668   1.415   0.140 -1.1682 -0.0302  1.6816
  852MOL0     H12460   9.915   1.315   0.110  0.2684  0.1932  0.3437
  852MOL0     H12461   9.898   1.491   0.125 -0.0840  0.4638  0.9918
  852MOL0     H12462  10.108   1.367   0.474 -2.4520  1.3829  1.3007
  852MOL0     H12463   9.433   0.821   0.231 -0.0669  0.6519  0.9738
  852MOL0     H12464   9.164   0.776   0.218 -1.8903 -0.3754  3.2891
  853MOL0     O12465   6.460   0.616  10.310 -0.8341 -0.0660 -0.2563
  853MOL0     C12466   6.404   0.643  10.412  0.2174  0.2274 -0.3336
  853MOL0     O12467   6.421   0.752  10.484 -0.6868 -0.3369 -0.2032
  853MOL0     C12468   6.532   0.832  10.463 -0.5971  0.7046  0.7768
  853MOL0     C12469   6.506   0.973  10.465  0.8750 -0.7903 -0.9171
  853MOL0     C12470   6.607   1.060  10.438 -0.9753 -0.7608  0.2011
  853MOL0     C12471   6.743   1.007  10.428  0.5311  0.2854 -0.9352
  853MOL0     O12472   6.835   1.108  10.432  0.2116  0.6943  0.5651
  853MOL0     C12473   6.966   1.068  10.467 -0.0877  0.3588  0.1283
  853MOL0     C12474   7.054   1.197  10.448 -0.7817  0.6849  0.0310
  853MOL0     C12475   7.202   1.177  10.428 -0.9944 -0.0223 -0.2640
  853MOL0     C12476   7.278   1.157  10.566  0.0864  0.2380  0.3544
  853MOL0     C12477   7.416   1.105  10.536 -0.1558  0.1716  0.1576
  853MOL0     C12478   7.507   1.201  10.461  0.3095 -0.0324  0.3190
  853MOL0     C12479   7.633   1.129  10.404 -0.4145  0.2360  0.4497
  853MOL0     C12480   7.713   1.061  10.522  0.2187  0.0937  0.9242
  853MOL0     N12481   7.835   1.004  10.467  0.0852  0.6477  0.1127
  853MOL0     C12482   7.877   0.882  10.512  0.4280  0.4936 -0.2283
  853MOL0     C12483   8.015   0.886  10.493 -0.6370  0.1387 -0.7789
  853MOL0     C12484   8.101   0.774  10.519 -0.0182  0.1833  0.4310
  853MOL0     C12485   8.128   0.684  10.399  1.2987  0.1788 -0.5252
  853MOL0     C12486   7.999   0.611  10.335  0.3058 -0.1175 -0.1924
  853MOL0     C12487   7.940   0.512  10.424 -0.6272  0.4795  0.0082
  853MOL0     O12488   7.818   0.555  10.485 -0.1543  0.3866  0.6323
  853MOL0     C12489   7.705   0.571  10.411  0.1288  0.3090  0.1720
  853MOL0     C12490   7.683   0.557  10.265 -0.0086  0.8863 -0.0716
  853MOL0     C12491   7.568   0.607  10.207  0.4486  0.0957 -1.1174
  853MOL0     C12492   7.463   0.674  10.275  1.6145  0.1284  0.2580
  853MOL0     C12493   7.336   0.700  10.202  0.2535 -0.2818  0.3492
  853MOL0     O12494   7.228   0.751  10.275 -0.5494  1.1298  0.0316
  853MOL0     C12495   7.113   0.786  10.212 -0.4592 -0.1610  0.5756
  853MOL0     C12496   7.001   0.708  10.232 -0.2331  0.3845 -0.3445
  853MOL0     C12497   6.883   0.733  10.156  0.1696  0.6636 -0.6093
  853MOL0     C12498   6.879   0.852  10.084  0.2470  0.1743 -0.6369
  853MOL0     O12499   6.762   0.891  10.029  0.0425  0.0940  0.2628
  853MOL0     C12500   6.641   0.864  10.100  0.3462  0.4414  0.5761
  853MOL0     C12501   6.539   0.956  10.032  0.0888 -0.3163 -0.4795
  853MOL0     C12502   6.400   0.924  10.072  0.5787 -0.5551 -0.2296
  853MOL0     C12503   6.301   1.047  10.057  0.5361  0.3060  0.2033
  853MOL0     C12504   6.149   1.024  10.080 -0.1156 -0.9176 -0.1529
  853MOL0     C12505   6.068   1.152  10.113  0.0795  0.3369 -1.3322
  853MOL0     C12506   5.945   1.125  10.182  0.2753 -0.0032  0.0372
  853MOL0     C12507   5.827   1.095  10.085  0.5522  0.4585  1.1450
  853MOL0    Cl12508   5.825   0.929  10.015  0.5527 -0.0697 -0.0130
  853MOL0     C12509   6.989   0.925  10.070 -0.6503 -0.3223  0.6266
  853MOL0     C12510   7.115   0.894  10.125 -0.1993 -0.5413 -0.4988
  853MOL0     O12511   7.344   0.693  10.077 -0.3976 -0.6949 -0.1563
  853MOL0     C12512   7.495   0.707  10.412  0.3722  0.3891 -0.1609
  853MOL0     C12513   7.603   0.642  10.478  0.1487 -0.1700  0.3698
  853MOL0     N12514   8.049   1.002  10.430  0.7586 -0.4642  0.2410
  853MOL0     N12515   7.942   1.066  10.412 -0.5157  0.7183  0.2676
  853MOL0     C12516   6.766   0.870  10.434 -0.2326  0.0349 -0.4323
  853MOL0     C12517   6.663   0.780  10.445  0.0597  0.5645  0.0556
  853MOL0     C12518   6.305   0.550  10.471  0.2788 -0.8580 -0.0694
  853MOL0     C12519   6.267   0.434  10.405 -0.5745 -1.0086 -0.6243
  853MOL0     C12520   6.168   0.346  10.458 -0.1869 -0.1916 -0.2975
  853MOL0     C12521   6.096   0.392  10.577  0.7048  0.2245 -0.1230
  853MOL0     O12522   5.980   0.319  10.620  0.3177 -0.0274  0.9397
  853MOL0     C12523   5.931   0.210  10.536  0.1560 -1.0121  0.1671
  853MOL0     C12524   5.795   0.160  10.598  0.0545 -0.0338 -0.6223
  853MOL0     C12525   5.806   0.134  10.753 -0.8370  0.1097  0.8589
  853MOL0     C12526   5.670   0.130  10.823 -0.0463 -1.0088  0.5800
  853MOL0     C12527   5.601   0.005  10.785 -0.2730  0.3426  0.5497
  853MOL0     C12528   5.549  -0.094  10.730  0.4019  0.0526  0.2681
  853MOL0     C12529   6.135   0.508  10.644 -0.3770 -0.8762  0.3225
  853MOL0     C12530   6.241   0.584  10.593  0.4017 -0.5222 -0.1643
  853MOL0     H12531   6.401   1.000  10.477  1.2821  0.1728  0.9945
  853MOL0     H12532   6.580   1.165  10.442 -2.2593 -1.0953  0.6339
  853MOL0     H12533   7.006   0.999  10.392  1.5149  0.1577  1.1113
  853MOL0     H12534   6.980   1.033  10.570 -0.2415 -1.7527 -0.5146
  853MOL0     H12535   7.038   1.269  10.529 -1.0733  1.3210 -0.5764
  853MOL0     H12536   7.022   1.259  10.364  1.9362  1.0659 -0.8306
  853MOL0     H12537   7.250   1.266  10.387 -0.2444 -0.9292 -1.4323
  853MOL0     H12538   7.213   1.086  10.368 -2.2943 -0.5679  0.2727
  853MOL0     H12539   7.287   1.251  10.620 -1.1857  0.8520 -0.4747
  853MOL0     H12540   7.223   1.088  10.630 -1.1607 -0.0813 -1.0201
  853MOL0     H12541   7.407   1.015  10.474 -1.5709 -0.4058  1.1306
  853MOL0     H12542   7.461   1.077  10.632  1.8148 -0.8578 -1.0121
  853MOL0     H12543   7.546   1.275  10.531  1.5787 -1.2981  1.0037
  853MOL0     H12544   7.463   1.255  10.377  1.5692 -1.4382 -1.2941
  853MOL0     H12545   7.586   1.051  10.343 -1.3563  0.8175  0.4184
  853MOL0     H12546   7.676   1.207  10.341 -0.6066 -1.5342 -2.0172
  853MOL0     H12547   7.657   0.980  10.569  1.1280 -1.1911 -0.1424
  853MOL0     H12548   7.744   1.134  10.598  0.9680 -1.9259  2.6792
  853MOL0     H12549   7.820   0.800  10.554  0.6039  0.2117 -0.5274
  853MOL0     H12550   8.069   0.721  10.609  1.0371  0.5915  1.0698
  853MOL0     H12551   8.194   0.825  10.545 -0.7272  3.4434 -2.5654
  853MOL0     H12552   8.199   0.608  10.431 -2.9014 -3.3844  1.3254
  853MOL0     H12553   8.174   0.751  10.325  3.7730  1.2438  1.8222
  853MOL0     H12554   7.931   0.692  10.310  0.9147  0.3035 -0.5074
  853MOL0     H12555   8.032   0.560  10.244  0.4281 -1.2427  0.4638
  853MOL0     H12556   8.003   0.484  10.508 -1.4517 -1.4946  0.0281
  853MOL0     H12557   7.925   0.417  10.372  0.4885  0.7368 -0.8235
  853MOL0     H12558   7.763   0.517  10.203 -3.1349 -1.7850 -2.7459
  853MOL0     H12559   7.574   0.592  10.100 -1.1511  0.0197 -1.2149
  853MOL0     H12560   7.001   0.621  10.298 -0.4853  0.3459 -0.3956
  853MOL0     H12561   6.797   0.668  10.164 -1.1059  2.3572  0.0587
  853MOL0     H12562   6.643   0.887  10.207  5.5874 -0.8933  1.0149
  853MOL0     H12563   6.613   0.761  10.078  2.2375  0.2039 -0.9462
  853MOL0     H12564   6.553   0.946   9.924 -1.6505  0.7523 -0.8482
  853MOL0     H12565   6.561   1.060  10.057 -0.0685 -0.3434 -0.2245
  853MOL0     H12566   6.393   0.903  10.179  2.6954  2.2262  0.5775
  853MOL0     H12567   6.358   0.838  10.019 -1.3416  1.2076 -1.7247
  853MOL0     H12568   6.337   1.126  10.123 -2.2751  1.8113  0.0845
  853MOL0     H12569   6.304   1.081   9.953 -1.1332 -1.5603 -0.5149
  853MOL0     H12570   6.138   0.947  10.157 -1.8919  0.5322  1.1313
  853MOL0     H12571   6.102   0.991   9.986  0.8281 -1.8722 -0.3095
  853MOL0     H12572   6.046   1.194  10.014  0.4634 -2.9895 -2.9735
  853MOL0     H12573   6.130   1.220  10.172  0.3426 -1.3285  0.3899
  853MOL0     H12574   5.973   1.037  10.242  2.8316  0.5109 -0.3074
  853MOL0     H12575   5.913   1.209  10.244  2.5248  0.9304  0.0074
  853MOL0     H12576   5.827   1.165  10.001  1.7051 -3.1698 -2.1796
  853MOL0     H12577   5.732   1.097  10.139 -0.1482 -1.7731  0.0989
  853MOL0     H12578   6.967   1.006  10.000 -0.9337 -0.0695  1.0038
  853MOL0     H12579   7.210   0.943  10.107 -0.0522 -1.4442 -2.5621
  853MOL0     H12580   7.426   0.763  10.476  0.2546 -0.1783  0.2095
  853MOL0     H12581   7.622   0.662  10.583 -0.6759  1.3624  0.2695
  853MOL0     H12582   6.868   0.832  10.432 -0.6663 -1.2057  0.0480
  853MOL0     H12583   6.680   0.673  10.452 -0.3403  0.5727  1.3214
  853MOL0     H12584   6.318   0.408  10.313  3.4348 -1.6505  1.5508
  853MOL0     H12585   6.137   0.261  10.398 -0.0557  0.8855 -1.9780
  853MOL0     H12586   6.004   0.129  10.529  2.9524  1.3388  0.0871
  853MOL0     H12587   5.914   0.250  10.435  0.6215 -1.7691 -0.2232
  853MOL0     H12588   5.717   0.235  10.579 -1.2566 -0.7328  1.5604
  853MOL0     H12589   5.755   0.071  10.549  0.9689  0.3067 -2.0604
  853MOL0     H12590   5.875   0.205  10.799  0.8251 -0.8642  0.0163
  853MOL0     H12591   5.851   0.034  10.761  1.3442  0.8996 -0.3880
  853MOL0     H12592   5.682   0.128  10.932 -2.9872  3.1417  1.2443
  853MOL0     H12593   5.615   0.224  10.808  1.6755 -0.0926 -0.3181
  853MOL0     H12594   5.505  -0.181  10.688  3.8783 -1.6110 -0.3028
  853MOL0     H12595   6.087   0.534  10.738 -2.5201 -0.1308 -0.8992
  853MOL0     H12596   6.250   0.677  10.648 -0.7738 -0.4141 -0.1349
  854MOL0     O12597   5.421   2.461  10.232  0.1214 -0.1001  0.5623
  854MOL0     C12598   5.448   2.511  10.345  1.1162  0.4190  0.7888
  854MOL0     O12599   5.363   2.584  10.421 -0.3349  0.0354  0.0257
  854MOL0     C12600   5.231   2.609  10.383  0.7569  0.5559  1.0198
  854MOL0     C12601   5.137   2.537  10.305 -0.9062 -0.3512 -0.2559
  854MOL0     C12602   5.004   2.585  10.280  0.7009  0.6185  0.2832
  854MOL0     C12603   4.957   2.699  10.347  0.4724 -0.0746  0.2407
  854MOL0     O12604   4.824   2.739  10.338 -0.1414 -0.9368  0.1202
  854MOL0     C12605   4.726   2.643  10.301 -0.5260 -0.2679 -0.4324
  854MOL0     C12606   4.592   2.711  10.291 -0.0393 -0.0540 -0.6474
  854MOL0     C12607   4.482   2.612  10.298  0.0007  0.5770 -0.0872
  854MOL0     C12608   4.350   2.689  10.292  0.3562  0.1582  0.9166
  854MOL0     C12609   4.229   2.601  10.346 -0.3652 -0.7897 -0.4216
  854MOL0     C12610   4.107   2.689  10.344  0.1885 -0.6191  0.1415
  854MOL0     C12611   3.984   2.616  10.382  0.5599 -0.1571  0.5093
  854MOL0     C12612   3.867   2.717  10.356  0.8037  1.1880 -1.0013
  854MOL0     N12613   3.736   2.639  10.372  0.1709 -0.2965 -0.6189
  854MOL0     C12614   3.676   2.608  10.492 -0.9611 -0.0489  0.5990
  854MOL0     C12615   3.537   2.606  10.468 -0.6733 -1.2041 -0.5479
  854MOL0     C12616   3.439   2.590  10.575 -0.0845  0.0840  0.3858
  854MOL0     C12617   3.295   2.578  10.521 -0.5547 -0.4330 -0.0566
  854MOL0     C12618   3.273   2.455  10.432  0.2256  0.0609  0.0228
  854MOL0     C12619   3.132   2.421  10.417 -0.2540  0.5967  0.1941
  854MOL0     O12620   3.063   2.531  10.345  0.2373 -0.1247 -0.6791
  854MOL0     C12621   2.925   2.514  10.340 -1.0086 -0.2114  0.6419
  854MOL0     C12622   2.866   2.429  10.248 -0.5074  0.1713 -0.4263
  854MOL0     C12623   2.726   2.426  10.241  0.2481 -1.1895 -0.4543
  854MOL0     C12624   2.645   2.513  10.318  0.7246  0.4046  0.5175
  854MOL0     C12625   2.499   2.525  10.291  0.1984  0.6053  0.1862
  854MOL0     O12626   2.421   2.591  10.374 -0.2119 -0.4145 -0.2184
  854MOL0     C12627   2.284   2.607  10.356 -0.1858  0.6971 -0.2350
  854MOL0     C12628   2.228   2.728  10.371  0.9616 -0.5088  0.0279
  854MOL0     C12629   2.087   2.746  10.364 -0.9802 -0.3002  0.5095
  854MOL0     C12630   2.001   2.637  10.350 -0.1195  1.1246 -0.0349
  854MOL0     O12631   1.864   2.649  10.343 -0.3855  0.2211  0.6282
  854MOL0     C12632   1.794   2.561  10.253  0.3530  0.0117  0.2407
  854MOL0     C12633   1.645   2.579  10.264  0.6903 -0.3089  0.2995
  854MOL0     C12634   1.599   2.722  10.244 -0.0009 -0.6650 -0.1257
  854MOL0     C12635   1.454   2.725  10.219 -0.1677  0.2684  0.5507
  854MOL0     C12636   1.383   2.867  10.235  1.0999  0.0600 -0.2320
  854MOL0     C12637   1.231   2.846  10.265 -0.4562  0.2310 -0.3886
  854MOL0     C12638   1.165   2.772  10.146  0.4295  0.1945 -0.3947
  854MOL0     C12639   1.031   2.720  10.180  0.6633  0.9871  0.7053
  854MOL0    Cl12640   1.049   2.592  10.318 -0.5640 -0.5423 -0.2346
  854MOL0     C12641   2.049   2.506  10.363 -0.6456 -0.2480  0.5938
  854MOL0     C12642   2.195   2.496  10.352  0.0718  0.5480 -0.4931
  854MOL0     O12643   2.470   2.490  10.174  0.6245  0.0711 -0.1595
  854MOL0     C12644   2.711   2.586  10.417  0.9509 -0.6540  1.2503
  854MOL0     C12645   2.845   2.596  10.426 -0.2176 -0.4491  0.5955
  854MOL0     N12646   3.520   2.637  10.334 -0.6127 -0.1258 -0.2633
  854MOL0     N12647   3.639   2.660  10.281  0.2853  0.3747 -0.2940
  854MOL0     C12648   5.043   2.764  10.431  0.6121 -0.0386  0.2247
  854MOL0     C12649   5.176   2.717  10.444  0.9036 -0.4977 -0.5294
  854MOL0     C12650   5.589   2.487  10.395 -0.0438 -0.9700 -0.3137
  854MOL0     C12651   5.654   2.578  10.490  0.1833  0.5893 -1.2888
  854MOL0     C12652   5.788   2.557  10.528  0.3825  0.5471 -0.0697
  854MOL0     C12653   5.869   2.452  10.490  0.3566  0.8793 -0.2280
  854MOL0     O12654   5.999   2.433  10.521 -0.2585  0.6353 -0.5357
  854MOL0     C12655   6.100   2.364  10.443  0.6095 -0.4630 -0.1037
  854MOL0     C12656   6.245   2.401  10.483 -0.1803  0.4800 -0.4377
  854MOL0     C12657   6.336   2.321  10.394 -0.3492 -0.5936 -0.3235
  854MOL0     C12658   6.478   2.319  10.456  0.0791  0.1977 -0.2054
  854MOL0     C12659   6.576   2.289  10.350  0.2826  0.8958 -0.2589
  854MOL0     C12660   6.654   2.271  10.263  1.1099 -0.0873  0.9954
  854MOL0     C12661   5.797   2.371  10.397 -0.7446  1.2309  0.9786
  854MOL0     C12662   5.670   2.385  10.355  0.8406  0.0309  0.5399
  854MOL0     H12663   5.159   2.439  10.263  1.1557 -1.1760  2.4497
  854MOL0     H12664   4.945   2.525  10.212  0.9319  1.8917 -1.0891
  854MOL0     H12665   4.733   2.559  10.371  3.5334  0.1697 -0.1174
  854MOL0     H12666   4.740   2.607  10.199 -1.1161 -2.3779  0.1597
  854MOL0     H12667   4.585   2.773  10.201 -2.8379 -1.0893 -1.2428
  854MOL0     H12668   4.580   2.771  10.382 -1.6164 -1.7552  0.3389
  854MOL0     H12669   4.500   2.563  10.395 -0.2915 -0.3048 -0.4640
  854MOL0     H12670   4.495   2.542  10.215  2.5075 -0.0076  0.7193
  854MOL0     H12671   4.357   2.781  10.350  0.3547  1.4165 -1.0090
  854MOL0     H12672   4.328   2.723  10.191 -0.9879 -1.5062  0.5939
  854MOL0     H12673   4.247   2.565  10.448 -0.3481 -1.2968 -0.6026
  854MOL0     H12674   4.216   2.516  10.278 -0.7078 -0.0633 -1.2867
  854MOL0     H12675   4.091   2.718  10.240  0.6498  0.4437  0.3440
  854MOL0     H12676   4.120   2.777  10.408  1.7871 -0.0471 -0.9103
  854MOL0     H12677   3.977   2.536  10.307  2.3319  0.7100 -0.6473
  854MOL0     H12678   3.985   2.558  10.475 -1.1114 -0.6752  0.2339
  854MOL0     H12679   3.867   2.745  10.251 -1.3507 -1.9665 -1.9947
  854MOL0     H12680   3.875   2.798  10.429  3.0984  1.5095 -1.5606
  854MOL0     H12681   3.723   2.588  10.588  1.4600 -2.0561 -0.8928
  854MOL0     H12682   3.463   2.672  10.644  0.2714 -0.8047  1.3478
  854MOL0     H12683   3.464   2.495  10.624  0.1401  0.1702  0.4365
  854MOL0     H12684   3.285   2.667  10.458  0.7967 -0.0725  0.2066
  854MOL0     H12685   3.238   2.587  10.613  1.2686 -0.8311  1.1660
  854MOL0     H12686   3.320   2.487  10.338 -0.6965  1.2227 -0.0658
  854MOL0     H12687   3.330   2.367  10.463  0.4394 -0.0642 -0.7047
  854MOL0     H12688   3.090   2.411  10.518 -0.5946 -0.6468 -0.0630
  854MOL0     H12689   3.122   2.319  10.379  3.7333  0.1353 -0.0124
  854MOL0     H12690   2.929   2.374  10.179  0.4663  1.1736 -0.3568
  854MOL0     H12691   2.683   2.358  10.168 -0.6538 -1.5584  0.3928
  854MOL0     H12692   2.296   2.811  10.391  1.1309 -0.6202 -0.0831
  854MOL0     H12693   2.046   2.847  10.367 -1.4092 -0.4691  0.3831
  854MOL0     H12694   1.826   2.457  10.252 -1.3340 -0.5720 -1.9435
  854MOL0     H12695   1.832   2.592  10.155 -1.5805 -0.6717 -0.7796
  854MOL0     H12696   1.617   2.564  10.368 -1.4455  1.1701 -0.0086
  854MOL0     H12697   1.594   2.506  10.201 -1.1016 -1.5681  3.0401
  854MOL0     H12698   1.655   2.759  10.158  1.6152 -2.9596 -0.1624
  854MOL0     H12699   1.625   2.784  10.330  0.5559  3.5313 -3.0535
  854MOL0     H12700   1.438   2.675  10.123 -0.4229 -1.9627  1.6837
  854MOL0     H12701   1.409   2.652  10.286 -3.5303  1.5659 -0.0826
  854MOL0     H12702   1.399   2.924  10.143  0.7567 -0.2129 -0.4653
  854MOL0     H12703   1.422   2.917  10.324  1.0220  0.3151 -0.3395
  854MOL0     H12704   1.183   2.941  10.291 -0.7991  0.9691 -3.3776
  854MOL0     H12705   1.234   2.791  10.359  4.3974  1.2526  0.3061
  854MOL0     H12706   1.156   2.848  10.068 -1.2296 -0.4476 -0.8800
  854MOL0     H12707   1.226   2.690  10.109 -0.5114 -0.3920 -0.6811
  854MOL0     H12708   1.002   2.667  10.089 -1.6625  1.9760  0.7990
  854MOL0     H12709   0.969   2.807  10.205 -0.6423  0.6355 -1.1662
  854MOL0     H12710   2.003   2.409  10.377  0.6145 -1.1914 -1.2884
  854MOL0     H12711   2.238   2.397  10.359  0.4465  0.6722 -0.9396
  854MOL0     H12712   2.645   2.648  10.477  0.1650  0.4150 -0.6122
  854MOL0     H12713   2.887   2.674  10.490  1.9293  0.2878 -1.5544
  854MOL0     H12714   5.009   2.847  10.491 -0.2656 -0.2134 -0.0211
  854MOL0     H12715   5.249   2.784  10.489  1.1456  0.7870 -2.7016
  854MOL0     H12716   5.596   2.660  10.533  1.3868  0.0758  1.5907
  854MOL0     H12717   5.825   2.647  10.576 -0.6819  0.8492  0.2202
  854MOL0     H12718   6.086   2.391  10.338  2.3514  0.9882 -0.0196
  854MOL0     H12719   6.075   2.260  10.466  0.6425 -0.3755  0.3417
  854MOL0     H12720   6.262   2.507  10.461 -0.9926  0.5563 -0.7133
  854MOL0     H12721   6.247   2.384  10.591 -1.9166  2.2814 -0.0686
  854MOL0     H12722   6.339   2.377  10.300 -0.3182  2.2471  1.2522
  854MOL0     H12723   6.291   2.221  10.393 -5.3587  1.3624 -2.1125
  854MOL0     H12724   6.507   2.414  10.503 -0.2646  0.8614 -1.3084
  854MOL0     H12725   6.475   2.235  10.526  3.1811 -1.2514 -1.6085
  854MOL0     H12726   6.725   2.253  10.184 -1.6503 -0.2959 -1.5958
  854MOL0     H12727   5.858   2.286  10.370 -1.2501  0.0389  3.3036
  854MOL0     H12728   5.616   2.313  10.294 -1.7926  1.4195  1.0843
  855MOL0     O12729  10.990   9.573   4.951 -0.5817  0.8271 -0.3058
  855MOL0     C12730  11.061   9.666   4.971  0.2930 -0.1605 -0.2880
  855MOL0     O12731  11.033   9.782   5.043 -0.1362  0.2985  0.4791
  855MOL0     C12732  10.908   9.795   5.093 -0.0483  0.4617 -0.6068
  855MOL0     C12733  10.788   9.771   5.024  0.6331 -0.8291  0.1893
  855MOL0     C12734  10.667   9.813   5.081  0.0486 -0.2924 -0.1132
  855MOL0     C12735  10.648   9.882   5.200 -0.4556  0.0609  0.2503
  855MOL0     O12736  10.521   9.918   5.241 -0.0989 -0.0618 -0.3167
  855MOL0     C12737  10.505   9.957   5.380 -0.3356  0.4138 -0.6587
  855MOL0     C12738  10.380   9.902   5.442  0.2263 -0.7760 -0.6444
  855MOL0     C12739  10.245   9.963   5.387  0.8503 -0.4909 -0.0281
  855MOL0     C12740  10.112   9.898   5.429 -0.6473  0.1975 -0.6816
  855MOL0     C12741  10.000   9.956   5.339  0.3257  0.3301 -0.0718
  855MOL0     C12742   9.882   9.889   5.395  0.4985 -0.2093 -0.8558
  855MOL0     C12743   9.761   9.940   5.327  1.0755  0.1820  0.8677
  855MOL0     C12744   9.740   9.866   5.192  0.7792  0.2823  0.0078
  855MOL0     N12745   9.619   9.766   5.191 -0.9811 -1.1527  0.3297
  855MOL0     C12746   9.624   9.636   5.158  0.2339  0.1876 -0.6549
  855MOL0     C12747   9.494   9.601   5.151  0.2642  0.7208 -0.3270
  855MOL0     C12748   9.434   9.468   5.130  0.2065  0.5848  0.0367
  855MOL0     C12749   9.416   9.386   5.263 -0.0039 -0.5303 -0.7724
  855MOL0     C12750   9.288   9.430   5.336 -0.2012  0.2923 -0.3584
  855MOL0     C12751   9.170   9.450   5.262 -0.3188  0.1750  0.8409
  855MOL0     O12752   9.059   9.477   5.346  0.6365  0.0485 -0.0987
  855MOL0     C12753   8.944   9.416   5.314  0.3918  0.1617 -1.1110
  855MOL0     C12754   8.851   9.371   5.417  0.0484 -0.5142  0.2259
  855MOL0     C12755   8.738   9.298   5.390 -0.3927 -0.3311  0.4701
  855MOL0     C12756   8.701   9.276   5.250 -0.7461  0.9155 -0.7410
  855MOL0     C12757   8.583   9.189   5.217 -0.1923 -0.0539  0.0510
  855MOL0     O12758   8.544   9.109   5.325 -0.0823  0.7646  0.0881
  855MOL0     C12759   8.415   9.068   5.326  0.2538  0.1152 -0.2972
  855MOL0     C12760   8.307   9.161   5.320  0.6855 -0.9843  0.3951
  855MOL0     C12761   8.172   9.113   5.298 -0.4363  0.4273  0.3939
  855MOL0     C12762   8.143   8.978   5.319 -0.9252  0.4972  0.3925
  855MOL0     O12763   8.018   8.922   5.311 -0.1003 -0.3027 -0.4205
  855MOL0     C12764   7.915   9.014   5.338  0.1521 -0.1161  0.5303
  855MOL0     C12765   7.791   8.932   5.322  0.3644 -0.6116 -0.3111
  855MOL0     C12766   7.665   9.024   5.308  0.5579 -0.0342 -0.0002
  855MOL0     C12767   7.529   8.959   5.314 -0.1480 -0.0816  0.0558
  855MOL0     C12768   7.422   9.067   5.317 -0.3052  0.6063 -0.5438
  855MOL0     C12769   7.278   9.009   5.326  0.1871 -0.1021 -0.2800
  855MOL0     C12770   7.181   9.129   5.347 -0.0918 -0.4436 -0.3131
  855MOL0     C12771   7.032   9.087   5.339  0.9786  0.5204  0.3418
  855MOL0    Cl12772   6.910   9.217   5.361 -0.3642 -0.5096  0.3024
  855MOL0     C12773   8.246   8.890   5.344  0.1826  0.1209 -0.0128
  855MOL0     C12774   8.382   8.933   5.332  0.2277 -0.4940 -0.0947
  855MOL0     O12775   8.513   9.208   5.116  0.0208  0.5851 -0.3618
  855MOL0     C12776   8.775   9.341   5.157 -0.3107  0.6863  0.0757
  855MOL0     C12777   8.886   9.420   5.189  0.0643  0.5986 -0.3331
  855MOL0     N12778   9.420   9.709   5.192 -0.6033 -0.8143  0.8984
  855MOL0     N12779   9.498   9.805   5.220 -0.1026  0.2609  0.5602
  855MOL0     C12780  10.769   9.897   5.269 -0.1020 -1.2022 -0.3889
  855MOL0     C12781  10.898   9.862   5.220  1.1557 -0.5186 -0.2703
  855MOL0     C12782  11.193   9.647   4.917 -1.0906  0.1097  0.7224
  855MOL0     C12783  11.295   9.750   4.940 -0.2936  0.7791 -0.3701
  855MOL0     C12784  11.428   9.734   4.889  0.5293  0.5771 -0.0792
  855MOL0     C12785  11.464   9.617   4.818 -0.2237  0.3242 -0.2091
  855MOL0     O12786  11.584   9.607   4.749 -0.0312  0.6327  0.3397
  855MOL0     C12787  11.688   9.697   4.785 -0.4166 -0.5898  0.2761
  855MOL0     C12788  11.820   9.640   4.718  0.2569 -0.2642  0.1568
  855MOL0     C12789  11.951   9.720   4.743 -0.4071 -0.1699 -0.5168
  855MOL0     C12790  11.936   9.870   4.715 -0.2091  0.1575 -0.4204
  855MOL0     C12791  12.069   9.930   4.720  0.2279 -0.1158  0.0083
  855MOL0     C12792  12.169   9.993   4.714  0.3852  1.5419 -0.3524
  855MOL0     C12793  11.372   9.512   4.809  0.1028 -1.2046 -0.2232
  855MOL0     C12794  11.237   9.527   4.857 -0.5409 -0.5666  0.7427
  855MOL0     H12795  10.787   9.727   4.925 -1.3876 -2.2957  0.7968
  855MOL0     H12796  10.568   9.794   5.040 -1.4155  0.2028  2.9226
  855MOL0     H12797  10.490  10.063   5.398 -1.3821  0.2013 -0.1784
  855MOL0     H12798  10.583   9.926   5.450  0.4382  0.9408 -1.2730
  855MOL0     H12799  10.387   9.926   5.549  0.8040 -0.1060 -0.8246
  855MOL0     H12800  10.382   9.793   5.440  0.5020 -0.7691 -0.7398
  855MOL0     H12801  10.253   9.948   5.279  0.2807 -0.3501 -0.0931
  855MOL0     H12802  10.248  10.070   5.412  3.9262  0.4105 -3.3801
  855MOL0     H12803  10.117   9.789   5.418 -0.8483  0.1950 -0.7500
  855MOL0     H12804  10.085   9.918   5.533  1.6934  0.3610 -0.0280
  855MOL0     H12805  10.029   9.909   5.244  0.6466 -2.2162  1.2081
  855MOL0     H12806  10.002  10.064   5.355 -3.2295  0.6003 -0.6707
  855MOL0     H12807   9.874   9.927   5.497 -0.1418  0.5617 -1.1760
  855MOL0     H12808   9.897   9.781   5.388 -2.1009 -0.6621 -0.4114
  855MOL0     H12809   9.678   9.921   5.396  1.0776  2.7245  1.6518
  855MOL0     H12810   9.768  10.048   5.315  2.5733 -0.0690 -1.0900
  855MOL0     H12811   9.833   9.818   5.160  0.8756  0.5827 -0.1595
  855MOL0     H12812   9.727   9.949   5.122  1.1086  1.1182  0.9142
  855MOL0     H12813   9.713   9.574   5.163 -0.3086 -0.5368  0.8263
  855MOL0     H12814   9.502   9.405   5.072  1.1484  1.2428  0.3963
  855MOL0     H12815   9.352   9.476   5.058  0.5453 -1.8224 -0.6898
  855MOL0     H12816   9.495   9.415   5.333 -1.0509  1.4943 -0.3365
  855MOL0     H12817   9.422   9.279   5.245 -0.7325 -0.0781 -4.8070
  855MOL0     H12818   9.267   9.363   5.420  2.0230  0.2208  0.1999
  855MOL0     H12819   9.311   9.530   5.373 -0.2217  1.6309 -3.6157
  855MOL0     H12820   9.153   9.361   5.201 -0.6973 -0.2577  1.5721
  855MOL0     H12821   9.185   9.533   5.192 -2.9416  1.0141  1.1533
  855MOL0     H12822   8.867   9.378   5.524 -0.3132 -0.1984  0.2617
  855MOL0     H12823   8.694   9.250   5.477  1.0908 -2.5153  0.1162
  855MOL0     H12824   8.331   9.266   5.310  0.0428 -0.7147  1.5578
  855MOL0     H12825   8.097   9.185   5.269  0.1884  0.1372 -2.2016
  855MOL0     H12826   7.918   9.093   5.262 -1.5873 -0.1633  0.3669
  855MOL0     H12827   7.912   9.054   5.440  1.2171 -0.3753  0.6684
  855MOL0     H12828   7.777   8.858   5.401 -0.3624 -3.4189 -2.8531
  855MOL0     H12829   7.816   8.886   5.226 -0.1963  0.9285 -1.2481
  855MOL0     H12830   7.665   9.093   5.224 -0.7303 -0.2620 -0.1977
  855MOL0     H12831   7.674   9.079   5.402  3.9091 -1.2080  0.5196
  855MOL0     H12832   7.521   8.894   5.226  1.0164 -0.7343  0.4226
  855MOL0     H12833   7.525   8.890   5.399 -0.6646 -0.2170 -0.0732
  855MOL0     H12834   7.427   9.131   5.228  0.5725  2.0299  0.4829
  855MOL0     H12835   7.437   9.142   5.395 -0.1284  1.7971 -1.6898
  855MOL0     H12836   7.260   8.940   5.409  2.9842  1.4170  1.7914
  855MOL0     H12837   7.257   8.964   5.229 -2.3355  1.2985 -0.4484
  855MOL0     H12838   7.195   9.183   5.441  1.1076  1.4306 -1.4990
  855MOL0     H12839   7.212   9.201   5.271  2.5773  0.6593  1.6831
  855MOL0     H12840   7.008   9.000   5.400 -5.6025  0.9355 -0.9172
  855MOL0     H12841   7.001   9.057   5.239 -0.9988 -1.5843  1.5029
  855MOL0     H12842   8.223   8.784   5.355  5.0167 -1.2418 -0.5562
  855MOL0     H12843   8.465   8.866   5.350 -0.4788 -1.0906  1.0322
  855MOL0     H12844   8.740   9.339   5.054 -0.2785  3.4372 -0.0533
  855MOL0     H12845   8.942   9.471   5.111  0.3341 -0.2283 -0.6911
  855MOL0     H12846  10.765   9.950   5.364 -0.8721  1.4529 -1.7816
  855MOL0     H12847  10.986   9.889   5.276 -0.2338  2.2661  0.7659
  855MOL0     H12848  11.278   9.838   5.002  2.4968  0.2771  1.2487
  855MOL0     H12849  11.492   9.822   4.890 -1.3361  1.9997 -0.5588
  855MOL0     H12850  11.715   9.701   4.891  1.0096 -0.5063 -0.0762
  855MOL0     H12851  11.666   9.800   4.755 -0.6085 -0.8885 -0.6286
  855MOL0     H12852  11.832   9.540   4.760  1.7380  0.4884  1.6303
  855MOL0     H12853  11.807   9.624   4.610 -1.3713 -0.3431  0.3465
  855MOL0     H12854  12.023   9.691   4.666 -0.3659  0.8446 -0.8820
  855MOL0     H12855  11.990   9.706   4.845  0.9222  0.8461 -0.8501
  855MOL0     H12856  11.896   9.899   4.617  3.1192 -0.1869 -2.0428
  855MOL0     H12857  11.873   9.921   4.788 -0.1009  0.0319 -0.2368
  855MOL0     H12858  12.256  10.056   4.718  1.3979  0.1932 -0.2929
  855MOL0     H12859  11.399   9.419   4.760  1.2133 -0.7109 -0.5785
  855MOL0     H12860  11.172   9.440   4.856  1.1237 -1.8472  1.1170
  856MOL0     O12861   1.919   6.463   3.296 -0.4873 -0.8068 -0.4082
  856MOL0     C12862   1.930   6.577   3.343  0.2869 -0.2049  0.1591
  856MOL0     O12863   1.823   6.664   3.378  0.3715  0.6710  0.1395
  856MOL0     C12864   1.697   6.606   3.398 -1.0039  0.1467  0.5447
  856MOL0     C12865   1.600   6.649   3.306 -0.2627  0.2870  0.4219
  856MOL0     C12866   1.469   6.595   3.311 -0.3627 -0.1895 -0.4080
  856MOL0     C12867   1.443   6.501   3.418  0.4337  0.3933  0.5370
  856MOL0     O12868   1.317   6.449   3.430  0.1035  0.2454 -0.2034
  856MOL0     C12869   1.211   6.502   3.344  0.5555 -0.3549 -0.4000
  856MOL0     C12870   1.090   6.416   3.364 -0.0984 -0.2397  0.4288
  856MOL0     C12871   1.011   6.479   3.488 -0.4249  0.0333  0.2762
  856MOL0     C12872   0.896   6.394   3.520  0.0008  0.3312  0.4427
  856MOL0     C12873   0.809   6.436   3.636 -0.6779  0.6055  0.9834
  856MOL0     C12874   0.664   6.390   3.604 -0.2340 -0.3493 -0.7163
  856MOL0     C12875   0.573   6.431   3.727  0.0041 -0.7196  0.3172
  856MOL0     C12876   0.434   6.361   3.713  0.1618  0.0981 -0.1548
  856MOL0     N12877   0.364   6.411   3.597 -0.9444  0.0416 -0.1712
  856MOL0     C12878   0.287   6.319   3.518 -0.2933  0.7198 -0.3366
  856MOL0     C12879   0.209   6.397   3.438  0.5831  0.7873  0.0431
  856MOL0     C12880   0.103   6.356   3.339 -0.2255  0.1459 -0.6344
  856MOL0     C12881  -0.039   6.417   3.347 -0.4896  0.0199  0.0890
  856MOL0     C12882  -0.098   6.418   3.496  0.3212  0.2251  0.0287
  856MOL0     C12883  -0.247   6.438   3.499 -0.1841 -1.0590 -0.4799
  856MOL0     O12884  -0.311   6.314   3.485  0.4968 -0.1924  0.1869
  856MOL0     C12885  -0.447   6.314   3.519 -0.0208 -0.0838  0.5110
  856MOL0     C12886  -0.538   6.420   3.494 -0.3552 -0.8172 -0.2720
  856MOL0     C12887  -0.675   6.398   3.504  0.2197 -0.0337 -0.5147
  856MOL0     C12888  -0.726   6.279   3.552  0.6332 -0.3470 -0.6830
  856MOL0     C12889  -0.873   6.271   3.574  0.6614  0.1046  0.1977
  856MOL0     O12890  -0.939   6.389   3.577  0.6362 -0.0073  0.2849
  856MOL0     C12891  -1.070   6.399   3.625  0.1013  0.0681 -0.2629
  856MOL0     C12892  -1.173   6.400   3.534  0.7058  0.0696  0.2987
  856MOL0     C12893  -1.305   6.398   3.582 -0.2579 -0.0058 -0.1906
  856MOL0     C12894  -1.330   6.419   3.719  0.3006 -0.1393 -0.3014
  856MOL0     O12895  -1.463   6.413   3.772 -0.2983  0.0179  0.1250
  856MOL0     C12896  -1.547   6.517   3.718 -0.3524  0.1760 -0.4883
  856MOL0     C12897  -1.695   6.486   3.738  0.5120  0.0462 -1.0607
  856MOL0     C12898  -1.742   6.497   3.889  0.3394 -0.4026  0.6796
  856MOL0     C12899  -1.892   6.461   3.915  0.5538 -0.3652  0.4368
  856MOL0     C12900  -1.988   6.533   3.824 -0.5935  0.3835 -0.2587
  856MOL0     C12901  -2.134   6.502   3.867  0.7842 -0.8625 -0.0945
  856MOL0     C12902  -2.165   6.358   3.845  0.4351 -0.3727 -0.4391
  856MOL0     C12903  -2.304   6.331   3.888 -0.6066  0.5652 -0.6707
  856MOL0    Cl12904  -2.349   6.159   3.857  0.3066 -0.2634  0.1868
  856MOL0     C12905  -1.218   6.431   3.810 -0.3586 -0.6128  0.1785
  856MOL0     C12906  -1.088   6.421   3.756 -0.5596 -0.8681  0.2154
  856MOL0     O12907  -0.915   6.156   3.601 -0.1028 -0.5287 -0.0640
  856MOL0     C12908  -0.640   6.175   3.585 -0.2816 -0.1894  0.1427
  856MOL0     C12909  -0.501   6.193   3.567  0.4281  1.0350  0.1657
  856MOL0     N12910   0.241   6.526   3.455 -0.6059 -0.8961 -0.5082
  856MOL0     N12911   0.329   6.538   3.550  1.9278  0.6678 -0.7543
  856MOL0     C12912   1.539   6.467   3.509  0.1921 -0.3921 -0.2234
  856MOL0     C12913   1.665   6.530   3.506  0.3523 -0.0260  0.4487
  856MOL0     C12914   2.057   6.640   3.335  0.2226  0.3257 -0.0349
  856MOL0     C12915   2.074   6.778   3.344 -1.1722 -0.3947  0.3336
  856MOL0     C12916   2.205   6.831   3.328  0.1612  0.2400  0.5841
  856MOL0     C12917   2.308   6.747   3.292  0.2623  1.0415  0.3506
  856MOL0     O12918   2.432   6.792   3.266 -0.1575 -0.1085 -0.2727
  856MOL0     C12919   2.541   6.783   3.358 -0.4090 -0.0396 -0.3653
  856MOL0     C12920   2.556   6.902   3.457 -0.1243  0.4109 -0.3669
  856MOL0     C12921   2.600   7.038   3.391  0.2812  0.1329  0.0997
  856MOL0     C12922   2.740   7.046   3.343  0.2255 -0.8563 -0.6945
  856MOL0     C12923   2.786   7.181   3.325 -0.2710  0.3841  0.3907
  856MOL0     C12924   2.827   7.291   3.314 -0.3252  0.0876 -0.3980
  856MOL0     C12925   2.296   6.607   3.279  0.1935 -1.1163  0.0351
  856MOL0     C12926   2.169   6.554   3.311  0.0120 -0.5428  1.0090
  856MOL0     H12927   1.625   6.725   3.232  0.4589 -1.4196 -1.1528
  856MOL0     H12928   1.402   6.631   3.233 -0.0928  0.5205 -0.3151
  856MOL0     H12929   1.240   6.510   3.238 -1.2192  1.8985 -0.8081
  856MOL0     H12930   1.192   6.605   3.377  1.7244  0.9157 -3.3381
  856MOL0     H12931   1.131   6.316   3.379 -0.0257 -0.2312  0.2946
  856MOL0     H12932   1.032   6.409   3.272 -2.1057 -1.4076  1.7175
  856MOL0     H12933   0.976   6.579   3.462 -1.9222 -0.8809 -1.5434
  856MOL0     H12934   1.083   6.496   3.569 -1.7167 -1.6972  1.9032
  856MOL0     H12935   0.841   6.389   3.425  0.0268  0.6004  0.4129
  856MOL0     H12936   0.942   6.297   3.538  1.6141  0.6522 -1.5752
  856MOL0     H12937   0.813   6.543   3.654 -0.2469  0.5309  1.3475
  856MOL0     H12938   0.843   6.389   3.729  0.8794  0.6078  0.4550
  856MOL0     H12939   0.668   6.282   3.592 -0.4506 -0.4334 -0.0455
  856MOL0     H12940   0.630   6.447   3.516  0.3469  0.7197 -0.2714
  856MOL0     H12941   0.604   6.393   3.825  0.3386  2.3669  1.5122
  856MOL0     H12942   0.562   6.540   3.734 -0.0188 -0.8572  3.9469
  856MOL0     H12943   0.370   6.400   3.792  1.2645  1.4962  0.0965
  856MOL0     H12944   0.437   6.251   3.716 -3.1605 -0.0721  0.4728
  856MOL0     H12945   0.280   6.211   3.521  2.9529  0.4203  2.3582
  856MOL0     H12946   0.099   6.248   3.355  2.1465  0.2375  1.1896
  856MOL0     H12947   0.141   6.371   3.238 -0.1862  2.9751 -0.2830
  856MOL0     H12948  -0.099   6.353   3.280 -2.1007 -0.2138  1.6742
  856MOL0     H12949  -0.044   6.518   3.306 -2.3896  0.5301  1.4550
  856MOL0     H12950  -0.085   6.318   3.538  0.0422  1.5315  3.5426
  856MOL0     H12951  -0.040   6.481   3.564  1.5886 -0.8766  0.0333
  856MOL0     H12952  -0.267   6.511   3.420 -4.1608  0.8793  2.0279
  856MOL0     H12953  -0.273   6.495   3.588  1.0404  0.4103 -1.0266
  856MOL0     H12954  -0.496   6.513   3.457  1.6612 -2.1302 -1.4333
  856MOL0     H12955  -0.743   6.481   3.490  0.1584  0.5981  2.7167
  856MOL0     H12956  -1.162   6.393   3.426 -3.2692 -3.3627 -0.1206
  856MOL0     H12957  -1.386   6.391   3.510 -0.9829  2.5238  0.2714
  856MOL0     H12958  -1.532   6.550   3.614 -2.0962  0.0788 -0.7952
  856MOL0     H12959  -1.521   6.608   3.774 -2.5897  0.9737 -0.6314
  856MOL0     H12960  -1.728   6.389   3.700  0.5825 -1.0395  1.4356
  856MOL0     H12961  -1.753   6.564   3.687 -0.6718  0.7841  1.2380
  856MOL0     H12962  -1.738   6.605   3.900 -1.1190 -0.2176 -0.2921
  856MOL0     H12963  -1.666   6.450   3.953  0.1124  3.6320  4.3543
  856MOL0     H12964  -1.900   6.355   3.889  0.0259  0.3668 -2.7675
  856MOL0     H12965  -1.919   6.483   4.019 -0.0676 -1.0654  0.4314
  856MOL0     H12966  -1.977   6.496   3.721 -2.0300 -0.8920  0.0074
  856MOL0     H12967  -1.962   6.639   3.830 -1.5754  0.5904  0.4494
  856MOL0     H12968  -2.202   6.565   3.808 -0.8665  0.7745  3.3035
  856MOL0     H12969  -2.151   6.530   3.971  0.5267  2.2976 -0.9028
  856MOL0     H12970  -2.157   6.328   3.740 -0.5309  0.9068 -0.9034
  856MOL0     H12971  -2.103   6.292   3.905  1.2502  0.4863 -0.3151
  856MOL0     H12972  -2.364   6.401   3.829  1.0795  0.9552 -1.9766
  856MOL0     H12973  -2.320   6.347   3.995  0.2711  0.9042 -0.5769
  856MOL0     H12974  -1.233   6.451   3.916  0.0072  1.9256 -0.1838
  856MOL0     H12975  -0.996   6.418   3.814  1.5975 -2.8726 -2.9819
  856MOL0     H12976  -0.687   6.080   3.605 -2.9657  1.0215  0.0446
  856MOL0     H12977  -0.430   6.112   3.578 -3.0583 -2.4081 -0.4234
  856MOL0     H12978   1.509   6.401   3.590 -1.3955 -0.8214 -1.1166
  856MOL0     H12979   1.749   6.526   3.575  0.7554  0.8284  0.0307
  856MOL0     H12980   1.991   6.846   3.361 -0.4764  0.2652  1.1464
  856MOL0     H12981   2.236   6.935   3.337  0.9607 -0.0327  1.0852
  856MOL0     H12982   2.636   6.778   3.304 -0.3700 -1.8164 -0.1726
  856MOL0     H12983   2.540   6.692   3.418 -3.3658 -0.2429 -0.5820
  856MOL0     H12984   2.462   6.936   3.501 -0.0205  3.1510 -2.0393
  856MOL0     H12985   2.625   6.870   3.536  1.9279 -1.2700 -2.6876
  856MOL0     H12986   2.579   7.120   3.460  0.9972  2.4352 -2.2389
  856MOL0     H12987   2.534   7.057   3.305  1.2776  0.2369 -0.6595
  856MOL0     H12988   2.817   7.005   3.409  2.4215  1.3613 -1.7293
  856MOL0     H12989   2.747   6.981   3.256 -0.7930 -0.7199 -0.8905
  856MOL0     H12990   2.856   7.394   3.326 -0.9567  0.0572  1.7622
  856MOL0     H12991   2.387   6.553   3.257  2.3302  2.4224 -0.5793
  856MOL0     H12992   2.153   6.447   3.311 -1.3870 -0.3649  0.0922
  857MOL0     O12993   4.512   3.139   0.771  0.3037  0.3231 -0.0539
  857MOL0     C12994   4.538   3.073   0.875 -0.3575 -0.5704  0.7074
  857MOL0     O12995   4.455   3.045   0.975 -0.1320  0.9655  0.0953
  857MOL0     C12996   4.326   3.086   0.976  0.3582 -0.0024  0.6761
  857MOL0     C12997   4.284   3.176   1.063 -0.0469  0.0618 -0.0087
  857MOL0     C12998   4.150   3.236   1.060 -0.0047 -0.1609  0.3078
  857MOL0     C12999   4.065   3.192   0.952  0.4969  0.7223  0.1428
  857MOL0     O13000   3.941   3.257   0.952 -0.4091  0.0170  0.3241
  857MOL0     C13001   3.815   3.181   0.920 -0.5848  0.1667 -0.2471
  857MOL0     C13002   3.694   3.241   0.997 -0.7087  0.1594  0.7471
  857MOL0     C13003   3.565   3.175   0.942  0.1652 -0.7449 -0.6751
  857MOL0     C13004   3.515   3.208   0.798 -0.9445 -0.0019 -0.1559
  857MOL0     C13005   3.378   3.138   0.767  0.0909 -1.1416 -0.0714
  857MOL0     C13006   3.325   3.198   0.633 -0.2857 -0.0241  0.1873
  857MOL0     C13007   3.187   3.145   0.613  0.3704 -0.1323  0.2381
  857MOL0     C13008   3.117   3.188   0.485 -0.0364 -0.2305  0.2000
  857MOL0     N13009   3.012   3.287   0.516 -0.2326  0.3947  0.2175
  857MOL0     C13010   3.024   3.404   0.592  0.1065  0.9743  0.4408
  857MOL0     C13011   2.898   3.461   0.598 -1.2942 -0.0074 -0.2676
  857MOL0     C13012   2.862   3.585   0.679  0.4899 -0.0494 -0.7239
  857MOL0     C13013   2.743   3.665   0.625  0.2466 -0.5288  0.0025
  857MOL0     C13014   2.604   3.595   0.639  0.3028 -0.0226  0.3023
  857MOL0     C13015   2.564   3.537   0.779  0.2132 -0.1751 -0.1989
  857MOL0     O13016   2.473   3.620   0.851 -0.5912 -0.5213 -0.1107
  857MOL0     C13017   2.359   3.647   0.796  0.2926 -0.3046  0.2832
  857MOL0     C13018   2.287   3.761   0.847  0.3878 -0.4869  0.6548
  857MOL0     C13019   2.152   3.784   0.814  0.7125  0.3673  0.2401
  857MOL0     C13020   2.086   3.694   0.729  1.0960  0.0339 -0.2049
  857MOL0     C13021   1.941   3.705   0.713  0.5440  0.1606 -0.0006
  857MOL0     O13022   1.869   3.774   0.814 -0.5980 -0.4265 -0.5356
  857MOL0     C13023   1.732   3.796   0.818  0.5456  0.2279  0.1038
  857MOL0     C13024   1.703   3.904   0.894  0.1128 -0.2934  0.1581
  857MOL0     C13025   1.563   3.930   0.927 -0.6692 -0.1367 -0.0114
  857MOL0     C13026   1.456   3.859   0.870 -0.1707  0.1538  0.0654
  857MOL0     O13027   1.330   3.910   0.902  0.0416 -0.6916 -0.3370
  857MOL0     C13028   1.223   3.856   0.820  0.1426  0.0085 -0.1310
  857MOL0     C13029   1.088   3.920   0.875 -0.5083 -0.1482 -0.3571
  857MOL0     C13030   1.065   3.874   1.027 -0.7544 -0.5492  0.5855
  857MOL0     C13031   0.935   3.934   1.070  0.7862  0.0929 -0.4982
  857MOL0     C13032   0.810   3.854   1.017 -0.0230  0.5617  0.0426
  857MOL0     C13033   0.678   3.925   1.041 -0.2491 -0.2331  0.0073
  857MOL0     C13034   0.553   3.826   1.017 -0.0005  0.0693 -0.0989
  857MOL0     C13035   0.416   3.895   1.041 -0.5266 -0.0011  0.6167
  857MOL0    Cl13036   0.303   3.757   1.032  0.1466 -0.5002 -0.3139
  857MOL0     C13037   1.489   3.747   0.792  0.4476 -1.2538  0.4441
  857MOL0     C13038   1.626   3.721   0.763  0.3014 -0.4384 -0.3691
  857MOL0     O13039   1.892   3.648   0.612  0.0373  0.0124 -0.2307
  857MOL0     C13040   2.154   3.592   0.661 -0.2777 -0.5132 -0.1603
  857MOL0     C13041   2.288   3.573   0.698 -0.6799  0.1983  0.2802
  857MOL0     N13042   2.817   3.374   0.523  0.3592  0.2025  0.1077
  857MOL0     N13043   2.885   3.274   0.473 -0.3464  0.3918  0.2864
  857MOL0     C13044   4.098   3.100   0.862 -0.0502  0.6483  0.6176
  857MOL0     C13045   4.231   3.045   0.879 -0.5640 -0.0773  0.1965
  857MOL0     C13046   4.681   3.027   0.896 -0.5788  0.0997 -0.7389
  857MOL0     C13047   4.731   3.023   1.030 -0.0662  0.2521  0.5164
  857MOL0     C13048   4.864   2.974   1.052  0.2125 -0.8719  0.0667
  857MOL0     C13049   4.946   2.938   0.936  0.8306 -0.1099 -0.4998
  857MOL0     O13050   5.073   2.905   0.971  0.2586  0.4746  0.0964
  857MOL0     C13051   5.174   2.917   0.863  0.0380  0.1080  0.1812
  857MOL0     C13052   5.303   2.905   0.931 -0.4958 -0.6065  0.3851
  857MOL0     C13053   5.412   2.867   0.825 -0.7363  0.4419 -0.4017
  857MOL0     C13054   5.463   2.723   0.864  0.5758  0.1618  0.0725
  857MOL0     C13055   5.544   2.724   0.989 -0.2191  0.3305 -0.0707
  857MOL0     C13056   5.599   2.725   1.102 -0.5470  0.4300 -0.2371
  857MOL0     C13057   4.888   2.951   0.806  0.8306 -0.9118  0.2863
  857MOL0     C13058   4.755   2.991   0.783  0.4747 -0.0227  0.0903
  857MOL0     H13059   4.356   3.209   1.137  1.3082  1.3333 -1.8219
  857MOL0     H13060   4.114   3.308   1.132  0.1033 -0.3892  0.5921
  857MOL0     H13061   3.819   3.076   0.948  2.9081 -0.7288 -3.3140
  857MOL0     H13062   3.809   3.190   0.811  4.0877  1.8044 -0.5991
  857MOL0     H13063   3.700   3.349   0.982  1.2514  0.1471  1.1421
  857MOL0     H13064   3.696   3.221   1.105  4.7741 -1.5594  0.6196
  857MOL0     H13065   3.478   3.202   1.004  1.0044  2.1718 -0.6088
  857MOL0     H13066   3.575   3.066   0.948 -0.3175 -0.7488  0.3031
  857MOL0     H13067   3.496   3.315   0.791 -1.9096  0.1354  2.9846
  857MOL0     H13068   3.593   3.185   0.725  0.7534  3.1078  0.4681
  857MOL0     H13069   3.310   3.149   0.851 -0.0301 -1.8184 -0.0790
  857MOL0     H13070   3.406   3.037   0.737 -3.8287 -2.4561  0.2355
  857MOL0     H13071   3.384   3.179   0.543 -0.4412 -0.2914  0.1411
  857MOL0     H13072   3.330   3.306   0.650  1.2383 -0.2838  1.5918
  857MOL0     H13073   3.189   3.036   0.610  1.9343 -0.1097 -0.5507
  857MOL0     H13074   3.136   3.182   0.702 -0.1645 -1.4049  0.4754
  857MOL0     H13075   3.053   3.104   0.455 -0.4726  0.4687 -0.9152
  857MOL0     H13076   3.193   3.224   0.414  1.8085  0.8729  2.6167
  857MOL0     H13077   3.111   3.448   0.640  1.7032 -1.4664 -0.0714
  857MOL0     H13078   2.944   3.658   0.668  0.2248  0.2827 -0.5249
  857MOL0     H13079   2.857   3.558   0.785  1.7826 -2.4214 -1.2038
  857MOL0     H13080   2.766   3.693   0.522  2.1663 -0.4629  0.4006
  857MOL0     H13081   2.746   3.752   0.690  0.9072 -2.9382  3.4652
  857MOL0     H13082   2.530   3.668   0.606 -1.5072 -2.2202 -0.7652
  857MOL0     H13083   2.596   3.517   0.563  0.9993  0.5150 -0.3387
  857MOL0     H13084   2.657   3.518   0.834 -0.5362 -1.6924  0.6239
  857MOL0     H13085   2.526   3.435   0.767  2.9677 -2.1164  4.6218
  857MOL0     H13086   2.334   3.823   0.923  3.0728  1.1107 -2.1061
  857MOL0     H13087   2.110   3.878   0.850  3.1953  1.5104  0.3641
  857MOL0     H13088   1.781   3.954   0.951 -0.1579 -0.1979  0.4480
  857MOL0     H13089   1.542   4.013   0.994  0.3905  0.1725 -0.0375
  857MOL0     H13090   1.220   3.747   0.812  0.8441 -0.1004  0.8998
  857MOL0     H13091   1.239   3.892   0.718 -0.0911  0.1031 -0.1338
  857MOL0     H13092   1.004   3.877   0.818 -0.4608 -0.0378 -0.5112
  857MOL0     H13093   1.091   4.029   0.868 -1.2216 -0.0030  1.2424
  857MOL0     H13094   1.145   3.913   1.090  1.2607 -0.1777 -2.0002
  857MOL0     H13095   1.059   3.765   1.038 -3.9903 -0.3678  1.3479
  857MOL0     H13096   0.925   3.927   1.179 -0.5062 -0.6418 -0.6413
  857MOL0     H13097   0.924   4.039   1.039 -0.4085  0.3388  0.6218
  857MOL0     H13098   0.816   3.758   1.068 -1.0478 -0.4948 -1.7521
  857MOL0     H13099   0.819   3.832   0.910 -0.0703  0.9621 -0.0480
  857MOL0     H13100   0.667   4.007   0.968 -0.0557 -2.4973 -2.7396
  857MOL0     H13101   0.685   3.954   1.146  2.1616 -2.1315  0.4654
  857MOL0     H13102   0.552   3.778   0.919 -1.7895  0.7732 -0.4739
  857MOL0     H13103   0.561   3.743   1.087  3.0039  0.6134  0.3132
  857MOL0     H13104   0.406   3.954   0.949  3.5358  1.3876  0.8610
  857MOL0     H13105   0.406   3.957   1.130 -2.4114  3.3018 -1.6769
  857MOL0     H13106   1.412   3.686   0.746  0.2732  1.0793 -2.6720
  857MOL0     H13107   1.644   3.639   0.695 -3.5187 -2.1384  0.3903
  857MOL0     H13108   2.102   3.528   0.590  0.1238  0.8989 -1.7846
  857MOL0     H13109   2.331   3.485   0.651  0.2714  0.2594  0.9827
  857MOL0     H13110   4.031   3.070   0.783  1.6653  0.0343 -0.6533
  857MOL0     H13111   4.263   2.968   0.809  1.7662  2.4490 -1.6980
  857MOL0     H13112   4.662   3.046   1.110 -2.1588 -3.5444  0.0227
  857MOL0     H13113   4.910   2.962   1.149  0.8810 -0.0869 -0.1379
  857MOL0     H13114   5.177   3.014   0.812 -0.9590  0.2090  0.3047
  857MOL0     H13115   5.161   2.836   0.790 -1.3366  1.9727 -1.7518
  857MOL0     H13116   5.321   3.005   0.971 -0.9971 -0.4815  0.3114
  857MOL0     H13117   5.303   2.830   1.011  3.6419  0.1416  1.3283
  857MOL0     H13118   5.491   2.943   0.827 -0.3782  0.1200 -1.4631
  857MOL0     H13119   5.363   2.862   0.727  1.3594 -1.8594 -1.4483
  857MOL0     H13120   5.371   2.666   0.880  0.9135 -0.5397 -0.4668
  857MOL0     H13121   5.525   2.676   0.788  0.3080  2.0706 -1.4309
  857MOL0     H13122   5.649   2.727   1.197  0.4652  1.2681 -0.7616
  857MOL0     H13123   4.934   2.920   0.713 -1.9790  0.2153 -1.6524
  857MOL0     H13124   4.720   3.003   0.681  1.2516  1.6398 -0.0103
  858MOL0     O13125   3.340   7.500   5.823 -0.5359  0.6072  0.3634
  858MOL0     C13126   3.339   7.509   5.944 -0.0236  0.6096  0.0320
  858MOL0     O13127   3.241   7.456   6.028  0.4246  0.0819  0.8842
  858MOL0     C13128   3.154   7.369   5.966 -0.4521  0.0381 -0.2576
  858MOL0     C13129   3.170   7.258   5.881 -0.3034 -0.6291  0.1150
  858MOL0     C13130   3.068   7.185   5.818 -0.3811 -0.2644  0.0299
  858MOL0     C13131   2.935   7.215   5.850  0.3452  0.2096  0.5218
  858MOL0     O13132   2.823   7.161   5.785 -0.3905 -0.6486  0.0079
  858MOL0     C13133   2.845   7.101   5.658 -0.4343  0.0769  0.2120
  858MOL0     C13134   2.704   7.089   5.599  0.4413  0.0096  0.8625
  858MOL0     C13135   2.616   6.994   5.678  0.8904 -0.0800  0.1113
  858MOL0     C13136   2.480   6.977   5.598 -0.3622 -0.3516  0.3255
  858MOL0     C13137   2.380   6.869   5.655 -0.0122 -0.1599 -0.1976
  858MOL0     C13138   2.257   6.869   5.568 -0.1552 -1.1638  0.2882
  858MOL0     C13139   2.144   6.780   5.617  0.5581  0.3402  0.3931
  858MOL0     C13140   2.017   6.795   5.536  0.1644  0.0978  0.2024
  858MOL0     N13141   1.924   6.698   5.602  0.9430 -0.1752  0.2118
  858MOL0     C13142   1.908   6.561   5.594 -0.0069 -0.5874  0.5149
  858MOL0     C13143   1.805   6.541   5.686  0.1708 -0.6983  0.0334
  858MOL0     C13144   1.750   6.406   5.725  0.1210 -0.2294  0.6324
  858MOL0     C13145   1.682   6.399   5.867 -0.9692 -0.6021 -0.3623
  858MOL0     C13146   1.539   6.443   5.843  0.2268  0.3518 -0.4675
  858MOL0     C13147   1.472   6.313   5.797 -0.2069 -1.0987 -0.3994
  858MOL0     O13148   1.339   6.352   5.755 -0.2325  0.3135 -0.4213
  858MOL0     C13149   1.238   6.385   5.849 -0.9663 -0.0951  0.2841
  858MOL0     C13150   1.239   6.334   5.986  0.7049  0.3381  0.0067
  858MOL0     C13151   1.117   6.331   6.049 -0.0925  1.2806 -0.1156
  858MOL0     C13152   1.000   6.383   5.997  0.0440 -0.8979 -0.1832
  858MOL0     C13153   0.871   6.378   6.085 -0.1689  0.5727  0.1717
  858MOL0     O13154   0.869   6.299   6.190 -0.3236 -0.1171 -0.2750
  858MOL0     C13155   0.767   6.307   6.284  0.5092  0.1386  0.3409
  858MOL0     C13156   0.767   6.387   6.398 -0.5812  0.2302  0.1474
  858MOL0     C13157   0.657   6.402   6.482  0.0182 -0.4408 -0.8401
  858MOL0     C13158   0.537   6.342   6.452  0.0456  0.3372 -0.2461
  858MOL0     O13159   0.435   6.342   6.546  0.3998  0.1258 -0.7341
  858MOL0     C13160   0.299   6.316   6.494 -1.4199  0.1764  0.9235
  858MOL0     C13161   0.191   6.392   6.567 -0.8478  0.0421 -0.3566
  858MOL0     C13162   0.058   6.415   6.485 -0.2829  0.5569  0.5010
  858MOL0     C13163  -0.055   6.459   6.574 -0.1754  0.7325 -0.0219
  858MOL0     C13164  -0.188   6.504   6.513  0.4936 -0.8323  0.1640
  858MOL0     C13165  -0.260   6.604   6.607 -0.7150 -0.5408  0.2893
  858MOL0     C13166  -0.378   6.684   6.548 -0.4221  0.4032 -1.0453
  858MOL0     C13167  -0.506   6.592   6.542 -1.1316  0.6012 -1.1786
  858MOL0    Cl13168  -0.507   6.508   6.385 -0.0800 -0.5521 -0.3383
  858MOL0     C13169   0.536   6.260   6.337 -0.0451 -1.2888  0.3474
  858MOL0     C13170   0.648   6.250   6.249 -0.1747 -0.3822 -0.4720
  858MOL0     O13171   0.771   6.436   6.045  0.3868  0.1491 -0.0838
  858MOL0     C13172   1.009   6.446   5.879 -0.5048  0.0077 -0.2453
  858MOL0     C13173   1.120   6.447   5.799 -0.2863 -0.4931  0.1302
  858MOL0     N13174   1.758   6.661   5.734  0.2563 -0.1286  0.4479
  858MOL0     N13175   1.822   6.755   5.680  0.0201  0.1920  0.2707
  858MOL0     C13176   2.919   7.311   5.949  0.0348  0.5377  0.1261
  858MOL0     C13177   3.020   7.390   5.999 -0.1464  0.1940  0.3494
  858MOL0     C13178   3.447   7.574   6.022  0.5146 -0.7304 -0.0137
  858MOL0     C13179   3.555   7.622   5.954  0.8981 -0.5816 -0.4575
  858MOL0     C13180   3.655   7.700   6.021 -0.9216  0.9101  0.8870
  858MOL0     C13181   3.652   7.733   6.153  0.5113  0.6700  0.3720
  858MOL0     O13182   3.763   7.804   6.214 -0.6694  0.6350 -0.1261
  858MOL0     C13183   3.771   7.821   6.354 -0.1713  0.0090 -1.0687
  858MOL0     C13184   3.905   7.890   6.386  0.3800  0.9910  0.7224
  858MOL0     C13185   4.020   7.814   6.334 -0.3993  0.4245 -0.6448
  858MOL0     C13186   4.157   7.863   6.403  0.1133  0.7377 -0.0814
  858MOL0     C13187   4.181   8.015   6.389  0.0947 -0.1907 -0.3363
  858MOL0     C13188   4.203   8.136   6.386  0.5475  0.5190 -0.1067
  858MOL0     C13189   3.549   7.668   6.224 -0.1628 -0.3261 -0.1444
  858MOL0     C13190   3.442   7.603   6.158  0.5376  0.6776 -0.5505
  858MOL0     H13191   3.270   7.221   5.859  0.8402  3.4455 -2.5851
  858MOL0     H13192   3.107   7.122   5.738 -1.4944  0.5177 -1.1709
  858MOL0     H13193   2.903   7.008   5.662 -2.0280 -0.9431  0.7493
  858MOL0     H13194   2.888   7.178   5.593 -1.8759  0.6971 -0.0405
  858MOL0     H13195   2.704   7.048   5.498  2.1370 -1.5830  1.4509
  858MOL0     H13196   2.662   7.190   5.607 -0.1738 -0.3058  1.7669
  858MOL0     H13197   2.605   7.023   5.783  3.1011  3.7251 -0.5341
  858MOL0     H13198   2.669   6.898   5.679 -0.6968 -0.9925  0.9152
  858MOL0     H13199   2.437   7.077   5.599 -1.6287 -0.8877  0.9846
  858MOL0     H13200   2.502   6.956   5.493  0.9683  1.1600  0.2610
  858MOL0     H13201   2.354   6.903   5.756  0.5146 -1.1017  0.2586
  858MOL0     H13202   2.424   6.770   5.660 -0.5296 -0.4782 -1.4350
  858MOL0     H13203   2.287   6.835   5.468 -1.6234 -2.2106  0.1612
  858MOL0     H13204   2.224   6.973   5.559  1.0235 -0.4353  3.2826
  858MOL0     H13205   2.170   6.674   5.623 -1.7369 -0.4264 -1.5904
  858MOL0     H13206   2.111   6.798   5.720 -1.1905 -3.1032  0.6113
  858MOL0     H13207   2.026   6.771   5.430 -0.7239 -1.8949  0.5348
  858MOL0     H13208   1.996   6.902   5.529  0.9260  0.2562  0.2535
  858MOL0     H13209   1.971   6.487   5.547  2.2711 -0.3759  3.0188
  858MOL0     H13210   1.835   6.338   5.723 -1.4498 -2.2406 -0.1278
  858MOL0     H13211   1.682   6.367   5.649  1.9132  0.1278 -1.2675
  858MOL0     H13212   1.737   6.472   5.925 -0.3333 -1.1714 -0.2377
  858MOL0     H13213   1.684   6.307   5.926 -3.2662  0.4317  1.5043
  858MOL0     H13214   1.490   6.496   5.925  1.2351  2.0607 -0.9233
  858MOL0     H13215   1.527   6.523   5.770 -0.6939  1.9547  1.3733
  858MOL0     H13216   1.468   6.238   5.877 -2.3194 -2.6209 -1.8461
  858MOL0     H13217   1.522   6.269   5.711 -1.8646  0.0105 -1.9867
  858MOL0     H13218   1.327   6.285   6.028  0.1065  0.4287  1.4296
  858MOL0     H13219   1.116   6.271   6.139  1.0718  0.8008 -0.3985
  858MOL0     H13220   0.860   6.431   6.432  0.2185 -2.1449  1.2496
  858MOL0     H13221   0.654   6.468   6.569 -0.6356  1.4899 -2.2406
  858MOL0     H13222   0.270   6.211   6.501  1.6714 -0.6595  3.8920
  858MOL0     H13223   0.296   6.357   6.393 -0.0797 -0.6514  0.5359
  858MOL0     H13224   0.232   6.490   6.595  0.1883 -0.6740  0.7083
  858MOL0     H13225   0.166   6.354   6.667 -0.1313  1.9676  0.6161
  858MOL0     H13226   0.035   6.317   6.442 -0.8817  0.1219  1.7593
  858MOL0     H13227   0.073   6.491   6.408  2.5375 -0.5336 -0.1411
  858MOL0     H13228  -0.080   6.370   6.633 -3.3757  0.1614 -1.9714
  858MOL0     H13229  -0.014   6.532   6.644 -1.1513  0.8223  0.4815
  858MOL0     H13230  -0.254   6.420   6.489  0.4675 -0.2932 -1.7681
  858MOL0     H13231  -0.167   6.551   6.417  0.2964 -1.2687 -0.0913
  858MOL0     H13232  -0.184   6.677   6.636 -0.1038 -0.9971 -0.1492
  858MOL0     H13233  -0.294   6.553   6.698 -4.6997  0.4407 -0.4461
  858MOL0     H13234  -0.399   6.771   6.611  0.0237  0.9123 -1.5934
  858MOL0     H13235  -0.352   6.734   6.455  3.5689 -0.1180 -0.3770
  858MOL0     H13236  -0.603   6.640   6.554 -0.8069  0.8061  1.1717
  858MOL0     H13237  -0.513   6.523   6.626 -0.1017  1.1224 -0.6468
  858MOL0     H13238   0.442   6.210   6.315 -1.3770  0.6730  1.2541
  858MOL0     H13239   0.641   6.220   6.145  1.5258  0.4535 -0.8752
  858MOL0     H13240   0.919   6.491   5.837 -1.3161  1.6120  2.8490
  858MOL0     H13241   1.117   6.468   5.693  0.1864  0.2336  0.2500
  858MOL0     H13242   2.813   7.330   5.964 -0.3026 -1.7547  1.0344
  858MOL0     H13243   2.978   7.475   6.052 -0.9280  1.5356 -2.2767
  858MOL0     H13244   3.569   7.607   5.847 -1.5885 -1.5373 -0.7084
  858MOL0     H13245   3.738   7.727   5.957 -0.9573 -1.6283 -0.3320
  858MOL0     H13246   3.767   7.726   6.407  4.8934 -1.1267 -2.2363
  858MOL0     H13247   3.692   7.884   6.396  1.8891  2.9580 -1.3059
  858MOL0     H13248   3.903   7.986   6.334  0.6965  0.9530  0.6333
  858MOL0     H13249   3.921   7.917   6.491  0.8989  2.7896  0.2236
  858MOL0     H13250   4.025   7.827   6.226  0.8829  0.6990 -0.5712
  858MOL0     H13251   4.013   7.706   6.354  0.0512  0.1140 -2.0700
  858MOL0     H13252   4.150   7.818   6.503  0.6262  1.2809  0.2001
  858MOL0     H13253   4.239   7.808   6.357 -1.3900  0.8853 -3.2505
  858MOL0     H13254   4.209   8.243   6.378  1.4200  0.6606  1.9539
  858MOL0     H13255   3.560   7.658   6.332  0.9480  0.5110 -0.1602
  858MOL0     H13256   3.357   7.563   6.213 -0.5677  0.3006 -2.4568
  859MOL0     O13257   3.073   2.060   1.277 -0.2753 -0.1782 -0.7388
  859MOL0     C13258   3.146   2.127   1.205 -0.4071 -0.7085  0.6006
  859MOL0     O13259   3.283   2.129   1.208 -0.1287  0.8030  0.7139
  859MOL0     C13260   3.343   2.057   1.303  0.5247 -0.6910 -0.0671
  859MOL0     C13261   3.347   2.102   1.440 -0.1161 -0.7740  0.1940
  859MOL0     C13262   3.429   2.027   1.533 -0.2255 -0.5550  0.0563
  859MOL0     C13263   3.505   1.921   1.488 -0.3812  0.4121  0.8527
  859MOL0     O13264   3.574   1.850   1.578 -0.2390  0.0597 -0.3863
  859MOL0     C13265   3.700   1.798   1.534 -0.1444  0.1362 -0.4292
  859MOL0     C13266   3.787   1.814   1.665  0.4880 -0.1331  0.3607
  859MOL0     C13267   3.920   1.755   1.641 -0.3463  0.7515  0.7463
  859MOL0     C13268   4.028   1.792   1.732 -0.0119  0.0957 -0.1859
  859MOL0     C13269   4.164   1.769   1.665 -0.2349  0.1975  0.0069
  859MOL0     C13270   4.275   1.837   1.751  0.7744 -0.7014 -0.3468
  859MOL0     C13271   4.397   1.851   1.653 -0.3376 -0.0110 -0.1537
  859MOL0     C13272   4.525   1.884   1.741 -1.0532 -0.2512  0.3185
  859MOL0     N13273   4.603   1.771   1.768  0.1999  0.2057 -0.3576
  859MOL0     C13274   4.717   1.733   1.686 -0.3363 -0.0335  0.4084
  859MOL0     C13275   4.761   1.614   1.746  0.4971 -0.7630 -0.5180
  859MOL0     C13276   4.878   1.533   1.692 -0.1064  0.2753  0.1608
  859MOL0     C13277   5.020   1.570   1.750  0.1155 -0.4388  0.1462
  859MOL0     C13278   5.018   1.569   1.905  0.0742  0.0489 -0.2095
  859MOL0     C13279   4.987   1.433   1.962  0.2358  0.0588 -0.0949
  859MOL0     O13280   5.082   1.341   1.899 -0.4040 -0.7781  0.4904
  859MOL0     C13281   5.083   1.206   1.937  0.6328 -0.2610 -0.6472
  859MOL0     C13282   5.150   1.112   1.868  0.6298 -0.0863  0.6330
  859MOL0     C13283   5.155   0.976   1.911  0.1073 -0.3905 -0.6008
  859MOL0     C13284   5.095   0.938   2.023 -0.0869  0.1174  0.2205
  859MOL0     C13285   5.103   0.794   2.082 -1.1848  0.0517 -0.8822
  859MOL0     O13286   5.005   0.766   2.180  0.2390  0.1019 -0.6409
  859MOL0     C13287   4.983   0.630   2.203  0.1153  0.2953  0.7245
  859MOL0     C13288   4.940   0.539   2.105 -1.5134 -0.6151  0.2844
  859MOL0     C13289   4.903   0.409   2.142 -0.2012 -0.8924 -0.9269
  859MOL0     C13290   4.887   0.370   2.278  0.1101 -0.4352 -0.7018
  859MOL0     O13291   4.821   0.265   2.326 -0.2908 -0.1125  0.6619
  859MOL0     C13292   4.776   0.160   2.237 -0.9054 -0.6903  0.2655
  859MOL0     C13293   4.721   0.054   2.324  0.7445 -0.5142  0.7089
  859MOL0     C13294   4.670  -0.061   2.248  0.1103  0.4135 -0.2314
  859MOL0     C13295   4.768  -0.126   2.147 -0.5688  0.0781 -0.2338
  859MOL0     C13296   4.722  -0.265   2.101 -0.0542 -0.3735 -1.4287
  859MOL0     C13297   4.749  -0.373   2.206 -0.1679  0.1289 -0.0618
  859MOL0     C13298   4.706  -0.499   2.148  0.2443  0.3460  0.5321
  859MOL0     C13299   4.728  -0.609   2.255 -0.2088 -0.8717 -0.8463
  859MOL0    Cl13300   4.743  -0.763   2.167  0.2739  0.2189 -0.3631
  859MOL0     C13301   4.940   0.454   2.373  0.1430 -0.5478 -0.6461
  859MOL0     C13302   4.997   0.581   2.341 -0.0706  0.1957  0.6365
  859MOL0     O13303   5.179   0.710   2.027  0.1291  0.1936 -0.1828
  859MOL0     C13304   5.019   1.031   2.091  0.2676 -0.3383  0.9531
  859MOL0     C13305   5.008   1.163   2.049 -0.0501 -0.4792  0.0361
  859MOL0     N13306   4.676   1.587   1.855  0.4416  0.2602 -0.6212
  859MOL0     N13307   4.583   1.673   1.865 -0.2175  0.1461 -0.5762
  859MOL0     C13308   3.509   1.885   1.354  0.2115  0.0292 -0.8766
  859MOL0     C13309   3.434   1.958   1.259  0.3059  0.3818  0.4961
  859MOL0     C13310   3.073   2.213   1.106 -0.9019 -0.8839  0.6937
  859MOL0     C13311   3.140   2.323   1.028 -0.5754 -0.2985 -0.9007
  859MOL0     C13312   3.064   2.422   0.958 -0.2152  0.2451  0.3729
  859MOL0     C13313   2.929   2.411   0.948  0.1976 -0.0860  0.7081
  859MOL0     O13314   2.868   2.513   0.877 -0.2677  0.4913 -0.1763
  859MOL0     C13315   2.730   2.498   0.854 -0.0603  0.7120 -0.2545
  859MOL0     C13316   2.694   2.622   0.775 -0.4873  0.3789 -0.0111
  859MOL0     C13317   2.546   2.653   0.759  0.2158  0.7386 -0.0344
  859MOL0     C13318   2.503   2.597   0.625 -0.7559 -0.6752 -0.0726
  859MOL0     C13319   2.355   2.606   0.614  0.2347 -0.2735 -0.3726
  859MOL0     C13320   2.231   2.630   0.597  0.4965  0.3018 -1.4238
  859MOL0     C13321   2.866   2.303   1.012 -0.3400  0.8785  0.2820
  859MOL0     C13322   2.932   2.206   1.087  0.8192 -0.6859  1.0175
  859MOL0     H13323   3.285   2.184   1.474  0.7661  0.3713 -0.8940
  859MOL0     H13324   3.436   2.060   1.636 -1.5373  0.1552 -0.0637
  859MOL0     H13325   3.749   1.855   1.454  2.9045  1.1819  1.9804
  859MOL0     H13326   3.688   1.694   1.505 -1.8619 -0.2807  1.5251
  859MOL0     H13327   3.737   1.769   1.751 -0.8585  0.7667  0.0778
  859MOL0     H13328   3.797   1.922   1.679  3.8616  0.2295 -3.0624
  859MOL0     H13329   3.957   1.781   1.541 -2.7861 -0.4234 -0.5465
  859MOL0     H13330   3.919   1.646   1.633 -2.2232  0.6441  1.9606
  859MOL0     H13331   4.024   1.896   1.765  2.5098 -0.6213  2.9043
  859MOL0     H13332   4.023   1.740   1.828  1.7739 -0.2897 -0.2633
  859MOL0     H13333   4.177   1.802   1.561 -2.3048 -0.9326 -0.6732
  859MOL0     H13334   4.173   1.660   1.667 -0.7323  0.0325 -2.7434
  859MOL0     H13335   4.295   1.782   1.844 -2.0018  0.7660  1.2488
  859MOL0     H13336   4.246   1.935   1.789 -0.0644 -1.0575 -0.0247
  859MOL0     H13337   4.421   1.760   1.597 -1.7012 -0.2182 -0.4314
  859MOL0     H13338   4.383   1.940   1.591 -0.7605  0.0374  0.0114
  859MOL0     H13339   4.495   1.945   1.827 -3.3177  0.9452 -1.2179
  859MOL0     H13340   4.595   1.950   1.688 -0.6630  0.3548  1.5474
  859MOL0     H13341   4.776   1.791   1.615  1.7734  0.9837  2.8569
  859MOL0     H13342   4.895   1.546   1.585  0.7816  0.4088  0.3107
  859MOL0     H13343   4.867   1.426   1.709 -2.1320  0.6851  2.0146
  859MOL0     H13344   5.038   1.676   1.729 -0.5940  0.1559  2.3254
  859MOL0     H13345   5.098   1.507   1.705  0.5708 -0.0221  0.3428
  859MOL0     H13346   5.114   1.606   1.943  0.7827 -2.5429  0.7529
  859MOL0     H13347   4.950   1.648   1.934  0.8747  0.8271 -0.4032
  859MOL0     H13348   4.883   1.405   1.943 -0.2577  2.2679 -0.9623
  859MOL0     H13349   5.007   1.429   2.070 -4.8921 -0.4268  1.0789
  859MOL0     H13350   5.218   1.141   1.789  0.3098 -0.4057  0.2394
  859MOL0     H13351   5.216   0.907   1.854  2.1789  1.5106 -0.8085
  859MOL0     H13352   4.930   0.557   1.998 -0.5022 -1.1666  0.0766
  859MOL0     H13353   4.856   0.341   2.071 -3.9502  0.2436  0.2119
  859MOL0     H13354   4.862   0.118   2.184 -0.0364 -0.6249  1.5738
  859MOL0     H13355   4.702   0.207   2.173 -0.4153 -1.0398 -0.5832
  859MOL0     H13356   4.639   0.097   2.383  0.9492  0.6791  0.1560
  859MOL0     H13357   4.803   0.017   2.386  0.2793 -1.1436  0.9611
  859MOL0     H13358   4.583  -0.036   2.186  0.8098 -0.4219 -1.5879
  859MOL0     H13359   4.637  -0.132   2.325  0.9398 -3.0198 -2.8195
  859MOL0     H13360   4.771  -0.062   2.059  0.9197 -0.9410 -0.9608
  859MOL0     H13361   4.868  -0.130   2.191 -0.3871  1.1566 -0.5452
  859MOL0     H13362   4.777  -0.281   2.008  0.7758  0.2256 -1.0562
  859MOL0     H13363   4.614  -0.255   2.085 -0.1140  0.3812 -0.6279
  859MOL0     H13364   4.685  -0.355   2.293 -3.3167  2.6483 -2.6089
  859MOL0     H13365   4.857  -0.387   2.218 -0.0770  0.3760 -0.5637
  859MOL0     H13366   4.601  -0.491   2.118  0.4559  0.8896 -0.0859
  859MOL0     H13367   4.773  -0.502   2.062  0.9107 -1.8069  1.0698
  859MOL0     H13368   4.653  -0.603   2.335  1.4293  0.0982  0.6810
  859MOL0     H13369   4.819  -0.586   2.310 -1.4329  1.1182  0.4632
  859MOL0     H13370   4.919   0.431   2.477 -0.1388 -1.3066 -0.8696
  859MOL0     H13371   5.026   0.647   2.422 -0.1765 -0.1725  0.9756
  859MOL0     H13372   4.968   0.997   2.180  1.3099 -0.5831  1.4712
  859MOL0     H13373   4.932   1.226   2.094 -0.8751  0.0692 -2.0245
  859MOL0     H13374   3.580   1.812   1.316  0.0754 -0.7995  0.3717
  859MOL0     H13375   3.445   1.939   1.152 -0.9380  1.3076  0.1754
  859MOL0     H13376   3.246   2.341   1.048 -0.7201 -0.9058  0.5858
  859MOL0     H13377   3.112   2.506   0.910  0.0463  1.6558  2.9131
  859MOL0     H13378   2.672   2.491   0.946  1.7396  2.0151  1.0714
  859MOL0     H13379   2.708   2.408   0.796 -1.6305  0.2931  0.9399
  859MOL0     H13380   2.741   2.703   0.832 -1.1282  1.1501 -0.5622
  859MOL0     H13381   2.743   2.624   0.677  2.0224 -0.6519  1.1089
  859MOL0     H13382   2.532   2.761   0.751 -0.4086  0.6479 -0.2205
  859MOL0     H13383   2.481   2.617   0.839  2.0416  3.9458  3.1821
  859MOL0     H13384   2.545   2.659   0.546  1.1107 -0.3222  1.1441
  859MOL0     H13385   2.537   2.495   0.607 -1.5906 -1.1379  0.8591
  859MOL0     H13386   2.128   2.651   0.578  0.9299  3.6638 -0.6715
  859MOL0     H13387   2.761   2.289   0.989 -0.7253  1.1525  1.7373
  859MOL0     H13388   2.878   2.124   1.130 -0.2724 -1.0251 -0.8748
  860MOL0     O13389   4.593   5.261   5.568 -0.4397  0.1465 -0.4551
  860MOL0     C13390   4.611   5.264   5.687 -0.4931  0.3183 -0.0806
  860MOL0     O13391   4.528   5.213   5.785 -0.6520 -0.1311 -0.4263
  860MOL0     C13392   4.416   5.152   5.740  0.6809  0.1115 -0.6066
  860MOL0     C13393   4.413   5.047   5.644 -0.6001 -0.0520 -1.0908
  860MOL0     C13394   4.289   4.986   5.601 -0.9831 -1.2285 -1.3130
  860MOL0     C13395   4.170   5.013   5.676  1.2071 -0.2133  0.5336
  860MOL0     O13396   4.053   4.948   5.634  0.0675  0.2899 -0.3372
  860MOL0     C13397   3.950   5.029   5.578  0.4099 -0.1117 -0.4109
  860MOL0     C13398   3.811   4.962   5.574 -0.3010  0.4803 -0.4834
  860MOL0     C13399   3.761   4.951   5.711 -0.4261  0.2063  0.0602
  860MOL0     C13400   3.611   4.915   5.711 -0.2099  0.4111  0.7294
  860MOL0     C13401   3.548   4.898   5.854  1.0875 -0.7304  0.4497
  860MOL0     C13402   3.395   4.917   5.845 -0.7666  0.6668  0.2415
  860MOL0     C13403   3.332   4.787   5.793 -0.6556 -0.5828  0.8287
  860MOL0     C13404   3.193   4.750   5.855  0.4666 -0.1270 -0.7420
  860MOL0     N13405   3.080   4.826   5.805 -0.5103 -0.0905  0.6462
  860MOL0     C13406   3.043   4.950   5.848  0.2954  1.1088 -0.2003
  860MOL0     C13407   2.929   4.978   5.776 -0.1981  0.3025  0.5268
  860MOL0     C13408   2.869   5.110   5.812  0.3467 -0.1170 -0.2107
  860MOL0     C13409   2.735   5.123   5.726 -0.0436 -0.6343  0.6875
  860MOL0     C13410   2.621   5.027   5.771  0.0063 -0.0879  0.0675
  860MOL0     C13411   2.591   5.041   5.922  0.1846  0.2751 -0.1346
  860MOL0     O13412   2.464   4.965   5.928 -0.7273 -0.0827  0.4325
  860MOL0     C13413   2.348   5.016   5.977 -0.3560  0.1129 -0.4912
  860MOL0     C13414   2.249   4.929   5.984 -0.2118 -0.4562 -0.3340
  860MOL0     C13415   2.128   4.963   6.040  0.7608 -0.8890  0.2922
  860MOL0     C13416   2.100   5.094   6.078 -0.0186 -0.5308 -0.4324
  860MOL0     C13417   1.965   5.130   6.120 -0.3702 -0.3897  0.0903
  860MOL0     O13418   1.857   5.047   6.084 -0.4822  0.8098 -0.1914
  860MOL0     C13419   1.757   5.044   6.172  0.7467  0.9592 -0.2333
  860MOL0     C13420   1.728   4.929   6.249 -0.4986  0.1409  0.5202
  860MOL0     C13421   1.618   4.918   6.325  0.5059 -0.0513 -0.2829
  860MOL0     C13422   1.527   5.026   6.322  0.0225 -0.1634  0.6894
  860MOL0     O13423   1.404   5.033   6.388  0.6080 -0.0602  0.3926
  860MOL0     C13424   1.350   4.909   6.439  1.3378  0.3264 -0.9627
  860MOL0     C13425   1.309   4.945   6.589 -0.4163 -0.2392 -0.6002
  860MOL0     C13426   1.170   5.028   6.599 -0.4123  0.3041  0.4427
  860MOL0     C13427   1.069   4.954   6.687 -0.2796  0.2279  0.1234
  860MOL0     C13428   0.922   5.012   6.658 -0.1718  0.9651 -0.5041
  860MOL0     C13429   0.918   5.166   6.683  0.0157  0.7752  0.1902
  860MOL0     C13430   0.772   5.202   6.732 -0.0793 -0.0368 -0.0980
  860MOL0     C13431   0.762   5.353   6.772  0.5773 -0.3806  0.1101
  860MOL0    Cl13432   0.871   5.377   6.915  0.0119  0.0698  0.0693
  860MOL0     C13433   1.543   5.135   6.241 -1.1617  0.6343  0.3114
  860MOL0     C13434   1.659   5.142   6.167  0.5557  0.6769 -0.4848
  860MOL0     O13435   1.958   5.230   6.192 -0.4550  0.2824 -0.7382
  860MOL0     C13436   2.205   5.186   6.070  0.7677 -1.0967  0.2694
  860MOL0     C13437   2.334   5.151   6.017  0.8155 -0.3128 -0.1415
  860MOL0     N13438   2.894   4.864   5.693 -0.5649  0.3310  0.1667
  860MOL0     N13439   2.989   4.776   5.712  0.2119  0.6638  0.3692
  860MOL0     C13440   4.178   5.106   5.779  0.1659  0.2598  0.7689
  860MOL0     C13441   4.293   5.186   5.804 -0.0444  0.7100 -0.5898
  860MOL0     C13442   4.732   5.332   5.739 -0.4609  0.1874  0.6755
  860MOL0     C13443   4.787   5.436   5.660 -0.0178  0.7318 -0.0566
  860MOL0     C13444   4.884   5.524   5.720 -0.3234 -0.1457  0.0704
  860MOL0     C13445   4.932   5.502   5.847  0.2543 -0.1854 -1.3485
  860MOL0     O13446   5.026   5.596   5.890 -0.3902  0.8878 -0.1668
  860MOL0     C13447   5.070   5.592   6.022  0.2381 -0.4856 -0.2441
  860MOL0     C13448   5.182   5.497   6.068  0.2979 -0.0765 -0.6924
  860MOL0     C13449   5.190   5.498   6.230  0.1884 -0.8565 -0.0361
  860MOL0     C13450   5.335   5.510   6.282  0.6106  0.3884  0.0624
  860MOL0     C13451   5.415   5.632   6.244  0.0266 -0.0289  0.9355
  860MOL0     C13452   5.478   5.736   6.221 -0.0152 -0.0597  0.0435
  860MOL0     C13453   4.892   5.385   5.915  0.0437  0.3377  0.0375
  860MOL0     C13454   4.792   5.307   5.860  0.6435  0.3451  0.0167
  860MOL0     H13455   4.506   5.014   5.599 -0.6180 -0.8437 -0.5643
  860MOL0     H13456   4.294   4.912   5.522  0.4062 -0.7942 -1.6525
  860MOL0     H13457   3.970   5.039   5.470  1.2840 -2.8186 -0.5685
  860MOL0     H13458   3.941   5.129   5.622 -0.2515  0.1531 -1.1167
  860MOL0     H13459   3.833   4.858   5.546 -2.6233 -0.0609 -0.4782
  860MOL0     H13460   3.743   5.013   5.505 -1.0146  0.4095  0.1601
  860MOL0     H13461   3.775   5.047   5.762  1.6891 -0.9650  1.8558
  860MOL0     H13462   3.820   4.888   5.778 -1.2575 -2.1724 -1.3262
  860MOL0     H13463   3.559   4.997   5.660 -1.6392 -0.3489  0.9309
  860MOL0     H13464   3.610   4.822   5.653  3.1896  1.9328 -2.2088
  860MOL0     H13465   3.582   4.971   5.927  0.6128  2.0395 -1.9347
  860MOL0     H13466   3.572   4.797   5.891  0.8061 -0.7354  0.6209
  860MOL0     H13467   3.374   5.010   5.791 -0.4744  1.5808  1.6683
  860MOL0     H13468   3.360   4.924   5.948  0.8281 -1.3418  0.9745
  860MOL0     H13469   3.325   4.794   5.684  2.9394  2.5838  0.6135
  860MOL0     H13470   3.400   4.702   5.799  1.1615  0.5992 -1.5549
  860MOL0     H13471   3.203   4.781   5.959  0.2773  0.1401 -0.8021
  860MOL0     H13472   3.178   4.642   5.850 -1.8036 -0.2740  4.0504
  860MOL0     H13473   3.093   5.009   5.924  0.8110 -1.5139  1.6259
  860MOL0     H13474   2.931   5.187   5.765 -0.5797  0.4924 -0.4767
  860MOL0     H13475   2.858   5.127   5.919  1.9427 -0.0420 -0.0346
  860MOL0     H13476   2.743   5.130   5.617 -1.2865  1.6454  0.6979
  860MOL0     H13477   2.713   5.227   5.748 -1.9357 -0.5550 -1.2007
  860MOL0     H13478   2.528   5.047   5.717 -0.9633 -3.5803  0.2257
  860MOL0     H13479   2.646   4.923   5.748  1.0067  0.7324 -3.1179
  860MOL0     H13480   2.581   5.148   5.945 -0.7597 -0.1768  1.6943
  860MOL0     H13481   2.664   5.007   5.996 -0.1430 -0.3415 -0.0930
  860MOL0     H13482   2.274   4.824   5.971 -1.2258 -1.1526  2.4848
  860MOL0     H13483   2.051   4.887   6.035  2.1888 -2.3247 -1.0200
  860MOL0     H13484   1.811   4.859   6.246 -0.5090  0.1540 -0.5217
  860MOL0     H13485   1.601   4.830   6.387 -5.3342  0.5475 -0.4809
  860MOL0     H13486   1.412   4.820   6.451  0.8762  0.2901  1.6774
  860MOL0     H13487   1.261   4.877   6.384  1.8952 -1.2631 -0.9901
  860MOL0     H13488   1.396   4.994   6.634 -0.0015 -2.3759  1.1071
  860MOL0     H13489   1.300   4.852   6.646  0.8609 -0.1088 -0.1562
  860MOL0     H13490   1.129   5.056   6.502 -1.2918  3.4520  1.5762
  860MOL0     H13491   1.189   5.127   6.642  0.2288  0.5030 -0.2776
  860MOL0     H13492   1.075   4.848   6.662 -2.3690 -0.2279  1.3460
  860MOL0     H13493   1.098   4.966   6.791 -1.0943  0.1646  0.3596
  860MOL0     H13494   0.859   4.949   6.722  2.4895 -4.2418 -2.4226
  860MOL0     H13495   0.886   4.997   6.555 -0.6336 -1.4688 -0.0365
  860MOL0     H13496   0.950   5.219   6.593 -0.5895  1.5569  0.4192
  860MOL0     H13497   0.985   5.171   6.769  0.0753 -1.2407  0.3009
  860MOL0     H13498   0.696   5.167   6.661  0.8186 -0.7815 -0.7252
  860MOL0     H13499   0.742   5.152   6.824 -2.3901 -3.0770 -2.2896
  860MOL0     H13500   0.657   5.382   6.778  0.4402 -0.0578 -2.5882
  860MOL0     H13501   0.796   5.415   6.688  0.0180  1.9050  1.4880
  860MOL0     H13502   1.461   5.206   6.240 -3.5739 -1.9467  1.6164
  860MOL0     H13503   1.657   5.218   6.090 -0.4599 -2.0853 -3.3902
  860MOL0     H13504   2.196   5.292   6.092 -0.3910 -1.1554  0.1339
  860MOL0     H13505   2.402   5.233   5.997 -0.5026  0.9930  0.4816
  860MOL0     H13506   4.095   5.136   5.841  0.8708  2.5393  0.6839
  860MOL0     H13507   4.284   5.269   5.873  2.0891  1.0943 -0.7236
  860MOL0     H13508   4.756   5.455   5.558  0.2386 -0.2671 -0.3285
  860MOL0     H13509   4.931   5.611   5.675 -0.2693  0.3647  1.0912
  860MOL0     H13510   4.979   5.571   6.080 -0.0607  2.7083  0.6072
  860MOL0     H13511   5.098   5.693   6.053  2.3798 -0.8053 -1.0032
  860MOL0     H13512   5.161   5.393   6.040 -1.5133 -1.0334  3.5064
  860MOL0     H13513   5.280   5.533   6.035  0.6695  1.3023  1.7036
  860MOL0     H13514   5.153   5.398   6.255 -1.1223 -1.0152 -2.2641
  860MOL0     H13515   5.135   5.578   6.281  3.0580  1.2301  0.0042
  860MOL0     H13516   5.326   5.509   6.391  1.6206  0.5627  0.1573
  860MOL0     H13517   5.393   5.425   6.245 -0.8298 -1.2999  1.4858
  860MOL0     H13518   5.521   5.832   6.201 -3.8185  2.3377  2.1789
  860MOL0     H13519   4.947   5.359   6.004  2.0972  2.1193 -0.6150
  860MOL0     H13520   4.767   5.220   5.919 -0.4749 -0.2324 -1.2721
  861MOL0     O13521   3.528   2.310   0.168 -0.9270 -0.2836  0.3218
  861MOL0     C13522   3.523   2.239   0.068 -1.5798 -0.4039  0.0907
  861MOL0     O13523   3.426   2.230  -0.021  0.7774 -0.3453  0.2259
  861MOL0     C13524   3.300   2.258   0.021  0.3372 -0.2650  0.4057
  861MOL0     C13525   3.243   2.390   0.004  0.3075  0.7611 -0.0603
  861MOL0     C13526   3.112   2.412   0.055  0.3244 -1.2973  0.2171
  861MOL0     C13527   3.035   2.321   0.123  0.5966  0.4159 -0.0406
  861MOL0     O13528   2.908   2.339   0.166  0.3412 -0.3995  0.4487
  861MOL0     C13529   2.830   2.411   0.071 -0.2662  0.1727 -0.2584
  861MOL0     C13530   2.683   2.391   0.109 -0.0823  0.1089  0.8006
  861MOL0     C13531   2.597   2.430  -0.017  0.4083  0.8912 -0.2131
  861MOL0     C13532   2.452   2.442   0.028 -0.1846  0.4967 -0.1879
  861MOL0     C13533   2.346   2.401  -0.084  0.0415  0.2224  0.4393
  861MOL0     C13534   2.212   2.463  -0.074  0.4163 -0.2896 -0.3336
  861MOL0     C13535   2.102   2.382  -0.147  0.0053 -0.7389 -0.2108
  861MOL0     C13536   2.053   2.253  -0.073 -0.2964 -0.2553 -0.0192
  861MOL0     N13537   1.920   2.209  -0.120  0.5174 -0.1710 -0.0098
  861MOL0     C13538   1.874   2.205  -0.252  0.9082  0.0126  0.0346
  861MOL0     C13539   1.736   2.186  -0.240 -0.3689 -0.2542 -0.4374
  861MOL0     C13540   1.629   2.193  -0.351 -0.6512  0.1858 -0.5851
  861MOL0     C13541   1.493   2.133  -0.314 -0.3168 -1.0274 -0.7753
  861MOL0     C13542   1.504   1.984  -0.281 -1.1892 -0.6614  0.1766
  861MOL0     C13543   1.371   1.922  -0.235 -0.2636  0.6109  0.7114
  861MOL0     O13544   1.272   1.949  -0.342 -0.2181  0.0580 -0.3744
  861MOL0     C13545   1.141   1.947  -0.304  0.6043 -0.5991  0.2822
  861MOL0     C13546   1.086   1.910  -0.175 -0.6806 -0.3253  0.0848
  861MOL0     C13547   0.950   1.901  -0.140 -0.1439  0.7445  0.5694
  861MOL0     C13548   0.857   1.951  -0.232 -1.2357  0.4286  0.1136
  861MOL0     C13549   0.714   1.948  -0.204  0.4352 -0.0126 -0.1470
  861MOL0     O13550   0.631   1.993  -0.303  0.2602  0.2446  0.6577
  861MOL0     C13551   0.494   2.003  -0.293  0.7678 -0.1179  0.2342
  861MOL0     C13552   0.421   1.985  -0.407  0.1518 -0.5787 -0.5377
  861MOL0     C13553   0.281   1.990  -0.406  0.4717  0.3320  0.0002
  861MOL0     C13554   0.209   2.008  -0.281 -0.8028  1.4311 -0.2074
  861MOL0     O13555   0.068   2.013  -0.279 -0.3391 -0.1067  0.5109
  861MOL0     C13556   0.010   1.884  -0.248  0.1905 -0.4075  0.0035
  861MOL0     C13557  -0.141   1.897  -0.284  0.2516  0.1435  0.1114
  861MOL0     C13558  -0.213   2.026  -0.223 -0.8361 -0.1326  0.1281
  861MOL0     C13559  -0.350   2.060  -0.280 -0.7289  0.4201 -0.0212
  861MOL0     C13560  -0.401   2.195  -0.234 -0.1181  0.6966 -0.1629
  861MOL0     C13561  -0.460   2.203  -0.095  0.4344  0.0297 -0.0045
  861MOL0     C13562  -0.456   2.351  -0.051  0.0955  0.6661  1.2010
  861MOL0     C13563  -0.529   2.376   0.082  0.3913  0.0522  0.4122
  861MOL0    Cl13564  -0.684   2.293   0.091 -0.4482 -0.3197  0.3916
  861MOL0     C13565   0.282   2.006  -0.169 -1.5416  0.3624 -0.2897
  861MOL0     C13566   0.424   2.008  -0.174  0.0819  0.4869 -0.9135
  861MOL0     O13567   0.680   1.910  -0.092 -0.2291  0.0978  0.0142
  861MOL0     C13568   0.910   1.985  -0.361  0.5093 -0.3217  0.1713
  861MOL0     C13569   1.049   1.990  -0.398  0.4226  0.5863 -1.1175
  861MOL0     N13570   1.698   2.186  -0.107 -0.3160  0.4084 -0.5909
  861MOL0     N13571   1.808   2.197  -0.041  0.1093  0.0712 -0.3786
  861MOL0     C13572   3.097   2.197   0.141 -0.2308  0.9369 -0.0206
  861MOL0     C13573   3.226   2.152   0.086 -0.7415 -0.4285  0.8576
  861MOL0     C13574   3.637   2.150   0.045 -0.7559 -0.0915 -0.5255
  861MOL0     C13575   3.691   2.072   0.150  0.6088  0.5876  1.2018
  861MOL0     C13576   3.815   2.008   0.127  1.1958  0.9816 -0.4801
  861MOL0     C13577   3.874   2.002   0.003  0.3023  0.0869 -0.6437
  861MOL0     O13578   3.986   1.937  -0.029 -0.0863 -0.5427 -0.0119
  861MOL0     C13579   4.098   1.903   0.056 -0.1842  0.0492  0.6746
  861MOL0     C13580   4.202   1.817  -0.018 -0.7529  0.1730 -0.4467
  861MOL0     C13581   4.286   1.899  -0.113  0.1056 -0.0100  0.0437
  861MOL0     C13582   4.432   1.860  -0.143  0.8428 -0.1789 -0.2757
  861MOL0     C13583   4.522   1.854  -0.029 -0.7195 -0.1403  0.4458
  861MOL0     C13584   4.611   1.851   0.055  0.6552 -1.0731  0.4941
  861MOL0     C13585   3.822   2.085  -0.097 -0.1856 -0.4921 -0.0534
  861MOL0     C13586   3.700   2.151  -0.076 -0.2933 -0.7046  0.3082
  861MOL0     H13587   3.305   2.459  -0.052 -0.3620 -1.2251 -3.6128
  861MOL0     H13588   3.070   2.512   0.043  0.1236 -1.4335 -0.2683
  861MOL0     H13589   2.856   2.382  -0.031 -3.0087  0.4573 -1.1206
  861MOL0     H13590   2.852   2.517   0.079 -1.7141  0.3523  3.6045
  861MOL0     H13591   2.665   2.460   0.192 -0.9286 -1.7245  2.2087
  861MOL0     H13592   2.656   2.292   0.149 -1.8875  0.2205 -0.0309
  861MOL0     H13593   2.614   2.349  -0.089 -0.4837 -2.6455  3.1788
  861MOL0     H13594   2.623   2.527  -0.061 -4.1184  2.1828 -0.4840
  861MOL0     H13595   2.437   2.381   0.117  1.1818  1.6840  0.9005
  861MOL0     H13596   2.434   2.549   0.045  0.2196  0.7980 -1.5663
  861MOL0     H13597   2.333   2.293  -0.091 -0.1088  0.1704  1.4726
  861MOL0     H13598   2.383   2.433  -0.182 -0.6086  0.3833  0.2437
  861MOL0     H13599   2.211   2.567  -0.107 -4.2033  0.9155  2.6250
  861MOL0     H13600   2.173   2.468   0.028  1.9239 -3.0109  0.4687
  861MOL0     H13601   2.015   2.449  -0.153  0.3249 -0.0858  1.9161
  861MOL0     H13602   2.117   2.352  -0.251 -2.9458 -0.6213 -0.7696
  861MOL0     H13603   2.045   2.269   0.035 -0.0618 -1.0391  0.1143
  861MOL0     H13604   2.118   2.166  -0.083 -0.1428  0.0512 -2.0444
  861MOL0     H13605   1.920   2.226  -0.348 -1.3094 -2.4021 -1.7179
  861MOL0     H13606   1.667   2.138  -0.438 -1.3452 -4.5417  1.8275
  861MOL0     H13607   1.620   2.297  -0.386 -0.6360 -0.1221 -1.5166
  861MOL0     H13608   1.434   2.152  -0.404 -1.1656 -0.8792 -0.1984
  861MOL0     H13609   1.453   2.200  -0.237 -0.8567 -0.4202 -1.5663
  861MOL0     H13610   1.550   1.933  -0.366 -1.3654  1.0916 -1.0116
  861MOL0     H13611   1.565   1.969  -0.191 -3.2736 -2.4629  1.3823
  861MOL0     H13612   1.334   1.980  -0.150 -3.4152 -1.0531  0.6580
  861MOL0     H13613   1.400   1.819  -0.214  2.2934  0.8116 -1.4116
  861MOL0     H13614   1.163   1.890  -0.101 -1.6446  0.1726  1.2637
  861MOL0     H13615   0.922   1.877  -0.038  0.6345  2.2916  1.1764
  861MOL0     H13616   0.484   1.961  -0.492  1.8038 -2.0173  0.9970
  861MOL0     H13617   0.214   1.963  -0.487  0.1039 -0.5417  0.5696
  861MOL0     H13618   0.017   1.861  -0.141 -1.8409  0.0572  0.2757
  861MOL0     H13619   0.066   1.805  -0.299  0.7942  0.2795 -0.3955
  861MOL0     H13620  -0.188   1.805  -0.246 -0.4304  0.5426  0.2559
  861MOL0     H13621  -0.153   1.905  -0.392  1.1856 -3.0863 -0.3478
  861MOL0     H13622  -0.153   2.118  -0.226 -1.2062  0.0976 -0.2883
  861MOL0     H13623  -0.223   2.020  -0.114  0.7665 -1.6909  0.2385
  861MOL0     H13624  -0.335   2.070  -0.388 -0.0857 -3.6297 -0.4562
  861MOL0     H13625  -0.425   1.982  -0.264 -0.2390 -1.4157 -4.8375
  861MOL0     H13626  -0.476   2.216  -0.310 -0.4713 -2.7190 -0.9223
  861MOL0     H13627  -0.320   2.268  -0.229 -0.8566  1.5004  3.4598
  861MOL0     H13628  -0.401   2.150  -0.019 -1.1663 -0.2617  1.0811
  861MOL0     H13629  -0.558   2.154  -0.094  1.0770 -1.2900 -0.0197
  861MOL0     H13630  -0.353   2.382  -0.028  0.1004 -0.4473  2.8391
  861MOL0     H13631  -0.495   2.402  -0.139  1.9866  0.5860  0.2594
  861MOL0     H13632  -0.566   2.478   0.098 -2.1316 -1.0027  1.9671
  861MOL0     H13633  -0.466   2.359   0.169  0.2957  0.7468  0.6254
  861MOL0     H13634   0.236   2.010  -0.070 -1.2534 -0.9043 -0.0867
  861MOL0     H13635   0.475   2.022  -0.079  0.0060  0.3924 -0.8580
  861MOL0     H13636   0.840   2.004  -0.442  0.6566  3.2030  0.7450
  861MOL0     H13637   1.068   2.019  -0.501  0.1360  0.0102 -1.3378
  861MOL0     H13638   3.028   2.127   0.186  0.6596  0.1459  0.1433
  861MOL0     H13639   3.276   2.056   0.098 -2.8294 -1.6509  0.1764
  861MOL0     H13640   3.655   2.071   0.252 -1.6421 -0.6838  0.4678
  861MOL0     H13641   3.859   1.943   0.202 -0.1159 -0.5370 -0.9677
  861MOL0     H13642   4.057   1.847   0.141  0.2484 -0.2559  0.6849
  861MOL0     H13643   4.143   1.991   0.102 -1.7230  1.3168 -0.1493
  861MOL0     H13644   4.271   1.767   0.051  0.7094  1.3672 -0.9826
  861MOL0     H13645   4.153   1.741  -0.078  1.7906 -1.0430 -1.1443
  861MOL0     H13646   4.292   2.002  -0.075  1.1581 -0.5551  1.4336
  861MOL0     H13647   4.234   1.890  -0.209 -0.0015  0.7522  0.0178
  861MOL0     H13648   4.427   1.764  -0.195  1.6129 -0.7016  0.5894
  861MOL0     H13649   4.472   1.930  -0.217 -0.1870 -0.5970 -1.2576
  861MOL0     H13650   4.675   1.844   0.140  2.2205  0.6590 -0.4538
  861MOL0     H13651   3.867   2.092  -0.195 -1.3546 -2.6229 -0.8059
  861MOL0     H13652   3.662   2.205  -0.162  1.0421 -2.3348 -1.4138
  862MOL0     O13653   0.220   2.442   7.755 -0.4492 -0.9999 -0.0338
  862MOL0     C13654   0.267   2.524   7.830 -0.2775  0.4129 -0.6157
  862MOL0     O13655   0.204   2.606   7.913  0.6175  0.1836 -0.2496
  862MOL0     C13656   0.064   2.595   7.905 -0.5267  0.7513  0.4307
  862MOL0     C13657  -0.015   2.598   7.787 -0.8816 -0.5265 -0.4420
  862MOL0     C13658  -0.153   2.591   7.800 -0.9958 -1.2708 -0.0587
  862MOL0     C13659  -0.214   2.587   7.924 -0.7306 -0.8601  0.1235
  862MOL0     O13660  -0.351   2.570   7.938  0.2796  0.2217  0.0058
  862MOL0     C13661  -0.417   2.682   7.883 -0.3402 -1.0237  0.6519
  862MOL0     C13662  -0.513   2.728   7.997  0.3364  0.2650 -0.0579
  862MOL0     C13663  -0.626   2.811   7.933 -0.5507  0.5496 -0.1245
  862MOL0     C13664  -0.729   2.851   8.047  0.7283 -0.1460 -0.7306
  862MOL0     C13665  -0.844   2.924   7.993  1.4274 -0.1348  0.1274
  862MOL0     C13666  -0.950   2.963   8.088  0.7796  0.3005 -0.2549
  862MOL0     C13667  -1.045   2.863   8.159 -0.0563 -0.9308  0.7028
  862MOL0     C13668  -1.171   2.937   8.227 -0.4977  0.3257  0.4971
  862MOL0     N13669  -1.257   2.837   8.292 -0.3207  0.0977  0.3107
  862MOL0     C13670  -1.252   2.700   8.296 -0.6759  0.2815 -0.8232
  862MOL0     C13671  -1.352   2.666   8.377  0.7765  0.9441  0.5588
  862MOL0     C13672  -1.380   2.515   8.410 -0.0183 -0.1745  0.2640
  862MOL0     C13673  -1.389   2.417   8.291 -0.1486 -1.6084 -0.1223
  862MOL0     C13674  -1.512   2.458   8.220  0.5404 -0.4140 -0.5618
  862MOL0     C13675  -1.548   2.355   8.108  0.6778 -0.9103 -0.2032
  862MOL0     O13676  -1.662   2.395   8.028  0.7539  1.4443  0.3393
  862MOL0     C13677  -1.793   2.407   8.077 -0.0952 -0.5509 -0.4140
  862MOL0     C13678  -1.896   2.459   7.998  0.1121  0.8947 -0.3014
  862MOL0     C13679  -2.032   2.440   8.029  0.1098  0.6652  0.4221
  862MOL0     C13680  -2.072   2.382   8.147 -0.5800  0.1253 -0.0015
  862MOL0     C13681  -2.215   2.357   8.169 -1.4149 -0.3359 -0.1441
  862MOL0     O13682  -2.246   2.282   8.278  0.2678  0.1938  0.3724
  862MOL0     C13683  -2.384   2.279   8.305 -0.4144  0.5223 -0.3458
  862MOL0     C13684  -2.448   2.382   8.365  0.5011  0.6759  0.1987
  862MOL0     C13685  -2.591   2.366   8.388 -0.3105  0.2170 -0.5800
  862MOL0     C13686  -2.655   2.246   8.360  0.0271 -0.2393 -0.3037
  862MOL0     O13687  -2.793   2.215   8.363 -0.0009 -0.5454 -0.0601
  862MOL0     C13688  -2.889   2.303   8.420  0.8169  0.6927 -0.1761
  862MOL0     C13689  -3.036   2.257   8.397  0.9066 -0.9234 -0.7485
  862MOL0     C13690  -3.092   2.152   8.490 -0.3519 -0.1471 -0.5193
  862MOL0     C13691  -2.994   2.035   8.494  0.5420  0.0062 -0.7005
  862MOL0     C13692  -3.071   1.913   8.561  0.0926 -0.3220 -1.2197
  862MOL0     C13693  -3.019   1.770   8.548  0.0963 -0.5580  0.2709
  862MOL0     C13694  -2.974   1.731   8.402 -0.1252  0.2712 -0.7139
  862MOL0     C13695  -2.915   1.587   8.385 -0.4592  0.3077 -0.0344
  862MOL0    Cl13696  -2.765   1.566   8.486 -1.1188  0.4520 -0.0690
  862MOL0     C13697  -2.580   2.142   8.313  0.1600 -0.6434  0.0183
  862MOL0     C13698  -2.440   2.153   8.292 -0.3474 -1.1470  0.0955
  862MOL0     O13699  -2.291   2.403   8.079 -0.2229 -0.0379 -0.1745
  862MOL0     C13700  -1.975   2.357   8.245  0.1746  0.5537  0.1783
  862MOL0     C13701  -1.839   2.372   8.204 -0.7568  0.0570 -0.9382
  862MOL0     N13702  -1.425   2.778   8.412 -0.4191 -0.1033 -0.8574
  862MOL0     N13703  -1.356   2.883   8.369 -0.5626 -0.7498 -1.2653
  862MOL0     C13704  -0.137   2.592   8.033 -0.7236  0.6462 -0.9070
  862MOL0     C13705   0.001   2.592   8.021 -0.9280  0.0943 -0.0992
  862MOL0     C13706   0.415   2.520   7.846  0.1417 -0.2780  0.1153
  862MOL0     C13707   0.499   2.490   7.740  0.0965 -0.4646 -0.4497
  862MOL0     C13708   0.631   2.515   7.734  0.6758  0.6573  0.5247
  862MOL0     C13709   0.692   2.545   7.859  0.4906  0.2146 -0.1352
  862MOL0     O13710   0.822   2.545   7.878  0.2291  0.2610 -0.1778
  862MOL0     C13711   0.900   2.482   7.782 -0.2800  0.1798  0.0036
  862MOL0     C13712   1.043   2.457   7.844  0.5998  0.9417 -0.2238
  862MOL0     C13713   1.163   2.410   7.759 -0.2860  0.6911 -1.0013
  862MOL0     C13714   1.140   2.273   7.675  1.1510 -0.7743  0.0296
  862MOL0     C13715   1.262   2.211   7.621  0.7061 -0.0513  0.5349
  862MOL0     C13716   1.349   2.137   7.574  0.1910  0.9087  0.3233
  862MOL0     C13717   0.612   2.570   7.974 -0.7054  0.2018 -0.6888
  862MOL0     C13718   0.475   2.562   7.961 -0.4281 -0.8834 -0.2937
  862MOL0     H13719   0.016   2.587   7.684  1.4694 -0.8481  0.2487
  862MOL0     H13720  -0.209   2.576   7.708 -2.3269 -1.7296  0.7894
  862MOL0     H13721  -0.471   2.652   7.793  0.1142  0.6121 -0.1978
  862MOL0     H13722  -0.356   2.767   7.851 -2.4389 -0.1826 -1.4873
  862MOL0     H13723  -0.476   2.805   8.065 -2.4807  1.4285  0.3326
  862MOL0     H13724  -0.558   2.649   8.057 -1.2160  2.4163  1.8051
  862MOL0     H13725  -0.664   2.746   7.854 -1.3701  2.7292 -1.6298
  862MOL0     H13726  -0.586   2.891   7.870  1.8183 -1.0747 -0.8260
  862MOL0     H13727  -0.754   2.763   8.107  2.8904  0.4096  1.1497
  862MOL0     H13728  -0.684   2.913   8.126  0.6524  0.9713 -1.5379
  862MOL0     H13729  -0.889   2.873   7.907  0.3141  1.0172  0.0098
  862MOL0     H13730  -0.797   3.015   7.955 -1.1533  1.3668  0.3132
  862MOL0     H13731  -1.008   3.037   8.032 -1.5922 -1.9865 -1.0451
  862MOL0     H13732  -0.899   3.023   8.164 -2.1969  0.4809  1.7795
  862MOL0     H13733  -1.083   2.805   8.074  1.7217  1.3064 -1.7724
  862MOL0     H13734  -0.992   2.789   8.219  0.6033 -2.7929 -2.0030
  862MOL0     H13735  -1.233   2.989   8.152  0.4501  1.1193  0.2403
  862MOL0     H13736  -1.143   3.012   8.302 -1.1910 -0.6302  1.7403
  862MOL0     H13737  -1.186   2.623   8.257 -2.8229 -0.0153 -4.3111
  862MOL0     H13738  -1.467   2.505   8.476 -0.0519 -1.8207  0.0204
  862MOL0     H13739  -1.299   2.477   8.472 -0.0620 -1.2877 -0.3370
  862MOL0     H13740  -1.393   2.317   8.335 -1.6825 -0.6906  2.0063
  862MOL0     H13741  -1.307   2.426   8.219 -0.0603 -1.0442  0.0450
  862MOL0     H13742  -1.601   2.469   8.283  0.3648 -3.6482 -0.0727
  862MOL0     H13743  -1.505   2.551   8.162 -0.2692 -0.4040 -0.6626
  862MOL0     H13744  -1.569   2.258   8.153 -4.4641  0.2785  0.6329
  862MOL0     H13745  -1.460   2.343   8.044  0.3509 -1.4584 -0.5555
  862MOL0     H13746  -1.861   2.518   7.914  2.0888  2.3209  1.4228
  862MOL0     H13747  -2.113   2.479   7.969 -0.2601 -1.2499 -0.3838
  862MOL0     H13748  -2.396   2.477   8.372  3.4509 -0.8048 -0.2302
  862MOL0     H13749  -2.650   2.452   8.418  0.6431  0.9685 -0.8262
  862MOL0     H13750  -2.871   2.404   8.383 -2.6618  2.0218  1.2819
  862MOL0     H13751  -2.878   2.306   8.529  1.5910 -1.7996 -0.1260
  862MOL0     H13752  -3.043   2.211   8.298 -2.3265  1.1673 -1.6469
  862MOL0     H13753  -3.107   2.340   8.392 -1.3779 -2.7800 -4.6281
  862MOL0     H13754  -3.194   2.122   8.464  0.3324 -0.6973 -2.7589
  862MOL0     H13755  -3.110   2.197   8.588 -0.3367 -2.5455  0.6696
  862MOL0     H13756  -2.946   2.003   8.402  2.0072 -2.2891  0.7487
  862MOL0     H13757  -2.915   2.062   8.565 -2.4782  1.2241  2.5010
  862MOL0     H13758  -3.172   1.920   8.519 -1.2994  5.4507  2.0105
  862MOL0     H13759  -3.085   1.922   8.669 -0.9042 -0.6815 -1.3034
  862MOL0     H13760  -3.097   1.699   8.576  0.9084 -0.4709  2.9865
  862MOL0     H13761  -2.932   1.748   8.610  1.0265 -1.5558 -1.3123
  862MOL0     H13762  -3.062   1.758   8.343 -1.6785 -0.0714  1.3625
  862MOL0     H13763  -2.884   1.789   8.377  0.1104 -1.0292 -3.2548
  862MOL0     H13764  -2.898   1.568   8.279  1.4699  0.2619  0.2457
  862MOL0     H13765  -2.984   1.510   8.422  1.6188 -1.3970  0.4277
  862MOL0     H13766  -2.628   2.045   8.307 -0.1025 -0.4625 -0.7891
  862MOL0     H13767  -2.380   2.068   8.261 -0.0257 -0.2552 -1.9189
  862MOL0     H13768  -2.004   2.295   8.329 -0.5074 -1.9100 -1.7898
  862MOL0     H13769  -1.765   2.330   8.271 -1.4636  0.1509 -0.0698
  862MOL0     H13770  -0.179   2.589   8.133 -0.0275 -1.7988 -0.6256
  862MOL0     H13771   0.055   2.582   8.115 -1.3730 -0.7758  0.0711
  862MOL0     H13772   0.453   2.439   7.656 -0.4734 -0.9814  0.1624
  862MOL0     H13773   0.684   2.490   7.643  2.1621  0.2680  1.4576
  862MOL0     H13774   0.914   2.543   7.693  2.4344 -0.1467  0.1317
  862MOL0     H13775   0.858   2.382   7.767 -0.8807  0.2268  1.2236
  862MOL0     H13776   1.060   2.555   7.890  0.4338  0.8886 -0.0449
  862MOL0     H13777   1.035   2.386   7.927  2.2639 -1.3606 -1.9252
  862MOL0     H13778   1.247   2.390   7.826 -2.1588 -0.8861  1.0169
  862MOL0     H13779   1.184   2.501   7.701  3.1836  1.7637  1.5474
  862MOL0     H13780   1.089   2.213   7.751  1.2827  1.2207  1.8064
  862MOL0     H13781   1.060   2.301   7.606 -0.0046 -0.9847  1.2477
  862MOL0     H13782   1.427   2.079   7.529  0.4826 -0.0172  1.9132
  862MOL0     H13783   0.653   2.589   8.074  2.1861  0.2161 -1.7701
  862MOL0     H13784   0.429   2.610   8.046  0.2497  0.8382 -0.8627
  863MOL0     O13785   6.651   4.163   8.478 -0.0644 -0.8852 -0.4753
  863MOL0     C13786   6.615   4.049   8.510  0.9395  0.6414  0.5593
  863MOL0     O13787   6.482   4.010   8.531 -0.6854 -0.0031  0.4074
  863MOL0     C13788   6.376   4.086   8.482 -0.1399 -0.1187 -0.0328
  863MOL0     C13789   6.375   4.169   8.372  0.0495  0.0230  0.1270
  863MOL0     C13790   6.252   4.241   8.336 -0.9111 -0.1875 -0.7676
  863MOL0     C13791   6.131   4.214   8.416 -0.2049 -0.2245 -0.6259
  863MOL0     O13792   6.005   4.274   8.390 -0.4761 -0.4536 -0.6152
  863MOL0     C13793   5.966   4.289   8.260 -0.7042  0.2045  0.4898
  863MOL0     C13794   5.825   4.349   8.253 -0.3314 -0.4121 -0.5932
  863MOL0     C13795   5.715   4.243   8.285 -0.1024 -0.0829 -0.6407
  863MOL0     C13796   5.582   4.308   8.329  0.4615  0.1297 -0.7450
  863MOL0     C13797   5.502   4.364   8.217  0.0365 -0.2756 -0.6876
  863MOL0     C13798   5.383   4.432   8.272 -0.0174  0.1721 -1.0477
  863MOL0     C13799   5.307   4.515   8.158  0.0847  0.1291 -0.7126
  863MOL0     C13800   5.177   4.573   8.210  0.4096 -0.3799 -0.2835
  863MOL0     N13801   5.089   4.592   8.095 -0.0781 -0.5171  1.0131
  863MOL0     C13802   4.968   4.535   8.066 -0.3434 -1.3263  0.2361
  863MOL0     C13803   4.932   4.599   7.955  0.2833  0.0293  0.3226
  863MOL0     C13804   4.800   4.574   7.886  0.2969 -1.1168 -0.0818
  863MOL0     C13805   4.685   4.622   7.988  0.2348 -0.2152  0.2838
  863MOL0     C13806   4.559   4.560   7.936  0.8323  0.6042 -0.1375
  863MOL0     C13807   4.441   4.591   8.032  0.2589  0.3622 -0.3122
  863MOL0     O13808   4.429   4.731   8.025 -1.2657 -0.4357  0.0280
  863MOL0     C13809   4.324   4.793   8.090 -0.6052  0.0900  0.1600
  863MOL0     C13810   4.205   4.727   8.124  0.3202  0.3143 -0.8418
  863MOL0     C13811   4.100   4.801   8.180 -0.2757 -0.7347  0.2941
  863MOL0     C13812   4.114   4.941   8.208  1.0622  0.7132  0.5900
  863MOL0     C13813   3.993   5.018   8.246 -0.2252  0.0436 -0.4436
  863MOL0     O13814   3.875   4.957   8.301  0.1415 -0.5092 -0.4884
  863MOL0     C13815   3.771   5.042   8.347  0.5646  0.6211  0.6889
  863MOL0     C13816   3.684   5.093   8.253  0.2996 -0.4472 -0.3153
  863MOL0     C13817   3.575   5.165   8.294 -0.5696 -0.3692  0.5906
  863MOL0     C13818   3.553   5.191   8.430 -0.6831 -0.2691 -0.0198
  863MOL0     O13819   3.453   5.279   8.466 -0.0322  0.3855 -0.0941
  863MOL0     C13820   3.461   5.337   8.594 -0.5892  0.2005  0.3131
  863MOL0     C13821   3.387   5.477   8.593  0.1773 -0.5569  0.3028
  863MOL0     C13822   3.233   5.454   8.574 -0.6008  0.3858 -0.2189
  863MOL0     C13823   3.159   5.588   8.570  0.4620 -1.0416  0.0736
  863MOL0     C13824   3.010   5.584   8.613  0.5138 -0.0433 -0.3054
  863MOL0     C13825   2.932   5.710   8.568 -0.5866  0.6136 -0.1811
  863MOL0     C13826   2.964   5.830   8.664 -0.8376 -0.0476 -0.0591
  863MOL0     C13827   2.866   5.945   8.644 -0.2185 -0.6993  0.1405
  863MOL0    Cl13828   2.872   5.993   8.467  0.1826  0.4042 -0.2314
  863MOL0     C13829   3.628   5.119   8.521 -0.0008 -0.2671 -0.0705
  863MOL0     C13830   3.739   5.050   8.482 -0.3571  0.0449  0.4709
  863MOL0     O13831   4.003   5.133   8.217 -0.1717  0.2607 -0.5538
  863MOL0     C13832   4.231   4.997   8.174  0.5287 -0.4077  0.2830
  863MOL0     C13833   4.338   4.927   8.109  0.7961 -0.3362 -1.3601
  863MOL0     N13834   5.019   4.694   7.912 -0.2070 -0.0313 -0.0592
  863MOL0     N13835   5.113   4.694   8.004  0.0835 -0.5771  0.3907
  863MOL0     C13836   6.142   4.123   8.524 -0.0837 -0.0521 -0.0034
  863MOL0     C13837   6.258   4.060   8.549 -0.1413  0.2967  0.1367
  863MOL0     C13838   6.720   3.953   8.545 -0.7199 -0.0998 -0.3192
  863MOL0     C13839   6.856   3.999   8.559  0.5908  0.5887  0.6140
  863MOL0     C13840   6.966   3.911   8.574 -0.0587 -0.0544 -0.1539
  863MOL0     C13841   6.946   3.772   8.601 -0.6789 -0.0942  0.2266
  863MOL0     O13842   7.054   3.695   8.640  0.1200  0.1741 -0.1556
  863MOL0     C13843   7.024   3.592   8.740 -0.0663 -0.7453 -0.1701
  863MOL0     C13844   7.135   3.522   8.807 -0.2841 -0.2941  0.5313
  863MOL0     C13845   7.081   3.429   8.921 -0.8614  0.3035  1.0074
  863MOL0     C13846   7.058   3.512   9.055 -0.3494  0.4460  0.6932
  863MOL0     C13847   7.000   3.425   9.153  0.3653 -0.2584 -0.1244
  863MOL0     C13848   6.927   3.355   9.224  0.1667  1.1624 -0.0525
  863MOL0     C13849   6.808   3.735   8.609  0.6112 -1.2196  0.2516
  863MOL0     C13850   6.703   3.820   8.574  0.5256  0.2128  0.0932
  863MOL0     H13851   6.460   4.177   8.306  1.3527  0.9013  1.8511
  863MOL0     H13852   6.244   4.308   8.250 -0.5572  3.5487  1.8346
  863MOL0     H13853   5.973   4.195   8.204 -2.0831 -0.7148  1.7783
  863MOL0     H13854   6.030   4.363   8.211  0.0164 -1.4476 -1.1659
  863MOL0     H13855   5.807   4.385   8.151  2.9791  2.7334 -0.2823
  863MOL0     H13856   5.814   4.437   8.317 -4.0033 -0.4192 -1.0061
  863MOL0     H13857   5.753   4.180   8.366 -0.1811  2.0377  1.1440
  863MOL0     H13858   5.693   4.177   8.200 -5.4329 -1.7125  1.5886
  863MOL0     H13859   5.527   4.228   8.379  3.1696 -1.3843 -0.0123
  863MOL0     H13860   5.603   4.377   8.411  0.7700 -1.8728  0.9265
  863MOL0     H13861   5.458   4.287   8.153  1.3568 -1.5485 -0.1344
  863MOL0     H13862   5.569   4.429   8.161  1.6767  0.5457  2.0328
  863MOL0     H13863   5.410   4.501   8.353  3.3761  0.1462 -2.0294
  863MOL0     H13864   5.312   4.355   8.304 -1.3319  2.0299  0.8547
  863MOL0     H13865   5.365   4.600   8.118 -2.6636  1.7501 -1.5182
  863MOL0     H13866   5.281   4.442   8.081  3.2129  0.1516 -1.9626
  863MOL0     H13867   5.189   4.670   8.259  1.4860 -0.7755  0.2633
  863MOL0     H13868   5.135   4.508   8.287 -0.8680  2.1897  1.3186
  863MOL0     H13869   4.913   4.463   8.126 -0.5646 -2.2941 -1.0883
  863MOL0     H13870   4.803   4.472   7.848  0.7645 -2.1191  2.4582
  863MOL0     H13871   4.779   4.647   7.807  0.6910 -0.3159  0.5428
  863MOL0     H13872   4.685   4.730   8.008  1.6801  0.0918 -1.1489
  863MOL0     H13873   4.699   4.582   8.089 -0.7684  3.3664  2.0252
  863MOL0     H13874   4.518   4.604   7.844  0.6214  0.9851  0.1373
  863MOL0     H13875   4.571   4.451   7.934 -1.6137  0.2735 -0.4151
  863MOL0     H13876   4.460   4.564   8.137 -0.0326 -2.0057 -0.8030
  863MOL0     H13877   4.355   4.528   8.007 -0.4748  0.5480  1.5469
  863MOL0     H13878   4.176   4.624   8.110 -2.3150  0.5782  1.7043
  863MOL0     H13879   4.006   4.754   8.205 -0.1311 -1.7160 -0.8900
  863MOL0     H13880   3.682   5.076   8.146 -1.9080  0.0600 -0.3911
  863MOL0     H13881   3.508   5.211   8.222 -2.1955 -5.4787 -1.6428
  863MOL0     H13882   3.564   5.349   8.627  0.4126 -2.4784 -1.5602
  863MOL0     H13883   3.414   5.262   8.658 -0.5398 -1.9316 -2.0386
  863MOL0     H13884   3.422   5.536   8.508  2.2783  3.0011  3.3452
  863MOL0     H13885   3.392   5.546   8.677 -3.2893  1.0662 -0.5942
  863MOL0     H13886   3.195   5.382   8.647  1.3823 -0.6891 -0.1569
  863MOL0     H13887   3.223   5.403   8.478 -1.0624  0.3895 -0.1727
  863MOL0     H13888   3.209   5.657   8.638 -1.6057 -1.8835  2.6068
  863MOL0     H13889   3.166   5.625   8.467  0.2072  2.4213  1.1632
  863MOL0     H13890   2.992   5.579   8.721  0.2302 -0.0270 -0.3512
  863MOL0     H13891   2.959   5.499   8.567  0.6060 -2.3245  3.3646
  863MOL0     H13892   2.830   5.670   8.569 -0.3398 -0.0475  1.0927
  863MOL0     H13893   2.951   5.731   8.463 -2.8921  0.3620 -0.6962
  863MOL0     H13894   2.957   5.800   8.769 -2.1919  3.1645  0.8938
  863MOL0     H13895   3.065   5.865   8.641 -0.9152 -0.4516 -1.0920
  863MOL0     H13896   2.898   6.037   8.694  0.8090  0.5464 -2.5621
  863MOL0     H13897   2.760   5.925   8.662 -1.3831 -0.2109 -4.7186
  863MOL0     H13898   3.617   5.129   8.629 -1.2545  1.9357 -0.3391
  863MOL0     H13899   3.799   4.992   8.551  0.8143 -0.5369 -0.9797
  863MOL0     H13900   4.250   5.103   8.192  0.5224 -0.7832  2.7342
  863MOL0     H13901   4.426   4.983   8.081 -1.1276  2.9136 -1.3764
  863MOL0     H13902   6.069   4.113   8.603  0.8272 -1.5703  0.6777
  863MOL0     H13903   6.263   4.000   8.639  2.0181 -1.8435 -1.2824
  863MOL0     H13904   6.882   4.102   8.541 -1.4290  1.2191  1.0578
  863MOL0     H13905   7.070   3.941   8.568  0.8930 -2.6007  1.9661
  863MOL0     H13906   6.961   3.515   8.695  1.4891 -1.7160 -0.7717
  863MOL0     H13907   6.966   3.642   8.818 -0.3539 -2.6585  0.8916
  863MOL0     H13908   7.195   3.469   8.732  1.4376 -0.0153  1.6351
  863MOL0     H13909   7.198   3.600   8.852 -0.4418  0.0354  0.1836
  863MOL0     H13910   7.170   3.368   8.934  1.2387  2.6227 -1.2844
  863MOL0     H13911   6.994   3.371   8.889 -0.7417  0.1154  1.0255
  863MOL0     H13912   7.157   3.552   9.082  0.9772 -1.0650 -1.6133
  863MOL0     H13913   6.992   3.595   9.029  0.8013  0.7515 -1.4935
  863MOL0     H13914   6.884   3.289   9.297  1.1013  1.2859  0.6363
  863MOL0     H13915   6.793   3.631   8.636  1.1783 -1.1033  1.0359
  863MOL0     H13916   6.597   3.796   8.577  0.5141 -1.0976 -4.1908
  864MOL0     O13917   6.129   5.693   9.849 -0.1709  0.7664 -0.4669
  864MOL0     C13918   6.225   5.754   9.805 -0.5891 -0.3833 -0.2003
  864MOL0     O13919   6.205   5.867   9.727  1.0979  0.3009  0.1872
  864MOL0     C13920   6.078   5.903   9.696 -0.1560 -0.1598  0.7254
  864MOL0     C13921   6.007   5.817   9.614 -0.2049  0.3369 -0.9784
  864MOL0     C13922   5.873   5.852   9.578 -1.1961 -0.2086 -0.9605
  864MOL0     C13923   5.822   5.978   9.610  1.1805  0.3741 -0.0999
  864MOL0     O13924   5.696   6.032   9.572 -0.7174 -0.2589  0.3145
  864MOL0     C13925   5.603   5.958   9.494 -0.0961  0.8256 -0.5002
  864MOL0     C13926   5.482   6.055   9.483 -0.3234  0.2726  0.2374
  864MOL0     C13927   5.428   6.096   9.623 -0.1201 -0.2581 -0.0454
  864MOL0     C13928   5.354   6.223   9.614  0.0770 -0.8847 -0.2738
  864MOL0     C13929   5.285   6.251   9.752 -0.0866  0.1958  0.4150
  864MOL0     C13930   5.154   6.171   9.784  0.0664  0.5548 -0.1180
  864MOL0     C13931   5.044   6.204   9.688 -0.3217 -1.1687  0.1454
  864MOL0     C13932   5.025   6.128   9.552 -0.6225 -0.5394  0.0053
  864MOL0     N13933   4.891   6.128   9.500 -0.2470 -0.2006 -0.2157
  864MOL0     C13934   4.775   6.082   9.557 -0.6723 -0.9591 -0.1419
  864MOL0     C13935   4.701   6.030   9.459 -0.2340  0.3858  0.3043
  864MOL0     C13936   4.575   5.969   9.484 -0.3393  0.3238 -0.1263
  864MOL0     C13937   4.586   5.812   9.462 -0.0065 -0.0769 -0.2622
  864MOL0     C13938   4.453   5.733   9.451  0.0267  0.6473  0.4626
  864MOL0     C13939   4.441   5.624   9.341  0.8140 -0.3781 -0.7203
  864MOL0     O13940   4.334   5.536   9.366  0.1225  1.0084 -0.3169
  864MOL0     C13941   4.200   5.586   9.359 -0.0715  0.7866  0.3186
  864MOL0     C13942   4.098   5.509   9.410  0.7276  0.6535  0.1863
  864MOL0     C13943   3.962   5.533   9.414  0.5308 -0.6035 -0.1974
  864MOL0     C13944   3.922   5.657   9.374  0.1735 -0.4962 -0.6076
  864MOL0     C13945   3.789   5.699   9.402  0.0026 -0.1783  0.1596
  864MOL0     O13946   3.696   5.593   9.404  0.1064 -0.7714  0.1784
  864MOL0     C13947   3.557   5.612   9.401 -0.0520 -1.2865 -0.1347
  864MOL0     C13948   3.492   5.630   9.517 -0.1893  0.0064  0.1501
  864MOL0     C13949   3.356   5.647   9.526 -0.5335  0.7677  0.3348
  864MOL0     C13950   3.275   5.675   9.413 -0.9494 -0.2226 -0.1215
  864MOL0     O13951   3.141   5.687   9.399 -0.9517  0.1786 -0.6822
  864MOL0     C13952   3.065   5.695   9.527 -0.4362  0.2617  0.1870
  864MOL0     C13953   2.924   5.746   9.512 -0.5612 -0.1907  0.6719
  864MOL0     C13954   2.830   5.636   9.438  0.4514  0.0874 -0.6143
  864MOL0     C13955   2.681   5.686   9.438 -1.5260  0.2003 -0.5468
  864MOL0     C13956   2.597   5.567   9.425  0.0085  0.4563 -0.5738
  864MOL0     C13957   2.452   5.601   9.453 -0.3417 -0.6666 -0.2685
  864MOL0     C13958   2.366   5.476   9.473 -0.2479 -0.0933  0.2479
  864MOL0     C13959   2.405   5.380   9.590 -0.3429  0.5916 -0.3178
  864MOL0    Cl13960   2.435   5.468   9.745  0.1134 -0.1803  0.2536
  864MOL0     C13961   3.341   5.677   9.294  0.1758 -0.3966 -0.1303
  864MOL0     C13962   3.477   5.640   9.286 -0.2185 -0.0708  0.1371
  864MOL0     O13963   3.766   5.813   9.421 -0.2294  0.2649 -0.1131
  864MOL0     C13964   4.016   5.750   9.331 -0.7089 -0.2741  0.8482
  864MOL0     C13965   4.152   5.708   9.325 -1.0946  0.0590 -0.6483
  864MOL0     N13966   4.765   6.042   9.333 -0.3857 -0.3336 -0.1344
  864MOL0     N13967   4.866   6.108   9.365 -0.7785  0.1006  0.0962
  864MOL0     C13968   5.900   6.071   9.681  0.7574 -0.1851 -0.4633
  864MOL0     C13969   6.033   6.031   9.721  1.5101  0.0091  0.6067
  864MOL0     C13970   6.365   5.709   9.834 -1.4727  0.7501  0.0851
  864MOL0     C13971   6.397   5.599   9.920  0.3649 -0.1897 -1.0113
  864MOL0     C13972   6.512   5.526   9.928  0.2206 -0.4497 -0.0779
  864MOL0     C13973   6.618   5.569   9.854  0.0366 -0.0545 -0.1525
  864MOL0     O13974   6.726   5.493   9.875  0.3599 -0.2570 -0.3194
  864MOL0     C13975   6.865   5.532   9.865  0.2542 -0.6052  0.7682
  864MOL0     C13976   6.889   5.648   9.952  0.3403  0.0036 -0.3746
  864MOL0     C13977   6.950   5.596  10.086  0.3111  0.5230  0.1647
  864MOL0     C13978   6.961   5.694  10.192  0.3007  0.1626  0.1989
  864MOL0     C13979   6.841   5.768  10.220 -0.5027 -0.1548 -0.0027
  864MOL0     C13980   6.742   5.830  10.246  0.1104 -0.4950  0.1690
  864MOL0     C13981   6.601   5.675   9.768  0.5505 -0.3069  0.4435
  864MOL0     C13982   6.478   5.739   9.745 -0.3901 -0.1642 -0.3342
  864MOL0     H13983   6.055   5.722   9.592  1.5762  0.5436  1.4829
  864MOL0     H13984   5.816   5.782   9.517 -2.2743  0.3693 -0.6552
  864MOL0     H13985   5.570   5.874   9.555 -0.5573  1.0220 -0.4724
  864MOL0     H13986   5.649   5.932   9.399 -0.0466  0.1290 -0.2914
  864MOL0     H13987   5.395   6.022   9.426 -0.8118  0.2297  0.9890
  864MOL0     H13988   5.517   6.140   9.425  0.5437 -1.0109 -1.1868
  864MOL0     H13989   5.513   6.103   9.691 -1.6305  0.3889  1.8822
  864MOL0     H13990   5.356   6.021   9.657 -2.4022  2.6084  1.9951
  864MOL0     H13991   5.415   6.312   9.601 -3.0179  1.2654 -1.0435
  864MOL0     H13992   5.288   6.224   9.527  0.6725  0.9778 -0.7414
  864MOL0     H13993   5.270   6.359   9.758  2.7579  0.6140  1.8551
  864MOL0     H13994   5.361   6.224   9.827 -1.9700 -3.0036  1.3850
  864MOL0     H13995   5.117   6.201   9.882 -1.9969  3.6480 -1.6776
  864MOL0     H13996   5.165   6.062   9.783  2.4162  0.7300  0.5111
  864MOL0     H13997   4.951   6.202   9.747 -0.7313  3.6140  0.0982
  864MOL0     H13998   5.049   6.309   9.657 -0.8976 -1.4059 -0.7740
  864MOL0     H13999   5.063   6.025   9.555 -0.7287 -0.5871 -0.2557
  864MOL0     H14000   5.089   6.181   9.482 -0.8184 -0.8864 -0.4419
  864MOL0     H14001   4.755   6.094   9.663  0.6172  4.0134 -0.2338
  864MOL0     H14002   4.500   6.016   9.421  0.5251  1.9624  0.0007
  864MOL0     H14003   4.545   5.976   9.589  1.5685 -2.3407  0.7124
  864MOL0     H14004   4.640   5.764   9.544 -2.0278 -1.1346  0.5221
  864MOL0     H14005   4.648   5.796   9.373  1.3779  3.0756  0.0233
  864MOL0     H14006   4.427   5.693   9.549  1.5637 -2.0989 -0.1544
  864MOL0     H14007   4.377   5.810   9.433 -0.4461 -0.1829 -1.3923
  864MOL0     H14008   4.532   5.563   9.354  1.0594  0.6293  3.8995
  864MOL0     H14009   4.434   5.667   9.241  1.0223 -0.7404 -0.8930
  864MOL0     H14010   4.130   5.416   9.455  0.2113  1.6130  2.7175
  864MOL0     H14011   3.890   5.465   9.458 -2.5582  0.6928 -2.8953
  864MOL0     H14012   3.549   5.616   9.609 -0.0534  0.1607  0.0900
  864MOL0     H14013   3.318   5.658   9.627  3.4949  1.0551  2.0512
  864MOL0     H14014   3.116   5.760   9.597 -1.0673  1.1212 -0.1347
  864MOL0     H14015   3.051   5.597   9.574 -3.4340  1.0368  1.1740
  864MOL0     H14016   2.915   5.841   9.459  0.7638 -0.9850 -1.0387
  864MOL0     H14017   2.875   5.769   9.607 -3.2183  1.2216 -0.9219
  864MOL0     H14018   2.850   5.550   9.503  0.9305  0.5033 -0.1965
  864MOL0     H14019   2.857   5.599   9.339 -0.9313 -0.2684 -0.8804
  864MOL0     H14020   2.653   5.745   9.525 -3.7980 -2.2365  0.4980
  864MOL0     H14021   2.667   5.745   9.347  0.0799 -0.1267 -1.0539
  864MOL0     H14022   2.635   5.495   9.498  0.4736  0.0008 -1.2580
  864MOL0     H14023   2.612   5.524   9.326  1.4554 -1.7877  0.5364
  864MOL0     H14024   2.411   5.659   9.370 -0.8850 -2.4930 -1.3535
  864MOL0     H14025   2.448   5.667   9.539  2.4021  2.8667 -2.5817
  864MOL0     H14026   2.260   5.502   9.484  0.1509  0.5553  3.8390
  864MOL0     H14027   2.371   5.416   9.382 -0.6149  1.8718 -1.1583
  864MOL0     H14028   2.482   5.308   9.561  0.5854  2.0237 -1.5537
  864MOL0     H14029   2.316   5.321   9.616  0.9541 -0.5427  1.8488
  864MOL0     H14030   3.290   5.699   9.201  0.2701 -1.7555 -0.5186
  864MOL0     H14031   3.526   5.628   9.190  0.0739  3.0485 -0.2146
  864MOL0     H14032   3.990   5.855   9.317 -3.0677 -0.4002  3.3473
  864MOL0     H14033   4.222   5.780   9.282 -0.9986  0.6635  0.4705
  864MOL0     H14034   5.859   6.165   9.715 -1.0900 -0.7019 -1.1676
  864MOL0     H14035   6.092   6.098   9.782  2.4317 -1.3973  1.3210
  864MOL0     H14036   6.317   5.564   9.985  2.0500  3.4075  3.5368
  864MOL0     H14037   6.520   5.445  10.000 -1.5549 -0.2599  0.3899
  864MOL0     H14038   6.886   5.566   9.763 -0.8857 -1.0767  0.3600
  864MOL0     H14039   6.934   5.449   9.883  1.2089 -0.3289 -1.3085
  864MOL0     H14040   6.963   5.719   9.913  0.0615 -1.1708 -3.3342
  864MOL0     H14041   6.793   5.699   9.960  0.4085 -0.1582  2.3998
  864MOL0     H14042   7.047   5.548  10.066 -0.3825 -1.6546  1.6379
  864MOL0     H14043   6.884   5.515  10.119 -0.0922  0.7890  0.0178
  864MOL0     H14044   6.994   5.647  10.286 -0.4643  0.2926  0.5383
  864MOL0     H14045   7.037   5.771  10.175 -1.2976  1.5766 -0.7659
  864MOL0     H14046   6.646   5.871  10.272 -0.4151 -1.5021 -0.1430
  864MOL0     H14047   6.689   5.708   9.713 -0.7773  2.7668  0.0022
  864MOL0     H14048   6.468   5.801   9.656 -0.7360 -1.1103 -0.9650
  865MOL0     O14049   9.307   2.123   0.928 -0.0525  0.3676 -0.0420
  865MOL0     C14050   9.211   2.197   0.901  1.8703 -0.1118 -0.4975
  865MOL0     O14051   9.216   2.314   0.841 -0.4132 -0.1275 -0.5226
  865MOL0     C14052   9.331   2.367   0.791 -0.7402  0.1348  0.0861
  865MOL0     C14053   9.351   2.353   0.654 -1.1070 -0.1866  0.1074
  865MOL0     C14054   9.472   2.395   0.598 -0.8356  0.4361 -0.2680
  865MOL0     C14055   9.567   2.463   0.671 -0.9011 -0.0604 -0.2079
  865MOL0     O14056   9.689   2.475   0.608  0.0170 -0.2808 -0.7906
  865MOL0     C14057   9.779   2.568   0.670 -0.4746 -0.4717 -0.1246
  865MOL0     C14058   9.884   2.592   0.562  0.1399 -0.5429 -0.6869
  865MOL0     C14059   9.990   2.481   0.551 -0.6383  0.2229  0.2237
  865MOL0     C14060  10.121   2.531   0.482 -0.5899  0.1777 -0.2976
  865MOL0     C14061  10.208   2.409   0.444 -0.5598  0.1472  0.5728
  865MOL0     C14062  10.348   2.434   0.373  0.6673  0.6006 -0.2915
  865MOL0     C14063  10.439   2.519   0.458 -0.1344  0.1060 -0.3550
  865MOL0     C14064  10.578   2.499   0.399  0.7390 -0.5955 -1.0620
  865MOL0     N14065  10.671   2.599   0.456  0.1582 -0.9347 -0.0975
  865MOL0     C14066  10.653   2.739   0.464 -0.0511 -0.3332 -0.9583
  865MOL0     C14067  10.769   2.781   0.524  0.2318 -1.0945 -0.6407
  865MOL0     C14068  10.812   2.929   0.552  0.8956  0.9219 -0.8468
  865MOL0     C14069  10.960   2.938   0.507  0.8518  0.0557 -1.4348
  865MOL0     C14070  10.994   3.090   0.506  0.1882  0.5977  0.7710
  865MOL0     C14071  11.147   3.113   0.478  0.1631 -0.6325 -0.0589
  865MOL0     O14072  11.221   3.063   0.584 -0.7431 -0.2597 -0.4537
  865MOL0     C14073  11.356   3.084   0.593  0.0318  0.4350  0.1361
  865MOL0     C14074  11.441   3.134   0.488 -0.7665 -0.4485  0.3254
  865MOL0     C14075  11.577   3.147   0.505  0.4264 -0.1924 -0.6962
  865MOL0     C14076  11.637   3.108   0.619 -0.2083  0.9962 -0.1426
  865MOL0     C14077  11.788   3.095   0.634 -0.8506 -0.1148 -0.8399
  865MOL0     O14078  11.869   3.076   0.526 -0.0176  0.2628  0.5858
  865MOL0     C14079  11.996   3.052   0.550 -0.6923  0.1363 -0.4386
  865MOL0     C14080  12.038   2.933   0.608  1.0833  0.9631  0.4381
  865MOL0     C14081  12.168   2.897   0.610  0.5750  1.1254  0.7113
  865MOL0     C14082  12.262   2.992   0.576 -0.1390  0.2808  0.1041
  865MOL0     O14083  12.391   2.982   0.606 -0.7000 -0.6177  0.3442
  865MOL0     C14084  12.455   2.853   0.631 -0.3512  0.2144  0.3438
  865MOL0     C14085  12.606   2.861   0.604  0.2581  1.3080  0.2591
  865MOL0     C14086  12.678   2.965   0.686  0.1270  0.2243 -1.3035
  865MOL0     C14087  12.826   2.932   0.706 -0.3635 -0.3711  1.0216
  865MOL0     C14088  12.862   2.819   0.799 -0.0072 -0.5815  0.2036
  865MOL0     C14089  13.008   2.832   0.842 -0.0045 -0.2078 -0.7205
  865MOL0     C14090  13.036   2.715   0.938  0.1863  0.0376 -0.6012
  865MOL0     C14091  13.182   2.702   0.980  0.0956 -0.9653 -0.1593
  865MOL0    Cl14092  13.273   2.586   0.876  0.2990 -0.0312  0.0900
  865MOL0     C14093  12.226   3.115   0.535 -0.3923 -0.1364 -0.3923
  865MOL0     C14094  12.092   3.152   0.517  0.1619  0.1188 -0.3399
  865MOL0     O14095  11.826   3.078   0.750  0.4199 -0.0095  0.6668
  865MOL0     C14096  11.558   3.054   0.731 -0.1900 -0.6774  0.3337
  865MOL0     C14097  11.422   3.038   0.712 -1.1721 -0.2656 -0.5748
  865MOL0     N14098  10.851   2.677   0.552  0.5545 -0.0435  0.5911
  865MOL0     N14099  10.792   2.571   0.512 -0.9656 -0.0498  0.6726
  865MOL0     C14100   9.544   2.484   0.807 -0.0065 -0.7200  0.3293
  865MOL0     C14101   9.428   2.433   0.869  1.0726  0.9940  1.1487
  865MOL0     C14102   9.067   2.165   0.954 -0.3651 -0.2167  0.3357
  865MOL0     C14103   8.961   2.257   0.968 -0.3218 -0.6491  0.1651
  865MOL0     C14104   8.842   2.207   1.024  1.1090 -0.0088  0.3722
  865MOL0     C14105   8.822   2.078   1.067  0.7364  0.0009 -0.2347
  865MOL0     O14106   8.710   2.026   1.128  0.4837  0.1131 -0.7076
  865MOL0     C14107   8.612   2.125   1.170 -0.8333  0.3343  0.5467
  865MOL0     C14108   8.500   2.033   1.225  0.6102  0.4656 -0.1879
  865MOL0     C14109   8.527   1.947   1.348 -0.4092 -0.1366 -0.2392
  865MOL0     C14110   8.566   2.034   1.465 -0.3525 -0.0915  0.5493
  865MOL0     C14111   8.581   1.948   1.593  0.0432  0.2878  0.5357
  865MOL0     C14112   8.590   1.881   1.689  0.0789  0.1509  0.1208
  865MOL0     C14113   8.926   1.992   1.042  0.0587 -0.3520 -0.0027
  865MOL0     C14114   9.048   2.029   0.980  0.1109 -0.3967 -0.7495
  865MOL0     H14115   9.270   2.303   0.601 -2.6489 -0.4967  2.5406
  865MOL0     H14116   9.498   2.379   0.494  2.3655 -2.4657  0.8235
  865MOL0     H14117   9.827   2.532   0.761 -0.0822 -1.5652 -0.7474
  865MOL0     H14118   9.730   2.663   0.692 -1.0837 -0.9856  0.8080
  865MOL0     H14119   9.942   2.684   0.570  0.8227 -0.8701 -1.6668
  865MOL0     H14120   9.832   2.608   0.467 -1.9847  1.5498  0.7112
  865MOL0     H14121   9.946   2.399   0.493 -1.3967  0.2260  0.7841
  865MOL0     H14122  10.006   2.450   0.654  0.5789 -1.4839 -0.4380
  865MOL0     H14123  10.103   2.595   0.395  2.1707  0.8475 -0.4458
  865MOL0     H14124  10.171   2.594   0.555  2.5303  1.1642 -3.0331
  865MOL0     H14125  10.142   2.346   0.385 -2.9498  2.2039  0.8481
  865MOL0     H14126  10.233   2.360   0.539 -0.6381  1.2482  1.1894
  865MOL0     H14127  10.328   2.485   0.279  0.1758 -1.0522 -1.1125
  865MOL0     H14128  10.384   2.335   0.345 -0.1203 -0.7823  3.0332
  865MOL0     H14129  10.410   2.624   0.453 -1.3801 -0.1002  1.6942
  865MOL0     H14130  10.437   2.490   0.563  0.6391  2.9839  0.5336
  865MOL0     H14131  10.569   2.519   0.292 -0.1770 -2.0299 -1.2807
  865MOL0     H14132  10.615   2.397   0.409  0.2354 -0.5965  1.5526
  865MOL0     H14133  10.571   2.806   0.437  0.5755 -0.4042 -3.2415
  865MOL0     H14134  10.785   2.954   0.655  1.8561  0.4166 -0.4652
  865MOL0     H14135  10.738   2.990   0.499 -1.1596 -1.4203 -0.8686
  865MOL0     H14136  10.968   2.893   0.408  1.9199 -3.0419 -0.0633
  865MOL0     H14137  11.021   2.886   0.582 -2.7000 -0.2414  1.5641
  865MOL0     H14138  10.933   3.120   0.420 -0.0520 -1.8820 -0.0270
  865MOL0     H14139  10.963   3.137   0.599  0.4479 -1.7032  2.1000
  865MOL0     H14140  11.155   3.223   0.477 -1.6041 -0.4760 -0.1504
  865MOL0     H14141  11.174   3.061   0.386  2.5163 -3.4439  2.0129
  865MOL0     H14142  11.392   3.158   0.394  0.3294 -2.2862 -0.7748
  865MOL0     H14143  11.646   3.173   0.426 -0.9146  0.3659 -1.7121
  865MOL0     H14144  11.974   2.859   0.655  1.6526 -0.1646 -0.5112
  865MOL0     H14145  12.199   2.804   0.658  1.6907  0.2210 -1.6062
  865MOL0     H14146  12.423   2.778   0.559  0.7026  1.0729 -1.0702
  865MOL0     H14147  12.432   2.818   0.732 -1.2243  0.4545  0.2349
  865MOL0     H14148  12.617   2.891   0.499  1.4420  1.2052  0.3384
  865MOL0     H14149  12.650   2.762   0.618 -0.8070  1.1739  3.2315
  865MOL0     H14150  12.621   2.983   0.778 -1.8494  3.0398 -2.9445
  865MOL0     H14151  12.679   3.063   0.638 -1.1959  1.2622  0.6375
  865MOL0     H14152  12.873   2.916   0.608  2.3379  4.2575  1.2727
  865MOL0     H14153  12.888   3.019   0.733  1.6848 -0.3469 -2.9605
  865MOL0     H14154  12.858   2.729   0.737 -0.6812 -0.3247 -0.1360
  865MOL0     H14155  12.795   2.813   0.885 -1.4748 -1.6725 -0.9504
  865MOL0     H14156  13.012   2.928   0.894  0.5484 -1.3717  1.5024
  865MOL0     H14157  13.080   2.810   0.762  1.9410 -0.5802  1.0410
  865MOL0     H14158  12.978   2.739   1.028 -0.8886  0.1237 -1.3014
  865MOL0     H14159  12.997   2.625   0.890 -3.8134  0.9412  0.5103
  865MOL0     H14160  13.176   2.655   1.078 -2.9091 -3.0761 -1.2316
  865MOL0     H14161  13.229   2.801   0.981 -0.5487 -0.5221 -3.1846
  865MOL0     H14162  12.301   3.192   0.517 -2.0528  1.9804  1.1008
  865MOL0     H14163  12.065   3.247   0.473 -0.7604 -0.4410 -1.0241
  865MOL0     H14164  11.595   3.036   0.831 -1.4088  0.5268  1.0331
  865MOL0     H14165  11.354   3.003   0.790 -2.6799  3.7088  0.1269
  865MOL0     H14166   9.615   2.537   0.870 -1.9386  0.6692  1.4328
  865MOL0     H14167   9.403   2.452   0.973 -2.6487 -0.4445  0.6535
  865MOL0     H14168   8.970   2.358   0.929  1.7501 -1.1935 -0.9020
  865MOL0     H14169   8.765   2.283   1.038  1.7303  0.4740  1.2209
  865MOL0     H14170   8.585   2.192   1.089  1.6632  0.8452  0.0440
  865MOL0     H14171   8.659   2.185   1.248  0.6614  0.3665 -0.3374
  865MOL0     H14172   8.430   2.109   1.262  2.2133  0.4039  3.3441
  865MOL0     H14173   8.465   1.974   1.140 -0.7105  1.0980 -0.1191
  865MOL0     H14174   8.616   1.889   1.320 -0.3442  0.3024 -0.9578
  865MOL0     H14175   8.443   1.878   1.361  0.3409 -0.8781  0.8440
  865MOL0     H14176   8.666   2.073   1.443 -0.3730  0.0362  0.6817
  865MOL0     H14177   8.502   2.122   1.479  0.1367  0.9153 -2.7667
  865MOL0     H14178   8.609   1.810   1.767  0.5573  2.5384  2.2995
  865MOL0     H14179   8.909   1.888   1.067  0.7850 -0.2623  0.9764
  865MOL0     H14180   9.127   1.958   0.959  2.0666  0.3351  3.1373
  866MOL0     O14181  11.253   2.269   1.113  0.2826  0.4043  0.0670
  866MOL0     C14182  11.321   2.175   1.091 -0.0886  0.7022 -0.4726
  866MOL0     O14183  11.275   2.044   1.111  0.3615 -0.4191  0.1061
  866MOL0     C14184  11.154   2.019   1.155  1.3959 -0.0477  0.3342
  866MOL0     C14185  11.062   1.955   1.075  0.5055  0.5037 -0.8702
  866MOL0     C14186  10.934   1.927   1.116  0.5037 -0.2251 -0.4006
  866MOL0     C14187  10.885   1.988   1.229  0.6996 -0.5479 -0.1915
  866MOL0     O14188  10.757   1.960   1.268 -0.1826  0.1028 -0.6929
  866MOL0     C14189  10.693   2.042   1.363  0.8255  0.4419 -0.9164
  866MOL0     C14190  10.546   2.024   1.340  0.4314  0.8682  0.7078
  866MOL0     C14191  10.489   1.890   1.389  0.2987 -0.1378  0.6297
  866MOL0     C14192  10.351   1.875   1.323  0.7402  0.0023 -0.2023
  866MOL0     C14193  10.312   1.731   1.358 -0.9409  0.2428  0.8273
  866MOL0     C14194  10.193   1.694   1.275  0.9529 -1.0713  0.5822
  866MOL0     C14195  10.169   1.540   1.258 -1.3127 -0.1497  0.6259
  866MOL0     C14196  10.029   1.510   1.214 -1.0674  0.2372  0.4680
  866MOL0     N14197   9.950   1.492   1.331 -0.3972 -0.4450 -0.7161
  866MOL0     C14198   9.938   1.386   1.413  0.4940 -0.0581  0.0868
  866MOL0     C14199   9.839   1.410   1.501 -0.4670 -0.9339  0.7521
  866MOL0     C14200   9.788   1.308   1.592  0.5765 -0.3210 -0.7513
  866MOL0     C14201   9.645   1.257   1.537 -0.3667 -1.3777  0.2279
  866MOL0     C14202   9.665   1.162   1.412 -0.4560  0.8479  0.3576
  866MOL0     C14203   9.550   1.069   1.393 -0.1007 -0.0011  1.2165
  866MOL0     O14204   9.562   0.964   1.487 -0.2988  0.2847  0.3820
  866MOL0     C14205   9.457   0.877   1.500  0.8030  1.0798  0.7035
  866MOL0     C14206   9.453   0.799   1.612 -0.2633  0.3583 -0.6117
  866MOL0     C14207   9.343   0.709   1.639 -0.5081  0.2801 -0.5996
  866MOL0     C14208   9.239   0.704   1.539  0.2083  0.8512  0.4393
  866MOL0     C14209   9.117   0.617   1.567  0.7417  0.0313 -0.1869
  866MOL0     O14210   9.095   0.565   1.697  0.0808 -0.3719 -0.2262
  866MOL0     C14211   8.976   0.501   1.724  0.3946  0.1539  0.4459
  866MOL0     C14212   8.976   0.386   1.800  0.2036  0.4585  0.2472
  866MOL0     C14213   8.856   0.328   1.828 -0.0300 -0.0963  0.8526
  866MOL0     C14214   8.734   0.396   1.789  0.2909  0.4226  0.0105
  866MOL0     O14215   8.608   0.340   1.819  0.2178  0.3529 -1.1162
  866MOL0     C14216   8.594   0.269   1.948  0.1335 -0.7820 -0.7338
  866MOL0     C14217   8.591   0.115   1.934 -0.8355  0.4308  0.1785
  866MOL0     C14218   8.522   0.043   2.045  0.4818  0.6322 -0.0167
  866MOL0     C14219   8.530  -0.112   2.046 -0.0091 -0.3460  0.3132
  866MOL0     C14220   8.483  -0.159   2.177 -0.2503  0.3682 -0.1223
  866MOL0     C14221   8.487  -0.314   2.184  0.5749 -0.8900  0.2996
  866MOL0     C14222   8.527  -0.356   2.327  0.2500 -0.3960  0.0926
  866MOL0     C14223   8.572  -0.501   2.335  0.6506  1.3097 -0.5622
  866MOL0    Cl14224   8.444  -0.620   2.307  0.2659 -0.2287 -0.0372
  866MOL0     C14225   8.740   0.502   1.704  0.5992 -0.4233 -0.0110
  866MOL0     C14226   8.858   0.559   1.665 -0.8097 -1.0963 -0.3127
  866MOL0     O14227   9.047   0.597   1.470  0.7290 -0.5323 -0.2020
  866MOL0     C14228   9.252   0.772   1.419 -0.1361  0.2971 -1.1248
  866MOL0     C14229   9.353   0.866   1.407 -0.0847  0.1214  0.0431
  866MOL0     N14230   9.801   1.549   1.488 -0.9543  0.6800 -0.3692
  866MOL0     N14231   9.863   1.588   1.380  0.3856 -0.7355 -0.0182
  866MOL0     C14232  10.978   2.065   1.306  0.7399 -0.1738 -0.8727
  866MOL0     C14233  11.110   2.069   1.281  0.6251  0.4844 -0.1426
  866MOL0     C14234  11.466   2.194   1.085  0.1252  0.8586  0.4538
  866MOL0     C14235  11.525   2.325   1.078  0.7950 -0.1408  0.9656
  866MOL0     C14236  11.662   2.340   1.079  0.5558  0.7191  0.1498
  866MOL0     C14237  11.745   2.234   1.107  0.1170 -0.6431 -0.2342
  866MOL0     O14238  11.876   2.258   1.126  0.0608 -0.2027  0.0439
  866MOL0     C14239  11.961   2.155   1.178 -0.4442 -0.1199 -0.5590
  866MOL0     C14240  12.098   2.223   1.190  0.3444  0.0277  0.4066
  866MOL0     C14241  12.208   2.134   1.261  0.2481  0.0525  0.5828
  866MOL0     C14242  12.335   2.216   1.272  0.2259  0.6911 -0.6087
  866MOL0     C14243  12.402   2.216   1.142  0.7537 -0.5311  0.3005
  866MOL0     C14244  12.464   2.204   1.044 -0.4988 -0.5632 -0.6725
  866MOL0     C14245  11.687   2.105   1.122  0.8278 -0.4089  0.6823
  866MOL0     C14246  11.545   2.086   1.118 -0.3881 -0.1027  0.6342
  866MOL0     H14247  11.104   1.919   0.982  0.5180  0.5210 -0.8711
  866MOL0     H14248  10.860   1.883   1.050  1.3799 -0.0243 -1.5543
  866MOL0     H14249  10.722   2.147   1.372  0.4171  0.5619 -0.9472
  866MOL0     H14250  10.719   2.011   1.464  2.1217  4.3745  0.1404
  866MOL0     H14251  10.533   2.025   1.232  2.2783 -2.1707  0.3253
  866MOL0     H14252  10.499   2.109   1.391 -0.5727  0.6853  0.0961
  866MOL0     H14253  10.468   1.910   1.494  2.1265  3.0899  0.5354
  866MOL0     H14254  10.556   1.805   1.381  0.6942  0.3178 -1.4313
  866MOL0     H14255  10.283   1.938   1.382  0.3141  0.1659 -0.8593
  866MOL0     H14256  10.343   1.897   1.216  0.4343 -2.2927 -0.7046
  866MOL0     H14257  10.293   1.723   1.465 -1.5408  2.7181  0.9605
  866MOL0     H14258  10.396   1.664   1.340 -0.8176  0.3628  0.9559
  866MOL0     H14259  10.191   1.748   1.180 -0.8339 -0.9441  0.6544
  866MOL0     H14260  10.116   1.744   1.335  1.1537  0.3915 -0.3345
  866MOL0     H14261  10.244   1.507   1.186  0.9490  1.1926  2.2382
  866MOL0     H14262  10.198   1.485   1.347  1.4697 -0.0660 -0.1324
  866MOL0     H14263  10.029   1.422   1.149  1.9008  2.5975 -3.1454
  866MOL0     H14264   9.978   1.587   1.154  1.4628  1.4863 -0.1939
  866MOL0     H14265   9.982   1.289   1.391 -0.2472  0.4597 -4.7987
  866MOL0     H14266   9.757   1.349   1.688  0.9214 -3.3186  0.7793
  866MOL0     H14267   9.850   1.226   1.629  1.1433  0.6022  0.4067
  866MOL0     H14268   9.587   1.348   1.519 -1.3473 -1.9304  0.5196
  866MOL0     H14269   9.594   1.199   1.615  1.1644  0.0900  2.4479
  866MOL0     H14270   9.672   1.227   1.324  1.8639  2.1833  1.4044
  866MOL0     H14271   9.757   1.105   1.425  2.6177  5.4476  1.5842
  866MOL0     H14272   9.541   1.032   1.291 -0.8903  1.5548  0.6834
  866MOL0     H14273   9.461   1.128   1.416 -0.1411 -0.6837  2.9526
  866MOL0     H14274   9.526   0.817   1.691 -1.3753  1.4694  0.1903
  866MOL0     H14275   9.334   0.656   1.734 -0.6123  1.4459  0.0644
  866MOL0     H14276   9.073   0.350   1.830 -0.0549 -0.1053  0.4075
  866MOL0     H14277   8.848   0.234   1.880  1.1385 -0.9890 -0.5226
  866MOL0     H14278   8.499   0.306   1.989  1.5600  1.0394  1.1609
  866MOL0     H14279   8.673   0.295   2.020  1.3347  1.9497 -2.8609
  866MOL0     H14280   8.694   0.080   1.930 -0.9966 -0.5409  2.9786
  866MOL0     H14281   8.534   0.085   1.845 -0.7558  0.1349  0.2281
  866MOL0     H14282   8.420   0.080   2.035  0.3869 -0.3262 -3.7395
  866MOL0     H14283   8.564   0.087   2.136 -1.0103 -0.7883  1.4254
  866MOL0     H14284   8.476  -0.165   1.967  0.6003 -1.3903  0.5763
  866MOL0     H14285   8.634  -0.139   2.025  0.3706 -0.6690  2.4053
  866MOL0     H14286   8.388  -0.120   2.214  0.5019 -0.1411  2.6238
  866MOL0     H14287   8.547  -0.103   2.246  0.7422  1.1191 -1.6180
  866MOL0     H14288   8.566  -0.343   2.115 -0.7393  3.5586 -3.6002
  866MOL0     H14289   8.388  -0.351   2.154 -0.4656  1.9568 -0.1196
  866MOL0     H14290   8.610  -0.299   2.371 -0.7808  0.0490  1.5392
  866MOL0     H14291   8.447  -0.331   2.398  1.5127  1.3775  0.9566
  866MOL0     H14292   8.612  -0.527   2.433 -0.8023 -2.2789 -0.7636
  866MOL0     H14293   8.650  -0.515   2.259  0.8172  0.0593 -0.1870
  866MOL0     H14294   8.654   0.552   1.660  0.6497  0.5030  0.9142
  866MOL0     H14295   8.858   0.653   1.611 -3.2901 -1.1968 -0.5798
  866MOL0     H14296   9.179   0.783   1.340 -0.6318  2.3807 -0.4325
  866MOL0     H14297   9.358   0.920   1.313  1.0104  0.8554  0.4940
  866MOL0     H14298  10.939   2.113   1.395  0.7687 -0.8395 -0.4887
  866MOL0     H14299  11.171   2.120   1.354 -0.1559  2.6932 -0.9519
  866MOL0     H14300  11.470   2.414   1.051  0.9168 -0.0490  1.0216
  866MOL0     H14301  11.699   2.434   1.039  1.9834 -0.1356 -0.6312
  866MOL0     H14302  11.966   2.067   1.113  1.6706 -0.4161 -0.0793
  866MOL0     H14303  11.928   2.125   1.278  1.8488  0.7717  0.5389
  866MOL0     H14304  12.129   2.247   1.088  0.4030  2.2341  0.8909
  866MOL0     H14305  12.076   2.312   1.249 -0.6459 -1.1112  1.8357
  866MOL0     H14306  12.223   2.040   1.207  0.4727  0.6510 -0.4119
  866MOL0     H14307  12.171   2.114   1.362 -1.0726 -0.1811  0.0778
  866MOL0     H14308  12.331   2.321   1.303 -1.0291  0.3282  0.5572
  866MOL0     H14309  12.404   2.168   1.342 -0.3445  0.2561 -0.3384
  866MOL0     H14310  12.528   2.205   0.958 -0.0089 -3.1345 -0.4230
  866MOL0     H14311  11.750   2.017   1.135  2.2003 -0.4497 -4.2543
  866MOL0     H14312  11.508   1.991   1.155 -2.3286  1.0389  1.7750
  867MOL0     O14313   7.244   7.329   0.403  0.2405  0.5832 -0.4318
  867MOL0     C14314   7.237   7.392   0.508 -0.4150  0.1823  0.1734
  867MOL0     O14315   7.131   7.473   0.546 -0.2442  0.1833 -0.2232
  867MOL0     C14316   7.032   7.505   0.449  0.3830  0.7665 -0.1696
  867MOL0     C14317   6.936   7.409   0.419 -0.3629 -0.0451  0.5023
  867MOL0     C14318   6.830   7.433   0.335  0.1989  0.6387 -0.3073
  867MOL0     C14319   6.824   7.560   0.273 -0.1852  0.0433 -0.4153
  867MOL0     O14320   6.724   7.603   0.192 -0.0991 -0.6582 -0.0580
  867MOL0     C14321   6.599   7.530   0.186  0.7326  0.1847  0.2898
  867MOL0     C14322   6.486   7.578   0.096  0.4230 -0.1040  0.3271
  867MOL0     C14323   6.395   7.459   0.058 -0.1127 -0.3587 -0.0271
  867MOL0     C14324   6.272   7.518  -0.009 -0.7239  0.2338  0.7764
  867MOL0     C14325   6.148   7.432   0.009 -0.2554 -0.1929 -0.5802
  867MOL0     C14326   6.052   7.433  -0.114 -0.4863 -0.6879 -0.0087
  867MOL0     C14327   5.977   7.566  -0.106  0.4948 -0.1406  0.0802
  867MOL0     C14328   5.884   7.602  -0.226  0.2110  0.2141 -0.5109
  867MOL0     N14329   5.775   7.504  -0.232 -0.4733 -0.1661  0.3118
  867MOL0     C14330   5.665   7.505  -0.145  0.3852  0.2474  0.3126
  867MOL0     C14331   5.597   7.387  -0.174 -0.5457  0.3331  1.1032
  867MOL0     C14332   5.462   7.339  -0.130 -0.0904  0.4899  0.3427
  867MOL0     C14333   5.434   7.337   0.026 -0.0441 -0.0751  0.6018
  867MOL0     C14334   5.500   7.214   0.088 -0.8608  0.6389  0.2884
  867MOL0     C14335   5.477   7.176   0.237  0.6529 -0.3037  0.6509
  867MOL0     O14336   5.562   7.064   0.273  0.2797 -0.3003 -0.3013
  867MOL0     C14337   5.505   6.946   0.310 -0.6973  0.8451  0.3902
  867MOL0     C14338   5.587   6.833   0.290 -0.2425  0.5213 -0.4885
  867MOL0     C14339   5.552   6.697   0.334  0.4952  0.1618 -0.3115
  867MOL0     C14340   5.430   6.670   0.386  0.4952 -0.2182 -0.8924
  867MOL0     C14341   5.406   6.536   0.443 -0.5318  0.8098  0.3128
  867MOL0     O14342   5.279   6.527   0.488  0.9561 -0.4058 -0.1908
  867MOL0     C14343   5.215   6.409   0.510 -0.0239  0.2616 -0.9220
  867MOL0     C14344   5.266   6.272   0.533 -0.5262 -1.2657 -0.3105
  867MOL0     C14345   5.183   6.167   0.578  0.1126 -0.3640 -0.0965
  867MOL0     C14346   5.049   6.179   0.598 -1.6060 -0.0499 -0.0705
  867MOL0     O14347   4.976   6.073   0.642  0.0952 -0.6578  0.0798
  867MOL0     C14348   4.843   6.084   0.680  0.0301  0.0775 -1.3850
  867MOL0     C14349   4.806   5.953   0.762 -0.1385 -0.5491 -0.0333
  867MOL0     C14350   4.798   5.835   0.675  0.0381  0.5120 -0.0823
  867MOL0     C14351   4.664   5.820   0.599  0.7653 -0.6033 -0.1998
  867MOL0     C14352   4.671   5.708   0.491  0.9492 -0.9728  0.6209
  867MOL0     C14353   4.543   5.679   0.412  0.8930 -0.0588 -0.1814
  867MOL0     C14354   4.445   5.604   0.505 -0.3603 -0.1963  0.9934
  867MOL0     C14355   4.372   5.490   0.430  0.2264  0.5529  0.2498
  867MOL0    Cl14356   4.493   5.385   0.353 -0.2347 -0.0814  0.3473
  867MOL0     C14357   4.985   6.300   0.564 -1.0358  0.9355 -0.1118
  867MOL0     C14358   5.075   6.411   0.527 -0.4167  0.0439  0.8159
  867MOL0     O14359   5.487   6.444   0.434 -0.4030 -0.1543 -0.0040
  867MOL0     C14360   5.342   6.785   0.405  0.6294  0.4795  0.2625
  867MOL0     C14361   5.381   6.917   0.368  0.2296 -0.4015  0.5473
  867MOL0     N14362   5.674   7.326  -0.271  0.1077  0.9730 -0.3494
  867MOL0     N14363   5.778   7.391  -0.301 -0.4496 -0.5485 -0.4818
  867MOL0     C14364   6.904   7.666   0.310 -0.2885  0.6378  0.9227
  867MOL0     C14365   7.014   7.624   0.390  0.1004 -0.5518  0.1518
  867MOL0     C14366   7.356   7.388   0.591  0.2946  0.3778 -0.2540
  867MOL0     C14367   7.473   7.314   0.563  0.1028 -0.9877 -0.2980
  867MOL0     C14368   7.580   7.301   0.659  0.8394 -0.7741  0.2073
  867MOL0     C14369   7.581   7.379   0.775  0.0099  0.6918 -0.5349
  867MOL0     O14370   7.695   7.375   0.843 -0.8043  0.4710  0.2044
  867MOL0     C14371   7.686   7.436   0.976 -0.7801  0.0399 -0.4882
  867MOL0     C14372   7.820   7.421   1.047  0.2222 -0.2433  0.5217
  867MOL0     C14373   7.948   7.442   0.955  0.1637  0.4343  0.3691
  867MOL0     C14374   8.078   7.417   1.034  0.1870  0.9312  0.5708
  867MOL0     C14375   8.100   7.464   1.169 -1.2524  0.1407  0.0092
  867MOL0     C14376   8.121   7.506   1.284  0.9522  0.3737  0.5342
  867MOL0     C14377   7.466   7.441   0.804 -1.0876  0.0451 -0.0280
  867MOL0     C14378   7.360   7.450   0.716 -0.3848  0.0945 -0.5637
  867MOL0     H14379   6.950   7.313   0.468 -0.8716 -0.8045 -0.8099
  867MOL0     H14380   6.751   7.359   0.331  0.9750 -0.2862  0.9587
  867MOL0     H14381   6.561   7.529   0.289 -0.1485  0.6307 -0.0204
  867MOL0     H14382   6.624   7.428   0.155  0.6703 -1.0551  3.8676
  867MOL0     H14383   6.514   7.621  -0.001 -1.3678  1.3835  0.4147
  867MOL0     H14384   6.438   7.651   0.161 -3.0181 -4.9610  4.0448
  867MOL0     H14385   6.365   7.409   0.151  0.4170 -2.6768 -1.0177
  867MOL0     H14386   6.444   7.383  -0.004  0.8111 -1.9149  2.4147
  867MOL0     H14387   6.253   7.616   0.035  4.0048  1.9085 -0.2998
  867MOL0     H14388   6.289   7.550  -0.112  2.0831  0.1465  1.1418
  867MOL0     H14389   6.104   7.460   0.105  0.1150 -0.3611 -0.3587
  867MOL0     H14390   6.184   7.330   0.026  1.1670  0.5279  1.0426
  867MOL0     H14391   5.982   7.349  -0.114 -2.1210  0.6114  1.4505
  867MOL0     H14392   6.105   7.418  -0.209 -2.4806  0.4114 -1.3505
  867MOL0     H14393   5.922   7.566  -0.011  2.0792  0.6570  1.0286
  867MOL0     H14394   6.050   7.647  -0.103 -0.0098  0.3027  2.2668
  867MOL0     H14395   5.952   7.610  -0.311 -0.1790  3.9612 -0.6470
  867MOL0     H14396   5.845   7.704  -0.219 -1.3735 -0.4134  0.2030
  867MOL0     H14397   5.637   7.579  -0.071 -1.0907  2.3858 -2.2450
  867MOL0     H14398   5.435   7.236  -0.155  1.0869 -0.0276  1.1209
  867MOL0     H14399   5.403   7.421  -0.173 -0.5812  0.1193  0.3031
  867MOL0     H14400   5.327   7.318   0.043  0.5622 -1.6393  3.0881
  867MOL0     H14401   5.474   7.425   0.077  0.3314 -1.4179  2.7645
  867MOL0     H14402   5.455   7.134   0.030  0.2531 -1.1844  1.8308
  867MOL0     H14403   5.609   7.224   0.081 -0.6667  0.5492  2.3610
  867MOL0     H14404   5.373   7.143   0.248  0.7178 -1.1491 -0.9583
  867MOL0     H14405   5.481   7.250   0.317 -2.2642  0.2883  0.3598
  867MOL0     H14406   5.680   6.843   0.235 -0.4710 -1.9657 -1.4662
  867MOL0     H14407   5.617   6.614   0.306 -0.7522 -1.2486  0.7870
  867MOL0     H14408   5.373   6.251   0.530  0.1211  1.4509  0.5770
  867MOL0     H14409   5.220   6.072   0.615 -1.1030 -0.6916  0.3463
  867MOL0     H14410   4.775   6.089   0.595 -0.7515  1.9267 -0.7103
  867MOL0     H14411   4.841   6.166   0.753  0.1223  1.6507 -3.0970
  867MOL0     H14412   4.712   5.977   0.812 -0.8317 -1.7965 -0.6902
  867MOL0     H14413   4.891   5.938   0.830  0.8607  1.3620 -0.7758
  867MOL0     H14414   4.808   5.749   0.742 -0.5379  3.1470  3.7096
  867MOL0     H14415   4.878   5.824   0.601 -1.0891 -3.8693 -0.9341
  867MOL0     H14416   4.580   5.813   0.668 -0.0953  1.7382 -0.8965
  867MOL0     H14417   4.650   5.916   0.548 -1.2779 -1.0434 -0.5551
  867MOL0     H14418   4.705   5.608   0.522  2.0979 -1.2504 -1.3749
  867MOL0     H14419   4.736   5.744   0.411  0.0609 -1.2663 -0.2420
  867MOL0     H14420   4.577   5.613   0.332 -0.6084 -1.8070  0.5436
  867MOL0     H14421   4.507   5.774   0.374  2.3559  0.6627  0.1662
  867MOL0     H14422   4.499   5.564   0.591 -1.4209 -3.2799  0.3601
  867MOL0     H14423   4.368   5.663   0.556 -0.6347  3.4583 -3.0754
  867MOL0     H14424   4.301   5.530   0.357 -4.7055  0.9903  4.7222
  867MOL0     H14425   4.311   5.442   0.507  0.6062  1.8605  1.4142
  867MOL0     H14426   4.879   6.312   0.581 -1.8740 -1.3963 -2.9034
  867MOL0     H14427   5.041   6.513   0.514 -1.0131 -0.4534 -2.0695
  867MOL0     H14428   5.248   6.774   0.457  0.9296  0.5332  0.8239
  867MOL0     H14429   5.309   6.996   0.389  2.1321  1.1608  1.5155
  867MOL0     H14430   6.906   7.769   0.277 -0.6659 -0.1760 -1.8553
  867MOL0     H14431   7.077   7.708   0.415 -1.2628 -0.1020  2.3044
  867MOL0     H14432   7.487   7.274   0.463 -2.5375  1.1094 -1.6436
  867MOL0     H14433   7.661   7.231   0.641  0.1800 -1.2677 -0.9425
  867MOL0     H14434   7.612   7.393   1.044 -0.5865 -0.8270 -0.8083
  867MOL0     H14435   7.668   7.543   0.965 -0.7534  0.1499  0.4215
  867MOL0     H14436   7.813   7.503   1.119  0.0020 -0.8877  1.2501
  867MOL0     H14437   7.822   7.325   1.100  1.2734 -1.9899 -2.4190
  867MOL0     H14438   7.947   7.546   0.923  0.0974 -0.4649 -2.8548
  867MOL0     H14439   7.945   7.382   0.864 -0.0582  0.3725  0.4165
  867MOL0     H14440   8.093   7.310   1.045 -2.7485  0.2056 -1.5333
  867MOL0     H14441   8.159   7.463   0.976 -0.7618  3.8695  1.3609
  867MOL0     H14442   8.134   7.551   1.380 -1.6258  4.7534 -0.8711
  867MOL0     H14443   7.461   7.499   0.896 -0.8293  1.9889 -1.1807
  867MOL0     H14444   7.266   7.497   0.744 -0.7615 -0.2518 -1.2474
  868MOL0     O14445   9.903   4.002   3.202 -0.3637 -0.3014 -0.3964
  868MOL0     C14446   9.884   4.116   3.249  0.3830 -0.6148  0.7121
  868MOL0     O14447   9.776   4.195   3.225 -0.3374  0.5754  0.0923
  868MOL0     C14448   9.659   4.135   3.187 -0.6319 -0.2255  0.4334
  868MOL0     C14449   9.611   4.181   3.067 -0.0462 -0.2780  0.2947
  868MOL0     C14450   9.501   4.122   3.014 -0.6082  0.5164 -0.0738
  868MOL0     C14451   9.430   4.023   3.073 -0.3774 -0.5280  0.0685
  868MOL0     O14452   9.313   3.982   3.004 -0.7648  0.8248 -0.0057
  868MOL0     C14453   9.296   3.837   3.004  0.1007 -0.2624  0.0280
  868MOL0     C14454   9.164   3.800   2.930 -0.2040  0.2744 -0.8910
  868MOL0     C14455   9.167   3.647   2.925 -0.7152  0.1567 -0.5342
  868MOL0     C14456   9.037   3.593   2.878 -0.5468  0.9867  0.8997
  868MOL0     C14457   9.036   3.439   2.889  0.7327  0.0609  0.4117
  868MOL0     C14458   8.899   3.393   2.864 -0.7869 -0.0012  0.0963
  868MOL0     C14459   8.891   3.248   2.924  0.7377  0.6430 -0.3327
  868MOL0     C14460   8.753   3.205   2.937  0.0846  0.2314 -0.3820
  868MOL0     N14461   8.669   3.210   2.817  0.3838 -0.5414  0.3705
  868MOL0     C14462   8.651   3.106   2.724  0.2091 -0.2222 -0.5936
  868MOL0     C14463   8.562   3.157   2.633 -0.1931 -0.4658  0.3967
  868MOL0     C14464   8.505   3.068   2.524 -0.1561  0.2355  0.2986
  868MOL0     C14465   8.356   3.086   2.509 -0.2251  0.2286 -0.1532
  868MOL0     C14466   8.276   3.024   2.623  1.0558 -0.2008  0.0295
  868MOL0     C14467   8.134   3.068   2.632  0.1634 -0.8990 -0.3254
  868MOL0     O14468   8.061   3.048   2.518 -0.5429  0.0515 -0.1185
  868MOL0     C14469   7.925   3.063   2.507  0.6429  0.4606  0.1560
  868MOL0     C14470   7.853   3.032   2.392  0.0348 -0.1257 -0.2912
  868MOL0     C14471   7.713   3.053   2.389 -0.5756 -0.8276  0.1337
  868MOL0     C14472   7.642   3.109   2.497 -0.7354 -0.6278  0.3889
  868MOL0     C14473   7.495   3.133   2.497  0.3687 -0.5658 -0.4038
  868MOL0     O14474   7.427   3.083   2.396 -0.3572  0.5909  0.5461
  868MOL0     C14475   7.290   3.081   2.411  1.0014 -0.1353  0.7073
  868MOL0     C14476   7.215   3.080   2.285 -1.0679 -0.8817 -0.2073
  868MOL0     C14477   7.073   3.068   2.267 -0.7736  0.0089 -1.1511
  868MOL0     C14478   7.003   3.047   2.386 -0.1262  0.1186  0.1096
  868MOL0     O14479   6.865   3.047   2.393  0.1233  0.4759 -0.1995
  868MOL0     C14480   6.797   2.933   2.347  1.1975 -0.2449 -0.4583
  868MOL0     C14481   6.703   2.869   2.452 -0.7115 -0.4259 -0.1903
  868MOL0     C14482   6.581   2.951   2.493 -0.0167 -0.0661 -0.5496
  868MOL0     C14483   6.457   2.871   2.532  1.2949  0.1839  0.2321
  868MOL0     C14484   6.339   2.973   2.524  0.2627 -0.3505  0.2792
  868MOL0     C14485   6.214   2.896   2.552 -0.2855 -0.8122 -0.1153
  868MOL0     C14486   6.083   2.994   2.563  0.3181  0.1343  0.8349
  868MOL0     C14487   5.996   2.972   2.685  0.6402  0.2133 -0.6970
  868MOL0    Cl14488   5.883   2.848   2.617  0.3866  0.1618  0.0568
  868MOL0     C14489   7.074   3.040   2.513  0.1624  0.0624  0.3919
  868MOL0     C14490   7.216   3.051   2.521 -0.0694  0.3607  0.3113
  868MOL0     O14491   7.448   3.202   2.581  0.7531 -0.0633 -0.1351
  868MOL0     C14492   7.721   3.135   2.608  0.1864  0.7285 -0.5537
  868MOL0     C14493   7.852   3.109   2.616 -0.3186  0.4657 -0.4137
  868MOL0     N14494   8.529   3.287   2.665 -0.6738  0.2781 -0.1645
  868MOL0     N14495   8.592   3.315   2.778  0.2879 -0.5145 -0.3139
  868MOL0     C14496   9.477   3.973   3.189  0.4045 -0.9385  0.3053
  868MOL0     C14497   9.595   4.025   3.240 -0.3992 -0.5366  0.0861
  868MOL0     C14498   9.995   4.177   3.325 -0.5217 -0.2745  0.0663
  868MOL0     C14499   9.962   4.290   3.407 -0.5704 -0.1570 -0.1216
  868MOL0     C14500  10.067   4.344   3.476 -0.4101 -0.0673 -0.8398
  868MOL0     C14501  10.200   4.296   3.480  0.1116 -0.1214  0.0195
  868MOL0     O14502  10.301   4.346   3.562 -0.0844 -0.2658  0.2074
  868MOL0     C14503  10.264   4.458   3.642 -0.2095  0.4259  0.0471
  868MOL0     C14504  10.389   4.507   3.724  0.4208  0.1807  0.5035
  868MOL0     C14505  10.385   4.663   3.753 -0.7480  0.6830  0.1749
  868MOL0     C14506  10.479   4.715   3.869 -0.9852  0.3959  0.2548
  868MOL0     C14507  10.445   4.649   3.994 -0.2327 -0.1235  0.7595
  868MOL0     C14508  10.418   4.588   4.093  0.1158  0.8824 -1.0915
  868MOL0     C14509  10.233   4.187   3.398  0.8752  0.2121 -1.0928
  868MOL0     C14510  10.129   4.134   3.325  0.3110  0.3053  0.3286
  868MOL0     H14511   9.655   4.269   3.022 -3.6638  1.4803 -0.1805
  868MOL0     H14512   9.470   4.164   2.919  2.5492  1.9518 -0.6001
  868MOL0     H14513   9.284   3.813   3.110  3.8796  0.6482  0.8170
  868MOL0     H14514   9.384   3.789   2.962 -0.0336 -2.0920  1.6943
  868MOL0     H14515   9.158   3.842   2.829 -3.6517 -1.4029 -1.5154
  868MOL0     H14516   9.078   3.843   2.981  0.6160  1.2700 -0.3168
  868MOL0     H14517   9.193   3.617   3.027  0.3606  0.0306 -0.8286
  868MOL0     H14518   9.255   3.610   2.871  0.0340  0.0821  0.6988
  868MOL0     H14519   8.953   3.645   2.925 -0.4412  0.3639  1.8054
  868MOL0     H14520   9.023   3.622   2.773  2.0279  2.5278  0.8854
  868MOL0     H14521   9.076   3.418   2.989  0.5282  3.2575  1.2637
  868MOL0     H14522   9.101   3.387   2.818  0.4834  1.3028 -0.7570
  868MOL0     H14523   8.885   3.377   2.756  4.1211  2.4049 -1.2085
  868MOL0     H14524   8.831   3.458   2.920  1.8371  0.4567  3.0337
  868MOL0     H14525   8.939   3.179   2.855 -1.0785 -0.7557 -0.2803
  868MOL0     H14526   8.936   3.234   3.023 -0.8967 -0.3749  0.3102
  868MOL0     H14527   8.700   3.267   3.010  2.3396 -1.5034  2.9805
  868MOL0     H14528   8.762   3.107   2.986 -0.0779  2.2511  4.1914
  868MOL0     H14529   8.705   3.012   2.718  5.0465  2.3426 -1.8964
  868MOL0     H14530   8.524   2.960   2.527 -0.4886 -0.0948 -3.6033
  868MOL0     H14531   8.545   3.093   2.425  0.9632 -1.2191  0.3392
  868MOL0     H14532   8.326   3.030   2.421 -0.4716  1.8715 -1.1576
  868MOL0     H14533   8.331   3.192   2.495 -0.9222  0.3050  1.4066
  868MOL0     H14534   8.291   2.917   2.641  1.7699  0.1490  1.7866
  868MOL0     H14535   8.319   3.062   2.717  1.1426  0.2435 -0.1886
  868MOL0     H14536   8.122   3.175   2.653 -0.7858 -0.9584 -0.5021
  868MOL0     H14537   8.092   3.022   2.722 -0.0462  1.6361  0.9772
  868MOL0     H14538   7.894   2.990   2.301 -0.5371  1.1380 -1.1670
  868MOL0     H14539   7.656   3.013   2.306 -0.5095 -1.3583  0.3405
  868MOL0     H14540   7.270   3.102   2.194 -2.2251 -1.0051 -0.9568
  868MOL0     H14541   7.009   3.075   2.180 -1.6913  1.0806 -0.4214
  868MOL0     H14542   6.864   2.860   2.301 -0.4290 -1.0418 -1.6907
  868MOL0     H14543   6.739   2.972   2.263  0.2841 -0.0523  0.2430
  868MOL0     H14544   6.774   2.861   2.535 -0.6464  1.6792  0.0092
  868MOL0     H14545   6.671   2.773   2.410 -0.1073  0.4935 -2.9671
  868MOL0     H14546   6.552   3.003   2.401 -0.2674 -1.2297 -1.1451
  868MOL0     H14547   6.611   3.022   2.571 -4.1417  3.4198 -1.7133
  868MOL0     H14548   6.445   2.790   2.460  0.9222  1.5868 -1.3317
  868MOL0     H14549   6.476   2.826   2.630  0.5232 -0.1587  0.2363
  868MOL0     H14550   6.338   3.008   2.420  0.2993 -0.4838  0.2340
  868MOL0     H14551   6.364   3.055   2.592 -0.9188  2.0059 -1.9451
  868MOL0     H14552   6.220   2.836   2.643  0.2061 -1.8068 -0.7786
  868MOL0     H14553   6.208   2.826   2.468  3.7209 -2.8046  0.9872
  868MOL0     H14554   6.127   3.093   2.574  3.7012 -0.6357 -3.1694
  868MOL0     H14555   6.028   2.997   2.468  2.6345 -0.3589 -0.6168
  868MOL0     H14556   5.945   3.059   2.727  2.9048 -0.0313  2.9813
  868MOL0     H14557   6.044   2.917   2.767 -4.4798 -2.5270  0.9563
  868MOL0     H14558   7.027   3.022   2.609  3.3255 -1.7140  1.7763
  868MOL0     H14559   7.253   3.040   2.622  1.3667  0.4077 -0.1930
  868MOL0     H14560   7.677   3.163   2.703  0.6523  1.5237 -0.5625
  868MOL0     H14561   7.900   3.128   2.711 -2.0916 -1.1317  0.8889
  868MOL0     H14562   9.424   3.902   3.252 -0.0899 -0.8290  0.0248
  868MOL0     H14563   9.626   3.986   3.336 -1.9407 -2.8210 -0.2791
  868MOL0     H14564   9.861   4.330   3.400  0.0369  1.0614 -3.2578
  868MOL0     H14565  10.033   4.432   3.529  2.1291  0.5130 -0.0713
  868MOL0     H14566  10.183   4.428   3.708  1.3702 -0.6201  1.6222
  868MOL0     H14567  10.237   4.545   3.581  0.1144  3.1392  3.4426
  868MOL0     H14568  10.402   4.444   3.812 -1.8584 -0.3795  0.4863
  868MOL0     H14569  10.476   4.497   3.657  0.0111  1.9016 -0.3570
  868MOL0     H14570  10.286   4.706   3.769 -1.0782  1.2321 -2.8129
  868MOL0     H14571  10.436   4.699   3.663  3.1801 -3.3636  0.4539
  868MOL0     H14572  10.578   4.698   3.827 -1.8086 -6.4476 -0.1770
  868MOL0     H14573  10.472   4.818   3.904  0.8792 -0.7661  4.8190
  868MOL0     H14574  10.385   4.525   4.173  2.8969  1.3218  0.5146
  868MOL0     H14575  10.334   4.147   3.405  0.2731 -1.7606 -2.7234
  868MOL0     H14576  10.151   4.044   3.268  2.9263 -0.3653  2.2299
  869MOL0     O14577   8.410  11.151   6.256 -0.2086  0.0707 -0.5118
  869MOL0     C14578   8.448  11.119   6.142  0.2270 -0.2346  0.1324
  869MOL0     O14579   8.394  11.014   6.061 -0.4750  0.0631 -0.0422
  869MOL0     C14580   8.279  10.963   6.091  1.0632  0.2605  0.5570
  869MOL0     C14581   8.260  10.828   6.079 -0.0890 -0.1496  0.1060
  869MOL0     C14582   8.131  10.766   6.080 -0.7606  0.1225 -0.1852
  869MOL0     C14583   8.017  10.837   6.098  1.0533  0.1083 -1.1017
  869MOL0     O14584   7.892  10.782   6.092 -0.1010  0.3074  0.1566
  869MOL0     C14585   7.885  10.650   6.132  0.1146 -0.7131 -0.3597
  869MOL0     C14586   7.746  10.597   6.160  0.2788 -0.5446 -0.2047
  869MOL0     C14587   7.667  10.660   6.273 -0.2561 -0.3648  0.8148
  869MOL0     C14588   7.739  10.648   6.404 -0.0899  0.0259 -0.0315
  869MOL0     C14589   7.642  10.671   6.520  0.0082 -0.6893  0.0796
  869MOL0     C14590   7.708  10.731   6.639  0.3488  0.4269 -0.0080
  869MOL0     C14591   7.617  10.733   6.763 -0.6660 -0.5376 -0.7261
  869MOL0     C14592   7.684  10.804   6.888 -0.4678 -0.4926 -0.3444
  869MOL0     N14593   7.603  10.826   7.012  0.0796  0.4072  0.6163
  869MOL0     C14594   7.519  10.728   7.054 -0.4838 -0.2368 -0.2751
  869MOL0     C14595   7.445  10.786   7.151  0.0302  0.5189  0.5835
  869MOL0     C14596   7.335  10.720   7.233 -1.5443 -0.3215  0.0168
  869MOL0     C14597   7.357  10.741   7.386  0.1402 -0.8739  0.4974
  869MOL0     C14598   7.264  10.673   7.482  1.0907  0.1291 -0.0038
  869MOL0     C14599   7.288  10.713   7.628 -0.0577  0.7013 -0.6762
  869MOL0     O14600   7.243  10.603   7.718 -0.1353  0.1545  0.5904
  869MOL0     C14601   7.102  10.606   7.758  0.1281 -0.5287  0.0482
  869MOL0     C14602   7.007  10.696   7.701 -1.0083 -0.3345 -0.2793
  869MOL0     C14603   6.876  10.692   7.743  0.5402 -0.5150 -0.0335
  869MOL0     C14604   6.815  10.594   7.819 -0.4298 -0.7320 -0.6669
  869MOL0     C14605   6.671  10.591   7.861 -0.9575 -0.1758  0.0961
  869MOL0     O14606   6.629  10.495   7.952 -0.4390 -0.0507  0.4062
  869MOL0     C14607   6.498  10.497   7.956 -0.0976  0.2723 -0.9332
  869MOL0     C14608   6.425  10.408   7.870 -0.2396 -0.3418 -0.4944
  869MOL0     C14609   6.293  10.430   7.843 -0.4701 -0.3868 -0.5938
  869MOL0     C14610   6.224  10.522   7.915  0.1080  0.2542  0.5133
  869MOL0     O14611   6.091  10.541   7.899 -0.7800 -0.9604 -0.1949
  869MOL0     C14612   6.015  10.431   7.846  0.5314 -0.4505  0.1983
  869MOL0     C14613   5.864  10.446   7.887  0.0057  0.4839 -0.9086
  869MOL0     C14614   5.854  10.443   8.042 -0.3412  0.3675  0.3833
  869MOL0     C14615   5.711  10.438   8.090 -0.4057  0.0601  0.3595
  869MOL0     C14616   5.711  10.402   8.235  0.1354  0.3725 -0.0797
  869MOL0     C14617   5.569  10.423   8.291  0.0479 -0.0745  1.1471
  869MOL0     C14618   5.544  10.570   8.323  0.3854  0.2468 -0.4513
  869MOL0     C14619   5.406  10.617   8.362 -0.1840  1.2991  0.4554
  869MOL0    Cl14620   5.385  10.778   8.426  0.4738  1.0117 -0.3841
  869MOL0     C14621   6.287  10.597   8.013 -0.6110  0.2002 -0.2547
  869MOL0     C14622   6.428  10.584   8.027 -0.3570  0.8987 -0.0591
  869MOL0     O14623   6.603  10.679   7.809  0.1634 -0.0810  0.6467
  869MOL0     C14624   6.915  10.505   7.871  0.4435 -0.0445  0.0057
  869MOL0     C14625   7.049  10.504   7.838  0.5120 -1.2437 -0.1671
  869MOL0     N14626   7.482  10.918   7.167 -0.2198  0.0882 -0.2402
  869MOL0     N14627   7.585  10.939   7.090 -0.1488 -0.4185  0.3029
  869MOL0     C14628   8.032  10.978   6.118 -0.0320 -0.2337 -0.8418
  869MOL0     C14629   8.165  11.042   6.118  0.3268  0.1079 -0.1867
  869MOL0     C14630   8.564  11.201   6.084  0.0478 -0.3437  0.1983
  869MOL0     C14631   8.629  11.170   5.965 -0.0531 -0.2602  0.9092
  869MOL0     C14632   8.721  11.256   5.901 -0.0101  0.4019 -0.3988
  869MOL0     C14633   8.759  11.378   5.961  0.4836 -0.0152 -0.0965
  869MOL0     O14634   8.834  11.465   5.884  0.3748  0.7240  0.1121
  869MOL0     C14635   8.946  11.520   5.957  0.1678  0.3906  0.3244
  869MOL0     C14636   9.044  11.582   5.869 -0.0997  0.4079  0.1105
  869MOL0     C14637   9.119  11.476   5.778  0.1885 -1.2319 -0.0225
  869MOL0     C14638   9.197  11.541   5.654 -0.6906  1.4754  0.0288
  869MOL0     C14639   9.306  11.631   5.707 -0.5151  1.2246  0.5348
  869MOL0     C14640   9.391  11.707   5.749  0.7597 -0.2927  0.1053
  869MOL0     C14641   8.690  11.414   6.078  1.0922 -0.6913  0.1762
  869MOL0     C14642   8.604  11.327   6.140 -0.5183 -0.7971 -0.5193
  869MOL0     H14643   8.344  10.765   6.051 -0.8917 -0.5910 -1.4294
  869MOL0     H14644   8.135  10.659   6.060 -0.0912  0.0368  0.3631
  869MOL0     H14645   7.942  10.620   6.221  1.1622  1.2442 -0.2885
  869MOL0     H14646   7.932  10.587   6.056 -1.8400 -0.4198 -1.9024
  869MOL0     H14647   7.749  10.491   6.190 -0.5895 -0.0508  1.7926
  869MOL0     H14648   7.680  10.597   6.072 -1.5453  1.2068  1.0833
  869MOL0     H14649   7.568  10.614   6.277  0.1941 -1.3713  0.5848
  869MOL0     H14650   7.651  10.765   6.246 -1.4275 -1.0760 -1.4958
  869MOL0     H14651   7.778  10.546   6.410 -0.5377 -0.3121 -2.1352
  869MOL0     H14652   7.815  10.726   6.415  0.7342 -0.4393 -1.9825
  869MOL0     H14653   7.589  10.576   6.533 -2.2488  0.2594 -1.5086
  869MOL0     H14654   7.562  10.745   6.505  0.4724 -0.6120 -2.6152
  869MOL0     H14655   7.744  10.834   6.632 -1.4726  1.3930  2.8997
  869MOL0     H14656   7.799  10.670   6.647  0.4032  0.2347 -1.7960
  869MOL0     H14657   7.532  10.796   6.734 -0.4803 -0.3364 -0.8434
  869MOL0     H14658   7.588  10.633   6.794 -1.6593  0.3766  1.4588
  869MOL0     H14659   7.714  10.903   6.851 -1.8376  0.1189  0.0863
  869MOL0     H14660   7.769  10.740   6.911 -0.4732 -0.3078  0.2174
  869MOL0     H14661   7.525  10.624   7.023  3.6621 -0.0113 -0.7572
  869MOL0     H14662   7.331  10.613   7.215 -2.4767 -0.2740 -0.0717
  869MOL0     H14663   7.236  10.757   7.205 -0.5006  2.7080 -0.0264
  869MOL0     H14664   7.339  10.848   7.399 -4.2533 -1.5476  1.4655
  869MOL0     H14665   7.461  10.722   7.415  0.9525  2.4598  0.1818
  869MOL0     H14666   7.158  10.682   7.457  0.8466  0.5246  1.0842
  869MOL0     H14667   7.289  10.566   7.481 -3.9230 -1.2659 -0.8556
  869MOL0     H14668   7.249  10.811   7.655 -0.8601  0.3863 -0.6546
  869MOL0     H14669   7.397  10.719   7.632 -0.0519  0.2893  3.1626
  869MOL0     H14670   7.040  10.768   7.627 -1.2722 -2.4891 -2.6451
  869MOL0     H14671   6.810  10.761   7.692  1.8536 -0.8070 -2.2692
  869MOL0     H14672   6.483  10.326   7.829  2.8524  0.6417  1.5868
  869MOL0     H14673   6.255  10.386   7.751 -2.1313  0.1889 -0.2020
  869MOL0     H14674   6.043  10.339   7.897 -0.6685  1.1112  3.9645
  869MOL0     H14675   6.024  10.416   7.738  0.8781 -0.3020  0.2040
  869MOL0     H14676   5.800  10.362   7.860  0.3749 -0.9461  2.1637
  869MOL0     H14677   5.820  10.539   7.851 -2.8054 -0.0987  0.6863
  869MOL0     H14678   5.904  10.531   8.085  1.4313 -0.8642  0.9495
  869MOL0     H14679   5.899  10.350   8.078 -3.1819 -1.8815 -1.4443
  869MOL0     H14680   5.666  10.536   8.072 -0.7092 -0.2922 -0.8735
  869MOL0     H14681   5.646  10.364   8.042  0.3025 -1.6393  1.9260
  869MOL0     H14682   5.782  10.472   8.279 -0.3900 -0.5010  2.3135
  869MOL0     H14683   5.744  10.299   8.252 -2.7177 -0.2078  3.0067
  869MOL0     H14684   5.556  10.348   8.370 -0.1123 -2.1712 -0.7573
  869MOL0     H14685   5.502  10.392   8.209  0.6596 -0.0444  0.6250
  869MOL0     H14686   5.603  10.584   8.414 -0.0926 -0.6512  0.0062
  869MOL0     H14687   5.587  10.640   8.250 -1.9454 -1.4229 -3.6342
  869MOL0     H14688   5.365  10.556   8.442 -0.1329  0.8710  0.1594
  869MOL0     H14689   5.339  10.591   8.280  0.1348 -0.3685  0.6910
  869MOL0     H14690   6.239  10.671   8.076 -0.6662 -0.3758  0.3791
  869MOL0     H14691   6.479  10.653   8.093 -0.3756  1.1624 -0.3162
  869MOL0     H14692   6.879  10.419   7.927  0.3402 -0.9061 -1.3386
  869MOL0     H14693   7.119  10.428   7.871  0.9530 -0.4896  0.7129
  869MOL0     H14694   7.942  11.032   6.145 -2.1985 -4.4504  1.4856
  869MOL0     H14695   8.173  11.145   6.151 -2.4749 -0.8074  4.1788
  869MOL0     H14696   8.595  11.078   5.918 -2.6361  0.4114  1.2982
  869MOL0     H14697   8.766  11.224   5.808  1.0588  0.0551  0.2230
  869MOL0     H14698   9.007  11.449   6.014  1.6462  1.1831 -0.1960
  869MOL0     H14699   8.907  11.590   6.031 -2.1992 -1.2682  0.7669
  869MOL0     H14700   8.991  11.654   5.807  0.5274 -0.0417 -0.9691
  869MOL0     H14701   9.115  11.632   5.935  0.1350 -0.2374  0.3575
  869MOL0     H14702   9.043  11.417   5.725 -0.5293 -0.2001 -0.1589
  869MOL0     H14703   9.185  11.414   5.839  0.7735 -2.3860 -1.7288
  869MOL0     H14704   9.239  11.463   5.590 -2.5349  2.0470 -2.0017
  869MOL0     H14705   9.120  11.596   5.599 -2.0992  0.3013  0.7707
  869MOL0     H14706   9.472  11.771   5.778 -0.1401 -0.7011  3.9173
  869MOL0     H14707   8.719  11.513   6.112 -0.4769 -0.6854  1.6399
  869MOL0     H14708   8.547  11.361   6.227 -1.9124 -1.7471 -1.0211
  870MOL0     O14709   0.884   3.598   8.474  0.3746  0.7375 -0.0563
  870MOL0     C14710   0.905   3.553   8.364 -0.1973  1.4185  0.0639
  870MOL0     O14711   0.810   3.531   8.267 -0.0036 -0.3815 -0.4762
  870MOL0     C14712   0.670   3.537   8.283  0.2117  0.2728 -0.0054
  870MOL0     C14713   0.590   3.564   8.167 -0.0286 -1.0029  0.1247
  870MOL0     C14714   0.457   3.565   8.172 -0.5866 -0.7531  0.8097
  870MOL0     C14715   0.385   3.530   8.289 -0.1425  0.8677  0.7220
  870MOL0     O14716   0.247   3.543   8.293 -1.1621 -0.6020  0.5232
  870MOL0     C14717   0.183   3.589   8.410 -0.3215  0.5561  0.3631
  870MOL0     C14718   0.039   3.621   8.367 -0.7982 -0.8679  0.0743
  870MOL0     C14719  -0.037   3.507   8.309 -0.4176 -0.4942 -0.7716
  870MOL0     C14720  -0.165   3.565   8.250  0.5233 -0.8057 -0.6427
  870MOL0     C14721  -0.260   3.610   8.364  0.5545 -0.1556  0.7419
  870MOL0     C14722  -0.407   3.611   8.323  0.6088  0.5913  0.4112
  870MOL0     C14723  -0.494   3.659   8.438  0.6069  0.5045  0.4102
  870MOL0     C14724  -0.509   3.562   8.560 -0.1667 -0.6056  0.1669
  870MOL0     N14725  -0.634   3.478   8.555 -0.3149 -0.4143 -0.4341
  870MOL0     C14726  -0.682   3.414   8.447  0.5872  0.3388  1.1447
  870MOL0     C14727  -0.792   3.338   8.485 -0.9060 -0.0851 -0.3040
  870MOL0     C14728  -0.873   3.245   8.398  0.3147  1.0235  0.2006
  870MOL0     C14729  -1.004   3.307   8.344 -0.5437 -0.7921  0.2027
  870MOL0     C14730  -1.098   3.357   8.452 -1.0600 -0.8238  0.0136
  870MOL0     C14731  -1.184   3.239   8.484  0.1534  0.5623 -0.6062
  870MOL0     O14732  -1.265   3.290   8.594  0.8286 -0.3628 -0.6435
  870MOL0     C14733  -1.399   3.256   8.600  0.2914  0.1453 -0.4108
  870MOL0     C14734  -1.471   3.304   8.706  0.2169 -0.0379 -0.3048
  870MOL0     C14735  -1.610   3.280   8.727  0.1809  0.3447 -0.3585
  870MOL0     C14736  -1.670   3.201   8.633 -0.5029  0.1786  0.3540
  870MOL0     C14737  -1.816   3.168   8.659  0.2652 -0.0792  0.7090
  870MOL0     O14738  -1.885   3.120   8.548  0.9090 -1.2148  0.5298
  870MOL0     C14739  -2.023   3.138   8.546 -0.6462  0.0923 -0.5136
  870MOL0     C14740  -2.067   3.079   8.434 -0.6482  0.1648  0.0502
  870MOL0     C14741  -2.201   3.078   8.410  0.0177 -0.6087  0.5721
  870MOL0     C14742  -2.297   3.158   8.481 -0.0141 -0.2027  0.3820
  870MOL0     O14743  -2.429   3.174   8.452 -0.4484  0.3953  0.6148
  870MOL0     C14744  -2.475   3.131   8.324 -0.1362  0.4748  0.5807
  870MOL0     C14745  -2.621   3.156   8.300 -0.4509  0.2760  0.4805
  870MOL0     C14746  -2.663   3.092   8.166 -0.1159  0.0677 -0.0527
  870MOL0     C14747  -2.819   3.107   8.165 -0.3655  0.0570 -0.0342
  870MOL0     C14748  -2.877   3.119   8.022  0.7176 -0.0050  0.0337
  870MOL0     C14749  -3.027   3.135   8.051  0.5034  0.3514  1.6822
  870MOL0     C14750  -3.094   3.198   7.923 -0.5911 -0.0497 -0.1415
  870MOL0     C14751  -3.242   3.229   7.947  1.3870 -0.6682 -0.4088
  870MOL0    Cl14752  -3.299   3.327   7.818 -0.2227 -0.0145 -0.0726
  870MOL0     C14753  -2.244   3.227   8.588 -0.5430 -0.6947 -0.4469
  870MOL0     C14754  -2.111   3.211   8.631  0.0760 -1.1217 -0.3072
  870MOL0     O14755  -1.858   3.171   8.771 -0.3143  0.0719  0.5604
  870MOL0     C14756  -1.596   3.147   8.525 -0.5119  0.7596 -0.0435
  870MOL0     C14757  -1.467   3.170   8.510 -0.0299 -0.4220 -0.4114
  870MOL0     N14758  -0.796   3.359   8.621  0.5620  0.9855 -0.4585
  870MOL0     N14759  -0.712   3.443   8.664  0.6154 -0.1639 -0.5041
  870MOL0     C14760   0.462   3.496   8.400  0.1199  0.0031 -0.2466
  870MOL0     C14761   0.603   3.495   8.397  0.4099  0.4816  0.4988
  870MOL0     C14762   1.046   3.503   8.333 -0.0043  0.1485 -0.9459
  870MOL0     C14763   1.073   3.437   8.215 -0.5197  0.4314  0.0175
  870MOL0     C14764   1.206   3.402   8.190 -0.2892  0.1151 -0.4716
  870MOL0     C14765   1.312   3.431   8.275  0.1871  0.1306 -0.6131
  870MOL0     O14766   1.439   3.397   8.233  0.0578  0.0613  0.2136
  870MOL0     C14767   1.540   3.430   8.325  0.4287 -0.4223 -0.3089
  870MOL0     C14768   1.647   3.345   8.266 -0.4262  0.3914 -0.3448
  870MOL0     C14769   1.761   3.341   8.374  0.1715  0.0113 -0.7370
  870MOL0     C14770   1.888   3.275   8.322  0.1763  0.1035  0.2918
  870MOL0     C14771   1.858   3.127   8.317 -0.3877 -0.7143 -0.1655
  870MOL0     C14772   1.849   3.003   8.316 -0.1692  0.0878 -0.4732
  870MOL0     C14773   1.279   3.498   8.392  0.9139 -0.5537 -0.9107
  870MOL0     C14774   1.148   3.527   8.422  0.5554 -0.4147  0.7095
  870MOL0     H14775   0.637   3.614   8.083 -2.7110  4.1307  1.2393
  870MOL0     H14776   0.397   3.593   8.086  0.9681  0.3181  0.0149
  870MOL0     H14777   0.237   3.676   8.449 -1.6934  1.2161  0.8425
  870MOL0     H14778   0.177   3.519   8.495  0.6369  0.7070  0.5632
  870MOL0     H14779   0.041   3.710   8.303 -2.3452  0.1688  1.3808
  870MOL0     H14780  -0.013   3.669   8.450  1.0707  0.6540  0.4479
  870MOL0     H14781  -0.054   3.430   8.384 -2.9251 -0.3138 -1.0445
  870MOL0     H14782   0.037   3.476   8.234 -0.3710  0.2593 -1.0497
  870MOL0     H14783  -0.146   3.645   8.178 -0.1095 -1.9329 -2.1235
  870MOL0     H14784  -0.223   3.491   8.194 -1.3299 -0.9318  1.3365
  870MOL0     H14785  -0.221   3.706   8.399  0.8042 -0.8711  2.5011
  870MOL0     H14786  -0.241   3.545   8.449  3.6139 -0.7613 -0.2680
  870MOL0     H14787  -0.434   3.512   8.285  0.5583  0.4791  0.7429
  870MOL0     H14788  -0.419   3.684   8.242  1.4000  1.4193  1.0308
  870MOL0     H14789  -0.446   3.753   8.467 -1.1622  1.3024  0.9120
  870MOL0     H14790  -0.594   3.679   8.400  0.7419  4.8388  1.7982
  870MOL0     H14791  -0.505   3.627   8.648  0.6257  0.9922 -1.0022
  870MOL0     H14792  -0.425   3.493   8.563  0.7285  0.4209 -0.6291
  870MOL0     H14793  -0.638   3.418   8.348 -2.2863 -1.2780 -0.3224
  870MOL0     H14794  -0.901   3.156   8.455  0.4380 -0.6471 -2.1763
  870MOL0     H14795  -0.814   3.192   8.322 -1.1225  0.5219 -0.6075
  870MOL0     H14796  -1.060   3.246   8.273 -1.4288  1.1527 -0.8480
  870MOL0     H14797  -0.975   3.386   8.274 -3.5035 -2.2626 -3.0179
  870MOL0     H14798  -1.046   3.397   8.539 -1.3133  0.2587 -0.3135
  870MOL0     H14799  -1.160   3.434   8.405 -1.3584  0.4032  2.2871
  870MOL0     H14800  -1.124   3.157   8.525  2.1698  2.4830  0.5273
  870MOL0     H14801  -1.243   3.221   8.393 -0.9853 -2.2412  0.5735
  870MOL0     H14802  -1.425   3.366   8.782 -1.2939  1.4558 -0.5380
  870MOL0     H14803  -1.658   3.332   8.808 -0.4944  2.9679 -2.3178
  870MOL0     H14804  -1.994   3.025   8.376  0.7250  0.5897  1.3247
  870MOL0     H14805  -2.233   3.020   8.324  1.7892  0.2677 -0.7550
  870MOL0     H14806  -2.449   3.025   8.314  1.0596  0.8006  0.0364
  870MOL0     H14807  -2.419   3.182   8.244 -3.3172  3.7609  0.1860
  870MOL0     H14808  -2.645   3.263   8.298 -0.3970  0.2795 -0.4182
  870MOL0     H14809  -2.688   3.114   8.375  0.2615 -2.1332 -0.1570
  870MOL0     H14810  -2.646   2.985   8.156 -1.4407 -0.1024 -0.6324
  870MOL0     H14811  -2.622   3.145   8.079 -0.3556  0.1385 -0.1233
  870MOL0     H14812  -2.863   3.022   8.219 -1.4035  0.2117 -0.6177
  870MOL0     H14813  -2.851   3.195   8.221 -3.2933 -0.4634 -0.7645
  870MOL0     H14814  -2.864   3.031   7.958 -0.4687 -2.1457  2.5274
  870MOL0     H14815  -2.827   3.207   7.983  4.3660 -2.4017 -1.2165
  870MOL0     H14816  -3.041   3.187   8.146 -2.5365 -1.6822  2.5055
  870MOL0     H14817  -3.070   3.034   8.057  1.5116 -0.3194 -0.8998
  870MOL0     H14818  -3.043   3.292   7.898 -2.2674  0.4244 -2.0572
  870MOL0     H14819  -3.083   3.123   7.845  0.8319 -1.3286  1.2128
  870MOL0     H14820  -3.255   3.292   8.035 -5.2440 -3.2261  1.0063
  870MOL0     H14821  -3.299   3.136   7.952  1.7940 -0.9271 -0.4791
  870MOL0     H14822  -2.311   3.297   8.639  1.2128  1.9609 -1.5389
  870MOL0     H14823  -2.070   3.254   8.722 -1.6858 -2.2950  1.1213
  870MOL0     H14824  -1.628   3.060   8.468 -0.3521  0.1028  0.8529
  870MOL0     H14825  -1.412   3.123   8.429  2.2599 -0.6483  1.1715
  870MOL0     H14826   0.411   3.466   8.491 -2.1248  1.0703 -1.0761
  870MOL0     H14827   0.662   3.468   8.483 -2.5588 -0.2490  2.4653
  870MOL0     H14828   0.991   3.425   8.145 -0.0475 -0.5858 -0.3826
  870MOL0     H14829   1.233   3.346   8.101  2.8657  2.9293 -1.5252
  870MOL0     H14830   1.516   3.403   8.429 -1.4684  2.0699 -0.0071
  870MOL0     H14831   1.560   3.537   8.329  1.0267 -0.5066 -0.8387
  870MOL0     H14832   1.624   3.239   8.253  0.4350  0.3294 -1.5671
  870MOL0     H14833   1.675   3.392   8.172 -0.1935 -0.3261 -0.6392
  870MOL0     H14834   1.729   3.285   8.462  0.2728  0.6718 -0.2697
  870MOL0     H14835   1.784   3.445   8.400 -0.3342 -0.0205 -0.1498
  870MOL0     H14836   1.927   3.313   8.227  1.1602  0.5358  0.8472
  870MOL0     H14837   1.976   3.281   8.388  0.3692 -0.6387  0.1130
  870MOL0     H14838   1.825   2.899   8.306 -1.8138  0.6213 -2.5341
  870MOL0     H14839   1.356   3.519   8.465 -0.1705 -2.1519  0.7857
  870MOL0     H14840   1.112   3.566   8.517 -1.4163  1.0531 -0.5701
  871MOL0     O14841   6.734   3.293   4.383 -0.6094  0.8103  0.0547
  871MOL0     C14842   6.759   3.349   4.487 -0.0580  0.0601 -0.7320
  871MOL0     O14843   6.717   3.306   4.609  0.7298  0.2728  0.8503
  871MOL0     C14844   6.635   3.198   4.629 -0.2945  0.5167 -0.1805
  871MOL0     C14845   6.668   3.104   4.727  0.6757 -0.2554  0.1480
  871MOL0     C14846   6.585   2.992   4.746  0.0900 -0.6153  0.2298
  871MOL0     C14847   6.480   2.968   4.659 -0.1473  0.3230 -0.5005
  871MOL0     O14848   6.392   2.875   4.698  0.0757 -0.1216 -0.1332
  871MOL0     C14849   6.250   2.929   4.719  0.4731 -0.5409 -0.0951
  871MOL0     C14850   6.170   2.813   4.770 -0.4638  0.0894  0.7260
  871MOL0     C14851   6.187   2.794   4.914  1.0005  0.1394  0.1518
  871MOL0     C14852   6.125   2.670   4.961 -0.0753 -0.5645  0.1679
  871MOL0     C14853   5.982   2.645   4.917  0.7577 -0.6632  0.5018
  871MOL0     C14854   5.894   2.555   5.003 -0.5767  0.0248  0.7365
  871MOL0     C14855   5.761   2.508   4.929  0.3780 -0.1966 -0.3530
  871MOL0     C14856   5.669   2.419   5.017 -0.4452 -0.0706 -0.2498
  871MOL0     N14857   5.542   2.383   4.964  0.3917  0.4436  0.3325
  871MOL0     C14858   5.529   2.359   4.834 -0.2628  0.0903 -0.0289
  871MOL0     C14859   5.401   2.339   4.810 -0.4869 -0.2006 -1.1902
  871MOL0     C14860   5.323   2.308   4.673  0.0773  0.1650 -0.0548
  871MOL0     C14861   5.394   2.227   4.568  0.2211 -0.4218  0.6645
  871MOL0     C14862   5.340   2.234   4.421  0.3219 -0.1448 -0.0134
  871MOL0     C14863   5.204   2.165   4.404  0.0292  0.1927 -0.0379
  871MOL0     O14864   5.165   2.181   4.263  0.0036 -0.5986 -0.1165
  871MOL0     C14865   5.033   2.146   4.245 -0.2897  0.2458 -0.6582
  871MOL0     C14866   4.925   2.218   4.199 -0.9637  0.3883 -0.3098
  871MOL0     C14867   4.793   2.178   4.201  0.8717  0.1242 -0.6403
  871MOL0     C14868   4.767   2.046   4.237 -0.1699 -0.0952  0.1063
  871MOL0     C14869   4.626   1.993   4.222  0.1435  0.2695 -0.0151
  871MOL0     O14870   4.523   2.090   4.198 -0.0710  0.0302  0.5271
  871MOL0     C14871   4.398   2.045   4.187 -0.3408  0.3888 -0.7747
  871MOL0     C14872   4.338   2.039   4.058 -0.2891 -0.7973 -0.6603
  871MOL0     C14873   4.208   1.984   4.040  0.3869 -0.0890 -0.0226
  871MOL0     C14874   4.146   1.932   4.150 -1.0258  0.4194  0.0616
  871MOL0     O14875   4.025   1.869   4.134 -0.1996  0.2370  0.3530
  871MOL0     C14876   3.914   1.893   4.227 -0.5507 -0.7236 -0.3118
  871MOL0     C14877   3.775   1.909   4.152 -0.2497 -1.1627  0.6820
  871MOL0     C14878   3.724   1.769   4.131 -0.8239  0.1870  0.0043
  871MOL0     C14879   3.591   1.765   4.055  0.0328  0.0177 -0.3345
  871MOL0     C14880   3.596   1.807   3.912 -0.0415  0.0599 -0.3739
  871MOL0     C14881   3.646   1.707   3.809 -0.1373 -0.3659  0.5552
  871MOL0     C14882   3.623   1.754   3.665 -0.7807 -0.4205  0.5044
  871MOL0     C14883   3.478   1.744   3.604 -0.8537 -0.1241  0.4125
  871MOL0    Cl14884   3.409   1.576   3.623 -0.0066 -0.2469  0.2248
  871MOL0     C14885   4.201   1.943   4.276  0.4661 -0.6985  0.1675
  871MOL0     C14886   4.325   2.005   4.303  0.5324  1.3771  0.3394
  871MOL0     O14887   4.604   1.871   4.256 -0.1347 -0.5145  0.1107
  871MOL0     C14888   4.875   1.964   4.276 -1.0016 -0.9478  0.1941
  871MOL0     C14889   5.005   2.013   4.286  1.2233  0.0376 -1.1067
  871MOL0     N14890   5.336   2.363   4.928 -0.3107  1.0688  1.4131
  871MOL0     N14891   5.423   2.382   5.021 -0.7378  0.3622 -0.3752
  871MOL0     C14892   6.448   3.056   4.564 -0.3828 -0.8229 -0.8475
  871MOL0     C14893   6.525   3.167   4.542 -0.4543  0.5178 -0.3272
  871MOL0     C14894   6.851   3.454   4.489 -0.6830 -0.0153  0.4739
  871MOL0     C14895   6.830   3.562   4.589  0.0842 -0.6343 -0.0615
  871MOL0     C14896   6.921   3.670   4.588 -0.5321 -0.1492  0.1089
  871MOL0     C14897   7.024   3.673   4.490  0.5275 -0.1804  0.7135
  871MOL0     O14898   7.112   3.770   4.494 -0.0955 -0.4547  0.2815
  871MOL0     C14899   7.209   3.735   4.596  0.8494 -0.0696 -0.5512
  871MOL0     C14900   7.307   3.844   4.641 -0.5844  0.0451 -0.0487
  871MOL0     C14901   7.265   3.985   4.654  0.1003 -1.1703  0.0442
  871MOL0     C14902   7.294   4.061   4.530 -0.3040 -0.0256  0.5825
  871MOL0     C14903   7.432   4.119   4.534  0.3130 -0.9205  0.3926
  871MOL0     C14904   7.542   4.169   4.525  0.0182 -0.7122  0.4839
  871MOL0     C14905   7.036   3.569   4.398 -0.0508 -0.3523  0.3463
  871MOL0     C14906   6.958   3.455   4.402 -0.3134  0.2282 -0.3451
  871MOL0     H14907   6.749   3.123   4.797 -1.3477  0.0195  2.5720
  871MOL0     H14908   6.606   2.926   4.830 -0.1887 -1.3784 -0.2914
  871MOL0     H14909   6.206   2.965   4.625 -2.7070 -1.6351  0.8543
  871MOL0     H14910   6.238   3.004   4.798  0.5114  0.4342 -0.9927
  871MOL0     H14911   6.220   2.726   4.727  1.0803  1.6236 -0.7602
  871MOL0     H14912   6.066   2.820   4.739  0.1051 -1.3966 -1.8272
  871MOL0     H14913   6.130   2.878   4.953  1.6906 -0.8107  3.5091
  871MOL0     H14914   6.295   2.801   4.932  1.8185 -3.0108 -2.4226
  871MOL0     H14915   6.191   2.589   4.928  1.8514  0.5457  1.1777
  871MOL0     H14916   6.122   2.672   5.070  0.4607 -0.0594  0.1735
  871MOL0     H14917   5.984   2.604   4.815  1.4660 -0.2379  0.3376
  871MOL0     H14918   5.930   2.741   4.921 -0.8799 -1.5306  1.4139
  871MOL0     H14919   5.873   2.616   5.092  0.5792  1.6470 -0.0429
  871MOL0     H14920   5.948   2.464   5.032  0.5472  0.3377 -0.3130
  871MOL0     H14921   5.718   2.603   4.895  1.7950  0.0915 -1.4386
  871MOL0     H14922   5.791   2.448   4.843 -1.5380 -3.1629  0.8765
  871MOL0     H14923   5.653   2.477   5.109 -0.7779  1.4330 -1.2082
  871MOL0     H14924   5.726   2.330   5.044 -0.1589  0.5694  1.4223
  871MOL0     H14925   5.613   2.361   4.764 -0.8331 -2.3325 -0.8945
  871MOL0     H14926   5.294   2.403   4.627  0.0834  0.1941  0.0019
  871MOL0     H14927   5.234   2.256   4.709  1.5547 -2.5040  0.0132
  871MOL0     H14928   5.391   2.122   4.598  1.4682 -1.4515 -2.3696
  871MOL0     H14929   5.496   2.263   4.554 -0.1637  1.1892  1.7577
  871MOL0     H14930   5.334   2.336   4.382 -3.2333 -0.7553 -1.4233
  871MOL0     H14931   5.409   2.177   4.358  0.1122  2.6005 -2.9752
  871MOL0     H14932   5.127   2.203   4.471  1.6523  1.2605  1.2736
  871MOL0     H14933   5.207   2.061   4.436 -2.1740  0.3514  0.8485
  871MOL0     H14934   4.954   2.321   4.181 -0.4905  0.1781 -0.7624
  871MOL0     H14935   4.719   2.255   4.182 -0.8453 -0.2464  3.4589
  871MOL0     H14936   4.387   2.073   3.967 -1.7907 -2.9280 -2.3873
  871MOL0     H14937   4.167   1.985   3.940 -2.6856 -1.1548  1.0980
  871MOL0     H14938   3.939   1.984   4.283 -0.7384  1.7918 -4.0099
  871MOL0     H14939   3.914   1.814   4.303 -0.8196  0.3791  0.8680
  871MOL0     H14940   3.783   1.971   4.062  0.1677 -0.5206  1.1473
  871MOL0     H14941   3.712   1.968   4.220 -0.8577  2.6879 -2.8196
  871MOL0     H14942   3.704   1.726   4.230 -0.0922 -2.1585 -0.8117
  871MOL0     H14943   3.803   1.710   4.086 -1.6520 -0.3470 -0.7824
  871MOL0     H14944   3.551   1.664   4.062 -6.6888  1.9642 -2.6238
  871MOL0     H14945   3.514   1.828   4.101  1.0017  3.1248 -2.5876
  871MOL0     H14946   3.658   1.897   3.899 -1.1013  0.7667 -0.6530
  871MOL0     H14947   3.493   1.838   3.893 -0.3934  0.2160  1.6101
  871MOL0     H14948   3.587   1.618   3.832 -0.5460  0.0286  1.0375
  871MOL0     H14949   3.752   1.695   3.833 -0.2867 -0.5422  1.1287
  871MOL0     H14950   3.654   1.858   3.655 -0.6583 -0.3584  1.4916
  871MOL0     H14951   3.695   1.706   3.597 -2.1593 -1.7502 -0.0791
  871MOL0     H14952   3.498   1.769   3.499  1.2859 -0.3086  0.7290
  871MOL0     H14953   3.407   1.819   3.638  0.6261  2.1533 -1.2343
  871MOL0     H14954   4.142   1.902   4.358 -0.6143 -1.5030 -0.9691
  871MOL0     H14955   4.370   2.013   4.401 -0.3461 -2.4503  1.2048
  871MOL0     H14956   4.859   1.860   4.302  0.4393 -0.9971  0.9398
  871MOL0     H14957   5.078   1.938   4.318  0.4214 -0.7056 -0.9818
  871MOL0     H14958   6.366   3.047   4.493 -0.9072  2.9294 -0.9519
  871MOL0     H14959   6.508   3.232   4.456  0.7460  1.2763 -0.0203
  871MOL0     H14960   6.749   3.568   4.660 -1.0536  0.6151 -1.3951
  871MOL0     H14961   6.916   3.753   4.658  2.1115  1.0428 -0.9715
  871MOL0     H14962   7.273   3.650   4.568  1.3438 -0.4958  1.6643
  871MOL0     H14963   7.168   3.685   4.685  3.6111 -2.1655 -0.3067
  871MOL0     H14964   7.343   3.820   4.742 -0.4329  1.9718  0.3990
  871MOL0     H14965   7.399   3.837   4.582  0.6340 -2.8064  1.9837
  871MOL0     H14966   7.309   4.043   4.735 -0.6388  0.5262 -0.7029
  871MOL0     H14967   7.157   3.989   4.673 -0.0248 -3.0650 -0.0672
  871MOL0     H14968   7.276   3.996   4.444  0.2347  1.6190 -0.8273
  871MOL0     H14969   7.214   4.135   4.515  0.5285  0.2583 -4.0815
  871MOL0     H14970   7.630   4.219   4.490  2.3948 -3.7081  1.7293
  871MOL0     H14971   7.102   3.587   4.313 -0.6624  3.1886  0.4859
  871MOL0     H14972   6.959   3.369   4.337 -0.0977 -0.0278 -0.0088
  872MOL0     O14973   2.524   2.750   4.735 -0.9614 -0.8427  1.1018
  872MOL0     C14974   2.560   2.640   4.777 -0.5656 -0.3278 -0.2706
  872MOL0     O14975   2.490   2.526   4.772 -0.4742  0.2388 -0.1332
  872MOL0     C14976   2.364   2.516   4.711  0.0114 -0.0398 -0.5108
  872MOL0     C14977   2.318   2.595   4.598 -0.4519  0.1434 -0.1305
  872MOL0     C14978   2.189   2.578   4.534 -0.8646  0.2641  0.5981
  872MOL0     C14979   2.107   2.472   4.574 -0.0768 -0.4332 -0.0830
  872MOL0     O14980   1.999   2.440   4.483 -0.1044 -0.2365  0.0481
  872MOL0     C14981   1.922   2.328   4.514  0.3574  0.0956  0.3903
  872MOL0     C14982   1.850   2.279   4.395  0.9413 -0.3132  0.5024
  872MOL0     C14983   1.748   2.387   4.342 -0.5104 -0.6320  0.3578
  872MOL0     C14984   1.665   2.325   4.221  0.6418  0.1721  0.8694
  872MOL0     C14985   1.587   2.441   4.146  0.3178  0.0571 -0.3957
  872MOL0     C14986   1.658   2.480   4.016  0.7800  0.0851 -0.2081
  872MOL0     C14987   1.567   2.589   3.941  0.7303 -0.4643 -0.0742
  872MOL0     C14988   1.639   2.628   3.813  0.7432  0.5903 -0.5024
  872MOL0     N14989   1.540   2.693   3.723 -1.0049  0.2230  0.7414
  872MOL0     C14990   1.439   2.637   3.653  0.3845  0.0368  0.0686
  872MOL0     C14991   1.382   2.737   3.589  0.3970  0.1335  0.8895
  872MOL0     C14992   1.271   2.738   3.492  0.3837  0.0248  0.4626
  872MOL0     C14993   1.163   2.841   3.515 -0.3070 -0.1385 -0.7016
  872MOL0     C14994   1.060   2.837   3.397 -0.5919 -0.4982 -0.2653
  872MOL0     C14995   0.932   2.906   3.429 -0.0154 -0.3032 -0.2231
  872MOL0     O14996   0.851   2.901   3.311 -0.7594  0.2897  0.2206
  872MOL0     C14997   0.715   2.894   3.316 -0.6858 -0.3556 -0.4663
  872MOL0     C14998   0.644   2.828   3.214 -0.0682 -0.4368 -0.1999
  872MOL0     C14999   0.500   2.823   3.218  1.0219  0.7750 -0.2818
  872MOL0     C15000   0.431   2.884   3.320 -0.6992 -0.7711 -0.1324
  872MOL0     C15001   0.277   2.875   3.325 -0.8706  0.6223 -0.1799
  872MOL0     O15002   0.216   2.946   3.432  0.3429 -0.6688  0.5504
  872MOL0     C15003   0.080   2.957   3.463  1.0225  0.5919  1.0017
  872MOL0     C15004   0.038   2.933   3.590  0.7232  0.4873 -0.6135
  872MOL0     C15005  -0.100   2.951   3.620  0.2482 -0.1208 -0.0964
  872MOL0     C15006  -0.203   2.970   3.521  0.0590  0.9257  0.2709
  872MOL0     O15007  -0.339   2.994   3.551  0.1581 -0.4393  0.7690
  872MOL0     C15008  -0.395   2.947   3.677 -0.1641 -0.0601 -0.6986
  872MOL0     C15009  -0.551   2.965   3.668  0.3911 -0.3104  0.3495
  872MOL0     C15010  -0.581   3.115   3.683 -0.5640 -0.3425  0.8682
  872MOL0     C15011  -0.735   3.137   3.703  0.4209  0.3982 -0.4637
  872MOL0     C15012  -0.786   3.252   3.619 -0.5345 -0.6071 -0.1720
  872MOL0     C15013  -0.933   3.245   3.586  0.0638 -0.2040 -0.1712
  872MOL0     C15014  -0.980   3.390   3.563 -0.6895 -0.3043  0.2734
  872MOL0     C15015  -1.125   3.410   3.513  0.5909 -0.7437 -0.2666
  872MOL0    Cl15016  -1.229   3.316   3.616 -0.1014  0.0765 -0.1663
  872MOL0     C15017  -0.157   2.993   3.389  0.6206  0.6965  0.8726
  872MOL0     C15018  -0.017   2.977   3.358  0.0537  0.6347 -0.6365
  872MOL0     O15019   0.225   2.796   3.249  0.5584  0.0785 -0.5039
  872MOL0     C15020   0.500   2.973   3.410  0.0103  0.7096  0.2635
  872MOL0     C15021   0.642   2.977   3.412 -0.1745  0.7400  0.0563
  872MOL0     N15022   1.458   2.849   3.605 -0.6761  1.4092  0.3434
  872MOL0     N15023   1.539   2.826   3.705  0.2863  0.0173  0.4516
  872MOL0     C15024   2.142   2.401   4.688 -0.3777  0.9167  0.1852
  872MOL0     C15025   2.265   2.416   4.756 -0.6160  0.2743  0.7853
  872MOL0     C15026   2.702   2.626   4.820 -0.0846 -0.4934  0.8552
  872MOL0     C15027   2.773   2.737   4.856  0.2050 -0.3380 -0.8016
  872MOL0     C15028   2.906   2.734   4.884 -1.0990 -0.3166 -0.6297
  872MOL0     C15029   2.977   2.615   4.891  0.5405  0.4878 -0.0746
  872MOL0     O15030   3.107   2.626   4.926 -0.2839 -0.2000 -0.6287
  872MOL0     C15031   3.183   2.508   4.941  0.0417 -0.4234 -0.4203
  872MOL0     C15032   3.287   2.524   5.052 -0.4278 -0.6177 -0.1736
  872MOL0     C15033   3.392   2.619   5.006 -0.5010 -0.6058  0.8398
  872MOL0     C15034   3.462   2.675   5.127  0.0437 -0.0949 -0.1714
  872MOL0     C15035   3.604   2.721   5.090  0.3739 -0.0060  0.3578
  872MOL0     C15036   3.709   2.733   5.037 -0.1812 -0.2404  0.6338
  872MOL0     C15037   2.902   2.493   4.866 -0.6997  0.2005  0.3218
  872MOL0     C15038   2.769   2.506   4.829 -1.2615  0.5655  0.2621
  872MOL0     H15039   2.380   2.669   4.548  0.4883  1.8571  3.2676
  872MOL0     H15040   2.174   2.645   4.450 -1.3002 -0.5495  0.0111
  872MOL0     H15041   1.847   2.355   4.588  0.9743  0.4138  0.9101
  872MOL0     H15042   1.992   2.250   4.547 -0.7985 -0.0085  2.8105
  872MOL0     H15043   1.809   2.179   4.413  1.3269 -1.1805 -2.7994
  872MOL0     H15044   1.920   2.250   4.316  0.5221  1.0280 -0.4021
  872MOL0     H15045   1.801   2.476   4.306  0.8179 -1.1095  1.0673
  872MOL0     H15046   1.677   2.423   4.418 -1.1645 -0.2563 -0.4155
  872MOL0     H15047   1.734   2.287   4.145  0.2960 -0.1728  0.7209
  872MOL0     H15048   1.605   2.243   4.261  0.4368  0.7502  1.7823
  872MOL0     H15049   1.586   2.530   4.209  1.0085  1.6828 -2.5785
  872MOL0     H15050   1.485   2.405   4.128 -0.9803  2.6307  1.1772
  872MOL0     H15051   1.692   2.395   3.957 -2.3323 -1.3250 -0.1220
  872MOL0     H15052   1.754   2.524   4.047  0.9201 -0.7917  0.6841
  872MOL0     H15053   1.472   2.536   3.926  0.2039 -1.2101  4.3839
  872MOL0     H15054   1.541   2.677   4.001 -1.5711 -0.1157 -1.4364
  872MOL0     H15055   1.682   2.538   3.770 -1.7838 -1.5360  1.0937
  872MOL0     H15056   1.723   2.694   3.834  0.6774 -0.4583  3.8673
  872MOL0     H15057   1.418   2.532   3.638  1.8412 -0.5111  1.4834
  872MOL0     H15058   1.229   2.637   3.497  0.3465 -0.1537 -2.0913
  872MOL0     H15059   1.305   2.757   3.390  0.2207  3.8992  0.9870
  872MOL0     H15060   1.218   2.935   3.528  2.3863 -1.7240  0.1627
  872MOL0     H15061   1.124   2.826   3.616 -0.2087 -4.0176 -1.0841
  872MOL0     H15062   1.106   2.872   3.304  0.4460 -1.4365 -0.1245
  872MOL0     H15063   1.037   2.730   3.387  0.8159 -0.7663 -0.8073
  872MOL0     H15064   0.945   3.011   3.458  0.4036 -0.4332  0.0614
  872MOL0     H15065   0.890   2.850   3.513  3.4037 -2.5859  0.1444
  872MOL0     H15066   0.696   2.791   3.126 -0.5736 -1.1998 -0.1838
  872MOL0     H15067   0.450   2.755   3.150 -0.3654  1.3999  0.0754
  872MOL0     H15068   0.111   2.894   3.660  0.3221  0.3883 -0.2420
  872MOL0     H15069  -0.126   2.928   3.722 -0.4898 -0.4171 -0.3506
  872MOL0     H15070  -0.368   3.016   3.758 -3.2692  1.4086 -0.7729
  872MOL0     H15071  -0.373   2.845   3.708 -4.2793 -1.0957 -0.5739
  872MOL0     H15072  -0.606   2.910   3.745  0.3816  1.6169  1.8115
  872MOL0     H15073  -0.596   2.928   3.576  1.2583 -0.4057 -0.0414
  872MOL0     H15074  -0.545   3.163   3.592 -0.0377 -1.8658  0.2413
  872MOL0     H15075  -0.532   3.152   3.774 -1.3752  0.8450  0.8415
  872MOL0     H15076  -0.797   3.049   3.684 -1.6340  1.6422  0.1916
  872MOL0     H15077  -0.754   3.147   3.810 -2.4012  0.1634 -0.8623
  872MOL0     H15078  -0.727   3.253   3.528 -0.0754  1.6094  0.0933
  872MOL0     H15079  -0.779   3.349   3.668 -0.5639 -0.6174 -0.1473
  872MOL0     H15080  -0.986   3.207   3.674 -0.2936  0.9196  0.1221
  872MOL0     H15081  -0.951   3.184   3.497  0.3029  0.8833 -0.9961
  872MOL0     H15082  -0.964   3.448   3.654  0.2316  0.1659 -0.1823
  872MOL0     H15083  -0.914   3.440   3.492  0.0393  0.0200  1.1768
  872MOL0     H15084  -1.142   3.381   3.409 -1.2638 -1.0617  0.0861
  872MOL0     H15085  -1.156   3.515   3.521  1.3092 -0.6588  1.8857
  872MOL0     H15086  -0.226   3.008   3.307 -0.5135 -4.3434  0.6165
  872MOL0     H15087   0.019   2.986   3.256  2.4571 -0.4465  0.0356
  872MOL0     H15088   0.441   3.032   3.479 -0.0643 -0.1314  0.9322
  872MOL0     H15089   0.684   3.046   3.485  0.4739 -0.2638  0.6545
  872MOL0     H15090   2.072   2.327   4.726  2.4873 -2.8168 -1.1869
  872MOL0     H15091   2.284   2.359   4.846  1.4330  1.8444  1.4305
  872MOL0     H15092   2.736   2.839   4.855  2.1474  0.4808  1.6486
  872MOL0     H15093   2.949   2.829   4.913  0.0135 -1.2121  0.8429
  872MOL0     H15094   3.236   2.487   4.848  2.5412  1.4977  0.4495
  872MOL0     H15095   3.123   2.422   4.971  1.4043 -1.3642 -0.2835
  872MOL0     H15096   3.241   2.560   5.145 -1.0837  1.3889 -1.2104
  872MOL0     H15097   3.324   2.423   5.074 -1.8659 -0.6576  2.4271
  872MOL0     H15098   3.344   2.702   4.952 -0.1206 -1.1664 -0.3860
  872MOL0     H15099   3.460   2.580   4.930  0.0063 -1.8253  1.8887
  872MOL0     H15100   3.401   2.756   5.168  0.6254  0.1509  0.2234
  872MOL0     H15101   3.483   2.591   5.194  0.0754  0.5470  0.6310
  872MOL0     H15102   3.810   2.741   4.999 -0.8591 -2.8405 -2.1427
  872MOL0     H15103   2.941   2.392   4.862  1.0438  0.8121  0.8380
  872MOL0     H15104   2.705   2.421   4.810 -4.0046  2.6369 -0.4417
  873MOL0     O15105   9.866   0.511   7.011  0.1767 -0.2405  0.1821
  873MOL0     C15106   9.958   0.589   6.973  0.3283  0.7955 -0.4431
  873MOL0     O15107   9.940   0.713   6.919  0.3592  0.1457 -0.6555
  873MOL0     C15108   9.815   0.743   6.882 -0.0677 -0.9370  0.4705
  873MOL0     C15109   9.788   0.731   6.753 -0.2598 -0.0271  1.5891
  873MOL0     C15110   9.662   0.749   6.698  0.1739  0.7760  0.4101
  873MOL0     C15111   9.560   0.784   6.791  0.4859  0.2185  0.5283
  873MOL0     O15112   9.426   0.789   6.753 -0.1899  0.1095  0.0621
  873MOL0     C15113   9.373   0.675   6.686 -0.2652 -0.3127 -0.0474
  873MOL0     C15114   9.229   0.661   6.722  0.0559 -0.3344 -0.1384
  873MOL0     C15115   9.150   0.790   6.745  1.0621 -0.6169 -0.1520
  873MOL0     C15116   9.012   0.769   6.792  0.7594  0.2966 -0.0806
  873MOL0     C15117   8.918   0.890   6.812  0.2334  0.2656  0.6061
  873MOL0     C15118   8.983   1.002   6.908  0.8380 -0.3311 -0.9004
  873MOL0     C15119   8.988   0.948   7.053 -0.2732  0.6350  0.7548
  873MOL0     C15120   9.038   1.052   7.150 -0.2181 -0.8559 -0.3378
  873MOL0     N15121   9.182   1.052   7.153 -0.2087  0.1061 -0.1706
  873MOL0     C15122   9.270   1.117   7.071  0.5296  0.2343  0.1241
  873MOL0     C15123   9.396   1.077   7.099  0.3906  0.6182  0.1296
  873MOL0     C15124   9.517   1.141   7.034 -0.0858  0.1671 -0.4883
  873MOL0     C15125   9.543   1.286   7.086  0.1523 -0.6066  0.3993
  873MOL0     C15126   9.562   1.286   7.226 -0.0626 -0.0338 -0.2658
  873MOL0     C15127   9.593   1.423   7.289  1.4012 -0.2178  0.2780
  873MOL0     O15128   9.706   1.492   7.229  0.5827  0.5540 -0.6845
  873MOL0     C15129   9.830   1.452   7.256 -0.2398  0.6210  0.5666
  873MOL0     C15130   9.928   1.515   7.174 -0.0581  0.9362 -0.2001
  873MOL0     C15131  10.063   1.463   7.189  0.3821  0.9079 -0.5019
  873MOL0     C15132  10.099   1.364   7.284 -0.2829  0.3315  0.9059
  873MOL0     C15133  10.244   1.314   7.281 -0.2884  0.0692 -0.3407
  873MOL0     O15134  10.311   1.335   7.168 -0.0992  0.4134  0.4083
  873MOL0     C15135  10.431   1.266   7.139  0.6417  0.9430 -0.7234
  873MOL0     C15136  10.453   1.134   7.180 -0.1366 -0.4283  0.0317
  873MOL0     C15137  10.574   1.077   7.155 -0.2477  0.2889  0.4082
  873MOL0     C15138  10.670   1.130   7.066 -0.1210 -0.7836  0.1794
  873MOL0     O15139  10.781   1.068   7.027 -0.4260  0.0733  0.0509
  873MOL0     C15140  10.816   0.940   7.086 -0.8054  0.8557  0.7352
  873MOL0     C15141  10.919   0.880   6.990 -0.6391  0.1813  0.7503
  873MOL0     C15142  11.041   0.980   6.984 -0.1364  0.5443  1.5109
  873MOL0     C15143  11.170   0.910   6.930  0.6097 -0.6895 -0.5846
  873MOL0     C15144  11.287   1.015   6.911 -0.1479 -0.7605 -0.1851
  873MOL0     C15145  11.384   0.975   6.787  0.3629 -0.0010 -0.3512
  873MOL0     C15146  11.497   1.077   6.776 -0.0041 -1.4113  0.6824
  873MOL0     C15147  11.604   1.030   6.691 -0.2966 -0.3663  0.8787
  873MOL0    Cl15148  11.552   1.012   6.515  0.0250  0.2637  0.2256
  873MOL0     C15149  10.639   1.261   7.017  0.6758  0.1160 -0.3102
  873MOL0     C15150  10.520   1.327   7.053 -0.5820 -0.7728  0.2052
  873MOL0     O15151  10.286   1.253   7.375 -0.7385 -0.8255 -0.9610
  873MOL0     C15152  10.000   1.314   7.361 -0.4138 -0.1777 -0.1970
  873MOL0     C15153   9.865   1.341   7.346 -0.5090 -0.1424 -0.2948
  873MOL0     N15154   9.386   0.983   7.196 -0.0254 -0.3721  0.4096
  873MOL0     N15155   9.264   0.967   7.227  0.7498 -0.1756 -0.1388
  873MOL0     C15156   9.589   0.814   6.922  0.2455  0.0059 -0.3435
  873MOL0     C15157   9.720   0.799   6.967 -0.2277  0.7124  0.2484
  873MOL0     C15158  10.103   0.547   6.967  0.2497  0.8858  0.1572
  873MOL0     C15159  10.151   0.416   6.996  0.0232  0.3922 -0.2848
  873MOL0     C15160  10.291   0.393   7.008  0.0295  0.5323  0.4888
  873MOL0     C15161  10.383   0.493   6.980  0.6788  0.5813 -0.0698
  873MOL0     O15162  10.521   0.485   6.984 -0.2488  1.0648  0.2835
  873MOL0     C15163  10.570   0.355   6.943 -0.1220 -0.0034 -0.1066
  873MOL0     C15164  10.717   0.359   6.887  0.6200 -0.2718 -1.0337
  873MOL0     C15165  10.750   0.493   6.818  0.8870 -0.7476 -0.4833
  873MOL0     C15166  10.891   0.497   6.756  0.0350 -0.5907 -0.8634
  873MOL0     C15167  10.900   0.555   6.622 -0.0062  0.2891  0.2415
  873MOL0     C15168  10.902   0.579   6.506  0.6180  0.3972  0.2984
  873MOL0     C15169  10.334   0.615   6.946  0.3759 -0.2544  0.5031
  873MOL0     C15170  10.198   0.649   6.937  0.1571  0.9271 -0.1735
  873MOL0     H15171   9.865   0.685   6.693 -1.8712 -1.1167  0.2618
  873MOL0     H15172   9.651   0.727   6.592  1.0464 -0.6094  0.5749
  873MOL0     H15173   9.430   0.585   6.712  0.6182  1.0709  3.3229
  873MOL0     H15174   9.366   0.684   6.577 -1.7790  1.1078  0.1283
  873MOL0     H15175   9.222   0.603   6.815 -3.3019  1.3699  0.8390
  873MOL0     H15176   9.180   0.612   6.638 -0.0879 -0.4679  0.0212
  873MOL0     H15177   9.140   0.856   6.659 -0.0441 -0.2003  0.2796
  873MOL0     H15178   9.203   0.853   6.817 -2.7300  1.3187  1.2176
  873MOL0     H15179   8.957   0.702   6.725 -0.6044  0.8112  0.4769
  873MOL0     H15180   9.022   0.724   6.891  1.0269  2.6971  1.0480
  873MOL0     H15181   8.820   0.859   6.850 -0.0991 -0.6128 -0.8808
  873MOL0     H15182   8.884   0.926   6.715 -0.8996 -3.0596 -0.3608
  873MOL0     H15183   8.920   1.091   6.914 -1.3630 -1.7671 -1.4912
  873MOL0     H15184   9.080   1.032   6.866  0.5790 -0.7993 -1.8710
  873MOL0     H15185   8.886   0.922   7.084 -0.2164 -2.5178 -1.3420
  873MOL0     H15186   9.037   0.851   7.056 -0.4926  0.5065  0.1778
  873MOL0     H15187   8.999   1.032   7.251  1.4702 -1.3687  0.2451
  873MOL0     H15188   9.008   1.151   7.117  0.4538 -0.1605  1.0359
  873MOL0     H15189   9.241   1.199   7.007  0.0063  0.1913  0.3008
  873MOL0     H15190   9.507   1.150   6.926  0.2543  0.0829 -0.5252
  873MOL0     H15191   9.606   1.078   7.045  0.2304  0.5684 -0.7512
  873MOL0     H15192   9.459   1.352   7.063  0.8264  0.2219  0.2562
  873MOL0     H15193   9.627   1.328   7.029  0.5145  1.4077  2.2862
  873MOL0     H15194   9.470   1.253   7.275 -0.4617  0.1282 -0.8971
  873MOL0     H15195   9.654   1.230   7.244  1.4815  2.9602  2.1638
  873MOL0     H15196   9.603   1.422   7.398 -0.1443 -0.0717  0.4419
  873MOL0     H15197   9.507   1.489   7.275  1.9610  1.9288  4.9912
  873MOL0     H15198   9.892   1.594   7.109 -0.9738  1.0456  0.4183
  873MOL0     H15199  10.144   1.518   7.141 -0.4732  2.1964 -0.5238
  873MOL0     H15200  10.384   1.076   7.240 -0.7293 -0.1801 -0.3984
  873MOL0     H15201  10.582   0.978   7.199 -0.9063  0.2337  0.4135
  873MOL0     H15202  10.725   0.879   7.081 -0.6645  0.6008  1.2002
  873MOL0     H15203  10.862   0.940   7.185 -4.7032  2.5555  2.7515
  873MOL0     H15204  10.882   0.866   6.888  1.5590 -0.7244  0.0139
  873MOL0     H15205  10.953   0.784   7.032  1.9784  0.8531  0.3679
  873MOL0     H15206  11.060   1.029   7.080 -0.1387 -0.3817  2.0017
  873MOL0     H15207  11.014   1.049   6.904 -2.4116 -2.1723 -0.2614
  873MOL0     H15208  11.203   0.835   7.003 -1.8184 -0.6205  0.6925
  873MOL0     H15209  11.156   0.866   6.831  3.4108 -2.1851 -0.4321
  873MOL0     H15210  11.339   1.021   7.007 -0.5185 -0.0381 -0.0250
  873MOL0     H15211  11.253   1.117   6.889  0.3595 -0.7008 -0.7241
  873MOL0     H15212  11.326   0.994   6.696 -1.3470 -0.6379  0.5601
  873MOL0     H15213  11.415   0.871   6.801 -2.7661 -0.7147  2.6396
  873MOL0     H15214  11.452   1.169   6.737 -0.8286 -1.4879  1.4172
  873MOL0     H15215  11.534   1.093   6.878  1.2994 -1.1885  0.1947
  873MOL0     H15216  11.637   0.931   6.725  0.3658 -0.3790  0.2407
  873MOL0     H15217  11.692   1.095   6.697 -0.4287 -0.2547  1.6880
  873MOL0     H15218  10.705   1.314   6.949  0.8963 -1.4469 -1.3738
  873MOL0     H15219  10.493   1.424   7.013  0.9825 -1.1320 -1.9018
  873MOL0     H15220  10.027   1.241   7.436  0.0772  0.3274  0.1258
  873MOL0     H15221   9.797   1.293   7.415  2.8441 -3.9902  0.7610
  873MOL0     H15222   9.518   0.852   6.995 -0.6766 -0.1335 -1.1419
  873MOL0     H15223   9.764   0.820   7.064  1.1586  3.4662 -0.8495
  873MOL0     H15224  10.088   0.330   7.017  2.2718 -1.3570 -0.2315
  873MOL0     H15225  10.303   0.296   7.055 -1.7326  0.6627  1.2631
  873MOL0     H15226  10.508   0.314   6.863  0.4630 -1.3971  0.1241
  873MOL0     H15227  10.575   0.288   7.030  0.8378  2.5397  1.9551
  873MOL0     H15228  10.796   0.325   6.955  3.0753  0.8206 -3.1671
  873MOL0     H15229  10.724   0.281   6.810  1.8216 -1.8714  0.5969
  873MOL0     H15230  10.740   0.576   6.889  0.0398 -0.7421 -0.5925
  873MOL0     H15231  10.679   0.501   6.735  3.0325  1.0738 -2.2431
  873MOL0     H15232  10.939   0.567   6.825 -3.2858  2.1923 -1.1386
  873MOL0     H15233  10.939   0.399   6.757  3.3249  0.8074  2.9750
  873MOL0     H15234  10.876   0.572   6.402 -2.4454 -2.4067  1.1072
  873MOL0     H15235  10.417   0.682   6.930  0.0476 -0.3475 -1.9396
  873MOL0     H15236  10.178   0.752   6.909  2.3079  1.2215 -0.8099
  874MOL0     O15237   9.626   1.217   2.372  0.0480 -0.0550 -0.6869
  874MOL0     C15238   9.644   1.299   2.463 -0.2137  0.0263  0.3468
  874MOL0     O15239   9.745   1.385   2.468 -0.0908  0.4922  0.2731
  874MOL0     C15240   9.830   1.385   2.363  0.2964 -0.2630  0.2644
  874MOL0     C15241   9.947   1.304   2.369  1.3982 -0.7646 -0.3076
  874MOL0     C15242  10.031   1.305   2.256  0.1117  0.4691  0.3052
  874MOL0     C15243  10.002   1.384   2.139 -0.5414  0.1044 -0.2523
  874MOL0     O15244  10.094   1.375   2.038  0.8342  0.4484  0.3824
  874MOL0     C15245  10.055   1.451   1.915  1.4133  0.2419 -0.1384
  874MOL0     C15246  10.159   1.431   1.813 -0.2204 -0.0419  0.6783
  874MOL0     C15247  10.151   1.521   1.692  0.4462 -0.3779 -0.1275
  874MOL0     C15248  10.170   1.677   1.721  0.4307  0.6537  0.1795
  874MOL0     C15249  10.323   1.711   1.741 -0.4994 -0.7037 -0.2285
  874MOL0     C15250  10.339   1.866   1.761  0.3240  0.5835  0.1023
  874MOL0     C15251  10.478   1.910   1.807  0.0845 -0.2510  0.5866
  874MOL0     C15252  10.515   1.846   1.940  0.0629  0.5767 -0.1081
  874MOL0     N15253  10.413   1.846   2.048 -0.8223  0.4380  0.0523
  874MOL0     C15254  10.321   1.746   2.067 -1.1283  0.4375 -0.4430
  874MOL0     C15255  10.267   1.779   2.185  0.3080 -0.5098 -1.4352
  874MOL0     C15256  10.143   1.724   2.258  0.4452 -0.8744  0.1148
  874MOL0     C15257  10.165   1.633   2.378  0.2352  0.1600 -0.7420
  874MOL0     C15258  10.142   1.712   2.508 -0.3239 -0.2078  0.3058
  874MOL0     C15259  10.136   1.611   2.634 -0.0892 -0.0071  0.2385
  874MOL0     O15260  10.140   1.682   2.759 -0.0179 -0.5310  0.3317
  874MOL0     C15261  10.026   1.696   2.824  0.5125  0.6097 -0.7757
  874MOL0     C15262  10.030   1.698   2.964  0.0788 -0.3574  0.6775
  874MOL0     C15263   9.919   1.744   3.043 -0.3985 -0.2844  0.1322
  874MOL0     C15264   9.804   1.773   2.980  0.0754  0.0894 -0.1164
  874MOL0     C15265   9.681   1.814   3.055 -0.9489 -0.2609 -0.0791
  874MOL0     O15266   9.570   1.813   2.987 -0.2241  1.4584  0.3037
  874MOL0     C15267   9.443   1.828   3.041  0.2942 -0.6886  0.1001
  874MOL0     C15268   9.384   1.801   3.169 -0.2945  0.4365  0.6541
  874MOL0     C15269   9.250   1.831   3.197  0.1943 -0.6830 -0.1838
  874MOL0     C15270   9.172   1.901   3.104 -0.3893 -0.1462  0.5327
  874MOL0     O15271   9.050   1.941   3.146 -0.5216 -0.0117 -0.1294
  874MOL0     C15272   8.992   2.065   3.090 -0.7445  0.1303 -0.4726
  874MOL0     C15273   8.890   2.020   2.992  0.0630 -0.0053  0.7773
  874MOL0     C15274   8.873   2.103   2.861  0.1903  0.3346 -0.2793
  874MOL0     C15275   8.847   2.251   2.881 -0.5016  0.5852 -0.2050
  874MOL0     C15276   8.889   2.324   2.757  0.1989 -0.3191 -0.0626
  874MOL0     C15277   9.038   2.369   2.740 -0.4564  0.1336 -0.0384
  874MOL0     C15278   9.148   2.263   2.734  0.9721  0.8445  0.1472
  874MOL0     C15279   9.279   2.327   2.692  0.1840 -0.1293  0.1780
  874MOL0    Cl15280   9.421   2.218   2.710  0.0940 -0.0074  0.1873
  874MOL0     C15281   9.231   1.924   2.978  0.0335  1.0331 -0.5958
  874MOL0     C15282   9.368   1.899   2.953  0.8195  0.1027  0.0567
  874MOL0     O15283   9.692   1.838   3.175  0.1181  0.1911  0.4349
  874MOL0     C15284   9.794   1.756   2.850 -0.9924  0.4630  0.0967
  874MOL0     C15285   9.900   1.725   2.767 -0.1359 -0.8244 -0.3679
  874MOL0     N15286  10.338   1.882   2.239 -0.2278 -0.3380  0.8948
  874MOL0     N15287  10.423   1.921   2.155 -0.9579 -0.5755 -0.4786
  874MOL0     C15288   9.881   1.457   2.138 -0.4699  0.6315 -0.0138
  874MOL0     C15289   9.800   1.451   2.250 -0.6154 -1.0572  0.2727
  874MOL0     C15290   9.533   1.344   2.559 -0.0649 -0.0961  0.0718
  874MOL0     C15291   9.554   1.453   2.649  0.2323  0.3240  0.3363
  874MOL0     C15292   9.463   1.485   2.748  0.6982  0.3933 -0.5875
  874MOL0     C15293   9.341   1.413   2.765 -0.7405  0.2970  0.5696
  874MOL0     O15294   9.245   1.416   2.862 -0.7121  0.2629  1.1269
  874MOL0     C15295   9.255   1.521   2.962 -0.2320  0.9755 -0.2771
  874MOL0     C15296   9.129   1.525   3.042 -0.6005  0.0880 -0.5417
  874MOL0     C15297   9.002   1.550   2.974 -0.0208  0.1524 -0.7461
  874MOL0     C15298   8.880   1.515   3.071 -0.1550  0.0329  0.1924
  874MOL0     C15299   8.750   1.550   3.014 -0.2242 -0.6215  0.0725
  874MOL0     C15300   8.648   1.545   2.956  0.8424  0.3373  0.0782
  874MOL0     C15301   9.325   1.304   2.680 -0.5202  0.2695 -0.3088
  874MOL0     C15302   9.415   1.266   2.571  0.4601 -0.5959  1.2624
  874MOL0     H15303   9.972   1.250   2.461 -0.4053  2.4527  2.2926
  874MOL0     H15304  10.125   1.252   2.271 -2.2737 -3.8112  2.0244
  874MOL0     H15305  10.038   1.558   1.932  0.4875  0.4927 -2.3581
  874MOL0     H15306   9.961   1.412   1.875  2.1467  0.7653 -2.5600
  874MOL0     H15307  10.147   1.328   1.780  3.5919  0.0088 -1.3143
  874MOL0     H15308  10.252   1.454   1.866 -0.8468  2.9206  0.7036
  874MOL0     H15309  10.050   1.513   1.651 -0.1583  1.3403  0.8824
  874MOL0     H15310  10.218   1.478   1.618 -0.2867 -2.3932  0.3125
  874MOL0     H15311  10.135   1.726   1.629 -1.7597  0.6309  0.9510
  874MOL0     H15312  10.113   1.712   1.807 -2.0339 -1.8144 -0.3093
  874MOL0     H15313  10.369   1.681   1.646  0.0256 -0.0190 -0.1953
  874MOL0     H15314  10.379   1.653   1.815  4.7911  3.9691  0.0789
  874MOL0     H15315  10.260   1.907   1.825  0.0724  1.8016 -0.9646
  874MOL0     H15316  10.321   1.918   1.667 -1.7040 -0.9643 -0.4274
  874MOL0     H15317  10.546   1.882   1.726  0.0742  0.8716  0.1675
  874MOL0     H15318  10.482   2.018   1.822 -1.2563 -0.2115  0.7667
  874MOL0     H15319  10.608   1.895   1.971  0.7552  0.2237 -1.5639
  874MOL0     H15320  10.558   1.747   1.922  1.7720  1.0029  1.2962
  874MOL0     H15321  10.280   1.665   2.007  0.6271 -1.1744  0.4201
  874MOL0     H15322  10.074   1.682   2.184  1.3092  2.0502 -2.6195
  874MOL0     H15323  10.089   1.814   2.291  1.1181 -1.0059  1.6384
  874MOL0     H15324  10.263   1.585   2.384 -0.0332 -0.2935  0.2300
  874MOL0     H15325  10.096   1.548   2.378 -1.4386  1.4675 -0.3637
  874MOL0     H15326  10.223   1.786   2.508 -0.1059 -0.4294 -0.6222
  874MOL0     H15327  10.048   1.767   2.503  0.4872  1.2139  0.0379
  874MOL0     H15328  10.220   1.541   2.638 -1.9743 -2.4684 -0.4255
  874MOL0     H15329  10.041   1.558   2.626 -0.2905  0.0368  2.0413
  874MOL0     H15330  10.127   1.671   3.006  1.4016  0.2898 -1.8016
  874MOL0     H15331   9.934   1.755   3.149  1.9450 -0.5703 -0.1166
  874MOL0     H15332   9.434   1.749   3.250 -2.9690 -2.3067  0.7241
  874MOL0     H15333   9.200   1.784   3.281  0.6519 -1.5277 -0.3720
  874MOL0     H15334   9.057   2.134   3.036  0.1607 -1.1777 -1.1018
  874MOL0     H15335   8.944   2.122   3.170 -1.5712 -0.5356 -0.4707
  874MOL0     H15336   8.789   2.005   3.034 -0.8810 -0.5271 -1.5233
  874MOL0     H15337   8.914   1.917   2.964  0.0479 -0.4613  2.3553
  874MOL0     H15338   8.791   2.055   2.806  0.8874 -2.1092  0.6893
  874MOL0     H15339   8.956   2.087   2.791 -0.7963 -1.9642 -1.0329
  874MOL0     H15340   8.742   2.251   2.911 -0.6071 -4.2117  0.2305
  874MOL0     H15341   8.903   2.290   2.967  0.3630 -0.4777 -0.2596
  874MOL0     H15342   8.834   2.419   2.752 -0.8444 -0.5606  3.5504
  874MOL0     H15343   8.862   2.256   2.677 -1.0812  1.3446 -1.1112
  874MOL0     H15344   9.070   2.429   2.826 -0.9213 -3.3678  2.8257
  874MOL0     H15345   9.031   2.434   2.653 -1.4225  2.1969  1.4797
  874MOL0     H15346   9.165   2.199   2.820  3.1216 -1.0071 -1.5293
  874MOL0     H15347   9.112   2.202   2.650 -0.8523  2.4738 -0.3451
  874MOL0     H15348   9.309   2.410   2.757  0.9240 -1.3306  1.4222
  874MOL0     H15349   9.272   2.352   2.586  2.2818  1.9678  0.4503
  874MOL0     H15350   9.178   1.980   2.902 -0.7313  0.4111 -0.5374
  874MOL0     H15351   9.393   1.924   2.851 -3.2033 -2.4706 -1.7835
  874MOL0     H15352   9.702   1.767   2.794  0.9468  2.3855 -3.0234
  874MOL0     H15353   9.894   1.716   2.659 -2.4555 -2.4085 -0.1932
  874MOL0     H15354   9.847   1.512   2.051  1.9698  0.4481 -1.1678
  874MOL0     H15355   9.706   1.506   2.250 -0.9600 -1.6296  0.9591
  874MOL0     H15356   9.640   1.519   2.640 -0.0440  0.4049 -3.0830
  874MOL0     H15357   9.498   1.570   2.806 -1.3273  2.8798 -2.7502
  874MOL0     H15358   9.270   1.617   2.912 -2.0339  1.7363  0.5532
  874MOL0     H15359   9.339   1.491   3.025  0.6182 -1.0958 -2.2390
  874MOL0     H15360   9.114   1.425   3.083 -0.1195  1.1009  2.2976
  874MOL0     H15361   9.135   1.593   3.127 -0.9193 -0.9956  0.3820
  874MOL0     H15362   9.006   1.499   2.877 -1.8201  0.4064 -0.9846
  874MOL0     H15363   8.993   1.657   2.954 -0.4122  0.5638  1.3408
  874MOL0     H15364   8.871   1.413   3.109  3.1501 -0.1396  0.7805
  874MOL0     H15365   8.893   1.573   3.162 -2.7662 -1.5305  1.6863
  874MOL0     H15366   8.572   1.555   2.881 -0.0118  0.0090  0.8824
  874MOL0     H15367   9.227   1.258   2.688  0.6553 -2.3706 -0.0369
  874MOL0     H15368   9.392   1.182   2.505 -1.8556 -1.1350  2.6570
  875MOL0     O15369  10.508   3.387   2.674  0.0644 -0.6579  0.3390
  875MOL0     C15370  10.484   3.503   2.681  0.8115 -0.2176 -0.0913
  875MOL0     O15371  10.369   3.557   2.625  0.9366 -0.2528 -0.0416
  875MOL0     C15372  10.269   3.485   2.565 -0.8933  0.7589 -0.4463
  875MOL0     C15373  10.292   3.391   2.464 -0.3482  0.7281 -0.1656
  875MOL0     C15374  10.181   3.319   2.404 -0.3870  0.1656 -0.8965
  875MOL0     C15375  10.051   3.359   2.434 -0.0705  0.0805  0.0608
  875MOL0     O15376   9.941   3.306   2.376  0.2019 -0.0841  0.4511
  875MOL0     C15377   9.946   3.242   2.251  0.1628 -0.3665  0.0255
  875MOL0     C15378   9.806   3.179   2.216 -0.6567 -0.1782  0.0445
  875MOL0     C15379   9.802   3.119   2.075 -0.7845 -0.8167  0.1555
  875MOL0     C15380   9.680   3.028   2.050 -0.0366  0.0122 -0.0846
  875MOL0     C15381   9.545   3.080   2.093 -0.2359 -0.2573 -0.2078
  875MOL0     C15382   9.436   2.991   2.057 -0.8588  0.2345  0.2641
  875MOL0     C15383   9.431   2.865   2.152  0.5657 -0.2566  0.9607
  875MOL0     C15384   9.330   2.760   2.103  0.4767 -0.4045 -0.2509
  875MOL0     N15385   9.344   2.640   2.194 -0.3916 -0.0876  0.0082
  875MOL0     C15386   9.441   2.542   2.184  0.3345  0.1566  0.2869
  875MOL0     C15387   9.435   2.476   2.300 -0.2915 -0.2919  0.0935
  875MOL0     C15388   9.526   2.365   2.335  0.4656  0.5286  0.1761
  875MOL0     C15389   9.488   2.232   2.271 -0.6290 -0.1451  0.2741
  875MOL0     C15390   9.358   2.165   2.309  0.3751 -0.2973 -0.2432
  875MOL0     C15391   9.217   2.216   2.267 -0.4166  0.8643 -0.2950
  875MOL0     O15392   9.113   2.115   2.311 -0.5656 -0.8909  0.5466
  875MOL0     C15393   8.991   2.159   2.356  1.0704 -0.0168 -0.2578
  875MOL0     C15394   8.909   2.057   2.415 -0.0237  0.5112  0.4627
  875MOL0     C15395   8.776   2.086   2.456 -0.3935 -0.1703  0.4114
  875MOL0     C15396   8.725   2.219   2.447 -0.0235 -0.5545 -0.6923
  875MOL0     C15397   8.589   2.263   2.479 -0.4514 -0.2500  0.4626
  875MOL0     O15398   8.554   2.390   2.435 -0.6839  0.4516  0.2235
  875MOL0     C15399   8.424   2.444   2.448  1.1882 -0.3716 -1.3528
  875MOL0     C15400   8.307   2.362   2.479  0.1536 -0.0136  0.5557
  875MOL0     C15401   8.176   2.424   2.489 -0.5076  0.2614  0.3795
  875MOL0     C15402   8.174   2.565   2.483  0.6062 -0.8807 -0.2483
  875MOL0     O15403   8.054   2.627   2.514  0.2656  0.6235  0.5907
  875MOL0     C15404   7.956   2.612   2.411 -1.2636 -1.1037  0.1252
  875MOL0     C15405   7.827   2.679   2.460  0.0510  0.8086  0.0239
  875MOL0     C15406   7.744   2.595   2.553  0.8131  0.0289  0.0844
  875MOL0     C15407   7.613   2.670   2.588  0.7017  1.1382  0.0912
  875MOL0     C15408   7.488   2.630   2.500 -0.1300 -0.8868 -0.4894
  875MOL0     C15409   7.394   2.753   2.473  0.0614  0.3265 -0.1694
  875MOL0     C15410   7.271   2.701   2.406  0.0301 -0.0014  0.5396
  875MOL0     C15411   7.184   2.647   2.521 -0.4825 -0.3093 -0.2958
  875MOL0    Cl15412   7.024   2.626   2.464 -0.1810  0.0793 -0.2156
  875MOL0     C15413   8.279   2.643   2.446 -0.2296  0.4899 -0.5118
  875MOL0     C15414   8.407   2.582   2.430 -0.2322 -0.4954  0.2986
  875MOL0     O15415   8.525   2.182   2.548 -0.2597  0.1980  0.5776
  875MOL0     C15416   8.813   2.318   2.392 -0.1763 -0.2549  1.5448
  875MOL0     C15417   8.933   2.287   2.334 -0.0945 -0.3301  0.1727
  875MOL0     N15418   9.331   2.523   2.371  0.2416  1.2181 -0.0154
  875MOL0     N15419   9.277   2.624   2.307 -0.3561  0.6345  0.0838
  875MOL0     C15420  10.029   3.458   2.535 -0.2826 -0.5104 -0.5473
  875MOL0     C15421  10.141   3.509   2.600  0.7225  0.0785 -0.3152
  875MOL0     C15422  10.576   3.593   2.753 -0.0128  0.2357 -0.0964
  875MOL0     C15423  10.660   3.538   2.848  0.4043  0.5431  0.6058
  875MOL0     C15424  10.730   3.619   2.933 -0.6275 -1.0424 -0.4141
  875MOL0     C15425  10.727   3.760   2.929  0.1020  0.7978 -0.0458
  875MOL0     O15426  10.793   3.840   3.014 -0.3459 -0.0747 -0.6424
  875MOL0     C15427  10.780   3.802   3.155 -0.4460  1.0045  0.5049
  875MOL0     C15428  10.811   3.933   3.230 -0.3899  0.1908  0.5063
  875MOL0     C15429  10.959   3.959   3.212  0.4021 -0.0631 -0.2682
  875MOL0     C15430  11.047   3.871   3.299 -0.2760  0.0843 -0.0698
  875MOL0     C15431  11.188   3.885   3.265  0.3541  0.6605 -0.4476
  875MOL0     C15432  11.306   3.903   3.257  0.4877 -0.1507 -1.2868
  875MOL0     C15433  10.650   3.811   2.826 -0.5900  0.7444  0.0997
  875MOL0     C15434  10.571   3.733   2.745  0.1944  0.0327 -0.2092
  875MOL0     H15435  10.392   3.372   2.428  0.0012 -0.1655  1.1829
  875MOL0     H15436  10.197   3.255   2.318  1.5928 -2.2192  1.0809
  875MOL0     H15437  10.018   3.161   2.235 -0.5880 -0.5442 -3.0275
  875MOL0     H15438   9.965   3.322   2.180  0.3604  0.1899  0.6983
  875MOL0     H15439   9.725   3.251   2.231  0.8395  1.4661  0.4576
  875MOL0     H15440   9.791   3.099   2.290 -0.4104  2.3713  3.0807
  875MOL0     H15441   9.892   3.063   2.048 -2.0844 -2.4428 -0.9876
  875MOL0     H15442   9.790   3.204   2.008  2.3117  1.7320  2.5189
  875MOL0     H15443   9.674   2.996   1.946 -0.4961 -0.4324  0.0741
  875MOL0     H15444   9.703   2.932   2.098  0.0053 -1.3120 -2.6021
  875MOL0     H15445   9.531   3.171   2.034 -0.6822  0.7740  1.4151
  875MOL0     H15446   9.541   3.104   2.200 -2.3837 -0.3512 -0.2194
  875MOL0     H15447   9.441   2.942   1.959 -1.3514 -0.9192  0.7884
  875MOL0     H15448   9.340   3.040   2.073 -1.4226 -0.5122 -0.6676
  875MOL0     H15449   9.524   2.810   2.168 -0.0967 -2.1815 -1.1987
  875MOL0     H15450   9.391   2.905   2.245 -0.9728 -2.1935  1.2062
  875MOL0     H15451   9.348   2.723   2.002 -0.1585  0.7276 -0.7980
  875MOL0     H15452   9.230   2.803   2.117  0.4688 -0.1948 -0.9377
  875MOL0     H15453   9.516   2.522   2.108  0.8286 -0.0026  0.8135
  875MOL0     H15454   9.509   2.355   2.442  2.6879 -2.5168  0.3957
  875MOL0     H15455   9.630   2.394   2.316  0.8842 -0.5569  0.7373
  875MOL0     H15456   9.562   2.157   2.300 -2.0696 -3.3898 -3.5885
  875MOL0     H15457   9.496   2.247   2.163  1.8483  0.5771  0.4987
  875MOL0     H15458   9.360   2.065   2.263 -2.9161 -0.8636  0.5785
  875MOL0     H15459   9.353   2.166   2.418  0.6097 -0.9427 -0.2166
  875MOL0     H15460   9.214   2.245   2.161 -0.2835 -2.2358 -1.2326
  875MOL0     H15461   9.201   2.305   2.328 -1.3967 -0.1385  0.9629
  875MOL0     H15462   8.961   1.964   2.433 -0.6590  0.5837  2.9984
  875MOL0     H15463   8.704   2.011   2.487 -2.4125  0.7693 -1.7091
  875MOL0     H15464   8.299   2.254   2.481  0.2755 -0.1389 -2.1560
  875MOL0     H15465   8.089   2.375   2.530  1.8139 -1.2054  4.0364
  875MOL0     H15466   7.954   2.505   2.389 -0.0424 -1.2508  0.6345
  875MOL0     H15467   7.997   2.667   2.325 -2.1405 -0.9402 -0.1994
  875MOL0     H15468   7.766   2.678   2.369  1.0283  0.2338 -0.6445
  875MOL0     H15469   7.838   2.783   2.493 -2.8948  1.1085  0.3727
  875MOL0     H15470   7.799   2.572   2.645  1.4710  3.3211  0.6424
  875MOL0     H15471   7.717   2.507   2.494 -0.4919  1.3886 -1.4410
  875MOL0     H15472   7.602   2.638   2.692 -0.3680  0.9836 -0.0554
  875MOL0     H15473   7.635   2.777   2.594  1.4709  1.0173 -0.3689
  875MOL0     H15474   7.427   2.555   2.551 -0.6604 -1.2344 -1.6288
  875MOL0     H15475   7.521   2.592   2.404 -1.5649 -4.1251  0.1674
  875MOL0     H15476   7.437   2.813   2.393 -0.6901 -0.8411 -1.5062
  875MOL0     H15477   7.388   2.809   2.566  1.7711  1.3054 -0.6085
  875MOL0     H15478   7.211   2.775   2.353 -1.7116 -2.1969 -0.7165
  875MOL0     H15479   7.301   2.630   2.328 -0.6663  1.8770 -1.5359
  875MOL0     H15480   7.181   2.716   2.606  1.5228  0.7579 -1.0036
  875MOL0     H15481   7.215   2.550   2.559  0.5260  0.9002  2.2526
  875MOL0     H15482   8.260   2.748   2.426  0.2684  0.4995 -0.9594
  875MOL0     H15483   8.498   2.639   2.415 -0.5787 -0.1384 -0.4828
  875MOL0     H15484   8.791   2.424   2.392  1.2578  0.0808 -0.1174
  875MOL0     H15485   8.988   2.373   2.297 -0.1693  0.8895  2.6631
  875MOL0     H15486   9.929   3.489   2.565 -0.1456 -0.1984 -0.4062
  875MOL0     H15487  10.118   3.577   2.681  1.2102  0.8192 -0.7964
  875MOL0     H15488  10.664   3.430   2.859 -2.0874  0.1670 -1.3565
  875MOL0     H15489  10.791   3.576   3.011 -1.6484  1.5650  1.9494
  875MOL0     H15490  10.841   3.715   3.184 -3.6014 -1.6555 -0.1824
  875MOL0     H15491  10.678   3.778   3.186 -0.5873  1.1949  0.1928
  875MOL0     H15492  10.753   4.006   3.174 -0.6585  1.2425  2.0826
  875MOL0     H15493  10.790   3.933   3.338  0.7517  0.5775  0.7465
  875MOL0     H15494  10.966   4.065   3.235 -0.9711  0.3987 -1.7806
  875MOL0     H15495  10.996   3.963   3.109  0.5599 -2.0161 -0.3280
  875MOL0     H15496  11.037   3.904   3.403 -1.8196  3.2142 -1.0610
  875MOL0     H15497  11.041   3.763   3.291  1.8312 -0.0363 -0.8006
  875MOL0     H15498  11.413   3.910   3.248  0.7577 -3.6828 -2.0241
  875MOL0     H15499  10.634   3.918   2.827 -2.8062  0.4675 -0.0549
  875MOL0     H15500  10.503   3.776   2.672 -1.2939 -1.5919  0.1782
  876MOL0     O15501   8.552   7.499   4.079 -0.6274 -0.5372  0.3631
  876MOL0     C15502   8.655   7.495   4.005  0.4875  0.2738  0.0680
  876MOL0     O15503   8.652   7.466   3.869  0.0978  0.2715  0.3443
  876MOL0     C15504   8.548   7.392   3.820  1.2766 -0.2699 -0.2926
  876MOL0     C15505   8.512   7.408   3.679  0.5215  0.2627  0.6617
  876MOL0     C15506   8.408   7.326   3.619 -0.6586  1.2282 -0.2479
  876MOL0     C15507   8.348   7.231   3.693  0.4613  0.5491  0.2947
  876MOL0     O15508   8.249   7.145   3.637  0.9291 -0.9282 -1.0977
  876MOL0     C15509   8.185   7.184   3.513 -0.2335  0.4442  0.4444
  876MOL0     C15510   8.103   7.313   3.518 -0.8235  0.1110  0.4560
  876MOL0     C15511   8.049   7.348   3.379 -0.4738  0.1664 -0.5674
  876MOL0     C15512   7.900   7.352   3.388  0.0238  0.3850 -0.1104
  876MOL0     C15513   7.832   7.421   3.266  0.1241  0.0232  0.0658
  876MOL0     C15514   7.679   7.440   3.290 -0.0835 -0.4932  0.4545
  876MOL0     C15515   7.612   7.317   3.342  0.8999 -0.0404  1.0877
  876MOL0     C15516   7.603   7.204   3.233 -0.6712  1.0492  0.4832
  876MOL0     N15517   7.483   7.203   3.151 -0.0788 -0.7436  0.0014
  876MOL0     C15518   7.406   7.093   3.125 -0.3017 -0.1489 -0.4223
  876MOL0     C15519   7.315   7.138   3.027 -0.2593 -0.9275 -0.6010
  876MOL0     C15520   7.192   7.089   2.962 -0.1267  0.5085  0.4949
  876MOL0     C15521   7.088   7.043   3.070 -0.4385 -0.2062  0.3758
  876MOL0     C15522   6.969   6.973   3.002 -0.2203  0.4077  0.2245
  876MOL0     C15523   6.856   6.927   3.102  0.2581  1.2951 -0.1585
  876MOL0     O15524   6.802   6.793   3.068 -0.6052 -0.0389 -0.1753
  876MOL0     C15525   6.710   6.781   2.967 -0.7012  1.1547  0.2943
  876MOL0     C15526   6.677   6.651   2.936  0.4091  0.3285  0.2032
  876MOL0     C15527   6.580   6.624   2.830 -0.8305 -0.9835 -0.5042
  876MOL0     C15528   6.521   6.735   2.764  0.1395  0.4020 -0.3354
  876MOL0     C15529   6.435   6.705   2.646 -0.4732 -0.6311 -0.3966
  876MOL0     O15530   6.365   6.814   2.611 -0.0467 -0.7233  0.2586
  876MOL0     C15531   6.283   6.805   2.499 -0.4467 -0.8435  0.1046
  876MOL0     C15532   6.205   6.696   2.462  0.3566 -0.6961  0.1705
  876MOL0     C15533   6.129   6.698   2.342 -0.5032 -0.0199  0.1816
  876MOL0     C15534   6.145   6.806   2.259 -0.0955 -0.4637 -0.2207
  876MOL0     O15535   6.083   6.794   2.142 -0.0940  0.0834  0.2127
  876MOL0     C15536   6.015   6.917   2.096  0.7574 -0.8328  0.3221
  876MOL0     C15537   5.922   6.875   1.974  0.1317 -0.7187 -0.4470
  876MOL0     C15538   5.842   6.999   1.923 -0.5776  0.1894  0.2904
  876MOL0     C15539   5.731   6.946   1.827  0.9721  0.4714  0.3804
  876MOL0     C15540   5.635   7.053   1.801 -0.0383  0.4004 -0.2188
  876MOL0     C15541   5.549   7.017   1.679 -1.1303  0.0667  0.4839
  876MOL0     C15542   5.455   7.129   1.641 -0.3934 -0.0260 -0.5703
  876MOL0     C15543   5.310   7.088   1.675  0.4896 -0.0466  0.2244
  876MOL0    Cl15544   5.298   7.080   1.851 -0.1209 -0.2119  0.1848
  876MOL0     C15545   6.213   6.917   2.303 -1.2453  0.6604 -1.1716
  876MOL0     C15546   6.276   6.924   2.428  0.4159 -0.4167 -0.3761
  876MOL0     O15547   6.436   6.599   2.592 -0.7832 -0.3937 -0.4742
  876MOL0     C15548   6.560   6.869   2.801 -0.1617 -0.1333  0.1385
  876MOL0     C15549   6.656   6.887   2.899 -0.6986  0.1205 -0.4098
  876MOL0     N15550   7.354   7.272   2.995  0.1469  0.0975 -0.2001
  876MOL0     N15551   7.449   7.301   3.072 -0.5991 -0.1982 -0.3991
  876MOL0     C15552   8.394   7.197   3.824 -0.9941  0.3004 -0.1205
  876MOL0     C15553   8.491   7.287   3.888 -0.5986 -0.3570 -0.6310
  876MOL0     C15554   8.782   7.550   4.059  0.6822 -0.3308  0.7249
  876MOL0     C15555   8.901   7.499   4.012 -0.1457 -0.1179  0.5475
  876MOL0     C15556   9.022   7.558   4.032 -0.0855  0.3944  0.3440
  876MOL0     C15557   9.034   7.670   4.101  0.9099 -0.3586 -0.2664
  876MOL0     O15558   9.156   7.726   4.097  0.0651  0.3511 -0.4774
  876MOL0     C15559   9.186   7.846   4.163  0.0112 -0.1784 -0.2619
  876MOL0     C15560   9.312   7.923   4.129  0.3891 -0.6557  0.0189
  876MOL0     C15561   9.433   7.833   4.111 -0.0422 -0.8234  0.2467
  876MOL0     C15562   9.560   7.912   4.081 -0.0619  0.3623 -0.6389
  876MOL0     C15563   9.621   7.954   4.212 -0.0606  0.2195 -1.2363
  876MOL0     C15564   9.678   7.986   4.318  0.3605  0.0225 -0.5209
  876MOL0     C15565   8.922   7.704   4.180 -0.9745 -0.4289 -0.1183
  876MOL0     C15566   8.794   7.656   4.149  0.0480  0.7136  0.2164
  876MOL0     H15567   8.564   7.483   3.620 -0.5526  0.4491 -0.0702
  876MOL0     H15568   8.390   7.349   3.514 -1.8929  1.7136  0.0474
  876MOL0     H15569   8.112   7.108   3.483  0.8182  0.4318 -2.4799
  876MOL0     H15570   8.261   7.194   3.435  0.5314  1.8424  1.3283
  876MOL0     H15571   8.154   7.401   3.559 -0.1870  0.1974 -0.4886
  876MOL0     H15572   8.028   7.285   3.592 -0.7888 -4.0839 -0.8575
  876MOL0     H15573   8.086   7.271   3.310  1.6015 -2.0187  2.7123
  876MOL0     H15574   8.082   7.446   3.345 -0.6828  0.8292  1.0727
  876MOL0     H15575   7.876   7.246   3.396  4.3317 -0.6743  0.7212
  876MOL0     H15576   7.870   7.398   3.482 -1.6970  2.2162 -1.4478
  876MOL0     H15577   7.851   7.351   3.185  1.1679 -0.3373  0.6122
  876MOL0     H15578   7.881   7.517   3.248  2.3493 -0.8176  1.2624
  876MOL0     H15579   7.630   7.473   3.198 -1.0246 -0.6504  0.8815
  876MOL0     H15580   7.667   7.516   3.367 -2.4632  0.0208 -0.3255
  876MOL0     H15581   7.652   7.274   3.434  2.5347 -1.6329 -0.2748
  876MOL0     H15582   7.509   7.348   3.359  1.2139 -0.2370  3.7864
  876MOL0     H15583   7.620   7.110   3.286  4.0332  1.4724  0.1295
  876MOL0     H15584   7.689   7.219   3.168 -2.3422 -0.9460 -2.4254
  876MOL0     H15585   7.405   6.995   3.171 -2.1596  0.6707  1.4305
  876MOL0     H15586   7.214   7.003   2.898  1.3855  2.2823 -1.4900
  876MOL0     H15587   7.143   7.162   2.896 -1.2261 -1.8550 -1.4564
  876MOL0     H15588   7.047   7.125   3.129 -0.2633  1.0839 -1.2216
  876MOL0     H15589   7.142   6.973   3.135  0.2112  1.4839  1.7485
  876MOL0     H15590   6.914   7.050   2.947 -0.0427  0.6687  0.4104
  876MOL0     H15591   6.999   6.902   2.924  4.3928  0.7075  1.4736
  876MOL0     H15592   6.772   6.995   3.119  0.9544  1.8888  1.0180
  876MOL0     H15593   6.907   6.927   3.198 -2.6982  1.1599  1.5435
  876MOL0     H15594   6.723   6.571   2.994 -0.6030 -3.8376 -4.1048
  876MOL0     H15595   6.548   6.526   2.795  0.3891 -0.9859 -1.6557
  876MOL0     H15596   6.191   6.619   2.537 -0.4501 -3.2301 -2.3989
  876MOL0     H15597   6.051   6.624   2.322 -0.0930 -0.5318  0.4518
  876MOL0     H15598   6.089   6.990   2.061 -0.1147  0.1785  0.5619
  876MOL0     H15599   5.972   6.973   2.179 -0.8394 -0.2226 -0.8560
  876MOL0     H15600   5.844   6.808   2.010 -0.9348  0.6061 -0.1896
  876MOL0     H15601   5.989   6.828   1.901  0.5967  0.5873 -0.9009
  876MOL0     H15602   5.911   7.061   1.865 -1.1899  0.0358 -0.6300
  876MOL0     H15603   5.796   7.047   2.009 -1.2015  2.3620 -1.1759
  876MOL0     H15604   5.784   6.921   1.734  2.4174  1.4136  0.9053
  876MOL0     H15605   5.680   6.857   1.867  0.4075  0.3763 -0.5340
  876MOL0     H15606   5.697   7.143   1.793  0.0814  0.3912  0.6125
  876MOL0     H15607   5.572   7.068   1.889 -0.2173  2.9305 -0.6868
  876MOL0     H15608   5.489   6.926   1.688 -1.7576  0.4305  0.1004
  876MOL0     H15609   5.616   6.991   1.597  0.5272  0.1150  1.7645
  876MOL0     H15610   5.475   7.224   1.690 -0.3050 -0.9762  1.3322
  876MOL0     H15611   5.470   7.142   1.533  1.8093  2.6036 -0.0506
  876MOL0     H15612   5.283   6.992   1.630 -1.2338  1.3100 -1.8942
  876MOL0     H15613   5.245   7.165   1.630  0.1967  0.0538  0.8164
  876MOL0     H15614   6.230   6.994   2.229 -0.8909 -1.2861 -3.1823
  876MOL0     H15615   6.345   7.006   2.446 -1.9765  1.9302 -1.3181
  876MOL0     H15616   6.530   6.959   2.749  0.6401  0.1018  0.0760
  876MOL0     H15617   6.682   6.992   2.903 -0.5604  0.0655  0.5885
  876MOL0     H15618   8.351   7.119   3.885 -0.8114  0.8955  0.7939
  876MOL0     H15619   8.528   7.274   3.989  0.4179  1.5610 -0.6996
  876MOL0     H15620   8.894   7.409   3.952 -1.5947  0.3879 -0.0942
  876MOL0     H15621   9.115   7.520   3.990  0.7039 -1.4629  3.4245
  876MOL0     H15622   9.189   7.819   4.268  0.0414  0.3965 -0.1130
  876MOL0     H15623   9.106   7.920   4.153 -0.5654 -0.3053  2.6246
  876MOL0     H15624   9.289   7.977   4.037  3.0910 -0.1599 -0.4651
  876MOL0     H15625   9.335   8.004   4.199  1.4468 -0.7914 -0.1409
  876MOL0     H15626   9.426   7.755   4.035  0.6033  1.3404 -2.1492
  876MOL0     H15627   9.442   7.775   4.203 -0.6323 -0.3654  0.5977
  876MOL0     H15628   9.636   7.851   4.030 -1.4495 -1.9300 -0.0990
  876MOL0     H15629   9.529   7.993   4.015  3.1597 -0.2287 -3.1415
  876MOL0     H15630   9.734   8.015   4.404  0.1031 -1.4405  0.1632
  876MOL0     H15631   8.937   7.779   4.257 -2.4604 -1.6556  1.4506
  876MOL0     H15632   8.707   7.709   4.186  0.2822 -0.4446  2.5823
  877MOL0     O15633   8.480   1.808  11.257 -0.1910  0.2952  0.1595
  877MOL0     C15634   8.477   1.930  11.218  0.0031  0.1627  0.1557
  877MOL0     O15635   8.386   2.031  11.272  0.1843 -0.0781 -0.0906
  877MOL0     C15636   8.305   1.999  11.378  0.0012  0.4263 -0.7892
  877MOL0     C15637   8.344   1.915  11.485 -1.0042 -0.4341 -0.8238
  877MOL0     C15638   8.255   1.899  11.592  0.2356 -0.0880 -0.2036
  877MOL0     C15639   8.134   1.975  11.600  0.3054  0.8156  1.2767
  877MOL0     O15640   8.044   1.976  11.704  0.1109 -0.2726 -0.4141
  877MOL0     C15641   8.047   2.098  11.784  0.5112  0.0991  0.8281
  877MOL0     C15642   7.911   2.124  11.851 -0.1022  0.3713 -0.7022
  877MOL0     C15643   7.789   2.114  11.757  0.0092 -0.1848 -0.4587
  877MOL0     C15644   7.677   2.171  11.829  0.5044  0.0018 -0.2146
  877MOL0     C15645   7.555   2.160  11.745  0.6909  0.2519 -0.1868
  877MOL0     C15646   7.502   2.022  11.720  0.6492  0.5182 -0.0411
  877MOL0     C15647   7.357   2.011  11.675 -0.6674 -0.3437 -0.3714
  877MOL0     C15648   7.344   2.067  11.531  0.4055 -0.3359  0.1015
  877MOL0     N15649   7.208   2.083  11.483  0.1298 -0.6234 -0.2903
  877MOL0     C15650   7.124   1.982  11.461 -0.2179 -0.7104 -1.1241
  877MOL0     C15651   7.008   2.043  11.433  0.1693  0.4449  0.2722
  877MOL0     C15652   6.888   1.974  11.379 -0.5067  0.5081  1.1148
  877MOL0     C15653   6.763   2.042  11.407  0.2608  0.1053 -0.1168
  877MOL0     C15654   6.645   1.942  11.413 -0.3792 -0.7609  0.3134
  877MOL0     C15655   6.514   2.001  11.380  0.4229  0.1287  0.0526
  877MOL0     O15656   6.417   1.896  11.394 -0.3352 -0.2724  0.4785
  877MOL0     C15657   6.290   1.917  11.341 -0.3531  0.4712 -0.4997
  877MOL0     C15658   6.208   1.810  11.309  0.2917 -0.9768 -0.1708
  877MOL0     C15659   6.069   1.828  11.277 -0.2678  0.8290 -0.0303
  877MOL0     C15660   6.015   1.957  11.272 -0.0352  0.4899  0.1617
  877MOL0     C15661   5.872   1.976  11.244  0.8130 -1.1216  0.3268
  877MOL0     O15662   5.792   1.867  11.224 -0.4084 -0.3612 -0.2328
  877MOL0     C15663   5.654   1.889  11.210  0.3025 -0.3819 -0.0181
  877MOL0     C15664   5.600   1.940  11.090  0.3813 -0.2176  0.4425
  877MOL0     C15665   5.463   1.959  11.070  0.4854  0.0469 -0.6811
  877MOL0     C15666   5.369   1.944  11.170  0.1228  0.5782 -0.0734
  877MOL0     O15667   5.234   1.969  11.162 -0.1433  0.3243 -0.2474
  877MOL0     C15668   5.158   1.972  11.284  0.5733  0.1196  0.1068
  877MOL0     C15669   5.007   1.982  11.250  0.1569  0.2392  0.2630
  877MOL0     C15670   4.963   2.129  11.261  0.0474  0.4559  0.3345
  877MOL0     C15671   4.817   2.157  11.232  0.1032  0.2331  1.2661
  877MOL0     C15672   4.730   2.180  11.354  0.5737 -0.6388  0.9082
  877MOL0     C15673   4.584   2.211  11.304 -0.0370  0.7928 -0.0489
  877MOL0     C15674   4.487   2.245  11.412  0.3039  0.3238 -0.2834
  877MOL0     C15675   4.472   2.403  11.413  0.6204 -0.1678  0.9249
  877MOL0    Cl15676   4.417   2.468  11.250 -0.4157  0.0072 -0.0959
  877MOL0     C15677   5.423   1.902  11.301  0.0041  0.3156 -0.8254
  877MOL0     C15678   5.559   1.862  11.308 -0.2795 -0.0755 -0.7847
  877MOL0     O15679   5.830   2.093  11.254  0.0897  0.4622 -0.4537
  877MOL0     C15680   6.107   2.064  11.296 -0.1430 -0.5308 -0.4272
  877MOL0     C15681   6.244   2.050  11.318 -0.7484 -0.1019 -0.5654
  877MOL0     N15682   7.024   2.176  11.448 -0.7951 -0.0319  0.7338
  877MOL0     N15683   7.140   2.199  11.493  0.2625 -0.6602  0.8941
  877MOL0     C15684   8.094   2.042  11.489  0.0709  0.5226  0.3900
  877MOL0     C15685   8.183   2.060  11.382  0.6375 -0.8871 -0.2410
  877MOL0     C15686   8.580   1.965  11.120 -0.5431 -0.5827  0.1970
  877MOL0     C15687   8.572   2.087  11.055 -1.0853  0.9226 -0.4545
  877MOL0     C15688   8.665   2.125  10.956  0.5731  0.5749  0.5921
  877MOL0     C15689   8.780   2.044  10.931  0.4430 -1.0820  0.7790
  877MOL0     O15690   8.868   2.089  10.830  0.0267  0.8299 -0.8399
  877MOL0     C15691   8.956   1.994  10.755 -0.6484  0.4891 -0.6078
  877MOL0     C15692   9.026   2.074  10.648 -0.0531  0.0160 -1.1781
  877MOL0     C15693   9.141   2.158  10.714  0.2665 -0.5452  0.6184
  877MOL0     C15694   9.239   2.215  10.603 -1.0403 -1.4995 -0.0756
  877MOL0     C15695   9.169   2.315  10.521 -0.4105  0.8892  0.3402
  877MOL0     C15696   9.085   2.395  10.488  0.6367  0.0531  0.9287
  877MOL0     C15697   8.789   1.930  11.008  0.3444 -0.3519  0.2660
  877MOL0     C15698   8.692   1.887  11.098 -0.6208  0.5147 -0.1300
  877MOL0     H15699   8.442   1.870  11.491 -0.6470  0.3835 -0.4661
  877MOL0     H15700   8.272   1.837  11.680 -0.1514 -0.6640 -0.5260
  877MOL0     H15701   8.065   2.187  11.723  1.3358  0.5500  1.7048
  877MOL0     H15702   8.126   2.082  11.858  2.5297 -0.9397 -1.3705
  877MOL0     H15703   7.907   2.213  11.915  0.2416  0.2349 -0.4864
  877MOL0     H15704   7.894   2.051  11.930 -0.2251  1.7108  0.5637
  877MOL0     H15705   7.787   2.007  11.734  0.0120  0.2425 -2.6325
  877MOL0     H15706   7.796   2.159  11.658 -1.7266  0.5447 -0.2977
  877MOL0     H15707   7.665   2.142  11.934  0.6547  4.0887  1.1137
  877MOL0     H15708   7.690   2.279  11.838 -0.5722  0.8594 -5.6002
  877MOL0     H15709   7.586   2.199  11.647  0.1477 -1.7179 -1.1823
  877MOL0     H15710   7.478   2.215  11.799  2.7355  0.5477  2.6273
  877MOL0     H15711   7.511   1.969  11.815 -1.6561 -0.3409 -0.2350
  877MOL0     H15712   7.567   1.979  11.643 -2.1509  2.3169 -3.7324
  877MOL0     H15713   7.337   1.904  11.668  1.7292 -0.8497 -0.3972
  877MOL0     H15714   7.280   2.049  11.743 -0.5505 -1.1062  0.2005
  877MOL0     H15715   7.403   2.006  11.462  1.4918  0.4512  0.3111
  877MOL0     H15716   7.397   2.162  11.534  2.0910 -1.2526  1.5985
  877MOL0     H15717   7.141   1.875  11.475  1.7628 -0.3284 -0.2519
  877MOL0     H15718   6.881   1.871  11.415 -0.6460  0.1687  0.1223
  877MOL0     H15719   6.902   1.965  11.271 -2.6169 -2.7179  0.9682
  877MOL0     H15720   6.747   2.113  11.326 -0.1060 -2.1832 -2.1452
  877MOL0     H15721   6.768   2.104  11.497 -3.3432  0.6504 -0.1324
  877MOL0     H15722   6.666   1.854  11.351  0.1863 -0.7249  0.4446
  877MOL0     H15723   6.651   1.889  11.509 -0.4455 -0.7147  0.3432
  877MOL0     H15724   6.511   2.054  11.284  1.7404  1.1816  0.5492
  877MOL0     H15725   6.496   2.068  11.465  1.1505  1.4912 -0.8331
  877MOL0     H15726   6.230   1.705  11.323 -2.5841 -1.4404  1.7308
  877MOL0     H15727   5.999   1.745  11.268 -3.8441  3.6262 -0.4700
  877MOL0     H15728   5.657   1.971  11.004 -1.0997  2.4932  0.3219
  877MOL0     H15729   5.427   1.994  10.974  0.2978  0.4627 -0.4628
  877MOL0     H15730   5.191   2.050  11.353  2.2058 -0.8061  0.4126
  877MOL0     H15731   5.167   1.874  11.331 -0.0090  0.3726  0.7606
  877MOL0     H15732   4.947   1.929  11.325  1.8070 -0.4818  1.1389
  877MOL0     H15733   4.990   1.941  11.150  3.4604  3.7749 -2.0020
  877MOL0     H15734   5.015   2.192  11.189 -0.1414 -0.8049 -0.9463
  877MOL0     H15735   4.978   2.168  11.362 -1.3233  0.9909  0.3492
  877MOL0     H15736   4.812   2.245  11.167  3.1194 -1.8894 -2.2307
  877MOL0     H15737   4.784   2.072  11.172  1.1256  0.8597 -0.2216
  877MOL0     H15738   4.762   2.275  11.399  0.5418 -0.1731 -0.0371
  877MOL0     H15739   4.731   2.094  11.422 -1.4391 -0.6632  0.9642
  877MOL0     H15740   4.551   2.113  11.268  1.3742 -0.5601  2.1170
  877MOL0     H15741   4.583   2.276  11.216 -0.1790  0.3327 -0.3922
  877MOL0     H15742   4.394   2.191  11.392  1.0139 -1.4373  0.9901
  877MOL0     H15743   4.516   2.210  11.511 -2.3130  2.5365  1.4137
  877MOL0     H15744   4.563   2.457  11.442  0.8130  0.3608 -0.5841
  877MOL0     H15745   4.405   2.428  11.495 -1.4885 -2.0335 -0.1276
  877MOL0     H15746   5.371   1.864  11.388  3.0166 -1.2410  0.4504
  877MOL0     H15747   5.592   1.815  11.400  1.0271 -0.3043 -1.3499
  877MOL0     H15748   6.047   2.153  11.282 -2.8812 -1.8285  1.9476
  877MOL0     H15749   6.302   2.139  11.338 -1.6079  0.3598 -0.1012
  877MOL0     H15750   8.007   2.102  11.516 -1.3397 -1.8245  1.3819
  877MOL0     H15751   8.153   2.129  11.303 -0.8717 -1.2357 -0.0070
  877MOL0     H15752   8.493   2.155  11.084  0.3794  1.3950  2.9082
  877MOL0     H15753   8.644   2.210  10.891 -1.0405  0.2923  0.7082
  877MOL0     H15754   8.893   1.921  10.703  0.6057  0.0474 -1.5482
  877MOL0     H15755   9.025   1.938  10.819 -0.7067  0.3783 -0.6409
  877MOL0     H15756   9.063   2.009  10.568 -0.3368 -1.0806 -0.4353
  877MOL0     H15757   8.948   2.129  10.596  1.1744  1.7196 -1.2970
  877MOL0     H15758   9.196   2.097  10.787 -3.0285 -1.4599  2.5585
  877MOL0     H15759   9.093   2.242  10.765  1.5126 -0.1437  1.1595
  877MOL0     H15760   9.334   2.253  10.642 -0.3180 -2.1392 -1.1408
  877MOL0     H15761   9.278   2.134  10.541  1.5196 -2.0175  2.0354
  877MOL0     H15762   9.020   2.475  10.459  2.4300  2.3834  2.8991
  877MOL0     H15763   8.883   1.879  10.988 -0.4006 -1.4496 -0.5474
  877MOL0     H15764   8.703   1.792  11.149  1.2778  0.6447 -0.2173
  878MOL0     O15765   1.104   9.581  11.226 -0.0407  0.6763  0.3068
  878MOL0     C15766   1.084   9.696  11.274  0.2853  0.0219  1.4040
  878MOL0     O15767   0.981   9.730  11.361  0.0928  0.4557 -0.6372
  878MOL0     C15768   0.883   9.632  11.390 -0.7526  0.8769  0.0747
  878MOL0     C15769   0.755   9.678  11.387  0.7333 -0.0669  0.5648
  878MOL0     C15770   0.654   9.597  11.436 -0.4290 -0.4824 -0.0050
  878MOL0     C15771   0.681   9.480  11.505 -0.3856  0.9238  0.9404
  878MOL0     O15772   0.591   9.399  11.572  0.1273 -0.2360  0.2584
  878MOL0     C15773   0.452   9.392  11.528  0.4579  0.7483  0.3761
  878MOL0     C15774   0.399   9.271  11.608  0.1404 -0.7255 -0.4588
  878MOL0     C15775   0.251   9.256  11.578  0.4203 -0.9024  0.2202
  878MOL0     C15776   0.195   9.139  11.659 -0.4996  0.0236  0.1689
  878MOL0     C15777   0.039   9.121  11.615 -0.1932  0.4317 -0.2415
  878MOL0     C15778  -0.058   9.206  11.694 -0.1190 -0.2422 -0.8192
  878MOL0     C15779  -0.207   9.202  11.630  0.2310 -0.1734  0.6051
  878MOL0     C15780  -0.312   9.263  11.731  1.2703  0.8924 -0.4409
  878MOL0     N15781  -0.440   9.202  11.711 -0.1147 -0.8532 -0.0744
  878MOL0     C15782  -0.542   9.252  11.639  0.2866 -0.3886 -0.1983
  878MOL0     C15783  -0.647   9.165  11.658 -0.0155 -0.1717 -0.0192
  878MOL0     C15784  -0.794   9.183  11.612 -0.3714  0.3675 -0.1454
  878MOL0     C15785  -0.800   9.195  11.457  0.1275 -0.3058  0.3296
  878MOL0     C15786  -0.736   9.080  11.391  0.0027 -0.1171 -0.3928
  878MOL0     C15787  -0.769   9.067  11.239 -0.7182  0.2537 -1.0204
  878MOL0     O15788  -0.767   8.921  11.201 -0.6929 -0.7598  0.5539
  878MOL0     C15789  -0.886   8.855  11.187  0.6259  0.0289 -0.9704
  878MOL0     C15790  -0.881   8.719  11.224  0.5528 -0.2265  0.2087
  878MOL0     C15791  -1.006   8.642  11.223 -0.3548 -0.4527  0.0665
  878MOL0     C15792  -1.117   8.695  11.155 -1.0028  1.1863 -0.4342
  878MOL0     C15793  -1.239   8.603  11.130 -0.1564 -0.1099  0.4759
  878MOL0     O15794  -1.238   8.473  11.180  0.5751 -0.3289  0.5093
  878MOL0     C15795  -1.355   8.399  11.175 -0.5231  0.5166 -0.0422
  878MOL0     C15796  -1.481   8.440  11.207  0.0145 -0.5540  0.1548
  878MOL0     C15797  -1.590   8.354  11.204  0.1905 -0.1508 -0.0681
  878MOL0     C15798  -1.566   8.216  11.191 -0.6637 -0.1738 -0.4647
  878MOL0     O15799  -1.668   8.121  11.208  0.4595  0.6395 -0.6607
  878MOL0     C15800  -1.804   8.169  11.237 -1.1878 -0.3541  0.0166
  878MOL0     C15801  -1.893   8.050  11.275 -0.0430  0.0716  0.4730
  878MOL0     C15802  -1.899   7.930  11.165 -0.3177  0.4181 -0.9899
  878MOL0     C15803  -2.014   7.828  11.189 -0.1384  0.2889  0.0394
  878MOL0     C15804  -2.010   7.705  11.097  0.3343  0.1284 -0.4200
  878MOL0     C15805  -2.126   7.600  11.111 -0.1003  0.4979 -0.6295
  878MOL0     C15806  -2.113   7.501  11.006  0.7393  0.6443  1.3323
  878MOL0     C15807  -2.231   7.404  10.998 -0.3097 -0.0403 -0.3568
  878MOL0    Cl15808  -2.211   7.276  11.133 -0.1656 -0.2946  0.4577
  878MOL0     C15809  -1.438   8.175  11.158 -0.4174  0.6251 -0.0912
  878MOL0     C15810  -1.333   8.262  11.153 -0.7802 -0.7456 -0.5497
  878MOL0     O15811  -1.330   8.661  11.070  0.5033  0.2432  0.3540
  878MOL0     C15812  -1.114   8.824  11.107 -0.4287  0.7727  0.1776
  878MOL0     C15813  -0.995   8.904  11.117  0.9383  0.1818  0.4181
  878MOL0     N15814  -0.595   9.058  11.733 -0.4996 -0.2050  0.1651
  878MOL0     N15815  -0.474   9.085  11.765 -0.3529 -0.3927  0.3309
  878MOL0     C15816   0.807   9.432  11.502 -0.0062 -0.4487 -0.1692
  878MOL0     C15817   0.915   9.506  11.451 -0.5302  0.1714 -0.1206
  878MOL0     C15818   1.174   9.815  11.229 -0.1056  0.4262  0.3193
  878MOL0     C15819   1.191   9.927  11.306 -0.3305  0.3405  0.6589
  878MOL0     C15820   1.271  10.030  11.260 -0.2589 -0.2714 -0.5314
  878MOL0     C15821   1.349  10.011  11.148 -0.3608 -0.0884  0.2136
  878MOL0     O15822   1.457  10.100  11.108  0.6008  0.5203 -0.0087
  878MOL0     C15823   1.515  10.173  11.217 -0.1706 -0.4653 -0.9053
  878MOL0     C15824   1.650  10.227  11.163  0.7731  0.3756  0.8617
  878MOL0     C15825   1.739  10.293  11.269 -0.0606  0.2173  0.9122
  878MOL0     C15826   1.887  10.323  11.204  0.0870 -0.8061  0.3550
  878MOL0     C15827   1.875  10.422  11.097  0.5424  0.1454  0.2310
  878MOL0     C15828   1.870  10.496  11.007  0.8358  0.2706  0.4141
  878MOL0     C15829   1.324   9.907  11.068 -0.6332 -0.0538 -0.1852
  878MOL0     C15830   1.241   9.804  11.107  0.6025 -0.0203  0.5640
  878MOL0     H15831   0.736   9.773  11.338  0.1192 -1.2181 -1.5894
  878MOL0     H15832   0.547   9.618  11.434 -0.7890 -2.0970  0.6924
  878MOL0     H15833   0.440   9.366  11.423  2.2837  0.6289  0.1561
  878MOL0     H15834   0.410   9.489  11.556  0.1300  0.4929  0.7766
  878MOL0     H15835   0.402   9.293  11.715 -2.0368 -1.7207 -0.1434
  878MOL0     H15836   0.460   9.183  11.586  1.8533 -0.2922  2.1343
  878MOL0     H15837   0.231   9.249  11.471  0.4347  1.9536 -0.0471
  878MOL0     H15838   0.197   9.345  11.612 -0.1020 -0.8775 -0.6433
  878MOL0     H15839   0.254   9.050  11.636 -0.0743  0.5487 -0.7923
  878MOL0     H15840   0.209   9.158  11.766  1.1345  2.2064 -0.3663
  878MOL0     H15841   0.010   9.016  11.612 -0.3855  0.4976 -1.4254
  878MOL0     H15842   0.032   9.157  11.511  1.1100  0.1588 -0.4404
  878MOL0     H15843  -0.022   9.309  11.706  1.1031 -0.9410  2.2538
  878MOL0     H15844  -0.067   9.163  11.794 -1.0154  2.3381  0.3044
  878MOL0     H15845  -0.216   9.256  11.535 -2.6731 -0.5692  0.5636
  878MOL0     H15846  -0.235   9.098  11.611  1.2261 -0.4947  0.8229
  878MOL0     H15847  -0.313   9.369  11.705  0.8594  1.7765  2.7909
  878MOL0     H15848  -0.279   9.249  11.834 -0.4607 -0.5382 -0.0364
  878MOL0     H15849  -0.546   9.351  11.596 -0.7044 -0.8401 -1.1778
  878MOL0     H15850  -0.825   9.280  11.652  2.3354  1.1999  0.1190
  878MOL0     H15851  -0.860   9.105  11.653  0.1930 -0.0103  0.0689
  878MOL0     H15852  -0.742   9.281  11.424 -0.8906 -1.0564 -3.9784
  878MOL0     H15853  -0.902   9.214  11.423  0.1898 -2.7526 -1.4342
  878MOL0     H15854  -0.627   9.079  11.404  0.0031 -2.2721 -0.2843
  878MOL0     H15855  -0.770   8.990  11.443 -3.0090  1.0035 -0.2661
  878MOL0     H15856  -0.700   9.134  11.187  1.8576  0.7181  2.6388
  878MOL0     H15857  -0.873   9.098  11.226 -1.0901 -1.3145 -2.1088
  878MOL0     H15858  -0.789   8.683  11.271  1.2334  1.2195  0.0446
  878MOL0     H15859  -0.993   8.544  11.267 -0.4634 -0.1315  0.8340
  878MOL0     H15860  -1.508   8.535  11.251 -0.5312 -0.4151 -0.4602
  878MOL0     H15861  -1.683   8.402  11.234  1.7079  3.1623 -0.2441
  878MOL0     H15862  -1.846   8.227  11.154 -1.7074 -1.4337 -0.5078
  878MOL0     H15863  -1.805   8.222  11.333  2.4237  2.4434 -1.2930
  878MOL0     H15864  -1.996   8.088  11.287 -0.9354 -2.5528  1.8800
  878MOL0     H15865  -1.848   8.024  11.371 -0.2785  0.6251  0.7400
  878MOL0     H15866  -1.806   7.873  11.177 -0.0389  1.0466 -0.0572
  878MOL0     H15867  -1.904   7.967  11.062 -1.8921 -0.8684 -1.4233
  878MOL0     H15868  -1.993   7.786  11.288  1.4864 -0.2615 -0.4994
  878MOL0     H15869  -2.105   7.888  11.182  1.2876  2.6140  0.2437
  878MOL0     H15870  -1.912   7.655  11.101  0.9185  1.2657  2.6924
  878MOL0     H15871  -2.026   7.745  10.996 -1.0732 -2.8663 -1.4909
  878MOL0     H15872  -2.225   7.646  11.113  0.1225  1.0017  1.6316
  878MOL0     H15873  -2.121   7.565  11.214 -3.1612  2.5415  0.3726
  878MOL0     H15874  -2.105   7.562  10.916 -1.8045  1.0181  1.3057
  878MOL0     H15875  -2.028   7.431  11.013  0.3194 -0.3327 -1.9718
  878MOL0     H15876  -2.228   7.347  10.905 -2.2893 -1.9746  0.6795
  878MOL0     H15877  -2.329   7.449  11.016  0.4845  1.1535  1.2700
  878MOL0     H15878  -1.430   8.068  11.145 -0.5142  0.7860 -1.6605
  878MOL0     H15879  -1.233   8.231  11.123 -1.6417 -1.1163 -3.3240
  878MOL0     H15880  -1.202   8.865  11.058 -2.8613 -0.9648  2.7969
  878MOL0     H15881  -0.995   8.999  11.065  0.1302 -0.4524 -0.8026
  878MOL0     H15882   0.832   9.346  11.564  2.2889  0.7381  0.6719
  878MOL0     H15883   1.018   9.486  11.478 -0.1437  0.5118 -1.3171
  878MOL0     H15884   1.149   9.933  11.406  1.4632  2.0845  1.3557
  878MOL0     H15885   1.274  10.116  11.326  1.5203  0.6232 -1.7097
  878MOL0     H15886   1.533  10.114  11.307 -0.5969  2.5958  1.3650
  878MOL0     H15887   1.452  10.253  11.256  2.5959  3.0068 -2.9301
  878MOL0     H15888   1.704  10.152  11.105 -1.1768 -0.4650  0.0422
  878MOL0     H15889   1.628  10.302  11.087  0.1020 -0.9847 -0.3162
  878MOL0     H15890   1.744  10.225  11.355  0.0586 -0.7582  0.1526
  878MOL0     H15891   1.679  10.377  11.304 -0.1254  0.9486 -0.8432
  878MOL0     H15892   1.965  10.345  11.277  0.9520  2.2522 -1.3346
  878MOL0     H15893   1.918  10.230  11.155  0.3460  0.1384 -1.3441
  878MOL0     H15894   1.843  10.561  10.926 -0.7201 -2.1342 -1.1375
  878MOL0     H15895   1.373   9.913  10.971  2.1565  2.4723  1.2089
  878MOL0     H15896   1.228   9.715  11.048  0.5642  0.1027  0.3870
  879MOL0     O15897   6.055   7.302  10.411 -0.5442  0.1762  0.0394
  879MOL0     C15898   6.046   7.301  10.536  0.7750  0.3231 -0.5230
  879MOL0     O15899   5.938   7.254  10.612  0.4164 -0.1305  0.4846
  879MOL0     C15900   5.817   7.217  10.555  0.3958  0.3793 -0.3247
  879MOL0     C15901   5.764   7.262  10.429  0.1358 -0.8819 -0.1477
  879MOL0     C15902   5.646   7.207  10.389  0.7143  0.7143  0.7488
  879MOL0     C15903   5.570   7.110  10.454 -0.8377 -0.2115  0.2513
  879MOL0     O15904   5.459   7.054  10.387 -0.6879  0.0131 -1.0604
  879MOL0     C15905   5.418   6.919  10.431  0.1977 -0.6070  0.5265
  879MOL0     C15906   5.309   6.866  10.330  0.8188  0.4435 -0.0282
  879MOL0     C15907   5.179   6.948  10.360 -1.2556 -0.3199  0.0658
  879MOL0     C15908   5.080   6.884  10.264 -0.2734  0.3551 -0.7985
  879MOL0     C15909   4.953   6.974  10.232 -0.4348  0.6455 -0.0566
  879MOL0     C15910   4.990   7.098  10.150 -0.2821 -0.0212  0.0682
  879MOL0     C15911   4.885   7.204  10.131  0.2229 -0.1311 -0.6525
  879MOL0     C15912   4.936   7.340  10.071  0.3541  1.1699  0.7931
  879MOL0     N15913   4.820   7.431  10.051  0.0573 -0.0028  0.0158
  879MOL0     C15914   4.703   7.426   9.974  0.2735  0.2145  0.3155
  879MOL0     C15915   4.632   7.537  10.011  0.4002 -0.5248  0.2816
  879MOL0     C15916   4.505   7.577   9.953  0.2754  0.1471 -0.5373
  879MOL0     C15917   4.394   7.463   9.949 -1.3732 -1.1671 -0.3119
  879MOL0     C15918   4.390   7.401  10.092 -0.6298  0.3749 -0.4122
  879MOL0     C15919   4.259   7.323  10.111  0.7447 -0.6714  0.4651
  879MOL0     O15920   4.175   7.406  10.192  0.2072  0.3308  0.0579
  879MOL0     C15921   4.048   7.367  10.219  0.1180 -0.0931  0.1392
  879MOL0     C15922   3.992   7.240  10.251 -0.1179  0.1139 -0.0323
  879MOL0     C15923   3.857   7.212  10.255 -0.2328  0.4400 -0.5407
  879MOL0     C15924   3.760   7.311  10.226  0.2997  0.2342  0.7230
  879MOL0     C15925   3.615   7.269  10.228 -1.0918 -0.0319  0.3888
  879MOL0     O15926   3.584   7.143  10.252  0.4771 -0.2083 -0.3716
  879MOL0     C15927   3.451   7.102  10.243 -0.3797 -0.5971  0.3965
  879MOL0     C15928   3.369   7.125  10.134  0.4875  0.1081 -0.4145
  879MOL0     C15929   3.230   7.091  10.136 -0.6816  0.7358 -0.4792
  879MOL0     C15930   3.189   7.020  10.255  0.0254  0.7893 -0.1460
  879MOL0     O15931   3.059   6.978  10.275  0.1907  0.0053 -0.7681
  879MOL0     C15932   2.961   7.050  10.193  0.5113 -0.3523  1.1697
  879MOL0     C15933   2.817   7.026  10.243 -0.2039  0.8745 -0.9705
  879MOL0     C15934   2.716   7.068  10.142  0.2894  0.0803  0.4089
  879MOL0     C15935   2.579   7.088  10.207 -0.6422  0.7493  0.3328
  879MOL0     C15936   2.464   7.113  10.102 -0.2943 -1.2651 -0.2029
  879MOL0     C15937   2.330   7.141  10.170 -0.2051 -0.7968  0.7384
  879MOL0     C15938   2.240   7.028  10.145  0.4596 -0.1694 -0.4738
  879MOL0     C15939   2.099   7.076  10.186 -0.0421  0.3265  0.6618
  879MOL0    Cl15940   2.085   7.104  10.356  0.1168 -0.1052  0.1791
  879MOL0     C15941   3.279   6.990  10.352 -0.3923 -0.4317  0.0462
  879MOL0     C15942   3.417   7.016  10.345  0.1322 -0.5703  0.4456
  879MOL0     O15943   3.537   7.353  10.178 -0.3095 -0.1778  0.0226
  879MOL0     C15944   3.807   7.449  10.199 -0.0866 -1.2035  0.6037
  879MOL0     C15945   3.948   7.470  10.193 -0.0328 -0.9687 -0.2584
  879MOL0     N15946   4.705   7.594  10.110  0.9692 -0.5694  0.0370
  879MOL0     N15947   4.822   7.539  10.123 -0.0299  0.1309 -0.1541
  879MOL0     C15948   5.618   7.077  10.582  0.0759  1.1983  0.3039
  879MOL0     C15949   5.740   7.129  10.633 -0.7876 -0.3422 -0.1510
  879MOL0     C15950   6.170   7.326  10.614  0.7351 -0.0364  0.5179
  879MOL0     C15951   6.292   7.334  10.544  0.2139 -0.2738 -0.3928
  879MOL0     C15952   6.407   7.346  10.624  0.0616  0.6578 -0.5419
  879MOL0     C15953   6.403   7.349  10.768  0.4192  0.2432 -0.7435
  879MOL0     O15954   6.516   7.368  10.835 -0.0542  0.4336 -0.5938
  879MOL0     C15955   6.527   7.415  10.976  0.2565 -0.7657 -0.2375
  879MOL0     C15956   6.651   7.494  10.988 -0.2567 -0.9397 -0.6062
  879MOL0     C15957   6.770   7.400  10.968 -0.5197 -0.5081 -0.0667
  879MOL0     C15958   6.906   7.479  10.961 -0.1564 -0.4301 -0.3355
  879MOL0     C15959   7.020   7.397  10.905  0.1084  0.5530 -0.0728
  879MOL0     C15960   7.115   7.332  10.878  1.2749  0.5594  0.9147
  879MOL0     C15961   6.274   7.349  10.822  0.2633  0.8597  0.0754
  879MOL0     C15962   6.156   7.342  10.748 -1.3113 -0.8236  0.1157
  879MOL0     H15963   5.807   7.348  10.378 -0.9452  0.0448  0.4479
  879MOL0     H15964   5.608   7.251  10.298  2.5944 -2.6332 -1.9264
  879MOL0     H15965   5.363   6.909  10.525 -2.1763 -3.0440 -0.9798
  879MOL0     H15966   5.500   6.847  10.432 -0.4247 -1.3310  1.1332
  879MOL0     H15967   5.288   6.760  10.348 -0.5931  0.8504  0.7934
  879MOL0     H15968   5.331   6.877  10.223 -0.9700  0.6145 -0.3957
  879MOL0     H15969   5.194   7.055  10.344 -1.8733  0.4253  3.6587
  879MOL0     H15970   5.145   6.936  10.463  1.0645 -0.1577  0.8859
  879MOL0     H15971   5.134   6.883  10.168  0.2673  0.3221 -0.4967
  879MOL0     H15972   5.053   6.783  10.294 -1.7503  0.8885 -0.2185
  879MOL0     H15973   4.916   6.982  10.335 -0.3501  0.3812 -0.0069
  879MOL0     H15974   4.876   6.919  10.178 -0.6301  1.5913 -0.7775
  879MOL0     H15975   5.013   7.060  10.050  1.0343 -2.6700  1.2644
  879MOL0     H15976   5.070   7.153  10.199 -0.5101  0.4512 -0.0871
  879MOL0     H15977   4.809   7.162  10.065  2.0062 -0.8219 -2.3339
  879MOL0     H15978   4.829   7.225  10.223 -3.0790  0.1072 -2.5579
  879MOL0     H15979   4.993   7.318   9.980 -1.0442 -0.2609  0.2213
  879MOL0     H15980   5.006   7.377  10.146  0.7094 -0.7326  1.4436
  879MOL0     H15981   4.685   7.337   9.915 -2.1948 -0.4986  2.0105
  879MOL0     H15982   4.519   7.612   9.851  1.0878  0.9474 -0.1626
  879MOL0     H15983   4.473   7.662  10.013 -0.3581  0.2857 -1.0585
  879MOL0     H15984   4.427   7.387   9.877 -0.0036 -0.0170 -0.9628
  879MOL0     H15985   4.299   7.501   9.912 -2.3888 -1.5941  1.6979
  879MOL0     H15986   4.471   7.329  10.105 -1.7677 -0.6287  1.3847
  879MOL0     H15987   4.386   7.480  10.168  0.6918  0.3230 -0.2596
  879MOL0     H15988   4.285   7.229  10.160 -2.6097 -0.7517  2.3709
  879MOL0     H15989   4.225   7.310  10.008 -0.3382  0.0875  0.7134
  879MOL0     H15990   4.064   7.164  10.282  1.3997  1.2468 -0.6189
  879MOL0     H15991   3.830   7.112  10.285  0.3146  0.5861  0.4756
  879MOL0     H15992   3.397   7.170  10.039 -0.7338  3.3104  0.6125
  879MOL0     H15993   3.168   7.102  10.047 -0.2645 -2.1888 -1.2395
  879MOL0     H15994   2.978   7.009  10.094 -2.2267 -1.3691  1.0363
  879MOL0     H15995   2.970   7.158  10.203 -1.0238 -0.2101  1.3347
  879MOL0     H15996   2.802   7.085  10.334 -0.3776 -0.1855 -0.2894
  879MOL0     H15997   2.804   6.920  10.266  2.4804  0.6343 -0.1587
  879MOL0     H15998   2.709   7.003  10.054  0.0127 -1.3538  1.4524
  879MOL0     H15999   2.739   7.168  10.104  0.1251 -0.0544 -0.0531
  879MOL0     H16000   2.561   7.004  10.274  2.4013  0.9186  1.5048
  879MOL0     H16001   2.567   7.173  10.274 -1.1833  0.8480  0.1196
  879MOL0     H16002   2.459   7.027  10.036  2.8498 -1.3348 -0.5265
  879MOL0     H16003   2.487   7.205  10.048  1.0625 -0.5740  1.4575
  879MOL0     H16004   2.287   7.226  10.116  0.2261 -1.3300 -0.4859
  879MOL0     H16005   2.335   7.158  10.278  0.2329  0.2851  0.5694
  879MOL0     H16006   2.229   7.004  10.039  1.5050  0.1281 -0.6670
  879MOL0     H16007   2.278   6.936  10.189 -2.8378 -2.2636 -1.6217
  879MOL0     H16008   2.033   6.991  10.167 -1.3436  0.9769  2.0416
  879MOL0     H16009   2.061   7.153  10.118  1.6466 -1.0747 -2.0238
  879MOL0     H16010   3.246   6.925  10.432  0.4994 -1.1256 -0.1284
  879MOL0     H16011   3.484   6.982  10.424  0.3988 -0.4832  0.2548
  879MOL0     H16012   3.743   7.536  10.184  2.3656  0.8324  1.2410
  879MOL0     H16013   3.983   7.570  10.171 -0.5333 -1.5015 -4.0981
  879MOL0     H16014   5.565   6.997  10.631  0.7984  1.0559  0.8708
  879MOL0     H16015   5.775   7.088  10.728 -1.4076 -0.0826  0.1966
  879MOL0     H16016   6.297   7.335  10.436  0.4266 -0.6223 -0.3877
  879MOL0     H16017   6.506   7.349  10.581 -0.8795 -1.7353 -3.2267
  879MOL0     H16018   6.531   7.329  11.044  0.0618 -1.9714 -1.6904
  879MOL0     H16019   6.438   7.475  10.997  1.1698  0.2539  0.7672
  879MOL0     H16020   6.643   7.567  10.907  1.7618 -3.0223 -2.8690
  879MOL0     H16021   6.667   7.549  11.081 -0.2954  0.0129 -1.1523
  879MOL0     H16022   6.764   7.333  10.882  0.7802 -0.8133  0.0473
  879MOL0     H16023   6.772   7.343  11.062  0.1470  1.2476  1.0329
  879MOL0     H16024   6.883   7.558  10.890 -0.8987 -1.2934 -1.0833
  879MOL0     H16025   6.924   7.533  11.054  1.3169 -0.7683 -0.4038
  879MOL0     H16026   7.201   7.275  10.851 -0.7101 -1.7426 -0.9870
  879MOL0     H16027   6.261   7.342  10.930 -1.6313 -0.2239 -0.1743
  879MOL0     H16028   6.063   7.345  10.805  0.6839  0.7936  3.5800
  880MOL0     O16029   8.570   1.613   7.343  0.0445  0.5201  0.5252
  880MOL0     C16030   8.617   1.598   7.229  0.1892  0.1389 -0.7803
  880MOL0     O16031   8.545   1.563   7.117 -0.1384  0.0544  0.5381
  880MOL0     C16032   8.426   1.493   7.127 -0.2691 -0.1298  0.7066
  880MOL0     C16033   8.380   1.408   7.229  0.1320 -0.4504 -0.1446
  880MOL0     C16034   8.260   1.326   7.205 -1.0983  0.1297 -0.3720
  880MOL0     C16035   8.187   1.329   7.084 -0.3010  0.0710  0.0785
  880MOL0     O16036   8.080   1.246   7.066 -0.5402  0.4225 -0.2511
  880MOL0     C16037   7.960   1.302   7.011  0.3067  0.3567 -0.4582
  880MOL0     C16038   7.871   1.181   6.972 -0.4890  0.1504 -0.4352
  880MOL0     C16039   7.737   1.224   6.930  0.3205 -0.2414 -0.2406
  880MOL0     C16040   7.657   1.092   6.906 -0.2614 -0.1545 -0.3185
  880MOL0     C16041   7.513   1.101   6.856 -0.9659  0.0389 -0.5049
  880MOL0     C16042   7.418   1.140   6.968  0.2354  0.0157  0.2301
  880MOL0     C16043   7.270   1.088   6.933  0.3655  0.4575  0.1717
  880MOL0     C16044   7.243   0.941   6.978 -0.6540  0.6132 -0.4938
  880MOL0     N16045   7.104   0.895   6.978  0.5557 -0.1355  0.2848
  880MOL0     C16046   7.005   0.915   6.886 -0.4836  0.3891 -0.2773
  880MOL0     C16047   6.896   0.854   6.933 -0.1912  0.7597  1.3070
  880MOL0     C16048   6.764   0.839   6.854 -0.8817 -0.0424 -0.4810
  880MOL0     C16049   6.694   0.716   6.910 -0.9730 -1.8995 -0.0934
  880MOL0     C16050   6.781   0.586   6.903 -0.0024 -0.4797 -0.7553
  880MOL0     C16051   6.709   0.460   6.955 -0.2535  0.3815 -0.0751
  880MOL0     O16052   6.581   0.433   6.885 -0.7671 -0.4607 -0.4773
  880MOL0     C16053   6.469   0.462   6.956  0.3586 -1.2372 -0.1152
  880MOL0     C16054   6.452   0.457   7.100  0.0612 -0.2015  0.1540
  880MOL0     C16055   6.329   0.493   7.158  0.2393 -0.2265  0.3043
  880MOL0     C16056   6.216   0.512   7.074  0.6308  0.2503 -0.7295
  880MOL0     C16057   6.079   0.545   7.128 -0.6670  0.6075 -0.2210
  880MOL0     O16058   5.995   0.608   7.048 -0.5039  0.0726 -0.1087
  880MOL0     C16059   5.870   0.629   7.102 -0.7726  0.7966 -0.3804
  880MOL0     C16060   5.762   0.602   7.021  0.0412 -0.1655 -0.8180
  880MOL0     C16061   5.627   0.638   7.070 -0.7682  0.1109  0.8088
  880MOL0     C16062   5.613   0.702   7.192  0.5646  0.3605 -0.4770
  880MOL0     O16063   5.493   0.748   7.233  0.0864 -0.5055 -0.8808
  880MOL0     C16064   5.450   0.710   7.367 -0.1389  0.5542  0.4648
  880MOL0     C16065   5.481   0.557   7.395 -0.0435  1.3290 -0.2286
  880MOL0     C16066   5.455   0.524   7.547  0.1772  0.2620  0.1424
  880MOL0     C16067   5.572   0.435   7.598  0.9363  0.0753 -0.5532
  880MOL0     C16068   5.537   0.403   7.741  0.9756  0.0086 -0.3450
  880MOL0     C16069   5.655   0.340   7.818 -0.3030  0.9908  0.0698
  880MOL0     C16070   5.741   0.445   7.886 -0.3640 -0.6628 -0.1513
  880MOL0     C16071   5.892   0.409   7.920 -0.1572  0.0367 -0.5228
  880MOL0    Cl16072   5.967   0.563   7.971 -0.4529 -0.3747 -0.3105
  880MOL0     C16073   5.719   0.719   7.273  0.6748 -0.2667 -0.2111
  880MOL0     C16074   5.846   0.688   7.228 -0.4773  0.2692 -0.2940
  880MOL0     O16075   6.054   0.500   7.241 -0.6016 -0.0841  0.7917
  880MOL0     C16076   6.232   0.519   6.938 -0.9506  0.0605  0.2542
  880MOL0     C16077   6.363   0.505   6.881 -0.2593 -0.2747 -0.2976
  880MOL0     N16078   6.923   0.813   7.066  0.4790 -1.0765  0.2853
  880MOL0     N16079   7.048   0.841   7.087  1.0478  1.3258 -0.3901
  880MOL0     C16080   8.234   1.432   6.997  0.9216 -0.5154 -0.4283
  880MOL0     C16081   8.352   1.494   7.014 -0.0714 -0.2023  0.6995
  880MOL0     C16082   8.757   1.607   7.217 -0.2434  0.3296 -0.5106
  880MOL0     C16083   8.838   1.688   7.303 -0.1465 -0.3067  1.0267
  880MOL0     C16084   8.977   1.701   7.265  0.5718  0.0157 -0.1129
  880MOL0     C16085   9.039   1.617   7.169  0.7958  0.2449 -1.1056
  880MOL0     O16086   9.166   1.615   7.129 -0.3565 -0.2571  0.2242
  880MOL0     C16087   9.241   1.738   7.150  0.4912 -0.6007  0.1097
  880MOL0     C16088   9.194   1.852   7.060 -0.5620  0.3353 -0.0036
  880MOL0     C16089   9.302   1.959   7.070  0.2333 -1.0340 -0.4950
  880MOL0     C16090   9.249   2.086   7.149 -0.5331  0.8493  0.0687
  880MOL0     C16091   9.260   2.063   7.293  0.2371 -0.8381  0.2635
  880MOL0     C16092   9.263   2.047   7.415  0.2701 -0.7398 -0.0483
  880MOL0     C16093   8.959   1.535   7.096  0.5220  0.1096  0.8382
  880MOL0     C16094   8.825   1.524   7.122  0.2640 -0.0236  0.1908
  880MOL0     H16095   8.434   1.418   7.322  0.7044 -0.7957 -0.4375
  880MOL0     H16096   8.228   1.253   7.278 -2.8706  0.6635 -0.5499
  880MOL0     H16097   7.976   1.365   6.923  1.6360  0.1434 -0.3858
  880MOL0     H16098   7.909   1.359   7.089  0.7190  2.7795 -1.8820
  880MOL0     H16099   7.859   1.129   7.068  0.2219 -0.2641 -0.5573
  880MOL0     H16100   7.915   1.122   6.891  2.8944  0.1362  1.2262
  880MOL0     H16101   7.747   1.293   6.845 -2.1776 -0.1560 -0.5350
  880MOL0     H16102   7.687   1.295   6.996 -0.0820  1.8636 -2.6580
  880MOL0     H16103   7.715   1.042   6.828 -1.0875 -0.9219 -0.4446
  880MOL0     H16104   7.670   1.034   6.998  2.5029 -2.2775 -1.8934
  880MOL0     H16105   7.482   1.007   6.810 -0.7324  0.9291 -2.5775
  880MOL0     H16106   7.520   1.177   6.777  0.9523 -0.8275 -1.2347
  880MOL0     H16107   7.407   1.248   6.974 -1.3325 -0.0494 -0.8922
  880MOL0     H16108   7.447   1.089   7.061 -0.1773  0.3917  0.5695
  880MOL0     H16109   7.189   1.145   6.979  0.3813  3.2567 -2.8954
  880MOL0     H16110   7.259   1.109   6.826 -1.3492  1.9267  0.5915
  880MOL0     H16111   7.280   0.927   7.080 -1.9533  2.1838  0.2384
  880MOL0     H16112   7.302   0.866   6.925  1.6545  0.6824  1.8055
  880MOL0     H16113   7.015   0.946   6.782 -0.8428  1.0396 -0.1196
  880MOL0     H16114   6.795   0.811   6.754  0.0864 -0.9797  0.0604
  880MOL0     H16115   6.709   0.934   6.854  0.1666  0.5850 -0.6213
  880MOL0     H16116   6.599   0.697   6.859  0.2881 -4.2711 -1.7491
  880MOL0     H16117   6.671   0.734   7.016  0.2435  1.7243 -0.3185
  880MOL0     H16118   6.794   0.575   6.795 -1.5855 -1.3311 -0.8868
  880MOL0     H16119   6.880   0.592   6.950 -0.3974 -3.4098  0.6875
  880MOL0     H16120   6.706   0.458   7.065  2.6859  1.9003  0.1401
  880MOL0     H16121   6.763   0.368   6.928 -0.6741  0.6199 -1.8112
  880MOL0     H16122   6.529   0.437   7.173  0.9117  1.4782 -0.2376
  880MOL0     H16123   6.310   0.495   7.265  1.9884  1.2027  0.6299
  880MOL0     H16124   5.774   0.553   6.925 -0.8865  2.8154 -2.5920
  880MOL0     H16125   5.541   0.635   7.005  0.4658  0.8023 -0.9548
  880MOL0     H16126   5.342   0.725   7.375 -0.8682 -1.2500 -3.5393
  880MOL0     H16127   5.503   0.775   7.438  0.8992  1.9583 -1.5049
  880MOL0     H16128   5.585   0.529   7.377  0.6162  1.8827  2.3441
  880MOL0     H16129   5.416   0.498   7.330 -0.7363  4.2985 -2.4296
  880MOL0     H16130   5.357   0.475   7.553  1.0885 -1.4710  2.8274
  880MOL0     H16131   5.460   0.617   7.605  1.2375 -0.4527  1.2610
  880MOL0     H16132   5.576   0.345   7.535 -3.1041  0.2427 -1.3045
  880MOL0     H16133   5.670   0.483   7.598  2.5692 -2.8634  2.5786
  880MOL0     H16134   5.454   0.332   7.749  0.0197  0.8680 -1.9107
  880MOL0     H16135   5.514   0.498   7.789  1.9709  1.1003 -1.9287
  880MOL0     H16136   5.720   0.288   7.747  2.1619  0.9376  2.2181
  880MOL0     H16137   5.620   0.260   7.884 -1.2338 -1.6640 -3.3236
  880MOL0     H16138   5.743   0.539   7.831 -0.5458  0.1347  1.1652
  880MOL0     H16139   5.683   0.465   7.976  1.7282 -1.2020  1.3945
  880MOL0     H16140   5.947   0.392   7.827  0.2326  2.2007 -0.7543
  880MOL0     H16141   5.896   0.334   8.000 -1.5446  1.4929  1.0038
  880MOL0     H16142   5.702   0.754   7.374 -2.3547 -2.9845  0.3914
  880MOL0     H16143   5.934   0.709   7.288 -0.6094  2.4838 -0.7841
  880MOL0     H16144   6.161   0.557   6.865  0.5670  0.6279 -1.0130
  880MOL0     H16145   6.369   0.534   6.777  1.9825 -0.0570 -0.1474
  880MOL0     H16146   8.171   1.456   6.912 -1.2974 -0.2325  1.1992
  880MOL0     H16147   8.387   1.566   6.941  0.5806 -0.0805  1.1274
  880MOL0     H16148   8.792   1.748   7.381  0.1800  3.0119 -1.1096
  880MOL0     H16149   9.017   1.788   7.315 -2.8341  2.6718 -1.6448
  880MOL0     H16150   9.348   1.727   7.130  0.7050  0.4174  0.6009
  880MOL0     H16151   9.236   1.777   7.252  1.0674  1.3489 -0.5670
  880MOL0     H16152   9.177   1.811   6.961 -0.0164 -0.1710  0.1056
  880MOL0     H16153   9.096   1.883   7.098 -1.4738 -0.3680 -1.7016
  880MOL0     H16154   9.318   1.984   6.965 -0.8606 -0.6691 -0.5873
  880MOL0     H16155   9.397   1.937   7.118  1.0261  3.9451  0.7305
  880MOL0     H16156   9.308   2.175   7.124  0.2542  0.1388 -0.6762
  880MOL0     H16157   9.142   2.103   7.138 -1.0405 -1.9047  0.1385
  880MOL0     H16158   9.250   2.024   7.518  0.0017 -4.2035 -0.7320
  880MOL0     H16159   9.010   1.468   7.027 -0.8862 -2.0415  1.7820
  880MOL0     H16160   8.783   1.438   7.069 -0.5524  0.9824 -0.8361
  881MOL0     O16161  10.359   1.010   4.104  0.5808  0.0604  0.4600
  881MOL0     C16162  10.341   1.087   4.005  0.9027 -0.0756  0.3692
  881MOL0     O16163  10.244   1.186   3.993 -0.3078 -0.2609  0.3533
  881MOL0     C16164  10.152   1.204   4.094  0.1868 -0.6428  0.2098
  881MOL0     C16165  10.100   1.110   4.181 -0.7044 -0.0698  0.9682
  881MOL0     C16166  10.005   1.149   4.278 -0.4929  0.0416 -0.1728
  881MOL0     C16167   9.967   1.283   4.298 -0.7325  0.7116 -0.9655
  881MOL0     O16168   9.876   1.306   4.395  0.4639 -0.0419  0.6282
  881MOL0     C16169   9.760   1.224   4.403  0.5575 -0.2702 -0.5781
  881MOL0     C16170   9.648   1.294   4.462  1.0774 -0.0943 -0.2465
  881MOL0     C16171   9.532   1.191   4.482  0.1061 -0.3225 -0.8804
  881MOL0     C16172   9.403   1.264   4.538  0.4192  0.7331  0.1833
  881MOL0     C16173   9.287   1.175   4.579  0.3638  0.6460 -1.3890
  881MOL0     C16174   9.143   1.231   4.575  0.7227 -0.5980  0.1859
  881MOL0     C16175   9.026   1.140   4.620  0.4963 -0.5325 -0.1314
  881MOL0     C16176   9.051   1.076   4.752  0.6850  0.3397  0.0330
  881MOL0     N16177   8.933   1.060   4.832  0.1700  0.3840 -0.2684
  881MOL0     C16178   8.862   1.154   4.900  1.2193 -0.0655 -0.9723
  881MOL0     C16179   8.743   1.085   4.926 -0.5029 -0.4961 -0.0301
  881MOL0     C16180   8.626   1.150   5.003  0.3126  0.3999  0.4078
  881MOL0     C16181   8.503   1.060   4.980 -1.1145  0.3840  0.6591
  881MOL0     C16182   8.380   1.091   5.062 -0.4202  0.0523  0.0416
  881MOL0     C16183   8.285   0.972   5.048  1.2498  0.4021 -1.4747
  881MOL0     O16184   8.161   1.011   5.114 -0.2241  0.4628 -0.4748
  881MOL0     C16185   8.060   1.076   5.048  0.4432 -0.2266 -0.1910
  881MOL0     C16186   8.064   1.127   4.918  0.9530 -0.5157 -0.3416
  881MOL0     C16187   7.954   1.195   4.862  0.0321 -0.0352  0.6572
  881MOL0     C16188   7.845   1.231   4.940  0.6832  0.3300 -0.2423
  881MOL0     C16189   7.739   1.320   4.900  0.6128 -0.9562 -0.3477
  881MOL0     O16190   7.752   1.374   4.777  0.2252  0.1029  0.6125
  881MOL0     C16191   7.647   1.444   4.724 -0.1165 -0.0809 -0.3944
  881MOL0     C16192   7.511   1.402   4.721 -0.0827  0.4513  0.0977
  881MOL0     C16193   7.413   1.481   4.658  0.1415  0.8248 -0.7505
  881MOL0     C16194   7.443   1.600   4.587  0.3592  0.2266  0.5449
  881MOL0     O16195   7.350   1.665   4.501  1.0076 -0.5221 -0.6085
  881MOL0     C16196   7.212   1.614   4.486 -0.2372  0.0107 -0.1099
  881MOL0     C16197   7.132   1.714   4.392 -0.3684  0.4149 -0.2418
  881MOL0     C16198   7.181   1.713   4.248  0.3285  0.4348  0.0842
  881MOL0     C16199   7.123   1.831   4.159 -0.2371 -0.0429 -0.5952
  881MOL0     C16200   7.166   1.838   4.008  0.5382 -0.1069  0.3576
  881MOL0     C16201   7.323   1.831   3.965 -0.1304 -0.4385 -0.4643
  881MOL0     C16202   7.337   1.883   3.823  0.2510 -0.6325  0.4220
  881MOL0     C16203   7.252   1.804   3.726  0.6101 -1.2795  0.0787
  881MOL0    Cl16204   7.327   1.644   3.710 -0.0624  0.1403 -0.6571
  881MOL0     C16205   7.580   1.639   4.590 -0.1250  0.0148  0.4863
  881MOL0     C16206   7.681   1.563   4.657  0.5458 -0.4598  0.1007
  881MOL0     O16207   7.648   1.345   4.981  0.0498  0.3366 -1.0796
  881MOL0     C16208   7.846   1.189   5.073  0.3645  1.3322 -0.9955
  881MOL0     C16209   7.948   1.113   5.127 -0.0636  0.4742 -0.4772
  881MOL0     N16210   8.752   0.958   4.871 -0.6901  0.3165 -0.3131
  881MOL0     N16211   8.865   0.942   4.815 -0.8591  0.0348 -0.5133
  881MOL0     C16212  10.029   1.385   4.225  0.1889  0.1405 -0.4432
  881MOL0     C16213  10.121   1.337   4.124 -0.1110 -0.9174 -0.3869
  881MOL0     C16214  10.431   1.067   3.887  0.0205 -0.1833 -0.3849
  881MOL0     C16215  10.421   1.157   3.783  0.3986  0.2059  0.1086
  881MOL0     C16216  10.493   1.139   3.663 -0.4261 -0.1758  0.0549
  881MOL0     C16217  10.585   1.032   3.648  0.2835 -0.2842 -0.0801
  881MOL0     O16218  10.676   1.023   3.542  0.4785  0.4988 -0.9234
  881MOL0     C16219  10.667   1.120   3.431 -0.0637 -0.2195 -0.7402
  881MOL0     C16220  10.792   1.094   3.356  0.3189  0.6431  0.1828
  881MOL0     C16221  10.790   1.135   3.210  0.2860 -0.4493  0.2764
  881MOL0     C16222  10.929   1.151   3.145 -1.1466 -0.1016  0.0270
  881MOL0     C16223  10.911   1.190   3.004 -0.0200  0.4733  0.2120
  881MOL0     C16224  10.893   1.206   2.882  0.4947  0.4985 -0.3722
  881MOL0     C16225  10.592   0.940   3.752  0.0274  0.6978  0.5984
  881MOL0     C16226  10.518   0.961   3.872  0.0081  0.8476 -0.9868
  881MOL0     H16227  10.117   1.006   4.151  1.5973  0.5809 -0.2466
  881MOL0     H16228   9.955   1.064   4.324 -2.2831  1.4713  0.6368
  881MOL0     H16229   9.787   1.134   4.460  0.9202 -0.7998 -1.5570
  881MOL0     H16230   9.718   1.184   4.310  0.5275  0.0014 -0.6826
  881MOL0     H16231   9.610   1.375   4.399  1.0354 -2.5252 -3.6491
  881MOL0     H16232   9.680   1.333   4.559 -4.4034  1.6909  1.2393
  881MOL0     H16233   9.561   1.121   4.561  0.4131  0.2909 -0.4399
  881MOL0     H16234   9.505   1.133   4.393  1.5890 -0.5351 -1.2062
  881MOL0     H16235   9.423   1.325   4.627 -1.2027 -2.5577  3.0308
  881MOL0     H16236   9.362   1.329   4.460  2.0903 -0.0031 -1.3532
  881MOL0     H16237   9.310   1.151   4.684  0.6475  4.4565 -0.4388
  881MOL0     H16238   9.289   1.083   4.521 -1.2395 -0.9168  0.8204
  881MOL0     H16239   9.117   1.253   4.471 -0.7138  1.9131  0.9754
  881MOL0     H16240   9.129   1.326   4.627 -0.8811 -1.2721  1.0595
  881MOL0     H16241   8.938   1.204   4.633 -0.5348 -1.8951 -0.1210
  881MOL0     H16242   9.006   1.057   4.551 -0.7577 -0.6165  0.3035
  881MOL0     H16243   9.119   1.132   4.818 -0.1856 -1.6718  2.8093
  881MOL0     H16244   9.103   0.980   4.746  0.3116  0.1620 -0.3977
  881MOL0     H16245   8.885   1.259   4.912  0.2608  0.7258 -4.8025
  881MOL0     H16246   8.598   1.254   4.982 -3.4102 -0.6324 -0.4073
  881MOL0     H16247   8.642   1.142   5.111 -0.5144 -0.6162  0.4662
  881MOL0     H16248   8.526   0.955   4.999 -4.9763 -1.3501 -2.6484
  881MOL0     H16249   8.476   1.057   4.873  1.4021  1.4053 -0.0759
  881MOL0     H16250   8.411   1.096   5.166 -1.7634  1.2928  0.4140
  881MOL0     H16251   8.334   1.183   5.024 -1.0118  0.1892  1.0666
  881MOL0     H16252   8.324   0.882   5.097 -1.8077 -1.9813 -3.0483
  881MOL0     H16253   8.271   0.932   4.947  0.9638  2.8514 -2.4661
  881MOL0     H16254   8.152   1.107   4.858  2.5988  2.0682  1.0220
  881MOL0     H16255   7.946   1.229   4.759  1.1363 -0.0359  0.5611
  881MOL0     H16256   7.478   1.305   4.756 -0.8599 -0.6489 -3.2851
  881MOL0     H16257   7.310   1.446   4.659  1.4862 -3.7881 -0.7366
  881MOL0     H16258   7.158   1.611   4.581 -0.7801 -1.7493 -0.4328
  881MOL0     H16259   7.217   1.513   4.444  1.4072  1.3578 -3.5518
  881MOL0     H16260   7.137   1.809   4.445 -3.1974  0.0433  0.8489
  881MOL0     H16261   7.028   1.683   4.400 -0.0603 -0.3976  0.8579
  881MOL0     H16262   7.161   1.614   4.208 -0.4611 -0.4266  2.4418
  881MOL0     H16263   7.289   1.726   4.251  0.4546 -0.5425  0.0600
  881MOL0     H16264   7.016   1.812   4.168 -0.2281  0.4377  0.7855
  881MOL0     H16265   7.151   1.923   4.213  4.5054 -1.4745 -0.1043
  881MOL0     H16266   7.110   1.917   3.957 -1.1822 -0.8251  1.0590
  881MOL0     H16267   7.126   1.740   3.980  0.2333  0.2663 -0.5429
  881MOL0     H16268   7.354   1.727   3.981 -0.6690 -0.5027  0.1994
  881MOL0     H16269   7.390   1.900   4.017 -0.5742 -1.3080  1.3316
  881MOL0     H16270   7.311   1.989   3.820 -1.3253 -1.0045 -0.7103
  881MOL0     H16271   7.443   1.882   3.797  0.8540  0.1491  2.6494
  881MOL0     H16272   7.239   1.858   3.632 -1.6878  1.8482  1.9820
  881MOL0     H16273   7.148   1.794   3.761 -0.5430  3.8431 -1.1153
  881MOL0     H16274   7.600   1.730   4.535 -3.2659 -0.7559 -2.2266
  881MOL0     H16275   7.783   1.598   4.663  1.0845 -1.9232 -0.2905
  881MOL0     H16276   7.764   1.225   5.135 -0.9458  0.1334 -1.9794
  881MOL0     H16277   7.940   1.084   5.231 -2.0989  0.7324 -0.5256
  881MOL0     H16278   9.981   1.481   4.242 -0.2310 -0.3386  1.2558
  881MOL0     H16279  10.175   1.409   4.063  1.8423 -0.3125  1.9121
  881MOL0     H16280  10.349   1.238   3.784 -0.8685 -0.8554  1.7282
  881MOL0     H16281  10.463   1.202   3.580 -1.2022 -0.6384 -0.0228
  881MOL0     H16282  10.648   1.225   3.457 -3.2350 -0.1863 -2.6914
  881MOL0     H16283  10.586   1.090   3.364  0.4929 -0.5069 -1.2929
  881MOL0     H16284  10.867   1.158   3.403 -1.8954  2.7614  1.0072
  881MOL0     H16285  10.810   0.986   3.363 -1.7855  0.1607 -0.9582
  881MOL0     H16286  10.747   1.236   3.215  2.2596  0.4764 -0.2967
  881MOL0     H16287  10.723   1.069   3.154  0.2906  0.7410 -1.2159
  881MOL0     H16288  10.998   1.226   3.185 -0.5333 -0.4238 -0.4140
  881MOL0     H16289  10.991   1.061   3.156  2.5712  2.0754 -1.1059
  881MOL0     H16290  10.875   1.217   2.777  3.2673  0.8439 -0.8909
  881MOL0     H16291  10.651   0.853   3.725 -2.3335 -0.8896  0.2770
  881MOL0     H16292  10.531   0.897   3.959  2.1885  0.9237 -1.1994
  882MOL0     O16293   8.849   6.601   5.837 -0.5126  0.1806  0.3009
  882MOL0     C16294   8.885   6.708   5.787 -0.0594  1.8517  0.0979
  882MOL0     O16295   8.803   6.790   5.717 -0.0925 -0.4186 -0.0997
  882MOL0     C16296   8.705   6.742   5.629  0.8498  0.6909  0.5332
  882MOL0     C16297   8.624   6.621   5.650  0.4848  0.1694 -0.0294
  882MOL0     C16298   8.508   6.592   5.577  0.2169  0.5412 -0.4976
  882MOL0     C16299   8.470   6.671   5.470 -0.7075  0.0319  0.8083
  882MOL0     O16300   8.363   6.652   5.388  0.0113 -0.4444  0.0979
  882MOL0     C16301   8.369   6.529   5.310 -0.4586 -0.3309 -0.3415
  882MOL0     C16302   8.261   6.520   5.208 -0.1814  0.7134  0.7750
  882MOL0     C16303   8.283   6.405   5.106  0.2668  0.0628  0.4833
  882MOL0     C16304   8.162   6.397   5.007 -0.4656  0.0083  0.3288
  882MOL0     C16305   8.144   6.520   4.899  0.0751  1.0860  0.6538
  882MOL0     C16306   8.053   6.482   4.785  0.7827  0.5652  0.2059
  882MOL0     C16307   7.914   6.444   4.833 -0.5192 -0.2795  0.5336
  882MOL0     C16308   7.845   6.563   4.907 -0.0252 -0.8310  0.7421
  882MOL0     N16309   7.709   6.549   4.930  0.1892 -0.7222 -0.2960
  882MOL0     C16310   7.615   6.645   4.939  0.3131 -0.0055 -0.3723
  882MOL0     C16311   7.494   6.591   4.945  0.5433  0.0177 -0.7050
  882MOL0     C16312   7.354   6.654   4.972 -0.2415  0.3147  0.1303
  882MOL0     C16313   7.241   6.553   4.951 -0.8051  0.7103 -0.2535
  882MOL0     C16314   7.114   6.615   4.995  0.4679  0.5322  0.4023
  882MOL0     C16315   6.986   6.545   4.961 -0.5548  0.0420  0.4226
  882MOL0     O16316   6.877   6.632   5.003 -0.4838  0.2138  0.0787
  882MOL0     C16317   6.773   6.653   4.909 -0.4986 -0.2714 -0.1080
  882MOL0     C16318   6.725   6.781   4.919  0.6861  0.3297 -0.3282
  882MOL0     C16319   6.616   6.813   4.838  0.3312  0.0681  0.0265
  882MOL0     C16320   6.557   6.711   4.761 -0.8123 -0.7202 -0.0302
  882MOL0     C16321   6.440   6.743   4.671  0.3095  0.7317  0.3925
  882MOL0     O16322   6.394   6.869   4.682 -0.4272  0.2267  0.5032
  882MOL0     C16323   6.292   6.904   4.598  1.1435  0.8364 -0.2471
  882MOL0     C16324   6.177   6.829   4.574 -0.5984 -0.3110 -0.4191
  882MOL0     C16325   6.082   6.866   4.476  0.4321  0.2690  0.0295
  882MOL0     C16326   6.104   6.988   4.401 -0.1540  1.2517  0.5214
  882MOL0     O16327   6.037   7.031   4.295 -0.0312  0.8812  0.4812
  882MOL0     C16328   5.936   6.933   4.256 -0.1665  0.2467  0.3149
  882MOL0     C16329   5.868   6.975   4.122  0.5145  0.1657  0.3814
  882MOL0     C16330   5.757   6.872   4.096 -0.0110  0.1134  0.1041
  882MOL0     C16331   5.697   6.907   3.963  0.2211 -0.0773 -0.6247
  882MOL0     C16332   5.584   6.797   3.942 -0.2345 -0.1710 -0.1714
  882MOL0     C16333   5.521   6.817   3.803 -0.6788 -0.2717 -0.1730
  882MOL0     C16334   5.379   6.753   3.808  0.1330  0.8134  0.8488
  882MOL0     C16335   5.282   6.796   3.699  0.5029  0.5161 -0.0471
  882MOL0    Cl16336   5.128   6.705   3.702 -0.6247  0.3788 -0.1573
  882MOL0     C16337   6.211   7.068   4.436  0.1539 -0.3766  0.3496
  882MOL0     C16338   6.296   7.023   4.530 -0.4857  0.7542  0.0317
  882MOL0     O16339   6.406   6.655   4.581  0.2786 -0.2241 -0.2887
  882MOL0     C16340   6.612   6.583   4.759 -0.4569  0.0368  0.6265
  882MOL0     C16341   6.732   6.557   4.822  0.8990  0.9566  0.9257
  882MOL0     N16342   7.523   6.452   4.927  0.6144  0.5750  0.1006
  882MOL0     N16343   7.645   6.434   4.933  0.6302  0.7816 -0.8820
  882MOL0     C16344   8.548   6.788   5.453  0.0999 -0.2326  0.2333
  882MOL0     C16345   8.658   6.827   5.528 -0.3157  1.0179 -0.8357
  882MOL0     C16346   9.015   6.756   5.821 -0.2294  0.1114 -0.7195
  882MOL0     C16347   9.051   6.889   5.805  0.2760 -0.4920  0.5278
  882MOL0     C16348   9.167   6.939   5.858 -0.2811  0.1981 -0.0902
  882MOL0     C16349   9.268   6.853   5.905  0.2773  0.6310  0.2054
  882MOL0     O16350   9.384   6.918   5.937  0.1713  0.4229  0.1049
  882MOL0     C16351   9.502   6.843   5.982  0.0445 -0.5596  0.0633
  882MOL0     C16352   9.585   6.787   5.860 -0.0297 -0.1569  0.2571
  882MOL0     C16353   9.709   6.860   5.817  0.0632 -0.3000 -1.2077
  882MOL0     C16354   9.788   6.794   5.695  0.3207  0.3650 -0.5249
  882MOL0     C16355   9.883   6.886   5.650  0.5120  0.4032  0.6815
  882MOL0     C16356   9.962   6.973   5.616 -0.6610  0.1620  0.9626
  882MOL0     C16357   9.243   6.718   5.900 -0.1543 -0.0459 -0.0803
  882MOL0     C16358   9.115   6.668   5.860 -0.2757  0.0660 -0.0516
  882MOL0     H16359   8.643   6.549   5.729 -4.9052  0.1186  1.6927
  882MOL0     H16360   8.453   6.503   5.604 -0.3357  0.6916 -1.1189
  882MOL0     H16361   8.358   6.445   5.379  0.4911  0.9420  1.4336
  882MOL0     H16362   8.462   6.509   5.256  0.9148 -0.1933  1.8407
  882MOL0     H16363   8.253   6.616   5.157 -1.7929  1.5852  2.5066
  882MOL0     H16364   8.161   6.507   5.252 -1.2856  0.8677 -1.5352
  882MOL0     H16365   8.298   6.307   5.152 -0.3384 -1.6781 -2.7055
  882MOL0     H16366   8.374   6.436   5.053  0.4337 -1.2798 -0.0605
  882MOL0     H16367   8.187   6.313   4.942 -2.5675 -1.2756  1.0801
  882MOL0     H16368   8.069   6.378   5.062  0.8426 -0.6027  2.4704
  882MOL0     H16369   8.236   6.541   4.844  0.7264 -2.7027  0.0284
  882MOL0     H16370   8.109   6.615   4.940  0.6928  1.1997  0.9364
  882MOL0     H16371   8.110   6.413   4.722  0.5705  2.1271 -1.8079
  882MOL0     H16372   8.042   6.563   4.712 -0.4550 -0.7335 -1.1000
  882MOL0     H16373   7.856   6.406   4.749 -1.7349  0.1881  1.1411
  882MOL0     H16374   7.922   6.359   4.902 -0.3293 -1.5349 -0.9912
  882MOL0     H16375   7.851   6.645   4.834  0.5993 -2.5864 -1.2751
  882MOL0     H16376   7.903   6.595   4.994  1.9478  0.5865 -0.9869
  882MOL0     H16377   7.652   6.745   4.960  0.1413 -0.1854  0.8907
  882MOL0     H16378   7.349   6.738   4.903 -1.7141  0.1268 -0.0133
  882MOL0     H16379   7.340   6.692   5.074 -2.5064  1.3407 -0.5037
  882MOL0     H16380   7.254   6.464   5.014 -3.0171  1.1316  0.9190
  882MOL0     H16381   7.226   6.522   4.848  0.5546  4.3450 -1.7131
  882MOL0     H16382   7.119   6.612   5.104 -0.1389 -0.6315  0.4097
  882MOL0     H16383   7.108   6.721   4.969 -5.4667  1.2895  3.3640
  882MOL0     H16384   6.987   6.441   4.992 -0.5825 -0.9312 -2.5030
  882MOL0     H16385   6.989   6.540   4.851 -1.4090 -1.4313  0.4436
  882MOL0     H16386   6.784   6.856   4.969  0.7143  1.0483 -1.4068
  882MOL0     H16387   6.573   6.913   4.837 -0.5510 -0.2857 -1.5723
  882MOL0     H16388   6.165   6.730   4.617 -2.2678 -0.3659 -0.9393
  882MOL0     H16389   6.008   6.787   4.465  0.7646 -0.1569  0.7819
  882MOL0     H16390   5.857   6.934   4.332  0.3970  0.4741  0.9174
  882MOL0     H16391   5.978   6.833   4.244 -0.1374 -0.1828  3.1486
  882MOL0     H16392   5.935   6.983   4.036 -0.2574 -0.9797 -0.3525
  882MOL0     H16393   5.825   7.074   4.133  0.1926 -0.1547  2.3333
  882MOL0     H16394   5.695   6.891   4.184 -1.7253 -0.6665 -0.8827
  882MOL0     H16395   5.786   6.767   4.100  0.1160  0.0405 -1.6710
  882MOL0     H16396   5.657   7.008   3.970 -1.4936 -0.7927  0.6444
  882MOL0     H16397   5.773   6.907   3.884 -1.3180 -0.3257 -2.1525
  882MOL0     H16398   5.514   6.809   4.025  0.4910  1.2191  0.2674
  882MOL0     H16399   5.632   6.699   3.944  1.2443  0.5076  2.0882
  882MOL0     H16400   5.583   6.775   3.724  0.4940  0.7971  0.1536
  882MOL0     H16401   5.504   6.923   3.784  0.8743 -0.4510 -3.1253
  882MOL0     H16402   5.392   6.645   3.812  0.0204  0.7720  0.1336
  882MOL0     H16403   5.336   6.787   3.903  0.1837  3.3869  0.0383
  882MOL0     H16404   5.339   6.781   3.607  1.3129 -0.1051  0.5337
  882MOL0     H16405   5.255   6.899   3.725 -1.6490 -0.0655  0.2012
  882MOL0     H16406   6.231   7.165   4.391  2.3443 -0.5302  0.8521
  882MOL0     H16407   6.376   7.094   4.546  0.7253 -0.6667  0.5391
  882MOL0     H16408   6.581   6.511   4.685  3.2085  3.1278 -4.6222
  882MOL0     H16409   6.785   6.464   4.809  2.9926  2.0787  0.9584
  882MOL0     H16410   8.541   6.850   5.364 -1.2139 -2.4870 -1.3279
  882MOL0     H16411   8.710   6.922   5.537 -2.4663  2.0227  4.7937
  882MOL0     H16412   8.982   6.959   5.759  2.4038  1.4485  0.1150
  882MOL0     H16413   9.203   7.041   5.851  1.0528 -0.2162  0.5427
  882MOL0     H16414   9.482   6.753   6.042  2.9997 -0.8028  0.8763
  882MOL0     H16415   9.574   6.896   6.044  0.2565  0.7679 -1.2585
  882MOL0     H16416   9.614   6.684   5.882  1.1155  0.5068  2.1564
  882MOL0     H16417   9.530   6.792   5.766  1.9329  1.3158 -0.9155
  882MOL0     H16418   9.772   6.843   5.905 -0.6793 -0.2499 -0.6529
  882MOL0     H16419   9.670   6.960   5.797 -0.1493 -0.0312  0.3863
  882MOL0     H16420   9.833   6.699   5.723  0.7040  0.4325 -0.9199
  882MOL0     H16421   9.711   6.777   5.619 -0.5821  0.3871  0.3557
  882MOL0     H16422  10.031   7.051   5.593  0.4460 -0.5671  1.7141
  882MOL0     H16423   9.333   6.661   5.922  1.4487  2.5771  0.5354
  882MOL0     H16424   9.093   6.562   5.861  2.3753 -0.5650  0.8293
  883MOL0     O16425   7.455   9.914   9.362  0.2476 -0.0919 -0.5660
  883MOL0     C16426   7.462   9.979   9.262  0.6877  0.1371  0.1046
  883MOL0     O16427   7.358  10.034   9.190  0.2851 -0.0397 -1.3675
  883MOL0     C16428   7.234  10.032   9.244  0.3396  0.7912 -0.4550
  883MOL0     C16429   7.203  10.066   9.381 -0.0797 -0.4476 -0.0774
  883MOL0     C16430   7.071  10.042   9.433 -0.6491 -0.4951 -0.1937
  883MOL0     C16431   6.972  10.012   9.350 -0.1539  0.0947  0.2125
  883MOL0     O16432   6.846   9.996   9.400  0.6444  1.1320 -0.3525
  883MOL0     C16433   6.745   9.925   9.327 -0.3329  0.3909  0.7039
  883MOL0     C16434   6.615   9.947   9.407 -0.0238 -0.9261  0.0557
  883MOL0     C16435   6.477   9.863   9.376 -0.2404 -0.1950 -0.0352
  883MOL0     C16436   6.508   9.720   9.416 -0.0075  0.4537 -0.1239
  883MOL0     C16437   6.374   9.635   9.433  0.5611 -0.4663  0.0095
  883MOL0     C16438   6.238   9.700   9.381  0.0115 -0.9485  0.0161
  883MOL0     C16439   6.128   9.606   9.426  0.1299 -0.5035 -0.4164
  883MOL0     C16440   6.079   9.637   9.568 -0.1476 -0.2387 -0.5198
  883MOL0     N16441   5.968   9.552   9.620  0.0436 -0.3645 -0.0226
  883MOL0     C16442   5.940   9.517   9.750 -0.1133  0.2585  0.6655
  883MOL0     C16443   5.819   9.452   9.749 -0.3905 -0.6953  0.2058
  883MOL0     C16444   5.780   9.365   9.862  0.1365  0.0004  0.3502
  883MOL0     C16445   5.661   9.273   9.832 -0.9009 -0.0985  0.2301
  883MOL0     C16446   5.700   9.143   9.757  0.3230  0.0255  0.0004
  883MOL0     C16447   5.561   9.076   9.730 -0.6194  0.1978  0.1382
  883MOL0     O16448   5.568   8.931   9.718 -0.3414  0.0736  0.5962
  883MOL0     C16449   5.448   8.865   9.727  0.6247 -0.8696 -0.6239
  883MOL0     C16450   5.341   8.899   9.642  0.6781  0.0637 -0.6361
  883MOL0     C16451   5.222   8.837   9.654  0.0739 -0.2407  0.1520
  883MOL0     C16452   5.205   8.736   9.748  0.0516  0.3239 -0.0171
  883MOL0     C16453   5.081   8.656   9.749 -0.9047 -0.3294  0.3312
  883MOL0     O16454   4.991   8.672   9.645  0.9357  0.3789 -0.3556
  883MOL0     C16455   4.880   8.592   9.648  0.4145 -0.1689 -0.1355
  883MOL0     C16456   4.890   8.455   9.613  0.2049 -1.1963  1.1943
  883MOL0     C16457   4.782   8.375   9.634  0.0841 -0.0951  0.3230
  883MOL0     C16458   4.657   8.432   9.666 -0.3084 -0.2579  0.4823
  883MOL0     O16459   4.554   8.337   9.669 -0.0441 -0.3400 -0.2604
  883MOL0     C16460   4.422   8.383   9.699 -0.2308  0.2752 -0.0141
  883MOL0     C16461   4.329   8.264   9.680  0.4781 -0.4761 -0.0632
  883MOL0     C16462   4.187   8.321   9.704 -0.4864  0.9637  0.3614
  883MOL0     C16463   4.084   8.204   9.699  0.0095  0.4593  0.1077
  883MOL0     C16464   3.933   8.229   9.718  0.7264  0.7986  0.1167
  883MOL0     C16465   3.899   8.277   9.852  0.4788  0.4002 -0.6518
  883MOL0     C16466   3.748   8.257   9.888 -0.6987  0.9607  0.1083
  883MOL0     C16467   3.649   8.340   9.804  0.5712  0.3168 -0.0904
  883MOL0    Cl16468   3.709   8.497   9.788  0.5868  0.0676  0.5790
  883MOL0     C16469   4.641   8.572   9.678  0.0459  0.7435  0.6403
  883MOL0     C16470   4.753   8.650   9.675  0.3490  0.0226 -1.0776
  883MOL0     O16471   5.057   8.593   9.849  0.1354  0.6129  0.6833
  883MOL0     C16472   5.309   8.702   9.837 -0.5612 -0.3649  0.5436
  883MOL0     C16473   5.429   8.774   9.826 -0.7814 -0.5735 -0.2992
  883MOL0     N16474   5.769   9.452   9.618  0.4626  0.0988 -1.0365
  883MOL0     N16475   5.855   9.527   9.545  0.4325 -0.9467 -0.3034
  883MOL0     C16476   6.998  10.010   9.211 -0.4953 -0.1473  0.4983
  883MOL0     C16477   7.128  10.003   9.166  0.6187 -0.1934 -0.0868
  883MOL0     C16478   7.594  10.006   9.196  0.0511  0.6241 -0.4726
  883MOL0     C16479   7.605  10.082   9.085 -0.2055  0.7759  0.4328
  883MOL0     C16480   7.733  10.121   9.040 -0.8963 -1.2335  1.1976
  883MOL0     C16481   7.855  10.068   9.097 -0.3318  0.3881 -0.3304
  883MOL0     O16482   7.973  10.079   9.040 -0.2759  0.2024  0.3525
  883MOL0     C16483   8.093  10.096   9.119 -0.7167  0.3191 -0.0445
  883MOL0     C16484   8.192   9.997   9.068 -0.6598 -0.1252 -0.2229
  883MOL0     C16485   8.205  10.001   8.919 -0.8563 -0.1405 -0.4238
  883MOL0     C16486   8.312   9.904   8.860 -1.0666  0.1036  0.5356
  883MOL0     C16487   8.444   9.919   8.921  0.5275 -0.3700 -0.0827
  883MOL0     C16488   8.550   9.947   8.968 -0.4755 -1.4138 -0.6817
  883MOL0     C16489   7.843  10.007   9.228  0.5514 -0.2494  0.6006
  883MOL0     C16490   7.714   9.965   9.268 -0.7807 -0.5072  0.0271
  883MOL0     H16491   7.289  10.088   9.444  0.6259 -1.3139 -0.7112
  883MOL0     H16492   7.049  10.055   9.538  0.5902 -2.1949  0.3145
  883MOL0     H16493   6.774   9.822   9.304  3.3397  0.6119  3.5901
  883MOL0     H16494   6.716   9.966   9.229  0.8777  1.4793  0.7812
  883MOL0     H16495   6.591  10.054   9.409  0.7901 -0.7238 -0.4468
  883MOL0     H16496   6.650   9.919   9.507  1.8830 -0.5479 -0.4722
  883MOL0     H16497   6.446   9.866   9.271 -1.5178  2.0627  0.3491
  883MOL0     H16498   6.401   9.897   9.447 -0.3288  0.3634 -0.3875
  883MOL0     H16499   6.553   9.665   9.333 -0.6393  0.7110 -0.6510
  883MOL0     H16500   6.578   9.714   9.500  1.0846 -0.9398 -1.0812
  883MOL0     H16501   6.362   9.614   9.540  0.0129 -1.1245 -0.1712
  883MOL0     H16502   6.392   9.540   9.381 -0.5223  0.1557 -1.5613
  883MOL0     H16503   6.255   9.706   9.273  3.1943 -0.8240  0.4389
  883MOL0     H16504   6.214   9.803   9.409  2.5150 -0.3457  0.1682
  883MOL0     H16505   6.044   9.608   9.356  0.4864 -2.3611 -0.9561
  883MOL0     H16506   6.159   9.502   9.413 -0.9335 -0.8177 -0.5697
  883MOL0     H16507   6.045   9.741   9.556 -0.0630 -0.3339 -1.8172
  883MOL0     H16508   6.168   9.632   9.631 -0.3651 -0.3605 -0.2259
  883MOL0     H16509   6.000   9.523   9.840  0.8536 -0.5622  0.0971
  883MOL0     H16510   5.766   9.430   9.949  1.2317  1.0118 -0.1903
  883MOL0     H16511   5.866   9.302   9.888  0.2563  0.0744  0.1363
  883MOL0     H16512   5.584   9.326   9.775 -0.3427  0.4741 -0.0086
  883MOL0     H16513   5.613   9.235   9.923 -0.0978 -0.3634  0.5557
  883MOL0     H16514   5.746   9.164   9.660 -1.0207  0.4338 -0.5745
  883MOL0     H16515   5.752   9.074   9.823 -2.5294 -0.6581  1.7024
  883MOL0     H16516   5.527   9.122   9.637  0.6250  1.8891  0.4714
  883MOL0     H16517   5.492   9.104   9.809 -0.6757  1.1075 -0.2294
  883MOL0     H16518   5.347   8.940   9.542 -0.5062  1.3606 -0.2089
  883MOL0     H16519   5.145   8.871   9.586  2.3358  0.4927 -2.2506
  883MOL0     H16520   4.982   8.407   9.583  1.0198  0.2478  1.2892
  883MOL0     H16521   4.797   8.269   9.614 -0.3401 -0.0034 -0.5018
  883MOL0     H16522   4.395   8.461   9.627  0.1508  2.0458  1.6620
  883MOL0     H16523   4.402   8.425   9.798 -3.5594  0.7972 -0.7803
  883MOL0     H16524   4.356   8.189   9.755 -0.6776  0.2610  1.1265
  883MOL0     H16525   4.351   8.236   9.576 -2.3806 -0.3757 -0.7685
  883MOL0     H16526   4.161   8.391   9.624 -1.9587 -0.4816 -0.4940
  883MOL0     H16527   4.180   8.370   9.802  0.3675 -0.2154  1.0256
  883MOL0     H16528   4.080   8.175   9.593  0.5473  1.5458 -0.2211
  883MOL0     H16529   4.110   8.116   9.757 -1.0341  0.8699  1.2530
  883MOL0     H16530   3.878   8.137   9.695  3.6176 -0.8284 -0.8415
  883MOL0     H16531   3.895   8.310   9.655  0.5267  1.8869  1.5921
  883MOL0     H16532   3.908   8.381   9.884 -3.7699 -0.1401  3.4009
  883MOL0     H16533   3.956   8.221   9.927 -1.2007  0.9576  1.1257
  883MOL0     H16534   3.725   8.151   9.880  0.9577  0.6144 -0.4606
  883MOL0     H16535   3.716   8.269   9.992 -5.3266 -0.7202 -0.8880
  883MOL0     H16536   3.549   8.337   9.848  0.4039 -0.3803 -0.5226
  883MOL0     H16537   3.633   8.296   9.706 -2.3213  0.7493  0.0896
  883MOL0     H16538   4.545   8.618   9.703 -0.1329 -0.8886  3.3659
  883MOL0     H16539   4.735   8.755   9.695 -0.0777  0.3470 -2.9721
  883MOL0     H16540   5.290   8.638   9.922 -1.1671 -0.5915  0.2388
  883MOL0     H16541   5.506   8.752   9.899 -0.2384 -1.0678 -0.9998
  883MOL0     H16542   6.914  10.010   9.142 -1.7449  2.7866  1.8373
  883MOL0     H16543   7.151   9.979   9.062 -2.7063 -1.5996 -0.6011
  883MOL0     H16544   7.520  10.111   9.024  0.9966  1.0837 -1.1380
  883MOL0     H16545   7.751  10.176   8.948 -0.0849 -1.1826  1.3776
  883MOL0     H16546   8.070  10.102   9.225 -0.5253 -0.8214  0.0712
  883MOL0     H16547   8.143  10.187   9.085  1.7504 -2.3613 -4.6125
  883MOL0     H16548   8.291  10.004   9.115 -1.6365 -0.8644  2.0995
  883MOL0     H16549   8.155   9.897   9.091 -0.2203 -0.5180 -1.1765
  883MOL0     H16550   8.221  10.105   8.890 -2.2066  0.1432 -0.2092
  883MOL0     H16551   8.116   9.971   8.863 -0.3972 -1.4343 -0.4950
  883MOL0     H16552   8.285   9.799   8.850 -0.7188  0.0284  0.3589
  883MOL0     H16553   8.324   9.946   8.759 -2.0492 -2.0621 -0.5430
  883MOL0     H16554   8.647   9.957   9.011 -1.0238  2.1159  0.0450
  883MOL0     H16555   7.933   9.977   9.280  0.1609 -0.8302  0.9661
  883MOL0     H16556   7.697   9.909   9.360  0.1182 -0.5187  0.2007
  884MOL0     O16557   2.957  10.672   6.427  0.0583  0.1974  0.3854
  884MOL0     C16558   3.008  10.558   6.410 -0.2876  0.2840 -0.1666
  884MOL0     O16559   2.937  10.448   6.442 -0.4196  0.8292  0.1598
  884MOL0     C16560   2.801  10.459   6.486  0.1221 -0.4439  0.0572
  884MOL0     C16561   2.774  10.434   6.618  0.2883 -0.8652 -0.0520
  884MOL0     C16562   2.637  10.437   6.658 -0.6103  0.2132 -1.2315
  884MOL0     C16563   2.538  10.465   6.565  0.9024  0.1143  0.4456
  884MOL0     O16564   2.406  10.446   6.609 -0.5930  0.0085 -0.0278
  884MOL0     C16565   2.289  10.484   6.534 -0.6042 -0.5202  0.3742
  884MOL0     C16566   2.162  10.481   6.620  0.0067 -0.7476  0.8339
  884MOL0     C16567   2.040  10.523   6.528  0.5287 -0.3106 -0.2896
  884MOL0     C16568   1.913  10.547   6.601 -1.0236 -0.3856  0.5573
  884MOL0     C16569   1.827  10.650   6.530  0.8080 -0.5895  0.4552
  884MOL0     C16570   1.679  10.636   6.583 -0.1317  0.4725 -0.3960
  884MOL0     C16571   1.578  10.732   6.508  0.1600  1.0056 -1.1092
  884MOL0     C16572   1.438  10.698   6.540  1.3264  0.3700 -1.4342
  884MOL0     N16573   1.325  10.733   6.448  0.2436  0.4284  0.8029
  884MOL0     C16574   1.327  10.717   6.311  0.6116  0.2379 -0.1198
  884MOL0     C16575   1.205  10.763   6.270  0.6653 -0.4620  0.3628
  884MOL0     C16576   1.140  10.772   6.139  1.6045  0.9835 -0.1303
  884MOL0     C16577   1.121  10.914   6.075  0.0296 -0.0475 -0.2873
  884MOL0     C16578   1.071  10.908   5.936  0.8397 -0.0461 -0.2366
  884MOL0     C16579   0.935  10.843   5.909  0.8989 -1.1232  0.5249
  884MOL0     O16580   0.921  10.870   5.767  0.0310  0.1603 -0.8699
  884MOL0     C16581   0.794  10.874   5.713 -0.4994 -0.5736  0.1222
  884MOL0     C16582   0.769  10.931   5.585 -0.0246  0.6125 -0.7306
  884MOL0     C16583   0.645  10.945   5.532  0.1543  0.3580  0.0572
  884MOL0     C16584   0.535  10.899   5.613  0.3638 -0.8696 -0.7583
  884MOL0     C16585   0.394  10.901   5.565 -0.1931  0.0816 -0.2661
  884MOL0     O16586   0.296  10.843   5.650 -0.5725 -0.2299 -0.5526
  884MOL0     C16587   0.161  10.826   5.621  0.2522 -0.2800  1.1470
  884MOL0     C16588   0.112  10.802   5.482 -1.3562 -1.0116 -0.7400
  884MOL0     C16589  -0.016  10.786   5.452 -0.1291  0.2645  0.1606
  884MOL0     C16590  -0.110  10.784   5.557 -0.2717  0.5985  0.0238
  884MOL0     O16591  -0.245  10.750   5.532  0.4289  0.0827  0.7222
  884MOL0     C16592  -0.281  10.719   5.402 -0.6310  0.0810  0.7353
  884MOL0     C16593  -0.419  10.679   5.404  0.0394 -0.3350  0.5874
  884MOL0     C16594  -0.527  10.793   5.451  0.5734  0.7002 -0.4065
  884MOL0     C16595  -0.672  10.733   5.455 -0.9266 -0.2440 -0.5364
  884MOL0     C16596  -0.693  10.651   5.593  0.3495  0.1430  0.9411
  884MOL0     C16597  -0.830  10.606   5.620  0.2996 -0.2411 -0.2217
  884MOL0     C16598  -0.900  10.539   5.501 -0.6439  0.0649  0.0304
  884MOL0     C16599  -1.035  10.477   5.532 -0.0094 -0.7719  0.0806
  884MOL0    Cl16600  -1.149  10.599   5.610 -0.3791 -0.0936 -0.2676
  884MOL0     C16601  -0.066  10.799   5.685  0.0762 -0.2002 -0.3819
  884MOL0     C16602   0.067  10.832   5.722  0.1166  0.1821  0.8570
  884MOL0     O16603   0.365  10.947   5.455  0.3146 -0.1554 -0.1185
  884MOL0     C16604   0.554  10.833   5.729  0.0187 -0.0625  0.0975
  884MOL0     C16605   0.678  10.824   5.783  0.0866  0.4560  0.0137
  884MOL0     N16606   1.142  10.820   6.376  0.2901  0.2832 -1.1962
  884MOL0     N16607   1.213  10.794   6.484 -0.8371  0.2844  0.6384
  884MOL0     C16608   2.570  10.497   6.430  0.1948 -0.3755 -0.0095
  884MOL0     C16609   2.697  10.496   6.392  0.3004  0.1497  0.5141
  884MOL0     C16610   3.154  10.539   6.364 -0.0342 -0.9727  1.0866
  884MOL0     C16611   3.227  10.645   6.306  0.6841  0.1825  0.6538
  884MOL0     C16612   3.351  10.635   6.253 -0.2699  0.2175  0.0217
  884MOL0     C16613   3.404  10.500   6.228  1.0461  0.8843 -0.3969
  884MOL0     O16614   3.515  10.455   6.155 -0.1478 -0.6469 -1.0449
  884MOL0     C16615   3.605  10.565   6.116  0.6009 -0.7079  0.5162
  884MOL0     C16616   3.751  10.511   6.096  0.0839  0.5445 -0.2699
  884MOL0     C16617   3.852  10.613   6.035  0.4838 -0.3060  0.4392
  884MOL0     C16618   3.951  10.668   6.136 -0.0218  0.3966  0.0451
  884MOL0     C16619   3.894  10.762   6.234  0.7921  0.1838  0.7022
  884MOL0     C16620   3.841  10.837   6.313  0.7235  0.2341  1.1114
  884MOL0     C16621   3.319  10.391   6.275  0.1447  0.1156  0.0430
  884MOL0     C16622   3.199  10.409   6.340  0.4287 -0.5790  0.1135
  884MOL0     H16623   2.858  10.421   6.686 -0.6563  0.3001  1.3761
  884MOL0     H16624   2.605  10.421   6.761  2.0050 -0.9807 -0.5088
  884MOL0     H16625   2.275  10.415   6.450 -0.8137  1.4196 -1.2731
  884MOL0     H16626   2.304  10.583   6.490  1.0365 -1.3780 -1.1406
  884MOL0     H16627   2.170  10.552   6.703 -3.2172  0.4088  0.2969
  884MOL0     H16628   2.134  10.379   6.645 -1.1634 -0.6184  0.0994
  884MOL0     H16629   2.015  10.465   6.439 -3.4812  4.5656 -2.8931
  884MOL0     H16630   2.078  10.618   6.490  3.2687 -1.2241 -0.0734
  884MOL0     H16631   1.869  10.447   6.606 -1.3429 -0.3195 -0.5567
  884MOL0     H16632   1.935  10.589   6.699  1.2117  0.5941 -0.2911
  884MOL0     H16633   1.835  10.640   6.421  2.8462 -2.3521  0.7050
  884MOL0     H16634   1.869  10.748   6.552  2.6956 -1.7476  2.3156
  884MOL0     H16635   1.685  10.650   6.691  0.6184  0.2654 -0.4048
  884MOL0     H16636   1.642  10.537   6.554 -1.4898  1.8452 -3.9432
  884MOL0     H16637   1.597  10.836   6.536 -0.7656  1.0406 -0.5747
  884MOL0     H16638   1.588  10.718   6.400  0.8737 -1.3908 -0.7983
  884MOL0     H16639   1.418  10.737   6.641 -0.2854  1.2674 -2.0646
  884MOL0     H16640   1.431  10.589   6.550  0.4094  0.2774 -2.7664
  884MOL0     H16641   1.407  10.677   6.249  0.2369 -0.3158 -0.2531
  884MOL0     H16642   1.042  10.724   6.146  1.7727  0.6488 -0.0769
  884MOL0     H16643   1.201  10.713   6.070  2.6638 -0.9185  2.2940
  884MOL0     H16644   1.221  10.958   6.069 -0.0085  0.2613  1.0333
  884MOL0     H16645   1.055  10.975   6.138 -1.8631 -2.3659  0.1404
  884MOL0     H16646   1.062  11.012   5.903 -2.3832 -0.1945 -0.1623
  884MOL0     H16647   1.148  10.853   5.881 -0.3924 -0.8685 -1.2058
  884MOL0     H16648   0.851  10.889   5.962  0.4142  1.2510 -2.1076
  884MOL0     H16649   0.940  10.736   5.935  0.3624 -1.5951 -1.1940
  884MOL0     H16650   0.854  10.965   5.526 -0.3366 -0.9371 -2.1713
  884MOL0     H16651   0.627  10.991   5.436 -0.3171 -0.0039 -0.0321
  884MOL0     H16652   0.183  10.801   5.400 -2.6112 -2.1199 -1.8720
  884MOL0     H16653  -0.046  10.794   5.349  2.2900 -2.5009 -0.9129
  884MOL0     H16654  -0.227  10.638   5.352  2.3182  2.3566 -0.0461
  884MOL0     H16655  -0.288  10.812   5.344 -3.0107 -0.4655  0.0425
  884MOL0     H16656  -0.431  10.591   5.468 -0.1748  0.4931  1.7105
  884MOL0     H16657  -0.429  10.639   5.302  1.8891  0.0018  0.2403
  884MOL0     H16658  -0.522  10.867   5.370 -0.9089 -0.4655 -1.6141
  884MOL0     H16659  -0.505  10.839   5.548 -0.3698  1.1508 -0.3970
  884MOL0     H16660  -0.749  10.811   5.465  0.9859  1.7088 -0.3625
  884MOL0     H16661  -0.688  10.678   5.362 -0.1152 -0.4090 -0.5771
  884MOL0     H16662  -0.663  10.729   5.663  0.2262 -0.0277  1.1847
  884MOL0     H16663  -0.623  10.566   5.601 -0.5891 -0.7662 -0.1051
  884MOL0     H16664  -0.900  10.680   5.660  0.4396 -0.3204  0.1733
  884MOL0     H16665  -0.819  10.541   5.707  1.0955  1.6521  1.1659
  884MOL0     H16666  -0.920  10.602   5.413  1.9624 -3.8277 -3.7263
  884MOL0     H16667  -0.833  10.457   5.473  0.2794 -0.4012  3.2645
  884MOL0     H16668  -1.027  10.402   5.611 -1.9875 -1.2952 -0.1434
  884MOL0     H16669  -1.067  10.426   5.440  2.2079  0.5474 -1.5026
  884MOL0     H16670  -0.134  10.787   5.768 -0.7844 -1.1021 -1.1979
  884MOL0     H16671   0.089  10.849   5.827  2.4165  0.3554  0.3894
  884MOL0     H16672   0.468  10.798   5.786  0.2704 -1.0402 -0.1012
  884MOL0     H16673   0.688  10.776   5.879  0.4472  1.6994  0.6140
  884MOL0     H16674   2.488  10.535   6.370  0.6138  3.1344  1.4363
  884MOL0     H16675   2.715  10.528   6.290 -0.3509  0.0999  0.3742
  884MOL0     H16676   3.175  10.740   6.302 -0.3628 -0.3622  0.9925
  884MOL0     H16677   3.397  10.722   6.209 -0.8023  0.2359 -0.5195
  884MOL0     H16678   3.610  10.643   6.192 -0.4773 -0.7256  0.6286
  884MOL0     H16679   3.575  10.624   6.029 -1.1267 -2.7382 -0.3659
  884MOL0     H16680   3.784  10.483   6.196  0.4347  0.2463 -0.4694
  884MOL0     H16681   3.752  10.425   6.028  2.2899  0.7746 -0.6155
  884MOL0     H16682   3.799  10.702   6.000 -0.4245 -1.8038 -2.2316
  884MOL0     H16683   3.894  10.562   5.948  1.6944 -0.0327  0.8427
  884MOL0     H16684   4.011  10.585   6.173 -2.3888 -1.6600 -0.4784
  884MOL0     H16685   4.018  10.734   6.080  0.0847  0.3990  0.1754
  884MOL0     H16686   3.807  10.912   6.381 -0.9056  0.8362 -0.3304
  884MOL0     H16687   3.343  10.285   6.267  1.6983  0.1295  3.0391
  884MOL0     H16688   3.140  10.324   6.374 -0.4978  1.1495  3.1841
  885MOL0     O16689   0.699   2.735   8.481 -0.0911  0.2815  0.3005
  885MOL0     C16690   0.725   2.650   8.401  0.3751  0.2310  1.0198
  885MOL0     O16691   0.637   2.578   8.333 -0.3583  0.7194  0.3175
  885MOL0     C16692   0.502   2.616   8.342  0.0070  0.9365  0.2358
  885MOL0     C16693   0.451   2.747   8.354  0.3970 -0.1053  0.3701
  885MOL0     C16694   0.314   2.770   8.375 -0.2082  0.6376  0.4879
  885MOL0     C16695   0.227   2.660   8.367 -0.1488 -0.1039 -0.4093
  885MOL0     O16696   0.091   2.679   8.395 -0.0673  0.3787  0.0522
  885MOL0     C16697   0.037   2.801   8.424 -0.4261 -0.3366  1.1587
  885MOL0     C16698  -0.111   2.799   8.423  0.1118 -1.3805  0.0930
  885MOL0     C16699  -0.174   2.706   8.527  0.4249 -0.2426 -0.0655
  885MOL0     C16700  -0.251   2.585   8.470  0.1075  0.5898 -0.3437
  885MOL0     C16701  -0.371   2.617   8.374  0.1470 -0.9699 -0.9583
  885MOL0     C16702  -0.429   2.482   8.336 -0.1158 -0.2337 -0.5708
  885MOL0     C16703  -0.492   2.408   8.458 -0.3004 -0.2608  0.1248
  885MOL0     C16704  -0.602   2.298   8.421  0.3054 -1.1230  0.0929
  885MOL0     N16705  -0.713   2.355   8.353  0.6770 -0.0553 -0.2140
  885MOL0     C16706  -0.740   2.346   8.229 -0.4027  1.1363  0.2438
  885MOL0     C16707  -0.852   2.417   8.209 -0.7267  0.6682  0.2657
  885MOL0     C16708  -0.932   2.429   8.083 -0.0294 -1.0190 -0.1890
  885MOL0     C16709  -0.854   2.487   7.957 -0.5532 -0.3495  0.4327
  885MOL0     C16710  -0.925   2.466   7.822  0.8516 -0.1355  0.6023
  885MOL0     C16711  -0.858   2.525   7.695 -0.3181  0.2629 -0.4088
  885MOL0     O16712  -0.722   2.490   7.711  0.3700 -0.8497  0.2572
  885MOL0     C16713  -0.632   2.537   7.624 -0.4374 -0.4403  0.1640
  885MOL0     C16714  -0.641   2.653   7.544  0.0673  1.2007  1.0715
  885MOL0     C16715  -0.540   2.691   7.462 -0.3025 -0.2456  0.4989
  885MOL0     C16716  -0.410   2.636   7.482 -0.0271 -0.3669  0.4656
  885MOL0     C16717  -0.296   2.686   7.397 -0.3822  0.6631 -0.0886
  885MOL0     O16718  -0.176   2.639   7.437  0.2653 -0.1584  0.0084
  885MOL0     C16719  -0.058   2.654   7.370 -0.2332 -0.6462 -0.0209
  885MOL0     C16720   0.038   2.550   7.391 -0.5520  0.1595 -0.2122
  885MOL0     C16721   0.163   2.559   7.344 -0.2538 -0.2654 -0.4779
  885MOL0     C16722   0.208   2.664   7.267  0.0402  0.2036 -0.0111
  885MOL0     O16723   0.334   2.687   7.220 -0.1725  1.0943 -0.0580
  885MOL0     C16724   0.445   2.608   7.273  0.1472 -0.0749  0.0076
  885MOL0     C16725   0.575   2.662   7.214  0.2887  0.4099 -0.4361
  885MOL0     C16726   0.709   2.597   7.258  0.2045 -0.7987 -0.6303
  885MOL0     C16727   0.714   2.466   7.174  1.0205 -0.1267 -0.2435
  885MOL0     C16728   0.862   2.417   7.151  1.0519 -0.0770  0.0660
  885MOL0     C16729   0.920   2.365   7.286  0.3751  0.1296 -0.0049
  885MOL0     C16730   1.058   2.311   7.267 -0.0305 -0.3423  0.5930
  885MOL0     C16731   1.171   2.412   7.220 -0.4186  0.0474  0.1776
  885MOL0    Cl16732   1.329   2.366   7.272  0.6755  0.3002 -0.0577
  885MOL0     C16733   0.114   2.771   7.242  0.5776  0.4206 -0.2629
  885MOL0     C16734  -0.017   2.770   7.296 -1.6229 -1.2014  0.4517
  885MOL0     O16735  -0.318   2.759   7.300 -0.9869  0.3787 -1.1028
  885MOL0     C16736  -0.402   2.519   7.557  0.3624 -0.0123  0.6788
  885MOL0     C16737  -0.514   2.477   7.624 -0.1870  1.0620  0.6922
  885MOL0     N16738  -0.911   2.445   8.331 -0.0666  0.7000 -0.2249
  885MOL0     N16739  -0.827   2.405   8.420 -0.9575  1.1525  0.4411
  885MOL0     C16740   0.266   2.532   8.348 -0.1032  0.3881  0.1567
  885MOL0     C16741   0.408   2.509   8.333  0.5060  0.3093 -0.0106
  885MOL0     C16742   0.866   2.627   8.374 -0.2295 -0.1924  1.3234
  885MOL0     C16743   0.963   2.619   8.477 -0.3655  1.0402  0.0097
  885MOL0     C16744   1.091   2.570   8.450 -0.7001  0.0435  0.4373
  885MOL0     C16745   1.129   2.526   8.325  0.4220 -0.2903  0.2588
  885MOL0     O16746   1.252   2.465   8.303  0.1556  0.6687 -0.4512
  885MOL0     C16747   1.261   2.320   8.354 -0.6221 -0.3502  0.1623
  885MOL0     C16748   1.403   2.289   8.374  0.2769  0.1441  0.4901
  885MOL0     C16749   1.430   2.143   8.414 -0.2232 -0.3253 -0.0020
  885MOL0     C16750   1.565   2.115   8.471 -0.3924 -0.0654 -0.0712
  885MOL0     C16751   1.679   2.182   8.409 -0.3000 -1.1911 -0.0121
  885MOL0     C16752   1.776   2.214   8.342  0.1539 -0.8652 -0.6432
  885MOL0     C16753   1.035   2.536   8.219  0.7396 -0.1139 -0.1141
  885MOL0     C16754   0.907   2.585   8.245  0.3518 -0.1601  0.2778
  885MOL0     H16755   0.515   2.835   8.356  1.6311 -0.8606 -2.0986
  885MOL0     H16756   0.280   2.872   8.389 -2.2165  0.2575 -1.0934
  885MOL0     H16757   0.082   2.871   8.353  1.5116 -1.8504  0.8210
  885MOL0     H16758   0.077   2.827   8.522  3.2015 -2.5313  0.4522
  885MOL0     H16759  -0.149   2.774   8.324  0.7696  0.1900 -0.5785
  885MOL0     H16760  -0.158   2.894   8.448 -1.5178 -2.2623  0.5655
  885MOL0     H16761  -0.252   2.752   8.588 -2.1453  0.4425 -3.5214
  885MOL0     H16762  -0.095   2.678   8.597 -1.2285  0.3463  2.1674
  885MOL0     H16763  -0.188   2.514   8.417  1.0052  0.9397  0.2325
  885MOL0     H16764  -0.283   2.535   8.562  0.4430  2.1324  0.6522
  885MOL0     H16765  -0.343   2.675   8.286  1.3061 -1.7383 -1.1192
  885MOL0     H16766  -0.460   2.659   8.423  2.4940  0.7429  2.2808
  885MOL0     H16767  -0.355   2.424   8.280  2.3247  0.1556  2.0026
  885MOL0     H16768  -0.515   2.499   8.270  0.0820  0.2688 -0.7032
  885MOL0     H16769  -0.407   2.354   8.500 -0.7424 -1.3304 -0.3329
  885MOL0     H16770  -0.536   2.477   8.531  0.5568 -1.4352  1.8098
  885MOL0     H16771  -0.635   2.263   8.519  1.5658  3.1256  2.2769
  885MOL0     H16772  -0.562   2.216   8.361 -0.1141 -3.3413  2.6344
  885MOL0     H16773  -0.701   2.296   8.141 -0.5621  1.6349 -0.1165
  885MOL0     H16774  -1.023   2.486   8.104  0.8696 -0.3595  2.2279
  885MOL0     H16775  -0.965   2.327   8.064  4.1544 -2.9418  1.7514
  885MOL0     H16776  -0.756   2.440   7.967 -1.4443 -1.9962  2.0490
  885MOL0     H16777  -0.820   2.591   7.970 -0.0390 -0.6747  1.8937
  885MOL0     H16778  -0.938   2.358   7.807  1.9403 -0.5843  2.5430
  885MOL0     H16779  -1.025   2.510   7.831 -0.3800 -3.0905  3.7729
  885MOL0     H16780  -0.867   2.634   7.692 -0.4132  0.2528 -2.7040
  885MOL0     H16781  -0.890   2.488   7.597  3.7517 -1.6385 -1.2452
  885MOL0     H16782  -0.738   2.700   7.534 -0.2701  0.2212 -0.7965
  885MOL0     H16783  -0.550   2.775   7.395  2.6040 -1.5630 -1.8283
  885MOL0     H16784   0.018   2.466   7.457  0.9491  3.0642  4.3928
  885MOL0     H16785   0.248   2.499   7.372 -0.7661 -0.0494  1.7379
  885MOL0     H16786   0.435   2.501   7.252  2.0459 -0.1893 -0.4875
  885MOL0     H16787   0.452   2.620   7.381  0.6579 -1.6950  0.1815
  885MOL0     H16788   0.572   2.767   7.244 -1.0764  0.5563 -1.0293
  885MOL0     H16789   0.577   2.673   7.105  3.4027  1.7919 -0.3650
  885MOL0     H16790   0.721   2.577   7.364  1.0728  0.7859 -0.3958
  885MOL0     H16791   0.791   2.661   7.226  0.5819  0.2627  2.2267
  885MOL0     H16792   0.659   2.396   7.237  1.0623 -1.3210 -1.4680
  885MOL0     H16793   0.665   2.470   7.077  0.9996  1.8449 -0.1921
  885MOL0     H16794   0.919   2.500   7.108  1.1337 -0.7443 -1.1607
  885MOL0     H16795   0.864   2.337   7.076 -3.3090 -0.5694  0.2038
  885MOL0     H16796   0.862   2.279   7.321 -0.0970 -0.1038 -1.3156
  885MOL0     H16797   0.926   2.443   7.362  0.1086  1.0967 -0.9549
  885MOL0     H16798   1.089   2.267   7.362 -1.7860  2.9009  2.8591
  885MOL0     H16799   1.053   2.237   7.187  3.6081  2.5563 -2.7552
  885MOL0     H16800   1.140   2.507   7.265 -2.2132 -0.3375 -0.1565
  885MOL0     H16801   1.170   2.438   7.114  0.1280  0.8545  0.3597
  885MOL0     H16802   0.143   2.857   7.182 -1.3142  0.3749 -1.3421
  885MOL0     H16803  -0.073   2.862   7.288 -0.1168 -0.4411 -2.8954
  885MOL0     H16804  -0.313   2.456   7.556  0.6498  0.3928 -0.0815
  885MOL0     H16805  -0.502   2.379   7.669  2.8106  2.8153  4.2281
  885MOL0     H16806   0.191   2.453   8.343 -0.9014  1.0771  0.9641
  885MOL0     H16807   0.450   2.413   8.304  2.5675  0.7589  1.2725
  885MOL0     H16808   0.927   2.626   8.579 -0.1410 -2.8686  0.5238
  885MOL0     H16809   1.167   2.556   8.526  1.3064  1.9147 -1.1080
  885MOL0     H16810   1.212   2.250   8.285 -1.5145  0.2243  0.2013
  885MOL0     H16811   1.208   2.317   8.450  2.3490  1.4859  2.0299
  885MOL0     H16812   1.442   2.302   8.273  1.5379  1.3925  1.1083
  885MOL0     H16813   1.446   2.365   8.440 -0.1724 -0.8934  2.0393
  885MOL0     H16814   1.415   2.085   8.323 -1.1876  0.9706 -0.6988
  885MOL0     H16815   1.351   2.124   8.488 -1.5521  1.2211 -0.9634
  885MOL0     H16816   1.549   2.139   8.577 -1.1348 -3.2150  0.6390
  885MOL0     H16817   1.582   2.008   8.461  0.8132  0.0706  0.3213
  885MOL0     H16818   1.872   2.234   8.298  1.0495  0.8819  1.8733
  885MOL0     H16819   1.074   2.497   8.125  2.2800 -1.1107  0.9032
  885MOL0     H16820   0.832   2.574   8.168 -0.1582 -0.8257  0.8530
  886MOL0     O16821   8.746  11.129   1.240 -0.0838  0.7265 -0.4177
  886MOL0     C16822   8.764  11.012   1.281  0.1100 -0.8964 -0.6464
  886MOL0     O16823   8.674  10.904   1.278  0.4214  0.0288  0.3875
  886MOL0     C16824   8.540  10.914   1.259  0.4567 -1.6805 -0.2948
  886MOL0     C16825   8.470  10.808   1.314  0.1012 -0.0392 -0.3686
  886MOL0     C16826   8.330  10.820   1.319  0.0228 -0.1859  0.3531
  886MOL0     C16827   8.257  10.924   1.264  0.1598  1.1000 -0.5748
  886MOL0     O16828   8.115  10.918   1.263 -0.5838 -0.2993  0.0234
  886MOL0     C16829   8.045  11.041   1.217 -0.4529 -0.2480  0.0940
  886MOL0     C16830   7.893  11.027   1.253  0.5004 -0.4692 -0.3376
  886MOL0     C16831   7.824  10.948   1.148 -0.0301  0.1767 -0.2602
  886MOL0     C16832   7.683  10.901   1.196 -0.2302 -0.3284 -1.1111
  886MOL0     C16833   7.589  10.890   1.084 -0.1932 -0.3219  0.1251
  886MOL0     C16834   7.439  10.889   1.123 -0.6500  0.7345  0.0092
  886MOL0     C16835   7.352  10.881   1.002  0.0636  0.7120 -0.2419
  886MOL0     C16836   7.205  10.922   1.021  0.7772  0.7029 -0.4612
  886MOL0     N16837   7.125  10.840   1.108  0.0316 -0.2306  0.2121
  886MOL0     C16838   7.078  10.718   1.078  0.8478 -0.4673  0.3501
  886MOL0     C16839   6.981  10.699   1.173 -0.4046  0.1679 -0.3765
  886MOL0     C16840   6.892  10.583   1.190  0.4613  0.1458  0.3823
  886MOL0     C16841   6.773  10.582   1.085 -0.1738 -0.0488  0.7758
  886MOL0     C16842   6.683  10.708   1.095 -1.0912 -0.8712 -0.5680
  886MOL0     C16843   6.613  10.709   1.235 -0.1804  0.4298  0.4246
  886MOL0     O16844   6.530  10.823   1.237 -0.6903  0.5073 -0.3392
  886MOL0     C16845   6.405  10.802   1.291 -0.4184  0.2452  0.0917
  886MOL0     C16846   6.364  10.848   1.416  0.2391 -0.3354  0.2501
  886MOL0     C16847   6.227  10.838   1.463 -0.5161 -0.2403  0.4377
  886MOL0     C16848   6.141  10.750   1.391 -0.7247 -0.5147  0.1632
  886MOL0     C16849   6.004  10.731   1.444  0.9594  0.1509  0.0025
  886MOL0     O16850   5.915  10.692   1.353  0.8646  0.0537 -0.0105
  886MOL0     C16851   5.806  10.615   1.393 -0.3706 -0.1370  0.2175
  886MOL0     C16852   5.791  10.532   1.510  1.1192 -0.6090  0.5971
  886MOL0     C16853   5.675  10.463   1.538 -0.2432 -0.1222  1.0899
  886MOL0     C16854   5.563  10.472   1.459 -0.2679 -0.7782  0.1190
  886MOL0     O16855   5.436  10.420   1.487  0.1518  0.3810  0.2743
  886MOL0     C16856   5.401  10.424   1.623  0.8036  0.8917 -0.9074
  886MOL0     C16857   5.256  10.384   1.628 -0.7794 -0.1676 -0.6044
  886MOL0     C16858   5.212  10.366   1.781  0.6273  0.2200  0.5071
  886MOL0     C16859   5.186  10.498   1.858 -0.6443  0.4502  0.1791
  886MOL0     C16860   5.102  10.472   1.985  0.2780  0.1739  0.4066
  886MOL0     C16861   5.070  10.607   2.050 -0.6560 -0.1381  0.5777
  886MOL0     C16862   5.197  10.658   2.132 -0.5097  0.5337 -0.1125
  886MOL0     C16863   5.145  10.772   2.235 -0.0552 -0.1953 -0.9556
  886MOL0    Cl16864   5.138  10.921   2.147 -0.1673 -0.0994 -0.4732
  886MOL0     C16865   5.579  10.545   1.339 -0.1912 -0.6844 -0.3577
  886MOL0     C16866   5.702  10.611   1.302  0.4495 -1.1175 -0.0182
  886MOL0     O16867   5.980  10.750   1.561  0.7346 -0.3097 -0.2250
  886MOL0     C16868   6.187  10.685   1.274  0.2916 -0.0953  0.1934
  886MOL0     C16869   6.317  10.721   1.220 -0.0601 -0.5694  1.0398
  886MOL0     N16870   6.986  10.798   1.270 -0.0331  0.5855  0.3372
  886MOL0     N16871   7.073  10.885   1.225  0.5322 -0.2690 -0.0617
  886MOL0     C16872   8.333  11.023   1.197 -0.4852  0.2871 -0.9152
  886MOL0     C16873   8.475  11.021   1.197  0.2651 -0.0107 -0.0800
  886MOL0     C16874   8.899  10.991   1.353  0.4389  0.2223 -0.0387
  886MOL0     C16875   8.928  10.881   1.440 -0.7732  0.1367  0.0679
  886MOL0     C16876   9.058  10.873   1.496 -0.5382 -0.7577 -0.8466
  886MOL0     C16877   9.154  10.975   1.468  0.6378  0.1800  0.0492
  886MOL0     O16878   9.285  10.993   1.509  0.0915  0.0815 -0.4464
  886MOL0     C16879   9.307  11.010   1.653  0.3710  0.2472 -0.0401
  886MOL0     C16880   9.386  11.135   1.682 -0.4608  0.2329 -0.1379
  886MOL0     C16881   9.535  11.120   1.700 -1.5302  0.0947  0.5116
  886MOL0     C16882   9.609  11.058   1.580  0.0464 -0.2916  0.0511
  886MOL0     C16883   9.745  11.001   1.615  0.7476 -0.1637 -0.3312
  886MOL0     C16884   9.856  10.969   1.622  0.4565  0.2517 -0.0676
  886MOL0     C16885   9.123  11.079   1.377 -0.1318 -0.5218 -0.3989
  886MOL0     C16886   9.000  11.083   1.314  0.1037 -0.5880 -0.9132
  886MOL0     H16887   8.520  10.737   1.379 -2.2354  0.8525  2.6990
  886MOL0     H16888   8.275  10.741   1.369 -1.7290  1.3983  1.0630
  886MOL0     H16889   8.056  11.059   1.110 -3.2257  1.8014  0.0229
  886MOL0     H16890   8.093  11.127   1.264  0.9017  0.2812 -2.1110
  886MOL0     H16891   7.844  11.125   1.252 -0.7995 -0.9656  2.9007
  886MOL0     H16892   7.890  10.973   1.348  0.5247 -3.2123 -1.7963
  886MOL0     H16893   7.880  10.858   1.123 -0.8780 -0.7680  1.1172
  886MOL0     H16894   7.826  11.015   1.062  0.0938  0.9324  0.3206
  886MOL0     H16895   7.684  10.809   1.255 -1.6328  2.0216  2.9709
  886MOL0     H16896   7.642  10.971   1.269 -1.3063 -0.6794 -1.3669
  886MOL0     H16897   7.620  10.800   1.030  3.9045  1.3946 -0.7270
  886MOL0     H16898   7.599  10.964   1.005 -0.0792 -1.7996 -1.3026
  886MOL0     H16899   7.415  10.973   1.189 -1.0239 -0.6052  1.6535
  886MOL0     H16900   7.423  10.795   1.177  3.4122 -0.7723 -1.0546
  886MOL0     H16901   7.394  10.957   0.935  0.0699  4.9568  4.0048
  886MOL0     H16902   7.347  10.784   0.952  2.2338 -0.2907  1.3139
  886MOL0     H16903   7.159  10.902   0.924  2.2697 -3.1911 -0.5433
  886MOL0     H16904   7.203  11.029   1.042 -0.7971  0.7377 -0.6752
  886MOL0     H16905   7.085  10.659   0.987 -4.1216 -0.2949 -0.4495
  886MOL0     H16906   6.853  10.583   1.292 -0.0928 -2.8797  0.2550
  886MOL0     H16907   6.947  10.489   1.185  0.2530  0.0045  0.7125
  886MOL0     H16908   6.725  10.484   1.090  2.9783 -1.7940 -0.0652
  886MOL0     H16909   6.820  10.585   0.986  0.9604 -2.9108  1.1287
  886MOL0     H16910   6.762  10.783   1.087  0.8219 -2.5821  1.0887
  886MOL0     H16911   6.610  10.709   1.013  0.5678  1.4904 -2.1478
  886MOL0     H16912   6.687  10.714   1.316 -0.1332 -0.8798  0.4699
  886MOL0     H16913   6.558  10.618   1.259  2.0289 -0.7885  1.0831
  886MOL0     H16914   6.426  10.919   1.468  1.2265 -2.3757  2.0113
  886MOL0     H16915   6.185  10.901   1.541 -1.3111  1.2924 -1.1512
  886MOL0     H16916   5.887  10.519   1.559  2.0648  2.1642 -0.3074
  886MOL0     H16917   5.667  10.396   1.623 -0.0410  0.0143  1.2175
  886MOL0     H16918   5.408  10.527   1.659 -5.0540  1.1914  0.2983
  886MOL0     H16919   5.463  10.361   1.689 -0.6936  1.8892  1.5870
  886MOL0     H16920   5.232  10.287   1.584 -1.1903 -0.5763  0.4798
  886MOL0     H16921   5.189  10.456   1.581 -1.6981 -1.5671 -1.5223
  886MOL0     H16922   5.297  10.317   1.829  1.8927  0.7798 -1.0697
  886MOL0     H16923   5.123  10.302   1.786  1.6480 -1.1155  3.0877
  886MOL0     H16924   5.286  10.541   1.867 -0.1741  0.1479 -2.6346
  886MOL0     H16925   5.130  10.560   1.787  2.4599  2.5440 -0.6539
  886MOL0     H16926   5.146  10.407   2.061 -0.0188 -2.2744 -1.3803
  886MOL0     H16927   5.009  10.426   1.950  0.4243  1.8829 -2.5391
  886MOL0     H16928   4.994  10.592   2.128  0.5926 -0.7182  1.7164
  886MOL0     H16929   5.044  10.677   1.970  0.5396 -0.7789 -0.3889
  886MOL0     H16930   5.243  10.575   2.186 -0.8312  0.3788 -0.0726
  886MOL0     H16931   5.282  10.707   2.083  0.6776  0.2530  1.5796
  886MOL0     H16932   5.197  10.779   2.331  1.2515 -1.7795 -1.5083
  886MOL0     H16933   5.043  10.747   2.265 -0.0044 -1.5646 -1.8227
  886MOL0     H16934   5.487  10.548   1.282 -0.8855  1.3633  0.7877
  886MOL0     H16935   5.717  10.667   1.211  0.9602  0.0972  0.7988
  886MOL0     H16936   6.121  10.635   1.204 -0.0373 -0.2118  0.5845
  886MOL0     H16937   6.351  10.676   1.128  1.3838 -0.5141  1.5165
  886MOL0     H16938   8.282  11.093   1.131  1.2960  0.9918 -1.6296
  886MOL0     H16939   8.524  11.097   1.136 -1.2180  0.1769 -1.0985
  886MOL0     H16940   8.849  10.808   1.459  0.1067 -0.2657  2.5059
  886MOL0     H16941   9.074  10.795   1.570  0.0039  0.3562  0.2646
  886MOL0     H16942   9.363  10.926   1.694  1.5073  0.6133 -0.7939
  886MOL0     H16943   9.213  11.018   1.709  0.6177 -1.6639  0.7216
  886MOL0     H16944   9.375  11.213   1.605  0.0810 -1.1339 -1.6591
  886MOL0     H16945   9.354  11.189   1.771  1.4891  2.8362 -0.9069
  886MOL0     H16946   9.556  11.054   1.785 -1.8722 -0.0659  0.4721
  886MOL0     H16947   9.586  11.216   1.713 -2.2210  0.4687  0.4953
  886MOL0     H16948   9.538  10.994   1.528 -1.2597  1.3510 -0.2651
  886MOL0     H16949   9.621  11.144   1.513 -3.0451  0.3443  0.1887
  886MOL0     H16950   9.959  10.940   1.630  1.0398  2.1463 -0.1328
  886MOL0     H16951   9.195  11.156   1.352 -0.9269  0.3467 -0.0634
  886MOL0     H16952   8.975  11.174   1.261 -0.8564 -1.9644 -2.9490
  887MOL0     O16953   0.064   2.795   1.498 -1.2501 -0.0716 -0.0912
  887MOL0     C16954   0.102   2.905   1.524 -0.2013 -0.1112 -0.1402
  887MOL0     O16955   0.021   3.014   1.536  0.1081  0.6204  0.1217
  887MOL0     C16956  -0.116   3.016   1.504  0.1945  0.2328 -0.0779
  887MOL0     C16957  -0.187   3.133   1.548 -0.0796  0.2385  0.2699
  887MOL0     C16958  -0.328   3.152   1.519 -0.1808  0.0163  0.8333
  887MOL0     C16959  -0.399   3.053   1.442  0.1685 -0.5339  0.4435
  887MOL0     O16960  -0.531   3.065   1.403 -0.4031 -0.4506  0.0143
  887MOL0     C16961  -0.590   3.196   1.426 -0.1284  0.3838  0.5135
  887MOL0     C16962  -0.716   3.209   1.338  0.1712 -0.2275 -0.5967
  887MOL0     C16963  -0.767   3.352   1.373  0.7894 -0.0759 -0.8358
  887MOL0     C16964  -0.895   3.392   1.299 -0.7590  0.6736  0.5590
  887MOL0     C16965  -1.024   3.341   1.366 -0.4450  0.0168 -0.0271
  887MOL0     C16966  -1.147   3.359   1.286 -0.0085  0.1110 -0.3822
  887MOL0     C16967  -1.210   3.502   1.288  0.0787 -1.1786 -0.0375
  887MOL0     C16968  -1.322   3.521   1.183 -0.5540  0.5735  0.8535
  887MOL0     N16969  -1.451   3.447   1.207  0.5483 -1.4144 -0.0348
  887MOL0     C16970  -1.473   3.317   1.190  0.0699  0.8566  0.1672
  887MOL0     C16971  -1.607   3.293   1.209  0.3353 -1.3332 -0.5976
  887MOL0     C16972  -1.691   3.176   1.175  0.2611 -0.1315 -0.2801
  887MOL0     C16973  -1.817   3.205   1.086 -0.9446 -0.7413  0.7289
  887MOL0     C16974  -1.870   3.071   1.035  1.1655  0.3116  0.4282
  887MOL0     C16975  -1.955   3.008   1.147  0.0915 -0.6395  0.3428
  887MOL0     O16976  -2.029   2.903   1.087  0.1298 -0.0300  0.1912
  887MOL0     C16977  -2.108   2.809   1.158 -1.2873  0.2135  0.6068
  887MOL0     C16978  -2.104   2.810   1.300  0.2533 -0.2740  0.0220
  887MOL0     C16979  -2.187   2.727   1.372  0.5618  0.0204  0.7707
  887MOL0     C16980  -2.272   2.636   1.305 -0.3433 -0.3492 -0.1255
  887MOL0     C16981  -2.365   2.548   1.377  0.0599 -0.4572  0.6031
  887MOL0     O16982  -2.401   2.580   1.503 -0.2411 -0.4822  0.0082
  887MOL0     C16983  -2.512   2.519   1.558  0.0598  0.4302  1.2480
  887MOL0     C16984  -2.495   2.390   1.608 -0.8504  0.8065  0.0036
  887MOL0     C16985  -2.602   2.328   1.664 -0.0830  0.2575 -0.1461
  887MOL0     C16986  -2.727   2.384   1.670  0.1604  0.6141 -0.0402
  887MOL0     O16987  -2.831   2.318   1.737 -0.3323 -0.5463  0.3510
  887MOL0     C16988  -2.965   2.345   1.701 -0.1337  0.4922 -0.1762
  887MOL0     C16989  -3.067   2.230   1.738  0.2102  0.3274  0.9097
  887MOL0     C16990  -3.044   2.108   1.644 -0.5555  0.1379 -0.2263
  887MOL0     C16991  -3.145   1.995   1.652 -0.4116  0.2991 -0.9368
  887MOL0     C16992  -3.174   1.960   1.798  0.2150 -0.1673 -0.7817
  887MOL0     C16993  -3.267   1.836   1.824  0.6165  0.0472 -0.5190
  887MOL0     C16994  -3.179   1.708   1.817 -0.1852 -0.3073  1.2400
  887MOL0     C16995  -3.237   1.590   1.890  0.4731  1.5206 -0.2199
  887MOL0    Cl16996  -3.419   1.557   1.849 -0.1050 -0.2412 -0.4259
  887MOL0     C16997  -2.741   2.515   1.609  0.3585 -0.6191 -0.0632
  887MOL0     C16998  -2.634   2.579   1.556  0.3012 -0.3448  0.1993
  887MOL0     O16999  -2.400   2.450   1.318  0.4807 -0.2988  0.0903
  887MOL0     C17000  -2.251   2.617   1.166  0.2677  0.0680 -0.1671
  887MOL0     C17001  -2.184   2.709   1.095 -0.4774 -0.3596  0.3002
  887MOL0     N17002  -1.662   3.413   1.250 -1.1195  0.2993  0.2168
  887MOL0     N17003  -1.573   3.504   1.230 -0.7021  0.7059 -0.1176
  887MOL0     C17004  -0.325   2.942   1.403 -0.1082  0.1460 -0.2877
  887MOL0     C17005  -0.193   2.919   1.430 -0.2371 -0.4545  1.1646
  887MOL0     C17006   0.248   2.932   1.532 -0.2109 -0.1195  1.3857
  887MOL0     C17007   0.340   2.829   1.489  0.2068  0.1944 -0.3233
  887MOL0     C17008   0.477   2.847   1.494 -0.7012 -0.0514  0.3395
  887MOL0     C17009   0.529   2.972   1.536 -1.0876 -0.1307  1.0320
  887MOL0     O17010   0.662   2.979   1.564 -1.3778 -0.1252 -0.1853
  887MOL0     C17011   0.746   2.995   1.450 -1.0385 -1.1241 -0.2612
  887MOL0     C17012   0.748   3.129   1.400 -0.3800 -0.7591 -0.1789
  887MOL0     C17013   0.831   3.216   1.497 -1.4695  0.7590  1.7158
  887MOL0     C17014   0.832   3.371   1.465 -0.6815 -0.2627  0.1769
  887MOL0     C17015   0.878   3.450   1.581 -0.2945 -0.1625  0.7225
  887MOL0     C17016   0.902   3.516   1.679 -0.1904  0.7658  0.2277
  887MOL0     C17017   0.444   3.076   1.568  0.4723  0.1518  0.2622
  887MOL0     C17018   0.305   3.056   1.558  0.0264 -0.1025  0.2676
  887MOL0     H17019  -0.133   3.193   1.620  0.4337 -0.1877  0.2475
  887MOL0     H17020  -0.367   3.243   1.564  2.9319  0.5594  2.7400
  887MOL0     H17021  -0.516   3.265   1.386  0.9778 -0.8543  0.3615
  887MOL0     H17022  -0.610   3.223   1.531 -2.0830  0.6626  0.1200
  887MOL0     H17023  -0.790   3.137   1.373  1.5427 -1.7727 -0.6989
  887MOL0     H17024  -0.694   3.197   1.231  0.5328 -0.7308 -0.4714
  887MOL0     H17025  -0.681   3.415   1.347  1.3455 -1.2868 -2.0544
  887MOL0     H17026  -0.792   3.368   1.478 -1.0849  2.7130 -1.6023
  887MOL0     H17027  -0.910   3.501   1.293 -0.2200  0.6972 -1.0114
  887MOL0     H17028  -0.898   3.355   1.196  0.6630  0.7293  0.4842
  887MOL0     H17029  -1.037   3.388   1.464 -1.6873  2.6584 -1.3587
  887MOL0     H17030  -1.020   3.232   1.368  1.7490  0.0658  0.9236
  887MOL0     H17031  -1.222   3.289   1.324 -0.3906  0.5641 -0.2875
  887MOL0     H17032  -1.133   3.320   1.185 -3.4815  0.2127 -1.0169
  887MOL0     H17033  -1.242   3.521   1.391  1.8207  0.0550  0.3214
  887MOL0     H17034  -1.131   3.572   1.262  2.8664 -4.6799 -1.7867
  887MOL0     H17035  -1.287   3.509   1.080 -1.4986 -1.7499  0.7350
  887MOL0     H17036  -1.350   3.627   1.192  0.1991  0.6596  2.5551
  887MOL0     H17037  -1.404   3.246   1.145 -0.7036 -1.0359  1.7818
  887MOL0     H17038  -1.724   3.138   1.272  0.2358  0.0468 -0.2178
  887MOL0     H17039  -1.624   3.103   1.129  1.6307  0.9880 -0.1520
  887MOL0     H17040  -1.795   3.283   1.012 -1.6715 -0.4158  0.8431
  887MOL0     H17041  -1.898   3.260   1.135 -1.1582  0.7413 -1.1741
  887MOL0     H17042  -1.940   3.089   0.953 -0.2941  0.1521  1.6020
  887MOL0     H17043  -1.797   2.999   0.998 -0.5505 -0.7553 -1.0274
  887MOL0     H17044  -2.020   3.090   1.179  1.1985  1.7918 -2.9960
  887MOL0     H17045  -1.894   2.967   1.227 -2.5137  0.9956  3.3952
  887MOL0     H17046  -2.054   2.887   1.358 -0.3973  1.0291 -1.0937
  887MOL0     H17047  -2.195   2.735   1.480  1.2289  2.6906  0.6992
  887MOL0     H17048  -2.403   2.336   1.587 -2.3535 -1.5345 -0.9156
  887MOL0     H17049  -2.594   2.229   1.708 -2.8547  0.2469  0.5469
  887MOL0     H17050  -2.978   2.359   1.594 -0.5360  0.9894 -0.0671
  887MOL0     H17051  -3.005   2.435   1.750 -4.0801  0.9488 -3.7133
  887MOL0     H17052  -3.170   2.264   1.726  0.3895  0.5533 -0.0730
  887MOL0     H17053  -3.053   2.186   1.838 -0.0746 -1.2396  0.2939
  887MOL0     H17054  -2.943   2.074   1.670 -0.4834  0.0191 -0.6502
  887MOL0     H17055  -3.039   2.133   1.538 -3.9558 -0.6457 -0.6800
  887MOL0     H17056  -3.239   2.022   1.603 -1.4271  0.3969  0.9548
  887MOL0     H17057  -3.091   1.913   1.604  2.1716  0.2118  1.8476
  887MOL0     H17058  -3.222   2.047   1.846  1.7528  0.3811 -0.1735
  887MOL0     H17059  -3.088   1.943   1.863 -0.0984 -0.7814 -0.5214
  887MOL0     H17060  -3.353   1.820   1.757 -2.1764  1.3733  2.4597
  887MOL0     H17061  -3.299   1.843   1.928  1.3298  3.1323 -0.4023
  887MOL0     H17062  -3.172   1.687   1.710 -0.1556 -0.0981  1.2005
  887MOL0     H17063  -3.075   1.726   1.845 -0.3488  0.6822  1.2461
  887MOL0     H17064  -3.248   1.611   1.997 -1.9552 -1.0728  0.1778
  887MOL0     H17065  -3.173   1.503   1.873  0.7995  2.2267 -3.1762
  887MOL0     H17066  -2.841   2.559   1.603 -0.3778 -2.2496 -0.2530
  887MOL0     H17067  -2.641   2.680   1.517 -0.6871 -0.3643  0.3096
  887MOL0     H17068  -2.302   2.530   1.124 -0.6603 -1.0891  3.0486
  887MOL0     H17069  -2.167   2.709   0.988  0.5880  0.9958  0.4386
  887MOL0     H17070  -0.391   2.879   1.344 -3.2954  0.4392  2.6024
  887MOL0     H17071  -0.148   2.833   1.382  1.9656  1.7587 -1.0648
  887MOL0     H17072   0.297   2.734   1.457 -2.2459  1.6310 -1.5381
  887MOL0     H17073   0.530   2.757   1.464 -0.1901  0.0960  0.7965
  887MOL0     H17074   0.699   2.939   1.368 -1.3522  1.0352 -1.6331
  887MOL0     H17075   0.841   2.944   1.470  0.7411  2.0076 -0.1679
  887MOL0     H17076   0.802   3.138   1.306  1.5438  0.5355  0.9560
  887MOL0     H17077   0.644   3.162   1.389  0.6722  2.0451 -3.7898
  887MOL0     H17078   0.931   3.172   1.496 -1.9350 -0.6165 -2.6941
  887MOL0     H17079   0.797   3.197   1.600  0.5934  0.9654  2.4768
  887MOL0     H17080   0.900   3.391   1.382 -2.7756 -0.1301 -1.5895
  887MOL0     H17081   0.727   3.397   1.446 -1.5152 -1.8844  2.1326
  887MOL0     H17082   0.908   3.554   1.779 -0.7811  1.1109  0.1331
  887MOL0     H17083   0.475   3.175   1.600 -2.2515  0.6607  1.6658
  887MOL0     H17084   0.249   3.143   1.589  0.8260  0.0006  1.4707
  888MOL0     O17085   1.480   6.523   4.820  0.0035  0.0931 -0.0488
  888MOL0     C17086   1.437   6.541   4.703 -0.8095 -0.2581 -0.1947
  888MOL0     O17087   1.322   6.485   4.660  0.0614  0.1133 -0.2772
  888MOL0     C17088   1.211   6.491   4.751 -0.1113  0.5482  0.0511
  888MOL0     C17089   1.120   6.384   4.745  0.2877  0.0499 -0.6510
  888MOL0     C17090   1.002   6.384   4.820  0.6292 -0.3544  0.4251
  888MOL0     C17091   0.966   6.483   4.908 -0.4828  0.3674  1.0646
  888MOL0     O17092   0.858   6.475   4.989  0.4803  0.7854 -0.2652
  888MOL0     C17093   0.827   6.573   5.084 -0.1446 -0.3425  1.0988
  888MOL0     C17094   0.753   6.688   5.015  0.7614 -0.0503  0.0442
  888MOL0     C17095   0.628   6.651   4.935  0.1068  0.1628  0.2985
  888MOL0     C17096   0.516   6.604   5.020 -0.1033 -0.4658  0.3574
  888MOL0     C17097   0.387   6.626   4.928  0.6638 -0.1314  0.5380
  888MOL0     C17098   0.262   6.562   4.988 -0.4665 -0.1754 -0.9025
  888MOL0     C17099   0.145   6.606   4.905  0.3300 -0.3012 -0.2530
  888MOL0     C17100   0.021   6.567   4.981  0.5310 -0.1273 -0.1545
  888MOL0     N17101  -0.042   6.444   4.926  0.0929  0.7472 -0.0342
  888MOL0     C17102  -0.137   6.441   4.822 -0.6031  0.1802  0.3210
  888MOL0     C17103  -0.164   6.304   4.814  0.3047 -0.7594 -0.7563
  888MOL0     C17104  -0.254   6.241   4.716  0.3495  0.4164 -0.0946
  888MOL0     C17105  -0.353   6.333   4.650  0.5489  0.5906 -0.0355
  888MOL0     C17106  -0.454   6.263   4.563 -0.4630  0.9336  0.1651
  888MOL0     C17107  -0.566   6.375   4.545 -1.2989  1.2373  0.6365
  888MOL0     O17108  -0.665   6.375   4.648 -0.1509  0.0587 -0.5965
  888MOL0     C17109  -0.780   6.301   4.642 -0.1597 -0.9046 -0.2003
  888MOL0     C17110  -0.885   6.340   4.728 -0.9137  0.2607  0.4986
  888MOL0     C17111  -1.001   6.258   4.735  0.9361  0.1202 -0.4706
  888MOL0     C17112  -1.007   6.138   4.659 -1.0062  0.3651  0.4502
  888MOL0     C17113  -1.125   6.049   4.673  0.6802  0.0340  0.2544
  888MOL0     O17114  -1.102   5.913   4.715 -0.7635  0.1208  0.2863
  888MOL0     C17115  -1.204   5.823   4.718  0.7687 -0.3716  0.4705
  888MOL0     C17116  -1.289   5.814   4.603 -0.7502  0.0666 -0.4762
  888MOL0     C17117  -1.404   5.729   4.611 -0.6512  0.2544 -0.9679
  888MOL0     C17118  -1.434   5.658   4.728  0.0611 -1.0780  0.5141
  888MOL0     O17119  -1.543   5.578   4.716 -0.0955  0.3913 -0.1761
  888MOL0     C17120  -1.602   5.523   4.835 -0.2968  0.2404  0.1554
  888MOL0     C17121  -1.687   5.623   4.912  0.2098 -0.1856  0.1664
  888MOL0     C17122  -1.824   5.675   4.849 -0.2216 -0.2653  0.3373
  888MOL0     C17123  -1.912   5.577   4.773  0.3294  0.8331  0.2422
  888MOL0     C17124  -2.002   5.481   4.850 -0.0629 -0.7578 -0.8226
  888MOL0     C17125  -2.093   5.395   4.769  0.7890  0.8948 -0.0829
  888MOL0     C17126  -2.188   5.316   4.867  0.3824 -0.0534 -0.2139
  888MOL0     C17127  -2.261   5.217   4.770  0.0728  0.0003 -1.1497
  888MOL0    Cl17128  -2.156   5.098   4.691  0.0552 -0.1383  0.3368
  888MOL0     C17129  -1.343   5.676   4.837 -0.2512  0.6281 -0.1233
  888MOL0     C17130  -1.224   5.745   4.834  0.1920  0.9635 -0.3086
  888MOL0     O17131  -1.238   6.101   4.658 -0.2048 -0.4785 -0.0331
  888MOL0     C17132  -0.911   6.104   4.570 -1.4799 -0.1131 -0.0267
  888MOL0     C17133  -0.796   6.187   4.561  0.0440 -0.4670 -0.4399
  888MOL0     N17134  -0.089   6.238   4.913  0.5405  1.4286  0.4876
  888MOL0     N17135  -0.017   6.319   4.978 -0.2962 -0.5840  0.3682
  888MOL0     C17136   1.061   6.590   4.914 -0.5021  0.3917  0.1372
  888MOL0     C17137   1.188   6.594   4.843  0.3867 -0.7336  0.2408
  888MOL0     C17138   1.536   6.602   4.610  0.5651 -0.1365  0.0236
  888MOL0     C17139   1.674   6.615   4.648  0.0035  1.0062 -0.2114
  888MOL0     C17140   1.761   6.673   4.562 -0.5581 -0.4169  0.1272
  888MOL0     C17141   1.714   6.722   4.443 -1.1910  0.8604  0.6082
  888MOL0     O17142   1.816   6.771   4.361  0.3381 -0.9265 -0.7060
  888MOL0     C17143   1.800   6.880   4.266  0.5436 -0.0308 -0.0354
  888MOL0     C17144   1.922   6.955   4.244  0.0173 -0.7291  0.1685
  888MOL0     C17145   2.049   6.877   4.218  0.4426  0.2694 -0.0478
  888MOL0     C17146   2.165   6.968   4.179  0.0097 -1.1196 -0.0182
  888MOL0     C17147   2.280   6.885   4.176  0.2236 -0.8650 -0.7561
  888MOL0     C17148   2.388   6.826   4.190  0.1733 -0.0694  0.2029
  888MOL0     C17149   1.581   6.721   4.410  0.0152 -0.4317  0.1408
  888MOL0     C17150   1.491   6.650   4.485 -0.6284  0.4839 -0.3115
  888MOL0     H17151   1.137   6.296   4.684 -2.1503 -1.4282  0.6356
  888MOL0     H17152   0.926   6.307   4.810 -0.0638 -0.1056  3.0184
  888MOL0     H17153   0.918   6.606   5.133  0.5097 -0.6507  0.1209
  888MOL0     H17154   0.762   6.537   5.164 -1.4443  1.5668  0.9639
  888MOL0     H17155   0.819   6.737   4.943 -1.1372  0.6127 -1.3260
  888MOL0     H17156   0.730   6.753   5.100  1.0284 -1.8651  1.5466
  888MOL0     H17157   0.662   6.568   4.871  2.1918  0.6800  0.6454
  888MOL0     H17158   0.599   6.734   4.869  2.1258 -0.1206 -1.0435
  888MOL0     H17159   0.534   6.499   5.042  1.4405 -0.4514 -0.6382
  888MOL0     H17160   0.509   6.658   5.115  0.0502  1.7526 -0.8149
  888MOL0     H17161   0.402   6.576   4.832 -1.1581  2.5422 -1.2779
  888MOL0     H17162   0.358   6.730   4.913 -2.9735 -1.0163  0.5934
  888MOL0     H17163   0.252   6.608   5.086 -1.8028  0.4226 -1.2998
  888MOL0     H17164   0.268   6.454   5.006  1.6554  0.3253  2.2813
  888MOL0     H17165   0.146   6.714   4.888  1.0661 -0.3510 -0.5617
  888MOL0     H17166   0.140   6.547   4.813 -2.5317 -0.2415 -0.2338
  888MOL0     H17167  -0.052   6.648   4.976 -1.0525 -1.5522 -1.3594
  888MOL0     H17168   0.044   6.549   5.086  2.2486  0.2719 -0.4304
  888MOL0     H17169  -0.174   6.531   4.774 -2.0027  0.5462  1.9863
  888MOL0     H17170  -0.312   6.178   4.785 -0.0912  1.2963  0.3508
  888MOL0     H17171  -0.199   6.179   4.644 -0.0455 -2.7860  2.1470
  888MOL0     H17172  -0.303   6.407   4.587  0.1973 -0.6737 -1.8778
  888MOL0     H17173  -0.410   6.394   4.721 -0.0370  4.0792 -3.1626
  888MOL0     H17174  -0.406   6.227   4.471 -2.1458 -1.2093  0.0415
  888MOL0     H17175  -0.498   6.175   4.611 -0.4389  0.6231 -0.3756
  888MOL0     H17176  -0.599   6.368   4.441 -0.4540  1.4321  0.3458
  888MOL0     H17177  -0.519   6.473   4.557  0.2774  0.4188  1.4572
  888MOL0     H17178  -0.864   6.408   4.810  3.4820 -1.1075  0.7589
  888MOL0     H17179  -1.083   6.282   4.801 -0.0948  0.0906 -1.7018
  888MOL0     H17180  -1.277   5.868   4.510 -0.3762 -0.9610 -1.0369
  888MOL0     H17181  -1.478   5.719   4.533 -1.5606  2.7043 -0.5264
  888MOL0     H17182  -1.525   5.479   4.899 -1.5407  0.6811  2.0096
  888MOL0     H17183  -1.667   5.438   4.817 -2.5604  2.1036 -0.9919
  888MOL0     H17184  -1.632   5.711   4.947 -1.6386  0.7121  0.9620
  888MOL0     H17185  -1.707   5.557   4.997 -0.1500  0.7169  0.7920
  888MOL0     H17186  -1.797   5.751   4.775  0.0290  1.4905  2.1531
  888MOL0     H17187  -1.881   5.731   4.924 -2.7928 -2.2328 -0.0017
  888MOL0     H17188  -1.983   5.645   4.725 -2.2819  0.1419  2.8526
  888MOL0     H17189  -1.846   5.520   4.706  1.2079  1.1912  0.7887
  888MOL0     H17190  -2.070   5.536   4.915  0.9249 -1.6904  1.0839
  888MOL0     H17191  -1.936   5.436   4.925  0.7963  1.6988  0.0093
  888MOL0     H17192  -2.042   5.336   4.692 -0.5890  1.5307 -1.5392
  888MOL0     H17193  -2.160   5.454   4.706  0.6111 -0.9340 -1.6961
  888MOL0     H17194  -2.132   5.252   4.936  0.5487 -1.3924 -1.5595
  888MOL0     H17195  -2.253   5.388   4.917  2.0469  1.6982 -0.4361
  888MOL0     H17196  -2.295   5.285   4.691  3.6028  1.1154 -1.9044
  888MOL0     H17197  -2.344   5.163   4.816 -1.7578  1.8532 -2.1427
  888MOL0     H17198  -1.359   5.624   4.930 -1.4086 -1.4177 -1.4016
  888MOL0     H17199  -1.161   5.750   4.921  1.9351 -1.1439 -1.3727
  888MOL0     H17200  -0.916   6.002   4.535  0.8230 -0.9284  1.7589
  888MOL0     H17201  -0.706   6.161   4.506  0.0954  0.9163 -1.0471
  888MOL0     H17202   1.036   6.672   4.980 -0.4152 -0.5742  1.4097
  888MOL0     H17203   1.262   6.673   4.858  0.1876 -0.8201  1.8474
  888MOL0     H17204   1.720   6.565   4.732  1.7145  0.6707 -1.2957
  888MOL0     H17205   1.866   6.675   4.591 -0.7467  4.5709  1.3511
  888MOL0     H17206   1.721   6.949   4.298  1.2821  0.4962  0.7139
  888MOL0     H17207   1.778   6.829   4.172  1.6616 -1.0270  0.2259
  888MOL0     H17208   1.898   7.016   4.157  0.3392 -0.0991  0.5119
  888MOL0     H17209   1.944   7.013   4.334 -2.9722  0.3159  0.3219
  888MOL0     H17210   2.039   6.814   4.130 -1.0950  0.1059  0.2098
  888MOL0     H17211   2.074   6.813   4.304 -0.4673 -1.9924 -1.3817
  888MOL0     H17212   2.138   7.019   4.087 -3.0257 -0.5279  1.1018
  888MOL0     H17213   2.178   7.048   4.253  3.0053  0.6850 -2.2602
  888MOL0     H17214   2.477   6.767   4.202  1.0343  0.6023 -2.3155
  888MOL0     H17215   1.535   6.763   4.321 -0.8278 -0.0712  0.7342
  888MOL0     H17216   1.387   6.634   4.458 -0.5522 -0.2334 -0.1977
  889MOL0     O17217  11.296   6.779   8.730  0.8075 -0.2981  0.4158
  889MOL0     C17218  11.331   6.887   8.768 -0.9480 -0.3014 -0.6513
  889MOL0     O17219  11.277   6.961   8.865  0.5134  0.6104  0.1040
  889MOL0     C17220  11.135   6.965   8.865 -0.0199  0.1840 -0.1297
  889MOL0     C17221  11.071   7.046   8.971 -0.5933  0.2621  0.6453
  889MOL0     C17222  10.931   7.063   8.983 -1.0501 -0.4518 -0.3127
  889MOL0     C17223  10.855   6.991   8.885 -0.2824 -0.5731 -0.1403
  889MOL0     O17224  10.720   7.002   8.868 -0.3558  0.1210 -0.0810
  889MOL0     C17225  10.648   7.088   8.956 -0.2088 -0.3525  0.5942
  889MOL0     C17226  10.504   7.075   8.935 -0.2427 -0.1432 -0.5315
  889MOL0     C17227  10.422   7.167   9.033 -0.1823  0.3175  1.0529
  889MOL0     C17228  10.273   7.138   9.003  0.0884 -0.0552 -0.0205
  889MOL0     C17229  10.200   7.248   9.069  0.8875  0.2565 -0.3676
  889MOL0     C17230  10.058   7.227   9.053  0.1776 -1.1362 -1.2367
  889MOL0     C17231   9.970   7.340   9.106  0.2956 -0.4335  0.1710
  889MOL0     C17232   9.977   7.362   9.252 -1.3250 -0.6637 -0.3983
  889MOL0     N17233   9.870   7.458   9.292 -0.2987 -0.1300 -0.1462
  889MOL0     C17234   9.766   7.415   9.364 -0.0932  0.3915 -0.4896
  889MOL0     C17235   9.672   7.518   9.356  0.5557 -0.0418 -0.2415
  889MOL0     C17236   9.532   7.513   9.414  1.1629  0.6204  1.3005
  889MOL0     C17237   9.427   7.448   9.320  0.6663  0.3418 -0.8968
  889MOL0     C17238   9.296   7.407   9.401 -0.1193  0.2152 -0.2923
  889MOL0     C17239   9.166   7.397   9.321 -0.7084 -0.7349 -0.3617
  889MOL0     O17240   9.149   7.513   9.235 -0.4509  0.4138 -0.4019
  889MOL0     C17241   9.024   7.535   9.180 -0.4320  0.3918 -0.5065
  889MOL0     C17242   8.927   7.435   9.194  0.4547  0.3037  0.0127
  889MOL0     C17243   8.799   7.446   9.137  0.0579  0.6153  0.3905
  889MOL0     C17244   8.763   7.562   9.071 -0.2006 -0.0450 -0.1414
  889MOL0     C17245   8.634   7.579   9.002  0.3450 -0.2469  1.0034
  889MOL0     O17246   8.563   7.472   8.968  0.7100  0.2908  0.5554
  889MOL0     C17247   8.444   7.491   8.906 -0.1623 -0.8043 -0.2883
  889MOL0     C17248   8.341   7.555   8.976  0.5701 -0.0824 -0.3178
  889MOL0     C17249   8.218   7.580   8.919  0.4141  0.5721 -0.0244
  889MOL0     C17250   8.185   7.535   8.792 -0.5092 -0.3486  0.2027
  889MOL0     O17251   8.066   7.566   8.736 -0.8225  0.0453 -0.4180
  889MOL0     C17252   7.985   7.454   8.707 -0.5129  0.1120 -0.3214
  889MOL0     C17253   7.908   7.429   8.826  0.5028 -0.6929  0.3640
  889MOL0     C17254   7.787   7.348   8.797  0.3550 -0.2953  0.0851
  889MOL0     C17255   7.714   7.298   8.914  0.3727 -0.0909 -0.6369
  889MOL0     C17256   7.573   7.243   8.873 -0.8823 -0.6988  0.1864
  889MOL0     C17257   7.513   7.173   8.989 -0.5911 -0.3524  0.9687
  889MOL0     C17258   7.366   7.137   8.948 -1.1207  0.6466 -0.1837
  889MOL0     C17259   7.305   7.098   9.089 -1.0859  0.0996  0.4371
  889MOL0    Cl17260   7.134   7.051   9.074  0.5132  0.1752  0.1056
  889MOL0     C17261   8.287   7.463   8.726  0.9416 -0.3359 -0.2800
  889MOL0     C17262   8.408   7.439   8.787 -0.1192  0.6542 -0.3488
  889MOL0     O17263   8.597   7.693   8.969  0.2258  0.4188 -0.2882
  889MOL0     C17264   8.854   7.672   9.070  0.6811  0.0608 -0.6137
  889MOL0     C17265   8.987   7.661   9.126  0.0998 -0.9373  0.3572
  889MOL0     N17266   9.742   7.622   9.297  0.2228  0.4417  0.2110
  889MOL0     N17267   9.859   7.589   9.258 -0.1692 -0.0211 -1.2885
  889MOL0     C17268  10.905   6.904   8.799 -0.1273 -0.8226 -0.0162
  889MOL0     C17269  11.041   6.889   8.788 -0.3555 -0.2773  0.6435
  889MOL0     C17270  11.456   6.940   8.714  0.1022  0.7228  0.3188
  889MOL0     C17271  11.505   7.057   8.772 -0.1077 -0.6942 -0.5459
  889MOL0     C17272  11.630   7.115   8.730  0.7389  0.3736 -0.5727
  889MOL0     C17273  11.705   7.057   8.623  0.5913  0.8483  0.3361
  889MOL0     O17274  11.825   7.115   8.585 -0.2898 -0.3071  0.2987
  889MOL0     C17275  11.881   7.222   8.664 -0.2097 -0.0671 -0.2716
  889MOL0     C17276  12.033   7.221   8.628  0.1513 -1.0072  0.3663
  889MOL0     C17277  12.108   7.102   8.686 -0.0358 -0.7858 -0.7656
  889MOL0     C17278  12.264   7.113   8.678 -0.7550  0.1391  0.4142
  889MOL0     C17279  12.322   7.177   8.793 -0.1981 -0.4137 -0.3294
  889MOL0     C17280  12.364   7.250   8.879 -0.5751 -0.7770  0.3528
  889MOL0     C17281  11.655   6.934   8.571  0.1805 -0.2229  0.1610
  889MOL0     C17282  11.530   6.880   8.613  0.3961 -0.2289  0.0908
  889MOL0     H17283  11.122   7.104   9.047  0.1102 -0.1838  0.5167
  889MOL0     H17284  10.896   7.122   9.067 -3.6800 -1.2415 -0.7668
  889MOL0     H17285  10.687   7.187   8.931 -3.5721  0.6190 -1.5008
  889MOL0     H17286  10.668   7.070   9.062 -1.3937 -0.8209  0.7568
  889MOL0     H17287  10.477   6.971   8.959  3.8049 -0.8707  1.8316
  889MOL0     H17288  10.494   7.095   8.828 -1.6048 -4.0561 -1.3191
  889MOL0     H17289  10.433   7.274   9.012 -0.2519  0.3719  1.2895
  889MOL0     H17290  10.457   7.144   9.134  1.9422  0.7563  0.4723
  889MOL0     H17291  10.255   7.142   8.896  0.0406  1.5070  0.0146
  889MOL0     H17292  10.265   7.034   9.034 -0.7691  0.0790  0.2371
  889MOL0     H17293  10.214   7.346   9.022 -2.1684  2.1544  2.2167
  889MOL0     H17294  10.236   7.248   9.172  1.4895 -0.7964 -0.5664
  889MOL0     H17295  10.037   7.135   9.107  1.0575 -0.0776  1.0475
  889MOL0     H17296  10.034   7.206   8.948  0.9363  0.3809 -1.7519
  889MOL0     H17297   9.996   7.436   9.059  2.3124 -1.1488 -0.2877
  889MOL0     H17298   9.864   7.320   9.090 -1.3275  2.9539  4.5244
  889MOL0     H17299  10.077   7.397   9.279 -1.3236  0.4823 -1.7661
  889MOL0     H17300   9.951   7.267   9.301 -1.4250 -0.3207  0.2269
  889MOL0     H17301   9.741   7.315   9.396 -1.5663  0.8671 -0.0787
  889MOL0     H17302   9.500   7.617   9.425 -3.6961 -0.3121 -1.2017
  889MOL0     H17303   9.536   7.451   9.505  0.7445  0.2442  1.0637
  889MOL0     H17304   9.459   7.355   9.273 -1.2905 -2.1931  2.2974
  889MOL0     H17305   9.396   7.520   9.244 -0.2401  2.0928  1.0393
  889MOL0     H17306   9.320   7.308   9.442 -1.3950 -0.5144 -1.2200
  889MOL0     H17307   9.277   7.477   9.482 -0.0218  0.9108 -0.8559
  889MOL0     H17308   9.090   7.380   9.398 -3.5182 -2.3133 -3.2450
  889MOL0     H17309   9.164   7.308   9.258  1.4795 -0.9697 -0.1590
  889MOL0     H17310   8.950   7.339   9.238  1.3047  0.9740  1.0821
  889MOL0     H17311   8.740   7.355   9.147  0.8203 -0.0787 -1.1508
  889MOL0     H17312   8.368   7.603   9.070 -0.8807  0.1591  0.0018
  889MOL0     H17313   8.145   7.635   8.977  0.9591 -0.9104  2.2204
  889MOL0     H17314   8.034   7.362   8.673 -1.1172  0.0615 -1.0900
  889MOL0     H17315   7.917   7.477   8.625 -0.9418 -1.1211 -0.3341
  889MOL0     H17316   7.878   7.525   8.869 -1.3619 -0.0095 -2.2805
  889MOL0     H17317   7.968   7.380   8.904 -1.5376 -1.2461  1.6742
  889MOL0     H17318   7.812   7.269   8.725  0.9046  1.8758 -2.2516
  889MOL0     H17319   7.713   7.416   8.752 -1.5845 -1.6590  1.0408
  889MOL0     H17320   7.773   7.219   8.961  0.7328 -0.5771 -1.8638
  889MOL0     H17321   7.703   7.381   8.985  1.7830 -0.7832  0.4552
  889MOL0     H17322   7.593   7.178   8.787  0.0739  0.5229 -0.5503
  889MOL0     H17323   7.507   7.325   8.844 -0.0299 -0.0351  0.0689
  889MOL0     H17324   7.508   7.232   9.081 -0.1339 -0.3947  1.0255
  889MOL0     H17325   7.573   7.086   9.019  1.0163 -0.7429 -2.8006
  889MOL0     H17326   7.316   7.215   8.889  0.2182  0.7704 -1.2000
  889MOL0     H17327   7.358   7.046   8.887 -1.3252  2.1672 -2.5516
  889MOL0     H17328   7.307   7.193   9.144 -3.9780  0.6633 -0.2555
  889MOL0     H17329   7.354   7.019   9.147 -0.4527  0.1746  0.0119
  889MOL0     H17330   8.260   7.415   8.633 -1.0381 -1.3663  0.7382
  889MOL0     H17331   8.486   7.382   8.737  0.8458 -0.6474  2.3964
  889MOL0     H17332   8.824   7.763   9.019  1.1317  1.4934  1.5367
  889MOL0     H17333   9.055   7.744   9.119 -1.5612  0.3954 -0.8552
  889MOL0     H17334  10.842   6.850   8.730 -1.8015  2.3924 -1.2117
  889MOL0     H17335  11.077   6.819   8.713  0.0003 -2.0296  2.3869
  889MOL0     H17336  11.434   7.114   8.831  1.6330  0.8727  0.1351
  889MOL0     H17337  11.657   7.217   8.754  1.7551  0.2952 -1.3141
  889MOL0     H17338  11.881   7.194   8.770 -3.1664  0.4183 -0.0658
  889MOL0     H17339  11.823   7.313   8.647  1.3287  0.9913 -0.1287
  889MOL0     H17340  12.046   7.242   8.521  1.9359  1.9337  1.0434
  889MOL0     H17341  12.070   7.307   8.685 -2.0941  1.0715 -1.0610
  889MOL0     H17342  12.067   7.017   8.629  0.6400 -0.1741 -2.2233
  889MOL0     H17343  12.062   7.086   8.784 -2.0800  1.1974 -1.3229
  889MOL0     H17344  12.310   7.013   8.674 -2.1538 -0.5174  0.2851
  889MOL0     H17345  12.309   7.165   8.592 -0.7618  0.3077  0.5134
  889MOL0     H17346  12.393   7.306   8.966  3.7650  0.0784 -1.3813
  889MOL0     H17347  11.708   6.883   8.492 -1.0879 -0.5343 -0.5121
  889MOL0     H17348  11.504   6.788   8.561  0.0572  0.3793 -0.8406
  890MOL0     O17349  10.432   2.806   3.875 -0.4502 -0.0249 -0.3466
  890MOL0     C17350  10.313   2.790   3.855 -0.3144 -0.6510 -0.6776
  890MOL0     O17351  10.251   2.782   3.736 -0.2374 -0.0441 -0.7596
  890MOL0     C17352  10.330   2.777   3.628 -0.7293 -0.5126 -0.5574
  890MOL0     C17353  10.431   2.683   3.617 -1.0250 -0.7401 -0.3150
  890MOL0     C17354  10.520   2.673   3.510  0.7584  0.2467 -0.2766
  890MOL0     C17355  10.514   2.769   3.407 -0.9723  0.1145 -0.3093
  890MOL0     O17356  10.598   2.770   3.297 -0.0320 -0.0762 -0.5084
  890MOL0     C17357  10.718   2.696   3.293 -0.6033  0.9318  0.0735
  890MOL0     C17358  10.792   2.720   3.161 -0.1885 -0.0396 -0.2114
  890MOL0     C17359  10.916   2.627   3.139 -1.2450  0.5155 -0.2488
  890MOL0     C17360  11.038   2.669   3.231  0.0101 -0.3311 -0.5350
  890MOL0     C17361  11.138   2.557   3.270  0.4195 -0.6812 -0.1461
  890MOL0     C17362  11.205   2.502   3.155 -0.1806 -1.2394  1.0530
  890MOL0     C17363  11.358   2.498   3.179  0.7706 -0.3651 -0.1927
  890MOL0     C17364  11.404   2.372   3.267  0.0286 -0.1706 -0.1474
  890MOL0     N17365  11.357   2.367   3.408  0.5486  0.1929 -0.6020
  890MOL0     C17366  11.378   2.469   3.501 -0.0776 -0.2472  0.9311
  890MOL0     C17367  11.348   2.412   3.617 -0.4413 -0.0279  0.8402
  890MOL0     C17368  11.346   2.465   3.755 -0.3574  0.8922  0.3594
  890MOL0     C17369  11.264   2.599   3.775 -0.7269 -0.3160 -0.2083
  890MOL0     C17370  11.113   2.577   3.790  0.5782  0.0793  0.1839
  890MOL0     C17371  11.042   2.527   3.662 -0.0402  0.3101  0.3301
  890MOL0     O17372  10.896   2.546   3.656 -0.2089  0.6191 -0.0681
  890MOL0     C17373  10.817   2.476   3.739  1.4245  0.1087 -0.2881
  890MOL0     C17374  10.814   2.339   3.745  0.3766  0.4868  0.2038
  890MOL0     C17375  10.715   2.270   3.818  0.6298  0.0046  0.7388
  890MOL0     C17376  10.621   2.352   3.897  1.3412  0.1965  0.9269
  890MOL0     C17377  10.516   2.292   3.988 -1.1233  0.0115 -0.7620
  890MOL0     O17378  10.458   2.374   4.067 -0.4603 -0.1407 -0.0602
  890MOL0     C17379  10.373   2.349   4.169  0.2115 -0.0583 -0.6665
  890MOL0     C17380  10.296   2.450   4.220  0.3690 -0.8001 -0.3242
  890MOL0     C17381  10.215   2.431   4.332  0.2372  1.0834  0.3659
  890MOL0     C17382  10.196   2.296   4.383 -0.7873 -0.6840  0.1581
  890MOL0     O17383  10.111   2.276   4.486  0.3313  0.4091  0.3070
  890MOL0     C17384  10.132   2.155   4.573 -1.0759 -0.7042 -0.3212
  890MOL0     C17385  10.041   2.171   4.697 -0.8229  0.4510  1.2580
  890MOL0     C17386  10.081   2.281   4.797 -0.0344  0.3170 -0.4332
  890MOL0     C17387  10.040   2.233   4.942 -0.7957  0.5615  0.6406
  890MOL0     C17388  10.085   2.332   5.051  0.0412 -0.4202  0.9397
  890MOL0     C17389  10.224   2.299   5.106  0.1170  0.5738  0.0876
  890MOL0     C17390  10.261   2.383   5.225 -0.7929 -0.4423  0.5271
  890MOL0     C17391  10.309   2.523   5.200 -0.6523  0.6600 -0.6977
  890MOL0    Cl17392  10.272   2.597   5.361  0.2011  0.1383  0.0015
  890MOL0     C17393  10.272   2.190   4.324 -0.2039  0.4458 -0.5216
  890MOL0     C17394  10.378   2.217   4.231  0.4646 -0.7943 -0.1119
  890MOL0     O17395  10.494   2.167   3.985 -0.1167 -0.8354  0.3760
  890MOL0     C17396  10.617   2.493   3.883  0.2443  0.3216  0.9583
  890MOL0     C17397  10.716   2.551   3.808  0.0172  0.0802 -0.4653
  890MOL0     N17398  11.315   2.279   3.599  0.6629  0.0981 -0.4651
  890MOL0     N17399  11.320   2.256   3.472  0.2351  0.9929 -0.0297
  890MOL0     C17400  10.422   2.877   3.425 -0.3266  0.6679 -0.3263
  890MOL0     C17401  10.328   2.883   3.532 -0.9125 -0.1300 -0.6463
  890MOL0     C17402  10.232   2.786   3.982  0.1466  0.2912  0.1601
  890MOL0     C17403  10.246   2.880   4.086 -0.0215 -0.2603  0.4479
  890MOL0     C17404  10.161   2.883   4.201 -0.6927 -1.2860  0.8648
  890MOL0     C17405  10.051   2.794   4.208  0.0451 -0.3322 -0.5081
  890MOL0     O17406   9.967   2.813   4.317  0.1357  0.5110 -0.0780
  890MOL0     C17407   9.835   2.755   4.316  0.0916 -0.0976  0.2136
  890MOL0     C17408   9.727   2.854   4.279 -0.0292 -0.2588 -0.7407
  890MOL0     C17409   9.739   2.899   4.134  0.2651  0.0030 -0.4319
  890MOL0     C17410   9.698   2.783   4.032 -0.1294 -0.9423 -0.0687
  890MOL0     C17411   9.744   2.826   3.895  0.0014  0.1400 -0.1748
  890MOL0     C17412   9.792   2.856   3.789  0.1473  0.0587  0.0386
  890MOL0     C17413  10.042   2.694   4.112  0.7476 -0.2596  0.7496
  890MOL0     C17414  10.129   2.690   3.995 -0.1217  0.0765 -0.2926
  890MOL0     H17415  10.439   2.600   3.686  1.8501  0.3094  0.7394
  890MOL0     H17416  10.588   2.588   3.503  1.7597  1.0674 -0.8452
  890MOL0     H17417  10.690   2.590   3.294  1.2277  0.4193  0.4052
  890MOL0     H17418  10.781   2.717   3.380 -1.2480 -0.1497  0.8259
  890MOL0     H17419  10.829   2.822   3.157  2.0057 -0.8134 -1.1566
  890MOL0     H17420  10.721   2.699   3.081  1.3248 -1.6640 -1.2097
  890MOL0     H17421  10.945   2.632   3.034 -2.8747  0.4137 -0.7349
  890MOL0     H17422  10.895   2.519   3.140  0.0698  0.2432 -0.8771
  890MOL0     H17423  11.096   2.742   3.174 -0.3612 -1.4213 -2.3690
  890MOL0     H17424  10.996   2.709   3.324  2.4027 -2.0492  1.3947
  890MOL0     H17425  11.080   2.489   3.332 -0.3437 -1.6321 -1.8344
  890MOL0     H17426  11.206   2.605   3.342  1.0099  0.9007 -1.6746
  890MOL0     H17427  11.191   2.563   3.066  2.9139 -3.3764 -1.1115
  890MOL0     H17428  11.163   2.404   3.132  2.9290 -2.8438  1.6035
  890MOL0     H17429  11.406   2.487   3.082 -1.4047  2.2686 -1.6963
  890MOL0     H17430  11.394   2.596   3.211  1.1194 -0.2761 -0.8391
  890MOL0     H17431  11.511   2.388   3.253 -0.5874  1.3566 -4.5141
  890MOL0     H17432  11.384   2.278   3.217 -0.2533  0.6803 -1.6822
  890MOL0     H17433  11.432   2.563   3.491  0.8674 -0.4433  3.3575
  890MOL0     H17434  11.453   2.471   3.775  0.1499 -0.9344 -1.4386
  890MOL0     H17435  11.313   2.389   3.826 -4.7725  0.2076 -2.0773
  890MOL0     H17436  11.290   2.671   3.696  3.8779  0.3259  1.5702
  890MOL0     H17437  11.305   2.649   3.863 -2.7461  0.7260  0.2061
  890MOL0     H17438  11.100   2.512   3.876  0.5981  1.2136  1.0714
  890MOL0     H17439  11.064   2.672   3.815  2.2859  0.4460  2.4388
  890MOL0     H17440  11.060   2.419   3.661 -0.4472  0.2426 -0.3857
  890MOL0     H17441  11.093   2.582   3.583  1.3656  1.1474  1.7652
  890MOL0     H17442  10.887   2.283   3.688 -0.5811 -1.0089  0.3994
  890MOL0     H17443  10.731   2.163   3.822 -0.6656 -0.4029 -2.2822
  890MOL0     H17444  10.304   2.548   4.174 -0.9378 -1.7491 -2.7667
  890MOL0     H17445  10.154   2.515   4.361 -0.1432  0.3722  1.7491
  890MOL0     H17446  10.236   2.153   4.608 -1.0882 -1.9262 -0.3427
  890MOL0     H17447  10.106   2.058   4.531 -2.5015 -1.3386  1.8348
  890MOL0     H17448  10.049   2.071   4.740  0.5532 -1.4762 -2.9091
  890MOL0     H17449   9.940   2.188   4.659 -0.6845  1.1675  1.1888
  890MOL0     H17450  10.029   2.376   4.780  0.4524  0.8930  1.0888
  890MOL0     H17451  10.188   2.299   4.799  0.7349 -3.4580  0.1043
  890MOL0     H17452   9.933   2.218   4.927 -0.4048 -0.6829 -1.2932
  890MOL0     H17453  10.080   2.133   4.965  1.6793  0.7556 -2.1446
  890MOL0     H17454  10.007   2.322   5.126 -2.9122 -0.0403 -1.8906
  890MOL0     H17455  10.082   2.440   5.035 -3.9374 -0.2858  1.7074
  890MOL0     H17456  10.307   2.307   5.034  1.5300 -3.2959  1.0144
  890MOL0     H17457  10.226   2.198   5.148  0.9529 -0.0632 -1.3793
  890MOL0     H17458  10.174   2.387   5.291  0.2827 -1.8457  2.1335
  890MOL0     H17459  10.334   2.329   5.286 -0.5171  0.7289  1.2585
  890MOL0     H17460  10.266   2.572   5.112  2.3253 -0.0411 -2.6598
  890MOL0     H17461  10.418   2.531   5.193 -0.6241 -0.1358 -1.1945
  890MOL0     H17462  10.255   2.092   4.366 -2.4362  1.3521  0.9190
  890MOL0     H17463  10.448   2.137   4.210  3.7597  1.6741  0.5942
  890MOL0     H17464  10.549   2.558   3.936 -1.0008 -0.3633  0.2470
  890MOL0     H17465  10.705   2.657   3.793  3.4914  0.9152  1.7542
  890MOL0     H17466  10.432   2.952   3.348 -0.9702  1.3015  0.1928
  890MOL0     H17467  10.268   2.972   3.550  1.4743  1.1591  1.6052
  890MOL0     H17468  10.317   2.960   4.065 -0.5665 -0.4278 -2.3442
  890MOL0     H17469  10.180   2.955   4.280 -1.1621 -1.6765  1.3413
  890MOL0     H17470   9.820   2.727   4.420  1.0877 -0.4630  0.2745
  890MOL0     H17471   9.823   2.666   4.254 -0.4719  0.0264  0.1395
  890MOL0     H17472   9.633   2.798   4.289  0.2230 -0.4837  0.5845
  890MOL0     H17473   9.737   2.942   4.343 -0.7439  1.2794 -2.6318
  890MOL0     H17474   9.841   2.931   4.111  0.8342 -1.0020  0.6021
  890MOL0     H17475   9.675   2.986   4.119  0.6686  0.0838 -1.8509
  890MOL0     H17476   9.752   2.689   4.053  1.4218 -0.4791 -1.7393
  890MOL0     H17477   9.591   2.764   4.027 -0.9238  1.9901  2.7483
  890MOL0     H17478   9.847   2.874   3.698 -0.2567 -0.3700 -0.2923
  890MOL0     H17479   9.964   2.618   4.111  0.3819  0.0060  3.0719
  890MOL0     H17480  10.110   2.614   3.919 -0.1399 -0.0302 -0.1825
  891MOL0     O17481   6.461   8.331  10.626  0.2983  0.3371  0.4314
  891MOL0     C17482   6.471   8.281  10.747  0.3720  0.0676 -0.7449
  891MOL0     O17483   6.369   8.215  10.817  0.4273 -0.0708 -0.2884
  891MOL0     C17484   6.238   8.213  10.777  1.0185 -0.7337  0.0574
  891MOL0     C17485   6.191   8.227  10.649 -0.3464 -1.3667  0.7798
  891MOL0     C17486   6.059   8.236  10.615 -0.7427  0.9357 -0.6529
  891MOL0     C17487   5.962   8.208  10.710  0.4646 -0.1618  0.2214
  891MOL0     O17488   5.833   8.203  10.681  0.5752  0.4499 -0.8397
  891MOL0     C17489   5.777   8.210  10.553  0.2637 -0.2067  0.5339
  891MOL0     C17490   5.760   8.354  10.518 -0.1601 -0.0105  0.6526
  891MOL0     C17491   5.637   8.409  10.600 -0.1544 -0.2991  0.0759
  891MOL0     C17492   5.602   8.549  10.534 -0.2333 -0.1424 -0.6216
  891MOL0     C17493   5.513   8.637  10.623  0.1413 -0.0129 -0.4594
  891MOL0     C17494   5.541   8.783  10.579 -0.1907  0.3953  0.7328
  891MOL0     C17495   5.444   8.883  10.635 -0.2601  0.6911 -0.2720
  891MOL0     C17496   5.319   8.883  10.555  0.1446  0.4098 -0.0791
  891MOL0     N17497   5.227   8.993  10.587 -0.4921 -0.2641  0.3812
  891MOL0     C17498   5.215   9.057  10.706  0.4824  0.6390  0.0443
  891MOL0     C17499   5.129   9.153  10.689  0.2003 -0.2095 -0.4781
  891MOL0     C17500   5.069   9.235  10.804 -0.3688 -0.0802 -0.2058
  891MOL0     C17501   5.136   9.212  10.947  0.5825 -0.4377 -0.3533
  891MOL0     C17502   5.081   9.309  11.051  1.0798 -0.3352 -0.7629
  891MOL0     C17503   4.924   9.295  11.079  0.5228 -0.3810 -0.0005
  891MOL0     O17504   4.894   9.175  11.157 -0.3101 -0.0877  0.1312
  891MOL0     C17505   4.759   9.134  11.187 -0.4004 -0.8440  0.2238
  891MOL0     C17506   4.737   9.010  11.245 -0.1733 -0.1096  0.8710
  891MOL0     C17507   4.608   8.975  11.292  0.0811 -0.6554  0.2143
  891MOL0     C17508   4.494   9.059  11.272 -0.6368  0.8915  0.4365
  891MOL0     C17509   4.364   9.017  11.336  0.2632  0.3801  0.1179
  891MOL0     O17510   4.366   8.896  11.407  0.4334  1.1235  0.3270
  891MOL0     C17511   4.246   8.861  11.463 -0.2852 -0.1823 -0.2581
  891MOL0     C17512   4.177   8.760  11.392 -0.2335  0.3818 -1.1029
  891MOL0     C17513   4.052   8.722  11.449 -0.0938 -0.2494 -0.0496
  891MOL0     C17514   3.999   8.792  11.555  0.5988 -0.5937 -0.2432
  891MOL0     O17515   3.874   8.760  11.602  0.1008 -0.5754 -0.4825
  891MOL0     C17516   3.774   8.794  11.506  0.2407  0.4748  0.6784
  891MOL0     C17517   3.657   8.805  11.591  0.2153  0.8136 -0.1941
  891MOL0     C17518   3.539   8.889  11.520  0.4218  0.3192 -0.3571
  891MOL0     C17519   3.487   8.849  11.393  0.6536 -0.0707  0.4975
  891MOL0     C17520   3.362   8.928  11.357 -0.3217  0.9698  0.5995
  891MOL0     C17521   3.394   9.081  11.327  0.8987  0.0452  0.5897
  891MOL0     C17522   3.270   9.160  11.277 -0.3371 -0.0718  0.0052
  891MOL0     C17523   3.147   9.174  11.374 -1.0497  0.9500 -0.0835
  891MOL0    Cl17524   3.200   9.192  11.544 -0.3254  0.4291 -0.0864
  891MOL0     C17525   4.071   8.889  11.623  1.0114 -0.3567  0.4263
  891MOL0     C17526   4.197   8.927  11.579  0.1881 -0.0790 -0.7386
  891MOL0     O17527   4.266   9.088  11.317 -0.0883  0.5118  0.3532
  891MOL0     C17528   4.517   9.179  11.199  0.2582  0.3618  0.5083
  891MOL0     C17529   4.649   9.213  11.158  0.6569 -0.2544 -0.8948
  891MOL0     N17530   5.096   9.157  10.557  0.1796  0.4571 -0.7608
  891MOL0     N17531   5.173   9.073  10.491  0.1872  0.0674 -0.0813
  891MOL0     C17532   6.006   8.177  10.841 -0.4782  0.4000  0.4645
  891MOL0     C17533   6.142   8.195  10.873 -0.3064  0.4321 -0.0448
  891MOL0     C17534   6.603   8.306  10.807  0.2553  0.8558  0.2912
  891MOL0     C17535   6.722   8.317  10.741 -1.1867  0.4621 -0.0088
  891MOL0     C17536   6.840   8.345  10.818 -1.0843  0.3174 -0.1861
  891MOL0     C17537   6.843   8.360  10.958 -1.0757 -0.0997  0.3199
  891MOL0     O17538   6.957   8.408  11.013 -0.4749 -0.6153  0.1483
  891MOL0     C17539   7.077   8.336  10.983  0.1086 -0.7870 -0.1026
  891MOL0     C17540   7.202   8.415  11.024  0.0675  0.1209 -0.2234
  891MOL0     C17541   7.328   8.358  10.974  0.1642  0.5052 -0.5580
  891MOL0     C17542   7.442   8.441  11.026 -0.3881 -0.2302  0.5881
  891MOL0     C17543   7.561   8.405  10.944  0.8890  0.2057 -0.1165
  891MOL0     C17544   7.658   8.376  10.876 -0.1031  0.0333  0.2027
  891MOL0     C17545   6.725   8.350  11.027  0.1396  0.0885  0.4375
  891MOL0     C17546   6.608   8.325  10.949  0.4955  0.9750 -0.2978
  891MOL0     H17547   6.264   8.238  10.569  0.4406 -0.7347  1.5572
  891MOL0     H17548   6.036   8.281  10.519  2.2035  2.9554 -0.5319
  891MOL0     H17549   5.682   8.156  10.549 -0.1453  0.5364 -0.2852
  891MOL0     H17550   5.834   8.151  10.480 -2.7887 -1.6506 -0.8827
  891MOL0     H17551   5.727   8.348  10.413  0.4886  0.1414  0.4366
  891MOL0     H17552   5.852   8.412  10.523 -0.2566  0.5928 -2.4981
  891MOL0     H17553   5.663   8.418  10.705  0.4696  0.2515 -0.1169
  891MOL0     H17554   5.555   8.339  10.581 -1.9004  1.4904  0.6433
  891MOL0     H17555   5.699   8.597  10.523 -0.0508 -0.7018 -1.5736
  891MOL0     H17556   5.564   8.533  10.433 -1.9955 -0.7116  0.0790
  891MOL0     H17557   5.549   8.625  10.726 -0.0998  2.6631 -0.0010
  891MOL0     H17558   5.407   8.610  10.615 -0.2269  0.4551  2.0663
  891MOL0     H17559   5.545   8.772  10.470 -1.9296 -0.1056  0.6891
  891MOL0     H17560   5.632   8.812  10.632 -1.8564  2.2291  2.7473
  891MOL0     H17561   5.424   8.871  10.742  0.4055  1.1079 -0.0897
  891MOL0     H17562   5.503   8.974  10.621  2.7285 -1.1135 -0.2803
  891MOL0     H17563   5.269   8.791  10.587 -0.2775  1.2842  1.9427
  891MOL0     H17564   5.345   8.879  10.449  0.3965 -0.5112  0.0091
  891MOL0     H17565   5.265   9.025  10.797  1.0745 -0.1109 -0.5354
  891MOL0     H17566   4.960   9.227  10.808 -0.4041 -0.3403 -1.4398
  891MOL0     H17567   5.078   9.341  10.778 -0.3203 -0.3599 -1.3649
  891MOL0     H17568   5.244   9.228  10.941  0.2922  1.1742 -3.2801
  891MOL0     H17569   5.100   9.113  10.977 -1.8612  0.6347  0.5914
  891MOL0     H17570   5.139   9.293  11.143 -1.1202 -1.9998  0.4415
  891MOL0     H17571   5.094   9.410  11.011 -0.7628  0.3649  0.2750
  891MOL0     H17572   4.871   9.308  10.984 -0.3025  0.9057  0.5986
  891MOL0     H17573   4.888   9.383  11.132 -0.7602 -0.4131 -0.7711
  891MOL0     H17574   4.827   8.950  11.239  1.3775  2.0083  1.5788
  891MOL0     H17575   4.592   8.877  11.335  0.8732 -1.8833 -2.1307
  891MOL0     H17576   4.200   8.702  11.304  1.8982 -1.8638  0.7903
  891MOL0     H17577   3.983   8.653  11.402 -4.2956  1.2700  3.1794
  891MOL0     H17578   3.774   8.713  11.432  0.1755 -0.9881  2.2302
  891MOL0     H17579   3.798   8.881  11.445  0.7564  1.5493  2.3552
  891MOL0     H17580   3.684   8.853  11.685  1.8449 -0.7477  0.2080
  891MOL0     H17581   3.637   8.700  11.616  2.7754  0.1343 -0.7159
  891MOL0     H17582   3.586   8.987  11.507 -0.2523  0.6767 -0.1790
  891MOL0     H17583   3.461   8.886  11.597 -2.4875  0.5131 -3.1111
  891MOL0     H17584   3.561   8.868  11.315 -0.9759  0.4021 -0.9921
  891MOL0     H17585   3.466   8.742  11.392 -0.7078  0.1042  2.8626
  891MOL0     H17586   3.286   8.905  11.432 -0.5879 -4.0176 -0.8314
  891MOL0     H17587   3.319   8.886  11.265 -3.0596 -0.1618  2.2932
  891MOL0     H17588   3.473   9.086  11.252  0.3068 -0.2945 -0.0697
  891MOL0     H17589   3.435   9.140  11.410  1.7045  1.3308 -0.6846
  891MOL0     H17590   3.316   9.257  11.252  2.2164 -1.3222 -0.5275
  891MOL0     H17591   3.249   9.111  11.181  4.2939 -0.0281 -1.2952
  891MOL0     H17592   3.084   9.085  11.378  0.8320 -0.4775 -0.5678
  891MOL0     H17593   3.090   9.258  11.334  1.4780  3.3385  0.9927
  891MOL0     H17594   4.034   8.938  11.713 -0.1300  1.5943 -1.0237
  891MOL0     H17595   4.264   8.992  11.634 -0.1594  0.4311 -0.9189
  891MOL0     H17596   4.433   9.241  11.170 -0.9089 -2.0925 -1.6710
  891MOL0     H17597   4.669   9.304  11.103  0.8778  1.2518  1.4985
  891MOL0     H17598   5.941   8.138  10.918  0.6483  0.0524  1.2809
  891MOL0     H17599   6.171   8.172  10.975  1.6737  3.4886  0.1868
  891MOL0     H17600   6.727   8.309  10.633 -3.8101  0.7794 -0.2133
  891MOL0     H17601   6.936   8.351  10.768 -0.8105 -2.1186 -0.0714
  891MOL0     H17602   7.087   8.312  10.876 -0.7079  2.3841 -1.0072
  891MOL0     H17603   7.068   8.243  11.040  0.5584 -0.7820 -0.0223
  891MOL0     H17604   7.193   8.510  10.972  0.9160 -0.6411 -1.8395
  891MOL0     H17605   7.214   8.430  11.132 -1.8553  0.5793 -0.0426
  891MOL0     H17606   7.331   8.354  10.865  2.1120  1.2134 -0.5785
  891MOL0     H17607   7.336   8.257  11.014  0.6061  0.4519 -0.7790
  891MOL0     H17608   7.416   8.546  11.010  0.0025 -0.2775 -0.4579
  891MOL0     H17609   7.476   8.416  11.127 -0.9909  0.1283  0.8905
  891MOL0     H17610   7.750   8.352  10.828 -0.1776 -1.3577  0.7131
  891MOL0     H17611   6.732   8.362  11.134  1.3855 -0.6275  0.4558
  891MOL0     H17612   6.512   8.317  10.998  0.7245 -2.3656 -0.1345
  892MOL0     O17613  10.461   8.670   2.967  0.0974 -0.3539 -0.1065
  892MOL0     C17614  10.478   8.638   2.848 -0.2785 -0.2606 -0.1646
  892MOL0     O17615  10.383   8.599   2.752  0.4390 -0.6278 -0.0719
  892MOL0     C17616  10.250   8.637   2.768 -0.3868  0.1037 -0.5953
  892MOL0     C17617  10.160   8.571   2.853  0.2352  0.6172 -0.2469
  892MOL0     C17618  10.032   8.620   2.873 -0.4424 -0.7759  0.8141
  892MOL0     C17619   9.982   8.728   2.798  0.7846  0.9098  0.0108
  892MOL0     O17620   9.853   8.770   2.806 -0.3054 -0.4222  0.3667
  892MOL0     C17621   9.749   8.706   2.881 -1.3735 -0.7970  0.2337
  892MOL0     C17622   9.618   8.771   2.845  0.0411  0.5037  0.7797
  892MOL0     C17623   9.501   8.709   2.925 -0.7793 -0.0928 -0.5521
  892MOL0     C17624   9.370   8.771   2.873  1.4316 -0.3989 -0.3349
  892MOL0     C17625   9.235   8.702   2.928  0.1840 -0.3537 -0.2307
  892MOL0     C17626   9.259   8.703   3.076 -0.0743  0.2461  0.0743
  892MOL0     C17627   9.139   8.668   3.165  1.3605 -0.1403  0.5267
  892MOL0     C17628   9.027   8.779   3.170 -0.0050 -0.0850 -0.5313
  892MOL0     N17629   8.942   8.745   3.286 -0.4735 -0.1483 -1.2320
  892MOL0     C17630   8.878   8.625   3.308 -0.0629 -0.4206 -0.6728
  892MOL0     C17631   8.786   8.655   3.403  0.8741  0.1888  0.2934
  892MOL0     C17632   8.693   8.559   3.471 -0.5312 -0.9898  0.3562
  892MOL0     C17633   8.764   8.450   3.555  0.2727 -0.0869 -0.5082
  892MOL0     C17634   8.677   8.357   3.635 -0.3341 -0.0844 -0.6748
  892MOL0     C17635   8.582   8.272   3.552 -0.2321 -0.1068  0.7072
  892MOL0     O17636   8.472   8.231   3.634 -0.3191  1.0388  0.4252
  892MOL0     C17637   8.359   8.167   3.574  0.0402  0.0833  0.0587
  892MOL0     C17638   8.244   8.148   3.654  1.1523  0.5244  0.3890
  892MOL0     C17639   8.127   8.102   3.584  0.4901  0.1320  0.1577
  892MOL0     C17640   8.134   8.050   3.450  0.6445  0.1529 -0.1486
  892MOL0     C17641   8.016   7.974   3.393 -0.2282  0.3156 -0.8345
  892MOL0     O17642   7.895   8.013   3.435  0.2764 -0.6077 -0.4824
  892MOL0     C17643   7.787   7.957   3.364  0.0288  0.0754  0.5833
  892MOL0     C17644   7.717   7.847   3.418  0.0907  0.9584  0.5119
  892MOL0     C17645   7.599   7.797   3.357  0.1072 -0.6677 -0.2366
  892MOL0     C17646   7.539   7.859   3.250 -0.1271 -0.1967 -0.1132
  892MOL0     O17647   7.408   7.824   3.209 -0.0122  0.8656  0.2555
  892MOL0     C17648   7.346   7.706   3.269  0.3223  0.5757 -1.1509
  892MOL0     C17649   7.221   7.674   3.184 -0.0034 -0.3170 -0.1476
  892MOL0     C17650   7.121   7.788   3.175 -0.1989 -0.2689  0.2238
  892MOL0     C17651   7.042   7.815   3.302 -1.5001  0.0640  0.5846
  892MOL0     C17652   6.918   7.895   3.294 -0.0909  0.5052  0.2757
  892MOL0     C17653   6.818   7.809   3.232 -0.3317  0.6881 -0.3868
  892MOL0     C17654   6.676   7.869   3.239 -1.2487 -0.4437  0.0856
  892MOL0     C17655   6.665   7.998   3.151 -0.1994 -0.2900 -0.1300
  892MOL0    Cl17656   6.515   8.085   3.177  0.3102 -0.2369  0.2441
  892MOL0     C17657   7.600   7.975   3.200 -0.7957  0.3133 -0.3018
  892MOL0     C17658   7.726   8.027   3.254 -0.0274 -1.0276 -0.2165
  892MOL0     O17659   8.038   7.883   3.314  0.3649 -0.0266 -0.4882
  892MOL0     C17660   8.255   8.048   3.381  0.5147 -0.2096  0.4638
  892MOL0     C17661   8.365   8.106   3.445  0.2770 -0.6770  0.6586
  892MOL0     N17662   8.809   8.781   3.447 -0.6604  0.3262  0.9925
  892MOL0     N17663   8.899   8.835   3.377 -0.2119  1.0899  0.5958
  892MOL0     C17664  10.075   8.787   2.705 -0.4801 -0.3045  0.5642
  892MOL0     C17665  10.209   8.750   2.698 -0.5075  0.3647 -0.8260
  892MOL0     C17666  10.616   8.610   2.801  0.0409  0.0375  0.1804
  892MOL0     C17667  10.725   8.637   2.890  0.1860  0.8204  0.3200
  892MOL0     C17668  10.852   8.631   2.866  0.1792 -0.2776  1.1408
  892MOL0     C17669  10.887   8.618   2.728 -0.1883  0.0019  1.1072
  892MOL0     O17670  11.018   8.605   2.677  1.0565 -0.9379  0.2630
  892MOL0     C17671  11.123   8.645   2.764 -0.4689  0.4705  0.1161
  892MOL0     C17672  11.228   8.717   2.682  0.2765  0.3852  0.0226
  892MOL0     C17673  11.271   8.623   2.573  0.3458  0.3315 -0.0715
  892MOL0     C17674  11.389   8.663   2.491  0.2281 -0.0258 -0.5300
  892MOL0     C17675  11.352   8.777   2.406  0.2488 -0.0929  0.6864
  892MOL0     C17676  11.344   8.875   2.326 -0.5089  0.2528  0.2486
  892MOL0     C17677  10.792   8.584   2.636  0.3639  0.6980  0.4785
  892MOL0     C17678  10.654   8.570   2.675  0.1411  0.3645 -0.0799
  892MOL0     H17679  10.209   8.500   2.918  0.0621 -1.0496 -1.8448
  892MOL0     H17680   9.974   8.565   2.947 -0.3414 -1.4466  0.4013
  892MOL0     H17681   9.763   8.710   2.989  1.4022  1.7574 -0.1072
  892MOL0     H17682   9.758   8.598   2.864  2.1189 -0.8905  1.8961
  892MOL0     H17683   9.599   8.757   2.738  1.0465 -2.2684  0.8890
  892MOL0     H17684   9.610   8.878   2.868 -0.5751  0.7683 -0.5634
  892MOL0     H17685   9.524   8.730   3.030  0.5005 -1.2635 -0.5759
  892MOL0     H17686   9.495   8.600   2.915 -0.0178 -0.1282 -0.6756
  892MOL0     H17687   9.380   8.879   2.885  1.4104 -0.5905  1.8891
  892MOL0     H17688   9.356   8.754   2.766  2.5363 -0.4721 -0.4797
  892MOL0     H17689   9.227   8.597   2.897  0.2397 -0.3687 -0.1928
  892MOL0     H17690   9.145   8.761   2.912 -0.3589 -0.7151  1.2980
  892MOL0     H17691   9.275   8.806   3.112 -2.2517  0.2549  1.2150
  892MOL0     H17692   9.340   8.636   3.105 -0.6046  0.1976  1.5441
  892MOL0     H17693   9.100   8.569   3.140 -2.1445  0.7726  1.8175
  892MOL0     H17694   9.180   8.658   3.266 -0.5555 -0.0971  1.3459
  892MOL0     H17695   8.977   8.793   3.074 -1.3166  1.0521  0.2801
  892MOL0     H17696   9.079   8.872   3.195 -1.4370  0.0777  2.1869
  892MOL0     H17697   8.898   8.538   3.248 -4.7074 -0.8622 -1.9287
  892MOL0     H17698   8.626   8.504   3.404  2.1563 -1.3956 -2.2100
  892MOL0     H17699   8.635   8.619   3.541 -0.5342 -0.2049 -0.3047
  892MOL0     H17700   8.837   8.499   3.620 -1.0070 -0.9057  1.6547
  892MOL0     H17701   8.825   8.392   3.485  1.9731  0.3367  0.5731
  892MOL0     H17702   8.747   8.296   3.693 -0.5478 -0.6328 -0.9906
  892MOL0     H17703   8.615   8.411   3.707 -1.5445  0.5014 -2.0996
  892MOL0     H17704   8.632   8.189   3.501 -0.9879 -0.4989  0.5873
  892MOL0     H17705   8.551   8.325   3.461  4.7569 -0.1464 -1.3482
  892MOL0     H17706   8.247   8.171   3.760  2.7568 -4.0833  1.5540
  892MOL0     H17707   8.039   8.092   3.646  0.7685 -2.7448  0.2218
  892MOL0     H17708   7.750   7.796   3.508  1.5446 -0.6848 -0.8871
  892MOL0     H17709   7.546   7.725   3.418 -1.7412 -0.7509 -1.8369
  892MOL0     H17710   7.313   7.742   3.367 -3.2809 -0.6468 -1.7710
  892MOL0     H17711   7.408   7.618   3.286 -0.0122  0.5396 -0.0960
  892MOL0     H17712   7.166   7.589   3.226 -0.4049 -1.1426 -2.2523
  892MOL0     H17713   7.254   7.643   3.084 -0.0581 -0.2842 -0.1755
  892MOL0     H17714   7.052   7.761   3.095 -2.8520  1.6493  1.6906
  892MOL0     H17715   7.174   7.882   3.155  0.9597 -0.6776  1.2456
  892MOL0     H17716   7.021   7.720   3.352 -0.9172 -0.8371 -0.8239
  892MOL0     H17717   7.118   7.863   3.365 -1.1886 -2.7277  2.5344
  892MOL0     H17718   6.939   7.987   3.239 -0.6240  0.2475 -0.3697
  892MOL0     H17719   6.887   7.932   3.392 -2.0890  2.1516 -0.9073
  892MOL0     H17720   6.813   7.712   3.282 -0.1806  0.8820  0.0122
  892MOL0     H17721   6.843   7.782   3.129 -4.3477  0.4232 -1.4699
  892MOL0     H17722   6.604   7.792   3.209 -1.6420 -0.1684  0.3154
  892MOL0     H17723   6.648   7.888   3.343  3.4565  2.3797  1.1254
  892MOL0     H17724   6.682   7.988   3.043  4.4136  0.0113  0.3930
  892MOL0     H17725   6.758   8.046   3.182  0.7612 -1.6781 -0.7805
  892MOL0     H17726   7.532   8.024   3.131 -2.7276 -1.9812 -0.2022
  892MOL0     H17727   7.778   8.112   3.212  2.7010 -1.3202  2.2752
  892MOL0     H17728   8.269   7.999   3.285  0.5501  2.3295 -0.9246
  892MOL0     H17729   8.450   8.110   3.378 -0.9728 -0.6155 -0.9867
  892MOL0     H17730  10.048   8.870   2.641 -1.9040  0.1112  1.6467
  892MOL0     H17731  10.266   8.807   2.626 -1.5276  2.1560 -0.2715
  892MOL0     H17732  10.713   8.679   2.990 -1.0139 -0.9638  0.9834
  892MOL0     H17733  10.920   8.659   2.945 -0.2826 -1.4526  1.9747
  892MOL0     H17734  11.158   8.555   2.816  1.0134 -0.0472 -1.7050
  892MOL0     H17735  11.096   8.715   2.844  0.4140  0.3564  0.5275
  892MOL0     H17736  11.192   8.810   2.636 -1.3302 -1.3816 -2.5867
  892MOL0     H17737  11.319   8.724   2.741  0.0010 -0.9415  0.6484
  892MOL0     H17738  11.188   8.610   2.504  0.5425  2.2228 -0.7186
  892MOL0     H17739  11.293   8.525   2.617 -1.9319 -0.2075 -0.0108
  892MOL0     H17740  11.475   8.701   2.548  2.3475  0.6142 -3.8646
  892MOL0     H17741  11.437   8.584   2.432  3.7891  1.7738 -0.3246
  892MOL0     H17742  11.344   8.972   2.281 -0.1051  0.6878  1.1554
  892MOL0     H17743  10.819   8.574   2.531  0.7015  0.8592  0.5518
  892MOL0     H17744  10.588   8.548   2.592 -1.7076  0.0325  1.4036
  893MOL0     O17745   1.734   9.602   8.508 -0.1129 -0.1956 -0.7919
  893MOL0     C17746   1.634   9.571   8.578  0.0844 -0.5397  0.3276
  893MOL0     O17747   1.633   9.577   8.711  0.1265 -0.0292  0.2664
  893MOL0     C17748   1.754   9.577   8.773 -0.4343  0.4733  0.8283
  893MOL0     C17749   1.819   9.695   8.820 -0.2683 -0.4916  0.5878
  893MOL0     C17750   1.953   9.681   8.878 -0.2760 -0.4278  0.5805
  893MOL0     C17751   2.008   9.560   8.893 -0.3182 -0.0310  0.4748
  893MOL0     O17752   2.137   9.576   8.931 -0.3729  0.8200  0.2911
  893MOL0     C17753   2.217   9.459   8.919  0.4233 -0.2030  0.2276
  893MOL0     C17754   2.369   9.482   8.959  0.3851 -0.1612 -0.1006
  893MOL0     C17755   2.435   9.552   8.843 -0.0564  0.0972 -0.7926
  893MOL0     C17756   2.584   9.605   8.880 -0.0576  0.1929  0.4753
  893MOL0     C17757   2.680   9.488   8.888  0.5463  0.1932 -0.4133
  893MOL0     C17758   2.809   9.548   8.942 -0.2523  0.3406 -0.0936
  893MOL0     C17759   2.927   9.439   8.927 -1.1419 -0.7378  0.2830
  893MOL0     C17760   3.059   9.520   8.921 -0.4858 -0.1087 -0.1095
  893MOL0     N17761   3.121   9.540   9.050  0.0607  0.9210  0.0789
  893MOL0     C17762   3.079   9.634   9.140 -0.5408  0.4944 -0.3983
  893MOL0     C17763   3.145   9.606   9.262 -0.2127 -0.3388  0.8501
  893MOL0     C17764   3.156   9.682   9.390  0.2194 -0.5157  0.6349
  893MOL0     C17765   3.123   9.592   9.511 -0.0417 -0.5001 -0.5184
  893MOL0     C17766   3.016   9.481   9.509 -0.5519 -0.3376  0.5792
  893MOL0     C17767   2.915   9.490   9.631  0.4591 -0.1334 -0.3757
  893MOL0     O17768   2.832   9.613   9.631 -0.2164  0.1938  0.8459
  893MOL0     C17769   2.716   9.605   9.707  0.5035 -0.3604 -0.1501
  893MOL0     C17770   2.662   9.497   9.782  0.9084 -0.7245 -0.1661
  893MOL0     C17771   2.533   9.510   9.839 -0.2763  0.0785  0.7883
  893MOL0     C17772   2.452   9.626   9.823  0.7916 -0.0552 -0.6063
  893MOL0     C17773   2.316   9.627   9.875 -0.2248 -0.9945  0.4199
  893MOL0     O17774   2.231   9.724   9.833 -0.6459  0.4022  0.6125
  893MOL0     C17775   2.106   9.724   9.883 -0.4952 -0.0056 -0.8634
  893MOL0     C17776   2.019   9.623   9.848 -0.6667  0.5133 -0.2041
  893MOL0     C17777   1.889   9.622   9.895 -0.4188  0.0363  0.3340
  893MOL0     C17778   1.843   9.728   9.973 -0.9225  0.8807  0.5043
  893MOL0     O17779   1.719   9.724  10.025  0.5186 -0.0197 -0.8297
  893MOL0     C17780   1.611   9.736   9.939  0.6681  0.4674 -0.0348
  893MOL0     C17781   1.490   9.773  10.020 -0.4531 -0.9008  0.0035
  893MOL0     C17782   1.460   9.930  10.025 -0.0023  0.0915  0.5876
  893MOL0     C17783   1.578  10.015  10.074 -0.0563  1.1516  0.0703
  893MOL0     C17784   1.537  10.164  10.093  0.6611  0.2918 -0.1524
  893MOL0     C17785   1.667  10.246  10.116 -0.2304  0.4568 -0.2822
  893MOL0     C17786   1.609  10.387  10.118  0.4698 -0.2110  0.4761
  893MOL0     C17787   1.609  10.455   9.977  0.2717  0.7142 -0.7752
  893MOL0    Cl17788   1.558  10.635   9.977  0.4353 -0.0561  0.1043
  893MOL0     C17789   1.926   9.840  10.004  1.3692 -0.2543  0.3757
  893MOL0     C17790   2.056   9.835   9.952 -0.5946  0.3120  0.6779
  893MOL0     O17791   2.287   9.552   9.964 -0.1985 -0.0649 -0.5730
  893MOL0     C17792   2.511   9.732   9.769 -0.6115 -0.1430  0.4395
  893MOL0     C17793   2.640   9.729   9.720  0.6626  0.3069  0.1014
  893MOL0     N17794   3.227   9.508   9.227 -0.2850  0.5262  0.4025
  893MOL0     N17795   3.219   9.464   9.110 -0.4290 -0.5263 -0.2837
  893MOL0     C17796   1.932   9.435   8.869  0.3868 -1.2531  0.1020
  893MOL0     C17797   1.807   9.455   8.805 -0.3451  0.2162  0.0948
  893MOL0     C17798   1.509   9.531   8.513 -0.5845 -0.3726 -0.8823
  893MOL0     C17799   1.520   9.478   8.385  0.7585  0.1300 -0.4591
  893MOL0     C17800   1.401   9.427   8.319  0.0174  0.9160 -0.0305
  893MOL0     C17801   1.281   9.422   8.388 -0.5738 -0.1018 -0.5029
  893MOL0     O17802   1.175   9.361   8.334 -0.5889  0.8757  1.1792
  893MOL0     C17803   1.142   9.226   8.380  0.5469 -0.0968  0.0217
  893MOL0     C17804   1.061   9.154   8.271 -0.1376 -0.0009 -0.8768
  893MOL0     C17805   1.130   9.120   8.129 -0.2178  0.1605  0.1364
  893MOL0     C17806   1.279   9.104   8.132 -0.2378 -0.8764 -0.0385
  893MOL0     C17807   1.325   8.991   8.207 -0.2718  0.6714  0.4870
  893MOL0     C17808   1.343   8.885   8.263 -0.4891 -0.2658 -0.3538
  893MOL0     C17809   1.278   9.475   8.518  0.4280 -0.7499  0.7460
  893MOL0     C17810   1.392   9.524   8.587 -0.1892  0.1387  0.2515
  893MOL0     H17811   1.778   9.794   8.808 -0.3026 -0.5904 -0.1586
  893MOL0     H17812   2.006   9.770   8.912 -0.8936  0.4975 -0.8142
  893MOL0     H17813   2.200   9.420   8.818 -1.5688 -0.6841  0.7165
  893MOL0     H17814   2.180   9.389   8.993  0.0545 -1.4698 -1.1134
  893MOL0     H17815   2.412   9.384   8.981  2.1642  0.3789 -0.9775
  893MOL0     H17816   2.384   9.542   9.050  2.1948 -0.9902  0.1897
  893MOL0     H17817   2.373   9.638   8.816 -0.4242  0.3940  0.9220
  893MOL0     H17818   2.428   9.482   8.758 -2.5135  1.0974 -1.4954
  893MOL0     H17819   2.620   9.671   8.801 -2.0194 -0.4532 -1.0475
  893MOL0     H17820   2.582   9.659   8.975  3.2934 -0.8277  1.2401
  893MOL0     H17821   2.699   9.432   8.796  3.0609 -2.5078  1.5458
  893MOL0     H17822   2.650   9.410   8.958 -0.9381 -0.7002 -1.9535
  893MOL0     H17823   2.807   9.581   9.046  1.3973 -1.9112  0.7390
  893MOL0     H17824   2.836   9.625   8.869  0.7934 -0.4741 -0.5898
  893MOL0     H17825   2.932   9.370   9.012  3.8366 -0.2872  0.6393
  893MOL0     H17826   2.915   9.390   8.830  2.6767  1.8599 -1.7839
  893MOL0     H17827   3.046   9.611   8.862  0.4175  1.2480  1.6874
  893MOL0     H17828   3.135   9.469   8.861  0.0321  0.9037 -0.3344
  893MOL0     H17829   3.006   9.714   9.130 -0.9823  0.5300  2.2880
  893MOL0     H17830   3.075   9.756   9.389 -0.5987 -1.1369  4.6426
  893MOL0     H17831   3.254   9.730   9.401 -1.5874  3.5624  0.7263
  893MOL0     H17832   3.102   9.662   9.593 -1.1916 -3.4823  1.9017
  893MOL0     H17833   3.221   9.555   9.543  1.3588  1.8631 -1.7733
  893MOL0     H17834   2.955   9.495   9.420  0.5847  0.3349 -0.1099
  893MOL0     H17835   3.060   9.381   9.503  2.6637  1.0411 -1.3451
  893MOL0     H17836   2.974   9.494   9.723  1.2696 -0.6793 -0.8571
  893MOL0     H17837   2.857   9.399   9.621  2.9614 -1.7689 -0.9065
  893MOL0     H17838   2.718   9.404   9.779  0.7441 -0.8046 -1.0644
  893MOL0     H17839   2.501   9.423   9.897 -0.9312  0.0118  0.3380
  893MOL0     H17840   2.065   9.540   9.796 -3.7672 -1.1822 -0.4342
  893MOL0     H17841   1.822   9.537   9.881 -1.0739  0.0520  2.9002
  893MOL0     H17842   1.590   9.639   9.893  2.4919 -0.9338  1.8770
  893MOL0     H17843   1.642   9.805   9.859 -1.5567  1.0141 -0.5042
  893MOL0     H17844   1.503   9.737  10.122  3.1501 -0.4165 -0.1472
  893MOL0     H17845   1.403   9.728   9.971 -0.7106  2.7314 -3.4072
  893MOL0     H17846   1.369   9.943  10.084  0.5580 -1.2891  1.8216
  893MOL0     H17847   1.423   9.966   9.929  0.5012 -2.7617 -0.8073
  893MOL0     H17848   1.616   9.969  10.165 -0.6021  1.3256  0.3917
  893MOL0     H17849   1.663  10.005  10.005  1.8320  0.5318  2.3668
  893MOL0     H17850   1.478  10.175  10.184  0.7943 -1.9625  0.2829
  893MOL0     H17851   1.468  10.192  10.013 -2.1552  0.1161  2.0842
  893MOL0     H17852   1.738  10.228  10.035 -0.4093  0.1498 -0.3753
  893MOL0     H17853   1.704  10.227  10.217  3.5340  0.0950 -1.5754
  893MOL0     H17854   1.511  10.397  10.166  1.7967  1.5841  3.0805
  893MOL0     H17855   1.677  10.440  10.185 -0.4760  0.8570  0.6204
  893MOL0     H17856   1.538  10.407   9.908 -0.6530  0.2497  0.4704
  893MOL0     H17857   1.714  10.447   9.946  0.5079  0.0938  0.1668
  893MOL0     H17858   1.894   9.924  10.065 -0.6939 -1.7143  1.4169
  893MOL0     H17859   2.127   9.911   9.984 -0.5568 -0.5308  2.7486
  893MOL0     H17860   2.454   9.824   9.767 -0.2025  0.2016  2.2755
  893MOL0     H17861   2.678   9.822   9.679 -0.3170  0.1133 -1.2901
  893MOL0     H17862   1.972   9.338   8.896  2.0671 -1.3650 -2.4926
  893MOL0     H17863   1.758   9.361   8.781  0.8294 -0.3560 -0.1714
  893MOL0     H17864   1.617   9.483   8.338  1.0994 -0.7086  0.1134
  893MOL0     H17865   1.419   9.386   8.220 -0.3117  0.1535  0.2170
  893MOL0     H17866   1.083   9.223   8.472  2.0109 -1.4806  0.9789
  893MOL0     H17867   1.227   9.162   8.406  0.6199  0.3586  0.9278
  893MOL0     H17868   1.018   9.062   8.312  0.6459  0.7807  1.9150
  893MOL0     H17869   0.967   9.205   8.248 -1.6214 -1.0829  2.2679
  893MOL0     H17870   1.109   9.197   8.054 -2.3034  2.4803  2.8679
  893MOL0     H17871   1.084   9.027   8.095 -0.1139  0.7402 -1.7452
  893MOL0     H17872   1.306   9.082   8.028  1.1497  1.7773 -0.3183
  893MOL0     H17873   1.343   9.188   8.158  1.2856 -2.2763  0.9499
  893MOL0     H17874   1.372   8.795   8.313  1.4215 -0.5136 -1.8003
  893MOL0     H17875   1.179   9.470   8.562  0.5323  0.6480  1.1993
  893MOL0     H17876   1.385   9.581   8.679  0.3356  0.9753 -0.2142
  894MOL0     O17877   5.653   8.731   3.792  0.5996  0.1045 -0.7691
  894MOL0     C17878   5.663   8.706   3.913  1.0749  0.6533  1.2138
  894MOL0     O17879   5.770   8.720   3.985 -0.1086 -0.2111 -0.4612
  894MOL0     C17880   5.897   8.738   3.934 -0.3012 -1.1845 -0.3418
  894MOL0     C17881   5.934   8.685   3.809 -0.4521 -0.8122 -0.4588
  894MOL0     C17882   6.065   8.698   3.764  0.8789  0.0038  0.2277
  894MOL0     C17883   6.171   8.742   3.847 -0.6963 -0.4756 -0.4340
  894MOL0     O17884   6.301   8.729   3.807 -0.7341  0.3431  0.2502
  894MOL0     C17885   6.405   8.728   3.910 -0.2418 -1.0033  0.4813
  894MOL0     C17886   6.533   8.719   3.824 -0.2969 -0.0430 -0.4106
  894MOL0     C17887   6.664   8.721   3.900 -0.0416  0.3741 -0.2622
  894MOL0     C17888   6.719   8.585   3.919 -0.0254  0.2169  0.8179
  894MOL0     C17889   6.849   8.586   4.004  0.4960 -0.1667 -0.7416
  894MOL0     C17890   6.971   8.616   3.905  0.0321 -0.8312 -0.2724
  894MOL0     C17891   7.098   8.572   3.983 -0.8163 -0.3160 -0.1380
  894MOL0     C17892   7.233   8.568   3.910  0.7804  0.4541  0.2428
  894MOL0     N17893   7.342   8.529   3.998  0.6689  0.7708 -0.3138
  894MOL0     C17894   7.399   8.598   4.103 -1.3334 -0.4999 -0.3360
  894MOL0     C17895   7.492   8.509   4.160  0.0414 -0.3437  0.0916
  894MOL0     C17896   7.577   8.528   4.278 -0.2791 -0.3151  0.8811
  894MOL0     C17897   7.726   8.560   4.244  0.3610  0.0956  0.4705
  894MOL0     C17898   7.748   8.689   4.161  0.6905  0.0986  0.3712
  894MOL0     C17899   7.678   8.821   4.207 -0.3260 -0.7321 -1.1341
  894MOL0     O17900   7.707   8.862   4.340  0.0085 -0.4457 -0.2120
  894MOL0     C17901   7.834   8.923   4.356 -0.2489  0.1929 -0.0758
  894MOL0     C17902   7.942   8.941   4.271 -0.0035  0.3661  0.1726
  894MOL0     C17903   8.062   8.999   4.303 -0.8115 -0.1400  0.2134
  894MOL0     C17904   8.065   9.073   4.423 -0.2844  0.6469 -0.0230
  894MOL0     C17905   8.205   9.124   4.461  0.0691  0.2877  0.4540
  894MOL0     O17906   8.201   9.207   4.567  0.1971  0.5201 -0.0905
  894MOL0     C17907   8.314   9.261   4.619 -0.8744  0.1411 -0.2970
  894MOL0     C17908   8.389   9.185   4.712 -0.2958 -0.0595  0.4775
  894MOL0     C17909   8.508   9.237   4.764 -0.0379 -0.3857 -1.0073
  894MOL0     C17910   8.549   9.362   4.718  0.2636 -0.2454  0.1092
  894MOL0     O17911   8.683   9.396   4.750  0.4665 -0.2156 -0.1523
  894MOL0     C17912   8.713   9.534   4.779  0.2555 -0.5806 -0.4682
  894MOL0     C17913   8.856   9.554   4.814  0.6897 -0.7080 -0.2648
  894MOL0     C17914   8.886   9.702   4.850  0.8033 -0.1049 -0.3314
  894MOL0     C17915   9.032   9.725   4.886 -0.0115  0.8262 -0.6291
  894MOL0     C17916   9.056   9.873   4.908  0.4074  0.3381  0.4595
  894MOL0     C17917   9.201   9.882   4.951  0.1705  0.1286  0.2495
  894MOL0     C17918   9.240  10.031   4.983  1.1059 -0.2798 -0.1433
  894MOL0     C17919   9.242  10.054   5.132 -0.9896  0.7751 -1.0769
  894MOL0    Cl17920   9.083  10.019   5.215  0.1525  0.1635  0.1814
  894MOL0     C17921   8.467   9.442   4.641  1.4005 -0.1266  0.0900
  894MOL0     C17922   8.343   9.391   4.604 -0.2099 -0.3513  0.9422
  894MOL0     O17923   8.302   9.110   4.386 -0.0803 -0.3657 -0.0303
  894MOL0     C17924   7.962   9.061   4.516 -0.4891 -0.3169  0.3114
  894MOL0     C17925   7.846   8.987   4.481 -0.3304  0.2074  0.1784
  894MOL0     N17926   7.484   8.399   4.083  0.2904  0.6853  0.7386
  894MOL0     N17927   7.392   8.400   3.999 -0.2857  0.3074  0.0780
  894MOL0     C17928   6.133   8.798   3.973 -0.0356 -0.3807 -0.5815
  894MOL0     C17929   5.994   8.794   4.019 -0.8217 -0.0187  0.4711
  894MOL0     C17930   5.544   8.655   3.989 -0.2364  0.8097 -0.0997
  894MOL0     C17931   5.414   8.662   3.945 -0.1220 -0.3980 -0.7239
  894MOL0     C17932   5.304   8.618   4.021 -0.1536  1.1983  0.1117
  894MOL0     C17933   5.318   8.575   4.151 -0.1863 -0.6245  0.3096
  894MOL0     O17934   5.197   8.554   4.219 -0.4527 -0.9223 -0.3669
  894MOL0     C17935   5.183   8.645   4.329  0.1072 -0.0654 -0.6567
  894MOL0     C17936   5.033   8.682   4.357 -0.4624  0.3608  0.4413
  894MOL0     C17937   4.990   8.778   4.243 -0.4495  0.7694  0.7416
  894MOL0     C17938   4.838   8.795   4.246 -0.3022 -0.3005 -0.2510
  894MOL0     C17939   4.820   8.864   4.118  0.0800  0.5563 -0.2038
  894MOL0     C17940   4.832   8.902   4.005 -0.3192  1.3623  0.1694
  894MOL0     C17941   5.452   8.572   4.202  0.0591  0.5629 -0.2012
  894MOL0     C17942   5.559   8.602   4.123 -0.3598 -0.0995  0.3568
  894MOL0     H17943   5.863   8.628   3.750 -1.4532 -1.5654  1.4006
  894MOL0     H17944   6.088   8.659   3.665  1.9552 -2.6452  1.4366
  894MOL0     H17945   6.387   8.650   3.984 -2.9807  0.8020  1.8997
  894MOL0     H17946   6.406   8.814   3.977 -2.6607 -0.8207  0.3927
  894MOL0     H17947   6.528   8.800   3.750  0.4547 -0.3573 -0.8178
  894MOL0     H17948   6.516   8.624   3.771 -1.0008  0.3820 -0.9720
  894MOL0     H17949   6.637   8.758   3.999 -1.0288 -1.3603  0.1670
  894MOL0     H17950   6.731   8.784   3.840 -0.3686  1.0154  0.0391
  894MOL0     H17951   6.644   8.525   3.971 -1.7182  2.0383  0.5775
  894MOL0     H17952   6.738   8.540   3.821  0.7655  0.8886  0.6548
  894MOL0     H17953   6.851   8.489   4.054  1.0854  1.0985  1.8979
  894MOL0     H17954   6.839   8.663   4.081  1.1983  0.4874 -1.2839
  894MOL0     H17955   6.979   8.717   3.865  2.7485 -0.8961 -0.0921
  894MOL0     H17956   6.957   8.555   3.815  1.1711  0.3518 -1.2851
  894MOL0     H17957   7.105   8.632   4.074  2.1035  1.1320 -1.1733
  894MOL0     H17958   7.066   8.476   4.024 -3.2167  0.9663  1.2123
  894MOL0     H17959   7.245   8.666   3.863 -0.0361  0.7565  0.6432
  894MOL0     H17960   7.221   8.490   3.834 -0.5053  1.6573 -0.8379
  894MOL0     H17961   7.388   8.705   4.120 -2.5080 -0.4098 -1.4562
  894MOL0     H17962   7.570   8.433   4.330 -0.9442 -1.2307 -0.7953
  894MOL0     H17963   7.541   8.610   4.341  0.5254  0.3107  0.5378
  894MOL0     H17964   7.770   8.481   4.183 -1.2250 -2.0573  1.9209
  894MOL0     H17965   7.785   8.558   4.336  1.6404  0.4856 -0.3231
  894MOL0     H17966   7.856   8.704   4.168  0.6121  1.4091 -0.8162
  894MOL0     H17967   7.713   8.671   4.059 -1.5984 -0.1475  1.1264
  894MOL0     H17968   7.571   8.801   4.199 -0.1582 -1.4105 -1.7033
  894MOL0     H17969   7.698   8.896   4.130  0.7286  2.8985  2.2990
  894MOL0     H17970   7.945   8.894   4.173  1.1505  2.3555 -0.8322
  894MOL0     H17971   8.138   9.003   4.226 -0.6797  0.0526  0.3530
  894MOL0     H17972   8.343   9.096   4.755 -3.0840  0.9561 -0.1873
  894MOL0     H17973   8.557   9.180   4.843  0.3278 -1.7115 -2.1422
  894MOL0     H17974   8.647   9.572   4.857  0.0814 -1.7526 -0.0153
  894MOL0     H17975   8.684   9.598   4.696  0.2652  1.1685  0.8321
  894MOL0     H17976   8.917   9.529   4.727  0.3939 -1.1278 -0.3554
  894MOL0     H17977   8.888   9.487   4.895 -0.2160  1.4048  1.9729
  894MOL0     H17978   8.835   9.713   4.947  1.7865 -2.2011  0.4765
  894MOL0     H17979   8.847   9.766   4.770  0.8443 -1.4720 -1.4798
  894MOL0     H17980   9.045   9.672   4.981 -1.9158  2.7891  0.8215
  894MOL0     H17981   9.101   9.680   4.814  0.5656  0.2881  0.2350
  894MOL0     H17982   8.997   9.900   4.996  2.8208 -1.3024  2.7458
  894MOL0     H17983   9.046   9.941   4.823 -0.6947  3.0326  2.6009
  894MOL0     H17984   9.265   9.845   4.870 -0.3668  1.5480 -0.8636
  894MOL0     H17985   9.230   9.828   5.042  4.0058 -3.4299 -2.7170
  894MOL0     H17986   9.337  10.057   4.938  1.3779 -0.4665  0.3366
  894MOL0     H17987   9.163  10.099   4.945  0.6726 -0.8645 -0.3345
  894MOL0     H17988   9.283  10.155   5.145  2.3066 -0.5651  0.0808
  894MOL0     H17989   9.315   9.984   5.175 -1.7490  0.3687 -0.4290
  894MOL0     H17990   8.490   9.544   4.610 -1.3228  0.4769 -0.1955
  894MOL0     H17991   8.272   9.437   4.536  1.8945 -1.8101 -2.5318
  894MOL0     H17992   7.973   9.107   4.613  1.5751 -0.6258  0.2638
  894MOL0     H17993   7.757   8.990   4.545 -2.2338 -0.7426 -2.2715
  894MOL0     H17994   6.194   8.824   4.058 -1.6965 -1.4045  1.0049
  894MOL0     H17995   5.974   8.815   4.123  1.8449  0.2066  1.0099
  894MOL0     H17996   5.383   8.707   3.851 -2.2468  2.6553  1.2600
  894MOL0     H17997   5.207   8.632   3.974  0.4204  3.8690 -0.4532
  894MOL0     H17998   5.245   8.732   4.306 -0.4513  0.5412  0.0809
  894MOL0     H17999   5.234   8.592   4.410  2.2887  0.8482 -1.3580
  894MOL0     H18000   4.983   8.585   4.354  0.0582  0.0395  1.6096
  894MOL0     H18001   5.020   8.729   4.454 -0.0572  2.1153 -0.3171
  894MOL0     H18002   5.020   8.728   4.151 -2.6303 -2.1412  1.4651
  894MOL0     H18003   5.042   8.875   4.249 -0.9506  1.0124  1.3027
  894MOL0     H18004   4.805   8.691   4.251  2.1962 -1.1971 -0.7323
  894MOL0     H18005   4.799   8.855   4.328  0.7219 -0.9080  0.7046
  894MOL0     H18006   4.837   8.921   3.899 -0.6080  1.4092  0.1634
  894MOL0     H18007   5.484   8.527   4.296  1.9000 -2.5184 -2.1140
  894MOL0     H18008   5.659   8.599   4.164  0.3933 -0.7866 -1.4048
  895MOL0     O18009  10.706   8.135  10.577 -0.3614 -0.0185 -0.1280
  895MOL0     C18010  10.717   8.041  10.653  0.2471 -0.1628 -0.3176
  895MOL0     O18011  10.827   7.960  10.667  0.2229  0.4176 -0.4232
  895MOL0     C18012  10.934   7.975  10.581  0.5117 -0.3480 -0.3063
  895MOL0     C18013  11.058   7.934  10.631 -0.8131  0.0073  0.6978
  895MOL0     C18014  11.168   7.929  10.543  0.6663 -0.0060  0.7250
  895MOL0     C18015  11.157   7.987  10.412 -0.0250  0.6469 -0.2813
  895MOL0     O18016  11.253   7.998  10.317  0.2600 -0.4870  0.7228
  895MOL0     C18017  11.385   7.943  10.339  0.2897  0.0503 -0.6409
  895MOL0     C18018  11.470   8.052  10.410 -0.7103  0.9354 -0.1259
  895MOL0     C18019  11.619   8.003  10.396 -0.2474 -0.6520 -0.0765
  895MOL0     C18020  11.715   8.120  10.367 -0.5788 -0.3260  0.0842
  895MOL0     C18021  11.862   8.080  10.383  0.5113  0.2284  0.1390
  895MOL0     C18022  11.931   8.056  10.242  0.6091  0.0465 -0.5289
  895MOL0     C18023  12.080   8.011  10.254 -0.1956 -0.5354  0.0400
  895MOL0     C18024  12.092   7.871  10.319 -0.0907 -0.1876 -0.4282
  895MOL0     N18025  12.006   7.772  10.260 -0.0080 -0.2968  0.4557
  895MOL0     C18026  11.917   7.702  10.331 -0.0457  0.6047  0.6368
  895MOL0     C18027  11.865   7.618  10.236 -0.6646  0.3872  0.4715
  895MOL0     C18028  11.752   7.513  10.242  0.2167  0.0376  0.2630
  895MOL0     C18029  11.608   7.571  10.222  0.1679 -0.3775 -0.4920
  895MOL0     C18030  11.503   7.467  10.175 -0.5282  0.2769 -0.4052
  895MOL0     C18031  11.352   7.504  10.198 -0.4923  0.4983  0.7376
  895MOL0     O18032  11.293   7.604  10.110  0.2331  0.2555 -0.4831
  895MOL0     C18033  11.174   7.656  10.139  0.4389 -0.1526  0.0445
  895MOL0     C18034  11.077   7.602  10.232 -0.2424  0.0446 -0.5170
  895MOL0     C18035  10.950   7.660  10.233  0.5173 -1.1069  0.3348
  895MOL0     C18036  10.920   7.785  10.173  0.0640 -0.1323  0.2787
  895MOL0     C18037  10.784   7.845  10.192  0.2130  0.2434 -0.1348
  895MOL0     O18038  10.690   7.754  10.242  0.0450  0.5407  0.5053
  895MOL0     C18039  10.566   7.793  10.282 -0.1896  0.3427  0.3108
  895MOL0     C18040  10.470   7.689  10.275 -0.7991 -0.7405 -0.6161
  895MOL0     C18041  10.334   7.714  10.306 -0.5586 -0.1808 -0.4181
  895MOL0     C18042  10.293   7.832  10.351 -0.4668 -1.0307 -0.5310
  895MOL0     O18043  10.171   7.834  10.411 -0.9699 -0.6364  0.1221
  895MOL0     C18044  10.096   7.959  10.432  0.2034  0.3358  0.0701
  895MOL0     C18045   9.966   7.932  10.506 -0.4893  0.5546  0.3503
  895MOL0     C18046   9.887   7.823  10.437  0.3687  0.3260 -0.0310
  895MOL0     C18047   9.739   7.792  10.467  0.8485 -0.9889  0.1338
  895MOL0     C18048   9.641   7.889  10.402 -0.1871 -0.5535 -0.4839
  895MOL0     C18049   9.496   7.862  10.455 -0.6200 -0.5111  0.5340
  895MOL0     C18050   9.474   7.911  10.606  0.6081  0.1979 -0.6251
  895MOL0     C18051   9.484   8.068  10.639 -0.0908  0.2677 -0.2473
  895MOL0    Cl18052   9.474   8.081  10.812  0.0488 -0.0128  0.6044
  895MOL0     C18053  10.389   7.935  10.367 -0.4578 -0.3909 -0.2109
  895MOL0     C18054  10.524   7.910  10.336  0.4065  0.6585  0.7208
  895MOL0     O18055  10.759   7.962  10.158 -0.2216  0.6366 -0.3542
  895MOL0     C18056  11.023   7.844  10.092  0.4215 -1.0384  0.2008
  895MOL0     C18057  11.137   7.775  10.074  0.1341  0.8992  0.4334
  895MOL0     N18058  11.928   7.639  10.112 -0.7725  0.3793  0.9440
  895MOL0     N18059  12.008   7.740  10.126 -0.0779  0.5780  0.0245
  895MOL0     C18060  11.032   8.027  10.358  0.9335 -0.5644  0.1065
  895MOL0     C18061  10.921   8.009  10.451 -0.6419  0.1046  0.6238
  895MOL0     C18062  10.590   7.997  10.726  0.2223  0.3202  1.0544
  895MOL0     C18063  10.455   8.041  10.705  0.4747 -0.4020 -0.1968
  895MOL0     C18064  10.344   7.993  10.774  0.0716  0.2186 -0.6825
  895MOL0     C18065  10.362   7.895  10.868  0.6650 -0.3477 -0.4194
  895MOL0     O18066  10.256   7.836  10.936 -0.1651  0.3466 -0.7155
  895MOL0     C18067  10.120   7.859  10.889 -0.5820  0.2403  0.6911
  895MOL0     C18068  10.026   7.755  10.958 -0.6626 -0.1957  0.4870
  895MOL0     C18069   9.879   7.782  10.908 -0.5185 -0.5604 -0.4366
  895MOL0     C18070   9.781   7.766  11.022 -0.7195  0.1598 -0.2746
  895MOL0     C18071   9.776   7.635  11.074  0.5288  0.8096  0.4843
  895MOL0     C18072   9.759   7.519  11.108  0.8667  0.0928  0.4473
  895MOL0     C18073  10.493   7.831  10.876  0.5471  0.1916 -0.0261
  895MOL0     C18074  10.608   7.886  10.816  0.0053 -0.5609  0.9871
  895MOL0     H18075  11.068   7.911  10.737 -0.3365 -2.9281  0.1119
  895MOL0     H18076  11.267   7.896  10.575  1.9524  3.6461  0.9810
  895MOL0     H18077  11.416   7.903  10.242  0.6672  0.2376 -0.5971
  895MOL0     H18078  11.380   7.851  10.398 -2.4782  0.4803 -0.0668
  895MOL0     H18079  11.446   8.077  10.514  1.1152  0.4423  0.4518
  895MOL0     H18080  11.452   8.136  10.343  0.6186 -1.2176 -3.4599
  895MOL0     H18081  11.625   7.944  10.304 -0.2880 -0.2946 -0.3096
  895MOL0     H18082  11.646   7.946  10.486 -1.0550 -0.2103  0.4545
  895MOL0     H18083  11.699   8.154  10.265  0.2655  0.0670  0.0679
  895MOL0     H18084  11.698   8.202  10.438 -0.0525 -0.0881 -0.0609
  895MOL0     H18085  11.874   8.000  10.457 -0.0215 -0.5613 -0.5955
  895MOL0     H18086  11.912   8.171  10.415 -0.7970  0.5863  1.2390
  895MOL0     H18087  11.928   8.146  10.181 -1.2349  1.4435  1.5061
  895MOL0     H18088  11.874   7.985  10.182 -0.6332  2.2828 -2.1168
  895MOL0     H18089  12.123   7.993  10.155 -4.6495 -0.9441 -2.0623
  895MOL0     H18090  12.139   8.093  10.297 -2.2237  0.5545  0.8963
  895MOL0     H18091  12.074   7.897  10.424  1.2943  1.2823 -0.5160
  895MOL0     H18092  12.195   7.836  10.329 -0.0348  0.4324  1.7757
  895MOL0     H18093  11.909   7.719  10.438 -1.3050  1.5783  0.4143
  895MOL0     H18094  11.756   7.459  10.337 -3.2454 -0.5997  0.1486
  895MOL0     H18095  11.756   7.438  10.163 -1.4632 -1.4727  1.5389
  895MOL0     H18096  11.607   7.663  10.162 -0.1332  1.9876  2.8795
  895MOL0     H18097  11.591   7.620  10.318  1.7806  0.6436 -0.6878
  895MOL0     H18098  11.520   7.443  10.070 -1.2823  4.0140 -1.5308
  895MOL0     H18099  11.521   7.375  10.231  0.8872  0.2669 -0.8236
  895MOL0     H18100  11.340   7.535  10.302  0.7794  0.6728  0.8510
  895MOL0     H18101  11.295   7.412  10.185 -1.6838  1.4196 -0.8725
  895MOL0     H18102  11.109   7.518  10.293  1.5884 -0.6000 -2.2380
  895MOL0     H18103  10.866   7.604  10.273 -0.3318 -0.4990 -0.5312
  895MOL0     H18104  10.503   7.590  10.247 -0.8179 -1.2616  1.0916
  895MOL0     H18105  10.265   7.630  10.304  1.5512 -2.0910  0.8333
  895MOL0     H18106  10.078   8.008  10.335  1.4896  0.7503  0.0178
  895MOL0     H18107  10.149   8.038  10.486  1.0471 -0.1439 -0.0376
  895MOL0     H18108   9.917   8.029  10.509  1.4715  1.5910  0.4525
  895MOL0     H18109   9.973   7.922  10.614 -0.7832 -0.2439  0.3056
  895MOL0     H18110   9.937   7.730  10.467 -1.0010 -0.2081  0.7159
  895MOL0     H18111   9.896   7.847  10.331  0.3800  1.3720  0.2017
  895MOL0     H18112   9.714   7.689  10.443  0.6817 -0.5573 -1.7326
  895MOL0     H18113   9.727   7.814  10.574  3.1681  1.1173  0.0615
  895MOL0     H18114   9.644   7.870  10.294 -1.8962  0.8152 -0.8093
  895MOL0     H18115   9.673   7.992  10.413  2.0171 -0.4771 -5.1392
  895MOL0     H18116   9.477   7.754  10.464 -2.8041 -0.0486  2.5316
  895MOL0     H18117   9.420   7.910  10.393  0.9157 -0.0311 -1.0479
  895MOL0     H18118   9.372   7.889  10.639 -0.0206  1.4001 -1.6611
  895MOL0     H18119   9.549   7.868  10.673 -0.1946 -1.6780 -0.8892
  895MOL0     H18120   9.400   8.118  10.589 -0.0285 -0.5778 -1.2460
  895MOL0     H18121   9.577   8.112  10.604  0.9353  2.9542  4.9625
  895MOL0     H18122  10.370   8.030  10.416 -2.7130  0.3785 -2.4125
  895MOL0     H18123  10.595   7.991  10.349  1.1311  0.5217 -1.7944
  895MOL0     H18124  11.009   7.945  10.056  1.1192 -0.2198  2.1067
  895MOL0     H18125  11.206   7.825  10.006 -0.2907  1.9081  0.7181
  895MOL0     H18126  11.021   8.079  10.263  0.7408 -0.0759  0.3930
  895MOL0     H18127  10.829   8.048  10.409 -1.8929 -1.8514  1.3959
  895MOL0     H18128  10.429   8.116  10.631 -2.8344 -1.1272  0.0345
  895MOL0     H18129  10.242   8.016  10.744  0.0260 -0.0151 -0.7065
  895MOL0     H18130  10.105   7.860  10.780  0.8185 -0.6178  0.4607
  895MOL0     H18131  10.073   7.951  10.924  0.9414  0.6258  1.7983
  895MOL0     H18132  10.053   7.652  10.934  3.0844  0.8448 -0.4013
  895MOL0     H18133  10.035   7.763  11.067  0.6802 -1.6607  0.5188
  895MOL0     H18134   9.855   7.727  10.817 -0.7567  0.7837 -1.2044
  895MOL0     H18135   9.857   7.887  10.891  0.4376 -0.2963 -0.1332
  895MOL0     H18136   9.804   7.839  11.100  2.7305 -1.7828  0.7270
  895MOL0     H18137   9.682   7.783  10.979 -1.1382 -1.2510  0.0781
  895MOL0     H18138   9.736   7.422  11.146 -0.5749  1.2598  2.7302
  895MOL0     H18139  10.503   7.743  10.940 -1.1847 -1.0470 -1.3376
  895MOL0     H18140  10.709   7.846  10.826  0.7781  0.8470 -0.6933
  896MOL0     O18141   6.865   4.215   8.838 -0.0577  0.2701 -0.4073
  896MOL0     C18142   6.886   4.329   8.883 -0.2327 -1.0535  0.5479
  896MOL0     O18143   6.798   4.430   8.892 -0.6176 -0.7086 -0.3818
  896MOL0     C18144   6.665   4.416   8.895  0.3155 -0.0212  0.3099
  896MOL0     C18145   6.589   4.523   8.950 -0.4215 -0.4108  0.8256
  896MOL0     C18146   6.446   4.524   8.953 -0.3843 -0.3292  0.6341
  896MOL0     C18147   6.378   4.423   8.880 -0.4121  0.9466 -0.4465
  896MOL0     O18148   6.241   4.433   8.878 -0.2889  0.5183  0.2989
  896MOL0     C18149   6.163   4.317   8.903 -0.0374  0.1775  0.2157
  896MOL0     C18150   6.012   4.324   8.902 -0.6648 -0.0993 -0.5047
  896MOL0     C18151   5.948   4.438   8.997 -0.0461  0.0757  0.1890
  896MOL0     C18152   5.801   4.438   8.969 -0.1988  0.7370 -0.2237
  896MOL0     C18153   5.723   4.523   9.058 -0.8753  0.4842 -0.1373
  896MOL0     C18154   5.577   4.542   9.014 -0.5145  0.1388 -0.3780
  896MOL0     C18155   5.501   4.625   9.124 -0.4513  0.9112 -0.2984
  896MOL0     C18156   5.355   4.630   9.096 -0.5389 -0.7890  0.3813
  896MOL0     N18157   5.289   4.495   9.104 -0.0829  0.2358 -0.4247
  896MOL0     C18158   5.300   4.417   9.215 -1.1374  0.4731  0.2213
  896MOL0     C18159   5.259   4.296   9.174  0.2819  0.3293 -1.5181
  896MOL0     C18160   5.266   4.161   9.244 -0.4814 -0.2987 -0.3970
  896MOL0     C18161   5.163   4.159   9.352 -0.8564 -0.1247 -0.0886
  896MOL0     C18162   5.017   4.183   9.302 -0.6251  0.2026  0.3974
  896MOL0     C18163   4.984   4.114   9.172 -0.3995  0.2816 -0.0387
  896MOL0     O18164   4.954   3.977   9.187  0.0264  0.1494  0.4552
  896MOL0     C18165   4.824   3.935   9.219  0.8255 -0.0305  0.5011
  896MOL0     C18166   4.717   4.017   9.276  0.3791 -0.2093 -0.2198
  896MOL0     C18167   4.598   3.962   9.317 -0.7874  1.3513 -0.5517
  896MOL0     C18168   4.571   3.828   9.291 -0.9124  0.1222  0.3368
  896MOL0     C18169   4.436   3.777   9.317 -0.3818 -0.0329  0.4326
  896MOL0     O18170   4.417   3.646   9.287 -0.1048  0.0225  0.9544
  896MOL0     C18171   4.283   3.622   9.253 -0.4013 -0.5576  0.0747
  896MOL0     C18172   4.230   3.664   9.134  0.1683 -1.1401 -0.2634
  896MOL0     C18173   4.093   3.633   9.107  0.2857 -0.2285  0.1578
  896MOL0     C18174   4.018   3.558   9.201  0.7702 -0.7329 -0.0761
  896MOL0     O18175   3.890   3.511   9.170  0.3658  0.3691 -0.7710
  896MOL0     C18176   3.873   3.467   9.039  0.4920 -0.4455 -1.1459
  896MOL0     C18177   3.734   3.416   9.027  0.0902 -0.0921 -0.3406
  896MOL0     C18178   3.653   3.526   8.970  0.6074 -0.1508 -1.5191
  896MOL0     C18179   3.629   3.646   9.068 -0.1768  0.6071 -0.4086
  896MOL0     C18180   3.521   3.743   9.000 -0.2417 -0.2797 -0.3587
  896MOL0     C18181   3.482   3.855   9.103 -0.5257 -0.6137  0.2842
  896MOL0     C18182   3.356   3.940   9.048  0.2539  0.0154 -0.7320
  896MOL0     C18183   3.373   4.006   8.909 -0.0166  0.6923 -0.4181
  896MOL0    Cl18184   3.499   4.145   8.917 -0.2005  0.1020 -0.2667
  896MOL0     C18185   4.073   3.521   9.319  0.5843 -0.3867 -0.4177
  896MOL0     C18186   4.211   3.550   9.343 -0.5136 -0.2689 -0.0339
  896MOL0     O18187   4.346   3.857   9.349 -0.3236 -0.5730  0.0330
  896MOL0     C18188   4.667   3.752   9.224  0.4986 -0.2838  0.4922
  896MOL0     C18189   4.788   3.807   9.185 -0.0187 -0.1198  0.2851
  896MOL0     N18190   5.223   4.306   9.039  0.3970 -0.6886  0.1052
  896MOL0     N18191   5.232   4.432   9.008  0.6558  0.6902 -0.4298
  896MOL0     C18192   6.451   4.317   8.815  0.5998 -0.8959  0.1462
  896MOL0     C18193   6.595   4.313   8.827  0.3937 -0.9166  0.0321
  896MOL0     C18194   7.027   4.355   8.937  0.5011  0.5614  0.5060
  896MOL0     C18195   7.129   4.256   8.925 -0.1450 -0.3285 -0.6790
  896MOL0     C18196   7.257   4.283   8.983  0.6737 -0.2867  0.1747
  896MOL0     C18197   7.291   4.402   9.048 -0.0893 -0.7680 -0.7042
  896MOL0     O18198   7.421   4.431   9.092  0.2832 -0.6756  0.1602
  896MOL0     C18199   7.461   4.558   9.138  0.7354  0.5815 -0.3973
  896MOL0     C18200   7.607   4.535   9.178  0.3905  0.0099 -0.1272
  896MOL0     C18201   7.687   4.664   9.211  0.2796 -0.1173 -0.6547
  896MOL0     C18202   7.616   4.740   9.337 -0.8391 -0.4558 -0.8264
  896MOL0     C18203   7.630   4.673   9.463  0.6195  0.0496  0.1522
  896MOL0     C18204   7.642   4.628   9.574  0.0381 -1.1273  0.1462
  896MOL0     C18205   7.180   4.498   9.061 -0.7001  0.6338 -0.0264
  896MOL0     C18206   7.053   4.467   9.003 -0.5830 -0.0557  0.1076
  896MOL0     H18207   6.642   4.609   8.992 -1.0438 -1.2089  3.4190
  896MOL0     H18208   6.404   4.617   8.991  2.6669 -0.4438  5.1000
  896MOL0     H18209   6.203   4.300   9.004  1.8579  3.1281  0.0799
  896MOL0     H18210   6.180   4.232   8.836 -1.6268  0.4490 -0.5671
  896MOL0     H18211   5.962   4.230   8.926 -0.8001  0.4677  1.7259
  896MOL0     H18212   5.990   4.351   8.798  0.4560 -0.0933 -0.7522
  896MOL0     H18213   5.998   4.527   8.957  1.1039 -0.3140  0.7116
  896MOL0     H18214   5.973   4.421   9.102 -5.6082 -0.0980  1.7989
  896MOL0     H18215   5.800   4.472   8.865  0.1051 -2.9888 -1.6030
  896MOL0     H18216   5.768   4.333   8.970 -0.9600  0.9088 -2.2982
  896MOL0     H18217   5.771   4.622   9.059  0.3633 -0.0931  0.8462
  896MOL0     H18218   5.733   4.484   9.160  0.6832  0.7335 -0.1623
  896MOL0     H18219   5.532   4.443   9.002  1.5425 -0.9590  0.5104
  896MOL0     H18220   5.569   4.582   8.913 -4.4290 -0.5018 -0.5032
  896MOL0     H18221   5.504   4.578   9.222 -1.8175  1.5544  0.0757
  896MOL0     H18222   5.536   4.729   9.120 -0.6016  0.9360 -2.2416
  896MOL0     H18223   5.338   4.666   8.994 -0.2032 -2.6542 -0.3780
  896MOL0     H18224   5.304   4.694   9.168 -0.0148 -3.7510  3.6553
  896MOL0     H18225   5.343   4.435   9.313 -0.8778  1.3637 -0.0434
  896MOL0     H18226   5.366   4.146   9.284 -1.0018 -0.8736  0.7323
  896MOL0     H18227   5.255   4.078   9.173 -0.2983 -1.4960  0.9421
  896MOL0     H18228   5.187   4.233   9.428  1.1120 -0.8694  0.0730
  896MOL0     H18229   5.166   4.066   9.409  2.1651 -0.7493 -1.0946
  896MOL0     H18230   4.935   4.166   9.373 -0.7987  2.5453  0.8435
  896MOL0     H18231   5.003   4.289   9.276 -1.8593 -0.4984 -2.2053
  896MOL0     H18232   5.059   4.135   9.096 -0.8446  0.2557 -0.4922
  896MOL0     H18233   4.893   4.171   9.151  0.1296  1.5541  0.9774
  896MOL0     H18234   4.723   4.125   9.287 -0.9084 -0.2697  1.5509
  896MOL0     H18235   4.519   4.026   9.354 -2.7733 -1.2861  0.0035
  896MOL0     H18236   4.295   3.720   9.068 -1.2919  1.9781  0.7310
  896MOL0     H18237   4.042   3.678   9.023  1.7411 -0.0518 -0.6570
  896MOL0     H18238   3.945   3.388   9.014 -0.2740 -1.3451 -0.5495
  896MOL0     H18239   3.897   3.536   8.957 -0.6891 -0.9162 -1.9111
  896MOL0     H18240   3.685   3.382   9.118 -2.7784  4.7229  0.3019
  896MOL0     H18241   3.730   3.337   8.952  0.9555 -0.5081  0.0412
  896MOL0     H18242   3.559   3.481   8.937 -0.0899  0.0940  0.0463
  896MOL0     H18243   3.707   3.558   8.881  3.1312 -0.0562 -0.0446
  896MOL0     H18244   3.584   3.609   9.160  1.1906  1.9125  0.8423
  896MOL0     H18245   3.719   3.704   9.090  0.6042 -1.0837  1.1497
  896MOL0     H18246   3.430   3.683   8.988  0.5724 -2.0661  1.6203
  896MOL0     H18247   3.552   3.775   8.900  0.9001 -2.6844 -0.8529
  896MOL0     H18248   3.573   3.909   9.129 -0.8867 -0.6520  1.6906
  896MOL0     H18249   3.454   3.812   9.200 -1.0662 -0.8693  0.0165
  896MOL0     H18250   3.276   3.865   9.045 -0.4615  0.7939 -1.5107
  896MOL0     H18251   3.311   4.004   9.125  0.0884 -1.6498  0.6416
  896MOL0     H18252   3.275   4.046   8.882 -0.1796  1.2963  0.9530
  896MOL0     H18253   3.402   3.932   8.835 -0.9728 -1.6638  1.4235
  896MOL0     H18254   4.017   3.460   9.388 -0.0320 -1.5421 -1.9083
  896MOL0     H18255   4.259   3.522   9.436  3.8716 -0.9073 -2.2211
  896MOL0     H18256   4.656   3.646   9.204  3.2080 -0.1927 -2.4237
  896MOL0     H18257   4.862   3.741   9.141 -0.4117  1.4491 -3.0909
  896MOL0     H18258   6.397   4.257   8.743  0.4342  2.3008 -2.6263
  896MOL0     H18259   6.644   4.247   8.756  1.8957  2.9385 -2.8708
  896MOL0     H18260   7.104   4.155   8.894 -3.2924  0.2026 -0.2369
  896MOL0     H18261   7.337   4.211   8.978  1.8518  0.7295  2.6879
  896MOL0     H18262   7.394   4.590   9.219  2.6888 -0.4948  1.7837
  896MOL0     H18263   7.444   4.623   9.052 -2.4403 -1.5271 -1.5845
  896MOL0     H18264   7.604   4.468   9.264  0.6783 -3.1245 -2.3732
  896MOL0     H18265   7.654   4.477   9.098 -2.6601 -0.9780 -1.3690
  896MOL0     H18266   7.687   4.727   9.121 -3.2140 -0.4826 -1.0322
  896MOL0     H18267   7.789   4.631   9.234  0.4959  1.1602  0.3951
  896MOL0     H18268   7.650   4.844   9.350  0.3332 -1.0085  1.0350
  896MOL0     H18269   7.509   4.725   9.325 -1.2302  0.4672  1.0528
  896MOL0     H18270   7.645   4.585   9.672  0.2653  0.9778  1.1190
  896MOL0     H18271   7.193   4.589   9.119  0.5075  1.3251 -1.3126
  896MOL0     H18272   6.977   4.543   9.015 -0.5887 -0.3583  2.5018
  897MOL0     O18273   6.469   4.550  10.140  0.1341  0.2814  0.2070
  897MOL0     C18274   6.504   4.648  10.209  0.9975 -0.8582 -0.2176
  897MOL0     O18275   6.430   4.770  10.217  0.3300  0.5347  0.0128
  897MOL0     C18276   6.295   4.757  10.188  0.6157 -0.2658 -0.0406
  897MOL0     C18277   6.252   4.743  10.054 -0.8749  0.4337 -0.4992
  897MOL0     C18278   6.120   4.758  10.026  0.0128  0.4266  0.8165
  897MOL0     C18279   6.032   4.814  10.114 -0.6986  0.2384  0.3885
  897MOL0     O18280   5.912   4.866  10.062 -0.2832  0.1457 -0.1605
  897MOL0     C18281   5.850   4.966  10.142 -0.5632 -0.8256  0.7591
  897MOL0     C18282   5.734   5.015  10.066  0.4556  0.0087 -0.6919
  897MOL0     C18283   5.610   4.934  10.111 -0.5342 -1.2545 -0.3574
  897MOL0     C18284   5.483   5.008  10.085 -0.4913 -0.1483 -0.2433
  897MOL0     C18285   5.371   4.977  10.187  0.7546 -0.4739 -0.6436
  897MOL0     C18286   5.248   5.065  10.167  0.1640  0.6534 -0.2465
  897MOL0     C18287   5.141   5.027  10.270 -0.0530  0.2702  1.3145
  897MOL0     C18288   5.007   5.105  10.243 -0.4704  0.0228  0.5244
  897MOL0     N18289   4.896   5.021  10.183  0.6203 -0.6708  0.0641
  897MOL0     C18290   4.898   4.974  10.055  0.5637 -0.4575  0.3674
  897MOL0     C18291   4.776   4.904  10.043  0.2058 -0.0617 -0.4954
  897MOL0     C18292   4.729   4.820   9.929  0.2879 -0.0186 -0.5689
  897MOL0     C18293   4.629   4.890   9.840 -0.0774  0.0100 -0.9041
  897MOL0     C18294   4.501   4.926   9.923  0.4372  0.3766 -0.4608
  897MOL0     C18295   4.380   4.972   9.839  0.2895 -0.7454  0.0099
  897MOL0     O18296   4.258   4.954   9.911  0.4870 -0.1189  0.0570
  897MOL0     C18297   4.130   4.973   9.863 -0.2709 -0.9033  0.0319
  897MOL0     C18298   4.108   5.015   9.733  0.7264  0.5069  0.2854
  897MOL0     C18299   3.983   5.058   9.692  0.0229 -0.6639 -0.6089
  897MOL0     C18300   3.874   5.052   9.779  0.1046  0.1128 -0.3254
  897MOL0     C18301   3.756   5.119   9.739 -0.7828  0.0487  0.0542
  897MOL0     O18302   3.738   5.124   9.606 -0.0204 -0.8345  0.4524
  897MOL0     C18303   3.608   5.153   9.567  0.1418  1.1663  0.5125
  897MOL0     C18304   3.553   5.280   9.598  0.2325  0.0951 -0.0281
  897MOL0     C18305   3.420   5.309   9.557  0.1967 -0.0910 -0.1568
  897MOL0     C18306   3.345   5.217   9.478  0.2228 -0.3604  0.2857
  897MOL0     O18307   3.218   5.258   9.440 -0.0694 -0.0591 -0.5738
  897MOL0     C18308   3.218   5.337   9.319 -0.6106  0.0035  0.5213
  897MOL0     C18309   3.075   5.365   9.275  0.1762  0.7083 -0.2558
  897MOL0     C18310   2.991   5.237   9.260 -0.5632  0.0993  0.5128
  897MOL0     C18311   2.854   5.273   9.214  0.4882 -0.0310 -0.4799
  897MOL0     C18312   2.779   5.143   9.176 -0.0710  0.0674  0.1552
  897MOL0     C18313   2.633   5.173   9.126 -0.7367 -0.9253 -0.7088
  897MOL0     C18314   2.543   5.054   9.156  1.4249  0.4528 -1.0592
  897MOL0     C18315   2.402   5.051   9.083 -0.1210 -0.0601 -0.2567
  897MOL0    Cl18316   2.417   4.983   8.924  0.0629 -0.1526  0.3094
  897MOL0     C18317   3.406   5.098   9.437  0.6216 -0.0777 -0.8644
  897MOL0     C18318   3.537   5.061   9.486  0.1556  0.2805  0.1335
  897MOL0     O18319   3.671   5.145   9.829 -0.7243 -0.5380  0.2967
  897MOL0     C18320   3.903   5.000   9.911 -0.1385  1.2232 -0.1159
  897MOL0     C18321   4.026   4.952   9.949 -0.6538  0.5795  0.3658
  897MOL0     N18322   4.714   4.915  10.165  0.1078  0.3456 -0.2758
  897MOL0     N18323   4.780   4.994  10.247 -0.1381  0.5524 -0.0458
  897MOL0     C18324   6.070   4.824  10.241  0.5363  0.1951 -0.2751
  897MOL0     C18325   6.202   4.803  10.282  0.1166 -0.3949  0.1789
  897MOL0     C18326   6.627   4.633  10.292  0.0280  0.0683 -0.5353
  897MOL0     C18327   6.722   4.543  10.260 -0.0513  0.0100  0.2806
  897MOL0     C18328   6.828   4.503  10.341 -0.2585 -0.6399  0.1913
  897MOL0     C18329   6.849   4.566  10.462  0.2167 -0.7590 -0.4497
  897MOL0     O18330   6.955   4.545  10.547 -0.9414 -0.0108  0.6325
  897MOL0     C18331   7.012   4.409  10.547 -0.5564  0.2272  0.2394
  897MOL0     C18332   7.125   4.375  10.645 -0.2891 -0.3618  1.2289
  897MOL0     C18333   7.262   4.393  10.576 -0.7590  0.1682  0.1468
  897MOL0     C18334   7.361   4.403  10.694 -0.1420 -1.2516 -0.7956
  897MOL0     C18335   7.497   4.412  10.652  0.2289  0.7675 -0.0460
  897MOL0     C18336   7.608   4.426  10.607  0.0953  0.1108  1.1392
  897MOL0     C18337   6.754   4.664  10.499 -0.7980 -0.5691  0.2592
  897MOL0     C18338   6.641   4.691  10.421  0.2768  0.3034 -0.3440
  897MOL0     H18339   6.330   4.719   9.982  0.6356  0.4303  1.0855
  897MOL0     H18340   6.093   4.760   9.921 -0.1157  1.7702  0.8547
  897MOL0     H18341   5.919   5.050  10.133 -1.1364 -0.5740 -2.5958
  897MOL0     H18342   5.829   4.946  10.248  1.1330  3.4811  2.1420
  897MOL0     H18343   5.750   5.022   9.958 -0.4154  2.3498 -0.7187
  897MOL0     H18344   5.716   5.116  10.104 -0.1074 -0.9474  1.7620
  897MOL0     H18345   5.612   4.925  10.220 -1.5263  3.3014  0.2643
  897MOL0     H18346   5.615   4.841  10.054  0.8280  0.2010 -2.8231
  897MOL0     H18347   5.503   5.115  10.080 -0.6688  0.0460  2.1236
  897MOL0     H18348   5.444   4.977   9.987  1.2876  0.8715 -1.3245
  897MOL0     H18349   5.399   4.972  10.292 -2.7407  2.4340  0.6624
  897MOL0     H18350   5.339   4.875  10.165 -1.0053 -0.0581 -0.1833
  897MOL0     H18351   5.203   5.039  10.071 -1.1042 -0.0283  0.5035
  897MOL0     H18352   5.268   5.172  10.169  0.7488  0.5332  0.5178
  897MOL0     H18353   5.118   4.922  10.252  2.0986  0.2238 -2.1611
  897MOL0     H18354   5.173   5.030  10.375 -1.3813 -0.6759  1.7686
  897MOL0     H18355   5.022   5.182  10.167 -0.7332 -2.5030 -2.2419
  897MOL0     H18356   4.979   5.136  10.345  1.1016 -2.3281  1.7581
  897MOL0     H18357   4.967   4.998   9.974  2.4644 -2.7512  1.1766
  897MOL0     H18358   4.675   4.739   9.978 -1.3151  1.4502  0.1933
  897MOL0     H18359   4.823   4.787   9.881  1.6604 -0.9292  2.5139
  897MOL0     H18360   4.595   4.818   9.765 -0.1431  0.6894 -1.5363
  897MOL0     H18361   4.672   4.982   9.801 -1.1190  0.6634 -0.5484
  897MOL0     H18362   4.469   4.837   9.978  1.2305  0.2388 -0.2126
  897MOL0     H18363   4.517   5.001  10.001 -0.8755 -1.6123  1.8889
  897MOL0     H18364   4.385   4.932   9.737  3.7834  0.5791 -0.4644
  897MOL0     H18365   4.389   5.081   9.834 -0.8942 -0.6921 -1.5075
  897MOL0     H18366   4.188   5.037   9.663 -1.5568  2.1047 -1.9708
  897MOL0     H18367   3.970   5.116   9.602 -3.8836 -0.5280 -0.1026
  897MOL0     H18368   3.620   5.343   9.654 -0.8035  0.3336  0.9980
  897MOL0     H18369   3.376   5.401   9.595  0.8541 -0.5708  1.8852
  897MOL0     H18370   3.275   5.285   9.241 -1.2667 -2.0151  1.3034
  897MOL0     H18371   3.265   5.434   9.337  1.1968 -0.6435 -0.4392
  897MOL0     H18372   3.080   5.422   9.182  0.2222 -2.1673 -2.1380
  897MOL0     H18373   3.023   5.424   9.351 -2.1931 -3.9614  2.2012
  897MOL0     H18374   2.981   5.190   9.358 -1.0640  0.4478  0.6312
  897MOL0     H18375   3.043   5.176   9.186  0.3268 -0.3851  1.5223
  897MOL0     H18376   2.792   5.332   9.281  0.2382  1.0354 -1.6156
  897MOL0     H18377   2.866   5.329   9.121 -0.1506  1.3081  0.2189
  897MOL0     H18378   2.767   5.082   9.265  3.2733 -0.6480  0.2327
  897MOL0     H18379   2.831   5.084   9.100  1.3926  0.3346  0.9211
  897MOL0     H18380   2.635   5.190   9.018 -4.9944 -0.3650 -0.8726
  897MOL0     H18381   2.585   5.265   9.159 -0.5012 -0.1272 -2.4645
  897MOL0     H18382   2.594   4.958   9.139 -0.3371 -0.9670  1.0796
  897MOL0     H18383   2.541   5.045   9.265  4.1615 -0.9991 -1.0224
  897MOL0     H18384   2.353   5.149   9.078 -0.1926 -0.0873 -0.1128
  897MOL0     H18385   2.342   4.983   9.145 -0.9725  0.1020 -0.8920
  897MOL0     H18386   3.366   5.018   9.374  0.1582 -1.4781  1.1153
  897MOL0     H18387   3.574   4.967   9.445  0.2674  0.8850 -1.1930
  897MOL0     H18388   3.831   4.969   9.986  1.0324 -2.7291 -0.3742
  897MOL0     H18389   4.052   4.909  10.045  0.3802  2.5743  1.0483
  897MOL0     H18390   5.993   4.849  10.314 -0.3824  0.6821 -1.3777
  897MOL0     H18391   6.244   4.817  10.381 -1.5369  3.2539  0.5187
  897MOL0     H18392   6.709   4.493  10.164  0.4340  1.4660 -0.5603
  897MOL0     H18393   6.906   4.442  10.297  0.7206  1.1994 -0.7338
  897MOL0     H18394   7.046   4.380  10.447  0.9207 -0.0107  0.7860
  897MOL0     H18395   6.938   4.340  10.588  1.8219 -0.5475  3.6896
  897MOL0     H18396   7.108   4.445  10.728 -0.5009 -2.1103  2.7138
  897MOL0     H18397   7.126   4.273  10.684 -0.0181  0.3113  3.1331
  897MOL0     H18398   7.266   4.478  10.507  0.7902 -2.4189 -3.3156
  897MOL0     H18399   7.280   4.299  10.524 -0.8716  0.3669 -0.2562
  897MOL0     H18400   7.344   4.493  10.754  0.4830 -0.5172 -1.6954
  897MOL0     H18401   7.351   4.322  10.767 -0.5710  0.1684  0.7857
  897MOL0     H18402   7.700   4.434  10.553 -0.7209 -0.1710 -0.3473
  897MOL0     H18403   6.759   4.714  10.596 -0.0067 -0.2981  0.0880
  897MOL0     H18404   6.570   4.769  10.446 -0.2797 -0.0725 -0.7403
  898MOL0     O18405   3.849   0.199  10.021 -0.6883  0.1771 -0.2174
  898MOL0     C18406   3.767   0.194  10.114 -0.4562  0.3208  0.1071
  898MOL0     O18407   3.786   0.219  10.238 -0.1444 -0.5848  0.6639
  898MOL0     C18408   3.897   0.285  10.275 -0.7192 -0.0625  0.7525
  898MOL0     C18409   3.884   0.423  10.266 -1.2361 -0.0328 -0.7250
  898MOL0     C18410   3.991   0.501  10.321  0.5605  1.0255 -1.0846
  898MOL0     C18411   4.100   0.435  10.388 -0.7864  0.7217  0.0400
  898MOL0     O18412   4.186   0.504  10.476 -0.3282  0.6336  0.0570
  898MOL0     C18413   4.247   0.618  10.417  0.0313  0.4726  0.4699
  898MOL0     C18414   4.340   0.675  10.526 -0.4318  0.6462  0.6214
  898MOL0     C18415   4.466   0.593  10.556  0.0981 -0.5036  0.0518
  898MOL0     C18416   4.448   0.469  10.626 -0.4045 -0.3917 -0.2745
  898MOL0     C18417   4.580   0.402  10.679  0.2372 -0.2083  0.3887
  898MOL0     C18418   4.667   0.355  10.559  0.6821 -0.4856 -0.8389
  898MOL0     C18419   4.800   0.285  10.604  0.2121 -0.0796 -0.4235
  898MOL0     C18420   4.769   0.143  10.635 -0.0560 -0.5449  0.5850
  898MOL0     N18421   4.759   0.057  10.522 -0.4094  0.0001 -0.2928
  898MOL0     C18422   4.867  -0.011  10.469  0.1760 -0.8953  0.5180
  898MOL0     C18423   4.821  -0.112  10.393 -0.6381 -0.3279 -0.1027
  898MOL0     C18424   4.907  -0.203  10.305  0.3695  0.2904 -0.1442
  898MOL0     C18425   4.842  -0.256  10.174 -0.2926  0.0436  0.3342
  898MOL0     C18426   4.810  -0.146  10.070  0.7308  0.0813 -0.1580
  898MOL0     C18427   4.794  -0.203   9.934 -0.9777  0.6528  0.0152
  898MOL0     O18428   4.696  -0.314   9.920 -0.5016 -0.2864  0.1577
  898MOL0     C18429   4.570  -0.294   9.891  0.2285 -0.4367  0.5250
  898MOL0     C18430   4.514  -0.400   9.821  0.4515  0.3952  0.1200
  898MOL0     C18431   4.382  -0.390   9.769 -0.5618  1.1668 -0.2037
  898MOL0     C18432   4.304  -0.279   9.798 -0.3475 -0.1232 -0.1127
  898MOL0     C18433   4.156  -0.269   9.763 -0.6240 -0.4323  0.4208
  898MOL0     O18434   4.122  -0.144   9.738  0.1778 -0.1390 -0.6492
  898MOL0     C18435   3.995  -0.110   9.700 -0.0968 -0.2596  0.5351
  898MOL0     C18436   3.888  -0.184   9.744 -0.4594  0.1495 -0.2510
  898MOL0     C18437   3.752  -0.157   9.716 -0.0320 -0.4534  0.5122
  898MOL0     C18438   3.720  -0.051   9.634 -0.1317 -0.4165 -0.5978
  898MOL0     O18439   3.587  -0.026   9.602  0.0953 -0.5258 -0.0579
  898MOL0     C18440   3.547   0.020   9.471 -0.0404 -0.8279 -0.2468
  898MOL0     C18441   3.395  -0.000   9.449  0.4797  0.2786  0.1726
  898MOL0     C18442   3.309   0.105   9.516 -0.0788 -0.0102 -0.3243
  898MOL0     C18443   3.173   0.096   9.465  0.3029 -0.2811 -0.1132
  898MOL0     C18444   3.081  -0.027   9.529  0.2764  0.1379 -0.1843
  898MOL0     C18445   2.947  -0.031   9.460  0.0576  0.9651  0.2384
  898MOL0     C18446   2.852  -0.148   9.487  1.1466  0.0668 -0.1402
  898MOL0     C18447   2.716  -0.132   9.405  0.6023  0.4123  0.5664
  898MOL0    Cl18448   2.624   0.017   9.425 -0.2076 -0.0511  0.4718
  898MOL0     C18449   3.830   0.016   9.576  0.3084 -0.3388  0.2000
  898MOL0     C18450   3.961  -0.006   9.609 -0.4803  0.2583 -0.7223
  898MOL0     O18451   4.096  -0.374   9.746 -0.0452  0.4652  0.6617
  898MOL0     C18452   4.358  -0.176   9.876  0.2171  0.3521 -1.1080
  898MOL0     C18453   4.491  -0.177   9.914  0.2411  0.0961 -0.2630
  898MOL0     N18454   4.691  -0.123  10.422 -0.3623 -0.2966  0.3641
  898MOL0     N18455   4.658  -0.022  10.491 -0.9013 -0.7077 -0.1438
  898MOL0     C18456   4.110   0.295  10.385  0.0788 -0.4389 -0.4844
  898MOL0     C18457   4.013   0.219  10.324  0.2411 -0.4062  0.4774
  898MOL0     C18458   3.630   0.136  10.077 -0.0712 -0.9382  0.3143
  898MOL0     C18459   3.605   0.082   9.947 -0.6590  0.1475 -0.4641
  898MOL0     C18460   3.480   0.020   9.923 -0.0701  0.1405 -0.0070
  898MOL0     C18461   3.377   0.011  10.018  0.2406 -0.0718  1.0478
  898MOL0     O18462   3.252  -0.042  10.009  0.3144 -0.6587 -0.7319
  898MOL0     C18463   3.234  -0.095   9.878  0.2005  0.4933 -0.3717
  898MOL0     C18464   3.115  -0.192   9.877  0.3937 -0.2809 -0.4972
  898MOL0     C18465   3.138  -0.322   9.958 -0.3684 -0.2051  0.1131
  898MOL0     C18466   3.024  -0.427   9.936  0.1385 -0.2274 -0.0601
  898MOL0     C18467   2.886  -0.392   9.987 -0.4341  0.4864  1.1625
  898MOL0     C18468   2.772  -0.392  10.028  0.5319 -1.1975 -0.3318
  898MOL0     C18469   3.407   0.075  10.142  0.1076  0.1818 -0.5689
  898MOL0     C18470   3.531   0.122  10.180 -0.6306 -0.6360  0.6725
  898MOL0     H18471   3.804   0.485  10.226 -0.3902  1.3396 -0.3677
  898MOL0     H18472   3.974   0.608  10.328 -1.6375  0.7633 -1.5123
  898MOL0     H18473   4.178   0.696  10.384  0.7796  2.4862  3.2675
  898MOL0     H18474   4.292   0.569  10.330 -0.7615 -0.4370  0.5529
  898MOL0     H18475   4.278   0.676  10.616  0.1825 -0.3825  1.0744
  898MOL0     H18476   4.372   0.777  10.502 -1.6409  0.8535 -0.1492
  898MOL0     H18477   4.514   0.663  10.624 -1.1878 -1.4786  2.0351
  898MOL0     H18478   4.522   0.566  10.466 -0.3344  0.1252 -0.4168
  898MOL0     H18479   4.382   0.482  10.712 -3.3068 -4.4768 -1.5606
  898MOL0     H18480   4.392   0.398  10.564  0.2133 -0.6328 -0.5725
  898MOL0     H18481   4.556   0.312  10.736  0.3136 -0.1231  0.5549
  898MOL0     H18482   4.636   0.478  10.735 -1.7865  2.6120 -1.1607
  898MOL0     H18483   4.686   0.440  10.493  1.2977 -1.0659 -1.4351
  898MOL0     H18484   4.608   0.285  10.500 -0.2063  0.2349 -0.8190
  898MOL0     H18485   4.884   0.271  10.535  1.5590 -2.9020  1.6125
  898MOL0     H18486   4.843   0.342  10.687 -1.2108  3.3715 -1.8289
  898MOL0     H18487   4.677   0.139  10.695  0.2712  1.0021  1.2481
  898MOL0     H18488   4.851   0.110  10.699  0.0398  0.5297  1.0461
  898MOL0     H18489   4.970   0.024  10.470  0.2322 -0.8604 -1.7370
  898MOL0     H18490   4.938  -0.294  10.359  2.9006 -0.3915 -2.5269
  898MOL0     H18491   4.998  -0.148  10.283  0.2275  1.0764  1.1311
  898MOL0     H18492   4.747  -0.301  10.204  0.3586 -0.7039  1.3434
  898MOL0     H18493   4.901  -0.339  10.134 -0.6746 -2.4186  4.3029
  898MOL0     H18494   4.721  -0.097  10.110 -0.2128 -1.2484 -0.5811
  898MOL0     H18495   4.900  -0.084  10.065  2.4606 -2.2584 -0.0264
  898MOL0     H18496   4.892  -0.230   9.892 -3.0082 -0.9809 -4.2837
  898MOL0     H18497   4.760  -0.116   9.876 -0.4491 -0.9808 -2.9696
  898MOL0     H18498   4.561  -0.497   9.803  0.9505  1.1191 -3.1655
  898MOL0     H18499   4.354  -0.485   9.723  2.3126 -1.2470  2.4969
  898MOL0     H18500   3.900  -0.263   9.817 -0.2976 -0.2886 -0.7439
  898MOL0     H18501   3.675  -0.222   9.757  0.5594  0.0068  2.4927
  898MOL0     H18502   3.598  -0.030   9.387 -0.2309  1.2888 -1.7021
  898MOL0     H18503   3.566   0.127   9.460 -1.6620 -0.5731 -0.8108
  898MOL0     H18504   3.366  -0.103   9.475  3.5858 -2.3598 -5.1071
  898MOL0     H18505   3.366   0.003   9.344  0.5719 -0.7807  0.1020
  898MOL0     H18506   3.357   0.201   9.492  0.3237 -0.7473 -2.6979
  898MOL0     H18507   3.311   0.102   9.626  0.3256  3.3163 -0.1270
  898MOL0     H18508   3.128   0.193   9.489  0.2329 -0.7743  1.9308
  898MOL0     H18509   3.174   0.081   9.356 -3.0494 -3.6199  0.1030
  898MOL0     H18510   3.077  -0.024   9.638  1.3284  3.6585 -0.1454
  898MOL0     H18511   3.121  -0.127   9.508  1.5679  0.9027 -1.4698
  898MOL0     H18512   2.965  -0.043   9.353 -1.0528 -1.7261  0.2816
  898MOL0     H18513   2.899   0.063   9.488 -0.8422 -0.0856  2.4170
  898MOL0     H18514   2.901  -0.240   9.455 -1.4410 -0.8990 -1.6721
  898MOL0     H18515   2.821  -0.170   9.589 -0.5293 -2.5395 -1.0983
  898MOL0     H18516   2.641  -0.205   9.434 -1.1802  1.7655 -0.4380
  898MOL0     H18517   2.741  -0.150   9.299 -2.4870 -0.7333 -0.0563
  898MOL0     H18518   3.802   0.083   9.496 -0.9726  0.5314  1.3366
  898MOL0     H18519   4.042   0.040   9.553 -2.5850  2.6982 -1.9500
  898MOL0     H18520   4.293  -0.093   9.899  1.5379  1.3486 -0.8133
  898MOL0     H18521   4.522  -0.089   9.969 -0.3358 -0.4483  0.9793
  898MOL0     H18522   4.191   0.250  10.441 -0.0218 -2.3463 -1.7829
  898MOL0     H18523   4.007   0.111  10.335 -0.8567 -0.4139 -0.0737
  898MOL0     H18524   3.683   0.090   9.872 -0.5287  0.4157 -0.3008
  898MOL0     H18525   3.464  -0.001   9.817  0.0290  3.8846 -0.9137
  898MOL0     H18526   3.317  -0.164   9.858  0.6171  0.6303  0.8260
  898MOL0     H18527   3.221  -0.025   9.795 -1.3435 -0.3960 -0.9181
  898MOL0     H18528   3.019  -0.147   9.907  0.5182 -0.1000 -0.3684
  898MOL0     H18529   3.103  -0.227   9.774  0.5130 -1.1575 -0.2273
  898MOL0     H18530   3.148  -0.310  10.066  1.7517 -1.0026  0.0428
  898MOL0     H18531   3.233  -0.363   9.924  0.2204 -0.6739  2.2020
  898MOL0     H18532   3.024  -0.458   9.831  1.6846  2.3949 -0.9210
  898MOL0     H18533   3.052  -0.517   9.992 -0.8316  0.8025  2.2002
  898MOL0     H18534   2.675  -0.405  10.072 -0.3952 -0.0520 -1.9568
  898MOL0     H18535   3.337   0.075  10.224  0.7161  0.9033 -0.0322
  898MOL0     H18536   3.533   0.169  10.278  0.6051  0.3475  0.2100
  899MOL0     O18537   4.830   2.443   9.973  0.7422  0.1388 -0.2192
  899MOL0     C18538   4.867   2.421   9.858 -0.3641  0.2756 -0.3288
  899MOL0     O18539   4.785   2.436   9.745 -0.4206 -0.2504  0.7130
  899MOL0     C18540   4.658   2.477   9.774  1.1279  0.4843  0.3323
  899MOL0     C18541   4.633   2.609   9.826 -0.3069  0.3632  0.2312
  899MOL0     C18542   4.506   2.651   9.863  0.3606  0.4054  0.3038
  899MOL0     C18543   4.398   2.562   9.854 -0.2112 -0.6024  1.1330
  899MOL0     O18544   4.271   2.586   9.895  0.1024 -0.1238  0.0996
  899MOL0     C18545   4.166   2.571   9.810 -0.0833  0.2900  0.1130
  899MOL0     C18546   4.043   2.599   9.894 -0.0128  0.0684  1.1747
  899MOL0     C18547   3.920   2.551   9.823  0.8161 -0.6481  0.2519
  899MOL0     C18548   3.793   2.580   9.913  0.3245 -0.2331  0.7425
  899MOL0     C18549   3.683   2.505   9.850  0.4435  1.0707  0.1215
  899MOL0     C18550   3.557   2.529   9.924  0.0464  0.0059 -0.2559
  899MOL0     C18551   3.452   2.427   9.876  0.1034 -0.1981  0.3295
  899MOL0     C18552   3.309   2.435   9.937 -0.4572  0.0113  1.4890
  899MOL0     N18553   3.244   2.565   9.936 -0.5023 -0.2603  0.0065
  899MOL0     C18554   3.209   2.625  10.056 -1.0730  1.0646  0.9392
  899MOL0     C18555   3.150   2.737  10.016 -1.0182 -0.5881  0.2993
  899MOL0     C18556   3.070   2.839  10.091  0.1710 -0.6519 -0.4508
  899MOL0     C18557   2.925   2.877  10.040 -0.0206  0.6432  0.2043
  899MOL0     C18558   2.841   2.745  10.029  0.8050 -0.6746 -0.4736
  899MOL0     C18559   2.686   2.765  10.029 -0.1899  0.3306 -1.2727
  899MOL0     O18560   2.654   2.845  10.141  0.3204  0.3685  0.0606
  899MOL0     C18561   2.529   2.902  10.140  0.1450  0.8232 -0.3817
  899MOL0     C18562   2.404   2.846  10.105  0.0191 -0.5560 -0.3868
  899MOL0     C18563   2.279   2.915  10.115  0.6526 -0.0665 -0.1811
  899MOL0     C18564   2.274   3.046  10.162  0.1362 -0.7075  0.1695
  899MOL0     C18565   2.150   3.122  10.182  0.3843  0.3093 -0.0514
  899MOL0     O18566   2.032   3.049  10.152  0.2967 -0.6973 -0.2299
  899MOL0     C18567   1.908   3.098  10.163 -0.1252 -0.2964  0.3090
  899MOL0     C18568   1.809   3.001  10.132  0.4892 -0.0220 -0.4749
  899MOL0     C18569   1.671   3.034  10.128  0.5728  0.0983 -0.9120
  899MOL0     C18570   1.626   3.159  10.162 -0.4247  0.5479 -0.0948
  899MOL0     O18571   1.486   3.177  10.172 -0.0504 -1.6559  0.0265
  899MOL0     C18572   1.435   3.310  10.167 -0.7547  0.1048 -0.1270
  899MOL0     C18573   1.281   3.301  10.177  0.4525 -0.4393 -0.3893
  899MOL0     C18574   1.214   3.243  10.054  0.2380 -0.3270 -0.4968
  899MOL0     C18575   1.075   3.212  10.082  0.1386 -0.0708  0.3697
  899MOL0     C18576   1.005   3.140   9.957  0.0189 -0.5134 -0.4295
  899MOL0     C18577   0.850   3.134   9.977 -0.1419  0.0542  0.3245
  899MOL0     C18578   0.791   3.072  10.118  0.6840  0.4278  0.1735
  899MOL0     C18579   0.640   3.036  10.117 -0.0435 -0.0950  0.3632
  899MOL0    Cl18580   0.611   2.896  10.011 -0.6310  0.4779  0.1059
  899MOL0     C18581   1.724   3.250  10.203  0.0231 -0.0300  0.7529
  899MOL0     C18582   1.860   3.232  10.193  0.2231 -0.6928  0.8010
  899MOL0     O18583   2.158   3.240  10.216 -0.2707 -0.0698 -0.4693
  899MOL0     C18584   2.400   3.102  10.208  0.3073 -0.0377 -0.2755
  899MOL0     C18585   2.523   3.030  10.210 -0.4410  0.4848  0.1344
  899MOL0     N18586   3.180   2.758   9.883 -0.7958  0.0909  0.1562
  899MOL0     N18587   3.236   2.652   9.829 -0.4821 -0.3207 -0.2118
  899MOL0     C18588   4.420   2.436   9.806 -0.6550 -0.0109 -0.5343
  899MOL0     C18589   4.545   2.394   9.755 -0.3249 -0.0700 -0.0825
  899MOL0     C18590   5.011   2.391   9.835 -0.3565  0.4435  0.6945
  899MOL0     C18591   5.104   2.430   9.929 -0.8090  0.1861  0.0235
  899MOL0     C18592   5.238   2.392   9.924  0.5718 -0.0229  0.5983
  899MOL0     C18593   5.285   2.304   9.824  0.3769  0.6932  1.2744
  899MOL0     O18594   5.401   2.226   9.826  0.6824  0.1270  0.5089
  899MOL0     C18595   5.504   2.269   9.916 -0.5404  0.1689 -0.7492
  899MOL0     C18596   5.576   2.398   9.882  0.7792  0.6751  0.8294
  899MOL0     C18597   5.663   2.390   9.760  0.2462 -0.5173  0.0525
  899MOL0     C18598   5.792   2.306   9.769 -0.2217 -0.7631 -0.3772
  899MOL0     C18599   5.849   2.306   9.901  0.0363  0.0911  0.2819
  899MOL0     C18600   5.924   2.305   9.994  0.3550  0.8145 -0.6667
  899MOL0     C18601   5.193   2.282   9.717  0.9904  0.2295 -0.2719
  899MOL0     C18602   5.053   2.322   9.725 -1.2510  1.0182  0.3203
  899MOL0     H18603   4.710   2.684   9.844 -0.2909  0.2265  0.7350
  899MOL0     H18604   4.490   2.757   9.880  5.1548  1.3306  0.4882
  899MOL0     H18605   4.162   2.468   9.772 -0.7485  1.3358 -2.9338
  899MOL0     H18606   4.174   2.629   9.717 -0.3621 -0.5688 -0.4586
  899MOL0     H18607   4.032   2.707   9.909  0.5583 -0.1444  3.5434
  899MOL0     H18608   4.055   2.560   9.995  0.9177 -0.1340  1.0003
  899MOL0     H18609   3.926   2.444   9.802  1.1798 -0.4950 -0.4520
  899MOL0     H18610   3.904   2.587   9.720  1.2870  0.7087  0.6341
  899MOL0     H18611   3.813   2.545  10.015 -2.7919 -0.5947  1.3290
  899MOL0     H18612   3.784   2.688   9.897  1.3763 -0.1897  0.3309
  899MOL0     H18613   3.692   2.396   9.862 -0.9450  0.9388  0.1657
  899MOL0     H18614   3.666   2.544   9.750 -0.1615 -0.1231 -0.2541
  899MOL0     H18615   3.525   2.632   9.907  1.1011  0.4406  0.2673
  899MOL0     H18616   3.586   2.525  10.029  3.1791  0.2761 -0.9895
  899MOL0     H18617   3.452   2.429   9.766  1.6784 -0.2119  0.2969
  899MOL0     H18618   3.486   2.328   9.908 -0.6228 -0.8916 -0.9720
  899MOL0     H18619   3.281   2.390  10.033 -2.1244 -0.8832  0.6231
  899MOL0     H18620   3.245   2.381   9.867 -2.3343  3.3950  0.4205
  899MOL0     H18621   3.209   2.588  10.158  0.9363  0.9611  0.9479
  899MOL0     H18622   3.133   2.929  10.096  2.2177 -2.0607  3.0021
  899MOL0     H18623   3.061   2.805  10.195 -2.2594  0.0337 -0.3737
  899MOL0     H18624   2.931   2.928   9.944 -1.1281  1.3952  0.5230
  899MOL0     H18625   2.880   2.954  10.103 -3.0293  1.4678 -2.6787
  899MOL0     H18626   2.876   2.695   9.938  2.9665  0.1977 -0.1908
  899MOL0     H18627   2.859   2.691  10.123 -0.4419  2.1397  1.5017
  899MOL0     H18628   2.638   2.667  10.035  2.1324 -0.9498 -2.1754
  899MOL0     H18629   2.650   2.810   9.936  0.5873  1.8403 -0.8677
  899MOL0     H18630   2.396   2.741  10.078  4.0613 -0.7949 -1.1785
  899MOL0     H18631   2.183   2.875  10.085 -0.5673  1.7657  1.0595
  899MOL0     H18632   1.829   2.902  10.094 -0.6372 -0.6032  0.4119
  899MOL0     H18633   1.605   2.970  10.070 -0.9087  1.6076 -0.9718
  899MOL0     H18634   1.461   3.349  10.068  0.6964  0.6375  0.4432
  899MOL0     H18635   1.467   3.380  10.244 -1.9944  2.5391 -1.6884
  899MOL0     H18636   1.236   3.399  10.195 -1.2728 -0.9783 -1.5701
  899MOL0     H18637   1.258   3.237  10.263  3.3686 -0.0831  0.7870
  899MOL0     H18638   1.266   3.152  10.022  0.3429 -1.2939  2.1675
  899MOL0     H18639   1.228   3.325   9.983  0.0584  0.9862  0.9414
  899MOL0     H18640   1.059   3.154  10.173 -2.8902 -0.8799 -0.5342
  899MOL0     H18641   1.026   3.308  10.102 -1.3438 -0.9953  1.4167
  899MOL0     H18642   1.040   3.037   9.961 -0.7153 -0.7633 -0.2236
  899MOL0     H18643   1.028   3.186   9.860 -1.7268 -0.6935 -0.9637
  899MOL0     H18644   0.802   3.080   9.895  1.5551  2.2041 -2.2622
  899MOL0     H18645   0.816   3.238   9.965  1.2306  0.4097 -0.6592
  899MOL0     H18646   0.845   2.980  10.141 -0.8799 -0.6038 -0.1472
  899MOL0     H18647   0.807   3.144  10.198 -1.5958 -0.2965  1.3583
  899MOL0     H18648   0.581   3.122  10.084  1.1731  1.1885  1.4022
  899MOL0     H18649   0.602   3.018  10.218  2.5818 -2.1010  1.1112
  899MOL0     H18650   1.691   3.351  10.226 -1.7515  0.1405 -2.0135
  899MOL0     H18651   1.922   3.320  10.196  1.2296 -1.3353 -0.5305
  899MOL0     H18652   2.412   3.202  10.247  1.7492  0.4950 -1.9570
  899MOL0     H18653   2.618   3.071  10.242 -0.5982  0.7583  0.2552
  899MOL0     H18654   4.333   2.371   9.803 -1.9923  1.4446  2.6102
  899MOL0     H18655   4.558   2.302   9.700  3.4073  1.1395 -1.5419
  899MOL0     H18656   5.080   2.500  10.009 -1.1316 -0.0258  0.1117
  899MOL0     H18657   5.297   2.426  10.009  0.4919 -0.9449  1.0424
  899MOL0     H18658   5.571   2.183   9.907 -1.2984 -0.4941 -0.1247
  899MOL0     H18659   5.465   2.263  10.018 -1.2644 -2.0753 -1.0965
  899MOL0     H18660   5.507   2.482   9.871  2.1234  1.8719  1.2000
  899MOL0     H18661   5.632   2.428   9.971 -1.0609  2.3945  1.4574
  899MOL0     H18662   5.690   2.495   9.742  0.5614  1.0600  6.8120
  899MOL0     H18663   5.602   2.348   9.680 -0.0143  0.7903 -0.4727
  899MOL0     H18664   5.782   2.208   9.722 -3.5655 -0.6018 -0.1856
  899MOL0     H18665   5.871   2.347   9.704  1.4661 -0.5993  1.6740
  899MOL0     H18666   5.981   2.330  10.082 -1.7304  2.8543  0.2097
  899MOL0     H18667   5.228   2.219   9.636 -0.9410 -2.8713  1.1487
  899MOL0     H18668   4.981   2.299   9.647  0.9481  2.3834 -2.2806
  900MOL0     O18669  11.217   3.130   7.076 -0.0968  0.2200 -0.1677
  900MOL0     C18670  11.234   3.198   7.178 -0.2464  0.0856 -0.3955
  900MOL0     O18671  11.140   3.251   7.258  0.2296  0.7222 -0.1183
  900MOL0     C18672  11.013   3.265   7.210  0.5754 -0.2959 -0.7059
  900MOL0     C18673  10.978   3.395   7.160  0.4511  1.1589 -0.1441
  900MOL0     C18674  10.850   3.416   7.106 -0.3219 -0.0389 -0.6040
  900MOL0     C18675  10.754   3.309   7.099 -0.2887 -0.1511 -0.1550
  900MOL0     O18676  10.635   3.354   7.043 -0.6265 -0.0829 -0.5236
  900MOL0     C18677  10.522   3.300   7.120 -0.5144 -0.0064 -0.6334
  900MOL0     C18678  10.410   3.404   7.133 -0.0519  0.7332  0.6865
  900MOL0     C18679  10.280   3.323   7.146  0.4757 -0.9349 -0.0155
  900MOL0     C18680  10.164   3.408   7.180  0.1597 -0.0570 -1.1322
  900MOL0     C18681  10.023   3.348   7.149 -0.2195  0.1411 -0.0337
  900MOL0     C18682   9.921   3.463   7.118 -0.4560  0.5692 -0.7064
  900MOL0     C18683   9.899   3.573   7.221 -0.5601 -0.4855 -0.2075
  900MOL0     C18684   9.791   3.684   7.203  0.1816 -0.0558  0.0292
  900MOL0     N18685   9.667   3.615   7.176  1.2368 -1.0356 -0.0681
  900MOL0     C18686   9.591   3.635   7.065  1.1644 -0.3758 -0.3133
  900MOL0     C18687   9.487   3.552   7.080  0.1785 -0.3559 -0.3649
  900MOL0     C18688   9.386   3.531   6.976 -0.1527  0.9509 -0.1311
  900MOL0     C18689   9.242   3.533   7.026  0.7229  0.8049 -0.1303
  900MOL0     C18690   9.142   3.461   6.930  0.3208 -0.0284 -0.2486
  900MOL0     C18691   9.004   3.446   6.994 -0.3012  0.3532  0.1395
  900MOL0     O18692   8.945   3.329   6.940 -0.3602  0.3291  0.2664
  900MOL0     C18693   8.812   3.305   6.978 -0.6030  0.3016 -0.4709
  900MOL0     C18694   8.769   3.169   6.965  0.2484 -0.1099  0.2006
  900MOL0     C18695   8.638   3.131   6.974 -0.4502  0.1962 -0.8079
  900MOL0     C18696   8.541   3.218   7.021  0.4730 -0.2561  0.1827
  900MOL0     C18697   8.396   3.176   7.034  0.7276  0.0932 -0.0717
  900MOL0     O18698   8.364   3.043   7.010  1.0535 -0.1771  0.1991
  900MOL0     C18699   8.237   2.995   7.051  0.1719  0.0407  0.5040
  900MOL0     C18700   8.119   3.050   7.009 -0.0495  0.7059 -0.0352
  900MOL0     C18701   7.999   2.996   7.041  0.3175  1.2298 -1.7647
  900MOL0     C18702   7.995   2.880   7.133  0.7116 -0.5235 -0.3834
  900MOL0     O18703   7.873   2.823   7.167  0.5133 -0.6317  0.5389
  900MOL0     C18704   7.862   2.717   7.259  0.2583 -0.1775 -1.3485
  900MOL0     C18705   7.725   2.681   7.311 -0.9243 -0.2197  0.6718
  900MOL0     C18706   7.632   2.681   7.192 -0.1668  0.4829  0.0088
  900MOL0     C18707   7.493   2.645   7.239 -0.4804  0.0629  0.4106
  900MOL0     C18708   7.395   2.643   7.118 -0.2809 -0.3800  0.8159
  900MOL0     C18709   7.369   2.781   7.049 -0.3224 -0.8534 -0.3303
  900MOL0     C18710   7.314   2.890   7.146  0.7640 -1.0048  0.7449
  900MOL0     C18711   7.249   2.999   7.065 -0.4290  0.0358  0.1075
  900MOL0    Cl18712   7.204   3.124   7.180  0.0468 -0.1864 -0.0492
  900MOL0     C18713   8.117   2.816   7.155 -0.0732 -0.0091 -0.2209
  900MOL0     C18714   8.236   2.878   7.115  0.7039  0.4820 -0.2170
  900MOL0     O18715   8.321   3.269   7.075 -0.2213  0.4263  0.0095
  900MOL0     C18716   8.577   3.356   7.037 -0.4849  0.5955 -0.2721
  900MOL0     C18717   8.719   3.392   7.030  0.3153  0.3799 -0.3452
  900MOL0     N18718   9.485   3.496   7.206  0.1133 -1.3355 -0.2033
  900MOL0     N18719   9.587   3.538   7.259 -0.7205 -0.5992 -0.1053
  900MOL0     C18720  10.793   3.188   7.160 -0.1540  0.2173 -0.7266
  900MOL0     C18721  10.924   3.166   7.206 -0.2552 -1.0619 -0.8308
  900MOL0     C18722  11.378   3.201   7.225  1.7714 -0.3616 -0.6717
  900MOL0     C18723  11.404   3.232   7.358  0.1532 -0.8656  0.5193
  900MOL0     C18724  11.538   3.228   7.416  0.7137  0.8019  1.0343
  900MOL0     C18725  11.646   3.202   7.332 -0.0620 -0.2946  0.4353
  900MOL0     O18726  11.777   3.217   7.371 -0.3591 -0.4115 -0.1168
  900MOL0     C18727  11.858   3.108   7.312  0.0225 -0.6440  0.5093
  900MOL0     C18728  11.982   3.096   7.402  0.5699  0.2445  1.3053
  900MOL0     C18729  12.072   2.978   7.371  0.1766  0.3172  0.2667
  900MOL0     C18730  12.208   2.982   7.456  1.2619  0.6994  0.2150
  900MOL0     C18731  12.258   2.842   7.457 -0.4173 -0.2882 -0.3551
  900MOL0     C18732  12.304   2.726   7.471  0.7151 -0.2308  0.2498
  900MOL0     C18733  11.622   3.187   7.188 -0.5473 -0.3705 -0.4311
  900MOL0     C18734  11.486   3.185   7.139  0.2918 -1.5224  0.3693
  900MOL0     H18735  11.053   3.473   7.169  1.3929  0.3282 -0.6225
  900MOL0     H18736  10.815   3.511   7.068 -0.3412  0.3614  0.3805
  900MOL0     H18737  10.534   3.273   7.225 -2.8115 -2.8232 -0.9446
  900MOL0     H18738  10.492   3.209   7.067 -2.0185 -0.4273  0.8427
  900MOL0     H18739  10.409   3.460   7.039  2.0185 -0.5702 -0.1761
  900MOL0     H18740  10.428   3.480   7.209 -3.6478  1.5058  0.9622
  900MOL0     H18741  10.290   3.232   7.207  1.8275 -1.4287 -0.9393
  900MOL0     H18742  10.254   3.297   7.043 -2.4477 -0.0372  0.3822
  900MOL0     H18743  10.163   3.438   7.285 -2.3028 -1.4532 -0.6653
  900MOL0     H18744  10.186   3.501   7.128  0.8846  0.0164 -0.7058
  900MOL0     H18745   9.992   3.282   7.231  0.2616 -1.1049 -0.8325
  900MOL0     H18746  10.033   3.278   7.066  1.2683  1.7534 -1.2650
  900MOL0     H18747   9.821   3.422   7.106  0.4291 -1.8529 -0.3811
  900MOL0     H18748   9.963   3.500   7.024  0.5765 -0.0446 -0.5154
  900MOL0     H18749   9.872   3.529   7.317 -0.3675 -1.0817 -0.4226
  900MOL0     H18750   9.993   3.629   7.221 -2.1076  2.3175  0.7401
  900MOL0     H18751   9.817   3.734   7.109  1.8428  0.4377  0.7070
  900MOL0     H18752   9.791   3.755   7.286 -2.4841 -2.0389  1.9101
  900MOL0     H18753   9.602   3.708   6.985 -0.0886  1.4680  1.1174
  900MOL0     H18754   9.398   3.434   6.927  0.8628  0.0639  1.7322
  900MOL0     H18755   9.396   3.599   6.891 -1.4920 -1.5919 -2.4805
  900MOL0     H18756   9.213   3.639   7.023 -2.2735  0.0893  0.4729
  900MOL0     H18757   9.228   3.485   7.123  0.9452 -0.7988 -0.8561
  900MOL0     H18758   9.122   3.518   6.839  2.7100  1.2013 -0.0748
  900MOL0     H18759   9.188   3.364   6.906  1.3146  0.5927 -0.9149
  900MOL0     H18760   8.939   3.529   6.966 -0.5650  0.8000  1.9237
  900MOL0     H18761   9.014   3.432   7.102  0.2824 -1.3965 -0.1175
  900MOL0     H18762   8.849   3.107   6.927  0.8988  2.3905 -2.9570
  900MOL0     H18763   8.607   3.028   6.958 -1.1166  0.2358  0.0944
  900MOL0     H18764   8.114   3.136   6.943 -0.9170 -0.3274 -1.3500
  900MOL0     H18765   7.906   3.040   7.006  0.5910  2.7734 -0.6090
  900MOL0     H18766   7.915   2.754   7.347  3.8017 -1.4003 -2.7627
  900MOL0     H18767   7.916   2.628   7.225  1.0826 -1.0096  1.7959
  900MOL0     H18768   7.693   2.752   7.388 -2.1672  0.8516 -0.7648
  900MOL0     H18769   7.731   2.580   7.351 -1.5463 -0.5210  0.0330
  900MOL0     H18770   7.657   2.616   7.108 -2.5191 -0.6344  0.0885
  900MOL0     H18771   7.628   2.785   7.157  0.3319  0.1676 -1.0241
  900MOL0     H18772   7.495   2.546   7.287 -0.2769 -0.2477 -0.2195
  900MOL0     H18773   7.460   2.723   7.307  0.3066  2.7988 -2.1602
  900MOL0     H18774   7.307   2.593   7.161  0.3248 -0.2552  2.2643
  900MOL0     H18775   7.447   2.581   7.045  0.9345  0.7278  0.7041
  900MOL0     H18776   7.300   2.774   6.965  0.4111 -0.5602 -0.9655
  900MOL0     H18777   7.468   2.816   7.020  1.1874 -2.9747  1.8614
  900MOL0     H18778   7.231   2.854   7.207 -0.2463 -0.3088 -0.1995
  900MOL0     H18779   7.390   2.927   7.216 -0.1807  1.8113  0.4050
  900MOL0     H18780   7.160   2.959   7.015  0.3425 -0.4583 -0.8876
  900MOL0     H18781   7.316   3.037   6.987  1.1425 -2.2721  0.2552
  900MOL0     H18782   8.130   2.717   7.196 -2.7185  0.7262  2.7477
  900MOL0     H18783   8.330   2.823   7.120 -0.4674 -2.0149 -2.7862
  900MOL0     H18784   8.504   3.433   7.060 -0.4188  0.1209  1.6875
  900MOL0     H18785   8.741   3.498   7.043  0.5458  0.6712 -2.6378
  900MOL0     H18786  10.713   3.116   7.166 -0.0180  0.0586 -0.8150
  900MOL0     H18787  10.961   3.073   7.248  2.3571 -0.7764 -2.3007
  900MOL0     H18788  11.319   3.250   7.423  0.4363  0.1853  0.6167
  900MOL0     H18789  11.551   3.246   7.522 -0.3898  4.1743  0.6941
  900MOL0     H18790  11.884   3.124   7.207 -1.9118  0.4995  0.1412
  900MOL0     H18791  11.805   3.013   7.317  0.6716 -1.1024 -0.9162
  900MOL0     H18792  12.039   3.186   7.378  1.3334 -1.1080 -2.8749
  900MOL0     H18793  11.952   3.097   7.507  0.5207 -1.3824  1.3438
  900MOL0     H18794  12.107   2.988   7.268  2.4960 -0.4658  0.9198
  900MOL0     H18795  12.018   2.884   7.386  0.0923  0.1660 -0.8937
  900MOL0     H18796  12.280   3.045   7.404  0.3944  0.3944 -1.4114
  900MOL0     H18797  12.175   3.018   7.554 -1.3868 -1.6875  0.3276
  900MOL0     H18798  12.352   2.630   7.469  1.3419  0.0887 -1.0210
  900MOL0     H18799  11.699   3.201   7.113  1.2164  1.9819  1.6564
  900MOL0     H18800  11.472   3.164   7.034  1.4604 -1.1471  0.1231
  901MOL0     O18801   6.802   3.029   5.835 -0.2664 -0.2055 -0.2563
  901MOL0     C18802   6.851   3.117   5.760  0.1554 -1.2284  1.1847
  901MOL0     O18803   6.789   3.174   5.650 -0.2095  0.0155  0.2881
  901MOL0     C18804   6.666   3.132   5.626 -0.0352  0.0768  0.3803
  901MOL0     C18805   6.560   3.187   5.681  0.2818 -0.1481  0.3750
  901MOL0     C18806   6.430   3.137   5.664  0.3558 -0.3556 -0.1485
  901MOL0     C18807   6.404   3.015   5.595 -0.0626 -0.3665 -0.6100
  901MOL0     O18808   6.276   2.956   5.583 -0.2967 -0.0561 -0.2261
  901MOL0     C18809   6.157   3.016   5.633  0.5107  0.5706 -0.4252
  901MOL0     C18810   6.035   2.931   5.612  0.5662 -0.5108  0.9655
  901MOL0     C18811   5.916   2.995   5.667  0.5415 -0.5470 -0.4622
  901MOL0     C18812   5.794   2.888   5.695 -0.2764 -0.3205 -0.2777
  901MOL0     C18813   5.665   2.953   5.734 -0.1990  0.2826  0.5292
  901MOL0     C18814   5.561   2.849   5.783  0.7293  0.1185  0.6554
  901MOL0     C18815   5.421   2.910   5.800  0.1220 -1.0913  0.4452
  901MOL0     C18816   5.318   2.840   5.892  0.3719 -0.1454 -0.3666
  901MOL0     N18817   5.212   2.930   5.942  0.3227 -0.0784  0.5191
  901MOL0     C18818   5.232   2.992   6.062  0.2772 -0.2329  0.7530
  901MOL0     C18819   5.108   3.045   6.087  0.8037  1.2364  0.3227
  901MOL0     C18820   5.071   3.132   6.205  0.3060  0.2567 -0.9575
  901MOL0     C18821   4.919   3.135   6.226  0.4320  0.3211  0.9319
  901MOL0     C18822   4.863   3.214   6.348  0.1552 -0.7979 -0.5941
  901MOL0     C18823   4.814   3.354   6.328  0.0440 -0.8129 -0.2017
  901MOL0     O18824   4.741   3.399   6.443  0.1751  0.2018 -0.1731
  901MOL0     C18825   4.604   3.374   6.456  0.3356 -0.1816  0.5946
  901MOL0     C18826   4.548   3.411   6.576 -0.6964 -0.0792 -0.3148
  901MOL0     C18827   4.417   3.389   6.605  0.8587  0.8677  0.8165
  901MOL0     C18828   4.328   3.335   6.508  0.2405  0.2551 -0.3515
  901MOL0     C18829   4.179   3.320   6.544 -0.3338  0.8176 -0.1135
  901MOL0     O18830   4.130   3.413   6.635 -1.4945 -0.3122 -0.3178
  901MOL0     C18831   4.001   3.395   6.656  0.7625 -0.4414  0.2709
  901MOL0     C18832   3.906   3.492   6.622  0.7894 -0.5579 -0.4426
  901MOL0     C18833   3.772   3.478   6.668 -1.1781 -0.6702  0.1313
  901MOL0     C18834   3.735   3.372   6.750 -0.9505 -0.6289 -0.8183
  901MOL0     O18835   3.607   3.370   6.794 -0.0535 -0.1919  0.0474
  901MOL0     C18836   3.578   3.320   6.926 -0.1084  0.4771 -0.5540
  901MOL0     C18837   3.453   3.379   6.985  0.5621 -0.1777 -0.9698
  901MOL0     C18838   3.419   3.332   7.128 -0.0148  0.2446 -0.8231
  901MOL0     C18839   3.296   3.412   7.181 -0.5167 -0.1644 -0.6213
  901MOL0     C18840   3.252   3.352   7.316 -0.4107 -0.5596 -0.7762
  901MOL0     C18841   3.139   3.429   7.400 -0.1985  0.0070  1.1511
  901MOL0     C18842   3.156   3.403   7.551  0.6682 -0.1311 -0.0976
  901MOL0     C18843   3.034   3.467   7.630 -0.5983  0.6599  0.5708
  901MOL0    Cl18844   3.034   3.645   7.625  0.1463  0.0779  0.0822
  901MOL0     C18845   3.827   3.278   6.795  0.9274  0.2737  0.0004
  901MOL0     C18846   3.957   3.296   6.742 -0.3546 -0.4868  0.4343
  901MOL0     O18847   4.117   3.225   6.491  0.4727  0.1615  0.7174
  901MOL0     C18848   4.381   3.306   6.385 -1.0271  0.6040  0.3961
  901MOL0     C18849   4.515   3.334   6.353  0.6686 -0.3930  0.5500
  901MOL0     N18850   5.023   2.996   5.999  0.4744 -0.2775  0.3076
  901MOL0     N18851   5.078   2.922   5.913 -0.7359 -0.5733 -0.3712
  901MOL0     C18852   6.517   2.951   5.547 -0.3472  0.3621  0.6713
  901MOL0     C18853   6.648   3.014   5.552 -0.1799  0.4588 -0.6675
  901MOL0     C18854   6.984   3.175   5.792  0.3662 -0.8622  0.5812
  901MOL0     C18855   7.061   3.126   5.894 -0.2185  0.8914 -0.7727
  901MOL0     C18856   7.188   3.184   5.927 -0.3861 -0.3946 -0.4185
  901MOL0     C18857   7.236   3.283   5.845 -0.7335  0.4131  0.2355
  901MOL0     O18858   7.362   3.339   5.866 -0.4670  0.1334 -0.5961
  901MOL0     C18859   7.474   3.248   5.875  0.2400 -0.0152  0.3297
  901MOL0     C18860   7.596   3.314   5.815 -1.1063 -0.4423  0.2505
  901MOL0     C18861   7.711   3.209   5.838 -0.0519 -0.2622 -0.4167
  901MOL0     C18862   7.846   3.288   5.852  0.4635 -0.5217 -0.4768
  901MOL0     C18863   7.954   3.198   5.857  0.2715 -0.1026  0.0404
  901MOL0     C18864   8.056   3.132   5.876 -0.6797  1.3141 -0.1239
  901MOL0     C18865   7.160   3.330   5.733 -0.4442  0.3587  0.3958
  901MOL0     C18866   7.033   3.281   5.708 -0.4684  0.4664 -0.3287
  901MOL0     H18867   6.566   3.276   5.742 -2.2979  1.2525 -1.2301
  901MOL0     H18868   6.352   3.204   5.698  1.0177  0.3830 -0.0693
  901MOL0     H18869   6.147   3.104   5.569  0.0237  1.4036  0.7441
  901MOL0     H18870   6.163   3.039   5.740 -0.0629 -1.0508 -0.0118
  901MOL0     H18871   6.042   2.833   5.659 -0.4775 -0.7885  0.5726
  901MOL0     H18872   6.019   2.911   5.506 -0.6860 -3.2299  1.5726
  901MOL0     H18873   5.887   3.076   5.600  1.8123 -0.1527 -0.5556
  901MOL0     H18874   5.941   3.041   5.763 -2.8861 -2.1551  1.4029
  901MOL0     H18875   5.774   2.815   5.616 -2.8761  1.2701 -1.2047
  901MOL0     H18876   5.825   2.829   5.782  1.9351  3.2898  1.6335
  901MOL0     H18877   5.620   2.994   5.642  0.6887 -0.0963 -0.0806
  901MOL0     H18878   5.685   3.038   5.801  2.3993 -2.5156  3.6273
  901MOL0     H18879   5.595   2.799   5.874  1.1448 -1.8253 -0.5076
  901MOL0     H18880   5.544   2.761   5.720 -1.5961  1.0032 -0.0545
  901MOL0     H18881   5.430   3.007   5.851  1.2296 -1.0401  0.1801
  901MOL0     H18882   5.382   2.925   5.699 -1.5087 -2.0843  0.8912
  901MOL0     H18883   5.368   2.806   5.983 -0.5598 -0.6084 -0.0244
  901MOL0     H18884   5.269   2.752   5.851 -0.9932 -0.3309  1.5473
  901MOL0     H18885   5.317   3.016   6.125 -0.8616  1.1486  1.8304
  901MOL0     H18886   5.113   3.232   6.191 -0.1480  0.6506  0.3889
  901MOL0     H18887   5.118   3.090   6.294  0.6724  3.6847  0.5970
  901MOL0     H18888   4.894   3.029   6.238 -1.9059  0.7748  0.6367
  901MOL0     H18889   4.873   3.174   6.135  0.0027  2.1901  1.9072
  901MOL0     H18890   4.791   3.144   6.393 -0.3249 -0.4980 -0.8877
  901MOL0     H18891   4.940   3.219   6.425 -0.4705  1.1759 -0.0320
  901MOL0     H18892   4.747   3.357   6.242  1.0094 -1.9451 -1.0306
  901MOL0     H18893   4.890   3.424   6.293 -1.5487  1.0990  0.0435
  901MOL0     H18894   4.607   3.455   6.655 -0.3656 -1.6836  0.3851
  901MOL0     H18895   4.384   3.419   6.703 -2.6328 -0.0424  0.0493
  901MOL0     H18896   3.945   3.576   6.565 -0.6258  0.9041  0.6636
  901MOL0     H18897   3.696   3.553   6.647 -1.5438 -0.5526  1.7636
  901MOL0     H18898   3.654   3.352   6.997  0.6622 -0.2292 -1.0326
  901MOL0     H18899   3.567   3.211   6.928 -2.0897  0.6397 -0.7575
  901MOL0     H18900   3.372   3.343   6.921  0.1360 -0.1398 -0.4595
  901MOL0     H18901   3.453   3.488   6.984 -0.0821 -0.1351  0.7564
  901MOL0     H18902   3.501   3.354   7.198 -0.9830  2.0344 -0.1977
  901MOL0     H18903   3.422   3.222   7.124  0.4613 -0.0721  3.6703
  901MOL0     H18904   3.323   3.517   7.195  3.8818 -1.3184  1.8559
  901MOL0     H18905   3.222   3.412   7.101  2.2694  2.5919 -3.5191
  901MOL0     H18906   3.337   3.353   7.384 -0.6900  3.5348 -0.2747
  901MOL0     H18907   3.220   3.248   7.299  1.1269 -1.0681 -0.7232
  901MOL0     H18908   3.042   3.398   7.358  0.3844  3.3650 -3.3844
  901MOL0     H18909   3.136   3.536   7.379  1.7421  0.0679  1.0347
  901MOL0     H18910   3.164   3.298   7.579  0.5352 -1.1829 -3.4997
  901MOL0     H18911   3.245   3.450   7.594  0.3821  0.5406 -0.2295
  901MOL0     H18912   3.033   3.430   7.733  0.1390 -4.0931 -0.8991
  901MOL0     H18913   2.945   3.424   7.585  1.7108 -1.3758 -2.5104
  901MOL0     H18914   3.821   3.199   6.870  1.3981  2.5684  2.6141
  901MOL0     H18915   4.030   3.226   6.781  0.4446  0.8311  1.3972
  901MOL0     H18916   4.315   3.272   6.306 -1.0654 -1.0525  1.1060
  901MOL0     H18917   4.544   3.311   6.251 -0.0482  3.4801 -0.7102
  901MOL0     H18918   6.500   2.863   5.486 -1.5640  1.3076 -0.4274
  901MOL0     H18919   6.737   2.965   5.515 -1.3424 -1.2367 -1.3380
  901MOL0     H18920   7.018   3.049   5.958 -1.2268  0.9439 -1.3588
  901MOL0     H18921   7.244   3.152   6.015 -0.2159  0.4065 -0.2282
  901MOL0     H18922   7.457   3.153   5.823  0.0338  1.1753 -1.9207
  901MOL0     H18923   7.468   3.227   5.982 -3.2979 -0.8785  0.0878
  901MOL0     H18924   7.589   3.328   5.707 -1.4545 -1.4704  0.1270
  901MOL0     H18925   7.606   3.410   5.866  0.8649  0.9370 -2.4671
  901MOL0     H18926   7.717   3.151   5.746  0.4689  0.8967 -1.1386
  901MOL0     H18927   7.707   3.138   5.921  2.6552  1.5526  1.4361
  901MOL0     H18928   7.865   3.355   5.767  0.4576  1.4682  0.9979
  901MOL0     H18929   7.856   3.350   5.942  0.8783 -0.9289 -0.2435
  901MOL0     H18930   8.133   3.061   5.900 -0.4564  1.6816  0.2632
  901MOL0     H18931   7.218   3.399   5.673  1.0791  0.6310  2.0975
  901MOL0     H18932   6.973   3.329   5.631 -0.5313 -0.3073 -0.7713
  902MOL0     O18933   3.366   8.303   7.826  0.0081  0.2645  0.3424
  902MOL0     C18934   3.378   8.201   7.759 -0.0580 -0.6215 -0.4502
  902MOL0     O18935   3.276   8.136   7.698  0.6176 -0.1154  0.2385
  902MOL0     C18936   3.149   8.184   7.710  0.1580 -0.6592  0.7963
  902MOL0     C18937   3.051   8.103   7.765  0.4959  0.2940  0.2701
  902MOL0     C18938   2.916   8.146   7.756  0.1073 -0.2681  0.4099
  902MOL0     C18939   2.879   8.269   7.690 -0.0506 -1.1322 -0.5483
  902MOL0     O18940   2.744   8.311   7.688 -0.9426 -1.3359 -0.2625
  902MOL0     C18941   2.704   8.449   7.706  0.1279  0.3824 -1.0314
  902MOL0     C18942   2.595   8.495   7.613 -0.2294 -0.9522  0.3098
  902MOL0     C18943   2.490   8.389   7.612  0.1144  0.9072 -0.2021
  902MOL0     C18944   2.379   8.440   7.513 -0.1657 -0.6803 -0.3971
  902MOL0     C18945   2.275   8.329   7.520  1.2051 -1.1568  0.3245
  902MOL0     C18946   2.185   8.357   7.398 -1.1062  0.0387  0.7249
  902MOL0     C18947   2.092   8.243   7.377  0.1143  0.2008 -0.3602
  902MOL0     C18948   1.981   8.233   7.500 -0.3265  0.1340  0.2676
  902MOL0     N18949   1.863   8.312   7.464 -0.4309  0.1677  0.3018
  902MOL0     C18950   1.819   8.436   7.512 -0.1261 -1.1831 -0.2227
  902MOL0     C18951   1.718   8.471   7.430  0.4136  0.1960 -0.2469
  902MOL0     C18952   1.636   8.600   7.445  0.5024  0.4051 -0.0291
  902MOL0     C18953   1.521   8.623   7.349  0.0978  0.4908  0.2565
  902MOL0     C18954   1.475   8.754   7.397  0.7910 -0.9402 -0.1685
  902MOL0     C18955   1.335   8.795   7.345 -0.5338  0.3178 -0.4932
  902MOL0     O18956   1.240   8.712   7.405  0.2905 -0.4711 -0.0138
  902MOL0     C18957   1.112   8.722   7.350  0.1924  0.8226 -0.1547
  902MOL0     C18958   1.017   8.636   7.406 -0.1799 -0.5673 -0.3802
  902MOL0     C18959   0.881   8.652   7.384  0.0519 -0.2602  0.2708
  902MOL0     C18960   0.833   8.746   7.288  0.0775  0.2361  0.4437
  902MOL0     C18961   0.693   8.741   7.246  0.3249 -0.2912 -0.3059
  902MOL0     O18962   0.639   8.851   7.175  0.3726 -0.1603  0.1493
  902MOL0     C18963   0.508   8.865   7.138  0.2544  0.6573 -0.1817
  902MOL0     C18964   0.403   8.814   7.222  0.2613  0.3155  0.4494
  902MOL0     C18965   0.280   8.855   7.206  0.5970  0.0511 -0.4470
  902MOL0     C18966   0.244   8.946   7.101  0.7644  0.3408 -1.2294
  902MOL0     O18967   0.110   8.978   7.090  0.6756 -0.0725 -0.2882
  902MOL0     C18968   0.052   9.064   6.995 -0.5237 -0.3353  0.6669
  902MOL0     C18969  -0.108   9.047   7.010  0.5821 -0.1282  0.7586
  902MOL0     C18970  -0.198   9.121   6.910 -0.8499  0.0796  0.6069
  902MOL0     C18971  -0.357   9.116   6.942  0.5418 -0.0264 -1.0949
  902MOL0     C18972  -0.427   9.248   6.883 -0.4551 -0.9119 -0.6942
  902MOL0     C18973  -0.570   9.258   6.934  0.3999 -0.3576  0.7832
  902MOL0     C18974  -0.638   9.398   6.900 -0.0574  0.3676  0.3324
  902MOL0     C18975  -0.784   9.381   6.877 -0.4803  0.5978  0.6648
  902MOL0    Cl18976  -0.875   9.307   7.014  0.0387  0.0731  0.4080
  902MOL0     C18977   0.342   8.987   7.012 -0.7173 -0.5043 -0.5968
  902MOL0     C18978   0.470   8.951   7.033 -0.4965 -0.6251 -0.1489
  902MOL0     O18979   0.626   8.639   7.279 -0.3216 -0.4670 -0.3451
  902MOL0     C18980   0.934   8.846   7.245  0.2875 -0.5422  0.2555
  902MOL0     C18981   1.074   8.825   7.261  0.7168  0.2497  0.8753
  902MOL0     N18982   1.697   8.370   7.339  0.4565  1.3336  0.9293
  902MOL0     N18983   1.781   8.275   7.359  0.1890 -0.0275 -0.1679
  902MOL0     C18984   2.978   8.355   7.654 -0.3693  0.2516 -0.4649
  902MOL0     C18985   3.114   8.312   7.669 -0.6130  0.2217 -0.2136
  902MOL0     C18986   3.515   8.151   7.750  0.5898  0.0676  0.3981
  902MOL0     C18987   3.540   8.037   7.673  0.1021 -0.3943  0.3042
  902MOL0     C18988   3.669   7.985   7.663  0.1367  0.4440 -0.6354
  902MOL0     C18989   3.773   8.065   7.714  0.9417  0.5237  0.2385
  902MOL0     O18990   3.905   8.044   7.693  0.9226 -0.0952  1.1484
  902MOL0     C18991   3.934   7.921   7.628 -0.3845  0.0046 -0.4411
  902MOL0     C18992   4.091   7.900   7.635 -0.1241  0.1123  1.0194
  902MOL0     C18993   4.157   7.934   7.771 -0.2304  0.6261  0.0309
  902MOL0     C18994   4.309   7.877   7.774  0.4721 -0.0174 -0.1131
  902MOL0     C18995   4.320   7.737   7.760 -0.4476  0.9358 -1.0015
  902MOL0     C18996   4.322   7.617   7.733  0.8903  0.5219 -0.7479
  902MOL0     C18997   3.744   8.172   7.796  0.4452 -0.0638  0.3097
  902MOL0     C18998   3.613   8.216   7.819 -0.4187  0.6228  0.0654
  902MOL0     H18999   3.071   8.015   7.825 -1.1781 -0.2414  0.0898
  902MOL0     H19000   2.827   8.111   7.808 -1.4422 -2.3698 -3.2463
  902MOL0     H19001   2.782   8.525   7.695 -0.1208  0.3974 -2.9287
  902MOL0     H19002   2.682   8.462   7.813  1.0026 -2.5768 -0.3910
  902MOL0     H19003   2.621   8.514   7.508  0.2103  0.0718  0.5939
  902MOL0     H19004   2.557   8.587   7.658  1.2086 -1.2238  2.2170
  902MOL0     H19005   2.459   8.383   7.717 -0.3358 -1.0047 -0.4024
  902MOL0     H19006   2.531   8.295   7.574 -0.0960  1.8517 -2.9958
  902MOL0     H19007   2.344   8.539   7.543  3.0797  0.0651  1.3818
  902MOL0     H19008   2.422   8.454   7.413  0.2688 -1.3760 -0.3125
  902MOL0     H19009   2.219   8.326   7.613 -0.5355 -0.4417 -0.6550
  902MOL0     H19010   2.324   8.232   7.505  1.7878 -0.9880  1.0887
  902MOL0     H19011   2.244   8.365   7.306 -1.1621  1.0060  0.7668
  902MOL0     H19012   2.137   8.454   7.410 -0.1071  0.3886  2.0821
  902MOL0     H19013   2.027   8.248   7.289 -1.8999 -1.0157  0.9742
  902MOL0     H19014   2.139   8.144   7.368 -0.1120  0.0541  0.0570
  902MOL0     H19015   2.019   8.251   7.601 -0.9222  0.1291  0.4932
  902MOL0     H19016   1.952   8.127   7.502 -2.0085  0.5760  1.1265
  902MOL0     H19017   1.855   8.497   7.595 -0.3673 -1.2258 -0.0883
  902MOL0     H19018   1.702   8.687   7.443 -1.8247  2.2891  0.4086
  902MOL0     H19019   1.590   8.582   7.543 -0.2096  0.4370 -0.3518
  902MOL0     H19020   1.442   8.548   7.360  1.8583 -1.6343 -0.7218
  902MOL0     H19021   1.561   8.611   7.248 -0.7593 -0.4268  0.0096
  902MOL0     H19022   1.469   8.762   7.506  2.0854 -0.4168 -0.1140
  902MOL0     H19023   1.543   8.834   7.369 -1.4840  1.0869 -0.1521
  902MOL0     H19024   1.327   8.772   7.238 -0.7634  2.9392 -1.1099
  902MOL0     H19025   1.310   8.899   7.371  1.0936  0.1882  1.8839
  902MOL0     H19026   1.052   8.562   7.476 -0.0710 -0.6711 -0.5442
  902MOL0     H19027   0.816   8.577   7.427  0.2460 -0.7837 -0.3268
  902MOL0     H19028   0.425   8.750   7.307 -1.4135  0.6290  1.1594
  902MOL0     H19029   0.201   8.810   7.266  0.6854  2.8447  1.9824
  902MOL0     H19030   0.082   9.047   6.891  1.1058 -0.3414  1.1148
  902MOL0     H19031   0.084   9.168   7.006 -0.0289 -0.3507 -0.4598
  902MOL0     H19032  -0.139   9.068   7.113  2.2071 -0.7381  1.4014
  902MOL0     H19033  -0.125   8.941   6.989 -1.0638  0.1538  0.5234
  902MOL0     H19034  -0.184   9.054   6.824  1.6990 -0.4291  1.3193
  902MOL0     H19035  -0.166   9.224   6.894  0.8756 -0.6072 -0.7038
  902MOL0     H19036  -0.415   9.025   6.923  1.1446 -0.8175  0.6297
  902MOL0     H19037  -0.357   9.129   7.051  0.6334  0.3958 -1.1423
  902MOL0     H19038  -0.422   9.235   6.774 -0.1481 -0.8939 -0.6831
  902MOL0     H19039  -0.380   9.341   6.915 -2.0709 -0.5215  0.6914
  902MOL0     H19040  -0.572   9.245   7.042 -2.2421  0.8392  0.9558
  902MOL0     H19041  -0.624   9.174   6.890 -0.0908 -0.1362  0.9526
  902MOL0     H19042  -0.630   9.465   6.986  3.0560  2.2019 -1.2231
  902MOL0     H19043  -0.606   9.456   6.813 -2.0002  1.4379  0.2894
  902MOL0     H19044  -0.803   9.330   6.782 -0.2110  2.6780 -0.5859
  902MOL0     H19045  -0.828   9.479   6.857  0.2184  0.7745 -0.0852
  902MOL0     H19046   0.313   9.058   6.934 -0.2291  0.6098  0.2183
  902MOL0     H19047   0.545   8.995   6.968 -1.2505  0.0227 -0.5972
  902MOL0     H19048   0.916   8.937   7.189 -2.8789 -1.4158 -0.3440
  902MOL0     H19049   1.140   8.897   7.213 -1.4520  2.8014  1.4678
  902MOL0     H19050   2.953   8.450   7.608 -1.2883 -0.0258 -0.5746
  902MOL0     H19051   3.196   8.380   7.645 -0.8397  0.8475  0.7272
  902MOL0     H19052   3.462   7.979   7.623  1.2843  0.2622 -2.5348
  902MOL0     H19053   3.678   7.886   7.620 -0.9155 -0.7403  1.6892
  902MOL0     H19054   3.905   7.927   7.523 -2.8487  2.3677  0.2617
  902MOL0     H19055   3.884   7.838   7.680 -0.8156  0.3142 -0.3585
  902MOL0     H19056   4.117   7.800   7.597  0.9711  0.9395 -0.5413
  902MOL0     H19057   4.131   7.960   7.553 -0.0348  0.2006  1.1267
  902MOL0     H19058   4.095   7.887   7.848 -2.0992  0.3829 -1.5651
  902MOL0     H19059   4.165   8.041   7.790  0.4542  0.6051 -0.1013
  902MOL0     H19060   4.379   7.926   7.705  0.3342  2.5733  1.4561
  902MOL0     H19061   4.348   7.885   7.876  2.0953 -1.2088 -0.5977
  902MOL0     H19062   4.332   7.511   7.721  0.3306  0.5385 -1.4698
  902MOL0     H19063   3.826   8.227   7.842  0.3866  0.5838 -0.3219
  902MOL0     H19064   3.586   8.301   7.880 -1.5864  0.0414  0.3814
  903MOL0     O19065  11.221   2.487   9.398  0.8742  0.2156  0.0573
  903MOL0     C19066  11.227   2.578   9.485  0.6576 -0.5010  0.2887
  903MOL0     O19067  11.119   2.646   9.535 -0.6531 -0.5920 -1.0916
  903MOL0     C19068  10.996   2.587   9.545  0.3266 -0.3839 -0.1789
  903MOL0     C19069  10.973   2.448   9.548  0.3413  0.8108  0.3497
  903MOL0     C19070  10.839   2.390   9.573  0.4998  0.3286  0.3119
  903MOL0     C19071  10.735   2.482   9.597  0.7786 -0.2383  0.5616
  903MOL0     O19072  10.615   2.444   9.633 -0.2073  0.7262  0.2360
  903MOL0     C19073  10.599   2.329   9.722  0.3935 -0.0520 -0.0816
  903MOL0     C19074  10.454   2.267   9.713 -0.7385 -0.2661  0.0850
  903MOL0     C19075  10.364   2.332   9.811  0.2086  0.8518 -0.6296
  903MOL0     C19076  10.231   2.263   9.838 -0.4643 -0.6705 -0.2771
  903MOL0     C19077  10.142   2.318   9.948  0.2649 -0.1868 -0.1457
  903MOL0     C19078   9.996   2.284   9.937 -0.0965 -0.2809 -0.2445
  903MOL0     C19079   9.927   2.322  10.069 -0.0151 -0.0627 -0.2901
  903MOL0     C19080   9.783   2.268  10.079  1.2986 -0.1053 -1.0511
  903MOL0     N19081   9.770   2.129  10.132  0.5456  0.1222  0.2726
  903MOL0     C19082   9.782   2.014  10.054  0.3081 -0.2591  0.1576
  903MOL0     C19083   9.780   1.909  10.142 -0.4007  0.7499  0.5406
  903MOL0     C19084   9.789   1.764  10.110 -0.2731 -0.4767  0.0979
  903MOL0     C19085   9.647   1.701  10.118 -0.3404  0.7020  0.2360
  903MOL0     C19086   9.638   1.566  10.046 -0.0420 -0.4192 -0.0206
  903MOL0     C19087   9.642   1.551   9.896  0.2666 -0.5961  0.0362
  903MOL0     O19088   9.537   1.636   9.845  0.0110  0.3806 -0.1986
  903MOL0     C19089   9.402   1.605   9.858  0.3880 -1.3636 -0.1055
  903MOL0     C19090   9.349   1.481   9.884 -0.6656 -0.8867  0.6571
  903MOL0     C19091   9.213   1.453   9.886  0.7894  0.5822 -0.2583
  903MOL0     C19092   9.119   1.558   9.863  0.1815  0.2661  0.3791
  903MOL0     C19093   8.977   1.537   9.871  0.0242  0.0289  0.2959
  903MOL0     O19094   8.905   1.650   9.869 -0.1490 -0.1132 -0.2351
  903MOL0     C19095   8.775   1.626   9.901  0.1842  0.1063 -0.4588
  903MOL0     C19096   8.681   1.660   9.805  0.0477 -0.1694  0.3970
  903MOL0     C19097   8.552   1.653   9.820  0.1050  0.6246 -0.6549
  903MOL0     C19098   8.501   1.605   9.939 -0.5045 -0.0015  0.2725
  903MOL0     O19099   8.368   1.586   9.975  0.2018 -0.2727 -0.3383
  903MOL0     C19100   8.270   1.612   9.874  0.2665  0.4829  0.3774
  903MOL0     C19101   8.126   1.575   9.930 -0.5682 -0.4951  0.5231
  903MOL0     C19102   8.120   1.446  10.003  0.1670  0.6767  0.7734
  903MOL0     C19103   7.995   1.436  10.081  0.6137  0.5736 -0.1639
  903MOL0     C19104   7.995   1.313  10.175 -0.0786 -0.1135 -0.2976
  903MOL0     C19105   8.027   1.186  10.098 -0.5550  0.2473  0.6488
  903MOL0     C19106   7.913   1.159   9.997 -0.6106  0.1361  0.2724
  903MOL0     C19107   7.957   1.101   9.861  0.6861  0.2115  0.1967
  903MOL0    Cl19108   7.999   0.928   9.885  0.4293  0.1315  0.4658
  903MOL0     C19109   8.592   1.585  10.048  0.4648 -0.0611 -0.3142
  903MOL0     C19110   8.727   1.590  10.027 -0.1210  0.3915 -0.2430
  903MOL0     O19111   8.936   1.430   9.909  0.1884 -0.3643  0.4611
  903MOL0     C19112   9.174   1.677   9.827 -0.0019 -0.1982  0.4774
  903MOL0     C19113   9.311   1.699   9.834 -0.2204 -0.0672 -0.2533
  903MOL0     N19114   9.760   1.964  10.269 -0.4065  0.3626  0.2818
  903MOL0     N19115   9.764   2.091  10.260 -0.6627  0.2999  0.2888
  903MOL0     C19116  10.763   2.623   9.587  0.4852 -1.0433  0.5297
  903MOL0     C19117  10.888   2.676   9.561 -0.8439  0.2787  0.3244
  903MOL0     C19118  11.360   2.620   9.528  0.2431 -0.4473 -0.1391
  903MOL0     C19119  11.473   2.578   9.453 -1.0653  0.4595  0.6940
  903MOL0     C19120  11.604   2.615   9.493  0.2635  0.3777 -0.7114
  903MOL0     C19121  11.620   2.702   9.599  0.2853 -0.1126  0.0558
  903MOL0     O19122  11.746   2.743   9.637 -0.3631 -0.4209  1.0222
  903MOL0     C19123  11.804   2.835   9.543  1.1101 -0.1386  0.0545
  903MOL0     C19124  11.740   2.982   9.557  0.2205  0.3553 -0.3667
  903MOL0     C19125  11.784   3.061   9.686 -0.6186 -0.2517  0.2942
  903MOL0     C19126  11.702   3.194   9.702 -0.3013  0.3795 -0.3255
  903MOL0     C19127  11.743   3.260   9.829 -1.1192 -0.6650  0.5706
  903MOL0     C19128  11.777   3.325   9.929  0.2994  0.4791  0.3643
  903MOL0     C19129  11.504   2.747   9.667 -1.4648  1.0557 -0.0581
  903MOL0     C19130  11.373   2.713   9.632  0.3344  0.3012 -0.0401
  903MOL0     H19131  11.054   2.378   9.538  0.5918  1.2708 -1.1310
  903MOL0     H19132  10.837   2.282   9.581  1.6990  0.3669  1.3216
  903MOL0     H19133  10.614   2.364   9.825 -0.8898 -0.1313  0.1410
  903MOL0     H19134  10.670   2.249   9.698 -0.3146 -0.6657 -0.1610
  903MOL0     H19135  10.451   2.159   9.731 -2.1758 -0.5178 -1.4337
  903MOL0     H19136  10.419   2.269   9.610  0.6870 -0.2486 -0.4176
  903MOL0     H19137  10.353   2.438   9.785  4.3021  1.3287 -0.9762
  903MOL0     H19138  10.408   2.352   9.909  1.8502  2.7554 -1.6750
  903MOL0     H19139  10.184   2.274   9.739  2.7815 -4.1050 -2.4691
  903MOL0     H19140  10.243   2.155   9.846  1.5062 -0.4005  1.2373
  903MOL0     H19141  10.146   2.428   9.950 -0.9253 -0.1360  1.2647
  903MOL0     H19142  10.176   2.270  10.039 -0.5852 -1.3608 -0.4271
  903MOL0     H19143   9.997   2.175   9.932  3.2428 -0.3030 -2.7278
  903MOL0     H19144   9.951   2.317   9.844 -0.5857  1.0359  0.4280
  903MOL0     H19145   9.990   2.281  10.149 -0.5348 -0.5713 -0.1369
  903MOL0     H19146   9.923   2.430  10.084  1.0916 -0.1277  0.5922
  903MOL0     H19147   9.732   2.274   9.983  1.2944  3.5932 -0.9638
  903MOL0     H19148   9.718   2.330  10.143  0.5433 -0.7456 -1.1825
  903MOL0     H19149   9.787   2.008   9.946 -1.3031 -5.0283  0.1149
  903MOL0     H19150   9.860   1.727  10.184 -0.7377  1.1140  1.3843
  903MOL0     H19151   9.845   1.754  10.016 -0.0290  4.8012 -0.6433
  903MOL0     H19152   9.581   1.773  10.069 -1.4436  2.3280  3.7857
  903MOL0     H19153   9.624   1.686  10.223 -0.8876  2.1641  0.3497
  903MOL0     H19154   9.723   1.510  10.086 -0.7717 -1.3061  0.3117
  903MOL0     H19155   9.546   1.523  10.084 -1.8042  2.1792 -1.0885
  903MOL0     H19156   9.620   1.452   9.855 -3.1444 -0.5585  1.4195
  903MOL0     H19157   9.733   1.589   9.851 -2.3983  3.9036 -2.2415
  903MOL0     H19158   9.423   1.406   9.911 -1.2780 -2.2781 -1.2591
  903MOL0     H19159   9.183   1.354   9.918  0.6763  1.1418  1.4748
  903MOL0     H19160   8.695   1.697   9.704  0.9086  0.6081  0.7853
  903MOL0     H19161   8.475   1.672   9.746  0.2298  1.5396 -0.5638
  903MOL0     H19162   8.288   1.551   9.785  2.2394  1.5293  0.0068
  903MOL0     H19163   8.274   1.718   9.848  0.3431 -0.0057 -1.7366
  903MOL0     H19164   8.059   1.582   9.844  1.6114  2.1427 -1.1522
  903MOL0     H19165   8.097   1.648  10.007  2.3287 -0.8488  2.1230
  903MOL0     H19166   8.202   1.429  10.075  0.3248 -1.0093  0.2473
  903MOL0     H19167   8.122   1.374   9.920  1.3276  1.0866  0.4169
  903MOL0     H19168   7.988   1.515  10.156 -5.0360 -1.0937  1.5752
  903MOL0     H19169   7.908   1.460  10.020  1.2127 -0.1693 -1.3600
  903MOL0     H19170   7.892   1.318  10.213 -0.8453 -0.9404 -2.1333
  903MOL0     H19171   8.073   1.324  10.251 -0.4179  1.3120 -0.1322
  903MOL0     H19172   8.046   1.101  10.165  0.0511  0.8914  1.3096
  903MOL0     H19173   8.119   1.202  10.041  0.7221 -1.1499  2.1771
  903MOL0     H19174   7.848   1.085  10.047 -0.1276  2.1084  4.2330
  903MOL0     H19175   7.863   1.254   9.977 -2.2501 -0.3246  1.8428
  903MOL0     H19176   8.047   1.154   9.828  0.5988 -0.3005 -0.8943
  903MOL0     H19177   7.872   1.098   9.794 -2.2980  1.7558  3.5638
  903MOL0     H19178   8.564   1.559  10.150  0.5772  1.7386  0.2266
  903MOL0     H19179   8.793   1.557  10.107  0.0069 -0.9317 -0.8727
  903MOL0     H19180   9.112   1.763   9.809  1.3703  2.0525  4.9446
  903MOL0     H19181   9.354   1.798   9.827  2.1095 -0.7786  2.3088
  903MOL0     H19182  10.674   2.684   9.599 -1.2177 -3.4427  0.8713
  903MOL0     H19183  10.910   2.781   9.574  0.2408  0.1203 -0.0740
  903MOL0     H19184  11.470   2.508   9.371 -0.1125 -2.1656  2.7403
  903MOL0     H19185  11.687   2.574   9.435 -0.4739 -0.0480 -1.4783
  903MOL0     H19186  11.798   2.803   9.439  0.9609  1.1968 -0.3557
  903MOL0     H19187  11.912   2.836   9.560  1.4118 -0.7793 -1.6408
  903MOL0     H19188  11.775   3.030   9.465 -0.3263  1.5217  0.0171
  903MOL0     H19189  11.631   2.974   9.550  0.2692  0.4048 -1.3066
  903MOL0     H19190  11.892   3.080   9.689  0.1586 -3.8706 -0.1328
  903MOL0     H19191  11.760   3.001   9.774  0.6261 -0.1750  0.7093
  903MOL0     H19192  11.708   3.260   9.615 -0.9842  1.3395  0.3420
  903MOL0     H19193  11.600   3.155   9.706 -0.3237  0.3877 -0.7489
  903MOL0     H19194  11.797   3.372  10.023 -1.0681  1.3242  0.2642
  903MOL0     H19195  11.514   2.819   9.747 -0.6543 -0.2312  1.0483
  903MOL0     H19196  11.280   2.748   9.674 -0.4435 -0.7170 -0.8457
  904MOL0     O19197   2.473   5.518   4.138 -0.3532 -0.1172 -1.0031
  904MOL0     C19198   2.371   5.564   4.088  0.4417  0.2277  0.0839
  904MOL0     O19199   2.239   5.533   4.120 -0.5635  0.8927 -0.1167
  904MOL0     C19200   2.200   5.478   4.239 -0.4854  0.8714  0.5514
  904MOL0     C19201   2.267   5.375   4.306 -0.5915  0.7886  0.0025
  904MOL0     C19202   2.225   5.321   4.428  0.2667  0.5991  0.1240
  904MOL0     C19203   2.115   5.366   4.495  0.2589  0.4584 -0.2734
  904MOL0     O19204   2.081   5.313   4.615  0.6560  0.0070 -1.1546
  904MOL0     C19205   1.952   5.346   4.663 -0.0629 -0.0507 -0.2840
  904MOL0     C19206   1.949   5.486   4.732 -0.0656  0.8936 -0.6683
  904MOL0     C19207   1.827   5.502   4.821  0.8037 -0.2141 -0.4010
  904MOL0     C19208   1.689   5.459   4.751 -0.3654 -0.1039 -0.1482
  904MOL0     C19209   1.586   5.495   4.868 -0.3850  0.4021 -0.1465
  904MOL0     C19210   1.437   5.477   4.845 -0.8346 -0.2809  0.0649
  904MOL0     C19211   1.357   5.499   4.977 -1.3833  0.1365 -0.2586
  904MOL0     C19212   1.211   5.547   4.951  0.6689  0.2278 -0.2007
  904MOL0     N19213   1.137   5.585   5.074  0.7163  0.4402 -0.0113
  904MOL0     C19214   1.095   5.710   5.093  0.3018  0.2340 -0.4076
  904MOL0     C19215   1.017   5.709   5.206 -0.6161  0.5143 -0.0923
  904MOL0     C19216   0.985   5.833   5.289  0.1513 -0.0853 -0.2396
  904MOL0     C19217   0.846   5.809   5.352  0.4834 -0.2975  0.3152
  904MOL0     C19218   0.815   5.925   5.448 -0.7881 -0.9138 -0.2769
  904MOL0     C19219   0.699   5.878   5.553  0.6893 -0.1925 -0.3409
  904MOL0     O19220   0.580   5.874   5.473  0.1488 -0.1346  0.2181
  904MOL0     C19221   0.463   5.903   5.541  0.4559 -0.7878 -0.4197
  904MOL0     C19222   0.446   5.906   5.674 -0.2854 -0.1853 -0.9834
  904MOL0     C19223   0.324   5.945   5.738  0.1725 -0.9161 -0.1405
  904MOL0     C19224   0.219   5.980   5.661  0.9899 -0.4545  0.7035
  904MOL0     C19225   0.094   6.036   5.712  0.0648 -0.6076  0.0492
  904MOL0     O19226   0.064   6.000   5.838 -0.3265  0.1050 -0.7500
  904MOL0     C19227  -0.058   6.039   5.891  0.6467 -0.0517 -0.5174
  904MOL0     C19228  -0.063   6.097   6.011  0.2852 -0.8464 -0.9536
  904MOL0     C19229  -0.192   6.137   6.061 -0.7140  0.1761 -0.2023
  904MOL0     C19230  -0.310   6.091   6.006  0.1709 -0.0533 -0.0582
  904MOL0     O19231  -0.416   6.127   6.076  0.7991  0.5446  0.6515
  904MOL0     C19232  -0.542   6.087   6.022  0.2473 -0.0573 -0.3540
  904MOL0     C19233  -0.656   6.171   6.091 -0.0988 -0.1888  0.6431
  904MOL0     C19234  -0.656   6.316   6.029  0.7842  0.4608 -0.9170
  904MOL0     C19235  -0.752   6.418   6.091  0.2924  0.4576 -0.2889
  904MOL0     C19236  -0.885   6.428   6.008 -0.3417 -0.4361  0.0087
  904MOL0     C19237  -0.990   6.514   6.080 -0.7589 -0.2689 -0.2910
  904MOL0     C19238  -0.970   6.658   6.052 -0.8271 -0.1591  0.6804
  904MOL0     C19239  -1.085   6.738   6.115 -0.6060  0.3291 -0.0417
  904MOL0    Cl19240  -1.072   6.720   6.293  0.1863 -0.2686 -0.0534
  904MOL0     C19241  -0.301   6.007   5.887 -0.5984 -0.9366  0.5033
  904MOL0     C19242  -0.179   5.996   5.825 -0.3403  0.2135  0.1794
  904MOL0     O19243   0.018   6.098   5.641 -1.4397 -0.4538 -0.2250
  904MOL0     C19244   0.239   5.976   5.515  0.6863 -0.1973 -0.3195
  904MOL0     C19245   0.353   5.939   5.463 -1.2493  0.2533 -0.2452
  904MOL0     N19246   0.998   5.578   5.249 -0.4750  1.2139 -0.8259
  904MOL0     N19247   1.070   5.508   5.167  0.8351  0.2139 -0.9415
  904MOL0     C19248   2.031   5.456   4.415  0.4620 -0.2503 -0.0449
  904MOL0     C19249   2.076   5.511   4.295  0.3837 -0.4986  0.3941
  904MOL0     C19250   2.390   5.647   3.970  0.1888  0.3351  0.1843
  904MOL0     C19251   2.519   5.689   3.933  1.1378 -0.3090 -0.0884
  904MOL0     C19252   2.528   5.776   3.817  0.8240  0.3804 -0.8632
  904MOL0     C19253   2.413   5.812   3.742  0.1285  0.3464 -0.4728
  904MOL0     O19254   2.448   5.872   3.619 -0.1183  0.5473  0.2350
  904MOL0     C19255   2.347   5.927   3.529 -0.2518  0.4961  0.4524
  904MOL0     C19256   2.323   5.832   3.407  0.2078  0.8091  0.0271
  904MOL0     C19257   2.241   5.895   3.295  0.0281 -0.7706 -0.1177
  904MOL0     C19258   2.250   5.821   3.158  0.2445 -1.2754 -0.3969
  904MOL0     C19259   2.382   5.816   3.100 -0.1309 -0.1606  0.1429
  904MOL0     C19260   2.475   5.814   3.015 -0.1600 -0.4738  1.1198
  904MOL0     C19261   2.291   5.774   3.795  0.0711  0.1756  0.0929
  904MOL0     C19262   2.280   5.686   3.890 -0.8699  0.1668 -0.2234
  904MOL0     H19263   2.364   5.338   4.274  0.3971  1.3417  2.1769
  904MOL0     H19264   2.292   5.257   4.485 -2.5986 -1.0038  1.9072
  904MOL0     H19265   1.929   5.267   4.735  1.5022  0.4531  0.8240
  904MOL0     H19266   1.881   5.337   4.580 -2.1130  0.7215  1.2872
  904MOL0     H19267   1.939   5.562   4.654 -2.2413 -0.1491 -1.4845
  904MOL0     H19268   2.041   5.513   4.784  0.1857  1.9887 -1.6369
  904MOL0     H19269   1.829   5.610   4.837 -2.8996  0.2567 -2.1201
  904MOL0     H19270   1.846   5.453   4.917 -2.1712  0.3077  0.5628
  904MOL0     H19271   1.659   5.513   4.661  1.7301 -1.2011 -1.6092
  904MOL0     H19272   1.682   5.351   4.733  0.9073 -0.3259  0.5796
  904MOL0     H19273   1.598   5.602   4.891 -0.5273  0.5767 -0.8603
  904MOL0     H19274   1.612   5.434   4.954 -1.1115 -0.9275 -0.8473
  904MOL0     H19275   1.427   5.377   4.800  1.9066 -0.1358 -1.0472
  904MOL0     H19276   1.397   5.547   4.771 -1.4727  0.0255  0.6882
  904MOL0     H19277   1.352   5.418   5.050 -0.8751  1.1962  0.9868
  904MOL0     H19278   1.412   5.575   5.033  1.6486 -0.1137 -2.6497
  904MOL0     H19279   1.154   5.463   4.909 -0.6236  0.7044  0.5640
  904MOL0     H19280   1.207   5.639   4.891 -1.8768  0.9915  1.0181
  904MOL0     H19281   1.130   5.795   5.036 -2.3106  0.8284 -1.2190
  904MOL0     H19282   0.993   5.932   5.243  2.8038 -0.5170 -0.8819
  904MOL0     H19283   1.061   5.827   5.367 -0.0656 -2.6131 -0.1546
  904MOL0     H19284   0.852   5.718   5.412  1.0516 -1.1596 -1.0114
  904MOL0     H19285   0.764   5.793   5.282 -2.5657 -1.7866  3.8557
  904MOL0     H19286   0.904   5.960   5.501 -1.7535  0.6206  0.4064
  904MOL0     H19287   0.787   6.009   5.385  0.6269  0.2314  0.5651
  904MOL0     H19288   0.687   5.958   5.626 -2.9795 -1.1080  0.2674
  904MOL0     H19289   0.726   5.785   5.603 -0.5216  0.1829  1.0543
  904MOL0     H19290   0.517   5.853   5.737  2.1095  2.6470 -1.0805
  904MOL0     H19291   0.313   5.941   5.846  0.8574  0.8179  0.0296
  904MOL0     H19292   0.020   6.140   6.066  0.6677 -1.4658 -1.0337
  904MOL0     H19293  -0.206   6.200   6.149  0.6394 -1.5935  1.3642
  904MOL0     H19294  -0.555   5.979   6.028  6.0464 -0.9881  1.1947
  904MOL0     H19295  -0.551   6.125   5.920  1.6786  1.3447 -0.0018
  904MOL0     H19296  -0.643   6.168   6.200  0.4703  4.5433  0.8985
  904MOL0     H19297  -0.755   6.131   6.069  1.0615 -2.2333 -1.3339
  904MOL0     H19298  -0.677   6.301   5.922 -2.4046  0.1661 -0.3439
  904MOL0     H19299  -0.554   6.355   6.040  0.1229  2.1464 -0.4024
  904MOL0     H19300  -0.780   6.386   6.192  1.0565 -0.2631 -0.2873
  904MOL0     H19301  -0.719   6.521   6.105  0.4952  0.6172 -1.7589
  904MOL0     H19302  -0.922   6.325   6.001  0.1036 -0.5165 -1.6003
  904MOL0     H19303  -0.866   6.467   5.908 -0.9713 -1.5425 -0.5637
  904MOL0     H19304  -0.981   6.507   6.189 -0.3362  2.6017 -0.0542
  904MOL0     H19305  -1.092   6.488   6.052 -0.4225 -0.9477 -0.9346
  904MOL0     H19306  -0.884   6.697   6.105 -1.5054  4.8066 -1.3286
  904MOL0     H19307  -0.957   6.685   5.947 -3.5754 -0.9554  0.0354
  904MOL0     H19308  -1.177   6.695   6.072  0.3546 -0.9383 -0.9263
  904MOL0     H19309  -1.070   6.843   6.089  1.1696  0.5678  1.7617
  904MOL0     H19310  -0.385   5.950   5.848  0.5950  0.2960 -4.7108
  904MOL0     H19311  -0.164   5.952   5.727 -0.1461 -0.9640  0.7207
  904MOL0     H19312   0.160   6.005   5.447  1.4100 -1.0446 -1.5573
  904MOL0     H19313   0.360   5.950   5.355 -2.2667  0.4589 -0.3053
  904MOL0     H19314   1.934   5.498   4.440  0.1072 -0.0125 -1.6624
  904MOL0     H19315   2.010   5.582   4.246  0.0093 -0.2209  1.2808
  904MOL0     H19316   2.602   5.667   4.000  1.6353  1.7715  0.0716
  904MOL0     H19317   2.627   5.803   3.782  0.8256  1.2719 -0.2011
  904MOL0     H19318   2.383   6.025   3.497  1.1590 -0.7664 -2.1750
  904MOL0     H19319   2.251   5.936   3.581 -0.7338 -1.2107 -0.0514
  904MOL0     H19320   2.423   5.811   3.369  0.3681  0.7152  0.4891
  904MOL0     H19321   2.273   5.740   3.438 -0.1746  0.0531 -2.5869
  904MOL0     H19322   2.282   5.993   3.270 -0.9099 -0.0241  1.1786
  904MOL0     H19323   2.135   5.905   3.321  0.5623 -0.7043  2.2673
  904MOL0     H19324   2.217   5.718   3.172 -0.5194 -0.8179  1.5898
  904MOL0     H19325   2.190   5.875   3.084  0.3803 -0.3801  0.1229
  904MOL0     H19326   2.556   5.812   2.946 -1.9552 -1.3304 -1.1152
  904MOL0     H19327   2.194   5.793   3.748  0.3102  0.2720 -0.3745
  904MOL0     H19328   2.184   5.644   3.918  1.0724 -3.4749  1.8403
  905MOL0     O19329   7.670  11.294   4.993  0.0080 -0.4578  0.8453
  905MOL0     C19330   7.633  11.252   4.885  0.0105  0.5794  0.2198
  905MOL0     O19331   7.528  11.165   4.859  0.1188 -0.6520 -0.0717
  905MOL0     C19332   7.429  11.152   4.955  0.2285 -0.7560  0.5054
  905MOL0     C19333   7.351  11.256   5.006  0.2300  0.3379 -0.1173
  905MOL0     C19334   7.267  11.236   5.113  1.2228 -0.1241 -0.1737
  905MOL0     C19335   7.256  11.106   5.167 -1.0807  0.6639 -0.0420
  905MOL0     O19336   7.181  11.094   5.277 -0.1688 -0.8940 -0.0581
  905MOL0     C19337   7.152  10.964   5.326 -0.3748  0.1774 -0.0427
  905MOL0     C19338   7.044  10.956   5.437  0.4860 -0.0551  0.6159
  905MOL0     C19339   6.995  10.821   5.473  0.9428 -0.8951 -0.2632
  905MOL0     C19340   6.903  10.840   5.601  0.2095 -0.4865 -0.7559
  905MOL0     C19341   6.826  10.705   5.622 -0.8820 -0.4529 -1.0061
  905MOL0     C19342   6.745  10.700   5.751  0.1458  0.1891 -0.5307
  905MOL0     C19343   6.659  10.579   5.782  0.3454  0.1046 -0.5313
  905MOL0     C19344   6.554  10.537   5.668 -0.4893  0.2847 -0.2389
  905MOL0     N19345   6.432  10.477   5.727  0.4906 -0.5573  0.3567
  905MOL0     C19346   6.369  10.356   5.699 -0.3933 -0.3290  0.6332
  905MOL0     C19347   6.265  10.354   5.774  0.2649  0.8498 -0.0284
  905MOL0     C19348   6.160  10.248   5.755 -0.0087 -0.2652 -0.5816
  905MOL0     C19349   6.033  10.264   5.841 -0.5475  0.3577 -0.0033
  905MOL0     C19350   6.070  10.211   5.982  0.1430  0.0707  0.3783
  905MOL0     C19351   5.949  10.210   6.077  0.0278 -0.1767 -0.9348
  905MOL0     O19352   6.001  10.154   6.199  0.6927  0.4373 -0.0312
  905MOL0     C19353   5.915  10.164   6.304 -0.9221 -1.1131 -0.6066
  905MOL0     C19354   5.920  10.266   6.402  0.2308  1.0973 -0.4271
  905MOL0     C19355   5.816  10.281   6.488  0.4067  0.2976 -1.0008
  905MOL0     C19356   5.716  10.182   6.498 -0.6273  0.1481  0.6797
  905MOL0     C19357   5.615  10.193   6.599  0.5117 -0.1625  0.1822
  905MOL0     O19358   5.541  10.081   6.627  0.3985  0.1354 -0.5160
  905MOL0     C19359   5.493  10.062   6.749 -0.0521  0.9670  0.5109
  905MOL0     C19360   5.379   9.987   6.753 -0.0902 -0.0730 -0.0970
  905MOL0     C19361   5.326   9.940   6.874 -0.5489  0.3536 -0.0047
  905MOL0     C19362   5.382   9.987   6.993  0.1978 -0.4384  0.8088
  905MOL0     O19363   5.337   9.964   7.117 -0.0235  0.0398 -0.7413
  905MOL0     C19364   5.197   9.995   7.127  0.2232 -0.0550  0.0529
  905MOL0     C19365   5.151   9.969   7.267 -0.2252  0.3993 -0.3002
  905MOL0     C19366   4.997   9.970   7.292  0.3746 -0.7058 -0.4927
  905MOL0     C19367   4.915   9.865   7.219 -0.2923 -0.0281 -0.2083
  905MOL0     C19368   4.771   9.875   7.263 -0.6644 -0.3148  0.0056
  905MOL0     C19369   4.682   9.767   7.202  0.1380 -0.2234  0.2483
  905MOL0     C19370   4.535   9.801   7.220 -0.1483  0.0222  0.0731
  905MOL0     C19371   4.444   9.685   7.160 -0.1722 -0.6383 -0.0858
  905MOL0    Cl19372   4.429   9.533   7.256  0.3870  0.1187  0.0695
  905MOL0     C19373   5.503  10.062   6.994  0.8899 -0.8325 -0.2872
  905MOL0     C19374   5.563  10.104   6.873  0.1164  0.5491  0.7305
  905MOL0     O19375   5.595  10.303   6.653 -0.2967 -0.1481  0.1961
  905MOL0     C19376   5.733  10.061   6.413  0.4022  0.2522 -0.8093
  905MOL0     C19377   5.831  10.058   6.320  0.2965 -0.7332  0.0143
  905MOL0     N19378   6.267  10.456   5.866  0.7986 -0.0321 -0.2210
  905MOL0     N19379   6.361  10.534   5.828 -0.6815 -0.3033  0.7183
  905MOL0     C19380   7.329  10.993   5.113 -0.0793 -0.2380 -0.4260
  905MOL0     C19381   7.409  11.026   5.008  0.2163  0.5043 -0.6453
  905MOL0     C19382   7.705  11.299   4.768 -0.4432  0.6554  0.7011
  905MOL0     C19383   7.809  11.391   4.782  0.9566  0.4322 -0.2682
  905MOL0     C19384   7.886  11.420   4.672  0.8968  0.1000  0.8463
  905MOL0     C19385   7.860  11.378   4.545 -0.8954 -0.3470 -0.3476
  905MOL0     O19386   7.944  11.401   4.442  0.1816 -0.3115  0.5009
  905MOL0     C19387   8.056  11.313   4.442 -1.0303  0.0697  0.0525
  905MOL0     C19388   8.144  11.335   4.323 -0.1410  0.0658  0.1348
  905MOL0     C19389   8.102  11.251   4.200  0.0357 -0.1449  0.2146
  905MOL0     C19390   8.188  11.276   4.077 -0.8711  1.0037  1.0600
  905MOL0     C19391   8.139  11.209   3.955  1.1507 -0.9168  0.6738
  905MOL0     C19392   8.089  11.148   3.865  0.0419 -0.1636  0.6955
  905MOL0     C19393   7.755  11.283   4.538 -0.1346  0.9660  0.5779
  905MOL0     C19394   7.680  11.238   4.648 -0.3515 -0.5689  0.4954
  905MOL0     H19395   7.359  11.353   4.957  1.7199  1.6410  2.4947
  905MOL0     H19396   7.197  11.315   5.140  0.5805  0.1947 -2.5319
  905MOL0     H19397   7.252  10.938   5.363 -0.5175 -0.0193  0.2068
  905MOL0     H19398   7.112  10.898   5.249 -0.0798 -1.6870  1.3099
  905MOL0     H19399   6.965  11.026   5.410 -0.7556 -1.8511 -0.6047
  905MOL0     H19400   7.090  11.006   5.523  1.7184  1.1566 -0.6881
  905MOL0     H19401   7.072  10.744   5.486  2.3633  0.5767  0.3331
  905MOL0     H19402   6.927  10.792   5.392  1.1144 -2.4623  0.1211
  905MOL0     H19403   6.964  10.859   5.690  1.6000 -2.3093 -1.2683
  905MOL0     H19404   6.843  10.931   5.586  1.7744  0.3529 -2.4655
  905MOL0     H19405   6.889  10.617   5.636  0.2480  0.5325  0.2648
  905MOL0     H19406   6.758  10.693   5.536  0.1764 -1.2502 -1.7691
  905MOL0     H19407   6.680  10.788   5.751  3.2440  2.6673 -1.0111
  905MOL0     H19408   6.822  10.705   5.829 -0.5193 -2.6581  0.4418
  905MOL0     H19409   6.725  10.497   5.809  0.0300  0.6107  2.0594
  905MOL0     H19410   6.602  10.595   5.874  0.9941 -3.4170  0.6363
  905MOL0     H19411   6.597  10.459   5.604  1.2467  0.0260  1.1434
  905MOL0     H19412   6.525  10.620   5.603  2.2692  1.9611  0.4720
  905MOL0     H19413   6.394  10.288   5.618  0.3108  0.5184  0.1134
  905MOL0     H19414   6.213  10.158   5.788  3.9771  2.2619  0.6978
  905MOL0     H19415   6.141  10.237   5.648 -0.5215  0.1196 -0.5342
  905MOL0     H19416   5.949  10.210   5.795 -1.6964 -0.1642  2.5178
  905MOL0     H19417   6.013  10.371   5.852 -1.1208  0.7442 -3.7792
  905MOL0     H19418   6.112  10.110   5.976  2.0661  0.8723 -0.9265
  905MOL0     H19419   6.143  10.274   6.034 -0.1399  1.7569 -1.1649
  905MOL0     H19420   5.876  10.140   6.034  1.0456 -1.3814 -0.7741
  905MOL0     H19421   5.908  10.309   6.096 -0.5446 -0.4003 -0.9663
  905MOL0     H19422   5.994  10.345   6.391 -0.9244  1.8862 -3.2829
  905MOL0     H19423   5.814  10.371   6.549 -1.6628  1.1458 -2.2162
  905MOL0     H19424   5.346   9.959   6.654 -0.2780 -1.1247  0.2512
  905MOL0     H19425   5.238   9.877   6.866  1.0389 -2.0493  0.3859
  905MOL0     H19426   5.136   9.926   7.068 -0.1519  0.7386 -0.5127
  905MOL0     H19427   5.177  10.096   7.089 -0.8738 -0.0189  0.6747
  905MOL0     H19428   5.215  10.031   7.331 -1.4869 -2.1958  3.8420
  905MOL0     H19429   5.180   9.868   7.296  2.7941  0.9977 -0.9489
  905MOL0     H19430   4.957  10.067   7.261  2.9476  1.1038  1.3393
  905MOL0     H19431   4.970   9.962   7.398  0.9599  0.7125 -0.2056
  905MOL0     H19432   4.927   9.888   7.113  2.1861 -1.9989 -0.4450
  905MOL0     H19433   4.960   9.766   7.233 -1.4214 -0.6960 -1.1154
  905MOL0     H19434   4.747   9.981   7.258  1.0819  0.2320  2.0132
  905MOL0     H19435   4.763   9.854   7.370  1.5044 -2.4216 -0.1709
  905MOL0     H19436   4.703   9.675   7.258  0.3710 -2.0934 -2.7228
  905MOL0     H19437   4.707   9.745   7.098 -1.4311  0.9305 -0.4257
  905MOL0     H19438   4.503   9.819   7.323  1.6966 -2.2119  1.1238
  905MOL0     H19439   4.516   9.891   7.160 -2.8122 -0.5753 -0.1028
  905MOL0     H19440   4.478   9.664   7.058 -1.7159  1.7885 -1.1778
  905MOL0     H19441   4.347   9.734   7.154  1.1246  2.0596 -0.1366
  905MOL0     H19442   5.548  10.093   7.088  3.3394 -3.7229 -0.3633
  905MOL0     H19443   5.654  10.162   6.867 -0.3953  1.1777 -2.0407
  905MOL0     H19444   5.666   9.976   6.414  2.2584 -1.2556 -0.2570
  905MOL0     H19445   5.846   9.977   6.250  1.6009  1.3760 -2.3093
  905MOL0     H19446   7.309  10.890   5.139  0.9600 -1.0339 -2.5181
  905MOL0     H19447   7.462  10.938   4.973 -0.5742  0.0193 -0.6313
  905MOL0     H19448   7.823  11.445   4.875 -1.1544 -0.2496  0.5106
  905MOL0     H19449   7.961  11.498   4.679  2.8596 -1.6145 -0.0413
  905MOL0     H19450   8.023  11.209   4.436 -1.1192  0.1478 -1.2226
  905MOL0     H19451   8.114  11.328   4.533 -0.3282  1.0954 -0.5407
  905MOL0     H19452   8.133  11.442   4.299  0.3362  0.4705  1.6563
  905MOL0     H19453   8.248  11.315   4.350 -0.5438 -3.9334 -0.7519
  905MOL0     H19454   7.998  11.282   4.182 -0.4281 -1.9410 -0.3903
  905MOL0     H19455   8.102  11.145   4.229 -2.1085 -0.4861 -0.8261
  905MOL0     H19456   8.206  11.383   4.063  3.2065  0.6782  2.4894
  905MOL0     H19457   8.287  11.236   4.101 -0.2858  1.5006 -0.4203
  905MOL0     H19458   8.044  11.097   3.782  1.3366 -2.1245  1.1238
  905MOL0     H19459   7.732  11.231   4.445  0.4919  3.4031 -1.0430
  905MOL0     H19460   7.596  11.172   4.629 -0.8919  0.9369 -3.0419
  906MOL0     O19461   7.374   8.175  11.263 -0.3764  0.3803  0.6814
  906MOL0     C19462   7.409   8.243  11.358 -0.2834  1.0631 -0.2854
  906MOL0     O19463   7.350   8.359  11.412 -0.2231  0.1941 -0.0204
  906MOL0     C19464   7.217   8.389  11.394  0.9778 -0.5053  0.0609
  906MOL0     C19465   7.119   8.294  11.405 -0.5604 -0.8618 -0.1634
  906MOL0     C19466   6.977   8.320  11.388  0.6068  0.5558  0.5309
  906MOL0     C19467   6.938   8.457  11.373 -0.0175 -1.4985  0.5770
  906MOL0     O19468   6.811   8.478  11.343 -0.6769 -0.3969  0.3033
  906MOL0     C19469   6.751   8.598  11.390  0.1439  0.4892 -1.3061
  906MOL0     C19470   6.766   8.634  11.546  0.2908  0.2025  0.0676
  906MOL0     C19471   6.638   8.715  11.574  0.4019 -0.4877 -0.1561
  906MOL0     C19472   6.516   8.634  11.627  0.1774 -0.1001 -0.5712
  906MOL0     C19473   6.381   8.711  11.641  0.2077 -0.4481 -0.2587
  906MOL0     C19474   6.288   8.619  11.719 -0.3682 -0.0837 -0.7167
  906MOL0     C19475   6.138   8.644  11.704 -0.1969 -0.1177 -0.7366
  906MOL0     C19476   6.081   8.565  11.590  0.1508 -0.3392  0.3512
  906MOL0     N19477   5.945   8.615  11.559  0.0195  0.2782 -0.4311
  906MOL0     C19478   5.906   8.714  11.469 -0.2735  0.4379  1.2453
  906MOL0     C19479   5.776   8.733  11.496 -0.2074 -0.0562 -0.3034
  906MOL0     C19480   5.673   8.823  11.438 -1.3070 -0.0878 -0.7225
  906MOL0     C19481   5.567   8.873  11.530  0.9127 -0.6556  0.1384
  906MOL0     C19482   5.458   8.771  11.559 -0.0400 -0.6667  0.3455
  906MOL0     C19483   5.329   8.815  11.628 -0.0029  0.0695  0.0328
  906MOL0     O19484   5.231   8.717  11.628  0.9774  0.5464 -0.1102
  906MOL0     C19485   5.115   8.731  11.706 -0.2332 -0.1289  0.1946
  906MOL0     C19486   5.048   8.611  11.724 -0.6007 -0.1894 -0.3740
  906MOL0     C19487   4.922   8.602  11.778  0.4682 -0.6487 -0.2502
  906MOL0     C19488   4.857   8.719  11.826 -0.3024 -0.2448 -0.8860
  906MOL0     C19489   4.717   8.714  11.892 -0.4335  0.1700  0.1314
  906MOL0     O19490   4.657   8.827  11.920 -0.1119  0.5426 -0.5996
  906MOL0     C19491   4.529   8.817  11.970 -0.2711  0.2411 -0.2864
  906MOL0     C19492   4.498   8.845  12.107  0.9461 -0.1143 -0.5927
  906MOL0     C19493   4.360   8.841  12.148 -0.7857 -0.0825  0.7915
  906MOL0     C19494   4.257   8.818  12.052 -0.2285 -0.5825 -0.3908
  906MOL0     O19495   4.129   8.836  12.103 -0.1810 -0.3369  0.5118
  906MOL0     C19496   4.018   8.822  12.020  0.0618 -0.1476 -0.0184
  906MOL0     C19497   3.896   8.912  12.060  0.6757 -0.2705  0.1924
  906MOL0     C19498   3.775   8.917  11.965  0.0943 -0.4959 -0.1196
  906MOL0     C19499   3.666   9.011  12.012  0.2524 -0.1423  0.0607
  906MOL0     C19500   3.547   8.996  11.917  0.2450 -0.4332  0.8439
  906MOL0     C19501   3.412   9.059  11.973 -0.5570 -0.1564 -1.1280
  906MOL0     C19502   3.314   9.105  11.857 -0.0721 -0.1387 -0.3146
  906MOL0     C19503   3.204   9.204  11.899  0.5780  0.1028  0.6066
  906MOL0    Cl19504   3.085   9.118  12.003 -0.1505  0.1624  0.2742
  906MOL0     C19505   4.290   8.791  11.920 -0.9087 -0.2234  0.2471
  906MOL0     C19506   4.424   8.800  11.883  0.4790  0.3643 -0.0979
  906MOL0     O19507   4.666   8.602  11.899 -0.0431  0.6591  0.1838
  906MOL0     C19508   4.939   8.840  11.822  0.5950 -0.1652 -0.7669
  906MOL0     C19509   5.065   8.848  11.765  0.0180 -0.5104  0.2625
  906MOL0     N19510   5.747   8.660  11.608  0.3588 -0.1962 -0.7035
  906MOL0     N19511   5.839   8.581  11.639  0.9892 -0.6789  0.6050
  906MOL0     C19512   7.038   8.561  11.373 -0.0380  0.0625 -0.4717
  906MOL0     C19513   7.173   8.529  11.388 -0.1928 -0.4274  0.9046
  906MOL0     C19514   7.547   8.204  11.410 -0.3336  0.0873  0.9321
  906MOL0     C19515   7.573   8.207  11.548 -0.1056  0.0125  0.3341
  906MOL0     C19516   7.692   8.157  11.602 -0.2076 -0.5632 -0.2694
  906MOL0     C19517   7.786   8.088  11.527  0.8934  0.1134 -0.3521
  906MOL0     O19518   7.905   8.047  11.596  0.2401 -0.3130  0.2271
  906MOL0     C19519   8.012   7.994  11.522 -0.3542  0.0636  0.3412
  906MOL0     C19520   7.982   7.847  11.494 -0.5813  0.5105  0.0018
  906MOL0     C19521   8.111   7.776  11.439 -0.1882  0.1483 -0.2409
  906MOL0     C19522   8.082   7.632  11.383  0.3423  1.0585 -0.8209
  906MOL0     C19523   8.003   7.624  11.261 -0.3688 -0.0812 -0.0570
  906MOL0     C19524   7.921   7.617  11.171  0.1987 -0.7448  0.1276
  906MOL0     C19525   7.751   8.076  11.384  0.1779 -0.0348 -0.1463
  906MOL0     C19526   7.632   8.130  11.328  0.1908  0.4085 -0.0176
  906MOL0     H19527   7.155   8.191  11.405  0.1387 -0.6270  0.0848
  906MOL0     H19528   6.897   8.247  11.381  1.2191 -0.0160 -0.7910
  906MOL0     H19529   6.644   8.588  11.370 -0.0954 -0.3792  0.2258
  906MOL0     H19530   6.790   8.682  11.332  0.8156  2.9296  2.2757
  906MOL0     H19531   6.859   8.690  11.548  0.1026  1.3261 -5.3299
  906MOL0     H19532   6.770   8.547  11.612 -1.7375 -0.0216 -0.0333
  906MOL0     H19533   6.605   8.766  11.483  0.2308 -1.2473 -0.5289
  906MOL0     H19534   6.652   8.787  11.655 -1.0778 -0.4902  0.1273
  906MOL0     H19535   6.477   8.566  11.551 -1.0734  0.7584 -0.7310
  906MOL0     H19536   6.541   8.577  11.717  0.6717 -0.7636 -1.1228
  906MOL0     H19537   6.330   8.728  11.546  0.1578  0.4160 -0.0823
  906MOL0     H19538   6.397   8.804  11.697  1.6686 -1.2021  0.6426
  906MOL0     H19539   6.314   8.638  11.823 -2.8198  2.6721 -0.4756
  906MOL0     H19540   6.307   8.514  11.695  0.5942  0.1217 -0.8890
  906MOL0     H19541   6.081   8.610  11.790  1.1951 -0.4540  0.0800
  906MOL0     H19542   6.123   8.752  11.700  2.8970  0.5981  2.2368
  906MOL0     H19543   6.083   8.458  11.612 -1.8864 -0.7549 -1.1633
  906MOL0     H19544   6.148   8.591  11.507 -0.1909 -3.8749 -1.2167
  906MOL0     H19545   5.962   8.763  11.389 -1.2448  2.0481  1.5065
  906MOL0     H19546   5.627   8.780  11.348  0.2836 -1.1620 -1.0636
  906MOL0     H19547   5.740   8.904  11.407  2.8658 -2.2431  1.7272
  906MOL0     H19548   5.521   8.966  11.494 -0.0283 -0.5645  1.5095
  906MOL0     H19549   5.609   8.903  11.626 -0.2579 -0.8459  0.7340
  906MOL0     H19550   5.427   8.734  11.460 -1.8836 -0.8681  0.9652
  906MOL0     H19551   5.508   8.690  11.612 -0.5164 -1.1463  0.0770
  906MOL0     H19552   5.283   8.902  11.581 -0.2344  0.7982  1.5591
  906MOL0     H19553   5.364   8.843  11.727  1.9726  1.6052 -1.0384
  906MOL0     H19554   5.096   8.521  11.684 -1.5141 -0.9914  0.2905
  906MOL0     H19555   4.869   8.507  11.783 -3.4740  1.3792  0.3792
  906MOL0     H19556   4.568   8.863  12.188 -0.6626  1.0221  0.6053
  906MOL0     H19557   4.339   8.861  12.253  0.5619  0.1109  1.0533
  906MOL0     H19558   3.978   8.720  12.019  0.4056 -0.3252 -2.8594
  906MOL0     H19559   4.043   8.852  11.918  2.4768 -0.6711  0.3563
  906MOL0     H19560   3.936   9.013  12.046 -0.0546 -0.0115 -0.0874
  906MOL0     H19561   3.863   8.892  12.162  0.1315 -0.4523 -0.0118
  906MOL0     H19562   3.728   8.819  11.959 -0.0634 -0.3858 -0.7190
  906MOL0     H19563   3.816   8.930  11.865  0.5600 -0.0637  0.1213
  906MOL0     H19564   3.646   9.013  12.119  2.9254  1.2801  0.6388
  906MOL0     H19565   3.710   9.108  11.989 -0.6810 -0.1833 -2.1270
  906MOL0     H19566   3.526   8.889  11.904 -1.6483  0.0918 -0.8999
  906MOL0     H19567   3.561   9.044  11.820 -1.7324 -0.9338  0.2624
  906MOL0     H19568   3.432   9.154  12.024 -1.9565  2.4574 -4.9821
  906MOL0     H19569   3.366   8.987  12.041 -0.8163 -0.7088 -1.8678
  906MOL0     H19570   3.380   9.161  11.790  1.3039 -0.4008  0.7684
  906MOL0     H19571   3.277   9.022  11.796 -1.3769 -0.8617  1.3828
  906MOL0     H19572   3.147   9.239  11.812 -0.8904 -3.2188  0.1038
  906MOL0     H19573   3.246   9.283  11.962  0.5539  0.7440 -0.1595
  906MOL0     H19574   4.217   8.765  11.844 -0.6906  0.4685 -0.2096
  906MOL0     H19575   4.449   8.800  11.778  3.4454  1.2647  0.4976
  906MOL0     H19576   4.906   8.929  11.875  0.5540  0.6311 -2.0961
  906MOL0     H19577   5.123   8.940  11.770 -2.9903  1.4322  2.7190
  906MOL0     H19578   7.012   8.666  11.366  0.0411  0.4389  3.1092
  906MOL0     H19579   7.243   8.612  11.389 -0.4351 -0.1205 -1.3974
  906MOL0     H19580   7.497   8.255  11.609  0.7374  3.2685 -0.9788
  906MOL0     H19581   7.713   8.182  11.705 -3.1328  1.3459 -0.0098
  906MOL0     H19582   8.098   8.001  11.589 -1.1568 -1.3104  1.5718
  906MOL0     H19583   8.035   8.038  11.425  1.5903  2.2011  1.6665
  906MOL0     H19584   7.946   7.802  11.586 -2.4168  1.1112 -0.3788
  906MOL0     H19585   7.913   7.837  11.410  0.7556 -0.1027 -1.0738
  906MOL0     H19586   8.197   7.775  11.507 -0.3712  1.8553  0.0658
  906MOL0     H19587   8.149   7.827  11.350  1.1218 -1.8864 -0.9288
  906MOL0     H19588   8.172   7.578  11.352 -0.7904 -1.9973  0.8779
  906MOL0     H19589   8.026   7.582  11.462 -3.5922  1.4889 -3.0977
  906MOL0     H19590   7.842   7.608  11.099  0.7524  2.4924 -1.0803
  906MOL0     H19591   7.825   8.022  11.327 -0.7004 -0.9798 -0.4099
  906MOL0     H19592   7.613   8.111  11.223  0.7852 -0.6866  0.0552
  907MOL0     O19593   8.155   6.019   4.127  0.1079  1.2642  0.0797
  907MOL0     C19594   8.158   5.994   4.244  0.3897  0.8476 -0.4558
  907MOL0     O19595   8.092   5.888   4.306  0.4036  0.8055  0.1059
  907MOL0     C19596   8.030   5.777   4.251 -0.5926  0.6837  0.1381
  907MOL0     C19597   8.054   5.729   4.119  1.1160 -0.0669 -0.1375
  907MOL0     C19598   8.004   5.605   4.079  1.1229  0.0805  0.2154
  907MOL0     C19599   7.911   5.539   4.163  0.2793  0.1552  0.4201
  907MOL0     O19600   7.843   5.428   4.103 -0.4396 -0.0553  0.3535
  907MOL0     C19601   7.721   5.460   4.031 -0.2072 -0.2818 -0.2522
  907MOL0     C19602   7.605   5.415   4.117  0.3590 -0.1482 -1.3132
  907MOL0     C19603   7.610   5.261   4.137 -0.3689  0.7567 -0.0685
  907MOL0     C19604   7.488   5.194   4.208 -0.2493  0.2322  0.1835
  907MOL0     C19605   7.521   5.046   4.246  0.6963 -0.0340  0.0856
  907MOL0     C19606   7.381   4.984   4.304 -0.6777 -0.6449 -0.1060
  907MOL0     C19607   7.261   4.976   4.202 -1.2420  0.1331 -0.7104
  907MOL0     C19608   7.312   4.916   4.070  0.0989 -0.0560 -0.0706
  907MOL0     N19609   7.204   4.843   4.001  0.6585 -0.0026  0.2015
  907MOL0     C19610   7.089   4.906   3.951  0.4846 -0.0409 -0.3606
  907MOL0     C19611   6.998   4.800   3.939  0.6859 -0.0846  0.8315
  907MOL0     C19612   6.850   4.803   3.897 -0.9761 -0.1440 -0.5744
  907MOL0     C19613   6.762   4.843   4.019 -0.2325 -0.0001 -0.1996
  907MOL0     C19614   6.619   4.856   3.978 -1.0806 -0.1536 -0.2424
  907MOL0     C19615   6.559   4.729   3.909 -0.2384  0.0856 -0.9028
  907MOL0     O19616   6.418   4.751   3.900  0.3206  0.0382 -1.0238
  907MOL0     C19617   6.350   4.654   3.830 -0.2677  0.3928 -0.2907
  907MOL0     C19618   6.212   4.676   3.833 -0.6333  0.3907 -0.0384
  907MOL0     C19619   6.124   4.598   3.755 -0.4959 -0.6480  0.5284
  907MOL0     C19620   6.171   4.493   3.672  0.0925 -0.3090  1.1504
  907MOL0     C19621   6.081   4.426   3.587 -0.7230  0.0231  1.2391
  907MOL0     O19622   5.945   4.474   3.583 -0.1564 -0.4785 -0.2744
  907MOL0     C19623   5.855   4.420   3.499 -0.1323  0.7404 -0.4873
  907MOL0     C19624   5.890   4.404   3.370  0.7578 -0.2739 -0.2282
  907MOL0     C19625   5.790   4.368   3.279 -0.7885 -0.2432 -0.3049
  907MOL0     C19626   5.659   4.331   3.313 -0.4855 -0.0960  0.7928
  907MOL0     O19627   5.569   4.299   3.214 -0.0127 -0.1061  0.2638
  907MOL0     C19628   5.443   4.251   3.260 -1.0668 -0.7350  0.3378
  907MOL0     C19629   5.358   4.241   3.137 -0.0162  0.8007  0.3917
  907MOL0     C19630   5.220   4.185   3.176  0.9178 -0.0570 -1.1680
  907MOL0     C19631   5.152   4.129   3.055 -0.6047 -0.0337  0.1458
  907MOL0     C19632   5.117   4.241   2.956 -0.8624  0.2618  0.7176
  907MOL0     C19633   5.006   4.340   3.005 -1.2403 -0.7338 -0.4941
  907MOL0     C19634   4.868   4.280   2.986 -0.8728 -0.1259 -0.5279
  907MOL0     C19635   4.768   4.371   3.071  0.3021 -0.7146  0.0380
  907MOL0    Cl19636   4.757   4.543   3.008  0.2486 -0.2641  0.1856
  907MOL0     C19637   5.630   4.351   3.452  0.6459 -0.0448  1.1803
  907MOL0     C19638   5.727   4.401   3.540  0.0336 -0.3167 -0.0225
  907MOL0     O19639   6.127   4.349   3.509 -0.2614  0.4037  0.0249
  907MOL0     C19640   6.308   4.467   3.676 -0.2973 -0.5818 -0.0245
  907MOL0     C19641   6.399   4.555   3.745  0.2683 -0.0014  0.8559
  907MOL0     N19642   7.062   4.679   3.970 -0.4134 -1.6122  0.2599
  907MOL0     N19643   7.184   4.707   4.002  0.3617  0.0701 -0.0431
  907MOL0     C19644   7.866   5.599   4.281  0.5061 -0.1866  0.0015
  907MOL0     C19645   7.929   5.721   4.322  0.6176 -0.0857  0.4456
  907MOL0     C19646   8.234   6.080   4.328 -0.0674 -1.3265 -0.3626
  907MOL0     C19647   8.230   6.064   4.469  0.1202  0.1889  0.5597
  907MOL0     C19648   8.303   6.137   4.559  0.5612  0.2044  0.9830
  907MOL0     C19649   8.388   6.237   4.504  0.5267 -0.1581  0.4039
  907MOL0     O19650   8.450   6.307   4.610 -0.1752  0.0070  0.4912
  907MOL0     C19651   8.562   6.385   4.565  0.4606  0.4719  0.0227
  907MOL0     C19652   8.642   6.431   4.683  0.1958  0.6619  0.4739
  907MOL0     C19653   8.566   6.500   4.802 -0.5679  0.2744  0.8897
  907MOL0     C19654   8.670   6.575   4.895  0.4155 -0.0773  0.9151
  907MOL0     C19655   8.612   6.654   5.008  0.6418 -0.4812  0.5003
  907MOL0     C19656   8.556   6.704   5.103 -0.2134 -0.4370  0.3852
  907MOL0     C19657   8.392   6.261   4.363 -0.1309  0.3127  0.3949
  907MOL0     C19658   8.320   6.178   4.279 -0.2420 -0.5871 -0.0731
  907MOL0     H19659   8.104   5.797   4.050  1.0673  1.3891  1.2137
  907MOL0     H19660   8.021   5.553   3.985  2.4486 -0.9517  0.9829
  907MOL0     H19661   7.724   5.403   3.938 -3.1563  0.8565 -1.1378
  907MOL0     H19662   7.704   5.564   4.001 -0.0052 -0.1551  0.0620
  907MOL0     H19663   7.516   5.439   4.058  0.3883  1.2944 -0.8060
  907MOL0     H19664   7.612   5.462   4.215  3.6398 -2.0192 -0.5060
  907MOL0     H19665   7.699   5.233   4.195  0.5597 -2.2958 -2.6215
  907MOL0     H19666   7.631   5.213   4.040  4.7501 -0.3133  1.2669
  907MOL0     H19667   7.458   5.252   4.296  2.1908  3.1189 -0.6880
  907MOL0     H19668   7.410   5.193   4.131 -0.8848  1.4562  0.7772
  907MOL0     H19669   7.599   5.036   4.322  0.6544 -0.0115  0.1312
  907MOL0     H19670   7.558   4.986   4.162 -1.8605 -3.0782  0.9398
  907MOL0     H19671   7.362   5.051   4.389  1.6373  3.7318 -2.6261
  907MOL0     H19672   7.417   4.887   4.337 -2.5106 -0.7876  1.5918
  907MOL0     H19673   7.185   4.905   4.237 -0.8546  1.0318  2.2076
  907MOL0     H19674   7.216   5.073   4.179 -0.8447  0.4360 -0.2337
  907MOL0     H19675   7.396   4.847   4.082  2.1890  1.6488 -3.2854
  907MOL0     H19676   7.347   4.994   4.002 -0.2421 -1.0036 -1.3907
  907MOL0     H19677   7.083   5.012   3.929  2.0889  0.0738 -0.3292
  907MOL0     H19678   6.821   4.705   3.860 -1.2984 -0.3658  0.2408
  907MOL0     H19679   6.853   4.882   3.821 -1.4267 -0.2604 -0.7127
  907MOL0     H19680   6.807   4.940   4.042  0.5938 -1.1802  4.0405
  907MOL0     H19681   6.772   4.773   4.102  1.6010  0.0321 -0.3469
  907MOL0     H19682   6.569   4.877   4.073 -0.2246  1.0794 -0.0388
  907MOL0     H19683   6.608   4.941   3.909 -0.1952  0.4974  0.4008
  907MOL0     H19684   6.587   4.643   3.970 -1.3373 -0.1652 -0.7185
  907MOL0     H19685   6.604   4.718   3.810  0.6744  1.6224 -0.6971
  907MOL0     H19686   6.178   4.748   3.907  0.3432  0.7912  0.0373
  907MOL0     H19687   6.017   4.607   3.771 -0.3691  1.3138  0.5006
  907MOL0     H19688   5.988   4.429   3.330  1.2839 -1.4257  0.2795
  907MOL0     H19689   5.825   4.363   3.176 -0.4512  2.1789 -0.3566
  907MOL0     H19690   5.394   4.318   3.331 -1.5371  0.4464 -1.0363
  907MOL0     H19691   5.459   4.154   3.307  1.6118 -0.8376 -0.6376
  907MOL0     H19692   5.410   4.176   3.065 -1.9888  1.4874 -1.8008
  907MOL0     H19693   5.350   4.334   3.078  0.5116  0.0802 -0.8583
  907MOL0     H19694   5.160   4.259   3.230  0.0953  0.1607 -2.3635
  907MOL0     H19695   5.224   4.108   3.254 -3.5195  0.0440 -0.6131
  907MOL0     H19696   5.214   4.050   3.012  0.2163  1.1552 -0.9087
  907MOL0     H19697   5.059   4.076   3.080 -0.7348 -0.6772 -1.5595
  907MOL0     H19698   5.101   4.203   2.855 -1.1503  1.9002  0.1239
  907MOL0     H19699   5.213   4.290   2.935 -1.4969  0.6695 -1.4377
  907MOL0     H19700   5.020   4.428   2.943 -1.0962  1.8968  2.9795
  907MOL0     H19701   5.020   4.385   3.104  2.7179  2.3048 -2.2037
  907MOL0     H19702   4.849   4.286   2.878  1.4395  1.9570 -0.9047
  907MOL0     H19703   4.857   4.180   3.028 -0.3161 -0.9078 -2.1686
  907MOL0     H19704   4.792   4.368   3.178 -0.9828  0.6296  0.3956
  907MOL0     H19705   4.671   4.321   3.080  1.3370 -2.7500  0.4527
  907MOL0     H19706   5.535   4.308   3.485  0.6326 -1.5086 -0.6144
  907MOL0     H19707   5.703   4.424   3.644 -2.8185  0.1653 -0.6868
  907MOL0     H19708   6.335   4.390   3.605  0.0260  0.0994 -0.6510
  907MOL0     H19709   6.507   4.560   3.730  0.0640  1.3248 -0.3992
  907MOL0     H19710   7.783   5.552   4.333 -3.1325  2.1380 -3.1383
  907MOL0     H19711   7.897   5.772   4.411  0.2778  1.2610 -0.4212
  907MOL0     H19712   8.167   5.981   4.498 -1.5514  1.2540  0.1565
  907MOL0     H19713   8.299   6.117   4.666 -1.7315  2.2762  1.4038
  907MOL0     H19714   8.535   6.473   4.507 -1.5199 -0.8065 -1.1108
  907MOL0     H19715   8.625   6.318   4.506 -0.6680  0.1802 -0.8956
  907MOL0     H19716   8.691   6.347   4.734 -1.3520 -0.0259  0.8904
  907MOL0     H19717   8.721   6.501   4.655  1.0087  0.6325  2.5106
  907MOL0     H19718   8.495   6.431   4.850  0.8863 -1.4958  0.6058
  907MOL0     H19719   8.505   6.578   4.756 -0.4962 -0.8450 -1.2218
  907MOL0     H19720   8.741   6.498   4.926  0.3900 -1.6806 -2.4759
  907MOL0     H19721   8.727   6.649   4.838  0.6950 -0.2607  0.9552
  907MOL0     H19722   8.496   6.746   5.182  0.1844 -1.4287  1.2442
  907MOL0     H19723   8.443   6.348   4.322  1.9802  0.4669  3.0617
  907MOL0     H19724   8.323   6.204   4.173  0.2104 -0.6149 -0.0683
  908MOL0     O19725   9.136   5.787   0.142  0.9081  0.3725  0.2163
  908MOL0     C19726   9.155   5.715   0.040 -0.0465 -1.1383  0.4306
  908MOL0     O19727   9.068   5.621  -0.015  0.4830  0.2817 -0.2477
  908MOL0     C19728   8.940   5.603   0.025 -0.8678  0.1332 -0.4087
  908MOL0     C19729   8.886   5.474   0.011  1.1171 -1.2527 -0.5954
  908MOL0     C19730   8.759   5.454   0.073  0.5576 -0.2433 -0.8552
  908MOL0     C19731   8.680   5.557   0.132 -0.1624  0.1303 -0.0706
  908MOL0     O19732   8.552   5.531   0.176 -0.1171 -1.2148  0.9491
  908MOL0     C19733   8.543   5.451   0.295  0.0497  0.1061 -0.7944
  908MOL0     C19734   8.394   5.434   0.345 -0.1670  1.0649 -0.0815
  908MOL0     C19735   8.319   5.358   0.242  0.8023  0.5791  0.2311
  908MOL0     C19736   8.175   5.350   0.280 -0.8271  0.2500 -0.0371
  908MOL0     C19737   8.090   5.476   0.229 -0.5027 -0.4852  0.1857
  908MOL0     C19738   7.938   5.466   0.250 -0.0260  0.4604  0.0289
  908MOL0     C19739   7.889   5.421   0.391  0.0441 -0.7708 -0.8492
  908MOL0     C19740   7.897   5.542   0.501 -0.3445 -0.0445  0.4839
  908MOL0     N19741   7.825   5.501   0.615  0.1576  0.4643 -0.2749
  908MOL0     C19742   7.700   5.455   0.622  0.3242  0.2991  0.6084
  908MOL0     C19743   7.689   5.420   0.747  0.8589  0.0406  0.5394
  908MOL0     C19744   7.564   5.396   0.814  0.5494  0.2638 -0.6444
  908MOL0     C19745   7.473   5.299   0.755 -0.1140 -0.3105  0.5774
  908MOL0     C19746   7.355   5.259   0.839  0.2599  1.0219  0.2031
  908MOL0     C19747   7.292   5.370   0.914  0.0691 -0.3670  0.5732
  908MOL0     O19748   7.243   5.476   0.827 -0.0531  0.2404 -0.0246
  908MOL0     C19749   7.147   5.444   0.734 -0.0653 -0.9976 -1.2526
  908MOL0     C19750   7.131   5.530   0.630  0.1379 -0.0530  0.4916
  908MOL0     C19751   7.014   5.541   0.558 -0.7451 -1.2406  0.2437
  908MOL0     C19752   6.911   5.459   0.577 -0.4423 -0.1168  0.7448
  908MOL0     C19753   6.790   5.459   0.506  1.2617 -0.5910  0.5137
  908MOL0     O19754   6.676   5.414   0.571 -0.4179  0.8535  0.0931
  908MOL0     C19755   6.563   5.372   0.503 -0.2331 -0.4017 -0.4638
  908MOL0     C19756   6.492   5.457   0.421  1.0493  0.7128  0.6896
  908MOL0     C19757   6.370   5.408   0.368 -0.5857  0.0237 -0.1235
  908MOL0     C19758   6.324   5.283   0.378  0.1678 -0.6770 -0.3500
  908MOL0     O19759   6.208   5.261   0.311  0.6797 -0.3086 -0.0869
  908MOL0     C19760   6.147   5.133   0.306  0.5660  0.5882  0.4356
  908MOL0     C19761   6.010   5.135   0.243 -0.1641 -0.0404  0.4037
  908MOL0     C19762   5.935   5.005   0.277  0.2179 -1.0498  0.4582
  908MOL0     C19763   5.798   5.004   0.197  0.0196  0.4940  0.3581
  908MOL0     C19764   5.720   4.875   0.232  0.7461 -0.1715  0.4583
  908MOL0     C19765   5.579   4.891   0.156  0.2222  0.6782  0.6524
  908MOL0     C19766   5.505   4.763   0.184  0.7562  0.4452 -0.5390
  908MOL0     C19767   5.361   4.788   0.148 -0.4373  0.2918  0.3143
  908MOL0    Cl19768   5.268   4.641   0.197  0.4519 -0.0436 -0.4071
  908MOL0     C19769   6.393   5.198   0.455 -0.8132  0.1934  0.6107
  908MOL0     C19770   6.512   5.242   0.524  0.0130  0.8120 -0.9797
  908MOL0     O19771   6.788   5.497   0.389  0.3382 -0.7470  0.9852
  908MOL0     C19772   6.926   5.364   0.676 -0.2079  0.1438 -0.2448
  908MOL0     C19773   7.040   5.361   0.754 -0.1924 -0.8037 -0.3917
  908MOL0     N19774   7.808   5.445   0.810  0.6245  0.1219 -0.0369
  908MOL0     N19775   7.894   5.496   0.734  0.2091  0.0314 -0.4257
  908MOL0     C19776   8.732   5.690   0.121  1.0386  1.0991 -0.1184
  908MOL0     C19777   8.865   5.704   0.076  1.5370  0.5912  0.1931
  908MOL0     C19778   9.283   5.711  -0.015 -0.4796  0.0133  0.1229
  908MOL0     C19779   9.386   5.792   0.043  0.2788 -0.3095 -0.4364
  908MOL0     C19780   9.518   5.809  -0.009  0.3799  0.7354 -0.2332
  908MOL0     C19781   9.560   5.731  -0.117  0.6824  0.9230 -0.5697
  908MOL0     O19782   9.691   5.716  -0.167  0.6881  0.0428  0.5266
  908MOL0     C19783   9.794   5.805  -0.122 -0.9989 -0.0059  0.1195
  908MOL0     C19784   9.770   5.958  -0.165  0.4321  0.5134 -0.1789
  908MOL0     C19785   9.907   6.034  -0.194  0.7835 -0.6961  0.8068
  908MOL0     C19786   9.884   6.180  -0.226 -0.8234  0.2752 -0.7389
  908MOL0     C19787   9.817   6.252  -0.114  0.3428  0.1797 -0.0429
  908MOL0     C19788   9.746   6.319  -0.038 -0.0920  0.4297  0.2624
  908MOL0     C19789   9.461   5.650  -0.176 -0.5798  0.3216  0.0451
  908MOL0     C19790   9.329   5.643  -0.131 -0.6520  0.7677 -0.3790
  908MOL0     H19791   8.947   5.397  -0.036  2.2464 -1.2713  0.8149
  908MOL0     H19792   8.716   5.355   0.078  0.9250 -0.4474 -1.6062
  908MOL0     H19793   8.597   5.502   0.375  0.3011 -2.1726  0.5745
  908MOL0     H19794   8.589   5.351   0.291  0.8872  0.2795  2.1134
  908MOL0     H19795   8.359   5.529   0.386  0.7936 -0.2690  4.2883
  908MOL0     H19796   8.403   5.372   0.434  0.0961  3.7411  1.8413
  908MOL0     H19797   8.353   5.254   0.236 -0.3374  0.2906 -3.4483
  908MOL0     H19798   8.328   5.407   0.145  2.2011 -1.3503 -0.6705
  908MOL0     H19799   8.143   5.263   0.221  0.2858 -0.0356 -0.2446
  908MOL0     H19800   8.171   5.331   0.388  2.2186  3.9911  0.9662
  908MOL0     H19801   8.121   5.495   0.126  1.1355 -0.7522  0.5972
  908MOL0     H19802   8.132   5.563   0.281 -0.8393  1.1357 -2.1198
  908MOL0     H19803   7.892   5.397   0.179 -0.1579  1.1373 -0.5644
  908MOL0     H19804   7.902   5.563   0.214  0.8745 -0.7348 -4.9169
  908MOL0     H19805   7.789   5.377   0.379 -0.1397 -1.0576  1.2157
  908MOL0     H19806   7.954   5.338   0.422  0.8197 -0.0228 -0.4121
  908MOL0     H19807   7.860   5.633   0.454  2.5935 -0.4473 -3.0728
  908MOL0     H19808   7.997   5.572   0.532 -0.6172 -0.6191  2.0070
  908MOL0     H19809   7.638   5.443   0.534  0.8000  2.1302 -0.0304
  908MOL0     H19810   7.508   5.489   0.807  0.2437 -0.0118 -2.2482
  908MOL0     H19811   7.592   5.380   0.918  1.3177 -1.7971 -1.1162
  908MOL0     H19812   7.530   5.208   0.735  1.0390  0.1205  1.7783
  908MOL0     H19813   7.437   5.338   0.660 -0.6913 -0.0148  0.9098
  908MOL0     H19814   7.283   5.207   0.774  2.4161 -1.9781 -0.0013
  908MOL0     H19815   7.380   5.176   0.906  1.2849  1.8481  0.8827
  908MOL0     H19816   7.368   5.418   0.976  1.2690  0.7641 -1.6632
  908MOL0     H19817   7.212   5.327   0.976 -1.8643 -2.2694 -2.8849
  908MOL0     H19818   7.212   5.602   0.616  0.9217 -1.0874 -0.4816
  908MOL0     H19819   7.004   5.609   0.474  0.6117 -1.1027  0.1755
  908MOL0     H19820   6.517   5.558   0.390  0.3011 -0.1548 -3.3421
  908MOL0     H19821   6.304   5.472   0.310 -1.5463 -1.6355 -0.9254
  908MOL0     H19822   6.129   5.091   0.406 -0.7542  2.5106  1.0518
  908MOL0     H19823   6.216   5.070   0.251 -0.9833 -1.4346  0.6560
  908MOL0     H19824   6.015   5.140   0.134  0.8763 -3.5385  0.1521
  908MOL0     H19825   5.955   5.220   0.284 -0.9423 -0.8826  1.2024
  908MOL0     H19826   5.903   5.006   0.382  0.7197 -0.3330  0.6149
  908MOL0     H19827   6.000   4.919   0.255 -0.4966 -1.3038 -0.7659
  908MOL0     H19828   5.741   5.095   0.219 -2.9826 -1.1172 -0.1370
  908MOL0     H19829   5.809   5.009   0.088 -0.0067 -0.6866  0.2917
  908MOL0     H19830   5.699   4.858   0.338  0.1906 -5.1935 -0.2293
  908MOL0     H19831   5.774   4.787   0.197 -1.7212 -1.2714 -0.8728
  908MOL0     H19832   5.605   4.912   0.052  0.9587  0.1250  0.7125
  908MOL0     H19833   5.517   4.972   0.195  0.3101  0.4490  1.2886
  908MOL0     H19834   5.555   4.680   0.134  1.5565  0.5179  0.1289
  908MOL0     H19835   5.516   4.760   0.293 -0.7484  3.1760 -0.2311
  908MOL0     H19836   5.332   4.799   0.043 -0.5287 -0.8262  0.2170
  908MOL0     H19837   5.322   4.880   0.193  0.8526  2.1081 -2.0682
  908MOL0     H19838   6.359   5.096   0.470  1.6120 -0.8099 -0.3357
  908MOL0     H19839   6.556   5.160   0.581  0.5079  1.0682 -0.9918
  908MOL0     H19840   6.837   5.308   0.702 -0.5277  1.6912  2.4721
  908MOL0     H19841   7.028   5.291   0.836 -0.0797  2.9677  3.1485
  908MOL0     H19842   8.688   5.779   0.164 -2.4711 -0.7408  0.4943
  908MOL0     H19843   8.904   5.805   0.079  1.4313  0.6948 -1.3785
  908MOL0     H19844   9.371   5.859   0.127  0.6800 -1.0960  0.2775
  908MOL0     H19845   9.591   5.869   0.043  3.0190 -1.4377 -1.1448
  908MOL0     H19846   9.887   5.767  -0.164 -0.6280  0.6706  0.3154
  908MOL0     H19847   9.811   5.809  -0.014  1.2379  1.2171 -0.2082
  908MOL0     H19848   9.712   5.949  -0.257 -0.2070  1.4773  0.1076
  908MOL0     H19849   9.708   6.007  -0.090  0.5042  0.9365 -0.3898
  908MOL0     H19850   9.957   5.987  -0.279  0.7463 -1.4260  1.1809
  908MOL0     H19851   9.972   6.019  -0.108  1.9797 -0.4658 -0.0370
  908MOL0     H19852   9.981   6.227  -0.244 -1.4074  1.9147  0.1917
  908MOL0     H19853   9.826   6.208  -0.314 -4.5155  2.6506  2.1463
  908MOL0     H19854   9.681   6.380   0.022  1.8902  1.5647  1.3727
  908MOL0     H19855   9.492   5.581  -0.254 -0.6399  1.2453 -0.8247
  908MOL0     H19856   9.265   5.569  -0.177  1.1195 -1.2999  0.3020
  909MOL0     O19857  10.106   0.806   8.300  0.4617  0.0153  0.0243
  909MOL0     C19858  10.168   0.730   8.226 -0.2487 -0.4740 -0.3212
  909MOL0     O19859  10.116   0.664   8.122  0.4787 -0.2125  0.4703
  909MOL0     C19860   9.976   0.648   8.107  0.3095  0.2450 -0.4611
  909MOL0     C19861   9.894   0.622   8.221 -0.0887  0.3906  0.5929
  909MOL0     C19862   9.751   0.611   8.194 -1.1180  0.0412 -0.0612
  909MOL0     C19863   9.696   0.626   8.070  0.1885 -1.3766 -0.3425
  909MOL0     O19864   9.559   0.620   8.082  0.3342 -0.0660 -0.5307
  909MOL0     C19865   9.485   0.546   7.976  0.5253 -0.8831 -0.0928
  909MOL0     C19866   9.357   0.477   8.037  0.8792  0.3398 -0.3462
  909MOL0     C19867   9.264   0.420   7.931 -0.6279  0.0744  0.2987
  909MOL0     C19868   9.147   0.344   7.996 -0.0802 -0.2247  0.5323
  909MOL0     C19869   9.069   0.274   7.878  0.3873  0.3119  0.0729
  909MOL0     C19870   8.936   0.217   7.922 -0.1352 -0.0786  0.4008
  909MOL0     C19871   8.826   0.318   7.953  0.4613  0.2641  0.1177
  909MOL0     C19872   8.717   0.249   8.036 -0.1517  0.3263  0.0917
  909MOL0     N19873   8.736   0.296   8.179  0.1900  0.7967 -0.2432
  909MOL0     C19874   8.811   0.229   8.269 -0.8432  0.5563 -0.1919
  909MOL0     C19875   8.812   0.307   8.379 -0.2554 -0.6073 -0.2843
  909MOL0     C19876   8.868   0.257   8.509 -0.6220  0.9290 -0.5323
  909MOL0     C19877   8.743   0.239   8.599 -0.6382  0.7613 -1.3990
  909MOL0     C19878   8.770   0.149   8.729 -0.1080 -0.1343  0.2036
  909MOL0     C19879   8.888   0.188   8.823  0.6020 -0.3225  0.9167
  909MOL0     O19880   9.005   0.129   8.765  0.5100 -0.8256 -0.3058
  909MOL0     C19881   9.110   0.188   8.832 -0.0424  0.0280  0.3055
  909MOL0     C19882   9.184   0.270   8.758 -0.2028 -0.7757 -0.2180
  909MOL0     C19883   9.292   0.333   8.817 -0.8676  0.5618 -0.3444
  909MOL0     C19884   9.346   0.292   8.939  0.3176  1.0126  0.2758
  909MOL0     C19885   9.468   0.346   8.998 -0.6862 -0.1458  0.1984
  909MOL0     O19886   9.520   0.278   9.105  0.0252  0.0664 -0.2180
  909MOL0     C19887   9.615   0.349   9.180 -1.0891 -0.1405 -0.3412
  909MOL0     C19888   9.600   0.481   9.220 -0.4338 -0.9043  0.1312
  909MOL0     C19889   9.695   0.527   9.310 -0.6715  0.3644  0.8135
  909MOL0     C19890   9.819   0.472   9.337 -0.5244  0.4732  0.9756
  909MOL0     O19891   9.903   0.544   9.419  0.0636 -0.5606  0.3111
  909MOL0     C19892  10.027   0.482   9.471  0.7622 -0.4187 -0.3977
  909MOL0     C19893  10.055   0.553   9.606 -0.2510  0.3293  0.4179
  909MOL0     C19894  10.155   0.479   9.691  0.0288 -0.4446  0.0993
  909MOL0     C19895  10.282   0.429   9.616  0.9320 -0.1348  0.2837
  909MOL0     C19896  10.374   0.366   9.718  0.4710 -0.3725 -0.2799
  909MOL0     C19897  10.454   0.255   9.650  0.1518  0.0321  0.2438
  909MOL0     C19898  10.553   0.321   9.541 -0.3000 -0.5882  0.5812
  909MOL0     C19899  10.578   0.225   9.420 -0.1767 -0.9622  0.2636
  909MOL0    Cl19900  10.655   0.072   9.468 -0.4629 -0.6241  0.3527
  909MOL0     C19901   9.830   0.342   9.298  0.7423  0.5189  0.1223
  909MOL0     C19902   9.733   0.277   9.218  0.1516 -0.4854  0.5162
  909MOL0     O19903   9.498   0.454   8.947  0.3732 -0.3461  0.5349
  909MOL0     C19904   9.273   0.194   9.007  0.3672  0.3578 -0.4193
  909MOL0     C19905   9.156   0.145   8.958  0.0912 -0.8154  0.2107
  909MOL0     N19906   8.743   0.424   8.352 -0.4896  0.4371  0.0290
  909MOL0     N19907   8.698   0.416   8.232 -0.0189  0.5899  0.4838
  909MOL0     C19908   9.774   0.655   7.961  0.9648  0.8110  0.8647
  909MOL0     C19909   9.915   0.670   7.985 -0.1101  0.0405 -0.0701
  909MOL0     C19910  10.314   0.712   8.260  0.6470 -0.3349  0.8772
  909MOL0     C19911  10.376   0.593   8.203 -0.2549 -0.4593 -0.1034
  909MOL0     C19912  10.513   0.569   8.225  0.0901 -0.6266  0.1740
  909MOL0     C19913  10.587   0.660   8.298 -0.2236  0.6920 -0.4562
  909MOL0     O19914  10.720   0.643   8.332  0.3044  0.0308  0.1380
  909MOL0     C19915  10.745   0.605   8.470 -0.0617  0.1881  0.4522
  909MOL0     C19916  10.899   0.615   8.501  0.9397 -0.1230  0.1043
  909MOL0     C19917  10.953   0.759   8.477  0.5817  1.0892  0.1500
  909MOL0     C19918  11.102   0.770   8.510 -0.3926  0.3450 -0.2117
  909MOL0     C19919  11.196   0.705   8.420  1.0364  1.1330 -0.5314
  909MOL0     C19920  11.279   0.653   8.346  0.5665  0.7529  0.0271
  909MOL0     C19921  10.525   0.780   8.340  0.2335 -0.6287 -0.0680
  909MOL0     C19922  10.392   0.810   8.325 -0.4210 -0.7683 -0.0783
  909MOL0     H19923   9.927   0.611   8.324 -2.3679 -0.6874  1.2562
  909MOL0     H19924   9.692   0.586   8.282 -1.7959 -0.3340 -0.6160
  909MOL0     H19925   9.552   0.468   7.939  1.6921 -1.0019  2.0810
  909MOL0     H19926   9.452   0.616   7.899 -0.8477 -1.9799 -0.5440
  909MOL0     H19927   9.304   0.548   8.101 -0.9594 -0.7904 -0.5425
  909MOL0     H19928   9.390   0.397   8.105 -1.9122  0.4645  1.3230
  909MOL0     H19929   9.323   0.350   7.870 -0.9645  0.3402 -0.3482
  909MOL0     H19930   9.224   0.498   7.865 -1.1742  0.6358  1.2831
  909MOL0     H19931   9.201   0.278   8.064 -1.5904  1.0752  3.1173
  909MOL0     H19932   9.091   0.424   8.045 -0.8362 -0.7431  0.5246
  909MOL0     H19933   9.123   0.188   7.836 -0.0500 -0.4986  1.1167
  909MOL0     H19934   9.047   0.349   7.801  1.0247  2.0413  1.5134
  909MOL0     H19935   8.954   0.155   8.010  1.6592 -0.0986  0.0511
  909MOL0     H19936   8.895   0.142   7.854  4.1376 -1.9295 -0.4273
  909MOL0     H19937   8.870   0.398   8.014 -0.6743  2.6303 -1.9766
  909MOL0     H19938   8.769   0.361   7.870 -1.2838 -2.2374 -0.0811
  909MOL0     H19939   8.737   0.142   8.037  0.4847  0.3879 -1.7894
  909MOL0     H19940   8.620   0.265   7.989  0.2045 -2.5761 -1.8893
  909MOL0     H19941   8.849   0.128   8.266 -0.4326  0.7226 -2.6882
  909MOL0     H19942   8.944   0.324   8.550 -1.2281  0.9570  0.5931
  909MOL0     H19943   8.919   0.163   8.489 -2.9607 -0.5141 -0.0945
  909MOL0     H19944   8.659   0.193   8.545  0.1050 -2.0692 -0.3686
  909MOL0     H19945   8.710   0.337   8.634 -3.4148 -0.7243  0.5882
  909MOL0     H19946   8.678   0.117   8.779  0.4919 -3.5617 -0.6410
  909MOL0     H19947   8.809   0.056   8.686  2.0407 -0.3217  2.2816
  909MOL0     H19948   8.865   0.137   8.917 -0.6398 -0.6440  0.4465
  909MOL0     H19949   8.900   0.296   8.838  2.2161 -0.3641  0.1772
  909MOL0     H19950   9.151   0.303   8.660  0.1583  3.5025  0.8805
  909MOL0     H19951   9.344   0.410   8.760 -1.5605  1.3624  0.0749
  909MOL0     H19952   9.510   0.539   9.201 -1.4661 -3.2468 -3.0596
  909MOL0     H19953   9.687   0.629   9.345  1.7044  1.2166 -0.8663
  909MOL0     H19954  10.112   0.501   9.404  1.2756 -1.3638 -0.0447
  909MOL0     H19955  10.013   0.379   9.504  0.2115 -0.4266 -0.6558
  909MOL0     H19956   9.963   0.573   9.661 -1.2019 -3.3262  0.4155
  909MOL0     H19957  10.103   0.646   9.575  1.2517 -1.3347 -2.7623
  909MOL0     H19958  10.105   0.394   9.738  0.6897 -0.0925  1.5075
  909MOL0     H19959  10.177   0.547   9.774 -3.2483  0.0290  0.7006
  909MOL0     H19960  10.266   0.362   9.531 -0.6172 -0.4682  0.8054
  909MOL0     H19961  10.340   0.513   9.577 -1.0669  0.7485 -0.9716
  909MOL0     H19962  10.332   0.321   9.808  0.9905  1.1556  0.7787
  909MOL0     H19963  10.439   0.448   9.751  0.8533 -0.1002 -1.6594
  909MOL0     H19964  10.399   0.177   9.596  0.7689 -0.8408  0.8534
  909MOL0     H19965  10.524   0.207   9.718  2.2570 -2.8832 -3.5437
  909MOL0     H19966  10.512   0.414   9.501  1.9634  1.2262  2.1539
  909MOL0     H19967  10.652   0.352   9.577  1.4160 -3.4645 -1.2961
  909MOL0     H19968  10.651   0.276   9.357  0.4607  0.6012  2.1456
  909MOL0     H19969  10.485   0.209   9.365 -0.5838  0.0739  0.6179
  909MOL0     H19970   9.913   0.283   9.336 -0.8057 -1.2198  0.9682
  909MOL0     H19971   9.737   0.170   9.202  0.4573 -0.7472  2.1560
  909MOL0     H19972   9.306   0.168   9.107  3.4662  0.0934 -1.3839
  909MOL0     H19973   9.090   0.075   9.007 -2.2525 -1.5889 -3.6417
  909MOL0     H19974   9.730   0.678   7.865 -0.5995 -1.6217  0.9178
  909MOL0     H19975   9.975   0.703   7.900  0.7285 -1.3251 -0.0364
  909MOL0     H19976  10.328   0.519   8.140 -0.1575  1.8757 -3.1433
  909MOL0     H19977  10.558   0.476   8.193  2.0826  0.3049  0.0919
  909MOL0     H19978  10.711   0.505   8.502  1.1754  0.6317  3.5699
  909MOL0     H19979  10.688   0.663   8.543 -3.5092 -3.3992  0.9915
  909MOL0     H19980  10.912   0.586   8.606  1.7773 -1.1435 -0.2531
  909MOL0     H19981  10.945   0.543   8.432 -0.2966 -0.6345 -0.2187
  909MOL0     H19982  10.900   0.836   8.533 -0.0653  0.8473 -0.1157
  909MOL0     H19983  10.946   0.780   8.370 -1.5294 -0.6415 -0.1246
  909MOL0     H19984  11.129   0.876   8.505 -2.9020  1.2399  2.3714
  909MOL0     H19985  11.109   0.735   8.613 -0.6315  1.2361  0.1200
  909MOL0     H19986  11.338   0.614   8.266  0.8027 -2.3717  1.5528
  909MOL0     H19987  10.587   0.854   8.389 -0.2191  0.5073 -1.1632
  909MOL0     H19988  10.351   0.904   8.359 -2.8154 -1.1929 -1.5800
  910MOL0     O19989   5.861   4.050   5.899  0.4409  0.2505 -0.8529
  910MOL0     C19990   5.826   3.945   5.841 -0.2802 -0.0080  0.8011
  910MOL0     O19991   5.901   3.863   5.753 -0.1485  0.2396 -0.7789
  910MOL0     C19992   6.033   3.874   5.761  0.4319  0.5507 -0.8412
  910MOL0     C19993   6.096   3.804   5.867 -0.3027 -0.2514 -0.3354
  910MOL0     C19994   6.241   3.813   5.869  0.5767 -0.3843  0.4658
  910MOL0     C19995   6.314   3.887   5.778  0.1973 -0.5083 -0.7346
  910MOL0     O19996   6.449   3.895   5.785 -0.4145 -0.0501  0.4693
  910MOL0     C19997   6.503   4.006   5.863  0.1153  0.4515 -0.2099
  910MOL0     C19998   6.647   3.993   5.900  0.3028  0.9504  0.0523
  910MOL0     C19999   6.745   3.984   5.780 -0.6718 -0.7571  0.3719
  910MOL0     C20000   6.894   3.988   5.831  0.8687  1.3277 -0.7408
  910MOL0     C20001   6.995   4.011   5.737  0.3213  0.6005 -0.7506
  910MOL0     C20002   7.126   3.964   5.785  0.6407 -0.5581  0.3871
  910MOL0     C20003   7.223   4.003   5.674 -0.1404  0.7971 -0.1315
  910MOL0     C20004   7.369   3.948   5.715 -0.2514 -0.0618  0.2434
  910MOL0     N20005   7.456   4.035   5.799 -0.3116 -0.3987  0.6382
  910MOL0     C20006   7.413   4.108   5.913  0.0199  0.2098 -0.0706
  910MOL0     C20007   7.520   4.158   5.974  0.5915  0.7997 -0.0284
  910MOL0     C20008   7.508   4.241   6.098  0.1188  0.8798  0.2247
  910MOL0     C20009   7.463   4.154   6.217 -0.1970 -0.3269  0.0157
  910MOL0     C20010   7.452   4.223   6.353  0.2432 -0.1320  0.2363
  910MOL0     C20011   7.363   4.349   6.342 -0.7420  0.4303  0.2023
  910MOL0     O20012   7.252   4.340   6.257 -0.1805  0.4841 -0.0320
  910MOL0     C20013   7.135   4.279   6.288 -0.8012  0.2435 -0.2564
  910MOL0     C20014   7.095   4.248   6.420  1.0036 -0.2552 -0.3073
  910MOL0     C20015   6.983   4.165   6.433 -0.0960 -0.6382  0.3606
  910MOL0     C20016   6.916   4.108   6.326 -0.6831 -0.1229  0.4814
  910MOL0     C20017   6.787   4.033   6.344 -0.5062 -0.4811  0.0483
  910MOL0     O20018   6.710   4.009   6.233 -0.2400  0.0538  0.5418
  910MOL0     C20019   6.589   3.955   6.264  0.1833 -0.6508  0.8614
  910MOL0     C20020   6.492   4.037   6.324  0.2691  0.4192  0.3946
  910MOL0     C20021   6.359   3.987   6.353 -0.3432 -0.2714 -0.6896
  910MOL0     C20022   6.328   3.857   6.323 -0.7951 -0.0474 -1.0442
  910MOL0     O20023   6.208   3.801   6.361  0.0139  0.5209 -0.0439
  910MOL0     C20024   6.149   3.686   6.296  0.0416 -0.0076 -0.6756
  910MOL0     C20025   5.992   3.702   6.312 -0.5352  0.4643  0.2078
  910MOL0     C20026   5.939   3.824   6.232  0.1186  0.7504 -0.3113
  910MOL0     C20027   5.801   3.851   6.280  0.0211  0.0513  0.1979
  910MOL0     C20028   5.752   3.991   6.257 -0.0388 -0.5351 -0.2078
  910MOL0     C20029   5.597   3.996   6.279  0.7015  0.4276 -0.4313
  910MOL0     C20030   5.537   4.131   6.279  0.4220  0.6793 -0.1183
  910MOL0     C20031   5.390   4.126   6.316 -0.6430 -0.3671  0.0468
  910MOL0    Cl20032   5.295   4.023   6.202  0.2078 -0.4950 -0.3147
  910MOL0     C20033   6.430   3.776   6.274 -0.0897 -0.5179 -0.8734
  910MOL0     C20034   6.558   3.819   6.241 -0.3297 -0.0361 -0.5281
  910MOL0     O20035   6.758   4.006   6.468  0.0651 -0.8772  0.2440
  910MOL0     C20036   6.953   4.152   6.199 -0.2339 -1.4927 -0.4060
  910MOL0     C20037   7.059   4.243   6.187  0.3814 -0.1931 -0.0596
  910MOL0     N20038   7.636   4.112   5.911 -0.0215  0.4424  0.2974
  910MOL0     N20039   7.593   4.045   5.808  0.2436  0.1382  0.0518
  910MOL0     C20040   6.240   3.969   5.688  0.1667  0.1500  0.0088
  910MOL0     C20041   6.094   3.966   5.678  0.3606 -0.1951 -0.0206
  910MOL0     C20042   5.680   3.911   5.833  0.0496  0.8325  0.7932
  910MOL0     C20043   5.578   3.996   5.879 -0.1791  0.0666  0.3133
  910MOL0     C20044   5.443   3.946   5.872 -0.1516 -0.0531 -0.2138
  910MOL0     C20045   5.399   3.825   5.817  0.6633 -0.3714  0.0893
  910MOL0     O20046   5.263   3.797   5.808 -0.2291  0.5853 -0.1841
  910MOL0     C20047   5.162   3.894   5.807  0.2093  0.0580  0.5872
  910MOL0     C20048   5.027   3.835   5.764  0.0423 -0.3355  0.3699
  910MOL0     C20049   4.939   3.943   5.691  0.3493  0.2518  0.0638
  910MOL0     C20050   4.786   3.922   5.696  0.0530 -0.3944 -0.1976
  910MOL0     C20051   4.736   3.931   5.829 -0.3185  0.1517 -0.0321
  910MOL0     C20052   4.688   3.950   5.932 -0.1540 -0.3506 -0.2763
  910MOL0     C20053   5.498   3.745   5.775 -0.0015  0.3413  0.0861
  910MOL0     C20054   5.639   3.782   5.787  0.6741 -0.9494  0.6838
  910MOL0     H20055   6.045   3.744   5.942 -0.9137 -0.6921 -1.0891
  910MOL0     H20056   6.294   3.755   5.943  1.2785  2.3560  2.2254
  910MOL0     H20057   6.445   4.011   5.956 -0.4095  4.8409 -0.5440
  910MOL0     H20058   6.491   4.100   5.807 -2.9184 -0.4522 -1.2939
  910MOL0     H20059   6.663   3.910   5.970  1.8143  0.2107 -1.1016
  910MOL0     H20060   6.667   4.083   5.958 -1.2759  2.1505 -1.1681
  910MOL0     H20061   6.720   4.070   5.719 -0.7363  1.6222  3.4746
  910MOL0     H20062   6.728   3.895   5.719  0.0847 -0.0016 -0.9803
  910MOL0     H20063   6.889   4.077   5.895  2.1592  1.2398 -0.4851
  910MOL0     H20064   6.917   3.901   5.893  2.8669  1.4249 -1.2870
  910MOL0     H20065   7.011   4.113   5.701  0.0081  0.6980 -0.6108
  910MOL0     H20066   6.966   3.959   5.645  2.8360  1.6049 -2.2328
  910MOL0     H20067   7.110   3.857   5.803  1.1667 -1.1359 -2.1891
  910MOL0     H20068   7.158   4.003   5.882 -1.6103 -1.7953  1.7258
  910MOL0     H20069   7.188   3.950   5.585 -2.2631 -0.0713  1.1575
  910MOL0     H20070   7.224   4.109   5.646  1.1527  0.3586 -1.8890
  910MOL0     H20071   7.416   3.957   5.616  0.0455  4.6017  0.5867
  910MOL0     H20072   7.356   3.848   5.758 -2.2078  0.7001  1.5600
  910MOL0     H20073   7.309   4.123   5.941  0.5183 -0.0803  2.0750
  910MOL0     H20074   7.438   4.324   6.095  1.2556  1.8479 -0.5571
  910MOL0     H20075   7.602   4.288   6.130  0.3662 -0.1371  1.0423
  910MOL0     H20076   7.540   4.078   6.226  1.5962  1.2582 -1.1252
  910MOL0     H20077   7.363   4.111   6.202 -0.8206  1.2141 -0.4712
  910MOL0     H20078   7.413   4.155   6.429 -0.7231 -3.0854 -2.6495
  910MOL0     H20079   7.554   4.251   6.384 -0.5741  2.1577  1.0441
  910MOL0     H20080   7.435   4.425   6.310  0.6537  0.1626  2.4752
  910MOL0     H20081   7.334   4.380   6.442  0.1309  1.7800  0.0750
  910MOL0     H20082   7.141   4.285   6.511 -4.4665  0.6620  2.5019
  910MOL0     H20083   6.939   4.151   6.531  0.9264 -2.9325  0.5551
  910MOL0     H20084   6.509   4.144   6.335  1.1397  0.4813 -1.1993
  910MOL0     H20085   6.277   4.046   6.392  1.1888  0.1328  2.1434
  910MOL0     H20086   6.188   3.590   6.331 -0.0449  0.0037 -0.5449
  910MOL0     H20087   6.182   3.684   6.192  2.5552 -1.5196  0.0529
  910MOL0     H20088   5.960   3.712   6.416  1.1844  3.0636  0.6014
  910MOL0     H20089   5.931   3.615   6.286  2.0485 -1.7062  0.9248
  910MOL0     H20090   5.936   3.794   6.127  0.9656 -0.0159 -0.1263
  910MOL0     H20091   6.010   3.904   6.255  0.7045 -0.0294  0.7312
  910MOL0     H20092   5.733   3.778   6.236 -0.4952  0.4396  0.3467
  910MOL0     H20093   5.793   3.838   6.388  0.1786  0.5084  0.2658
  910MOL0     H20094   5.785   4.016   6.156  2.7827 -0.7678  0.5773
  910MOL0     H20095   5.797   4.064   6.325 -0.8552 -1.1241  0.9788
  910MOL0     H20096   5.556   3.945   6.367 -2.9696 -0.4816 -2.4428
  910MOL0     H20097   5.551   3.954   6.188  1.1239  2.0877 -1.4578
  910MOL0     H20098   5.596   4.195   6.346 -1.6276  1.5906  0.8899
  910MOL0     H20099   5.542   4.166   6.176 -1.9642  0.2761 -0.4150
  910MOL0     H20100   5.360   4.230   6.330  1.2913  0.0856  1.2672
  910MOL0     H20101   5.367   4.073   6.409 -2.4995  1.1707  0.5122
  910MOL0     H20102   6.406   3.670   6.274  1.0130 -1.0300  4.2135
  910MOL0     H20103   6.648   3.764   6.216  0.5321  0.9533  0.3112
  910MOL0     H20104   6.905   4.136   6.103  0.2678  0.0738 -0.9501
  910MOL0     H20105   7.089   4.269   6.086  0.1178 -0.4848 -0.2165
  910MOL0     H20106   6.307   4.016   5.618 -0.0317 -1.9697 -1.7154
  910MOL0     H20107   6.031   4.022   5.610 -0.8619 -0.5750  0.7622
  910MOL0     H20108   5.591   4.094   5.924  3.7149 -0.8387  1.5470
  910MOL0     H20109   5.377   4.003   5.937 -1.1848  0.8998 -2.0280
  910MOL0     H20110   5.184   3.974   5.736  0.6489 -2.0352 -1.7839
  910MOL0     H20111   5.155   3.935   5.908 -1.3024  0.6253  0.2793
  910MOL0     H20112   5.031   3.758   5.686  0.8500 -1.3236  1.3668
  910MOL0     H20113   4.973   3.801   5.853 -0.1917 -1.2224 -0.0962
  910MOL0     H20114   4.977   3.945   5.589  0.8789  0.1603  0.2550
  910MOL0     H20115   4.959   4.040   5.737  2.6092  0.7591 -1.8088
  910MOL0     H20116   4.731   4.000   5.642 -1.0193 -0.9771  0.0200
  910MOL0     H20117   4.763   3.828   5.646 -1.5624  0.6441 -1.4962
  910MOL0     H20118   4.672   3.980   6.033  4.9659  2.4467  0.0348
  910MOL0     H20119   5.480   3.649   5.727  1.6676  1.0342 -2.1012
  910MOL0     H20120   5.707   3.707   5.747  1.5424  1.5264 -3.0199
  911MOL0     O20121   5.774   5.836   5.250 -0.1257 -0.9695  0.4580
  911MOL0     C20122   5.767   5.738   5.330  0.8528 -0.5378  0.4589
  911MOL0     O20123   5.657   5.667   5.358 -0.4509  0.5696 -0.6061
  911MOL0     C20124   5.560   5.698   5.265 -0.7549 -0.1833  0.7968
  911MOL0     C20125   5.541   5.605   5.165 -0.3386 -0.7140  0.1580
  911MOL0     C20126   5.443   5.635   5.064  0.4645 -0.1943 -0.7356
  911MOL0     C20127   5.357   5.747   5.070  0.3026  0.2312 -0.5489
  911MOL0     O20128   5.258   5.778   4.982 -0.5283  0.4660 -0.7193
  911MOL0     C20129   5.188   5.679   4.909  0.0011  0.2963  0.4885
  911MOL0     C20130   5.049   5.738   4.876  1.0142  0.7718 -0.1079
  911MOL0     C20131   4.962   5.742   4.996 -0.0560 -0.0411  0.3534
  911MOL0     C20132   4.917   5.611   5.037 -0.0625  1.0866 -0.4706
  911MOL0     C20133   4.797   5.614   5.142  0.4015 -0.6965 -0.5555
  911MOL0     C20134   4.782   5.475   5.211  0.1769  0.4819  0.9853
  911MOL0     C20135   4.663   5.488   5.299 -0.0360 -0.2065 -0.1090
  911MOL0     C20136   4.521   5.457   5.228  0.3878  0.5627  0.4973
  911MOL0     N20137   4.419   5.566   5.229 -0.1363 -1.0691  0.1892
  911MOL0     C20138   4.426   5.676   5.144  0.0313  0.2811 -0.8278
  911MOL0     C20139   4.305   5.739   5.165  0.3021 -0.1833  0.1057
  911MOL0     C20140   4.254   5.853   5.077  0.3342  0.1205  0.5710
  911MOL0     C20141   4.132   5.801   4.993 -0.4983 -0.4423 -0.3946
  911MOL0     C20142   4.165   5.697   4.892  0.7038  0.2356  0.7925
  911MOL0     C20143   4.068   5.693   4.780  0.1414 -0.3725 -0.3364
  911MOL0     O20144   3.938   5.687   4.828  0.3066  0.2613 -0.8047
  911MOL0     C20145   3.836   5.666   4.740 -0.0808  0.2321  0.9043
  911MOL0     C20146   3.859   5.668   4.603  0.5762  0.1814 -0.0333
  911MOL0     C20147   3.744   5.676   4.511  0.2361 -0.8541 -0.2510
  911MOL0     C20148   3.613   5.675   4.562 -0.7401  0.0313  0.8987
  911MOL0     C20149   3.508   5.678   4.464  0.6457  0.2867  0.3655
  911MOL0     O20150   3.380   5.670   4.513 -0.1102  0.1882  0.4724
  911MOL0     C20151   3.277   5.680   4.414 -0.0885 -0.2020  1.0758
  911MOL0     C20152   3.246   5.795   4.341 -0.2770 -0.2823  0.4817
  911MOL0     C20153   3.152   5.794   4.240  0.3843  0.5766  0.6296
  911MOL0     C20154   3.058   5.684   4.222 -0.4506 -0.1463  0.1017
  911MOL0     O20155   2.944   5.684   4.142 -0.2758 -0.1474  0.0952
  911MOL0     C20156   2.844   5.785   4.168  0.6739  0.3647 -0.4090
  911MOL0     C20157   2.735   5.728   4.261  0.0049 -0.1373 -0.2194
  911MOL0     C20158   2.774   5.713   4.415 -0.6205 -0.2097 -0.1686
  911MOL0     C20159   2.760   5.839   4.502 -0.5051 -0.3338 -0.0791
  911MOL0     C20160   2.807   5.799   4.642 -0.4466  0.1673 -0.1191
  911MOL0     C20161   2.960   5.785   4.653  0.5197 -0.3232  0.2735
  911MOL0     C20162   3.008   5.689   4.767  0.7684 -0.7632  0.0288
  911MOL0     C20163   3.156   5.688   4.789 -0.1800  0.4395 -0.4684
  911MOL0    Cl20164   3.188   5.568   4.920  0.4315 -0.0574  0.1587
  911MOL0     C20165   3.106   5.569   4.292 -0.0187 -0.1451 -0.4194
  911MOL0     C20166   3.207   5.569   4.382  0.8398  0.2199  1.0917
  911MOL0     O20167   3.539   5.700   4.341  0.4580  0.2588 -0.0175
  911MOL0     C20168   3.590   5.674   4.695 -0.1896 -0.4610  0.1537
  911MOL0     C20169   3.702   5.675   4.783  0.6049 -0.0386  0.3805
  911MOL0     N20170   4.244   5.683   5.272 -0.1972 -0.0452 -0.5184
  911MOL0     N20171   4.312   5.582   5.312 -0.0505  0.5521 -0.6429
  911MOL0     C20172   5.374   5.841   5.170 -0.9467  0.0864 -0.2655
  911MOL0     C20173   5.476   5.815   5.267  0.6384  1.0901 -0.4632
  911MOL0     C20174   5.898   5.699   5.398 -0.5888  0.0637 -0.5343
  911MOL0     C20175   5.901   5.596   5.494  0.1285 -0.1746  0.0067
  911MOL0     C20176   6.019   5.554   5.554 -0.4560  1.2771  0.0027
  911MOL0     C20177   6.139   5.612   5.528 -0.7994 -1.4662 -0.4814
  911MOL0     O20178   6.248   5.568   5.597 -0.2938  0.5146 -0.0478
  911MOL0     C20179   6.384   5.592   5.566 -0.6623  0.7291  0.1021
  911MOL0     C20180   6.475   5.489   5.627 -0.3962 -0.5014  0.5438
  911MOL0     C20181   6.527   5.525   5.767  0.7519 -0.6118  1.0656
  911MOL0     C20182   6.634   5.422   5.813 -0.2560  0.2991 -0.2956
  911MOL0     C20183   6.769   5.439   5.752 -0.0193 -0.1652 -0.2688
  911MOL0     C20184   6.888   5.443   5.718 -0.5679 -0.8300 -0.3270
  911MOL0     C20185   6.141   5.720   5.440  0.4994 -0.0183 -0.2473
  911MOL0     C20186   6.025   5.767   5.385 -0.2146  0.6178  0.3675
  911MOL0     H20187   5.604   5.519   5.143  0.1893 -0.4190  0.4868
  911MOL0     H20188   5.433   5.571   4.977 -2.2714 -1.9849  0.7705
  911MOL0     H20189   5.177   5.591   4.974 -1.6826 -0.3356 -0.6075
  911MOL0     H20190   5.248   5.653   4.821  1.1689 -3.1822  2.1105
  911MOL0     H20191   5.013   5.672   4.797  3.0627 -1.2400  0.5222
  911MOL0     H20192   5.044   5.838   4.833 -1.3751  0.2188 -1.2737
  911MOL0     H20193   4.876   5.803   4.964  0.8603  0.2023 -1.7655
  911MOL0     H20194   5.012   5.790   5.081  1.0268 -0.2328 -0.1637
  911MOL0     H20195   4.905   5.545   4.950  1.2258  0.6740 -0.3564
  911MOL0     H20196   5.001   5.562   5.088  0.6988  1.7210 -1.0721
  911MOL0     H20197   4.711   5.637   5.078 -0.8801 -0.9420  1.0159
  911MOL0     H20198   4.814   5.698   5.210  1.5455  1.3150 -3.1182
  911MOL0     H20199   4.864   5.453   5.280  0.8008  1.5765  0.6056
  911MOL0     H20200   4.778   5.394   5.137 -0.1689  0.4807  1.0051
  911MOL0     H20201   4.678   5.405   5.368  0.2560 -0.3354 -0.3272
  911MOL0     H20202   4.655   5.584   5.351  0.4843  0.4011 -1.0933
  911MOL0     H20203   4.479   5.360   5.255  0.2944  0.5268  0.2323
  911MOL0     H20204   4.541   5.436   5.122  1.8559  0.1753  0.8253
  911MOL0     H20205   4.506   5.707   5.078 -2.1067  1.7613 -2.8856
  911MOL0     H20206   4.331   5.893   5.010  0.5845  1.3412  1.5521
  911MOL0     H20207   4.222   5.937   5.139 -1.6619  0.0155 -0.2322
  911MOL0     H20208   4.089   5.892   4.951  1.2729  0.1174 -1.1141
  911MOL0     H20209   4.063   5.758   5.066 -0.7593 -0.9098 -0.9059
  911MOL0     H20210   4.266   5.696   4.852  0.4157 -2.0264  0.0039
  911MOL0     H20211   4.155   5.606   4.952  0.9353  1.1019  2.1907
  911MOL0     H20212   4.093   5.598   4.731 -0.8995 -1.4305  1.1283
  911MOL0     H20213   4.085   5.769   4.703 -0.0404 -0.4621 -0.4662
  911MOL0     H20214   3.958   5.677   4.559 -0.1057 -0.8203 -1.8719
  911MOL0     H20215   3.763   5.693   4.405 -2.1823  0.6859 -0.5052
  911MOL0     H20216   3.298   5.889   4.355  1.5540 -1.2971  0.7623
  911MOL0     H20217   3.130   5.884   4.183 -5.1718  0.4265  1.9720
  911MOL0     H20218   2.799   5.816   4.073 -0.4619  0.9534  0.2906
  911MOL0     H20219   2.888   5.871   4.219 -1.4355  1.2676  0.0206
  911MOL0     H20220   2.704   5.635   4.213 -2.5071  1.0286 -1.0691
  911MOL0     H20221   2.647   5.793   4.255 -0.8406 -1.3534 -3.4613
  911MOL0     H20222   2.873   5.667   4.419  0.9309  2.7812 -1.0906
  911MOL0     H20223   2.714   5.630   4.453  0.9741 -2.4860 -2.3461
  911MOL0     H20224   2.822   5.921   4.463 -0.9649  0.4316  0.7420
  911MOL0     H20225   2.662   5.884   4.484  0.5484  0.6090 -4.8606
  911MOL0     H20226   2.759   5.705   4.670 -0.2972  1.0103  3.4638
  911MOL0     H20227   2.762   5.875   4.706  0.3740  0.0559  0.6089
  911MOL0     H20228   2.991   5.890   4.663 -1.5995  0.5686 -1.6415
  911MOL0     H20229   3.004   5.741   4.563 -1.0870  0.3160 -0.8591
  911MOL0     H20230   2.954   5.706   4.861 -1.5645 -1.7740 -1.0451
  911MOL0     H20231   2.971   5.589   4.743 -0.7892 -0.7634  2.1589
  911MOL0     H20232   3.206   5.782   4.813  1.1548 -0.0114 -1.3972
  911MOL0     H20233   3.198   5.651   4.695  1.3060  0.4155  0.1782
  911MOL0     H20234   3.047   5.479   4.282  0.4022 -0.2560 -2.2994
  911MOL0     H20235   3.230   5.482   4.442 -2.1235 -0.7084  1.0115
  911MOL0     H20236   3.487   5.680   4.728 -0.6351  4.1300 -1.2515
  911MOL0     H20237   3.689   5.695   4.889 -0.0763  0.2706  0.2467
  911MOL0     H20238   5.312   5.929   5.173 -1.2672 -0.1548  0.1888
  911MOL0     H20239   5.489   5.878   5.355 -1.9015 -1.0871  1.6824
  911MOL0     H20240   5.803   5.551   5.507  0.0741 -0.1003 -0.1387
  911MOL0     H20241   6.025   5.477   5.631  1.0936  1.4234  0.0586
  911MOL0     H20242   6.411   5.692   5.601  2.4995  0.4430 -1.2362
  911MOL0     H20243   6.384   5.587   5.457 -0.3320  0.3614  0.1167
  911MOL0     H20244   6.416   5.397   5.624 -0.4052 -0.5133  1.0095
  911MOL0     H20245   6.561   5.467   5.563 -0.1944  1.9440 -0.1223
  911MOL0     H20246   6.445   5.517   5.839 -1.9394 -0.4650 -1.7793
  911MOL0     H20247   6.559   5.629   5.762 -1.5884  0.1131 -2.4338
  911MOL0     H20248   6.645   5.420   5.922  0.3318  0.5166 -0.3460
  911MOL0     H20249   6.596   5.325   5.783 -3.3703  0.8362  1.4610
  911MOL0     H20250   6.993   5.440   5.702 -0.7577 -2.6226 -1.4991
  911MOL0     H20251   6.239   5.761   5.416  1.2820 -1.2066  0.7198
  911MOL0     H20252   6.037   5.853   5.320  4.9150  0.5979  0.9019
  912MOL0     O20253   3.064   1.596   5.847  0.1318  0.0063  0.8138
  912MOL0     C20254   3.081   1.508   5.762 -0.0000 -0.1055  0.1386
  912MOL0     O20255   2.986   1.473   5.679 -0.1451  0.2558 -0.3253
  912MOL0     C20256   2.863   1.472   5.728 -0.1511  0.0085  0.0938
  912MOL0     C20257   2.824   1.406   5.847 -0.9182 -0.4794  0.2840
  912MOL0     C20258   2.692   1.418   5.898 -0.7800  0.6200  0.5543
  912MOL0     C20259   2.601   1.503   5.834 -0.0451  0.1052 -0.6760
  912MOL0     O20260   2.482   1.528   5.897  0.4410 -0.0283  0.5405
  912MOL0     C20261   2.409   1.641   5.854  0.3457  0.8435 -0.8848
  912MOL0     C20262   2.297   1.690   5.947 -0.2058 -0.1832  0.3099
  912MOL0     C20263   2.154   1.624   5.924  0.6063 -0.7428 -0.2641
  912MOL0     C20264   2.066   1.685   6.025 -0.5669 -0.2297  0.4326
  912MOL0     C20265   1.934   1.607   6.034  0.7000  0.5659  0.4227
  912MOL0     C20266   1.814   1.691   6.070  0.6956  0.0363 -0.1153
  912MOL0     C20267   1.698   1.613   6.127  0.3606 -0.1764 -0.6614
  912MOL0     C20268   1.705   1.590   6.280 -0.4050 -0.6992 -0.0040
  912MOL0     N20269   1.575   1.553   6.317  0.2345  0.6427  0.3502
  912MOL0     C20270   1.475   1.646   6.328  0.4551 -1.1432  0.0965
  912MOL0     C20271   1.366   1.571   6.342  1.0074 -0.0524  0.3441
  912MOL0     C20272   1.223   1.630   6.357 -0.9483 -1.2739 -0.0269
  912MOL0     C20273   1.164   1.691   6.230  0.0338 -0.2725  0.4581
  912MOL0     C20274   1.188   1.590   6.109  0.6773 -0.7012 -0.7228
  912MOL0     C20275   1.145   1.444   6.137  0.1453  0.1895  0.0097
  912MOL0     O20276   1.003   1.446   6.167  0.1473  0.2492  0.5499
  912MOL0     C20277   0.929   1.329   6.163  0.2563  0.8950  0.5698
  912MOL0     C20278   0.978   1.198   6.142  0.1031  0.1981 -1.4570
  912MOL0     C20279   0.901   1.089   6.132  0.3268  0.1694  0.5028
  912MOL0     C20280   0.759   1.103   6.124 -0.0510 -0.6190  0.0036
  912MOL0     C20281   0.669   0.989   6.111 -0.5085 -0.2839 -0.0440
  912MOL0     O20282   0.535   1.010   6.091 -0.3176 -0.2737 -0.1531
  912MOL0     C20283   0.451   0.905   6.049 -0.1070 -0.2186 -1.0628
  912MOL0     C20284   0.448   0.843   5.919 -0.1471 -0.5338 -0.1848
  912MOL0     C20285   0.354   0.752   5.882  0.9676 -0.2648  0.5159
  912MOL0     C20286   0.250   0.708   5.964  0.2079 -0.7026  0.8131
  912MOL0     O20287   0.175   0.596   5.920 -0.4110 -0.0176 -0.9767
  912MOL0     C20288   0.047   0.567   5.987  0.7572  0.6682  0.2526
  912MOL0     C20289  -0.024   0.455   5.895 -0.3243 -0.3554  0.3870
  912MOL0     C20290  -0.168   0.410   5.912  0.2017 -0.0082 -0.0566
  912MOL0     C20291  -0.198   0.300   5.808  0.1917  0.4798  0.4209
  912MOL0     C20292  -0.128   0.158   5.827  1.0228 -0.6082 -0.4300
  912MOL0     C20293  -0.146   0.099   5.966  0.2332  0.6408 -1.1279
  912MOL0     C20294  -0.100  -0.054   5.968  0.4648 -0.5967  0.1057
  912MOL0     C20295  -0.131  -0.114   6.099  0.1608  0.1173 -1.4985
  912MOL0    Cl20296  -0.132  -0.289   6.083 -0.4406  0.0508 -0.5893
  912MOL0     C20297   0.241   0.770   6.089  0.6019 -0.3728 -0.8585
  912MOL0     C20298   0.339   0.862   6.130 -0.5507  0.1066  0.1785
  912MOL0     O20299   0.729   0.883   6.098  1.0231  1.4756  1.0965
  912MOL0     C20300   0.709   1.230   6.146 -0.6646  0.0992  0.5274
  912MOL0     C20301   0.788   1.338   6.175  0.6021  0.4992 -0.0040
  912MOL0     N20302   1.407   1.441   6.351 -0.3555 -0.2094 -0.4883
  912MOL0     N20303   1.534   1.428   6.332  0.3026 -0.4361  0.9197
  912MOL0     C20304   2.642   1.563   5.713 -0.2778  0.9559 -0.6427
  912MOL0     C20305   2.767   1.537   5.653  0.2199  0.1779 -0.6394
  912MOL0     C20306   3.218   1.452   5.751  0.7473 -0.1373  0.4205
  912MOL0     C20307   3.326   1.532   5.791  0.4551  0.3501  0.0513
  912MOL0     C20308   3.458   1.489   5.766  0.2242 -0.5374  0.7153
  912MOL0     C20309   3.483   1.365   5.708  0.4200 -0.6508 -0.7374
  912MOL0     O20310   3.602   1.306   5.678 -0.7775 -0.0684 -0.2714
  912MOL0     C20311   3.717   1.391   5.677  0.2486 -0.0237  0.1819
  912MOL0     C20312   3.838   1.332   5.610 -0.8275 -0.4127 -0.2180
  912MOL0     C20313   3.918   1.241   5.705 -0.8427  0.2188  1.3283
  912MOL0     C20314   4.003   1.143   5.632  0.0245  0.6139  0.3141
  912MOL0     C20315   4.122   1.111   5.714 -0.0188  0.0160 -0.5974
  912MOL0     C20316   4.229   1.105   5.783  0.6772  0.5342 -0.8475
  912MOL0     C20317   3.377   1.288   5.677  0.5221  0.1243 -0.3944
  912MOL0     C20318   3.245   1.330   5.688  0.6035 -0.2860  0.2883
  912MOL0     H20319   2.903   1.355   5.902 -1.2811 -2.6497 -1.0981
  912MOL0     H20320   2.663   1.359   5.984 -1.1360 -1.4746 -0.9170
  912MOL0     H20321   2.366   1.622   5.755  0.0466 -1.8922 -0.3236
  912MOL0     H20322   2.484   1.720   5.846  4.5543 -2.7213 -0.2247
  912MOL0     H20323   2.301   1.796   5.923  2.5091 -0.0337  1.1465
  912MOL0     H20324   2.319   1.678   6.054 -3.8551 -0.2190  1.1955
  912MOL0     H20325   2.154   1.516   5.938  2.0841 -0.5687  1.5126
  912MOL0     H20326   2.113   1.650   5.826 -1.1555  0.9534  0.8627
  912MOL0     H20327   2.111   1.687   6.125  1.9352  1.1822 -0.6141
  912MOL0     H20328   2.051   1.785   5.983 -0.4715 -0.7939 -1.0007
  912MOL0     H20329   1.942   1.518   6.097  0.1039  0.2642  0.0806
  912MOL0     H20330   1.918   1.575   5.931  1.9168 -2.3389  1.0494
  912MOL0     H20331   1.776   1.743   5.982 -0.3161 -1.5311 -0.6400
  912MOL0     H20332   1.843   1.770   6.141  0.6381 -1.4555  1.6453
  912MOL0     H20333   1.605   1.670   6.115  0.7515  0.6920  0.3003
  912MOL0     H20334   1.689   1.519   6.071  2.4825  0.8128 -2.8450
  912MOL0     H20335   1.736   1.686   6.323 -0.1288  0.4922 -2.6275
  912MOL0     H20336   1.770   1.506   6.309  0.3438  0.7872  3.0090
  912MOL0     H20337   1.480   1.754   6.318  0.7532 -1.1411  0.2473
  912MOL0     H20338   1.229   1.704   6.438  2.1721 -1.3621 -0.0476
  912MOL0     H20339   1.163   1.541   6.379  0.7034 -2.4475 -0.1111
  912MOL0     H20340   1.218   1.784   6.209  0.9834 -0.8256  0.3946
  912MOL0     H20341   1.057   1.712   6.240  0.4568  3.3560 -1.1941
  912MOL0     H20342   1.124   1.624   6.027 -0.9520  2.9794  1.8218
  912MOL0     H20343   1.288   1.605   6.068  0.5073  2.4337 -0.2114
  912MOL0     H20344   1.194   1.385   6.214 -0.2313  0.3935  0.4114
  912MOL0     H20345   1.169   1.385   6.048  2.0469 -1.4127  1.5112
  912MOL0     H20346   1.086   1.184   6.142  0.2945  1.4698 -2.1955
  912MOL0     H20347   0.944   0.991   6.114  0.5860  0.6194 -1.6275
  912MOL0     H20348   0.533   0.876   5.860  1.2818 -1.8834  1.0280
  912MOL0     H20349   0.354   0.707   5.783  1.0235  1.5214 -0.3440
  912MOL0     H20350  -0.009   0.657   6.012  0.3638  0.4928  0.0142
  912MOL0     H20351   0.066   0.527   6.087  3.4225  0.7866 -0.1130
  912MOL0     H20352   0.032   0.361   5.900 -1.8449 -1.2288  2.8494
  912MOL0     H20353  -0.016   0.494   5.793  1.1300  1.6950  1.2211
  912MOL0     H20354  -0.238   0.493   5.895  1.0077  0.6970 -0.0357
  912MOL0     H20355  -0.185   0.379   6.015 -2.2276 -1.1584 -0.7245
  912MOL0     H20356  -0.306   0.281   5.804  0.6386 -2.0018 -2.2415
  912MOL0     H20357  -0.167   0.339   5.711  0.9803  0.5796  0.7082
  912MOL0     H20358  -0.026   0.156   5.787  0.2095 -3.2717 -2.6972
  912MOL0     H20359  -0.184   0.100   5.752 -1.3470  0.7828  0.1692
  912MOL0     H20360  -0.251   0.094   5.995  0.5396  2.0410  0.4266
  912MOL0     H20361  -0.100   0.166   6.041 -0.5269  0.2200 -0.2696
  912MOL0     H20362  -0.153  -0.112   5.892  3.1904 -0.5034 -2.0058
  912MOL0     H20363   0.007  -0.074   5.964  1.2035  2.2575  2.0894
  912MOL0     H20364  -0.229  -0.085   6.139  0.3668 -1.6863  0.5212
  912MOL0     H20365  -0.056  -0.084   6.173 -1.6615  0.4761  0.3062
  912MOL0     H20366   0.163   0.749   6.161  2.1280  2.5330  1.8434
  912MOL0     H20367   0.327   0.926   6.216  2.4334  2.4249 -0.9803
  912MOL0     H20368   0.603   1.251   6.136 -0.2641  0.9999 -4.8672
  912MOL0     H20369   0.742   1.435   6.184 -0.5315 -0.0822  0.6386
  912MOL0     H20370   2.581   1.636   5.662 -3.0244 -0.9807 -0.3788
  912MOL0     H20371   2.799   1.582   5.560 -1.2192  1.8206 -0.3953
  912MOL0     H20372   3.310   1.627   5.840 -2.2057  1.3258 -2.4326
  912MOL0     H20373   3.546   1.543   5.802 -0.7283  1.1971  0.5773
  912MOL0     H20374   3.729   1.411   5.784  0.4478  3.0181 -0.3228
  912MOL0     H20375   3.696   1.491   5.639  2.9946  2.1064  3.6328
  912MOL0     H20376   3.816   1.290   5.511  2.2459  0.5507 -1.4360
  912MOL0     H20377   3.898   1.421   5.586 -3.9873  1.9802  0.1778
  912MOL0     H20378   3.845   1.192   5.770 -2.2633  0.5922  0.0528
  912MOL0     H20379   3.974   1.310   5.769  1.7261 -0.0484 -0.4791
  912MOL0     H20380   3.937   1.056   5.625 -1.7850  1.8082  1.5810
  912MOL0     H20381   4.041   1.178   5.536 -0.9874 -0.6702 -0.5894
  912MOL0     H20382   4.311   1.071   5.843 -0.7422 -1.3125  0.1539
  912MOL0     H20383   3.378   1.183   5.647 -1.5192  0.7618 -3.1930
  912MOL0     H20384   3.161   1.271   5.654  0.6112  1.3181 -2.9596
  913MOL0     O20385   7.592   0.154   4.090 -0.0083  0.0697  0.1796
  913MOL0     C20386   7.682   0.121   4.013  0.6046 -0.7811 -0.0577
  913MOL0     O20387   7.695  -0.005   3.952 -0.5281 -0.0273 -0.2269
  913MOL0     C20388   7.593  -0.098   3.961 -0.5930 -0.5921  0.5428
  913MOL0     C20389   7.514  -0.126   3.851 -0.0207  0.0704 -0.0053
  913MOL0     C20390   7.415  -0.225   3.871  0.1998  0.7064  0.4493
  913MOL0     C20391   7.409  -0.304   3.989 -0.0259 -0.8365 -0.5316
  913MOL0     O20392   7.318  -0.403   4.017 -0.2175 -0.4500 -0.4212
  913MOL0     C20393   7.223  -0.441   3.911 -0.4131 -0.1740 -0.2658
  913MOL0     C20394   7.138  -0.558   3.945  1.0471 -0.2041  0.1918
  913MOL0     C20395   7.054  -0.610   3.832  0.4075 -0.6661 -0.6416
  913MOL0     C20396   7.131  -0.700   3.734 -0.7236 -0.3568 -0.1968
  913MOL0     C20397   7.036  -0.773   3.652  0.8899  0.7633  0.4711
  913MOL0     C20398   7.096  -0.868   3.544  0.0594 -0.6692 -1.0917
  913MOL0     C20399   7.004  -0.908   3.428  0.4390  0.0967 -0.3850
  913MOL0     C20400   7.075  -1.008   3.327  0.5839  0.6767  0.1730
  913MOL0     N20401   6.977  -1.064   3.228 -0.7180  0.1768 -0.3220
  913MOL0     C20402   7.008  -1.057   3.090  0.5949 -0.4681 -0.4535
  913MOL0     C20403   6.902  -1.112   3.023  0.8789 -0.3686  1.0328
  913MOL0     C20404   6.898  -1.133   2.874  0.2453  0.3783  0.3999
  913MOL0     C20405   6.868  -1.281   2.845  0.0461  0.1518 -0.3576
  913MOL0     C20406   6.859  -1.312   2.694  0.3995  0.3726 -0.5771
  913MOL0     C20407   6.742  -1.238   2.628  0.5655 -1.0911 -0.3091
  913MOL0     O20408   6.727  -1.277   2.493 -0.0446 -0.5828 -0.6220
  913MOL0     C20409   6.643  -1.378   2.457  0.5667  0.0048 -0.5892
  913MOL0     C20410   6.585  -1.474   2.551  0.3929 -0.0104 -0.3803
  913MOL0     C20411   6.480  -1.556   2.511 -0.8447  0.5819 -0.4810
  913MOL0     C20412   6.439  -1.568   2.380  0.8469  0.4160 -0.3440
  913MOL0     C20413   6.318  -1.652   2.343 -0.6743  1.1220 -0.0112
  913MOL0     O20414   6.254  -1.729   2.438 -0.1735  0.1769 -0.1809
  913MOL0     C20415   6.162  -1.814   2.387  0.1560 -0.1408  0.2616
  913MOL0     C20416   6.024  -1.805   2.425 -0.0418  0.1782  0.4713
  913MOL0     C20417   5.943  -1.906   2.373  0.6336 -0.1708 -0.8780
  913MOL0     C20418   5.985  -2.015   2.289 -0.6798  0.1376  0.2461
  913MOL0     O20419   5.886  -2.098   2.233  0.1002  0.0478  0.6328
  913MOL0     C20420   5.936  -2.220   2.198  0.7439  0.4742  0.2004
  913MOL0     C20421   5.832  -2.308   2.124  0.0150  0.2219 -0.3758
  913MOL0     C20422   5.711  -2.339   2.221  0.1280 -0.8001  0.5709
  913MOL0     C20423   5.593  -2.381   2.133  0.6081  0.3440  0.1670
  913MOL0     C20424   5.484  -2.475   2.200  0.4783  0.1931 -0.0938
  913MOL0     C20425   5.341  -2.486   2.146 -0.2007  0.2915 -0.0060
  913MOL0     C20426   5.264  -2.570   2.242  0.0120  0.2960 -0.5481
  913MOL0     C20427   5.128  -2.582   2.186  0.0715  0.7960  0.6103
  913MOL0    Cl20428   5.026  -2.717   2.271  0.0057 -0.0888  0.2106
  913MOL0     C20429   6.123  -2.023   2.265 -0.1543  0.9977 -0.2101
  913MOL0     C20430   6.204  -1.925   2.305 -0.2183 -0.2633 -0.3613
  913MOL0     O20431   6.294  -1.658   2.223 -0.3904  0.0688 -0.5640
  913MOL0     C20432   6.510  -1.489   2.281 -0.1818 -0.3014 -0.5029
  913MOL0     C20433   6.598  -1.388   2.325 -0.4707  0.2140  0.3470
  913MOL0     N20434   6.805  -1.141   3.121  1.0342  0.3401  1.0005
  913MOL0     N20435   6.852  -1.122   3.235 -0.0689  0.2494 -0.7566
  913MOL0     C20436   7.507  -0.283   4.084  0.0014 -0.0366  0.0678
  913MOL0     C20437   7.597  -0.176   4.077  0.7498  0.6169 -0.3502
  913MOL0     C20438   7.794   0.213   3.991 -0.8868 -0.5211 -0.7658
  913MOL0     C20439   7.902   0.180   3.907  0.2460  0.4518  0.0356
  913MOL0     C20440   8.003   0.267   3.879  0.1389 -0.5299 -0.6268
  913MOL0     C20441   7.998   0.398   3.932  0.0659 -0.7266 -0.2253
  913MOL0     O20442   8.095   0.491   3.906 -0.3991  0.3045 -0.2705
  913MOL0     C20443   8.165   0.547   4.023 -0.9339 -0.3473 -0.2222
  913MOL0     C20444   8.306   0.496   4.024  0.1116  0.4677  0.3117
  913MOL0     C20445   8.376   0.469   4.160  0.4792  0.2864  0.2468
  913MOL0     C20446   8.331   0.552   4.272 -0.2711  0.5067 -0.8268
  913MOL0     C20447   8.223   0.489   4.356  0.0196 -1.0637  0.2455
  913MOL0     C20448   8.123   0.439   4.410 -0.4349  0.4447  0.1655
  913MOL0     C20449   7.893   0.433   4.021  0.9272 -0.4455  0.6393
  913MOL0     C20450   7.792   0.341   4.051  1.0366  0.6976  0.0046
  913MOL0     H20451   7.522  -0.059   3.767  0.3424 -0.8792 -0.7457
  913MOL0     H20452   7.341  -0.234   3.792  0.0586  0.0720  0.6462
  913MOL0     H20453   7.285  -0.457   3.823  0.8585  1.6701  0.2432
  913MOL0     H20454   7.153  -0.360   3.890  0.2876  1.1334  2.0139
  913MOL0     H20455   7.068  -0.528   4.024  2.8152  1.3147  1.3005
  913MOL0     H20456   7.206  -0.637   3.976  1.8350 -1.2135 -3.6054
  913MOL0     H20457   6.996  -0.531   3.782 -0.1418 -1.8030 -1.8527
  913MOL0     H20458   6.970  -0.670   3.870 -1.8437  2.6794  0.1724
  913MOL0     H20459   7.205  -0.649   3.671 -0.6877 -0.3449 -0.1455
  913MOL0     H20460   7.189  -0.769   3.795  1.6958  2.4106  0.8864
  913MOL0     H20461   6.976  -0.692   3.610 -1.2364  0.8458  3.3265
  913MOL0     H20462   6.972  -0.833   3.719  2.0398  0.1476  1.0553
  913MOL0     H20463   7.111  -0.962   3.598 -2.8121  0.3712  1.8354
  913MOL0     H20464   7.185  -0.819   3.504 -1.0029  0.9932 -1.5049
  913MOL0     H20465   6.910  -0.948   3.466  0.4344 -1.0683 -1.5476
  913MOL0     H20466   6.991  -0.815   3.371 -2.4689 -0.5136 -0.8773
  913MOL0     H20467   7.115  -1.096   3.378 -2.7122 -1.6357 -0.8833
  913MOL0     H20468   7.158  -0.958   3.277  1.0028  0.7267  0.8945
  913MOL0     H20469   7.098  -1.025   3.038  0.6640  2.3074  1.1789
  913MOL0     H20470   6.994  -1.111   2.826 -0.6991 -3.1384 -3.7592
  913MOL0     H20471   6.821  -1.065   2.838 -1.1098  0.0664  2.5252
  913MOL0     H20472   6.772  -1.311   2.887  0.0820 -1.1223 -1.1099
  913MOL0     H20473   6.937  -1.360   2.876 -0.6641 -0.0425  0.7826
  913MOL0     H20474   6.965  -1.307   2.665  1.3433 -2.8277  1.6634
  913MOL0     H20475   6.834  -1.417   2.674 -3.0269  0.6612  1.4579
  913MOL0     H20476   6.760  -1.130   2.620 -2.2795 -0.6620 -3.1045
  913MOL0     H20477   6.652  -1.250   2.688  0.4342 -1.2827 -0.5412
  913MOL0     H20478   6.610  -1.467   2.656 -0.0507 -0.4807 -0.2418
  913MOL0     H20479   6.434  -1.616   2.589  2.8235  1.1735  2.4135
  913MOL0     H20480   5.985  -1.732   2.495 -0.2232  0.9466 -0.4128
  913MOL0     H20481   5.836  -1.897   2.387  0.4363 -1.3941 -1.5087
  913MOL0     H20482   5.954  -2.277   2.289  0.7831 -1.1027 -0.7623
  913MOL0     H20483   6.027  -2.211   2.137  0.6710 -1.6691 -0.2793
  913MOL0     H20484   5.876  -2.400   2.083 -2.3004  0.0909 -2.8332
  913MOL0     H20485   5.803  -2.243   2.042 -0.8391  0.3757  0.0277
  913MOL0     H20486   5.681  -2.253   2.281  0.5203 -0.1129 -0.1867
  913MOL0     H20487   5.743  -2.411   2.296  3.6211  0.1228  0.1452
  913MOL0     H20488   5.542  -2.296   2.087  2.0241  1.0457 -0.1764
  913MOL0     H20489   5.636  -2.444   2.054  1.0237  0.5757  0.2055
  913MOL0     H20490   5.471  -2.452   2.307 -2.7773 -0.9243 -0.1475
  913MOL0     H20491   5.530  -2.574   2.201 -0.1849 -0.1256  0.7290
  913MOL0     H20492   5.341  -2.534   2.048  2.9165  0.8372 -0.3884
  913MOL0     H20493   5.303  -2.384   2.136 -1.3939  0.0220  1.5244
  913MOL0     H20494   5.314  -2.667   2.251  1.1124  0.8862 -0.1562
  913MOL0     H20495   5.259  -2.524   2.341  1.5787 -0.1555 -0.2264
  913MOL0     H20496   5.136  -2.602   2.078  2.7008 -0.5660  0.9775
  913MOL0     H20497   5.073  -2.489   2.204 -2.1223 -0.3956  0.3805
  913MOL0     H20498   6.168  -2.098   2.203  0.3199  1.6394 -0.6503
  913MOL0     H20499   6.305  -1.921   2.266 -1.2888 -0.1789 -3.3440
  913MOL0     H20500   6.483  -1.502   2.177 -1.7560  0.8264 -0.2689
  913MOL0     H20501   6.637  -1.304   2.268  0.2652 -1.4451 -1.7398
  913MOL0     H20502   7.500  -0.347   4.171 -2.0342  1.6276  1.2058
  913MOL0     H20503   7.670  -0.163   4.156  2.9788  0.5554 -2.2821
  913MOL0     H20504   7.905   0.077   3.873  0.2376  0.1965  0.7899
  913MOL0     H20505   8.086   0.225   3.824  0.3078 -1.4541  0.2968
  913MOL0     H20506   8.121   0.514   4.117  3.1491  1.2904  2.5135
  913MOL0     H20507   8.151   0.655   4.018 -2.0150 -0.4782 -0.4269
  913MOL0     H20508   8.298   0.403   3.967 -3.0274 -1.2142  3.1603
  913MOL0     H20509   8.372   0.557   3.962  0.5236 -1.1385 -0.8786
  913MOL0     H20510   8.484   0.484   4.164  0.8623 -2.2463  0.7453
  913MOL0     H20511   8.364   0.363   4.183 -5.0838  1.0559  2.5581
  913MOL0     H20512   8.418   0.563   4.338 -0.2421 -1.2399 -0.5458
  913MOL0     H20513   8.308   0.654   4.239 -1.2511 -0.4453 -3.2807
  913MOL0     H20514   8.032   0.395   4.445  1.2389 -2.3627  1.2980
  913MOL0     H20515   7.892   0.533   4.061  2.3927 -0.1711  0.0592
  913MOL0     H20516   7.708   0.383   4.106  0.4910 -3.4819  2.8106
  914MOL0     O20517   9.373   8.222   7.300  0.0141 -0.2927  0.1331
  914MOL0     C20518   9.360   8.126   7.388  0.5769 -0.2717 -0.7028
  914MOL0     O20519   9.239   8.085   7.445  0.0983 -0.6051  0.3709
  914MOL0     C20520   9.129   8.148   7.396  0.7079 -0.5209  1.0543
  914MOL0     C20521   9.043   8.075   7.303  0.2819  0.4916  1.0834
  914MOL0     C20522   8.919   8.138   7.267 -0.1363  0.5062 -0.2968
  914MOL0     C20523   8.894   8.277   7.285  0.1536 -0.2212 -0.7636
  914MOL0     O20524   8.783   8.340   7.249 -0.1959  0.2685  0.3829
  914MOL0     C20525   8.702   8.298   7.139 -0.0478 -0.5021  0.0933
  914MOL0     C20526   8.577   8.389   7.128  0.2861 -0.7085  1.2348
  914MOL0     C20527   8.484   8.354   7.246  0.3444  0.0961  0.0150
  914MOL0     C20528   8.347   8.434   7.238 -0.2251  0.7991 -0.3545
  914MOL0     C20529   8.263   8.391   7.361 -0.4332  0.0091 -0.4152
  914MOL0     C20530   8.109   8.419   7.327 -0.1863 -0.1326 -0.1700
  914MOL0     C20531   8.002   8.370   7.431 -0.0047  0.0986 -0.0168
  914MOL0     C20532   8.030   8.435   7.560  0.0932  0.2585  0.4754
  914MOL0     N20533   7.940   8.390   7.670  0.6735  0.9741 -0.3860
  914MOL0     C20534   7.877   8.264   7.672  1.6851 -0.2060 -0.7189
  914MOL0     C20535   7.800   8.271   7.776  0.8764 -0.0718 -0.0884
  914MOL0     C20536   7.714   8.154   7.824  1.0212 -0.3209  0.0404
  914MOL0     C20537   7.742   8.112   7.971 -0.3181  0.7639 -0.3364
  914MOL0     C20538   7.630   8.048   8.049  0.8923  0.1074 -0.1872
  914MOL0     C20539   7.578   7.920   7.984 -0.0393  0.3979  0.5709
  914MOL0     O20540   7.438   7.910   8.010 -0.1238  0.2467  0.2872
  914MOL0     C20541   7.366   7.801   7.960  0.3334 -0.3775  0.2384
  914MOL0     C20542   7.226   7.807   7.977 -0.2872  0.0535  0.5881
  914MOL0     C20543   7.141   7.696   7.931 -0.4970 -0.8582  0.2835
  914MOL0     C20544   7.202   7.588   7.865 -0.2750  0.5781  0.2414
  914MOL0     C20545   7.135   7.467   7.816 -0.2016  0.5939 -0.2024
  914MOL0     O20546   7.194   7.351   7.816 -0.8982  0.2955 -0.4517
  914MOL0     C20547   7.123   7.237   7.814  0.5795  0.3651  0.1822
  914MOL0     C20548   7.020   7.214   7.904  0.4216  0.1451 -0.0867
  914MOL0     C20549   6.937   7.105   7.884  0.7040 -0.1062  0.4863
  914MOL0     C20550   6.954   7.018   7.771  0.4312  0.4485  0.2426
  914MOL0     O20551   6.878   6.900   7.750 -0.5297  0.0352 -0.5189
  914MOL0     C20552   6.737   6.932   7.726 -0.7175  0.3473 -0.0410
  914MOL0     C20553   6.660   6.802   7.665  0.4491  0.3700 -0.9161
  914MOL0     C20554   6.624   6.706   7.778  0.2305  0.3600  1.0681
  914MOL0     C20555   6.588   6.565   7.719  0.5793  0.1245  0.2170
  914MOL0     C20556   6.441   6.563   7.670  0.2503  0.3215  0.4408
  914MOL0     C20557   6.393   6.419   7.627  0.6930  0.1234 -0.1751
  914MOL0     C20558   6.474   6.340   7.524  0.4737  0.4703 -0.6908
  914MOL0     C20559   6.396   6.210   7.478 -0.3969 -0.6436 -0.2061
  914MOL0    Cl20560   6.376   6.098   7.610  0.3779  0.3843  0.0042
  914MOL0     C20561   7.057   7.043   7.677  0.4342  0.2865 -0.6772
  914MOL0     C20562   7.148   7.141   7.706  0.3254 -0.4193 -0.1743
  914MOL0     O20563   7.018   7.491   7.780  0.0074  0.8531  0.0093
  914MOL0     C20564   7.340   7.591   7.840 -0.5252  0.3313  0.9383
  914MOL0     C20565   7.418   7.702   7.884  0.4383 -0.2658  0.0703
  914MOL0     N20566   7.809   8.396   7.836  0.0048 -0.9145  0.4194
  914MOL0     N20567   7.899   8.464   7.776 -0.6498  0.7992 -0.3987
  914MOL0     C20568   8.985   8.345   7.368  0.0117  0.7158  0.5064
  914MOL0     C20569   9.088   8.277   7.424 -0.3003 -0.0727  0.1220
  914MOL0     C20570   9.486   8.061   7.424 -0.8729  0.2299  0.3917
  914MOL0     C20571   9.486   7.954   7.511 -0.0230 -0.8454 -0.2755
  914MOL0     C20572   9.603   7.887   7.548 -0.0068  0.9535  0.4739
  914MOL0     C20573   9.726   7.933   7.506  0.1969 -0.0907 -0.2661
  914MOL0     O20574   9.837   7.856   7.540  0.0687  0.1009  0.2207
  914MOL0     C20575   9.955   7.874   7.465 -0.7820 -0.1959  0.4602
  914MOL0     C20576   9.954   7.825   7.314 -0.0172 -0.3324 -0.5271
  914MOL0     C20577   9.938   7.667   7.307  0.5253 -0.5139  0.1896
  914MOL0     C20578   9.945   7.606   7.162 -0.8096  0.8042 -0.3234
  914MOL0     C20579   9.879   7.474   7.156  0.2058 -0.1059 -0.1352
  914MOL0     C20580   9.829   7.367   7.135  1.0249  0.5035  0.1874
  914MOL0     C20581   9.733   8.041   7.412  0.0624  0.0348 -0.1504
  914MOL0     C20582   9.613   8.103   7.373  0.7977 -0.3861  0.1646
  914MOL0     H20583   9.062   7.969   7.288 -0.7453  0.3579  0.6683
  914MOL0     H20584   8.852   8.081   7.203  1.0235 -1.3785  0.0764
  914MOL0     H20585   8.662   8.197   7.150 -0.4499 -0.3671 -0.1039
  914MOL0     H20586   8.763   8.300   7.049  0.8660  1.4235  0.6984
  914MOL0     H20587   8.545   8.371   7.025  2.0688  1.2210  0.2667
  914MOL0     H20588   8.610   8.493   7.137  0.6264 -0.9138  2.5982
  914MOL0     H20589   8.536   8.375   7.340 -0.4697  0.7054  0.3376
  914MOL0     H20590   8.456   8.249   7.233  0.1172  0.1047  0.4239
  914MOL0     H20591   8.355   8.542   7.248 -1.9399  0.8149  1.5536
  914MOL0     H20592   8.293   8.424   7.143 -1.5509  1.9165  0.2566
  914MOL0     H20593   8.299   8.446   7.448 -0.9586 -1.2659  0.6300
  914MOL0     H20594   8.271   8.285   7.384 -1.2928  0.5778  3.0267
  914MOL0     H20595   8.088   8.365   7.235  2.8990 -1.0724 -0.4486
  914MOL0     H20596   8.089   8.526   7.316  1.8371  0.3155  0.0272
  914MOL0     H20597   7.903   8.392   7.390 -0.3657  0.8251  1.1859
  914MOL0     H20598   8.013   8.261   7.439  1.7120 -0.0333 -2.5766
  914MOL0     H20599   8.018   8.542   7.546  4.9203  0.7140 -2.6032
  914MOL0     H20600   8.136   8.424   7.583 -0.0588 -0.7952  0.7300
  914MOL0     H20601   7.893   8.175   7.612  2.2806  0.3122 -1.3439
  914MOL0     H20602   7.728   8.067   7.760 -1.4569 -4.0161  3.9783
  914MOL0     H20603   7.609   8.182   7.810  0.7013 -1.1477  0.7300
  914MOL0     H20604   7.777   8.199   8.027 -0.1981  1.4182 -1.3863
  914MOL0     H20605   7.823   8.039   7.972 -1.3803 -0.4936  2.0482
  914MOL0     H20606   7.675   8.018   8.144  1.5807  1.1137 -0.1784
  914MOL0     H20607   7.563   8.131   8.072  1.5354  0.4896  0.3375
  914MOL0     H20608   7.632   7.833   8.023 -0.0518  0.3280  0.4316
  914MOL0     H20609   7.591   7.917   7.875 -0.1473 -2.2150  0.5645
  914MOL0     H20610   7.188   7.897   8.025 -0.5717  1.0227 -1.3272
  914MOL0     H20611   7.033   7.699   7.939 -0.5460  5.8160  2.8839
  914MOL0     H20612   7.014   7.272   7.995 -1.0100  1.7371 -1.1381
  914MOL0     H20613   6.861   7.081   7.958  0.1633  0.8673  0.2695
  914MOL0     H20614   6.717   7.015   7.658 -2.0486  0.3839  0.3686
  914MOL0     H20615   6.682   6.968   7.813 -0.4841 -1.4192  0.8881
  914MOL0     H20616   6.721   6.755   7.587 -0.2836 -4.8582  1.2765
  914MOL0     H20617   6.566   6.838   7.622  0.5983  1.4986 -0.3359
  914MOL0     H20618   6.542   6.752   7.834 -1.8540  1.7476 -2.7802
  914MOL0     H20619   6.706   6.679   7.845 -0.4532 -2.0611  1.0332
  914MOL0     H20620   6.660   6.540   7.640  0.3304  1.3418 -0.4184
  914MOL0     H20621   6.585   6.496   7.804 -1.3401  0.6996  0.6654
  914MOL0     H20622   6.420   6.625   7.582 -1.4482  0.7564  1.1017
  914MOL0     H20623   6.378   6.606   7.748  2.0614 -0.3453  2.3560
  914MOL0     H20624   6.294   6.437   7.583  1.9238  1.7861 -2.4726
  914MOL0     H20625   6.381   6.352   7.712  2.5808 -1.6106 -1.1887
  914MOL0     H20626   6.499   6.394   7.432  1.5402  0.8016 -0.2149
  914MOL0     H20627   6.567   6.310   7.572 -1.4425  0.6936  3.6763
  914MOL0     H20628   6.439   6.170   7.386 -0.7605 -1.2759 -0.1138
  914MOL0     H20629   6.294   6.247   7.460 -0.0905  1.2022  1.5454
  914MOL0     H20630   7.065   6.969   7.598  1.2935 -1.0294  0.5781
  914MOL0     H20631   7.230   7.167   7.640  2.1278 -1.9442  1.3310
  914MOL0     H20632   7.382   7.517   7.773 -0.4063  1.9447 -0.8718
  914MOL0     H20633   7.526   7.691   7.873  0.4383 -1.4454  0.9984
  914MOL0     H20634   8.960   8.450   7.379  1.8945  1.9600 -4.5482
  914MOL0     H20635   9.139   8.331   7.502 -3.0553  2.5068  0.3452
  914MOL0     H20636   9.386   7.926   7.545 -1.0354  0.9156 -1.6245
  914MOL0     H20637   9.602   7.801   7.613  0.0409  0.8893  0.3897
  914MOL0     H20638  10.035   7.815   7.510  1.6748  2.7477  0.2020
  914MOL0     H20639   9.988   7.978   7.465  0.5448 -0.5799  2.1091
  914MOL0     H20640   9.865   7.873   7.272 -0.1165  1.0673  1.2010
  914MOL0     H20641  10.039   7.850   7.250  0.3503  0.8443  0.3916
  914MOL0     H20642   9.842   7.650   7.355  0.1275  2.1473  0.4959
  914MOL0     H20643  10.025   7.627   7.361  2.5330 -0.5816 -2.8376
  914MOL0     H20644   9.909   7.676   7.086  0.1632 -0.6079 -2.1779
  914MOL0     H20645  10.052   7.597   7.144 -0.6726  1.7091 -0.0122
  914MOL0     H20646   9.799   7.265   7.119  0.6315  0.5948  0.3433
  914MOL0     H20647   9.824   8.091   7.379  0.1194  0.2348  0.3026
  914MOL0     H20648   9.628   8.183   7.301  3.0164 -1.8014 -1.0864
  915MOL0     O20649   1.957   8.148   5.458 -0.0697 -0.1677  0.6497
  915MOL0     C20650   1.950   8.263   5.494  0.0363 -0.1437  0.8251
  915MOL0     O20651   1.854   8.345   5.464  0.0308  0.0743  0.1234
  915MOL0     C20652   1.737   8.295   5.406  0.0261 -0.2647  0.0288
  915MOL0     C20653   1.663   8.208   5.492 -0.4811  0.1019  0.0583
  915MOL0     C20654   1.549   8.146   5.437  1.0610  0.0612  0.0550
  915MOL0     C20655   1.504   8.160   5.303 -0.2598  0.1717  0.7526
  915MOL0     O20656   1.401   8.086   5.262 -0.1674  0.0177 -0.6449
  915MOL0     C20657   1.268   8.129   5.293 -0.6677 -0.2452  0.5089
  915MOL0     C20658   1.208   8.023   5.381 -0.4829  0.4538  0.2409
  915MOL0     C20659   1.182   7.896   5.319  0.2950  0.4525  1.3402
  915MOL0     C20660   1.079   7.814   5.396 -0.4976  0.3528  0.0358
  915MOL0     C20661   0.973   7.734   5.314 -0.6078 -0.0697  0.0425
  915MOL0     C20662   0.888   7.641   5.403 -0.3729 -0.6926 -0.6233
  915MOL0     C20663   0.790   7.564   5.309  0.3494  0.2229 -0.1436
  915MOL0     C20664   0.674   7.510   5.389 -0.2755  0.0609  0.0919
  915MOL0     N20665   0.626   7.384   5.330 -0.0459 -0.1653 -0.5133
  915MOL0     C20666   0.549   7.288   5.403 -0.0840  0.2587 -0.9477
  915MOL0     C20667   0.541   7.181   5.317 -0.4314  0.1608 -1.0304
  915MOL0     C20668   0.485   7.042   5.328  0.1502  0.1223  0.6888
  915MOL0     C20669   0.337   7.043   5.283  0.3656 -0.0169 -0.0398
  915MOL0     C20670   0.278   6.900   5.275  0.4094 -0.3806  1.2435
  915MOL0     C20671   0.143   6.897   5.224  0.4439  0.5267  0.3462
  915MOL0     O20672   0.135   6.937   5.085  0.1479 -0.0818 -0.5713
  915MOL0     C20673   0.008   6.929   5.028  0.3355  0.6323 -0.4968
  915MOL0     C20674   0.003   6.952   4.893  0.3508  0.3312  0.5643
  915MOL0     C20675  -0.121   6.951   4.822  0.1910  0.4341  0.0256
  915MOL0     C20676  -0.234   6.906   4.891  0.1562  0.0804  0.8689
  915MOL0     C20677  -0.349   6.889   4.808 -0.2469 -0.2064  0.6015
  915MOL0     O20678  -0.456   6.819   4.870 -0.5794 -0.0242  0.1853
  915MOL0     C20679  -0.571   6.789   4.797  1.0131 -0.8974  0.4803
  915MOL0     C20680  -0.593   6.789   4.657 -0.7055 -0.9044 -0.0823
  915MOL0     C20681  -0.713   6.781   4.607 -0.7630  1.5970 -0.1714
  915MOL0     C20682  -0.828   6.751   4.686  0.0652  1.2420 -0.1880
  915MOL0     O20683  -0.952   6.719   4.635  0.0688 -0.6864 -0.7839
  915MOL0     C20684  -0.962   6.700   4.490 -0.7758 -0.4866  0.6154
  915MOL0     C20685  -1.092   6.631   4.452 -0.4559  0.6794 -0.4723
  915MOL0     C20686  -1.111   6.489   4.507 -0.5023 -0.1587  1.1159
  915MOL0     C20687  -1.234   6.413   4.455 -0.8132  0.5314 -1.0130
  915MOL0     C20688  -1.240   6.401   4.302 -0.4777 -0.1877  0.0513
  915MOL0     C20689  -1.378   6.336   4.263  0.2115  0.9184  0.2692
  915MOL0     C20690  -1.401   6.190   4.309  0.3638  0.6520  0.3063
  915MOL0     C20691  -1.551   6.164   4.319  0.1454  0.5978 -0.5408
  915MOL0    Cl20692  -1.586   5.995   4.394  0.3483 -0.0457 -0.2253
  915MOL0     C20693  -0.811   6.740   4.824  0.2048  0.2699 -0.4037
  915MOL0     C20694  -0.683   6.762   4.878  0.0843 -0.6384 -0.8126
  915MOL0     O20695  -0.354   6.929   4.690  0.5741  0.7723 -0.0260
  915MOL0     C20696  -0.227   6.861   5.022  0.9055 -0.1776 -0.3556
  915MOL0     C20697  -0.110   6.883   5.092 -0.3512 -0.0088 -0.4476
  915MOL0     N20698   0.613   7.218   5.195  0.6946  0.5238  0.3588
  915MOL0     N20699   0.659   7.336   5.204  0.5220 -0.1371  0.5058
  915MOL0     C20700   1.571   8.252   5.224 -0.5557  0.2248  0.7757
  915MOL0     C20701   1.690   8.314   5.272  0.2309  0.6276  0.5857
  915MOL0     C20702   2.076   8.310   5.561  0.7262 -0.8506  0.4091
  915MOL0     C20703   2.194   8.236   5.576  0.3225 -0.6974  0.4528
  915MOL0     C20704   2.301   8.284   5.645  0.2625  0.3024 -0.2351
  915MOL0     C20705   2.303   8.419   5.692  0.5739 -0.9203  0.1773
  915MOL0     O20706   2.414   8.478   5.752 -0.1513  0.1277 -0.6693
  915MOL0     C20707   2.539   8.404   5.768  0.2741 -0.0313  0.1749
  915MOL0     C20708   2.627   8.413   5.642  0.3259  0.2654 -0.7629
  915MOL0     C20709   2.753   8.327   5.651  0.1885 -0.0509 -0.9016
  915MOL0     C20710   2.841   8.345   5.780 -0.5088 -0.2213  0.4565
  915MOL0     C20711   2.964   8.276   5.768 -0.5130 -0.3715  0.0917
  915MOL0     C20712   3.067   8.215   5.738 -0.1471  0.0044  0.1357
  915MOL0     C20713   2.191   8.500   5.676 -0.3885  1.0436 -1.2142
  915MOL0     C20714   2.077   8.447   5.611  0.3634  0.3727 -0.2129
  915MOL0     H20715   1.697   8.196   5.594 -1.6713 -0.0874  0.4450
  915MOL0     H20716   1.510   8.069   5.503  0.7618 -1.0038 -1.2939
  915MOL0     H20717   1.213   8.145   5.200  1.9978  0.2751 -1.0817
  915MOL0     H20718   1.273   8.218   5.356  0.5260 -1.4843  2.2722
  915MOL0     H20719   1.122   8.063   5.436  0.2842  0.7668  1.2420
  915MOL0     H20720   1.274   8.012   5.467  1.7951 -3.6491 -1.7382
  915MOL0     H20721   1.272   7.837   5.300 -0.0154  0.1608  0.7344
  915MOL0     H20722   1.151   7.917   5.216  0.9785 -0.8829  0.8399
  915MOL0     H20723   1.134   7.744   5.460 -2.2659 -0.9284  0.2331
  915MOL0     H20724   1.026   7.880   5.465  0.5458  1.0725  0.1826
  915MOL0     H20725   1.023   7.666   5.245  0.1927 -0.8010  1.3019
  915MOL0     H20726   0.905   7.803   5.264 -0.5117  0.5910  0.7908
  915MOL0     H20727   0.839   7.706   5.476  0.6920 -2.6669  2.0166
  915MOL0     H20728   0.950   7.566   5.452  2.3142  0.8885 -1.3605
  915MOL0     H20729   0.750   7.633   5.235 -1.2537 -1.0645 -0.5377
  915MOL0     H20730   0.846   7.496   5.244  0.3503 -0.6084  0.6953
  915MOL0     H20731   0.600   7.591   5.394  1.9170  2.1678  0.2899
  915MOL0     H20732   0.706   7.491   5.492  0.9051 -0.0925 -0.2899
  915MOL0     H20733   0.523   7.290   5.508 -0.2116  2.4382 -0.9768
  915MOL0     H20734   0.485   6.999   5.429 -0.3183 -2.3084 -0.2782
  915MOL0     H20735   0.546   6.981   5.262  2.3110  2.0230  0.8083
  915MOL0     H20736   0.326   7.101   5.191  2.2016 -1.0532 -0.9594
  915MOL0     H20737   0.275   7.088   5.361 -0.3299 -1.3383  0.1984
  915MOL0     H20738   0.341   6.857   5.196 -0.2689  0.5011  0.1815
  915MOL0     H20739   0.301   6.845   5.366  0.0018 -0.5780  1.2276
  915MOL0     H20740   0.085   6.960   5.292  1.0943 -0.0628  1.4816
  915MOL0     H20741   0.120   6.790   5.232  1.4230  0.4135  2.2078
  915MOL0     H20742   0.090   6.995   4.844 -0.8924  1.9964 -0.3189
  915MOL0     H20743  -0.128   6.991   4.721  1.5517 -1.8310 -1.0357
  915MOL0     H20744  -0.511   6.793   4.586  0.3928 -1.0405  1.1241
  915MOL0     H20745  -0.729   6.776   4.500 -3.1092 -0.7384  0.1852
  915MOL0     H20746  -0.887   6.638   4.439 -2.5557 -3.0972  0.9319
  915MOL0     H20747  -0.954   6.800   4.447  3.0749 -0.0507  1.9746
  915MOL0     H20748  -1.093   6.631   4.343 -0.0207  1.1419 -0.4805
  915MOL0     H20749  -1.180   6.685   4.487 -1.1519 -0.4029 -0.5019
  915MOL0     H20750  -1.107   6.504   4.615  0.8089  2.0896  0.8056
  915MOL0     H20751  -1.018   6.434   4.489 -0.8001  0.2300 -2.4779
  915MOL0     H20752  -1.218   6.314   4.498  1.2193  1.6313  0.9851
  915MOL0     H20753  -1.320   6.467   4.494 -0.0994  0.4576  0.7642
  915MOL0     H20754  -1.158   6.335   4.273  0.4762 -0.4850  3.1260
  915MOL0     H20755  -1.224   6.490   4.239 -0.8772 -0.0952  0.0780
  915MOL0     H20756  -1.393   6.342   4.155 -1.8665 -1.5079  0.3280
  915MOL0     H20757  -1.459   6.399   4.302  0.6419  0.8261  1.3445
  915MOL0     H20758  -1.368   6.114   4.238 -0.2312  0.1090  0.6002
  915MOL0     H20759  -1.373   6.182   4.415 -0.8315  0.7652  0.6374
  915MOL0     H20760  -1.599   6.154   4.221  0.6872 -0.0717 -0.7474
  915MOL0     H20761  -1.600   6.245   4.373 -1.4376 -0.5835 -0.1127
  915MOL0     H20762  -0.892   6.706   4.888  1.8790  0.2817  1.8662
  915MOL0     H20763  -0.690   6.761   4.986  0.1592 -1.5898 -0.8126
  915MOL0     H20764  -0.314   6.812   5.065  1.6707 -0.8694  0.4322
  915MOL0     H20765  -0.111   6.845   5.194 -0.3333 -2.0727 -1.1805
  915MOL0     H20766   1.543   8.265   5.120  3.0681 -0.4666 -0.4290
  915MOL0     H20767   1.738   8.388   5.209  0.6849 -0.1896 -0.0389
  915MOL0     H20768   2.199   8.137   5.533  0.6289 -1.4752  2.1836
  915MOL0     H20769   2.392   8.226   5.646 -0.1150 -0.3226 -1.0842
  915MOL0     H20770   2.518   8.301   5.798  1.5888 -0.4111 -0.1823
  915MOL0     H20771   2.596   8.442   5.854  0.5607 -0.4886  0.1876
  915MOL0     H20772   2.561   8.388   5.558 -1.1359  1.0592  0.0957
  915MOL0     H20773   2.663   8.515   5.628  0.6997 -0.0224 -1.9311
  915MOL0     H20774   2.806   8.334   5.555 -2.4548  3.4163 -2.3360
  915MOL0     H20775   2.712   8.226   5.655 -4.0232  1.4479 -1.1392
  915MOL0     H20776   2.845   8.454   5.775 -1.7434 -0.1809  0.1400
  915MOL0     H20777   2.791   8.310   5.871  1.1992  0.4399  1.7056
  915MOL0     H20778   3.166   8.180   5.717 -0.2538  0.2514 -0.8498
  915MOL0     H20779   2.195   8.594   5.729  1.0638  0.9618 -1.1530
  915MOL0     H20780   1.991   8.514   5.607  1.9884  2.6818 -5.6887
  916MOL0     O20781   0.934   4.798   2.898 -0.1957 -0.1188  0.0615
  916MOL0     C20782   0.983   4.714   2.823 -0.3109 -0.0283  0.2785
  916MOL0     O20783   0.919   4.639   2.735 -0.6332 -0.5472  0.3983
  916MOL0     C20784   0.783   4.628   2.747 -0.3280  0.9814 -0.1888
  916MOL0     C20785   0.732   4.546   2.843 -0.4921  0.2281 -0.0623
  916MOL0     C20786   0.594   4.530   2.863  0.8251  0.5297  0.4343
  916MOL0     C20787   0.500   4.589   2.777  0.1602  0.3523 -0.8909
  916MOL0     O20788   0.366   4.585   2.814 -0.4121 -0.3785 -0.2982
  916MOL0     C20789   0.265   4.628   2.726  0.6366 -0.2082 -0.0636
  916MOL0     C20790   0.133   4.567   2.776 -0.3780 -0.1826 -0.3747
  916MOL0     C20791   0.015   4.643   2.717  0.2134  0.2238  0.3004
  916MOL0     C20792  -0.120   4.567   2.722 -0.9341 -0.5241  0.1668
  916MOL0     C20793  -0.241   4.652   2.694  0.4146  0.5269 -0.4487
  916MOL0     C20794  -0.370   4.576   2.704  0.8154  0.7526 -0.6879
  916MOL0     C20795  -0.490   4.676   2.698 -0.5218 -0.3545 -0.6179
  916MOL0     C20796  -0.634   4.608   2.704 -0.5988  0.4300  0.0492
  916MOL0     N20797  -0.734   4.713   2.672  0.7050  0.5270  0.2121
  916MOL0     C20798  -0.839   4.757   2.752 -0.4212 -0.5681  0.4571
  916MOL0     C20799  -0.933   4.809   2.671  0.9052  0.1218  0.0017
  916MOL0     C20800  -1.066   4.861   2.719  0.2855 -0.2078  0.7112
  916MOL0     C20801  -1.177   4.864   2.609  0.2910 -0.2621  0.3346
  916MOL0     C20802  -1.239   4.720   2.598  0.2626  0.5610  0.9759
  916MOL0     C20803  -1.328   4.701   2.469  0.1359 -0.4061  0.0141
  916MOL0     O20804  -1.454   4.771   2.503  0.2259 -0.3325  0.1485
  916MOL0     C20805  -1.566   4.743   2.435 -0.1526 -0.3302 -0.3482
  916MOL0     C20806  -1.581   4.647   2.337 -0.3657  1.6236  0.5671
  916MOL0     C20807  -1.708   4.611   2.276  0.0028 -0.3055 -0.9601
  916MOL0     C20808  -1.818   4.689   2.317  0.9354 -0.0864  0.0580
  916MOL0     C20809  -1.944   4.673   2.264 -0.4983 -0.7098  0.6013
  916MOL0     O20810  -2.031   4.781   2.291 -0.5325 -0.2865 -0.0139
  916MOL0     C20811  -2.152   4.787   2.226 -0.0904  0.0276  0.7241
  916MOL0     C20812  -2.205   4.910   2.201 -0.0361  0.1432 -0.5939
  916MOL0     C20813  -2.339   4.932   2.163 -0.6363 -1.0799  0.5814
  916MOL0     C20814  -2.435   4.831   2.160 -0.1776 -0.2594 -0.0194
  916MOL0     O20815  -2.573   4.855   2.136 -0.0835  0.3399  0.2738
  916MOL0     C20816  -2.665   4.739   2.128  0.7541 -0.6596  0.3909
  916MOL0     C20817  -2.805   4.785   2.105 -0.0500  0.2900  0.2036
  916MOL0     C20818  -2.904   4.678   2.107  0.6374  1.1473 -0.6597
  916MOL0     C20819  -3.039   4.746   2.102 -0.0090  0.6896  0.6776
  916MOL0     C20820  -3.147   4.641   2.082 -0.4176 -0.1110  1.0496
  916MOL0     C20821  -3.281   4.699   2.129  0.3833  0.6352 -0.1121
  916MOL0     C20822  -3.408   4.618   2.086 -0.0837  0.0072  0.0390
  916MOL0     C20823  -3.417   4.612   1.928 -0.2004 -0.0167 -0.1674
  916MOL0    Cl20824  -3.572   4.545   1.871 -0.0745  0.0724  0.4985
  916MOL0     C20825  -2.382   4.705   2.189  0.1841 -0.1816  1.0239
  916MOL0     C20826  -2.243   4.688   2.229  0.3910 -0.5558  0.4876
  916MOL0     O20827  -1.961   4.579   2.185  0.3224  0.5774 -0.3082
  916MOL0     C20828  -1.804   4.780   2.431 -0.7883 -0.4554 -0.1096
  916MOL0     C20829  -1.680   4.807   2.490 -0.3580  0.4930  0.2849
  916MOL0     N20830  -0.900   4.782   2.546 -0.3362  0.0734 -0.1805
  916MOL0     N20831  -0.777   4.733   2.545  0.6609 -0.7172  0.9793
  916MOL0     C20832   0.554   4.653   2.667  0.5452 -1.0616  0.2533
  916MOL0     C20833   0.691   4.669   2.652 -0.5694 -1.0840 -0.0412
  916MOL0     C20834   1.135   4.697   2.833  0.4859  0.0765 -0.0881
  916MOL0     C20835   1.219   4.651   2.734 -0.2707 -0.4640  0.3009
  916MOL0     C20836   1.357   4.664   2.759  0.8573 -0.3786  0.7133
  916MOL0     C20837   1.412   4.721   2.877  0.4741  0.2853 -0.7496
  916MOL0     O20838   1.553   4.723   2.881 -0.5665  0.3250 -0.1794
  916MOL0     C20839   1.609   4.822   2.962  0.1407  0.1622 -0.5822
  916MOL0     C20840   1.760   4.786   2.965  0.6907 -0.5485 -0.0094
  916MOL0     C20841   1.837   4.771   2.828  0.0426 -0.7793 -0.2216
  916MOL0     C20842   1.872   4.909   2.778  0.2354  0.1740  0.0163
  916MOL0     C20843   1.986   4.960   2.866  0.6056 -0.2386 -0.0653
  916MOL0     C20844   2.083   4.993   2.933  0.0454  0.2355  1.0087
  916MOL0     C20845   1.325   4.761   2.981 -0.7539  0.8233  0.2433
  916MOL0     C20846   1.190   4.753   2.958  0.1287  0.0576  0.3081
  916MOL0     H20847   0.788   4.483   2.911  1.4007  1.3691 -0.4646
  916MOL0     H20848   0.551   4.456   2.929  3.5946  0.3556  2.1587
  916MOL0     H20849   0.281   4.587   2.626  1.1764 -2.1662  0.7706
  916MOL0     H20850   0.256   4.737   2.718  2.0608 -0.1275 -1.1811
  916MOL0     H20851   0.121   4.570   2.885 -0.4265  0.7913 -0.4012
  916MOL0     H20852   0.128   4.465   2.738 -2.5138  1.1242 -4.1411
  916MOL0     H20853   0.036   4.658   2.611  0.8665  1.4713  0.5785
  916MOL0     H20854   0.011   4.737   2.773 -0.7510  0.5714 -0.3381
  916MOL0     H20855  -0.120   4.494   2.640 -3.3468 -0.6897  0.2401
  916MOL0     H20856  -0.140   4.520   2.818 -0.6270  0.7732  0.8804
  916MOL0     H20857  -0.233   4.688   2.590  2.6813  0.3423 -0.3845
  916MOL0     H20858  -0.228   4.737   2.761 -2.5953  0.3053  0.5814
  916MOL0     H20859  -0.376   4.520   2.798 -1.3590  1.7953 -0.1275
  916MOL0     H20860  -0.363   4.504   2.622 -1.0134 -1.0123  0.6089
  916MOL0     H20861  -0.472   4.756   2.771  0.5455 -1.2375  0.1340
  916MOL0     H20862  -0.476   4.729   2.604 -1.3902 -1.0440 -1.1417
  916MOL0     H20863  -0.641   4.575   2.808 -2.2607  0.5401 -0.0043
  916MOL0     H20864  -0.635   4.518   2.642  1.8827 -0.0193  0.5147
  916MOL0     H20865  -0.834   4.765   2.860 -0.3642 -0.5772  0.4550
  916MOL0     H20866  -1.038   4.959   2.759  0.2056 -0.4858  1.4549
  916MOL0     H20867  -1.099   4.789   2.795 -0.5773 -0.4462  0.1167
  916MOL0     H20868  -1.127   4.902   2.519 -1.0220  1.4434  0.2785
  916MOL0     H20869  -1.261   4.932   2.625 -0.5988 -1.4579  0.9809
  916MOL0     H20870  -1.158   4.647   2.600 -0.9489 -0.8317  1.5502
  916MOL0     H20871  -1.288   4.695   2.692  1.2248  1.4673  1.7405
  916MOL0     H20872  -1.348   4.593   2.462 -2.1667 -0.0059 -0.4929
  916MOL0     H20873  -1.275   4.747   2.385 -0.1824  1.2269  0.6744
  916MOL0     H20874  -1.497   4.584   2.310 -0.6053  2.0854 -1.3991
  916MOL0     H20875  -1.718   4.538   2.196 -0.8008 -0.3329 -0.8402
  916MOL0     H20876  -2.144   5.000   2.197  1.1696 -0.6957 -1.6640
  916MOL0     H20877  -2.388   5.025   2.139 -0.2179 -1.1814 -0.7345
  916MOL0     H20878  -2.647   4.670   2.211  2.7896 -1.6307 -0.7700
  916MOL0     H20879  -2.635   4.679   2.041  2.1591 -0.3425  0.6178
  916MOL0     H20880  -2.803   4.830   2.005 -1.2428  0.4882  0.2441
  916MOL0     H20881  -2.838   4.864   2.173 -0.1552  0.4901 -0.0756
  916MOL0     H20882  -2.904   4.624   2.202 -0.3776  1.6043 -0.3886
  916MOL0     H20883  -2.879   4.610   2.025 -0.3774  0.0882 -0.1048
  916MOL0     H20884  -3.059   4.795   2.197 -1.9839  1.9511 -0.3232
  916MOL0     H20885  -3.035   4.814   2.017 -1.5965 -1.6880 -1.4628
  916MOL0     H20886  -3.122   4.541   2.119 -2.7979 -0.6583  1.3862
  916MOL0     H20887  -3.146   4.624   1.974 -0.3526  1.1628  0.8355
  916MOL0     H20888  -3.286   4.792   2.072  1.0839  0.8541  0.1659
  916MOL0     H20889  -3.294   4.730   2.234 -1.8589  0.7231 -0.3624
  916MOL0     H20890  -3.420   4.514   2.118  0.6414 -0.4292 -1.0205
  916MOL0     H20891  -3.497   4.665   2.130  0.9991 -1.7391  4.6454
  916MOL0     H20892  -3.333   4.555   1.885  2.3344  2.1488  1.5422
  916MOL0     H20893  -3.409   4.714   1.890  1.9400 -0.2423 -0.4697
  916MOL0     H20894  -2.453   4.626   2.210 -3.3209  1.4066 -3.4736
  916MOL0     H20895  -2.212   4.590   2.264  2.0712 -0.8969 -1.6884
  916MOL0     H20896  -1.889   4.838   2.466 -0.9099 -0.3582 -0.5651
  916MOL0     H20897  -1.662   4.894   2.553  0.1370  1.5391 -1.2370
  916MOL0     H20898   0.486   4.701   2.598 -1.4418  0.7318  3.2048
  916MOL0     H20899   0.736   4.708   2.562 -1.6548 -1.7417 -0.8826
  916MOL0     H20900   1.173   4.609   2.646 -2.0873 -1.3561  1.6104
  916MOL0     H20901   1.409   4.633   2.669  0.5018  0.3471  0.2431
  916MOL0     H20902   1.572   4.822   3.065 -0.4459  1.9162 -0.7644
  916MOL0     H20903   1.591   4.921   2.920 -0.8914  1.4173  2.5163
  916MOL0     H20904   1.808   4.845   3.043 -0.4334  0.3276  0.0391
  916MOL0     H20905   1.754   4.685   3.007 -1.6268 -0.1966  0.6319
  916MOL0     H20906   1.774   4.720   2.755 -0.9463  0.8788 -0.5741
  916MOL0     H20907   1.934   4.724   2.844  0.9208  1.5939  2.1645
  916MOL0     H20908   1.893   4.897   2.671 -0.3101 -2.8643  0.1437
  916MOL0     H20909   1.786   4.977   2.784 -0.0947 -0.2243 -0.1020
  916MOL0     H20910   2.163   5.006   3.003 -0.2972 -0.0766  1.4664
  916MOL0     H20911   1.361   4.787   3.080 -0.9837  1.3190  0.1959
  916MOL0     H20912   1.140   4.795   3.044  0.1191  0.5542  0.0645
  917MOL0     O20913   7.690  10.274  10.923  0.4556  0.3722  0.1114
  917MOL0     C20914   7.693  10.320  11.036  0.0892 -0.4551  0.6233
  917MOL0     O20915   7.593  10.325  11.124 -0.4735 -0.2409  0.7271
  917MOL0     C20916   7.465  10.275  11.103  0.0198 -0.0926  0.9011
  917MOL0     C20917   7.440  10.151  11.038  0.0039 -0.1681  1.3450
  917MOL0     C20918   7.320  10.083  11.042  0.3246  0.1353  0.5500
  917MOL0     C20919   7.214  10.128  11.112  0.0446 -1.7117 -0.3323
  917MOL0     O20920   7.096  10.059  11.117 -0.2324  0.4775 -0.1883
  917MOL0     C20921   7.012  10.066  11.000  0.7157  0.7355  0.0639
  917MOL0     C20922   6.931   9.937  10.993  0.4490  0.0705  0.0006
  917MOL0     C20923   6.809   9.936  10.909 -0.1208  0.0816  1.0336
  917MOL0     C20924   6.728   9.805  10.908 -0.4517 -0.2783  0.6079
  917MOL0     C20925   6.604   9.816  10.828 -0.5223 -0.3807  1.0076
  917MOL0     C20926   6.542   9.674  10.825  0.4855  0.5857  0.0905
  917MOL0     C20927   6.435   9.644  10.724  0.5081  0.3831  0.3908
  917MOL0     C20928   6.328   9.749  10.726  0.2375 -0.0762 -0.0555
  917MOL0     N20929   6.190   9.705  10.671 -0.7133  0.5434 -0.1177
  917MOL0     C20930   6.130   9.751  10.562  0.4164 -0.4503  0.7146
  917MOL0     C20931   6.001   9.700  10.564 -0.3227  0.4252  0.0848
  917MOL0     C20932   5.892   9.729  10.467 -0.4524  0.2555 -0.1521
  917MOL0     C20933   5.888   9.639  10.343 -0.3889  0.5144 -0.4153
  917MOL0     C20934   5.849   9.497  10.346  0.1911  0.6862 -0.8383
  917MOL0     C20935   5.714   9.474  10.408  0.4503  0.1517  0.4406
  917MOL0     O20936   5.611   9.505  10.315 -0.5146 -0.3743 -0.2365
  917MOL0     C20937   5.478   9.501  10.352 -0.1466 -0.1624 -0.5603
  917MOL0     C20938   5.427   9.463  10.479 -0.4296  0.2641 -0.4448
  917MOL0     C20939   5.289   9.449  10.495  0.6098  0.1321 -0.4149
  917MOL0     C20940   5.203   9.476  10.391 -0.8770 -0.3441 -1.1160
  917MOL0     C20941   5.055   9.453  10.394 -0.0941 -0.4238 -0.3927
  917MOL0     O20942   4.993   9.367  10.302 -0.0068 -0.0024 -0.5064
  917MOL0     C20943   4.856   9.362  10.323 -0.6610 -1.0945 -0.6401
  917MOL0     C20944   4.785   9.457  10.255  0.7203 -0.9353  0.1907
  917MOL0     C20945   4.645   9.450  10.270  0.2357  0.1368 -0.1925
  917MOL0     C20946   4.573   9.346  10.340 -0.5513 -0.4206  0.2433
  917MOL0     O20947   4.437   9.328  10.351 -0.0754  0.2072 -0.1600
  917MOL0     C20948   4.358   9.438  10.310  0.6779 -0.3845 -1.1481
  917MOL0     C20949   4.207   9.403  10.330 -0.7422  0.1682 -0.3094
  917MOL0     C20950   4.167   9.376  10.470  0.6688  0.2083  0.5318
  917MOL0     C20951   4.014   9.334  10.472 -0.0108  0.4895 -0.4970
  917MOL0     C20952   3.923   9.453  10.473 -0.0889  0.2615 -0.5223
  917MOL0     C20953   3.778   9.406  10.447 -0.0142 -0.0702 -0.6425
  917MOL0     C20954   3.679   9.524  10.442 -0.2736 -1.4164 -0.6023
  917MOL0     C20955   3.539   9.471  10.414 -0.4752 -0.5079 -0.1357
  917MOL0    Cl20956   3.430   9.620  10.426 -0.1029  0.5591  0.6625
  917MOL0     C20957   4.658   9.249  10.380  0.5660 -0.0366 -0.1603
  917MOL0     C20958   4.797   9.253  10.378 -0.1984  0.8173 -0.2705
  917MOL0     O20959   5.003   9.499  10.495  0.6518  0.2286 -0.1387
  917MOL0     C20960   5.252   9.510  10.266  0.1305 -1.1626 -0.1085
  917MOL0     C20961   5.391   9.532  10.249 -0.1185 -0.5339  1.1492
  917MOL0     N20962   6.005   9.609  10.672  0.1202 -0.6599  0.4517
  917MOL0     N20963   6.116   9.609  10.732 -0.5250  0.1828  0.3976
  917MOL0     C20964   7.221  10.254  11.177  0.2128 -0.3068 -1.2834
  917MOL0     C20965   7.349  10.322  11.173 -1.0160  0.4063  0.2026
  917MOL0     C20966   7.824  10.366  11.083  0.3045 -0.6747  0.4063
  917MOL0     C20967   7.929  10.377  10.997 -0.4690  0.2818 -0.8667
  917MOL0     C20968   8.052  10.435  11.031 -0.5391 -0.6994 -0.7084
  917MOL0     C20969   8.073  10.461  11.172 -0.8650 -1.9117 -0.0549
  917MOL0     O20970   8.186  10.521  11.207 -0.0042 -0.1050 -0.7579
  917MOL0     C20971   8.222  10.531  11.346  0.5809 -0.3290 -0.1477
  917MOL0     C20972   8.368  10.528  11.375  0.1092 -0.6876  0.1104
  917MOL0     C20973   8.430  10.652  11.325  0.5891  0.6474 -0.5890
  917MOL0     C20974   8.425  10.772  11.417  0.9189  0.1112 -0.1003
  917MOL0     C20975   8.490  10.886  11.346  0.4047  0.5569  0.7219
  917MOL0     C20976   8.527  10.993  11.291 -0.4723 -0.0507 -0.1164
  917MOL0     C20977   7.958  10.462  11.257 -0.0405 -0.4656  1.0681
  917MOL0     C20978   7.839  10.414  11.216  0.7278  0.2043  0.1396
  917MOL0     H20979   7.517  10.094  10.986 -0.8016 -3.1132  3.1365
  917MOL0     H20980   7.283   9.998  10.987 -6.2583  1.5314  1.9710
  917MOL0     H20981   7.065  10.073  10.905  1.7260 -1.0369  0.4538
  917MOL0     H20982   6.950  10.156  11.009 -0.6154 -0.1262 -0.0568
  917MOL0     H20983   6.897   9.933  11.097  2.3756  0.7403  0.7113
  917MOL0     H20984   6.990   9.849  10.965 -0.3617  0.8943 -5.3308
  917MOL0     H20985   6.835   9.949  10.804 -1.9814  0.3834  0.5697
  917MOL0     H20986   6.751  10.023  10.942 -1.3430  1.5626 -4.0489
  917MOL0     H20987   6.788   9.726  10.861  0.3723 -0.1898  1.4701
  917MOL0     H20988   6.715   9.775  11.013  1.6828 -0.1277  0.9752
  917MOL0     H20989   6.625   9.868  10.734  1.8051  1.6990  2.5370
  917MOL0     H20990   6.546   9.894  10.878  0.8026  0.7215  0.8905
  917MOL0     H20991   6.515   9.649  10.928  1.1801 -4.1966 -0.6334
  917MOL0     H20992   6.616   9.596  10.802 -0.6174 -0.3104 -0.5462
  917MOL0     H20993   6.466   9.641  10.619 -0.9857 -0.2103 -0.0567
  917MOL0     H20994   6.402   9.542  10.743  0.3860  0.5071  0.8473
  917MOL0     H20995   6.352   9.843  10.675  2.3924  0.4239  1.6796
  917MOL0     H20996   6.325   9.774  10.833  0.3716 -3.9523  1.0001
  917MOL0     H20997   6.171   9.827  10.496 -1.9248  0.9777  0.8039
  917MOL0     H20998   5.918   9.828  10.428 -0.3426  0.2476 -0.0973
  917MOL0     H20999   5.802   9.730  10.529  0.6866 -0.8931  1.5849
  917MOL0     H21000   5.991   9.641  10.307 -0.2226  1.6992  0.0828
  917MOL0     H21001   5.825   9.690  10.269 -0.3249  1.5997  0.2620
  917MOL0     H21002   5.849   9.451  10.246 -0.0188  0.4954 -0.7525
  917MOL0     H21003   5.926   9.453  10.410 -0.7109  1.6547  0.9881
  917MOL0     H21004   5.695   9.529  10.500 -0.7319  2.4891 -1.0992
  917MOL0     H21005   5.710   9.368  10.434  2.8991 -0.1758 -0.2437
  917MOL0     H21006   5.494   9.437  10.560  0.1246  4.6657  0.8060
  917MOL0     H21007   5.246   9.408  10.586 -0.4451  0.0209 -0.9408
  917MOL0     H21008   4.842   9.529  10.197 -1.0422  0.9673  0.6645
  917MOL0     H21009   4.586   9.529  10.225  0.0940 -1.9711 -4.2180
  917MOL0     H21010   4.368   9.459  10.203 -1.3825 -2.6964 -1.8931
  917MOL0     H21011   4.385   9.524  10.372  2.9375 -0.5390 -1.8138
  917MOL0     H21012   4.190   9.307  10.279  2.1472  1.3729 -3.9275
  917MOL0     H21013   4.144   9.482  10.287 -1.5099 -1.0754 -1.5642
  917MOL0     H21014   4.192   9.459  10.536 -0.9964 -0.7928  2.5310
  917MOL0     H21015   4.221   9.289  10.507  0.5613 -2.0477 -3.9375
  917MOL0     H21016   3.995   9.273  10.383  2.2518  1.9037 -2.0593
  917MOL0     H21017   3.999   9.271  10.560 -0.0283  2.6706  1.1243
  917MOL0     H21018   3.950   9.530  10.400  2.3146  1.0508  1.1110
  917MOL0     H21019   3.933   9.500  10.571 -1.7414 -1.4036  0.5180
  917MOL0     H21020   3.751   9.355  10.540  1.4837 -3.4493 -1.9103
  917MOL0     H21021   3.769   9.336  10.363 -3.0512  1.3372 -1.6593
  917MOL0     H21022   3.685   9.585  10.532 -0.5823 -1.4042 -0.5894
  917MOL0     H21023   3.717   9.594  10.366 -0.2333  0.9545  1.4816
  917MOL0     H21024   3.533   9.383  10.478  1.7489 -0.6717 -0.0786
  917MOL0     H21025   3.526   9.431  10.313 -2.5923 -0.4482  0.0725
  917MOL0     H21026   4.606   9.164  10.423 -1.3586  1.5190  0.7509
  917MOL0     H21027   4.863   9.174  10.412 -0.4433  1.4400  1.7724
  917MOL0     H21028   5.186   9.536  10.183 -0.3899  1.0206  0.9306
  917MOL0     H21029   5.427   9.582  10.160 -1.5493 -1.9410 -0.2948
  917MOL0     H21030   7.146  10.290  11.246  1.2138  3.0875 -1.7870
  917MOL0     H21031   7.362  10.412  11.233 -1.5812  1.5512 -1.3085
  917MOL0     H21032   7.910  10.357  10.893 -1.3603 -1.2069 -0.4500
  917MOL0     H21033   8.143  10.457  10.976 -0.5260  0.1164 -0.3732
  917MOL0     H21034   8.164  10.458  11.403  0.2183  0.3517  0.3634
  917MOL0     H21035   8.186  10.630  11.376  0.8262 -0.3601  0.2421
  917MOL0     H21036   8.383  10.526  11.483 -0.2412 -0.2688  0.1704
  917MOL0     H21037   8.420  10.444  11.328  1.3087  0.0390  0.1138
  917MOL0     H21038   8.390  10.670  11.224 -1.4638  1.2316  0.2944
  917MOL0     H21039   8.533  10.628  11.297  0.0957  0.0807 -1.9940
  917MOL0     H21040   8.323  10.794  11.449  0.1236 -4.7193  1.3857
  917MOL0     H21041   8.490  10.749  11.502  3.7441  3.9339 -0.9746
  917MOL0     H21042   8.558  11.076  11.230  2.1816 -1.3332 -0.6310
  917MOL0     H21043   7.976  10.511  11.352  1.7410  2.7631 -0.7854
  917MOL0     H21044   7.750  10.420  11.279  0.6919  0.1844  0.0903
  918MOL0     O21045   2.677  10.094   8.841 -0.2759 -0.1062  0.2497
  918MOL0     C21046   2.635  10.144   8.740 -0.0692  0.0966  0.0512
  918MOL0     O21047   2.509  10.148   8.699  0.2699 -0.9460 -0.4898
  918MOL0     C21048   2.416  10.089   8.780 -0.2962  0.6538 -0.0239
  918MOL0     C21049   2.376   9.953   8.791  0.0041 -0.1836  0.4051
  918MOL0     C21050   2.284   9.917   8.893 -0.8844 -0.6295 -0.2184
  918MOL0     C21051   2.223  10.008   8.975  0.3314  0.8868 -1.6274
  918MOL0     O21052   2.143   9.954   9.073  0.5440 -0.0508  0.1901
  918MOL0     C21053   2.030  10.026   9.126  0.1894 -0.1464 -0.6258
  918MOL0     C21054   2.066  10.095   9.260 -0.3674 -0.2614  0.2315
  918MOL0     C21055   1.948  10.187   9.303  0.9828  0.1039  0.5115
  918MOL0     C21056   1.985  10.336   9.259 -0.3365 -0.7779 -0.2062
  918MOL0     C21057   1.905  10.449   9.322  0.0356  0.4144  0.0231
  918MOL0     C21058   1.874  10.439   9.473 -0.0116 -0.1868  0.9989
  918MOL0     C21059   1.792  10.558   9.528 -0.1685  0.2000 -0.1905
  918MOL0     C21060   1.876  10.685   9.533 -0.0386 -0.4359 -0.2453
  918MOL0     N21061   1.775  10.789   9.540  0.5027  0.1048  0.0926
  918MOL0     C21062   1.693  10.816   9.650 -0.1788 -0.4263 -0.5687
  918MOL0     C21063   1.584  10.880   9.598 -0.4600 -1.0135 -1.0610
  918MOL0     C21064   1.449  10.910   9.658 -0.4773 -0.2870 -1.2465
  918MOL0     C21065   1.376  10.778   9.687 -0.8294  0.4533 -0.2159
  918MOL0     C21066   1.233  10.800   9.701  0.4513  0.0050  0.0186
  918MOL0     C21067   1.161  10.838   9.567 -0.0532 -0.2475 -0.4587
  918MOL0     O21068   1.113  10.729   9.490  0.3438  0.1228  0.1606
  918MOL0     C21069   0.972  10.716   9.486 -0.6506  1.0663  0.5356
  918MOL0     C21070   0.875  10.820   9.466 -0.4306  0.2655 -1.0855
  918MOL0     C21071   0.738  10.797   9.457 -0.1257 -0.1983  0.3786
  918MOL0     C21072   0.690  10.668   9.468 -0.1403  0.2292  1.1974
  918MOL0     C21073   0.544  10.632   9.445  0.4073 -0.3141 -0.4074
  918MOL0     O21074   0.458  10.736   9.446 -0.2949  0.7565  0.6036
  918MOL0     C21075   0.319  10.722   9.431 -0.0703  1.4623  0.1797
  918MOL0     C21076   0.236  10.612   9.461  0.4590 -0.3337 -0.2082
  918MOL0     C21077   0.100  10.608   9.426 -0.0912 -0.5279 -0.0951
  918MOL0     C21078   0.040  10.722   9.374  0.2818 -0.6212  0.1576
  918MOL0     O21079  -0.095  10.712   9.357  0.0527  0.1261 -0.0342
  918MOL0     C21080  -0.168  10.790   9.263 -1.1246 -0.1683  1.0347
  918MOL0     C21081  -0.253  10.894   9.331 -0.2133 -0.1481  0.4789
  918MOL0     C21082  -0.180  11.001   9.416 -0.6497 -0.5802  0.0958
  918MOL0     C21083  -0.277  11.115   9.459 -0.2236 -0.4863 -0.3621
  918MOL0     C21084  -0.201  11.229   9.532  0.2660  0.4513 -0.0734
  918MOL0     C21085  -0.299  11.316   9.619 -0.4675  0.7544  0.3384
  918MOL0     C21086  -0.207  11.405   9.695 -0.0568 -0.2892 -0.5369
  918MOL0     C21087  -0.284  11.510   9.780  1.1394 -0.0129  0.4909
  918MOL0    Cl21088  -0.329  11.632   9.666  0.3572  0.8554 -0.3085
  918MOL0     C21089   0.118  10.836   9.350  0.5776  0.1586  0.4770
  918MOL0     C21090   0.255  10.830   9.365  0.6246  0.7442 -0.3403
  918MOL0     O21091   0.510  10.512   9.425 -0.0927 -0.0758  0.1567
  918MOL0     C21092   0.789  10.563   9.475 -0.1807  0.4344 -0.2854
  918MOL0     C21093   0.933  10.587   9.489  0.1126 -0.3478  0.6246
  918MOL0     N21094   1.609  10.899   9.462 -0.6312  1.0302  0.7844
  918MOL0     N21095   1.726  10.846   9.431 -0.1297 -0.0777 -0.6808
  918MOL0     C21096   2.258  10.146   8.965 -0.6484 -0.7179  0.0703
  918MOL0     C21097   2.353  10.180   8.871  0.3395  0.6042  0.4101
  918MOL0     C21098   2.740  10.205   8.655 -0.1426 -0.7635  0.0728
  918MOL0     C21099   2.703  10.257   8.526 -0.8742 -0.1606  0.0554
  918MOL0     C21100   2.790  10.314   8.439 -0.1540 -0.1846 -0.1970
  918MOL0     C21101   2.929  10.330   8.491  0.6816 -0.4052 -0.1783
  918MOL0     O21102   3.030  10.381   8.415  0.3307  0.4829 -0.0156
  918MOL0     C21103   2.993  10.454   8.299 -0.6739 -0.3398  0.0918
  918MOL0     C21104   3.110  10.517   8.223  0.2896 -0.1959 -0.3459
  918MOL0     C21105   3.198  10.610   8.306 -0.6752  0.6023 -0.2850
  918MOL0     C21106   3.315  10.670   8.219 -0.6806 -0.3365  0.5857
  918MOL0     C21107   3.428  10.575   8.223 -0.5694 -0.5133 -0.5209
  918MOL0     C21108   3.524  10.501   8.246  0.0263 -0.4804  0.3783
  918MOL0     C21109   2.965  10.289   8.619  0.4719 -0.5080  0.1314
  918MOL0     C21110   2.872  10.229   8.705 -0.3710  0.1130  0.1947
  918MOL0     H21111   2.429   9.884   8.726 -1.0647 -0.7630  0.1190
  918MOL0     H21112   2.249   9.815   8.908 -1.4631 -0.1241  2.5220
  918MOL0     H21113   1.951   9.952   9.139 -0.1264  0.3024  0.1026
  918MOL0     H21114   1.999  10.103   9.054  1.0544  0.0686 -0.7821
  918MOL0     H21115   2.161  10.145   9.239 -0.8537  0.0231 -1.4431
  918MOL0     H21116   2.063  10.004   9.321 -4.4969  0.6896  1.7888
  918MOL0     H21117   1.919  10.178   9.409 -0.4712 -1.5204  0.0258
  918MOL0     H21118   1.850  10.160   9.261 -0.4325  0.9122  3.0376
  918MOL0     H21119   2.088  10.352   9.293 -0.6487  0.5965  0.1514
  918MOL0     H21120   1.996  10.353   9.151  0.4160 -1.0426 -0.1799
  918MOL0     H21121   1.808  10.443   9.273 -0.4888  0.2732  1.0518
  918MOL0     H21122   1.944  10.546   9.291 -1.6367  0.8831 -0.7078
  918MOL0     H21123   1.965  10.435   9.534 -0.6053 -1.1988  1.8540
  918MOL0     H21124   1.807  10.353   9.482 -0.2836  0.0676  1.4339
  918MOL0     H21125   1.711  10.568   9.455 -0.9813 -1.0278  0.4904
  918MOL0     H21126   1.750  10.539   9.628 -0.2709  1.2354 -0.0175
  918MOL0     H21127   1.931  10.700   9.440  2.0211 -0.7987  0.8673
  918MOL0     H21128   1.947  10.684   9.616  1.8895  1.6932 -1.7516
  918MOL0     H21129   1.705  10.776   9.750  3.9218  1.7043 -0.0068
  918MOL0     H21130   1.397  10.973   9.584  0.0676  0.8372 -0.6907
  918MOL0     H21131   1.460  10.967   9.750  2.3792  1.1013 -2.3311
  918MOL0     H21132   1.419  10.730   9.776 -0.6762  1.3506  0.2066
  918MOL0     H21133   1.396  10.716   9.599 -0.9001  0.9199 -0.5583
  918MOL0     H21134   1.169  10.721   9.741 -0.5768  0.3014 -0.9756
  918MOL0     H21135   1.227  10.879   9.777 -1.7018  0.5188 -0.5992
  918MOL0     H21136   1.230  10.892   9.502  2.4490 -0.2011  2.0539
  918MOL0     H21137   1.080  10.910   9.586  0.0373  0.3847 -2.2988
  918MOL0     H21138   0.906  10.923   9.451  0.5116 -0.0882 -1.6334
  918MOL0     H21139   0.666  10.878   9.441 -0.3257  0.8084  4.9609
  918MOL0     H21140   0.280  10.523   9.506 -1.0438  0.3216  2.8122
  918MOL0     H21141   0.038  10.521   9.448  0.3106 -0.6967  0.4118
  918MOL0     H21142  -0.237  10.724   9.209  0.7904 -1.9597  0.6654
  918MOL0     H21143  -0.090  10.831   9.198  0.8600  1.3217  4.1490
  918MOL0     H21144  -0.324  10.840   9.394 -1.9435  1.4432 -0.0140
  918MOL0     H21145  -0.319  10.944   9.259  1.2904  0.7942 -0.3136
  918MOL0     H21146  -0.095  11.027   9.353  0.2710  0.0380  1.5543
  918MOL0     H21147  -0.153  10.964   9.515 -2.4413  3.4188  2.2976
  918MOL0     H21148  -0.324  11.151   9.367 -0.0236  1.2848  0.1907
  918MOL0     H21149  -0.358  11.072   9.518 -1.3297  0.7341 -0.9621
  918MOL0     H21150  -0.157  11.290   9.452 -1.5127  1.4305 -0.3362
  918MOL0     H21151  -0.132  11.177   9.599 -2.2456 -1.2758  1.2966
  918MOL0     H21152  -0.357  11.247   9.681  0.8459 -0.5916  0.0958
  918MOL0     H21153  -0.361  11.373   9.549 -0.1067 -1.5284 -1.9863
  918MOL0     H21154  -0.154  11.335   9.761 -1.0127 -0.2427  0.2988
  918MOL0     H21155  -0.129  11.453   9.634  0.3779 -0.4594 -0.1262
  918MOL0     H21156  -0.224  11.553   9.860  1.9669 -1.9257  0.9543
  918MOL0     H21157  -0.381  11.467   9.805  1.5020 -1.3616 -0.3244
  918MOL0     H21158   0.075  10.924   9.303 -1.3753 -1.6819 -1.4418
  918MOL0     H21159   0.311  10.916   9.330 -0.8036  0.9718 -2.2513
  918MOL0     H21160   0.751  10.464   9.454 -2.8453  1.0129  1.2953
  918MOL0     H21161   1.005  10.506   9.495  2.5158  1.3884 -2.3053
  918MOL0     H21162   2.205  10.214   9.030  1.4629 -1.3020  2.6045
  918MOL0     H21163   2.369  10.287   8.868  0.4145  0.6214  1.1790
  918MOL0     H21164   2.600  10.230   8.506 -0.2202 -2.9769  0.1864
  918MOL0     H21165   2.765  10.344   8.338 -1.3933 -0.4986  0.0026
  918MOL0     H21166   2.932  10.538   8.334  2.2967  1.8004  0.5501
  918MOL0     H21167   2.928  10.392   8.237 -3.2780  2.3846 -0.1304
  918MOL0     H21168   3.180  10.440   8.190  0.9690  0.8975 -1.5357
  918MOL0     H21169   3.071  10.567   8.133 -0.7747 -0.1183  0.1454
  918MOL0     H21170   3.246  10.568   8.395 -0.5776  0.3206 -0.4699
  918MOL0     H21171   3.139  10.693   8.345  0.1154  0.3122  1.6583
  918MOL0     H21172   3.281  10.703   8.121  2.3258  4.9323  0.9602
  918MOL0     H21173   3.337  10.761   8.275 -0.5755 -0.0944  0.1491
  918MOL0     H21174   3.607  10.433   8.239  0.0031 -0.3731 -2.1136
  918MOL0     H21175   3.066  10.306   8.656  1.3900  0.9641 -2.7207
  918MOL0     H21176   2.912  10.199   8.802 -2.3958  2.2793  1.8313
  919MOL0     O21177   0.449  10.715   9.040 -0.1358 -0.5802  0.2843
  919MOL0     C21178   0.327  10.717   9.048 -0.7039 -0.5284  1.4022
  919MOL0     O21179   0.245  10.830   9.019 -1.0503 -0.2131  0.1750
  919MOL0     C21180   0.287  10.947   8.964  0.7207 -0.3668  0.1172
  919MOL0     C21181   0.399  10.970   8.885  0.9061 -0.0786 -0.0794
  919MOL0     C21182   0.413  11.096   8.825 -0.4159  0.4062  0.2936
  919MOL0     C21183   0.328  11.203   8.846  0.1926  0.5043  0.5016
  919MOL0     O21184   0.361  11.317   8.783  0.1366 -0.4328 -0.1685
  919MOL0     C21185   0.290  11.438   8.812  0.0800 -0.1421  0.3382
  919MOL0     C21186   0.367  11.544   8.730  0.7443  0.4586  0.4802
  919MOL0     C21187   0.295  11.682   8.731  1.1388 -0.5358 -0.2747
  919MOL0     C21188   0.370  11.791   8.652 -0.8324  0.1060 -0.1305
  919MOL0     C21189   0.301  11.924   8.623 -0.4290  0.1779  0.6498
  919MOL0     C21190   0.241  11.989   8.749  0.1805 -0.1373 -0.1640
  919MOL0     C21191   0.089  11.981   8.752  0.3680 -0.5533  0.4897
  919MOL0     C21192   0.028  12.017   8.892 -0.0004 -0.0508 -0.0936
  919MOL0     N21193   0.101  11.987   9.013 -0.5232 -0.6817  0.7004
  919MOL0     C21194   0.159  12.083   9.101 -0.4637 -0.6581  0.4148
  919MOL0     C21195   0.223  12.015   9.202 -0.3370  0.4568 -0.0831
  919MOL0     C21196   0.287  12.061   9.330 -0.8949 -0.1449  0.9310
  919MOL0     C21197   0.304  12.216   9.315  0.2314  0.1814  0.0245
  919MOL0     C21198   0.180  12.292   9.367  0.4506 -0.5039 -0.3278
  919MOL0     C21199   0.203  12.453   9.342  0.7996  0.3937  0.2529
  919MOL0     O21200   0.228  12.493   9.196  0.4177 -0.3882 -0.8848
  919MOL0     C21201   0.119  12.473   9.111  0.0723 -0.0910  0.0132
  919MOL0     C21202   0.151  12.438   8.978  0.2625 -0.1556 -0.0004
  919MOL0     C21203   0.046  12.389   8.890 -1.2108  1.3707  0.2277
  919MOL0     C21204  -0.088  12.399   8.933  0.0907 -0.3376  0.1814
  919MOL0     C21205  -0.200  12.365   8.843 -0.3198 -0.6172 -0.1631
  919MOL0     O21206  -0.301  12.464   8.837 -0.2407 -0.5882 -0.0456
  919MOL0     C21207  -0.412  12.448   8.757  0.3125  0.2575  0.4052
  919MOL0     C21208  -0.401  12.415   8.621 -0.8637 -0.4656 -0.4348
  919MOL0     C21209  -0.521  12.403   8.543  0.7117  0.1727 -0.3781
  919MOL0     C21210  -0.647  12.441   8.584  0.5330  0.8385  0.2182
  919MOL0     O21211  -0.761  12.456   8.497  0.2609  0.1872 -0.0834
  919MOL0     C21212  -0.889  12.486   8.552  0.2893 -0.3379  0.7844
  919MOL0     C21213  -1.005  12.506   8.443 -0.5450  0.4293  0.0700
  919MOL0     C21214  -1.147  12.479   8.498  0.5026  0.7231  0.8440
  919MOL0     C21215  -1.245  12.522   8.387  0.2603 -0.0289 -0.1014
  919MOL0     C21216  -1.391  12.518   8.422 -0.0195 -0.3248  0.0427
  919MOL0     C21217  -1.439  12.382   8.474  0.8215  0.2261 -0.2728
  919MOL0     C21218  -1.587  12.384   8.501 -0.5160 -0.3513 -0.7763
  919MOL0     C21219  -1.627  12.251   8.556  0.1342 -0.0446 -0.1783
  919MOL0    Cl21220  -1.797  12.249   8.539 -0.2412 -0.0653 -0.0210
  919MOL0     C21221  -0.655  12.471   8.723 -0.3459 -0.3970 -0.5614
  919MOL0     C21222  -0.545  12.477   8.805 -1.1474  0.4661  0.5895
  919MOL0     O21223  -0.179  12.275   8.767  0.0753  0.1999 -0.2082
  919MOL0     C21224  -0.113  12.468   9.056 -0.9245 -0.7644  0.5098
  919MOL0     C21225  -0.014  12.494   9.145 -0.3260 -0.8118 -0.2727
  919MOL0     N21226   0.216  11.881   9.159 -0.2607  0.3739  0.0408
  919MOL0     N21227   0.138  11.861   9.059  0.1449 -0.0771  0.2572
  919MOL0     C21228   0.214  11.174   8.919  0.1222 -0.2482 -0.7237
  919MOL0     C21229   0.190  11.050   8.970 -0.0016  0.2489 -0.3319
  919MOL0     C21230   0.257  10.590   9.068 -0.4084 -0.8911 -0.1747
  919MOL0     C21231   0.320  10.480   9.131  1.4703 -0.8927 -0.3477
  919MOL0     C21232   0.245  10.364   9.161  0.6353  0.1635  0.5640
  919MOL0     C21233   0.112  10.354   9.127  0.5039  0.7172  0.2051
  919MOL0     O21234   0.051  10.241   9.173  0.3226  0.2579 -0.3846
  919MOL0     C21235  -0.087  10.236   9.129  0.0433  1.0472 -0.0773
  919MOL0     C21236  -0.140  10.096   9.144  0.3310 -0.1194 -0.7257
  919MOL0     C21237  -0.141  10.009   9.009 -0.5816  0.1037  0.4377
  919MOL0     C21238  -0.260   9.913   9.003  0.2494 -0.5060  0.4955
  919MOL0     C21239  -0.285   9.833   8.886 -0.6227  0.3757 -0.1875
  919MOL0     C21240  -0.312   9.772   8.792  0.0153 -0.2715  0.4318
  919MOL0     C21241   0.045  10.461   9.067  0.0812 -0.6798 -0.6652
  919MOL0     C21242   0.116  10.584   9.040 -0.6214 -0.3796 -0.2611
  919MOL0     H21243   0.471  10.893   8.860  1.1028  0.3465 -0.8389
  919MOL0     H21244   0.499  11.111   8.761 -1.8883  0.8318 -1.6627
  919MOL0     H21245   0.300  11.453   8.920 -0.0804  1.7305  0.1248
  919MOL0     H21246   0.182  11.445   8.797  0.0305 -0.6779  0.4229
  919MOL0     H21247   0.380  11.511   8.626 -0.7195 -1.2337  0.7767
  919MOL0     H21248   0.463  11.555   8.780 -0.0078 -1.9186  2.6332
  919MOL0     H21249   0.285  11.717   8.834  0.8547 -1.5069  0.0336
  919MOL0     H21250   0.199  11.665   8.682  0.8496 -0.3078  0.2031
  919MOL0     H21251   0.459  11.810   8.712 -0.9232  1.8906 -0.5218
  919MOL0     H21252   0.411  11.749   8.560  0.7116 -2.5351  1.6278
  919MOL0     H21253   0.225  11.911   8.545 -0.4664 -2.9929  1.0506
  919MOL0     H21254   0.373  11.990   8.576 -1.7639  0.6858 -0.7738
  919MOL0     H21255   0.265  12.095   8.738  2.3223 -0.6270 -0.6117
  919MOL0     H21256   0.287  11.956   8.843  0.0441  1.2696  0.4239
  919MOL0     H21257   0.040  12.046   8.679 -0.7067 -0.4388  1.2980
  919MOL0     H21258   0.076  11.876   8.724  1.0317 -0.3575 -0.6089
  919MOL0     H21259  -0.066  11.967   8.915  0.8260 -0.8613  1.7510
  919MOL0     H21260   0.011  12.125   8.882  0.7184 -0.1227 -2.5384
  919MOL0     H21261   0.151  12.191   9.100  1.5436 -0.4623  0.1565
  919MOL0     H21262   0.382  12.006   9.328  0.9125  2.7007 -2.2316
  919MOL0     H21263   0.244  12.025   9.424 -1.7741  1.6304  1.2426
  919MOL0     H21264   0.335  12.240   9.213 -3.5614  2.1856 -0.8164
  919MOL0     H21265   0.382  12.239   9.388 -0.9618 -0.4601  1.5592
  919MOL0     H21266   0.085  12.263   9.321 -0.4882  1.6344  0.1419
  919MOL0     H21267   0.166  12.279   9.475 -2.1447 -3.1138 -0.8576
  919MOL0     H21268   0.291  12.484   9.398  2.6448 -0.9417 -1.7643
  919MOL0     H21269   0.117  12.506   9.386 -1.6768 -2.8013 -0.3418
  919MOL0     H21270   0.253  12.442   8.941  0.3879  0.2458  0.3855
  919MOL0     H21271   0.078  12.365   8.789 -0.7914 -0.0263  0.6642
  919MOL0     H21272  -0.303  12.402   8.577 -1.1021  0.0840 -1.1500
  919MOL0     H21273  -0.510  12.375   8.439  1.9020 -1.7577  0.2124
  919MOL0     H21274  -0.881  12.576   8.613  0.4767  0.3853 -0.2844
  919MOL0     H21275  -0.920  12.408   8.622 -0.8959 -0.4394  0.1716
  919MOL0     H21276  -0.990  12.443   8.355 -1.6196 -0.6574  0.6253
  919MOL0     H21277  -1.002  12.610   8.409  1.8065 -0.1985 -2.0079
  919MOL0     H21278  -1.182  12.521   8.593  1.9803  1.6354  0.9988
  919MOL0     H21279  -1.158  12.371   8.515  0.3280  0.6316  0.1850
  919MOL0     H21280  -1.232  12.630   8.371 -1.3501  0.3397  0.8168
  919MOL0     H21281  -1.222  12.478   8.290  0.8572 -0.9730  0.4579
  919MOL0     H21282  -1.460  12.538   8.340 -1.8383  2.5341  2.1031
  919MOL0     H21283  -1.399  12.601   8.493  2.9346  0.9016 -0.8879
  919MOL0     H21284  -1.382  12.366   8.566  2.2161  3.4331 -0.4402
  919MOL0     H21285  -1.431  12.306   8.395 -0.8781  1.7671 -2.0433
  919MOL0     H21286  -1.628  12.452   8.576 -2.8310 -1.5520 -0.8245
  919MOL0     H21287  -1.637  12.414   8.408  0.7119 -1.7669 -1.9609
  919MOL0     H21288  -1.600  12.252   8.662  0.9253 -0.9635 -0.3636
  919MOL0     H21289  -1.585  12.173   8.492  0.7502  1.2395 -1.4183
  919MOL0     H21290  -0.751  12.494   8.768 -0.3654  0.8895 -1.2030
  919MOL0     H21291  -0.542  12.502   8.911 -0.3623  3.4862 -0.0490
  919MOL0     H21292  -0.210  12.502   9.092 -1.3182 -0.0110 -1.1670
  919MOL0     H21293  -0.048  12.542   9.236 -1.6971 -0.4425 -0.9578
  919MOL0     H21294   0.146  11.258   8.934  2.2543  1.2870  1.0672
  919MOL0     H21295   0.110  11.018   9.035  0.0614  3.0433  1.2902
  919MOL0     H21296   0.419  10.495   9.172  0.9887 -0.3323  0.6446
  919MOL0     H21297   0.304  10.285   9.206  0.1206  0.8597  2.5687
  919MOL0     H21298  -0.104  10.265   9.024  1.1341 -2.6710 -1.4467
  919MOL0     H21299  -0.134  10.311   9.193  0.9628  2.0123 -0.5168
  919MOL0     H21300  -0.084  10.047   9.225  2.2212 -1.2353 -2.6088
  919MOL0     H21301  -0.245  10.105   9.174 -0.4776 -0.8485 -3.0941
  919MOL0     H21302  -0.049   9.951   9.005 -0.8969 -0.4445  0.8948
  919MOL0     H21303  -0.146  10.072   8.920 -0.0532  1.9099  1.6205
  919MOL0     H21304  -0.254   9.843   9.087  1.4102  2.6074  3.2721
  919MOL0     H21305  -0.349   9.972   9.027 -0.6916 -2.1084  1.0953
  919MOL0     H21306  -0.330   9.713   8.705  0.8014 -1.5977  1.1430
  919MOL0     H21307  -0.062  10.464   9.053 -0.3857 -0.9761  2.1445
  919MOL0     H21308   0.066  10.673   9.003  0.9766  1.1307  1.0339
  920MOL0     O21309   4.986   4.595   6.132 -1.1822  0.3004 -0.0645
  920MOL0     C21310   5.028   4.480   6.106 -0.3827 -0.1547  0.3583
  920MOL0     O21311   4.940   4.380   6.073  0.7370 -1.0896 -0.0303
  920MOL0     C21312   4.808   4.394   6.075  0.0721 -1.0362  0.0464
  920MOL0     C21313   4.736   4.502   6.016 -0.8531  0.9816  0.3121
  920MOL0     C21314   4.603   4.510   6.016  0.3777 -0.0022 -0.5084
  920MOL0     C21315   4.525   4.422   6.097 -0.4583  0.0447 -0.4521
  920MOL0     O21316   4.390   4.448   6.104  0.3335  0.0761  0.6213
  920MOL0     C21317   4.350   4.503   6.226  0.1502 -0.0718  0.5782
  920MOL0     C21318   4.201   4.528   6.222  0.2432  0.3443  0.4770
  920MOL0     C21319   4.147   4.602   6.346  0.4625  0.4136 -0.1414
  920MOL0     C21320   4.182   4.541   6.485 -0.0083  0.6803 -0.1755
  920MOL0     C21321   4.206   4.660   6.578 -0.2880  0.2240  0.1950
  920MOL0     C21322   4.157   4.627   6.727 -0.4887  0.6087 -0.3751
  920MOL0     C21323   4.230   4.709   6.845 -0.9390 -1.0178  0.0924
  920MOL0     C21324   4.191   4.851   6.868  0.3016 -0.6380 -0.1471
  920MOL0     N21325   4.050   4.851   6.896  0.1938  0.9902 -0.4128
  920MOL0     C21326   3.948   4.872   6.808  0.4255 -0.6934  0.6409
  920MOL0     C21327   3.829   4.863   6.876  0.4558  0.3007  0.0375
  920MOL0     C21328   3.686   4.877   6.807 -0.2115 -0.9044 -0.2883
  920MOL0     C21329   3.680   5.001   6.718 -0.1964 -0.2979  0.1670
  920MOL0     C21330   3.545   5.018   6.643 -0.8500 -0.1921  0.6625
  920MOL0     C21331   3.550   5.147   6.558 -0.3416 -0.7003 -0.3231
  920MOL0     O21332   3.434   5.127   6.473 -0.7976 -0.5879 -0.2220
  920MOL0     C21333   3.314   5.190   6.504 -0.4737  0.0014  0.9615
  920MOL0     C21334   3.295   5.322   6.532 -0.4297 -0.9408  0.2988
  920MOL0     C21335   3.161   5.373   6.543  0.2452 -0.1318 -0.3365
  920MOL0     C21336   3.048   5.287   6.536 -0.8253 -0.0291 -0.1923
  920MOL0     C21337   2.908   5.331   6.556 -0.1212  1.1241  0.7569
  920MOL0     O21338   2.898   5.459   6.602  0.6132  0.1175 -0.0293
  920MOL0     C21339   2.777   5.499   6.646  0.1605 -0.0067  0.0672
  920MOL0     C21340   2.681   5.552   6.561  0.3031  0.1438  0.3690
  920MOL0     C21341   2.549   5.593   6.600 -0.4590  0.2328 -0.0505
  920MOL0     C21342   2.519   5.590   6.738  0.7547 -0.3825  0.1677
  920MOL0     O21343   2.393   5.635   6.788 -0.9134 -0.2379 -0.4486
  920MOL0     C21344   2.406   5.768   6.832 -0.3778 -0.5614  0.2204
  920MOL0     C21345   2.276   5.819   6.897 -0.6224  1.1103 -0.4083
  920MOL0     C21346   2.290   5.949   6.981 -0.7375  0.4860 -0.3015
  920MOL0     C21347   2.407   5.956   7.081  0.0423 -0.1124 -1.0645
  920MOL0     C21348   2.387   6.069   7.187 -0.1029  0.2079  0.4294
  920MOL0     C21349   2.507   6.084   7.271  0.7393  0.1453  0.5011
  920MOL0     C21350   2.484   6.177   7.375 -0.4667 -0.0591 -0.2070
  920MOL0     C21351   2.621   6.229   7.436  0.5313  0.2369  0.3762
  920MOL0    Cl21352   2.709   6.084   7.503  0.2957  0.2707 -0.2290
  920MOL0     C21353   2.623   5.556   6.823  0.8628  0.2486  1.0419
  920MOL0     C21354   2.746   5.502   6.781  0.2712  0.4362 -0.2861
  920MOL0     O21355   2.816   5.244   6.541  0.3418  0.4719 -0.2371
  920MOL0     C21356   3.075   5.149   6.508 -0.7023 -0.4507  0.7825
  920MOL0     C21357   3.205   5.106   6.501  0.0733  0.6574  0.3396
  920MOL0     N21358   3.865   4.848   7.009 -0.6151  0.6454  0.2968
  920MOL0     N21359   3.991   4.834   7.020 -0.5912  0.5473 -0.3534
  920MOL0     C21360   4.593   4.308   6.150 -0.8723  0.6411 -1.2094
  920MOL0     C21361   4.729   4.297   6.141 -0.9116  0.6899  0.3042
  920MOL0     C21362   5.176   4.448   6.095  0.7757 -0.1834  0.8042
  920MOL0     C21363   5.266   4.530   6.151 -0.2051 -0.0982 -0.0698
  920MOL0     C21364   5.403   4.520   6.115 -0.2134 -0.1022  1.2708
  920MOL0     C21365   5.447   4.407   6.046 -0.2014  0.7631  0.4415
  920MOL0     O21366   5.576   4.373   6.007  0.4644 -0.1818  0.2261
  920MOL0     C21367   5.680   4.447   6.069  0.9965 -0.5700 -0.3262
  920MOL0     C21368   5.809   4.383   6.057  0.5731 -0.3413 -0.3158
  920MOL0     C21369   5.921   4.480   6.113  0.3783  0.7696 -0.5802
  920MOL0     C21370   6.064   4.440   6.082  0.6519  0.0604  0.3685
  920MOL0     C21371   6.091   4.304   6.120 -0.3416 -0.5536  0.0874
  920MOL0     C21372   6.119   4.190   6.145 -0.6892  0.6381 -0.3310
  920MOL0     C21373   5.353   4.318   6.007 -0.8361 -0.0947 -0.5285
  920MOL0     C21374   5.216   4.339   6.026 -0.4312 -0.5597 -0.5764
  920MOL0     H21375   4.793   4.582   5.971 -0.6063  0.7379  0.1941
  920MOL0     H21376   4.547   4.597   5.984 -0.0962 -0.4942 -1.0351
  920MOL0     H21377   4.387   4.605   6.245 -2.3214  1.6647 -2.7678
  920MOL0     H21378   4.378   4.429   6.301 -1.6151 -0.9936  0.3793
  920MOL0     H21379   4.158   4.431   6.193  0.1773  0.5312 -0.0511
  920MOL0     H21380   4.180   4.589   6.134 -0.6124 -2.4098 -1.3907
  920MOL0     H21381   4.040   4.618   6.335  0.6837  1.8283 -0.3689
  920MOL0     H21382   4.199   4.697   6.334  1.7807 -0.4315 -1.4218
  920MOL0     H21383   4.101   4.477   6.519  0.7188 -0.0718  0.1862
  920MOL0     H21384   4.278   4.489   6.475  1.7437  3.8394 -1.3664
  920MOL0     H21385   4.152   4.749   6.546 -1.9348 -0.2532  1.4343
  920MOL0     H21386   4.311   4.690   6.577 -0.5755  1.2555 -0.5119
  920MOL0     H21387   4.186   4.525   6.753  2.2758  1.1818 -0.9191
  920MOL0     H21388   4.048   4.627   6.737 -0.4903 -0.0700 -0.3367
  920MOL0     H21389   4.226   4.658   6.941 -3.6074 -0.8622  0.1479
  920MOL0     H21390   4.336   4.712   6.816 -1.4164 -0.1914 -1.7491
  920MOL0     H21391   4.202   4.899   6.770  1.4490  4.1079  2.0009
  920MOL0     H21392   4.249   4.902   6.946  0.8303 -0.7233 -0.4754
  920MOL0     H21393   3.951   4.881   6.700 -1.4089  0.0464  0.6158
  920MOL0     H21394   3.612   4.886   6.886 -1.7839  1.1868 -1.8731
  920MOL0     H21395   3.671   4.789   6.744  0.9632 -1.4974  0.2388
  920MOL0     H21396   3.766   4.999   6.650 -0.6516  3.2312 -0.6941
  920MOL0     H21397   3.691   5.089   6.782 -0.4532  0.3689 -0.6939
  920MOL0     H21398   3.536   4.933   6.575 -0.2326 -3.1777  3.9768
  920MOL0     H21399   3.451   5.016   6.700 -0.9321  1.2179  0.6004
  920MOL0     H21400   3.647   5.160   6.510 -2.0114  1.6436 -3.4113
  920MOL0     H21401   3.538   5.231   6.626 -2.1219 -2.1153  1.2312
  920MOL0     H21402   3.387   5.377   6.548 -0.7415 -0.7545  1.5641
  920MOL0     H21403   3.137   5.478   6.559 -1.2426 -0.4978  0.0024
  920MOL0     H21404   2.711   5.577   6.460 -0.9212  2.0535  0.4247
  920MOL0     H21405   2.481   5.639   6.528  0.2984  0.8458 -0.3947
  920MOL0     H21406   2.428   5.836   6.749 -2.8325  0.5898  0.4296
  920MOL0     H21407   2.489   5.770   6.904  1.8254  1.4403 -2.1655
  920MOL0     H21408   2.241   5.738   6.962  0.5910  0.4085 -0.6006
  920MOL0     H21409   2.206   5.824   6.813 -1.0156 -2.1177 -0.4027
  920MOL0     H21410   2.194   5.976   7.026 -0.9614 -2.4407  1.2034
  920MOL0     H21411   2.310   6.022   6.903  0.6631  0.2960 -0.1424
  920MOL0     H21412   2.410   5.862   7.136 -1.7629  0.1979 -0.3562
  920MOL0     H21413   2.499   5.976   7.025 -0.9690  1.3772 -2.3116
  920MOL0     H21414   2.301   6.044   7.250  0.5173 -5.3948 -0.4674
  920MOL0     H21415   2.375   6.168   7.141  2.9155  1.6050  2.3081
  920MOL0     H21416   2.590   6.112   7.205  0.5608  1.4576  0.8063
  920MOL0     H21417   2.527   5.981   7.305 -0.8779 -1.3128 -2.5629
  920MOL0     H21418   2.425   6.262   7.339  0.1767 -0.5277 -2.5401
  920MOL0     H21419   2.419   6.127   7.447 -2.2235 -0.5837 -2.0628
  920MOL0     H21420   2.598   6.305   7.511  2.9579  4.0659 -2.3909
  920MOL0     H21421   2.681   6.267   7.354 -0.4564  1.1882  0.0641
  920MOL0     H21422   2.597   5.575   6.927 -4.0814  1.0207 -0.0846
  920MOL0     H21423   2.821   5.474   6.853 -1.4466 -3.4661  0.2258
  920MOL0     H21424   2.993   5.081   6.488  0.7039 -1.9175 -0.2004
  920MOL0     H21425   3.216   5.002   6.470 -2.1630  0.2276  0.8067
  920MOL0     H21426   4.537   4.229   6.199  1.8565 -0.2297  0.7347
  920MOL0     H21427   4.782   4.213   6.186 -1.6841 -0.3469 -0.6622
  920MOL0     H21428   5.232   4.618   6.206 -0.0784 -1.1074  1.6947
  920MOL0     H21429   5.476   4.588   6.156 -0.7416  1.4525 -0.2259
  920MOL0     H21430   5.651   4.464   6.173 -3.2559 -0.8286 -1.2653
  920MOL0     H21431   5.679   4.545   6.019  2.1401 -1.1028 -1.4218
  920MOL0     H21432   5.805   4.286   6.107  0.0777 -0.0671  0.1906
  920MOL0     H21433   5.838   4.358   5.954  3.3430  0.5140  0.1811
  920MOL0     H21434   5.915   4.490   6.222 -1.1354 -2.9904 -0.1662
  920MOL0     H21435   5.899   4.581   6.077 -0.3270  1.4420  1.5748
  920MOL0     H21436   6.057   4.440   5.973  0.8227 -1.0018  0.3499
  920MOL0     H21437   6.135   4.509   6.129  1.2630 -0.9035  0.8746
  920MOL0     H21438   6.158   4.092   6.161  0.1302  1.0685  0.3721
  920MOL0     H21439   5.394   4.236   5.949  1.4256 -0.4839  1.4750
  920MOL0     H21440   5.154   4.268   5.973  0.4256 -2.0533  0.3414
  921MOL0     O21441   8.168   3.439   1.235 -0.4060  0.7029 -0.6027
  921MOL0     C21442   8.234   3.395   1.330  0.1314  0.9009  0.4198
  921MOL0     O21443   8.185   3.366   1.452  0.6600 -0.2334 -0.6469
  921MOL0     C21444   8.039   3.370   1.467 -0.1972  0.4848 -0.3985
  921MOL0     C21445   7.984   3.448   1.564  0.3917  0.1776  0.9926
  921MOL0     C21446   7.847   3.457   1.583 -0.0056  0.6925  0.1117
  921MOL0     C21447   7.756   3.382   1.501  0.1045 -0.0542 -0.1721
  921MOL0     O21448   7.620   3.396   1.519 -0.2723 -0.0046 -0.0117
  921MOL0     C21449   7.539   3.290   1.479  0.0227  0.5610  0.0326
  921MOL0     C21450   7.418   3.276   1.574 -0.6866 -0.9728 -0.2800
  921MOL0     C21451   7.284   3.341   1.497 -0.1375  0.2335 -0.7936
  921MOL0     C21452   7.155   3.292   1.563  0.6475  0.6966  0.7564
  921MOL0     C21453   7.026   3.357   1.506 -0.0594 -0.7247  0.3746
  921MOL0     C21454   6.949   3.275   1.397  0.0138 -0.1889  0.4168
  921MOL0     C21455   6.835   3.209   1.467 -0.1048  0.1392  0.0561
  921MOL0     C21456   6.773   3.089   1.397  0.6553  0.5614 -0.0202
  921MOL0     N21457   6.865   2.978   1.378  0.2217  0.0143  0.0191
  921MOL0     C21458   6.953   2.915   1.465  0.0864  1.4728  0.1897
  921MOL0     C21459   7.001   2.804   1.391 -0.7086 -0.0511  0.0666
  921MOL0     C21460   7.093   2.697   1.450 -0.4425 -1.0639 -0.1261
  921MOL0     C21461   7.233   2.752   1.440  0.4111  0.0160  0.1751
  921MOL0     C21462   7.338   2.670   1.516  0.1389  0.2559  0.0258
  921MOL0     C21463   7.474   2.742   1.487 -0.3415  0.0920 -0.1837
  921MOL0     O21464   7.575   2.730   1.598  0.5523 -0.5381  0.2148
  921MOL0     C21465   7.701   2.790   1.582 -0.2764 -0.1438  0.5498
  921MOL0     C21466   7.727   2.873   1.485 -0.1548 -0.5190  0.5811
  921MOL0     C21467   7.852   2.943   1.491  0.3879  0.6788  1.0515
  921MOL0     C21468   7.950   2.916   1.585  0.1870  0.1344  0.1941
  921MOL0     C21469   8.084   2.965   1.571  0.6047 -0.1322 -0.6242
  921MOL0     O21470   8.170   2.906   1.660  0.4790 -0.8179 -0.5176
  921MOL0     C21471   8.294   2.959   1.666  0.6543 -0.0238 -0.7203
  921MOL0     C21472   8.336   3.090   1.686  0.1118  0.3147  0.2356
  921MOL0     C21473   8.479   3.126   1.712 -0.2045 -0.0069 -0.5228
  921MOL0     C21474   8.577   3.028   1.729  0.0751 -0.2612  0.0658
  921MOL0     O21475   8.703   3.069   1.771  0.4524 -0.1416 -0.0779
  921MOL0     C21476   8.803   2.973   1.760 -0.0462 -1.0275  0.6863
  921MOL0     C21477   8.928   3.050   1.780  0.1641 -0.1292  0.1113
  921MOL0     C21478   8.955   3.094   1.927  0.5117  0.1188 -1.0226
  921MOL0     C21479   8.971   2.986   2.040 -0.5017 -0.0887  0.2429
  921MOL0     C21480   8.982   3.061   2.171 -0.0757  0.1623  0.4601
  921MOL0     C21481   8.923   2.978   2.292  0.8166  0.3402 -0.0264
  921MOL0     C21482   9.007   2.853   2.331  0.5298  0.2038 -0.4277
  921MOL0     C21483   8.973   2.803   2.465  1.2828  0.6134  0.0679
  921MOL0    Cl21484   8.803   2.745   2.477  0.1331  0.3054  0.6330
  921MOL0     C21485   8.531   2.894   1.715 -0.9163 -0.2854  0.2129
  921MOL0     C21486   8.398   2.866   1.683 -0.1909  0.5736  0.1777
  921MOL0     O21487   8.108   3.059   1.497  0.4883  0.9000 -0.0483
  921MOL0     C21488   7.913   2.825   1.684  0.1095  0.4196  0.2337
  921MOL0     C21489   7.789   2.768   1.684  0.2435  0.0192  0.2989
  921MOL0     N21490   6.936   2.796   1.264  0.4162  0.5947 -0.2944
  921MOL0     N21491   6.850   2.895   1.270 -0.9474  0.3533  0.6023
  921MOL0     C21492   7.810   3.299   1.400 -0.2820  0.5743 -0.4976
  921MOL0     C21493   7.949   3.295   1.388 -0.6955 -0.0674 -0.1720
  921MOL0     C21494   8.379   3.376   1.317 -0.0407 -0.0784 -0.3983
  921MOL0     C21495   8.453   3.397   1.195 -0.3457 -0.1853 -0.0095
  921MOL0     C21496   8.586   3.376   1.184 -0.3126  0.2132 -0.0632
  921MOL0     C21497   8.657   3.308   1.286  0.5078 -0.6069 -0.6266
  921MOL0     O21498   8.796   3.295   1.281  0.2679 -0.3398  0.1177
  921MOL0     C21499   8.837   3.158   1.300 -0.3640  0.4919 -0.1205
  921MOL0     C21500   8.793   3.085   1.181 -1.3560  0.3923  0.0729
  921MOL0     C21501   8.820   2.926   1.174 -0.0955  0.0240  0.8096
  921MOL0     C21502   8.752   2.841   1.287 -0.3876 -1.0634  0.2233
  921MOL0     C21503   8.609   2.879   1.320 -0.7851  0.9807 -0.1637
  921MOL0     C21504   8.497   2.911   1.349  0.3560  0.3642 -1.2230
  921MOL0     C21505   8.596   3.283   1.410 -0.5875  0.4954 -0.5032
  921MOL0     C21506   8.454   3.323   1.423  0.1111  0.8898  0.1371
  921MOL0     H21507   8.045   3.508   1.632  1.6104 -2.8280  2.7274
  921MOL0     H21508   7.796   3.524   1.652 -2.7596 -1.4084  0.2831
  921MOL0     H21509   7.594   3.197   1.469 -1.3447 -0.1554 -1.3523
  921MOL0     H21510   7.505   3.298   1.375 -0.3326 -4.2223 -0.4239
  921MOL0     H21511   7.441   3.324   1.669  2.5930  2.2629 -2.4219
  921MOL0     H21512   7.395   3.171   1.592 -0.3039 -0.6644  2.3308
  921MOL0     H21513   7.291   3.315   1.391 -0.3444 -2.4880 -0.2187
  921MOL0     H21514   7.297   3.450   1.502  4.6417  0.0834 -3.5146
  921MOL0     H21515   7.143   3.185   1.545  0.0179  1.2320 -2.6991
  921MOL0     H21516   7.158   3.303   1.671 -0.4746 -1.1897  1.0323
  921MOL0     H21517   7.055   3.448   1.452 -3.6626  0.9083  0.8911
  921MOL0     H21518   6.963   3.395   1.587  0.2805  1.8626 -0.4717
  921MOL0     H21519   7.019   3.201   1.357  2.1238  0.9229  1.8318
  921MOL0     H21520   6.937   3.347   1.315  2.5548 -1.4720 -1.2168
  921MOL0     H21521   6.866   3.185   1.569  0.5257 -0.1805 -0.2110
  921MOL0     H21522   6.749   3.276   1.475 -0.5993 -0.5833  1.0099
  921MOL0     H21523   6.751   3.124   1.296  0.4899 -0.8743 -0.5043
  921MOL0     H21524   6.678   3.045   1.430  0.4051 -0.2450 -1.6947
  921MOL0     H21525   6.975   2.945   1.567 -1.2671 -0.0308  0.9553
  921MOL0     H21526   7.082   2.603   1.394 -0.9212 -1.2760  0.3169
  921MOL0     H21527   7.071   2.702   1.557  0.2488  0.9409 -0.0463
  921MOL0     H21528   7.238   2.858   1.467 -0.8998  0.0162  0.4875
  921MOL0     H21529   7.251   2.739   1.333  0.1653  0.6018  0.0617
  921MOL0     H21530   7.309   2.662   1.621  0.7297  0.0265  0.1720
  921MOL0     H21531   7.335   2.567   1.480 -1.5159  0.7593 -1.4365
  921MOL0     H21532   7.455   2.850   1.478 -1.2977  0.1524  1.9639
  921MOL0     H21533   7.514   2.706   1.392  1.8709  0.7250  0.4353
  921MOL0     H21534   7.669   2.900   1.398  1.1319 -0.0403 -0.1459
  921MOL0     H21535   7.878   3.005   1.406 -1.9777 -2.7877 -2.6397
  921MOL0     H21536   8.258   3.166   1.691 -0.7155 -0.5348  0.7512
  921MOL0     H21537   8.490   3.232   1.730 -2.4011  0.4814 -1.7621
  921MOL0     H21538   8.812   2.919   1.665  1.3042  0.4779 -0.0934
  921MOL0     H21539   8.782   2.893   1.831 -1.6158 -0.7766  0.5623
  921MOL0     H21540   8.927   3.140   1.717 -1.0453  0.9873  1.6610
  921MOL0     H21541   9.010   2.988   1.745 -0.0580 -1.1004  1.2675
  921MOL0     H21542   8.875   3.163   1.958 -3.2642 -2.7586 -3.5031
  921MOL0     H21543   9.051   3.145   1.934  0.0125  0.9917 -0.1123
  921MOL0     H21544   8.884   2.921   2.032  1.6158 -3.2684  0.9477
  921MOL0     H21545   9.059   2.921   2.036 -1.1723 -1.0519  0.6691
  921MOL0     H21546   8.921   3.152   2.163 -1.3949 -0.8203 -1.2011
  921MOL0     H21547   9.086   3.087   2.193 -0.3726  1.4751  0.3737
  921MOL0     H21548   8.826   2.946   2.254  0.6190 -3.1227  2.8511
  921MOL0     H21549   8.906   3.042   2.379  1.5841  2.1681 -1.1466
  921MOL0     H21550   8.988   2.780   2.252 -0.8550 -0.9696  0.9080
  921MOL0     H21551   9.111   2.885   2.331  0.5990 -0.0054  0.0272
  921MOL0     H21552   8.985   2.892   2.529 -3.4378  1.4564  0.1046
  921MOL0     H21553   9.031   2.716   2.498 -2.2957 -1.6201  0.9458
  921MOL0     H21554   8.597   2.808   1.725 -1.0528 -0.7082 -1.9645
  921MOL0     H21555   8.369   2.763   1.667  3.3622 -0.5732  0.2552
  921MOL0     H21556   7.982   2.805   1.766  0.8331 -0.3544 -0.5468
  921MOL0     H21557   7.760   2.702   1.765  1.7917 -0.4735  0.4865
  921MOL0     H21558   7.752   3.232   1.338  0.5008 -0.7949  0.2110
  921MOL0     H21559   7.994   3.243   1.305  0.2673  1.0895 -0.4047
  921MOL0     H21560   8.409   3.434   1.104 -1.4816 -2.1112 -0.3144
  921MOL0     H21561   8.628   3.407   1.089 -0.0663 -0.1299 -0.0711
  921MOL0     H21562   8.798   3.113   1.392  0.1093 -2.3546 -1.2255
  921MOL0     H21563   8.946   3.153   1.302 -0.1987  2.6572 -0.6133
  921MOL0     H21564   8.685   3.098   1.173 -1.7367 -1.6439  1.1317
  921MOL0     H21565   8.840   3.126   1.091  0.5622 -1.8862 -0.0698
  921MOL0     H21566   8.928   2.919   1.163  0.0752  3.2623 -0.5216
  921MOL0     H21567   8.779   2.902   1.075  1.4581  0.5845  0.0014
  921MOL0     H21568   8.767   2.739   1.248 -0.4431 -1.3713  0.9852
  921MOL0     H21569   8.814   2.846   1.377  1.5758 -0.5948 -1.0863
  921MOL0     H21570   8.396   2.930   1.380  0.2727 -0.3710 -1.0262
  921MOL0     H21571   8.650   3.237   1.492 -1.0579  1.5234  0.4063
  921MOL0     H21572   8.400   3.303   1.515  1.2919  1.0773  0.8821
  922MOL0     O21573   9.014   8.556   1.810  0.9273  0.0535  0.1301
  922MOL0     C21574   9.112   8.488   1.834 -0.0832  0.5954 -0.1351
  922MOL0     O21575   9.115   8.388   1.921 -0.2402 -0.1706  0.0672
  922MOL0     C21576   8.996   8.339   1.969  0.4367 -0.8690 -0.2552
  922MOL0     C21577   8.988   8.204   1.986  0.4796 -0.3325  0.8393
  922MOL0     C21578   8.872   8.139   2.033 -0.4361  0.8610  0.2921
  922MOL0     C21579   8.779   8.210   2.099  1.0875 -1.1816 -0.0500
  922MOL0     O21580   8.676   8.157   2.170  0.4046  0.9635  0.1818
  922MOL0     C21581   8.661   8.011   2.171 -0.1716 -1.1639  0.6319
  922MOL0     C21582   8.542   7.964   2.237  0.3732 -0.0940 -0.7256
  922MOL0     C21583   8.412   8.032   2.181  0.3901  0.3216 -0.1953
  922MOL0     C21584   8.280   7.971   2.237  0.5832 -0.6013 -0.5925
  922MOL0     C21585   8.156   7.987   2.139 -0.4627 -0.0605  0.1225
  922MOL0     C21586   8.033   7.960   2.222 -0.3871  0.3058 -0.3436
  922MOL0     C21587   7.902   7.936   2.144  0.2056  0.4752 -0.0564
  922MOL0     C21588   7.868   7.793   2.124 -0.1794 -0.4558 -0.2985
  922MOL0     N21589   7.745   7.775   2.049  0.3794  0.4500 -0.2589
  922MOL0     C21590   7.633   7.855   2.066  0.4649 -0.1973  1.0723
  922MOL0     C21591   7.551   7.817   1.965  0.4221 -0.5125  0.1902
  922MOL0     C21592   7.422   7.880   1.935 -0.2328 -0.1491  0.2492
  922MOL0     C21593   7.371   7.849   1.789  0.0948 -0.4811 -0.6765
  922MOL0     C21594   7.259   7.948   1.753  1.0287 -0.2758  0.3219
  922MOL0     C21595   7.148   7.929   1.862 -0.1387 -0.6976 -0.5291
  922MOL0     O21596   7.016   7.988   1.834 -0.4033 -0.2605  1.1242
  922MOL0     C21597   6.924   7.912   1.771  0.3721 -0.2685  1.1302
  922MOL0     C21598   6.802   7.963   1.754  0.0848  0.7889 -0.2460
  922MOL0     C21599   6.696   7.897   1.685  0.1981 -0.1887 -0.7243
  922MOL0     C21600   6.712   7.765   1.639 -0.2871  0.0149 -0.8303
  922MOL0     C21601   6.604   7.705   1.560  0.2067 -0.1355 -0.9846
  922MOL0     O21602   6.647   7.621   1.463 -0.6408  0.4342 -0.6621
  922MOL0     C21603   6.555   7.587   1.358  0.2278 -0.0539 -0.4271
  922MOL0     C21604   6.442   7.662   1.318  0.6001 -0.5997  0.2327
  922MOL0     C21605   6.358   7.618   1.225 -0.1453 -0.0164 -0.0101
  922MOL0     C21606   6.379   7.498   1.153 -0.2120  0.9280 -0.1888
  922MOL0     O21607   6.291   7.444   1.055 -0.2782 -0.6815 -0.0113
  922MOL0     C21608   6.157   7.496   1.066 -0.2553 -0.4925 -0.2917
  922MOL0     C21609   6.060   7.410   0.992 -0.1068 -0.9645 -0.2916
  922MOL0     C21610   5.954   7.505   0.925  0.4692 -1.4643 -0.4798
  922MOL0     C21611   5.998   7.580   0.807 -0.5037 -0.1346  0.1496
  922MOL0     C21612   5.930   7.714   0.786  0.0413  0.0371 -0.9772
  922MOL0     C21613   5.977   7.776   0.655  0.2879  0.4606  0.3606
  922MOL0     C21614   5.881   7.892   0.604 -0.6179  0.0971 -0.7697
  922MOL0     C21615   5.877   7.917   0.464 -1.0355 -0.5741 -0.1008
  922MOL0    Cl21616   5.738   8.021   0.425  0.4075 -0.6456 -0.5767
  922MOL0     C21617   6.491   7.423   1.190  0.5455  0.1358 -0.0605
  922MOL0     C21618   6.575   7.470   1.289 -0.4670  0.3506 -0.1600
  922MOL0     O21619   6.488   7.736   1.581  0.0557 -0.1303  0.1473
  922MOL0     C21620   6.843   7.710   1.650  0.5186  0.9624  0.3326
  922MOL0     C21621   6.948   7.786   1.712  0.3021 -0.0463  0.1757
  922MOL0     N21622   7.611   7.714   1.904  0.5843  0.2414  0.2386
  922MOL0     N21623   7.721   7.687   1.950 -0.5280  0.8770  0.2287
  922MOL0     C21624   8.800   8.348   2.097 -0.0393  0.3043  0.1410
  922MOL0     C21625   8.905   8.412   2.038  0.3654 -0.6707  0.3945
  922MOL0     C21626   9.239   8.535   1.782  1.5857 -0.2203  0.3812
  922MOL0     C21627   9.347   8.448   1.788  0.1692  0.2279 -0.2387
  922MOL0     C21628   9.476   8.477   1.750 -0.4001 -0.1290 -0.6287
  922MOL0     C21629   9.491   8.596   1.669 -0.0166 -0.0436  0.0348
  922MOL0     O21630   9.608   8.631   1.610  0.0509 -0.1408 -0.7318
  922MOL0     C21631   9.737   8.613   1.670  0.3590 -0.3029 -0.2409
  922MOL0     C21632   9.741   8.679   1.811 -0.2433  0.2769 -0.1200
  922MOL0     C21633   9.699   8.828   1.809 -0.0801 -0.1705 -0.1408
  922MOL0     C21634   9.748   8.918   1.696 -0.5795 -0.3952 -0.4781
  922MOL0     C21635   9.899   8.931   1.709  0.6207  0.3467  0.3482
  922MOL0     C21636  10.014   8.959   1.696 -0.6312 -1.1176 -0.5277
  922MOL0     C21637   9.381   8.680   1.645  0.1223  0.3951 -0.7339
  922MOL0     C21638   9.263   8.662   1.712  0.5365  0.7518 -0.3458
  922MOL0     H21639   9.066   8.141   1.943 -0.4766 -0.2805 -1.0623
  922MOL0     H21640   8.879   8.031   2.028  0.5274  0.8680  1.3068
  922MOL0     H21641   8.750   7.975   2.222  2.0894 -1.2628 -3.0235
  922MOL0     H21642   8.673   7.980   2.067  1.8394  3.1032 -0.5960
  922MOL0     H21643   8.550   7.978   2.345 -0.8631 -0.8726 -0.5079
  922MOL0     H21644   8.540   7.858   2.211 -0.9011  0.1012 -1.5584
  922MOL0     H21645   8.410   8.021   2.072  2.6493  2.4300 -0.5399
  922MOL0     H21646   8.419   8.139   2.203 -0.7281  0.5562 -0.8645
  922MOL0     H21647   8.292   7.865   2.260 -0.6167 -0.8995 -1.2155
  922MOL0     H21648   8.259   8.022   2.332 -0.2027 -1.7505 -0.1324
  922MOL0     H21649   8.181   7.909   2.066  2.7185  0.0246  0.9498
  922MOL0     H21650   8.153   8.083   2.087 -0.5248 -1.0270 -1.7533
  922MOL0     H21651   8.009   8.045   2.286 -0.8796  1.0518 -1.4870
  922MOL0     H21652   8.044   7.873   2.289 -1.8296  0.6803  0.4146
  922MOL0     H21653   7.817   7.983   2.193 -2.5105 -3.2036 -0.8250
  922MOL0     H21654   7.915   7.981   2.045 -0.6587  1.1013  0.1122
  922MOL0     H21655   7.856   7.738   2.218 -3.0268  2.0513  0.9791
  922MOL0     H21656   7.939   7.741   2.059 -0.2588 -1.9879  0.7806
  922MOL0     H21657   7.619   7.946   2.124 -0.8127 -0.7774  1.7089
  922MOL0     H21658   7.437   7.988   1.942  3.0409 -0.4125 -0.8482
  922MOL0     H21659   7.348   7.847   2.009 -0.8292  1.5316  0.4560
  922MOL0     H21660   7.326   7.749   1.789 -2.1187  0.3029  3.1329
  922MOL0     H21661   7.450   7.842   1.714  2.1609 -1.1764  1.4629
  922MOL0     H21662   7.305   8.047   1.757  1.8863 -0.6193 -0.7952
  922MOL0     H21663   7.216   7.924   1.656  0.4603  0.0578  0.4844
  922MOL0     H21664   7.176   7.984   1.952  1.7413 -3.0086  0.3887
  922MOL0     H21665   7.138   7.821   1.878  0.6708 -0.8941 -1.2726
  922MOL0     H21666   6.774   8.063   1.786 -1.8897 -0.1016  0.9825
  922MOL0     H21667   6.598   7.945   1.679  0.1823  0.0027  0.7153
  922MOL0     H21668   6.433   7.767   1.342 -2.7525 -0.0101 -2.7502
  922MOL0     H21669   6.272   7.680   1.202 -1.8192 -3.4933 -4.5844
  922MOL0     H21670   6.137   7.594   1.022 -2.3924 -1.0473 -0.6416
  922MOL0     H21671   6.125   7.495   1.170 -0.2608 -1.0637 -0.2935
  922MOL0     H21672   6.019   7.345   1.070  4.3659 -2.4070  1.1538
  922MOL0     H21673   6.115   7.351   0.918  0.2516 -0.6211 -0.3018
  922MOL0     H21674   5.906   7.568   1.001  1.2437 -2.8044  1.1768
  922MOL0     H21675   5.872   7.438   0.894  0.2372 -0.0747 -3.2227
  922MOL0     H21676   6.106   7.595   0.817 -0.0715 -3.3214  1.5344
  922MOL0     H21677   5.980   7.512   0.723 -1.2985 -1.2932  1.2100
  922MOL0     H21678   5.947   7.781   0.870 -0.4784  0.9511 -1.5804
  922MOL0     H21679   5.820   7.706   0.788 -0.2906  3.1098  2.6883
  922MOL0     H21680   5.978   7.701   0.575  2.3745  0.8142  0.0225
  922MOL0     H21681   6.082   7.803   0.670  0.9858 -1.4988 -0.6680
  922MOL0     H21682   5.780   7.856   0.626 -0.4789 -1.6196 -2.5543
  922MOL0     H21683   5.911   7.983   0.655  1.2271 -1.8558  1.9061
  922MOL0     H21684   5.865   7.830   0.399  0.6261  1.0503 -2.7891
  922MOL0     H21685   5.964   7.979   0.442  0.0120 -1.7413  0.6379
  922MOL0     H21686   6.507   7.327   1.141  1.6963  0.5375 -0.4989
  922MOL0     H21687   6.651   7.415   1.342 -0.5566  0.0640 -0.3210
  922MOL0     H21688   6.866   7.612   1.608  1.4471  1.4674 -0.3652
  922MOL0     H21689   7.049   7.746   1.707  0.7878  1.2390 -0.8702
  922MOL0     H21690   8.719   8.410   2.134  0.6576  2.2727 -1.4168
  922MOL0     H21691   8.902   8.521   2.033 -3.2739 -0.6919 -2.1826
  922MOL0     H21692   9.329   8.347   1.823  0.8121 -0.6412 -2.2573
  922MOL0     H21693   9.563   8.416   1.773  0.3867  1.6805  1.6749
  922MOL0     H21694   9.811   8.668   1.610  2.6816 -2.1844  0.7488
  922MOL0     H21695   9.759   8.507   1.659 -0.5337 -0.4575 -0.6561
  922MOL0     H21696   9.692   8.625   1.892 -1.6470 -1.9374 -2.2798
  922MOL0     H21697   9.848   8.676   1.836 -0.7180 -1.1859  2.0049
  922MOL0     H21698   9.723   8.880   1.902 -2.7214  3.7930 -1.4403
  922MOL0     H21699   9.591   8.826   1.796 -0.1221  0.4876  0.0615
  922MOL0     H21700   9.708   8.900   1.596 -0.5829  1.6575 -0.8916
  922MOL0     H21701   9.711   9.019   1.715  0.1215 -0.1680 -0.2763
  922MOL0     H21702  10.115   8.986   1.676 -0.6469 -1.7507 -1.5209
  922MOL0     H21703   9.379   8.757   1.569 -0.6253 -0.3658 -1.5079
  922MOL0     H21704   9.189   8.740   1.710 -0.6474 -0.3251 -0.0170
  923MOL0     O21705   5.352   7.764   8.326 -0.2322  0.3448  0.4912
  923MOL0     C21706   5.362   7.728   8.211 -1.4808 -0.0932  0.9807
  923MOL0     O21707   5.449   7.773   8.123  0.2419 -0.2881  0.9938
  923MOL0     C21708   5.535   7.873   8.162  0.7242 -0.2079 -0.3047
  923MOL0     C21709   5.673   7.831   8.178  0.5469 -0.8038  0.0689
  923MOL0     C21710   5.773   7.925   8.216  0.3317  0.6128  0.3654
  923MOL0     C21711   5.738   8.058   8.242  0.7340 -0.6555  0.4800
  923MOL0     O21712   5.824   8.148   8.303 -0.3286 -0.7640 -0.2205
  923MOL0     C21713   5.959   8.106   8.326  0.8340 -0.0850 -0.1095
  923MOL0     C21714   6.040   8.225   8.380 -0.5108  0.8020  0.7275
  923MOL0     C21715   5.961   8.309   8.483 -0.3398 -0.1213  1.2030
  923MOL0     C21716   6.050   8.415   8.551 -0.3441  0.7283  0.0493
  923MOL0     C21717   5.960   8.515   8.624 -0.7521 -0.2557 -0.2416
  923MOL0     C21718   6.062   8.622   8.673 -1.0141 -0.8862 -0.2863
  923MOL0     C21719   5.987   8.724   8.775  0.1145 -0.4902  0.4544
  923MOL0     C21720   6.074   8.833   8.829 -0.0118 -0.0291  0.3222
  923MOL0     N21721   6.013   8.872   8.957  0.5884  0.3445  0.0963
  923MOL0     C21722   6.056   8.845   9.086  0.5585  0.0422 -0.2825
  923MOL0     C21723   5.962   8.896   9.165  0.9624 -0.5293  0.0585
  923MOL0     C21724   5.946   8.895   9.317  0.0705  0.1706  1.4068
  923MOL0     C21725   5.830   8.800   9.351 -0.1362 -0.2998  0.3385
  923MOL0     C21726   5.838   8.739   9.493  0.3700  0.5151  0.0296
  923MOL0     C21727   5.705   8.675   9.518  0.5947  0.9048 -1.3427
  923MOL0     O21728   5.711   8.614   9.646  0.1591 -0.0339  0.2290
  923MOL0     C21729   5.613   8.521   9.660  0.6977 -0.1192  0.2126
  923MOL0     C21730   5.500   8.505   9.586  0.9404  0.6985 -0.5688
  923MOL0     C21731   5.403   8.410   9.623 -0.0221 -0.1491  0.5306
  923MOL0     C21732   5.433   8.314   9.723  0.5026 -0.3383  0.3281
  923MOL0     C21733   5.347   8.202   9.745 -0.4290  0.8751  0.0295
  923MOL0     O21734   5.256   8.177   9.644 -0.5207  0.6967  0.9281
  923MOL0     C21735   5.159   8.076   9.648 -0.5189 -0.0362  0.0709
  923MOL0     C21736   5.175   7.977   9.557 -0.2597  0.0230  0.4414
  923MOL0     C21737   5.089   7.872   9.567 -0.5407  1.1695 -0.7112
  923MOL0     C21738   5.003   7.850   9.680  0.3497  0.3906  0.0236
  923MOL0     O21739   4.915   7.735   9.676  0.2624 -0.2344  0.3534
  923MOL0     C21740   4.904   7.663   9.801 -0.5153  0.7582 -0.9427
  923MOL0     C21741   5.035   7.602   9.852  0.2136 -0.0980  0.5955
  923MOL0     C21742   5.064   7.489   9.761  0.8471  0.4738  0.3113
  923MOL0     C21743   5.204   7.424   9.790 -0.2677  0.3757 -0.0498
  923MOL0     C21744   5.201   7.276   9.749 -0.2942 -0.1902  0.0520
  923MOL0     C21745   5.196   7.247   9.595  0.4378  0.3307  0.3085
  923MOL0     C21746   5.131   7.111   9.564  0.3281  0.5174 -0.4068
  923MOL0     C21747   4.989   7.088   9.615 -0.1044 -0.1819 -0.5004
  923MOL0    Cl21748   4.900   6.968   9.498 -0.1313  0.4220 -0.5845
  923MOL0     C21749   4.995   7.952   9.773  0.1052  0.1336  0.3060
  923MOL0     C21750   5.073   8.063   9.758 -0.4499 -0.3058  0.8038
  923MOL0     O21751   5.365   8.132   9.847 -0.1477  0.1491 -0.2713
  923MOL0     C21752   5.550   8.327   9.794  0.4056  0.4168 -0.5562
  923MOL0     C21753   5.630   8.436   9.772  0.8213 -0.7107  0.8106
  923MOL0     N21754   5.862   8.951   9.089  0.0128 -0.1271 -0.6626
  923MOL0     N21755   5.887   8.928   8.960 -0.1575  0.4471 -0.2986
  923MOL0     C21756   5.604   8.095   8.217  1.1540 -0.4689  0.3871
  923MOL0     C21757   5.505   8.006   8.190 -0.2369 -0.1677  0.1630
  923MOL0     C21758   5.266   7.634   8.154  0.0391 -0.8614 -0.4192
  923MOL0     C21759   5.290   7.559   8.037  0.9450 -0.4468  0.7530
  923MOL0     C21760   5.197   7.477   7.977  1.2348 -0.5451  1.0414
  923MOL0     C21761   5.070   7.464   8.039  1.2098  0.9369  1.6749
  923MOL0     O21762   4.991   7.373   7.973  0.4051 -0.1797  0.0793
  923MOL0     C21763   4.854   7.354   8.000  0.5223 -0.1026  0.5010
  923MOL0     C21764   4.835   7.250   8.114 -1.0348 -0.4206 -0.0802
  923MOL0     C21765   4.689   7.203   8.149 -0.3768 -0.5990  0.2470
  923MOL0     C21766   4.665   7.051   8.136  0.1535 -0.4675 -0.2623
  923MOL0     C21767   4.746   6.977   8.234 -0.2613 -0.2267 -0.8726
  923MOL0     C21768   4.809   6.916   8.316  0.5847 -1.0738  0.0148
  923MOL0     C21769   5.040   7.537   8.151 -0.9505 -0.7906  0.1285
  923MOL0     C21770   5.138   7.622   8.217 -0.4094 -0.4131  0.1933
  923MOL0     H21771   5.684   7.725   8.155 -1.1432 -0.6119 -1.9573
  923MOL0     H21772   5.868   7.876   8.230 -0.3718 -0.1499  3.1428
  923MOL0     H21773   5.999   8.079   8.228 -1.8751  1.6467 -1.8374
  923MOL0     H21774   5.954   8.034   8.408 -0.6804  0.8809  0.6927
  923MOL0     H21775   6.074   8.286   8.296 -1.2153  2.2988  1.4797
  923MOL0     H21776   6.126   8.175   8.425  0.9261  0.7355 -1.8654
  923MOL0     H21777   5.913   8.241   8.553  0.5387 -2.5826 -0.4337
  923MOL0     H21778   5.878   8.351   8.425  0.0116 -0.7317  0.2217
  923MOL0     H21779   6.127   8.375   8.617 -0.5936  3.0118  1.8574
  923MOL0     H21780   6.107   8.459   8.469  2.9951 -2.6138  0.3026
  923MOL0     H21781   5.918   8.472   8.715  4.4152 -0.0759  2.5889
  923MOL0     H21782   5.890   8.560   8.553  0.5061  1.5178 -0.4153
  923MOL0     H21783   6.107   8.684   8.595 -0.3350  1.0371  1.5208
  923MOL0     H21784   6.144   8.575   8.727 -0.4494  2.5824  2.2606
  923MOL0     H21785   5.904   8.769   8.719  1.4803  0.9418 -0.4926
  923MOL0     H21786   5.942   8.667   8.857 -3.1558  1.8870  0.5060
  923MOL0     H21787   6.078   8.919   8.762 -0.5453 -0.3019 -0.0707
  923MOL0     H21788   6.174   8.790   8.836  1.1159  2.3088 -0.4378
  923MOL0     H21789   6.150   8.806   9.124  1.1286  0.2979 -1.4045
  923MOL0     H21790   5.925   8.995   9.355 -3.5540 -0.1485  0.5878
  923MOL0     H21791   6.038   8.854   9.359 -1.5256 -1.0974  3.9272
  923MOL0     H21792   5.828   8.718   9.279  1.8263 -0.4763  0.4186
  923MOL0     H21793   5.735   8.854   9.343 -1.1214 -2.1082 -0.7762
  923MOL0     H21794   5.920   8.670   9.511  0.0876  0.0151 -0.5782
  923MOL0     H21795   5.861   8.823   9.560 -0.4634  2.3445 -1.8580
  923MOL0     H21796   5.700   8.590   9.449 -0.6384  0.4019 -0.6850
  923MOL0     H21797   5.627   8.752   9.517 -0.7022 -0.2101  1.2922
  923MOL0     H21798   5.483   8.584   9.513  1.5528  0.7541 -0.6537
  923MOL0     H21799   5.303   8.409   9.581  0.8632  1.0695 -1.8048
  923MOL0     H21800   5.246   7.984   9.476 -1.2202 -0.8320 -0.5107
  923MOL0     H21801   5.084   7.787   9.500 -1.4485  0.0989  0.6697
  923MOL0     H21802   4.824   7.589   9.790 -1.2163  1.8867 -4.3898
  923MOL0     H21803   4.880   7.729   9.884  3.1818  1.5627 -0.3060
  923MOL0     H21804   5.019   7.562   9.953  0.7862 -3.7998 -0.6000
  923MOL0     H21805   5.118   7.673   9.851  0.0107  0.1564 -1.2015
  923MOL0     H21806   5.061   7.528   9.659  0.5000  1.1586  0.5741
  923MOL0     H21807   4.988   7.410   9.769 -0.2499  1.2959 -1.4617
  923MOL0     H21808   5.284   7.477   9.738  0.0121 -1.7330 -1.8823
  923MOL0     H21809   5.225   7.419   9.897 -1.1537 -2.4296  0.0675
  923MOL0     H21810   5.130   7.228   9.816  0.1725  0.3369  0.9499
  923MOL0     H21811   5.294   7.227   9.778 -0.4811 -0.2864  0.4950
  923MOL0     H21812   5.293   7.253   9.545  0.3688  0.1484  0.1564
  923MOL0     H21813   5.140   7.326   9.545 -2.4624 -1.4215  0.6103
  923MOL0     H21814   5.126   7.102   9.455 -1.6796  0.0369 -0.3075
  923MOL0     H21815   5.193   7.026   9.597 -1.0112 -0.4628 -0.3334
  923MOL0     H21816   4.934   7.181   9.605 -0.6573 -0.5249 -0.6712
  923MOL0     H21817   4.987   7.056   9.720  0.8905  2.7675  0.5236
  923MOL0     H21818   4.915   7.944   9.846  1.5848  2.6069  2.3662
  923MOL0     H21819   5.067   8.149   9.824  1.5705  0.5484 -0.0524
  923MOL0     H21820   5.572   8.259   9.876 -0.5651  2.4174  1.5057
  923MOL0     H21821   5.720   8.447   9.832  0.9283  0.9557  0.4081
  923MOL0     H21822   5.575   8.199   8.230  2.5723 -0.0943  0.7765
  923MOL0     H21823   5.399   8.028   8.184  0.0098  1.0408  0.0127
  923MOL0     H21824   5.383   7.574   7.982  0.5838  1.9701  0.6765
  923MOL0     H21825   5.227   7.420   7.890 -0.6141  0.2415 -0.1882
  923MOL0     H21826   4.823   7.298   7.912  0.7575  1.0843 -0.3730
  923MOL0     H21827   4.788   7.441   8.001 -1.7636 -1.7258 -0.8691
  923MOL0     H21828   4.891   7.160   8.087  0.3040  0.5083 -0.5346
  923MOL0     H21829   4.873   7.280   8.212 -0.2901 -1.3308 -0.0799
  923MOL0     H21830   4.621   7.259   8.084  1.3153 -1.1061 -2.0793
  923MOL0     H21831   4.670   7.218   8.256 -1.2956  1.3570 -0.1533
  923MOL0     H21832   4.562   7.015   8.151  0.9842 -2.3408  1.2360
  923MOL0     H21833   4.694   7.029   8.033 -3.2106 -2.4339 -0.9530
  923MOL0     H21834   4.866   6.854   8.382 -0.4479 -0.6161  1.3825
  923MOL0     H21835   4.949   7.521   8.207  0.1442 -2.0317  1.6452
  923MOL0     H21836   5.115   7.676   8.308 -0.1600 -3.2733  2.0729
  924MOL0     O21837   0.899   1.137  10.798 -0.2854 -1.0346  0.4268
  924MOL0     C21838   0.929   1.261  10.768  0.1335 -0.0404  1.0588
  924MOL0     O21839   0.886   1.323  10.647  0.7785  0.7266 -0.1653
  924MOL0     C21840   0.781   1.260  10.573 -0.1201  0.7327 -0.3846
  924MOL0     C21841   0.683   1.338  10.527 -0.6775 -0.0583 -0.5931
  924MOL0     C21842   0.575   1.291  10.453  0.0669 -0.2507 -0.3797
  924MOL0     C21843   0.566   1.158  10.410  0.3089 -0.1632 -0.1460
  924MOL0     O21844   0.475   1.115  10.315  0.3985  0.1700  0.7045
  924MOL0     C21845   0.471   0.978  10.265 -0.0787 -0.9661 -0.1088
  924MOL0     C21846   0.368   0.936  10.151 -0.9617  0.3574 -0.7972
  924MOL0     C21847   0.220   0.954  10.188  0.3744  0.2328 -0.0541
  924MOL0     C21848   0.124   0.950  10.075 -0.6915  0.2821 -0.1970
  924MOL0     C21849  -0.024   0.929  10.119 -0.6744  0.4281 -0.0617
  924MOL0     C21850  -0.113   0.955   9.999  0.2900  0.1392 -0.4224
  924MOL0     C21851  -0.266   0.922  10.012  0.1262 -0.6254 -0.1031
  924MOL0     C21852  -0.340   1.005   9.909 -0.1269  0.1281  0.2056
  924MOL0     N21853  -0.483   0.983   9.913 -0.8556  0.1018  0.0312
  924MOL0     C21854  -0.569   1.003  10.016 -1.0457 -0.5378 -0.3702
  924MOL0     C21855  -0.687   1.001   9.958  0.8849  0.4423  0.8723
  924MOL0     C21856  -0.826   1.014  10.020  0.4520  0.0334 -1.0368
  924MOL0     C21857  -0.903   0.881  10.036  0.2238  1.0062  1.0835
  924MOL0     C21858  -0.935   0.805   9.903  0.1403 -0.2155  0.5081
  924MOL0     C21859  -1.045   0.876   9.821 -0.0175 -0.1933 -0.4106
  924MOL0     O21860  -1.171   0.843   9.886  0.5991  0.7351  0.3898
  924MOL0     C21861  -1.288   0.842   9.807 -0.2583 -0.2639  1.3409
  924MOL0     C21862  -1.403   0.778   9.847 -0.1147 -0.4700  0.7344
  924MOL0     C21863  -1.522   0.766   9.771  0.6511  0.1245  0.7992
  924MOL0     C21864  -1.530   0.831   9.647  0.4088  0.0891  0.4618
  924MOL0     C21865  -1.649   0.818   9.563 -0.5934  0.1370 -0.2560
  924MOL0     O21866  -1.745   0.740   9.613 -0.3694 -0.4596 -0.2262
  924MOL0     C21867  -1.850   0.700   9.548  0.2561 -0.4983 -0.7985
  924MOL0     C21868  -1.888   0.572   9.570 -1.6272  0.3604 -0.5799
  924MOL0     C21869  -2.011   0.524   9.532 -0.9406 -0.6629  0.7903
  924MOL0     C21870  -2.095   0.610   9.453 -0.6357 -0.1530 -0.2752
  924MOL0     O21871  -2.211   0.563   9.401 -0.4884 -0.1738  0.0660
  924MOL0     C21872  -2.335   0.643   9.408 -0.2542  0.2297  0.0518
  924MOL0     C21873  -2.408   0.592   9.528 -0.5362  0.3150  0.1266
  924MOL0     C21874  -2.455   0.699   9.626 -0.0798  0.5371 -0.2768
  924MOL0     C21875  -2.559   0.641   9.724  0.2745  0.2409 -0.0618
  924MOL0     C21876  -2.597   0.728   9.848  0.0886 -0.0257  0.2270
  924MOL0     C21877  -2.720   0.675   9.934  0.3866 -1.2954 -0.5509
  924MOL0     C21878  -2.846   0.702   9.849 -0.8389  0.4028 -0.7876
  924MOL0     C21879  -2.962   0.619   9.903  0.0049  0.0643  0.2833
  924MOL0    Cl21880  -2.958   0.439   9.843  0.0849  0.4449 -0.3041
  924MOL0     C21881  -2.053   0.746   9.437 -0.6804  0.4325  0.5416
  924MOL0     C21882  -1.936   0.792   9.487 -0.4813  0.0892 -0.8157
  924MOL0     O21883  -1.641   0.855   9.445 -0.3559 -0.2756 -0.1415
  924MOL0     C21884  -1.408   0.889   9.604  0.0200  0.5327  0.0054
  924MOL0     C21885  -1.297   0.900   9.682 -0.3392 -0.1944 -0.4804
  924MOL0     N21886  -0.681   0.989   9.829  0.0613  0.1436 -0.0890
  924MOL0     N21887  -0.561   1.001   9.803 -0.1428 -0.3858  0.4020
  924MOL0     C21888   0.674   1.080  10.452 -0.2701  0.1091  0.0110
  924MOL0     C21889   0.770   1.121  10.543  0.2229 -0.0073 -0.0591
  924MOL0     C21890   1.038   1.323  10.838  0.0242  0.5048 -0.3397
  924MOL0     C21891   1.047   1.458  10.832 -0.3583 -0.3324 -0.8215
  924MOL0     C21892   1.136   1.535  10.917  0.2931  0.5538  0.6382
  924MOL0     C21893   1.223   1.465  11.002 -0.8330  0.1272 -0.6136
  924MOL0     O21894   1.305   1.543  11.080  0.7261  0.3845 -0.0700
  924MOL0     C21895   1.376   1.472  11.174 -0.2667  0.7295  0.5774
  924MOL0     C21896   1.477   1.573  11.223  0.0924  0.1600  0.6150
  924MOL0     C21897   1.591   1.585  11.119 -0.4370 -0.8166  1.2624
  924MOL0     C21898   1.705   1.674  11.171  0.6301  0.4787 -0.0971
  924MOL0     C21899   1.805   1.605  11.252 -0.2760  0.4654 -1.0891
  924MOL0     C21900   1.902   1.547  11.306 -0.3947  0.5103  0.7387
  924MOL0     C21901   1.206   1.329  11.010  0.6688 -0.3642 -0.8612
  924MOL0     C21902   1.118   1.257  10.938 -0.0467 -0.9068  0.5557
  924MOL0     H21903   0.687   1.442  10.555 -0.7190  0.0713 -1.0606
  924MOL0     H21904   0.498   1.356  10.414 -1.7871 -1.7724  0.6158
  924MOL0     H21905   0.469   0.914  10.354 -2.6153  0.0215  0.6335
  924MOL0     H21906   0.564   0.960  10.211  0.1577 -0.2743  0.0529
  924MOL0     H21907   0.397   0.835  10.119  1.2144 -0.8106  3.8875
  924MOL0     H21908   0.384   1.000  10.064 -0.4631 -0.1565 -1.0970
  924MOL0     H21909   0.198   1.057  10.218 -2.7582 -0.5215  0.5842
  924MOL0     H21910   0.201   0.884  10.270  0.7455  0.9634  0.6753
  924MOL0     H21911   0.137   1.045  10.023 -0.7508 -0.1863 -1.0895
  924MOL0     H21912   0.160   0.870  10.010  2.5163  2.4430 -1.3239
  924MOL0     H21913  -0.038   1.003  10.198  1.1016 -0.3986  1.0883
  924MOL0     H21914  -0.048   0.828  10.151  0.4853 -0.0584 -0.6642
  924MOL0     H21915  -0.075   0.891   9.919 -0.3903 -0.6353 -0.1457
  924MOL0     H21916  -0.104   1.061   9.974  0.3696  0.3588  0.4835
  924MOL0     H21917  -0.279   0.816   9.990 -0.4249 -0.8250  1.1501
  924MOL0     H21918  -0.315   0.937  10.108  1.0009  2.9044 -0.0526
  924MOL0     H21919  -0.308   1.002   9.804  1.2896  0.9352  0.5893
  924MOL0     H21920  -0.334   1.113   9.929 -3.2130  0.2789  0.8251
  924MOL0     H21921  -0.560   1.026  10.121 -3.5046  0.8985 -0.4011
  924MOL0     H21922  -0.884   1.087   9.963 -1.3753 -0.6150 -0.0807
  924MOL0     H21923  -0.815   1.049  10.123 -3.1914 -0.5707 -0.3013
  924MOL0     H21924  -0.994   0.903  10.093 -1.3689 -2.6282  0.2475
  924MOL0     H21925  -0.843   0.808  10.091 -0.0522 -0.4690 -0.5121
  924MOL0     H21926  -0.845   0.791   9.843 -0.0831 -2.0722  0.5557
  924MOL0     H21927  -0.967   0.702   9.921  1.2285 -1.1043 -2.1442
  924MOL0     H21928  -1.052   0.841   9.717 -2.3169 -1.5978  0.1448
  924MOL0     H21929  -1.026   0.984   9.822  1.5840 -0.4361 -1.4465
  924MOL0     H21930  -1.398   0.728   9.944  5.4447  2.1716  2.2466
  924MOL0     H21931  -1.615   0.727   9.810 -0.6351  1.0887 -1.0954
  924MOL0     H21932  -1.823   0.508   9.628 -0.9641 -0.7935 -2.4901
  924MOL0     H21933  -2.041   0.421   9.549 -1.1907 -0.4356  1.8248
  924MOL0     H21934  -2.389   0.628   9.314 -0.2431  2.5183 -0.3673
  924MOL0     H21935  -2.313   0.750   9.416  1.8913 -0.0618 -1.2812
  924MOL0     H21936  -2.359   0.513   9.585 -2.1674  0.1896  1.4490
  924MOL0     H21937  -2.493   0.541   9.481 -2.6730  5.4044 -2.3060
  924MOL0     H21938  -2.506   0.784   9.581 -0.4199 -0.0528 -1.0149
  924MOL0     H21939  -2.369   0.725   9.689  0.6283 -1.2987 -0.4275
  924MOL0     H21940  -2.645   0.622   9.659 -0.8171  2.2923  0.6874
  924MOL0     H21941  -2.526   0.544   9.761 -1.4401  0.8229  3.4601
  924MOL0     H21942  -2.620   0.829   9.815 -4.8428 -0.1564  2.4490
  924MOL0     H21943  -2.511   0.737   9.914 -2.0664  2.2884  2.9269
  924MOL0     H21944  -2.722   0.713  10.036  1.0635 -2.0371 -0.2513
  924MOL0     H21945  -2.702   0.569   9.954  1.2546 -0.9934  0.3227
  924MOL0     H21946  -2.855   0.810   9.868  0.1742  0.4890 -0.7180
  924MOL0     H21947  -2.838   0.677   9.743  0.0218  4.3333 -1.8381
  924MOL0     H21948  -3.058   0.661   9.874 -0.4336  0.0068  1.5871
  924MOL0     H21949  -2.940   0.613  10.011  0.0897 -0.5681  0.2374
  924MOL0     H21950  -2.114   0.807   9.371 -1.4932 -0.7436  0.1717
  924MOL0     H21951  -1.919   0.899   9.473 -2.4182  1.0425  2.7780
  924MOL0     H21952  -1.408   0.942   9.509 -1.2736 -0.4670 -0.5783
  924MOL0     H21953  -1.219   0.960   9.636 -0.6107 -0.4290 -1.2460
  924MOL0     H21954   0.672   0.973  10.433  1.1296 -0.2499  1.6199
  924MOL0     H21955   0.848   1.056  10.581 -0.9493  0.1418  2.9213
  924MOL0     H21956   0.984   1.523  10.772  0.5732  1.5418  0.1357
  924MOL0     H21957   1.150   1.640  10.898 -1.9374  0.9678  1.0186
  924MOL0     H21958   1.429   1.386  11.132  0.1177  1.0696  0.3577
  924MOL0     H21959   1.322   1.425  11.257  2.0835  0.5720  2.1080
  924MOL0     H21960   1.425   1.668  11.230 -1.7982 -0.8814  1.4223
  924MOL0     H21961   1.505   1.541  11.324  1.4594  1.2792  0.6274
  924MOL0     H21962   1.547   1.635  11.033  0.9114  1.5685  1.8772
  924MOL0     H21963   1.625   1.490  11.076  1.3483 -0.1256  1.0602
  924MOL0     H21964   1.754   1.699  11.076 -0.7014 -1.2125 -1.2926
  924MOL0     H21965   1.666   1.759  11.228  0.1931  0.2439 -0.0448
  924MOL0     H21966   1.974   1.488  11.359 -0.2134  1.1100  1.1775
  924MOL0     H21967   1.264   1.271  11.081  0.1254 -2.3211 -1.9404
  924MOL0     H21968   1.115   1.154  10.971  1.9997 -1.1512  0.1213
  925MOL0     O21969  11.166   4.707   2.061 -0.1381  0.4367  0.2785
  925MOL0     C21970  11.222   4.815   2.065 -0.2139  0.2119  0.0145
  925MOL0     O21971  11.165   4.936   2.091  0.3567  0.0445  0.1236
  925MOL0     C21972  11.029   4.939   2.116 -0.0963 -0.4581 -0.4979
  925MOL0     C21973  10.984   4.890   2.242 -0.5563 -0.2204  1.2172
  925MOL0     C21974  10.852   4.903   2.280  0.6703  0.2006 -0.7272
  925MOL0     C21975  10.765   4.988   2.210  0.6769 -0.5293  0.0056
  925MOL0     O21976  10.637   5.024   2.253  0.6142 -0.1261  0.0839
  925MOL0     C21977  10.634   5.145   2.335 -0.7784  0.0235 -0.5394
  925MOL0     C21978  10.486   5.171   2.385  0.3851  0.2275 -0.0650
  925MOL0     C21979  10.386   5.153   2.273  0.1461  0.3936  0.0763
  925MOL0     C21980  10.240   5.171   2.306  0.3452  0.0143  0.0387
  925MOL0     C21981  10.155   5.161   2.177 -0.0145  0.1189 -1.1921
  925MOL0     C21982  10.008   5.195   2.192 -0.1094  0.2448 -0.2782
  925MOL0     C21983   9.939   5.096   2.286  0.6135  0.1222 -0.5175
  925MOL0     C21984   9.792   5.128   2.327 -0.0393 -0.7076 -0.5511
  925MOL0     N21985   9.701   5.098   2.214 -0.3733  0.7011 -1.2108
  925MOL0     C21986   9.668   4.974   2.156  0.7337 -0.2036  0.3854
  925MOL0     C21987   9.585   5.003   2.054 -0.2205  0.3792 -0.1109
  925MOL0     C21988   9.519   4.905   1.946 -0.6472  0.6880 -0.2521
  925MOL0     C21989   9.377   4.947   1.914 -0.4337 -0.0988  0.2227
  925MOL0     C21990   9.312   4.836   1.834  0.1792 -0.1376  0.6124
  925MOL0     C21991   9.169   4.899   1.792 -0.1882  0.7103 -0.0760
  925MOL0     O21992   9.100   4.779   1.740 -0.3801 -0.5859 -0.2280
  925MOL0     C21993   8.971   4.778   1.718  0.3216 -0.0182  1.4151
  925MOL0     C21994   8.923   4.678   1.636  0.6548 -0.1874  0.8860
  925MOL0     C21995   8.784   4.662   1.614 -0.4600  0.8158 -0.5406
  925MOL0     C21996   8.693   4.740   1.685  0.8206 -0.1359 -0.5425
  925MOL0     C21997   8.551   4.708   1.671  1.4208 -0.7454  0.4726
  925MOL0     O21998   8.509   4.606   1.590 -0.4031 -0.1366  0.5118
  925MOL0     C21999   8.384   4.572   1.559  0.1276  0.2347 -0.0305
  925MOL0     C22000   8.371   4.468   1.472  0.5215 -0.3963 -0.0404
  925MOL0     C22001   8.241   4.420   1.441  0.1840  0.4205  0.7239
  925MOL0     C22002   8.124   4.454   1.512 -1.2510 -0.1678 -0.4665
  925MOL0     O22003   8.006   4.416   1.462  0.2142  0.2300 -0.0501
  925MOL0     C22004   7.888   4.482   1.515  0.0122 -0.3581  0.4817
  925MOL0     C22005   7.762   4.430   1.439 -0.0083 -1.3556  0.0838
  925MOL0     C22006   7.763   4.466   1.289 -0.0378 -0.2230  0.0910
  925MOL0     C22007   7.678   4.369   1.211  0.8889  0.6904  0.1819
  925MOL0     C22008   7.692   4.375   1.064 -0.8236  1.0857 -0.7143
  925MOL0     C22009   7.590   4.275   0.999  0.2214 -0.1431  0.3115
  925MOL0     C22010   7.456   4.340   0.988 -0.8741  1.1788 -0.4400
  925MOL0     C22011   7.347   4.264   0.913 -0.0041 -0.5577 -0.8602
  925MOL0    Cl22012   7.249   4.153   1.022  0.3029 -0.0584 -0.1020
  925MOL0     C22013   8.145   4.558   1.609 -0.6869  0.4929 -0.1323
  925MOL0     C22014   8.268   4.610   1.630 -0.1345 -0.5751 -0.0221
  925MOL0     O22015   8.480   4.790   1.723 -0.2970 -0.2295 -0.9289
  925MOL0     C22016   8.743   4.837   1.771 -0.0578  0.1398 -0.5135
  925MOL0     C22017   8.882   4.858   1.786  0.3285 -1.2277 -0.0926
  925MOL0     N22018   9.571   5.143   2.048  0.5986 -0.4439 -0.2451
  925MOL0     N22019   9.643   5.198   2.138  0.6808 -0.2896  0.2313
  925MOL0     C22020  10.815   5.034   2.082  0.5882 -0.0510 -0.1996
  925MOL0     C22021  10.943   5.009   2.033 -0.0957  0.7111 -0.3621
  925MOL0     C22022  11.371   4.812   2.051  0.1500  0.4347  0.2599
  925MOL0     C22023  11.437   4.687   2.055 -0.2169 -1.0863 -0.7607
  925MOL0     C22024  11.571   4.680   2.029  0.1404 -0.5863  0.3015
  925MOL0     C22025  11.647   4.796   2.007 -0.2054  0.0516  0.4036
  925MOL0     O22026  11.783   4.796   1.987 -0.3782 -0.1292  0.6774
  925MOL0     C22027  11.846   4.718   2.085 -0.3953 -0.3082 -0.4272
  925MOL0     C22028  11.993   4.768   2.061 -0.3338 -0.0493  0.4716
  925MOL0     C22029  12.103   4.676   2.129  0.1858  0.8564 -0.1273
  925MOL0     C22030  12.126   4.704   2.278  0.1497 -0.4585  0.2473
  925MOL0     C22031  12.244   4.627   2.337 -0.0555 -0.1151  0.0237
  925MOL0     C22032  12.331   4.555   2.380  0.4236  0.6160  0.3010
  925MOL0     C22033  11.587   4.925   2.013 -1.0202 -0.5799 -0.9929
  925MOL0     C22034  11.455   4.935   2.029  0.3794 -0.3948 -0.1758
  925MOL0     H22035  11.051   4.827   2.300 -0.2031 -0.2863  0.7368
  925MOL0     H22036  10.811   4.856   2.369 -0.2931  1.6582 -0.3629
  925MOL0     H22037  10.680   5.226   2.278  2.0259 -1.1519 -0.1633
  925MOL0     H22038  10.696   5.129   2.425 -3.7670  0.5156  1.7476
  925MOL0     H22039  10.473   5.270   2.431 -0.2461  0.1008  0.0432
  925MOL0     H22040  10.469   5.102   2.468 -1.5197 -0.3463 -0.8756
  925MOL0     H22041  10.400   5.051   2.236 -1.1377  0.8837 -1.9268
  925MOL0     H22042  10.412   5.222   2.192  0.0703 -0.6396 -0.8592
  925MOL0     H22043  10.225   5.097   2.385  1.0390  0.1947  0.3531
  925MOL0     H22044  10.225   5.269   2.353  0.4623 -0.4478  1.0547
  925MOL0     H22045  10.156   5.059   2.138 -1.0165 -1.3565  2.2076
  925MOL0     H22046  10.207   5.219   2.101 -0.6667  0.6917 -1.2072
  925MOL0     H22047   9.968   5.194   2.090 -1.8164  0.7511  0.3568
  925MOL0     H22048  10.005   5.297   2.229 -0.0368 -0.5326  2.0248
  925MOL0     H22049   9.935   4.999   2.234  1.4213 -0.7195  0.9395
  925MOL0     H22050   9.999   5.084   2.376  1.4470  3.4606 -0.5238
  925MOL0     H22051   9.776   5.232   2.357 -2.8928 -0.6205 -2.0776
  925MOL0     H22052   9.760   5.070   2.415  1.2030  2.0966  1.9364
  925MOL0     H22053   9.688   4.869   2.178 -1.1847 -0.6359  0.2900
  925MOL0     H22054   9.518   4.808   1.995 -0.3501  0.2734 -1.0387
  925MOL0     H22055   9.585   4.899   1.859  4.5359 -1.1665  3.3551
  925MOL0     H22056   9.362   5.039   1.857  2.0621 -0.4946 -1.2402
  925MOL0     H22057   9.328   4.959   2.011  2.5167 -0.9864  1.9568
  925MOL0     H22058   9.362   4.802   1.743 -0.0987  0.3402  0.2733
  925MOL0     H22059   9.301   4.752   1.902 -0.1630  1.0744  2.1112
  925MOL0     H22060   9.168   4.979   1.717 -1.0359 -2.6371 -3.9958
  925MOL0     H22061   9.124   4.927   1.888  1.7883  1.3857  0.7116
  925MOL0     H22062   8.992   4.612   1.585 -0.1528 -1.5660  1.5340
  925MOL0     H22063   8.752   4.582   1.547  1.0977 -0.9863  0.7511
  925MOL0     H22064   8.453   4.436   1.408  0.7664 -0.9930  0.5546
  925MOL0     H22065   8.237   4.362   1.350  3.4407  1.3026 -0.0998
  925MOL0     H22066   7.895   4.591   1.508 -0.7507 -0.3586 -0.4629
  925MOL0     H22067   7.875   4.466   1.623 -2.1521 -0.7511  0.2069
  925MOL0     H22068   7.682   4.486   1.488 -1.5973 -0.9174 -2.7603
  925MOL0     H22069   7.736   4.326   1.459 -5.8445 -0.7723 -2.4687
  925MOL0     H22070   7.865   4.464   1.250 -0.3384 -0.3036 -0.7049
  925MOL0     H22071   7.718   4.564   1.272 -1.4997 -0.9077 -0.1667
  925MOL0     H22072   7.701   4.266   1.241  0.6151  1.2913  2.6461
  925MOL0     H22073   7.572   4.376   1.237 -0.6196  3.8056 -5.2508
  925MOL0     H22074   7.793   4.335   1.047 -1.1470  0.4099 -1.0974
  925MOL0     H22075   7.692   4.478   1.026 -1.2514  1.2800 -0.1932
  925MOL0     H22076   7.588   4.177   1.047  1.5453  0.4920  1.7593
  925MOL0     H22077   7.611   4.255   0.893  1.3417  0.4021  0.4139
  925MOL0     H22078   7.431   4.352   1.094 -0.0568  0.5105 -0.1595
  925MOL0     H22079   7.466   4.442   0.950 -1.0276  1.6813  0.8320
  925MOL0     H22080   7.379   4.197   0.833 -0.0930 -1.2669 -0.3104
  925MOL0     H22081   7.284   4.342   0.870 -1.8737 -0.0470  2.4856
  925MOL0     H22082   8.069   4.588   1.679  0.6942 -0.8759  2.0905
  925MOL0     H22083   8.282   4.681   1.711  1.6586  1.0416 -1.6553
  925MOL0     H22084   8.671   4.895   1.827 -1.8046 -1.5189 -0.9426
  925MOL0     H22085   8.916   4.940   1.849  1.2566 -1.4669 -0.2598
  925MOL0     H22086  10.744   5.090   2.022  1.7437 -0.5474 -2.1015
  925MOL0     H22087  10.988   5.034   1.937 -0.4870  0.5251 -0.5926
  925MOL0     H22088  11.378   4.596   2.062 -1.6517 -0.1469 -0.2758
  925MOL0     H22089  11.620   4.584   2.028  1.4966 -0.0398 -3.4660
  925MOL0     H22090  11.837   4.611   2.064 -1.6106 -0.1716 -0.7002
  925MOL0     H22091  11.807   4.742   2.184 -1.5321 -2.3868 -0.2997
  925MOL0     H22092  12.014   4.760   1.953  0.2058  1.5749  0.4322
  925MOL0     H22093  12.011   4.868   2.101 -1.0535 -0.0843  0.9109
  925MOL0     H22094  12.197   4.701   2.079 -0.3624 -2.0130 -2.9112
  925MOL0     H22095  12.091   4.570   2.104 -1.3752  1.0966 -0.5178
  925MOL0     H22096  12.142   4.812   2.291 -2.7970 -0.0415  1.2660
  925MOL0     H22097  12.033   4.679   2.329 -0.9009  1.1139 -0.8079
  925MOL0     H22098  12.412   4.503   2.427 -3.4372 -1.7543  5.4075
  925MOL0     H22099  11.650   5.012   1.999 -1.1432  0.0775  1.8307
  925MOL0     H22100  11.403   5.030   2.025  1.4267  0.2344  0.5979
  926MOL0     O22101   8.166  11.198   3.450 -0.4325  0.2188  0.6336
  926MOL0     C22102   8.267  11.192   3.385  0.5402  0.4083  0.1110
  926MOL0     O22103   8.272  11.208   3.248  0.3068  0.1837 -0.6066
  926MOL0     C22104   8.160  11.211   3.175 -0.1309  0.1702  0.2040
  926MOL0     C22105   8.196  11.273   3.058  0.4703 -0.5709 -0.0251
  926MOL0     C22106   8.107  11.298   2.964  0.1450 -0.5401  0.9097
  926MOL0     C22107   7.970  11.270   2.977 -0.4251  0.8917  0.6699
  926MOL0     O22108   7.887  11.291   2.874  0.4881  0.3278  0.4712
  926MOL0     C22109   7.750  11.296   2.903 -0.2365 -0.2399  0.2545
  926MOL0     C22110   7.665  11.306   2.770 -0.3670 -0.1536 -0.5491
  926MOL0     C22111   7.552  11.201   2.763  0.1957 -0.6008 -0.0681
  926MOL0     C22112   7.428  11.252   2.843 -0.4957  1.9348 -0.3465
  926MOL0     C22113   7.315  11.161   2.830 -0.1316  0.2648 -0.3258
  926MOL0     C22114   7.196  11.206   2.914  0.0175  0.4068  0.0686
  926MOL0     C22115   7.063  11.128   2.908 -0.7022 -1.0153 -0.3626
  926MOL0     C22116   7.064  11.016   3.015  0.5489 -0.1569  0.1380
  926MOL0     N22117   6.942  10.940   3.024  0.1081 -0.3146  0.0801
  926MOL0     C22118   6.925  10.816   3.083  0.6505  1.0126  0.1523
  926MOL0     C22119   6.798  10.779   3.057  0.7591 -0.0653 -0.8542
  926MOL0     C22120   6.734  10.644   3.089 -0.1348  0.0602  0.9885
  926MOL0     C22121   6.614  10.659   3.184 -0.4915  0.4419 -0.4371
  926MOL0     C22122   6.626  10.553   3.299 -0.4199 -0.0449 -0.5817
  926MOL0     C22123   6.606  10.409   3.254  0.4692 -1.0089  0.3532
  926MOL0     O22124   6.471  10.378   3.221  0.4948  0.6755  0.0748
  926MOL0     C22125   6.385  10.367   3.327 -0.3283  0.9507  0.0436
  926MOL0     C22126   6.408  10.375   3.470 -0.1423  0.2984 -0.6013
  926MOL0     C22127   6.302  10.342   3.559  0.5723  0.7051  0.2472
  926MOL0     C22128   6.177  10.316   3.513  1.1416 -0.3286  0.0895
  926MOL0     C22129   6.067  10.267   3.595  0.1631 -0.5947 -0.4331
  926MOL0     O22130   5.948  10.238   3.536  0.0104 -0.2825  0.3456
  926MOL0     C22131   5.827  10.212   3.588  0.3820 -0.0825 -0.4417
  926MOL0     C22132   5.707  10.248   3.521 -0.1456 -0.8378  0.5653
  926MOL0     C22133   5.581  10.221   3.591 -0.7997 -0.4166  0.3081
  926MOL0     C22134   5.577  10.173   3.717  0.9395  0.7735 -0.2895
  926MOL0     O22135   5.466  10.135   3.795  0.6554 -0.3087  0.0313
  926MOL0     C22136   5.331  10.152   3.737 -0.7083 -0.3658  0.5080
  926MOL0     C22137   5.226  10.110   3.840 -0.1861 -0.2735  0.1310
  926MOL0     C22138   5.246   9.963   3.874 -0.6174  0.4695 -0.2214
  926MOL0     C22139   5.135   9.934   3.980  0.4042  0.4382  0.5720
  926MOL0     C22140   5.006   9.870   3.928 -0.7804 -0.3278  0.5880
  926MOL0     C22141   4.899   9.841   4.031 -1.2473  0.2172 -0.1879
  926MOL0     C22142   4.774   9.795   3.969  0.4744  0.3917 -0.5151
  926MOL0     C22143   4.668   9.747   4.068  0.2057  0.9649 -1.4408
  926MOL0    Cl22144   4.508   9.694   4.009  0.2174  0.5405  0.0105
  926MOL0     C22145   5.701  10.136   3.782  0.0305  0.0329 -0.1182
  926MOL0     C22146   5.823  10.157   3.721  0.5144  0.0117  0.5545
  926MOL0     O22147   6.089  10.275   3.719  0.9715  0.2713  0.2869
  926MOL0     C22148   6.149  10.334   3.375  0.4405 -0.5182  0.1653
  926MOL0     C22149   6.252  10.351   3.282 -0.6328  0.1353 -0.3259
  926MOL0     N22150   6.731  10.879   2.996  0.5092 -0.7238  0.1437
  926MOL0     N22151   6.814  10.973   2.984 -0.6808 -0.0067  0.2633
  926MOL0     C22152   7.922  11.205   3.095 -0.2499  1.0655  0.3497
  926MOL0     C22153   8.018  11.176   3.194 -0.0434  0.2227  0.3446
  926MOL0     C22154   8.388  11.163   3.467 -0.0882  0.2525 -0.7044
  926MOL0     C22155   8.389  11.177   3.609 -0.1801 -0.7398  0.0183
  926MOL0     C22156   8.514  11.174   3.676  1.0288  0.8455  0.2814
  926MOL0     C22157   8.628  11.121   3.611  1.0562  0.2891 -0.1142
  926MOL0     O22158   8.735  11.095   3.689 -0.3651  0.1339 -0.5865
  926MOL0     C22159   8.862  11.096   3.618 -0.8607 -0.6439  0.5083
  926MOL0     C22160   8.952  11.126   3.730  0.0618  0.8379  0.4523
  926MOL0     C22161   8.940  11.266   3.790 -0.2407 -0.3380  0.3563
  926MOL0     C22162   9.030  11.278   3.919 -0.1186  0.8392 -0.0678
  926MOL0     C22163   8.989  11.182   4.026 -0.6073 -0.0573 -0.0024
  926MOL0     C22164   8.955  11.105   4.121 -0.1434  0.5811 -0.0477
  926MOL0     C22165   8.619  11.092   3.475  0.7759 -0.2785  1.3418
  926MOL0     C22166   8.509  11.131   3.399  0.2880  0.9189  0.2149
  926MOL0     H22167   8.299  11.303   3.039  0.0404  1.6085  0.8453
  926MOL0     H22168   8.140  11.343   2.870 -0.4190 -2.6585 -0.3666
  926MOL0     H22169   7.744  11.386   2.965 -0.0768  0.5649 -0.8563
  926MOL0     H22170   7.708  11.214   2.961 -0.4894 -1.3261 -1.3869
  926MOL0     H22171   7.736  11.295   2.688 -0.4240  0.1294 -0.6384
  926MOL0     H22172   7.612  11.402   2.770  1.4737  0.9158 -1.6649
  926MOL0     H22173   7.581  11.104   2.805  1.8441  1.0439  2.9622
  926MOL0     H22174   7.522  11.184   2.660 -0.9232 -0.4609  0.2226
  926MOL0     H22175   7.459  11.252   2.948  1.2892 -0.4424 -0.8007
  926MOL0     H22176   7.391  11.350   2.813 -1.6622  0.6549 -3.4684
  926MOL0     H22177   7.351  11.059   2.844  0.0554  0.2689 -0.7485
  926MOL0     H22178   7.286  11.150   2.725  1.0247 -1.7036 -0.4854
  926MOL0     H22179   7.176  11.309   2.882  1.3731  0.9354  0.8255
  926MOL0     H22180   7.221  11.225   3.018 -2.6987  2.7604  0.4343
  926MOL0     H22181   6.980  11.193   2.939  2.1307  1.4517  2.9167
  926MOL0     H22182   7.053  11.085   2.808  2.5096 -0.1740 -1.1496
  926MOL0     H22183   7.074  11.058   3.115  0.1525  1.9640 -0.6720
  926MOL0     H22184   7.147  10.949   2.988  0.0643 -0.1233 -1.5297
  926MOL0     H22185   7.003  10.752   3.123  0.6820  1.2291  0.4382
  926MOL0     H22186   6.813  10.584   3.137  1.0443  1.4874  0.9232
  926MOL0     H22187   6.691  10.588   3.006  1.7610 -3.3697  2.1011
  926MOL0     H22188   6.523  10.645   3.125 -2.0345  0.0307  1.8859
  926MOL0     H22189   6.629  10.756   3.232  1.7473 -0.7994  1.5884
  926MOL0     H22190   6.720  10.566   3.355 -1.0550  0.9906  0.2720
  926MOL0     H22191   6.544  10.583   3.364  2.1369  3.2686  1.4681
  926MOL0     H22192   6.646  10.349   3.337  0.2793 -1.5423  0.0633
  926MOL0     H22193   6.670  10.397   3.166  0.9130  2.3560  0.0876
  926MOL0     H22194   6.507  10.395   3.511 -1.3040  2.9258  1.2544
  926MOL0     H22195   6.324  10.343   3.665 -2.0097  0.7245  0.8480
  926MOL0     H22196   5.713  10.288   3.420 -1.3690 -1.0314  0.4056
  926MOL0     H22197   5.497  10.250   3.529  0.8778  1.8647 -1.0638
  926MOL0     H22198   5.327  10.094   3.645  2.9216  1.9840 -1.4033
  926MOL0     H22199   5.306  10.256   3.714 -0.0827  0.2080  2.2356
  926MOL0     H22200   5.128  10.130   3.796  0.8282  1.4963 -1.4827
  926MOL0     H22201   5.243  10.173   3.928 -0.1602  2.8125 -1.9092
  926MOL0     H22202   5.340   9.933   3.922 -0.8789  1.8189  1.2389
  926MOL0     H22203   5.212   9.903   3.789  4.2278  0.2154 -2.2985
  926MOL0     H22204   5.187   9.878   4.059 -0.3555  1.3788  1.7623
  926MOL0     H22205   5.100  10.025   4.029 -0.5914  0.4750 -0.1845
  926MOL0     H22206   5.039   9.780   3.874  0.2036 -0.4462  1.3646
  926MOL0     H22207   4.955   9.933   3.855 -1.0535 -0.8892  0.2848
  926MOL0     H22208   4.890   9.938   4.080  0.6474 -0.2927  1.3070
  926MOL0     H22209   4.914   9.779   4.120 -2.7321  0.0681 -0.0208
  926MOL0     H22210   4.739   9.872   3.900 -1.0141  0.5517  0.3937
  926MOL0     H22211   4.792   9.713   3.898 -2.4490  1.6929 -2.9511
  926MOL0     H22212   4.642   9.825   4.141  0.4988 -0.8031  0.6524
  926MOL0     H22213   4.699   9.655   4.118 -4.7433  0.1508  0.8390
  926MOL0     H22214   5.705  10.090   3.880  0.9607 -0.5694 -0.4228
  926MOL0     H22215   5.909  10.131   3.782  0.2460  0.9316  1.3588
  926MOL0     H22216   6.048  10.326   3.335  1.0573  1.3537 -1.9554
  926MOL0     H22217   6.222  10.380   3.182 -0.5226  1.9536  0.1327
  926MOL0     H22218   7.817  11.187   3.117 -0.4685  1.9138  0.0666
  926MOL0     H22219   7.983  11.126   3.284  0.0335  0.6773  0.6345
  926MOL0     H22220   8.297  11.203   3.660  0.4729  0.2977  0.7133
  926MOL0     H22221   8.523  11.193   3.782  0.6833 -1.3882  0.7760
  926MOL0     H22222   8.871  11.173   3.541  2.7511 -0.3838  1.0187
  926MOL0     H22223   8.894  11.003   3.571  0.8863 -0.6975  1.7181
  926MOL0     H22224   8.933  11.047   3.804 -1.9384  1.1909  0.3707
  926MOL0     H22225   9.057  11.111   3.701  0.6914  1.4451  2.2804
  926MOL0     H22226   8.844  11.304   3.825  0.3253  1.4854  0.0172
  926MOL0     H22227   8.981  11.338   3.719 -1.9702  1.0523  0.6921
  926MOL0     H22228   9.133  11.251   3.891 -0.0839 -2.8705  2.8304
  926MOL0     H22229   9.030  11.382   3.953 -2.6516  0.4029  1.4732
  926MOL0     H22230   8.936  11.023   4.187  1.0184  1.2837  1.2218
  926MOL0     H22231   8.707  11.047   3.431  0.4915  2.6001 -2.8229
  926MOL0     H22232   8.514  11.133   3.291  0.9395  1.4370  0.2527
  927MOL0     O22233   8.554   5.046  10.517  0.1707 -0.5359 -0.3629
  927MOL0     C22234   8.583   5.161  10.535 -1.1722  0.4117 -0.2635
  927MOL0     O22235   8.506   5.264  10.587  0.4078  0.5769 -0.0462
  927MOL0     C22236   8.371   5.241  10.627 -0.4966  0.3471  0.3278
  927MOL0     C22237   8.324   5.115  10.668 -0.2813 -0.1967 -0.4989
  927MOL0     C22238   8.184   5.097  10.700 -0.3349 -0.3386 -0.4663
  927MOL0     C22239   8.105   5.214  10.708  0.1739  0.2872  0.3713
  927MOL0     O22240   7.973   5.207  10.734 -0.9734 -0.1097 -0.2359
  927MOL0     C22241   7.939   5.081  10.801 -0.3930 -0.3203 -0.2796
  927MOL0     C22242   7.817   5.099  10.885 -0.0071  0.1409  0.8764
  927MOL0     C22243   7.833   5.195  11.003 -0.3580  0.6387  0.3840
  927MOL0     C22244   7.704   5.198  11.077 -0.0357  0.1547 -0.1696
  927MOL0     C22245   7.719   5.282  11.215  0.5930 -0.0840  0.0465
  927MOL0     C22246   7.583   5.302  11.288  0.1614  0.3531 -0.3159
  927MOL0     C22247   7.590   5.415  11.395 -0.4014 -0.0142 -0.0078
  927MOL0     C22248   7.451   5.441  11.428 -0.5758  0.0370 -0.1552
  927MOL0     N22249   7.452   5.511  11.556  0.0522 -0.3655 -0.3180
  927MOL0     C22250   7.455   5.646  11.559  0.6174 -1.8242  0.7263
  927MOL0     C22251   7.471   5.674  11.686  0.0241  0.3879  0.1607
  927MOL0     C22252   7.511   5.811  11.730  0.8420  0.2307 -1.0216
  927MOL0     C22253   7.659   5.836  11.742  0.5935 -0.6009 -0.1545
  927MOL0     C22254   7.698   5.980  11.766 -0.3772 -0.7779 -0.2359
  927MOL0     C22255   7.835   5.988  11.822 -0.5031 -0.7304 -0.0231
  927MOL0     O22256   7.856   6.129  11.851  0.2722  0.0202 -0.4196
  927MOL0     C22257   7.991   6.163  11.894  0.3678  0.6293 -0.0549
  927MOL0     C22258   8.009   6.292  11.928 -0.3815 -0.0414  0.6553
  927MOL0     C22259   8.135   6.348  11.963 -0.3855  0.2326 -0.5253
  927MOL0     C22260   8.248   6.270  11.955  0.3741  0.4844  0.3969
  927MOL0     C22261   8.377   6.322  11.990  0.1063  0.2795  0.4631
  927MOL0     O22262   8.495   6.245  11.966  0.3601 -0.2966 -0.2440
  927MOL0     C22263   8.612   6.301  12.016  0.8530  0.3493 -0.1085
  927MOL0     C22264   8.642   6.268  12.150  0.4042 -0.2250  0.0139
  927MOL0     C22265   8.742   6.337  12.213  0.2234 -0.0196  0.5269
  927MOL0     C22266   8.816   6.431  12.145 -0.8675 -0.2819 -0.0654
  927MOL0     O22267   8.918   6.488  12.217  0.7933 -0.3466 -0.3158
  927MOL0     C22268   8.975   6.606  12.153 -0.0023  0.3238  0.0033
  927MOL0     C22269   8.886   6.735  12.133 -0.0880  0.5470  0.6127
  927MOL0     C22270   8.835   6.801  12.264  0.3323  0.6525  0.0016
  927MOL0     C22271   8.701   6.729  12.298  0.1013  0.1271  0.8653
  927MOL0     C22272   8.607   6.807  12.398 -0.0480  0.0464  0.7794
  927MOL0     C22273   8.487   6.718  12.433  1.4477 -0.7915 -0.1710
  927MOL0     C22274   8.383   6.783  12.522 -0.3610  0.3004  0.3724
  927MOL0     C22275   8.444   6.869  12.636 -0.9777  1.7994 -0.1283
  927MOL0    Cl22276   8.334   6.899  12.769  0.1466 -0.1761 -0.3433
  927MOL0     C22277   8.784   6.461  12.007  0.8508 -0.4653 -0.9563
  927MOL0     C22278   8.668   6.409  11.957  0.8554 -0.4067  0.9114
  927MOL0     O22279   8.381   6.441  12.028 -0.9075 -0.2839 -0.1609
  927MOL0     C22280   8.228   6.133  11.935  1.3225 -0.1221 -0.6921
  927MOL0     C22281   8.100   6.080  11.910  0.1246  0.4382  0.9412
  927MOL0     N22282   7.465   5.561  11.762 -0.1288  0.3926 -0.1947
  927MOL0     N22283   7.453   5.456  11.681 -0.5280 -0.1976  0.1378
  927MOL0     C22284   8.159   5.346  10.678 -0.1635  0.6276 -0.3644
  927MOL0     C22285   8.290   5.353  10.639 -0.5927  0.4148  0.7719
  927MOL0     C22286   8.721   5.209  10.465  0.0840  0.2274  0.3754
  927MOL0     C22287   8.755   5.341  10.437 -0.0598 -0.3761  0.7814
  927MOL0     C22288   8.874   5.375  10.367  0.1557  0.5821  0.0500
  927MOL0     C22289   8.969   5.268  10.336  0.6110  0.7673  0.0671
  927MOL0     O22290   9.089   5.280  10.283 -1.1319  0.0478  0.2584
  927MOL0     C22291   9.106   5.392  10.195 -0.0317  0.8067 -0.6205
  927MOL0     C22292   9.252   5.403  10.156  0.2385 -0.2277 -0.9524
  927MOL0     C22293   9.343   5.471  10.261 -0.5942 -0.6538 -1.2797
  927MOL0     C22294   9.491   5.461  10.230 -0.1662  0.7306  0.5081
  927MOL0     C22295   9.523   5.565  10.139 -0.0387 -0.4201  0.2201
  927MOL0     C22296   9.535   5.643  10.045  0.0812  0.1331 -0.1995
  927MOL0     C22297   8.924   5.134  10.350  0.5688 -0.1226 -0.6847
  927MOL0     C22298   8.799   5.112  10.413 -0.3542 -0.0063  0.2949
  927MOL0     H22299   8.385   5.026  10.682  0.1301  0.2079  0.3301
  927MOL0     H22300   8.162   4.994  10.728 -0.9979 -0.2210 -0.5468
  927MOL0     H22301   8.016   5.040  10.867 -0.8924 -3.9999 -1.7320
  927MOL0     H22302   7.917   5.000  10.731  0.3698 -0.8272  0.0499
  927MOL0     H22303   7.791   5.002  10.929 -2.3216  1.1999  2.0322
  927MOL0     H22304   7.731   5.127  10.824 -0.1543 -0.6555  0.7089
  927MOL0     H22305   7.868   5.290  10.963 -2.6289  1.2753 -0.1875
  927MOL0     H22306   7.908   5.141  11.063 -2.3121 -2.4182  0.3036
  927MOL0     H22307   7.625   5.244  11.017 -0.1809  0.3349  0.1543
  927MOL0     H22308   7.680   5.095  11.103  3.8590 -0.2095  2.8715
  927MOL0     H22309   7.764   5.377  11.183 -2.4189  1.2644 -0.5675
  927MOL0     H22310   7.791   5.240  11.284  0.9790 -1.4288 -1.1289
  927MOL0     H22311   7.561   5.206  11.335 -1.0550  1.8106  2.2924
  927MOL0     H22312   7.514   5.324  11.205 -0.5528 -1.2496 -0.1805
  927MOL0     H22313   7.651   5.400  11.485 -0.2858  2.6892  0.4702
  927MOL0     H22314   7.642   5.501  11.352 -1.7548  0.1465 -1.4106
  927MOL0     H22315   7.387   5.352  11.431 -1.5783  0.7310 -0.5143
  927MOL0     H22316   7.416   5.507  11.348 -0.5754  0.3915  0.1358
  927MOL0     H22317   7.455   5.721  11.479 -0.3965  0.5129  2.7805
  927MOL0     H22318   7.464   5.824  11.828  1.6968 -0.1284 -0.5509
  927MOL0     H22319   7.459   5.880  11.662  0.7677  0.7495 -0.4420
  927MOL0     H22320   7.710   5.809  11.649  0.6587 -0.8349 -0.0534
  927MOL0     H22321   7.698   5.772  11.823 -0.4405 -0.7320  0.2539
  927MOL0     H22322   7.684   6.036  11.672  2.8163  1.3665  0.4136
  927MOL0     H22323   7.619   6.029  11.823  0.4192 -0.7399  0.8531
  927MOL0     H22324   7.904   5.947  11.747 -0.5614  2.0244 -1.7004
  927MOL0     H22325   7.845   5.917  11.905  0.3760 -0.6784 -0.0799
  927MOL0     H22326   7.927   6.363  11.920  0.4851  0.9047 -0.0341
  927MOL0     H22327   8.144   6.455  11.973  1.0825 -0.0095  1.2738
  927MOL0     H22328   8.581   6.200  12.209  0.6029  0.6117  1.2315
  927MOL0     H22329   8.764   6.317  12.318 -1.1243  0.0003  0.8335
  927MOL0     H22330   9.020   6.577  12.058  0.3865  0.3338  0.1818
  927MOL0     H22331   9.058   6.636  12.216  2.4042  1.5948 -3.4803
  927MOL0     H22332   8.798   6.709  12.073 -0.5967  0.9784  1.1624
  927MOL0     H22333   8.966   6.788  12.081  2.5923 -3.8510 -0.2697
  927MOL0     H22334   8.802   6.903  12.241 -2.4853 -0.0527  0.4457
  927MOL0     H22335   8.906   6.806  12.346  0.0925  0.8777  0.2004
  927MOL0     H22336   8.650   6.735  12.202  0.2402 -1.5952  0.6537
  927MOL0     H22337   8.721   6.626  12.329  1.2422  0.4521  1.2760
  927MOL0     H22338   8.584   6.907  12.361  3.7200  1.4807  1.7932
  927MOL0     H22339   8.662   6.835  12.489 -0.6371  2.9717  0.3370
  927MOL0     H22340   8.505   6.622  12.482  0.7246  0.1547  2.0791
  927MOL0     H22341   8.443   6.695  12.336 -1.4065  0.9367  0.5836
  927MOL0     H22342   8.321   6.844  12.456 -1.7357  1.9270  3.0081
  927MOL0     H22343   8.319   6.708  12.569  1.5239 -0.2359  2.2778
  927MOL0     H22344   8.487   6.959  12.592 -0.8387  1.6837 -0.2281
  927MOL0     H22345   8.532   6.818  12.676 -2.3520  0.3309  1.1859
  927MOL0     H22346   8.849   6.520  11.944  1.9206 -2.4532 -1.7902
  927MOL0     H22347   8.637   6.439  11.857  0.5036  2.1700  1.7239
  927MOL0     H22348   8.307   6.060  11.918  1.1473  0.0838 -2.5898
  927MOL0     H22349   8.087   5.975  11.887  0.0187  1.1768 -3.0711
  927MOL0     H22350   8.099   5.436  10.675 -0.1941  0.7886  2.6458
  927MOL0     H22351   8.331   5.448  10.607 -1.0795  0.2882 -0.2830
  927MOL0     H22352   8.691   5.423  10.468 -0.2851 -0.0387 -0.5072
  927MOL0     H22353   8.900   5.479  10.352  1.8713  0.7480  3.2481
  927MOL0     H22354   9.073   5.479  10.251  1.3280 -0.6362  2.7293
  927MOL0     H22355   9.049   5.373  10.104 -0.0125 -0.7373 -0.3410
  927MOL0     H22356   9.290   5.305  10.124  2.4648  0.4055 -0.4402
  927MOL0     H22357   9.251   5.452  10.059  4.5082 -2.1005 -2.1917
  927MOL0     H22358   9.321   5.409  10.349 -0.9730  1.7817  0.4599
  927MOL0     H22359   9.316   5.576  10.275  1.9319 -0.0512 -0.2449
  927MOL0     H22360   9.556   5.458  10.318  0.3470 -2.3558  0.1616
  927MOL0     H22361   9.521   5.370  10.177  0.9722  1.6982 -0.5570
  927MOL0     H22362   9.553   5.735   9.993  1.3272  1.0999  1.7873
  927MOL0     H22363   8.985   5.045  10.338  2.4094  1.1829 -1.4172
  927MOL0     H22364   8.768   5.010  10.428 -4.0939  1.1576  1.4638
  928MOL0     O22365   8.185  10.717   5.477  0.0652 -0.6579  0.8361
  928MOL0     C22366   8.214  10.788   5.575  0.0531 -0.2704  0.4238
  928MOL0     O22367   8.159  10.775   5.695  0.2219 -0.9129  0.9486
  928MOL0     C22368   8.069  10.676   5.718  0.4784  0.3294 -0.1498
  928MOL0     C22369   7.934  10.718   5.751 -0.1262  0.2216 -0.4989
  928MOL0     C22370   7.829  10.624   5.785  0.0092 -0.3121 -0.2034
  928MOL0     C22371   7.862  10.484   5.782  0.2734 -0.5419  0.9645
  928MOL0     O22372   7.771  10.397   5.827  0.6511  0.4608  0.6549
  928MOL0     C22373   7.830  10.301   5.925  0.2467 -0.5826 -0.4246
  928MOL0     C22374   7.723  10.226   6.014 -0.1594  0.2101  0.0151
  928MOL0     C22375   7.644  10.147   5.913  0.4198  1.1346  1.1099
  928MOL0     C22376   7.537  10.060   5.990 -0.7552  1.1007  0.3131
  928MOL0     C22377   7.470   9.954   5.914 -0.6468 -0.1954  0.3839
  928MOL0     C22378   7.414   9.990   5.774  0.3470  0.3914 -0.4618
  928MOL0     C22379   7.257  10.012   5.768 -0.8566 -0.1422  0.5129
  928MOL0     C22380   7.223  10.091   5.649  0.1030 -0.2175  0.2107
  928MOL0     N22381   7.074  10.097   5.659 -0.5825  0.2062  0.1301
  928MOL0     C22382   7.000  10.188   5.722 -0.2101 -0.0245 -0.1868
  928MOL0     C22383   6.878  10.128   5.726  0.3958 -0.4066 -0.1433
  928MOL0     C22384   6.762  10.201   5.801 -0.5568 -0.3911  0.1421
  928MOL0     C22385   6.655  10.101   5.859 -0.9061  0.6225  0.1241
  928MOL0     C22386   6.711   9.995   5.956 -0.5857  0.0444 -0.1709
  928MOL0     C22387   6.616   9.886   6.011 -0.3125  0.0465  0.4624
  928MOL0     O22388   6.529   9.940   6.106  0.5967  0.0322 -0.5246
  928MOL0     C22389   6.406   9.872   6.140 -0.9294  0.6313  0.3619
  928MOL0     C22390   6.401   9.725   6.137  0.0996 -0.7082 -0.8280
  928MOL0     C22391   6.283   9.665   6.181  0.5745  0.0397 -1.2151
  928MOL0     C22392   6.161   9.739   6.218  0.4554 -0.5405  0.4358
  928MOL0     C22393   6.038   9.681   6.260  0.9041  0.1417  1.3040
  928MOL0     O22394   5.944   9.757   6.315 -0.1471  0.2518  0.8940
  928MOL0     C22395   5.841   9.705   6.382  0.1308 -0.2638 -0.5903
  928MOL0     C22396   5.837   9.735   6.513  0.4937  0.7103  0.5557
  928MOL0     C22397   5.723   9.689   6.589 -0.3019 -0.0676 -0.1787
  928MOL0     C22398   5.616   9.620   6.534  0.1262 -0.6150 -0.2154
  928MOL0     O22399   5.512   9.590   6.619 -0.0736 -0.8620 -0.0232
  928MOL0     C22400   5.446   9.469   6.582 -0.4757 -0.2468  0.1247
  928MOL0     C22401   5.338   9.436   6.693  0.3211  0.0286  0.5118
  928MOL0     C22402   5.209   9.516   6.694 -0.6145  0.4918 -0.3756
  928MOL0     C22403   5.099   9.435   6.757  0.7913  0.1116 -0.6397
  928MOL0     C22404   4.969   9.497   6.766  0.0176  0.3457 -0.3344
  928MOL0     C22405   4.857   9.399   6.811  0.4559 -0.2642  0.3388
  928MOL0     C22406   4.732   9.470   6.833 -0.3218 -0.2340  0.2534
  928MOL0     C22407   4.631   9.359   6.886 -0.3333  0.2594 -0.1111
  928MOL0    Cl22408   4.472   9.416   6.940 -0.5555  0.4398  0.3365
  928MOL0     C22409   5.630   9.596   6.398  0.4890 -0.3440  0.0668
  928MOL0     C22410   5.733   9.638   6.323 -0.7475 -0.2104  0.6834
  928MOL0     O22411   6.035   9.555   6.249  0.4988 -0.3352  0.9820
  928MOL0     C22412   6.176   9.883   6.219  1.1605  1.0343 -0.0105
  928MOL0     C22413   6.296   9.939   6.186 -0.4498 -1.2849  0.7732
  928MOL0     N22414   6.874  10.012   5.666 -0.1537 -0.1505  0.4651
  928MOL0     N22415   6.993   9.998   5.617 -0.0371  0.7035  1.0074
  928MOL0     C22416   7.990  10.445   5.733  0.3566 -0.6308  0.8114
  928MOL0     C22417   8.090  10.536   5.703 -0.3659  0.1154  0.0247
  928MOL0     C22418   8.317  10.895   5.558 -1.0033  0.6804 -1.4122
  928MOL0     C22419   8.365  10.971   5.663 -1.2160  0.9641 -0.5991
  928MOL0     C22420   8.476  11.050   5.647  0.2818  0.4410  0.6346
  928MOL0     C22421   8.535  11.076   5.525 -0.3631 -0.9193  1.1297
  928MOL0     O22422   8.657  11.149   5.524  0.9560  0.0520 -0.7245
  928MOL0     C22423   8.745  11.141   5.417  0.8396 -0.0610  0.7045
  928MOL0     C22424   8.831  11.012   5.426  0.4748  0.1435 -0.5901
  928MOL0     C22425   8.904  10.999   5.553 -0.6660 -0.4378 -0.6265
  928MOL0     C22426   9.009  11.115   5.588 -0.3461  0.6673 -0.2092
  928MOL0     C22427   9.117  11.139   5.496  0.0768 -0.5331 -0.6980
  928MOL0     C22428   9.208  11.172   5.423 -1.1226  0.1510  0.9837
  928MOL0     C22429   8.490  10.995   5.418  0.3488 -0.1247  0.0171
  928MOL0     C22430   8.388  10.904   5.443  0.4709 -0.4907  0.0709
  928MOL0     H22431   7.924  10.825   5.763  0.9680  0.2214  0.5334
  928MOL0     H22432   7.735  10.661   5.825  0.5958 -0.1682  1.1079
  928MOL0     H22433   7.909  10.350   5.982  2.0900 -2.8293 -0.8814
  928MOL0     H22434   7.878  10.219   5.871  0.5809 -1.0105  0.4999
  928MOL0     H22435   7.649  10.294   6.059 -1.2152  0.8334 -2.4701
  928MOL0     H22436   7.756  10.158   6.093 -2.4386  0.7943  1.5822
  928MOL0     H22437   7.706  10.082   5.850 -1.5885  1.8710 -1.8236
  928MOL0     H22438   7.590  10.219   5.851  2.0066 -0.2391 -2.0581
  928MOL0     H22439   7.573  10.014   6.083 -2.4653 -2.1446 -0.4962
  928MOL0     H22440   7.460  10.129   6.026 -0.7636  1.7835 -0.9658
  928MOL0     H22441   7.390   9.916   5.978 -2.5087 -0.2215 -1.8534
  928MOL0     H22442   7.544   9.875   5.897 -1.1806 -1.3843  3.0032
  928MOL0     H22443   7.439   9.901   5.715  2.0310 -1.4507  2.7638
  928MOL0     H22444   7.469  10.077   5.737 -0.7727  2.2672  1.9718
  928MOL0     H22445   7.197   9.921   5.771 -1.2418  0.1385  2.6626
  928MOL0     H22446   7.229  10.076   5.852  2.6741  0.8899  1.1103
  928MOL0     H22447   7.261  10.047   5.556 -1.3594 -0.0135 -0.5161
  928MOL0     H22448   7.280  10.184   5.657  0.6428 -0.5869  0.7442
  928MOL0     H22449   7.028  10.290   5.747  2.5466 -0.3603 -1.5284
  928MOL0     H22450   6.712  10.262   5.726  2.4072 -0.0539 -1.7055
  928MOL0     H22451   6.798  10.273   5.875 -0.6650 -0.3143  0.1198
  928MOL0     H22452   6.606  10.050   5.775  1.7154  0.2004 -1.2597
  928MOL0     H22453   6.577  10.158   5.909  0.0777 -0.2246  2.8002
  928MOL0     H22454   6.787   9.937   5.902  1.2967  1.4572  0.8382
  928MOL0     H22455   6.770  10.045   6.033 -0.7974 -1.0791  0.7630
  928MOL0     H22456   6.676   9.800   6.043 -2.1045 -0.5741  2.3795
  928MOL0     H22457   6.554   9.850   5.929 -2.3250 -0.3889  2.0835
  928MOL0     H22458   6.490   9.668   6.109  0.9158 -0.1890  0.5720
  928MOL0     H22459   6.275   9.556   6.181 -2.0595  0.1565 -2.7488
  928MOL0     H22460   5.918   9.795   6.554  0.0376  1.5654  0.2254
  928MOL0     H22461   5.723   9.719   6.694  4.1736 -0.3080  0.0634
  928MOL0     H22462   5.520   9.388   6.579 -1.7635 -1.5023  1.1835
  928MOL0     H22463   5.402   9.488   6.484 -1.0889  1.6963  0.7159
  928MOL0     H22464   5.388   9.436   6.791  0.9510 -0.1161  0.1955
  928MOL0     H22465   5.301   9.339   6.660 -4.7657  2.1496 -0.8792
  928MOL0     H22466   5.174   9.531   6.592  0.1072 -0.0816 -0.7152
  928MOL0     H22467   5.219   9.607   6.754  1.3602 -0.8191  1.4378
  928MOL0     H22468   5.086   9.347   6.693  1.0999  1.4774 -2.6734
  928MOL0     H22469   5.121   9.427   6.864 -0.5914  2.1575 -0.1489
  928MOL0     H22470   4.932   9.530   6.668  2.3326 -2.1546 -2.1926
  928MOL0     H22471   4.966   9.580   6.837 -3.3036 -1.3247  1.7049
  928MOL0     H22472   4.889   9.345   6.901  3.7226 -0.1740 -0.6370
  928MOL0     H22473   4.847   9.324   6.732  2.8066  1.4254 -1.7050
  928MOL0     H22474   4.749   9.551   6.904  1.6462 -0.1348 -0.2755
  928MOL0     H22475   4.695   9.515   6.740 -0.7884 -0.4809  0.3161
  928MOL0     H22476   4.678   9.309   6.971 -2.0529  0.5550  1.0655
  928MOL0     H22477   4.618   9.291   6.802  1.6724  0.1063 -0.3530
  928MOL0     H22478   5.550   9.541   6.349  0.8331 -0.3856 -0.4460
  928MOL0     H22479   5.731   9.600   6.221  0.5423 -1.9929  1.2597
  928MOL0     H22480   6.084   9.930   6.250  0.9898  1.3922 -0.9954
  928MOL0     H22481   6.294  10.048   6.186  0.7997 -1.2428 -0.0967
  928MOL0     H22482   8.013  10.338   5.736 -0.3997 -0.7718  2.3408
  928MOL0     H22483   8.184  10.488   5.677  0.2888  0.6423  1.3269
  928MOL0     H22484   8.323  10.954   5.762  2.0264 -0.7084  0.6828
  928MOL0     H22485   8.526  11.103   5.727 -0.7685 -2.0325  3.1037
  928MOL0     H22486   8.808  11.230   5.410 -1.0500  1.2197 -1.2365
  928MOL0     H22487   8.687  11.135   5.324  1.2104  2.7741  0.2003
  928MOL0     H22488   8.770  10.925   5.399 -1.6159  2.1673 -2.9006
  928MOL0     H22489   8.904  11.014   5.345  0.2399 -0.0082 -0.8081
  928MOL0     H22490   8.957  10.904   5.541  2.7741  1.1432  0.8379
  928MOL0     H22491   8.836  10.987   5.638  0.9026  1.9326  1.0870
  928MOL0     H22492   8.954  11.206   5.614 -0.5016  0.1598  1.3433
  928MOL0     H22493   9.061  11.080   5.678  0.6765  0.4988 -0.8417
  928MOL0     H22494   9.286  11.184   5.351 -1.7140 -0.7653  0.1734
  928MOL0     H22495   8.529  11.006   5.318 -1.1368  0.3248 -0.5366
  928MOL0     H22496   8.363  10.841   5.358 -0.4925  1.1017 -0.8849
  929MOL0     O22497   0.305   1.251   0.354  0.1951 -0.7770  0.3506
  929MOL0     C22498   0.344   1.142   0.394  0.0261  1.0177  1.1053
  929MOL0     O22499   0.268   1.032   0.434  0.1981  0.2913  0.5137
  929MOL0     C22500   0.130   1.022   0.408  0.9824 -0.1144  0.2015
  929MOL0     C22501   0.053   1.101   0.321 -0.3834 -1.2705 -0.2899
  929MOL0     C22502  -0.074   1.073   0.290 -0.0229 -0.0912 -0.0605
  929MOL0     C22503  -0.145   0.969   0.355 -0.3617  0.2091 -0.1873
  929MOL0     O22504  -0.277   0.936   0.326  0.4641  0.2179  0.0633
  929MOL0     C22505  -0.317   0.950   0.193  0.4474  0.9209  0.1310
  929MOL0     C22506  -0.438   0.875   0.145  0.4426 -0.4779 -0.4420
  929MOL0     C22507  -0.461   0.731   0.204  0.0953 -0.7126 -0.1219
  929MOL0     C22508  -0.613   0.698   0.176 -0.4032  0.1681  0.4025
  929MOL0     C22509  -0.663   0.582   0.268  0.4508 -0.0664  0.5014
  929MOL0     C22510  -0.799   0.538   0.211  0.0397 -0.7514 -0.2211
  929MOL0     C22511  -0.855   0.407   0.273 -0.8049  0.5719  0.6259
  929MOL0     C22512  -0.808   0.287   0.192 -0.2913  0.1598  0.7308
  929MOL0     N22513  -0.840   0.162   0.262 -1.1390  0.8535  0.4847
  929MOL0     C22514  -0.757   0.091   0.345  0.6008 -0.3023 -0.6497
  929MOL0     C22515  -0.826  -0.014   0.379 -0.1501  0.0908 -0.9445
  929MOL0     C22516  -0.794  -0.150   0.435  0.4387 -0.4624 -0.5675
  929MOL0     C22517  -0.697  -0.227   0.351 -0.7275 -0.2033 -0.0334
  929MOL0     C22518  -0.631  -0.335   0.439  0.1968  0.1542 -0.3833
  929MOL0     C22519  -0.518  -0.273   0.529 -0.5612 -0.0676 -0.3199
  929MOL0     O22520  -0.428  -0.182   0.469  0.7828  0.1697 -0.2417
  929MOL0     C22521  -0.304  -0.185   0.526  0.4353  0.2618 -0.1010
  929MOL0     C22522  -0.264  -0.211   0.664  0.0494 -0.2816  0.0023
  929MOL0     C22523  -0.136  -0.221   0.705  0.4230  0.4837 -0.9399
  929MOL0     C22524  -0.036  -0.198   0.613  0.0776 -0.0727  0.3443
  929MOL0     C22525   0.103  -0.216   0.650 -0.3881 -0.3237 -1.1857
  929MOL0     O22526   0.193  -0.207   0.556 -0.1672  0.7781 -0.1953
  929MOL0     C22527   0.330  -0.208   0.587  0.5080 -0.6118 -0.2286
  929MOL0     C22528   0.384  -0.138   0.701  0.0152 -0.6787 -0.5229
  929MOL0     C22529   0.523  -0.141   0.719  1.2489 -0.7700 -0.1559
  929MOL0     C22530   0.608  -0.207   0.638  0.0996  0.5631 -0.4681
  929MOL0     O22531   0.737  -0.212   0.686 -1.2447 -1.1980  0.1018
  929MOL0     C22532   0.822  -0.305   0.620  0.2345 -0.3207 -0.7174
  929MOL0     C22533   0.958  -0.291   0.695  0.3159  0.5571 -0.4995
  929MOL0     C22534   1.066  -0.402   0.647  0.1955 -0.4834 -0.0932
  929MOL0     C22535   1.197  -0.388   0.716 -0.2313  0.1201  0.1946
  929MOL0     C22536   1.266  -0.524   0.738 -0.1102  1.3122  0.0553
  929MOL0     C22537   1.394  -0.527   0.823  0.4509  0.1284  0.6339
  929MOL0     C22538   1.361  -0.481   0.965 -0.0873 -0.3082  0.4689
  929MOL0     C22539   1.461  -0.527   1.075  0.5696 -0.2296 -0.1643
  929MOL0    Cl22540   1.632  -0.449   1.060 -0.0680  0.1328  0.0002
  929MOL0     C22541   0.559  -0.267   0.521 -0.4095  0.4844  0.0761
  929MOL0     C22542   0.420  -0.272   0.505 -0.6271 -0.7443  0.7782
  929MOL0     O22543   0.130  -0.245   0.773  0.0361 -0.3281  0.6277
  929MOL0     C22544  -0.067  -0.163   0.482 -0.3635  1.3750  0.5760
  929MOL0     C22545  -0.202  -0.155   0.439 -0.5083  0.3410 -0.3455
  929MOL0     N22546  -0.946  -0.007   0.311 -0.4191  0.1698  0.9003
  929MOL0     N22547  -0.956   0.099   0.235 -0.4696 -0.4045  0.1594
  929MOL0     C22548  -0.073   0.886   0.440  0.4449  0.8240  0.3936
  929MOL0     C22549   0.063   0.913   0.470 -0.0497 -0.1023  0.1190
  929MOL0     C22550   0.495   1.133   0.390 -0.4182 -0.0379 -0.2425
  929MOL0     C22551   0.558   1.015   0.419  0.5345 -0.5178 -0.0507
  929MOL0     C22552   0.695   0.995   0.439  0.8977 -0.8941  0.6352
  929MOL0     C22553   0.783   1.106   0.406  0.2566  0.4673 -0.1132
  929MOL0     O22554   0.915   1.110   0.431 -0.2965 -0.0015  0.4185
  929MOL0     C22555   0.979   0.991   0.488 -0.0063 -0.8587 -0.3856
  929MOL0     C22556   0.952   0.981   0.646  0.4916 -0.3290  0.1085
  929MOL0     C22557   1.092   0.932   0.715  0.5741 -0.6109 -0.3705
  929MOL0     C22558   1.066   0.907   0.863  0.3821  0.1354 -0.1019
  929MOL0     C22559   1.193   0.855   0.918 -0.2112 -0.0066 -0.5982
  929MOL0     C22560   1.301   0.814   0.967 -0.6176  0.0628 -0.0686
  929MOL0     C22561   0.725   1.219   0.358  0.2727  0.2320 -1.1198
  929MOL0     C22562   0.587   1.241   0.353  0.8652  0.4736 -0.4416
  929MOL0     H22563   0.098   1.185   0.268 -3.0563 -0.0608 -0.8013
  929MOL0     H22564  -0.134   1.140   0.229 -0.5142 -0.2725  0.2185
  929MOL0     H22565  -0.230   0.917   0.135 -1.0084 -1.6218 -0.7593
  929MOL0     H22566  -0.329   1.058   0.180  1.1221  1.4100  2.8325
  929MOL0     H22567  -0.451   0.878   0.036 -1.3381 -0.7508 -0.2796
  929MOL0     H22568  -0.525   0.932   0.178  1.7211 -0.0046  2.3928
  929MOL0     H22569  -0.427   0.735   0.308 -1.8661 -0.5162  0.5510
  929MOL0     H22570  -0.396   0.652   0.166  2.0425  0.4008  0.7715
  929MOL0     H22571  -0.675   0.788   0.176 -1.2335 -0.3536  2.0232
  929MOL0     H22572  -0.615   0.658   0.074  0.5023 -0.7721  0.7337
  929MOL0     H22573  -0.654   0.616   0.372 -1.3695  3.4238 -0.3149
  929MOL0     H22574  -0.591   0.501   0.251  1.9527  1.1068  1.0058
  929MOL0     H22575  -0.782   0.524   0.104  0.8708 -0.4929 -0.1245
  929MOL0     H22576  -0.882   0.605   0.235  0.3243 -1.7278  4.8116
  929MOL0     H22577  -0.821   0.401   0.377 -2.7242  0.5720  1.2968
  929MOL0     H22578  -0.964   0.414   0.279 -0.8558  0.6639 -0.2718
  929MOL0     H22579  -0.699   0.282   0.179 -0.0891  1.6831  1.6410
  929MOL0     H22580  -0.850   0.287   0.091  1.3655 -0.8909 -0.0026
  929MOL0     H22581  -0.655   0.119   0.370  1.1185 -2.9768  0.5853
  929MOL0     H22582  -0.885  -0.210   0.443 -1.5752  2.5539  1.0882
  929MOL0     H22583  -0.747  -0.138   0.534 -0.0555  0.1422 -0.3987
  929MOL0     H22584  -0.634  -0.152   0.303  0.1657  0.2979  1.8196
  929MOL0     H22585  -0.752  -0.280   0.273 -2.2858 -0.7955  1.3919
  929MOL0     H22586  -0.709  -0.391   0.492 -0.5808  1.1768 -0.4351
  929MOL0     H22587  -0.585  -0.407   0.371  3.5280  0.1718  1.6331
  929MOL0     H22588  -0.471  -0.365   0.563  0.2887  0.4305 -0.1042
  929MOL0     H22589  -0.568  -0.216   0.608  4.0826 -0.2920  3.1304
  929MOL0     H22590  -0.339  -0.221   0.743 -0.9379  4.6739  0.0253
  929MOL0     H22591  -0.125  -0.247   0.810 -1.4020  0.5548 -0.7085
  929MOL0     H22592   0.316  -0.087   0.768  0.5560 -0.3385 -0.2270
  929MOL0     H22593   0.548  -0.075   0.802 -0.9737  1.1513 -0.9005
  929MOL0     H22594   0.819  -0.299   0.511  1.7021 -1.5452 -0.8678
  929MOL0     H22595   0.791  -0.410   0.632  0.4032 -0.2389  0.6798
  929MOL0     H22596   0.942  -0.295   0.803  0.3218  3.1584 -0.3477
  929MOL0     H22597   1.000  -0.194   0.669  1.8199  0.3788  1.1322
  929MOL0     H22598   1.091  -0.376   0.544  0.3435  1.6614  0.4414
  929MOL0     H22599   1.017  -0.500   0.654 -3.0787  0.9303 -1.1694
  929MOL0     H22600   1.266  -0.321   0.664 -0.4642  0.0984 -0.1404
  929MOL0     H22601   1.185  -0.341   0.814  0.6887  2.9166 -0.9521
  929MOL0     H22602   1.288  -0.559   0.637 -0.9600  0.6647  0.0774
  929MOL0     H22603   1.187  -0.588   0.778  0.1629  1.6912  1.2290
  929MOL0     H22604   1.477  -0.470   0.781 -1.2299  0.3640 -2.7158
  929MOL0     H22605   1.424  -0.632   0.819  0.2409  0.1114 -2.1392
  929MOL0     H22606   1.356  -0.372   0.965  0.6748 -0.2324 -1.0427
  929MOL0     H22607   1.267  -0.526   0.996 -0.7301  0.9892  0.4406
  929MOL0     H22608   1.463  -0.636   1.070 -0.0255 -0.2384 -0.3558
  929MOL0     H22609   1.418  -0.499   1.171 -0.4216 -2.0684 -0.0232
  929MOL0     H22610   0.627  -0.311   0.448 -1.6355  0.7998 -1.2978
  929MOL0     H22611   0.374  -0.309   0.414  1.2996  2.1813 -1.5971
  929MOL0     H22612   0.013  -0.136   0.413 -0.9415 -1.3957 -1.3629
  929MOL0     H22613  -0.215  -0.111   0.340  3.8522  2.0287 -0.3740
  929MOL0     H22614  -0.117   0.801   0.492  0.3132  1.6322  1.6370
  929MOL0     H22615   0.125   0.847   0.531  0.5014  0.1850 -0.1206
  929MOL0     H22616   0.490   0.933   0.442 -5.1306  3.0148 -2.1797
  929MOL0     H22617   0.726   0.896   0.471  4.7782  0.4139  1.5228
  929MOL0     H22618   1.086   1.003   0.469  0.6541 -1.1535  2.5974
  929MOL0     H22619   0.937   0.898   0.449 -0.0341 -2.5536  3.3016
  929MOL0     H22620   0.925   1.084   0.671  2.2080  0.6299 -1.6659
  929MOL0     H22621   0.874   0.911   0.675  0.3059 -0.5228 -0.8102
  929MOL0     H22622   1.161   1.017   0.716 -1.0056  0.8199  3.0059
  929MOL0     H22623   1.127   0.845   0.659 -1.5860 -1.7170 -0.1165
  929MOL0     H22624   1.047   1.006   0.906  2.9089 -0.2625  2.2246
  929MOL0     H22625   0.974   0.850   0.874 -0.0059  0.8452  0.4414
  929MOL0     H22626   1.393   0.781   1.013 -1.1767 -0.2345  0.8599
  929MOL0     H22627   0.784   1.306   0.330 -0.3014  0.0932 -2.8893
  929MOL0     H22628   0.552   1.337   0.317  0.0583  0.7567  1.0513
  930MOL0     O22629   2.798   4.227   4.372 -0.8874 -0.2366  0.3684
  930MOL0     C22630   2.884   4.203   4.289 -0.3192  0.5081  0.0569
  930MOL0     O22631   2.860   4.131   4.163 -0.5416  0.5292  0.0197
  930MOL0     C22632   2.734   4.085   4.130  0.3811 -0.5628 -0.5066
  930MOL0     C22633   2.655   4.032   4.234  1.1536  0.6467  0.3910
  930MOL0     C22634   2.532   3.974   4.202  0.5736  0.1442 -0.2956
  930MOL0     C22635   2.479   3.976   4.073  0.3293  0.5242  1.1001
  930MOL0     O22636   2.356   3.920   4.047 -0.0527  0.5527  0.4365
  930MOL0     C22637   2.306   3.828   4.134 -0.0724  1.0197 -0.9272
  930MOL0     C22638   2.156   3.784   4.101 -0.5779 -0.4776  0.3211
  930MOL0     C22639   2.068   3.894   4.022  0.5739  0.4816  0.0465
  930MOL0     C22640   1.941   3.825   3.968 -0.9651  0.2016 -0.5240
  930MOL0     C22641   1.843   3.923   3.893 -0.0411 -0.3809  0.4877
  930MOL0     C22642   1.716   3.868   3.824 -0.3625 -0.2886  0.9485
  930MOL0     C22643   1.619   3.793   3.919 -0.7873 -0.6608 -0.4661
  930MOL0     C22644   1.503   3.710   3.871  0.4870  0.1118 -0.0448
  930MOL0     N22645   1.388   3.782   3.817 -0.1684 -0.5147 -0.5059
  930MOL0     C22646   1.260   3.762   3.865 -0.1102  0.8614 -0.9196
  930MOL0     C22647   1.191   3.868   3.819  0.6978 -0.5347  0.0444
  930MOL0     C22648   1.052   3.915   3.834  0.2541 -0.1001 -0.2596
  930MOL0     C22649   1.016   3.964   3.976 -0.0138 -0.0644  0.1840
  930MOL0     C22650   0.883   4.028   3.972 -0.7386  0.6904  0.1445
  930MOL0     C22651   0.767   3.953   3.912  0.1773  0.0000 -0.3449
  930MOL0     O22652   0.657   4.041   3.922  0.3643  0.3998 -0.4808
  930MOL0     C22653   0.533   3.994   3.895  0.5405 -1.0372 -0.3167
  930MOL0     C22654   0.420   4.031   3.970  0.6371  0.1401  0.1985
  930MOL0     C22655   0.290   3.982   3.947 -0.3502 -0.1805  1.0947
  930MOL0     C22656   0.268   3.899   3.837 -0.2727  0.1366  0.3756
  930MOL0     C22657   0.135   3.851   3.809 -0.6427  0.2245 -0.1913
  930MOL0     O22658   0.032   3.941   3.827  0.4243 -0.9637 -0.3336
  930MOL0     C22659  -0.098   3.903   3.802 -0.5774  0.7035 -0.6181
  930MOL0     C22660  -0.193   3.907   3.905  0.4250 -0.6701 -0.2665
  930MOL0     C22661  -0.329   3.861   3.905 -0.6355  0.1980 -1.2014
  930MOL0     C22662  -0.377   3.810   3.789  0.6378 -0.4155 -0.6702
  930MOL0     O22663  -0.514   3.773   3.799  0.3888 -0.4753  0.6752
  930MOL0     C22664  -0.549   3.674   3.703  0.7336  0.6765  0.6100
  930MOL0     C22665  -0.592   3.737   3.573 -0.0531  0.2313 -0.9985
  930MOL0     C22666  -0.751   3.713   3.547 -0.7773 -0.8580 -1.2731
  930MOL0     C22667  -0.790   3.748   3.402 -1.4987 -0.6409 -0.0458
  930MOL0     C22668  -0.934   3.778   3.391  0.1867 -0.2029  0.1395
  930MOL0     C22669  -0.999   3.761   3.249  0.8303 -0.0824  0.0317
  930MOL0     C22670  -1.148   3.762   3.251  0.1982 -0.3503  0.3626
  930MOL0     C22671  -1.210   3.764   3.108  0.0441  0.6995 -0.1939
  930MOL0    Cl22672  -1.136   3.646   2.997  0.2668 -0.2905 -0.2149
  930MOL0     C22673  -0.291   3.807   3.669 -0.2358  0.4129 -0.8433
  930MOL0     C22674  -0.148   3.840   3.683  0.2036  0.3355 -0.0003
  930MOL0     O22675   0.117   3.735   3.776  0.1433 -0.3389 -0.1067
  930MOL0     C22676   0.373   3.861   3.761 -0.1108 -0.5341  0.7893
  930MOL0     C22677   0.505   3.908   3.787 -0.3485  0.5389  0.2319
  930MOL0     N22678   1.281   3.953   3.754  0.5301  0.2874  0.1835
  930MOL0     N22679   1.400   3.897   3.749 -0.4280 -0.1371 -0.5777
  930MOL0     C22680   2.557   4.033   3.973 -1.0868 -0.7206  0.6752
  930MOL0     C22681   2.686   4.086   4.006  0.1509  0.0023  0.8310
  930MOL0     C22682   3.027   4.236   4.322  0.3095  0.2903 -0.2756
  930MOL0     C22683   3.066   4.268   4.455  0.1461  0.1033 -0.0073
  930MOL0     C22684   3.200   4.303   4.473  0.3406 -0.7216 -0.0500
  930MOL0     C22685   3.292   4.299   4.370 -0.7455 -1.1096 -0.4023
  930MOL0     O22686   3.418   4.326   4.390 -0.4818 -0.3687  0.1853
  930MOL0     C22687   3.467   4.394   4.511 -0.3623  1.4058  0.0888
  930MOL0     C22688   3.613   4.436   4.482  0.5024 -0.0393  0.4148
  930MOL0     C22689   3.620   4.498   4.331 -0.6239 -0.0635 -0.6749
  930MOL0     C22690   3.752   4.573   4.313  0.4626  0.3111 -0.0638
  930MOL0     C22691   3.867   4.476   4.324  0.1061  0.1007  0.3925
  930MOL0     C22692   3.969   4.413   4.340  0.4116 -0.2080  0.9866
  930MOL0     C22693   3.253   4.254   4.245 -0.7079 -0.6017 -0.2872
  930MOL0     C22694   3.119   4.225   4.219  0.1564  0.6610 -0.7677
  930MOL0     H22695   2.695   4.026   4.334  0.1396 -0.8518  0.7272
  930MOL0     H22696   2.486   3.925   4.288  2.6500 -0.4927  0.5263
  930MOL0     H22697   2.299   3.870   4.235 -2.3991  0.6680 -0.8805
  930MOL0     H22698   2.371   3.742   4.153 -1.3757  0.3507  0.8012
  930MOL0     H22699   2.115   3.742   4.193  2.4218 -4.6816  0.0694
  930MOL0     H22700   2.166   3.701   4.029  2.8877  2.2718 -2.7851
  930MOL0     H22701   2.129   3.937   3.941  1.2799 -1.6265 -0.6020
  930MOL0     H22702   2.039   3.977   4.087 -0.0976 -0.2972  0.7659
  930MOL0     H22703   1.973   3.750   3.895 -0.3296  0.1591 -0.2094
  930MOL0     H22704   1.898   3.784   4.059  1.2941 -0.2107  0.4419
  930MOL0     H22705   1.905   3.957   3.809 -0.7659 -1.2693 -0.4394
  930MOL0     H22706   1.820   4.016   3.945  1.6858  0.2380  0.2229
  930MOL0     H22707   1.749   3.808   3.739 -0.1728  2.4138 -1.0247
  930MOL0     H22708   1.671   3.954   3.773  2.8638 -0.9019 -3.4737
  930MOL0     H22709   1.682   3.717   3.967  1.9079  1.5399 -0.2503
  930MOL0     H22710   1.567   3.867   3.980  0.0635 -0.2241 -0.2489
  930MOL0     H22711   1.477   3.640   3.950 -0.9277  0.4584 -0.1597
  930MOL0     H22712   1.531   3.648   3.786  1.3560  0.8180 -0.2946
  930MOL0     H22713   1.215   3.687   3.929 -1.0190 -0.3668 -2.9065
  930MOL0     H22714   0.977   3.840   3.808 -1.0954  0.1383  2.6426
  930MOL0     H22715   1.053   3.997   3.761 -2.2106 -0.6731 -1.0034
  930MOL0     H22716   1.085   4.030   4.030 -1.0212 -0.7715  2.4682
  930MOL0     H22717   1.006   3.878   4.043 -0.2830  0.0882  0.3431
  930MOL0     H22718   0.852   4.043   4.075 -1.3342 -2.8357  0.6033
  930MOL0     H22719   0.887   4.125   3.921 -4.8017 -1.4774 -5.2745
  930MOL0     H22720   0.752   3.860   3.967  0.2579  0.7417  0.9544
  930MOL0     H22721   0.796   3.936   3.808  0.4840  0.5214 -0.3486
  930MOL0     H22722   0.426   4.103   4.051  0.3207  0.7556 -0.3165
  930MOL0     H22723   0.214   3.995   4.024 -1.2641 -1.4571  0.4514
  930MOL0     H22724  -0.153   3.943   3.999 -2.7347 -0.4497  1.0903
  930MOL0     H22725  -0.378   3.865   4.002  0.6956  1.0426 -0.5281
  930MOL0     H22726  -0.636   3.619   3.742  0.2164  1.6522  0.8695
  930MOL0     H22727  -0.470   3.601   3.689  0.1713  0.2667 -0.5516
  930MOL0     H22728  -0.533   3.702   3.488  0.3605  1.6059 -1.2924
  930MOL0     H22729  -0.589   3.846   3.580 -0.1492  0.1302  2.1724
  930MOL0     H22730  -0.804   3.780   3.615  0.0522 -0.0731 -1.3681
  930MOL0     H22731  -0.783   3.609   3.558 -1.6134 -0.4931 -0.1372
  930MOL0     H22732  -0.731   3.837   3.379 -0.8285 -1.6890 -2.7922
  930MOL0     H22733  -0.758   3.675   3.327  2.2280 -0.5878  1.2838
  930MOL0     H22734  -0.947   3.884   3.412  1.0692  0.0003 -0.2640
  930MOL0     H22735  -0.973   3.706   3.463  0.5177 -0.6628 -0.1341
  930MOL0     H22736  -0.961   3.667   3.208 -1.1221 -0.1256 -1.8227
  930MOL0     H22737  -0.969   3.842   3.183 -2.2608  2.9958  2.0529
  930MOL0     H22738  -1.192   3.680   3.308  1.1901 -2.1098 -1.2906
  930MOL0     H22739  -1.190   3.848   3.305  1.2494  1.7748 -1.9780
  930MOL0     H22740  -1.199   3.863   3.064  2.3345  0.2940 -0.6440
  930MOL0     H22741  -1.318   3.743   3.103 -0.2804  2.4895 -3.8456
  930MOL0     H22742  -0.334   3.777   3.574 -0.3985  0.7924 -0.8939
  930MOL0     H22743  -0.083   3.825   3.597 -2.4340  0.0646 -2.0507
  930MOL0     H22744   0.354   3.801   3.672  1.6267  1.1558 -0.8243
  930MOL0     H22745   0.582   3.878   3.717 -0.6911  1.0918 -0.3817
  930MOL0     H22746   2.523   4.028   3.870  0.8831  0.8849 -0.1281
  930MOL0     H22747   2.751   4.105   3.922  2.5321 -1.7166  2.1617
  930MOL0     H22748   2.989   4.275   4.530 -0.9521 -0.6827 -1.0358
  930MOL0     H22749   3.231   4.326   4.575  1.7711  0.3287 -0.6944
  930MOL0     H22750   3.470   4.330   4.599  0.6015  0.6010 -0.5032
  930MOL0     H22751   3.396   4.472   4.539 -1.0770  0.0759  2.1579
  930MOL0     H22752   3.648   4.511   4.553 -0.7352  1.2865 -0.3169
  930MOL0     H22753   3.670   4.343   4.470 -0.9203 -0.8439 -0.4290
  930MOL0     H22754   3.536   4.569   4.326 -0.1359  0.5885  0.0648
  930MOL0     H22755   3.611   4.432   4.244  2.0716 -0.6649 -0.5511
  930MOL0     H22756   3.748   4.626   4.218  0.5932  1.4777  0.5689
  930MOL0     H22757   3.765   4.656   4.383  3.9441 -0.0171 -0.1414
  930MOL0     H22758   4.061   4.359   4.351 -0.0693 -1.0061  1.1850
  930MOL0     H22759   3.324   4.248   4.163 -0.5932 -0.7290 -0.1775
  930MOL0     H22760   3.085   4.191   4.121  1.9910 -1.9368 -0.6096
  931MOL0     O22761   1.644   9.318   6.418  0.1696  0.0954 -0.4020
  931MOL0     C22762   1.631   9.249   6.524  0.0651 -0.5236 -0.0675
  931MOL0     O22763   1.708   9.264   6.638 -0.3228 -0.3714  0.1036
  931MOL0     C22764   1.815   9.346   6.628  0.2301  0.1583 -0.2400
  931MOL0     C22765   1.915   9.324   6.536 -0.6179  0.0153 -0.8724
  931MOL0     C22766   2.040   9.391   6.534  0.0102 -0.1393 -0.0986
  931MOL0     C22767   2.056   9.498   6.622  0.3680 -0.5335  0.0704
  931MOL0     O22768   2.192   9.536   6.638 -0.1931  0.3953  0.6900
  931MOL0     C22769   2.213   9.648   6.729 -0.1416 -0.5444  0.5714
  931MOL0     C22770   2.365   9.699   6.710  0.2488  0.7746  0.4420
  931MOL0     C22771   2.459   9.581   6.753 -0.4650 -0.0927 -0.5800
  931MOL0     C22772   2.598   9.637   6.799  0.9697  0.0681  0.2496
  931MOL0     C22773   2.720   9.540   6.772 -1.3133 -0.7747 -0.1503
  931MOL0     C22774   2.841   9.583   6.853 -0.0941  0.4083  0.2166
  931MOL0     C22775   2.958   9.480   6.846  0.4762  0.0830  0.1398
  931MOL0     C22776   3.023   9.446   6.715  0.1830  1.5146  0.6163
  931MOL0     N22777   3.064   9.565   6.634 -0.4908 -0.3027 -0.2257
  931MOL0     C22778   2.995   9.646   6.552  0.5113 -0.1907 -0.3489
  931MOL0     C22779   3.086   9.740   6.512  0.0415  0.1711 -0.4132
  931MOL0     C22780   3.040   9.852   6.427 -0.0961 -0.8332 -0.7138
  931MOL0     C22781   3.008   9.975   6.512  0.2283  0.0739  1.1381
  931MOL0     C22782   2.987  10.087   6.422  0.1342 -0.3867 -0.1947
  931MOL0     C22783   2.835  10.125   6.403  0.6989 -1.2026 -0.3543
  931MOL0     O22784   2.760  10.006   6.370 -0.1526  0.2710  0.1201
  931MOL0     C22785   2.625   9.994   6.390 -0.6815 -0.1796  0.4819
  931MOL0     C22786   2.543  10.093   6.446 -0.1176 -0.0228  0.0038
  931MOL0     C22787   2.411  10.066   6.474  0.2682 -0.1813 -0.3369
  931MOL0     C22788   2.345   9.944   6.431  0.1336  0.9186 -0.5361
  931MOL0     C22789   2.194   9.921   6.429  0.2042  0.1704 -0.7007
  931MOL0     O22790   2.149   9.838   6.339  0.3548  0.6177 -0.2695
  931MOL0     C22791   2.012   9.807   6.340  1.1899 -0.4812 -0.0267
  931MOL0     C22792   1.911   9.903   6.311 -0.5469  0.0777  0.3781
  931MOL0     C22793   1.774   9.863   6.308 -0.0907  0.1587  0.0939
  931MOL0     C22794   1.736   9.731   6.339  0.3781 -0.5872 -0.1639
  931MOL0     O22795   1.604   9.683   6.335 -0.1936  0.3265 -0.5559
  931MOL0     C22796   1.506   9.750   6.247 -0.1094  0.0456  0.1148
  931MOL0     C22797   1.394   9.816   6.329 -0.0288 -1.3058  1.1532
  931MOL0     C22798   1.310   9.917   6.245  0.5454  0.2895 -0.0845
  931MOL0     C22799   1.183   9.959   6.324 -0.4552  0.4471  0.6639
  931MOL0     C22800   1.128  10.091   6.279  0.6904  0.3065 -0.1630
  931MOL0     C22801   0.994  10.125   6.345 -0.1448  0.3086 -0.1234
  931MOL0     C22802   0.927  10.247   6.278 -1.1408 -0.2241 -0.6292
  931MOL0     C22803   0.788  10.282   6.331 -0.4175  0.4652  0.4150
  931MOL0    Cl22804   0.777  10.291   6.512  0.3824  0.5521  0.2030
  931MOL0     C22805   1.835   9.637   6.370 -0.0752  0.2146 -0.0347
  931MOL0     C22806   1.974   9.672   6.369  0.0798  0.0537  0.1974
  931MOL0     O22807   2.124  10.001   6.496 -0.3493 -0.3687 -0.3215
  931MOL0     C22808   2.434   9.844   6.378  0.7853  0.0016 -0.3105
  931MOL0     C22809   2.574   9.867   6.359  0.4500 -0.5068  0.8189
  931MOL0     N22810   3.203   9.710   6.585 -0.0372 -0.5374  0.4181
  931MOL0     N22811   3.186   9.607   6.653  0.3703 -0.4983  0.8404
  931MOL0     C22812   1.956   9.529   6.712 -0.4586 -0.0815 -0.1912
  931MOL0     C22813   1.837   9.456   6.714  0.6153 -0.1355 -0.2479
  931MOL0     C22814   1.521   9.151   6.522 -0.5930  0.5045 -0.1794
  931MOL0     C22815   1.419   9.153   6.415 -0.4808 -1.3374  0.3348
  931MOL0     C22816   1.318   9.064   6.404 -0.7863  0.1460 -0.2950
  931MOL0     C22817   1.320   8.955   6.493  0.1299  0.5433 -0.4694
  931MOL0     O22818   1.229   8.853   6.481 -0.0636 -0.1560 -0.1945
  931MOL0     C22819   1.152   8.836   6.355 -0.4491  0.3675  0.0896
  931MOL0     C22820   1.064   8.717   6.377  0.0441 -0.1083  0.1526
  931MOL0     C22821   0.972   8.686   6.256 -0.6272  0.0220  0.4376
  931MOL0     C22822   1.031   8.700   6.117 -0.3237 -0.8437  0.4124
  931MOL0     C22823   1.144   8.616   6.086  0.2838  1.2537 -0.3488
  931MOL0     C22824   1.228   8.528   6.055  0.4991  0.6220 -1.1040
  931MOL0     C22825   1.405   8.955   6.599  0.9017 -0.3550 -0.5228
  931MOL0     C22826   1.507   9.046   6.609 -0.0080 -0.7013 -0.1256
  931MOL0     H22827   1.898   9.245   6.464 -1.6017 -0.8400  0.2474
  931MOL0     H22828   2.119   9.366   6.464  1.6264  1.4228  1.0656
  931MOL0     H22829   2.186   9.620   6.832  0.2873 -2.3758  0.2331
  931MOL0     H22830   2.148   9.728   6.694 -0.4416 -0.4712  1.2780
  931MOL0     H22831   2.378   9.789   6.770 -0.8771  1.1187  0.2026
  931MOL0     H22832   2.383   9.726   6.605  1.3232  0.2386  0.4712
  931MOL0     H22833   2.478   9.514   6.669 -2.2395 -3.3001  1.3958
  931MOL0     H22834   2.413   9.524   6.834  2.0206  1.1934  1.8899
  931MOL0     H22835   2.623   9.725   6.739  0.2982  1.4338  1.8875
  931MOL0     H22836   2.593   9.678   6.900 -0.8540  1.7652 -0.4585
  931MOL0     H22837   2.740   9.542   6.664  0.8990 -0.4794  0.2065
  931MOL0     H22838   2.681   9.444   6.806 -2.3884 -1.6514 -3.4158
  931MOL0     H22839   2.801   9.579   6.955  0.3805  0.2482  0.3977
  931MOL0     H22840   2.880   9.685   6.844 -0.7708  0.6871  0.3802
  931MOL0     H22841   3.026   9.523   6.921 -0.3298  1.7310 -0.0215
  931MOL0     H22842   2.926   9.383   6.884  1.6128 -0.4331 -0.1647
  931MOL0     H22843   2.953   9.381   6.662 -1.1619  2.0234  1.6934
  931MOL0     H22844   3.117   9.397   6.740 -1.3313  0.1246  4.3688
  931MOL0     H22845   2.895   9.620   6.519 -0.4057  1.6292  0.8442
  931MOL0     H22846   2.957   9.813   6.367 -2.5600  2.3578  0.3527
  931MOL0     H22847   3.125   9.879   6.363  2.7315  0.6630  3.2396
  931MOL0     H22848   3.104   9.991   6.560  1.1368 -0.7974 -0.3177
  931MOL0     H22849   2.924   9.959   6.580 -1.9384 -0.2060 -1.4190
  931MOL0     H22850   3.036  10.172   6.470 -1.1797  0.9646 -1.1347
  931MOL0     H22851   3.032  10.074   6.323  0.8189  0.7384 -0.0392
  931MOL0     H22852   2.835  10.192   6.317 -2.0040 -0.8613 -0.1658
  931MOL0     H22853   2.789  10.172   6.490 -3.2939 -1.6747 -2.0106
  931MOL0     H22854   2.565  10.195   6.479 -0.0011  0.0665 -0.3531
  931MOL0     H22855   2.360  10.144   6.531  0.6959 -1.3252  1.6904
  931MOL0     H22856   1.926  10.001   6.269 -3.4436  0.2609 -0.4507
  931MOL0     H22857   1.700   9.939   6.286  1.4625  2.0493  0.9952
  931MOL0     H22858   1.459   9.675   6.183 -1.0500  0.9798 -0.3250
  931MOL0     H22859   1.549   9.825   6.180  0.5505 -1.8885 -1.7461
  931MOL0     H22860   1.446   9.869   6.410 -0.9324  1.3080  0.1149
  931MOL0     H22861   1.329   9.740   6.374 -1.5760 -0.0449  1.1447
  931MOL0     H22862   1.297   9.874   6.146 -0.3063  1.4189 -0.4859
  931MOL0     H22863   1.369  10.009   6.246 -2.4568  2.3904  2.2024
  931MOL0     H22864   1.097   9.893   6.310 -1.4898  2.2936 -3.3653
  931MOL0     H22865   1.207   9.962   6.430  0.4786 -0.5618  0.5041
  931MOL0     H22866   1.117  10.092   6.170 -0.1674 -0.2619 -0.0951
  931MOL0     H22867   1.193  10.173   6.310 -0.4305  0.9278  0.5940
  931MOL0     H22868   1.013  10.136   6.452 -2.9723  2.7497  0.2622
  931MOL0     H22869   0.926  10.043   6.321 -0.7303  0.7464  0.0020
  931MOL0     H22870   0.989  10.333   6.307 -0.8153 -0.8744  0.6475
  931MOL0     H22871   0.929  10.245   6.168 -2.4913 -4.9901 -0.7691
  931MOL0     H22872   0.710  10.213   6.296 -1.3993  1.9850 -0.4802
  931MOL0     H22873   0.764  10.381   6.292 -2.7116  0.9388  2.7272
  931MOL0     H22874   1.798   9.542   6.409  1.0635  0.2977  1.2995
  931MOL0     H22875   2.054   9.605   6.400 -0.4802 -0.3528  0.7962
  931MOL0     H22876   2.401   9.753   6.330  5.2242 -1.1629 -1.5973
  931MOL0     H22877   2.643   9.793   6.319 -1.7343 -2.1769 -0.0417
  931MOL0     H22878   1.973   9.599   6.793 -0.0769 -0.6522  0.2351
  931MOL0     H22879   1.766   9.477   6.793 -1.2447  2.7693 -2.4969
  931MOL0     H22880   1.421   9.220   6.329 -1.8870 -2.2217 -0.4316
  931MOL0     H22881   1.245   9.087   6.327 -1.5268  0.3612  0.4550
  931MOL0     H22882   1.212   8.801   6.271 -1.5113 -5.6021  1.3761
  931MOL0     H22883   1.100   8.926   6.321  2.3232  1.7763 -0.7774
  931MOL0     H22884   1.126   8.631   6.401  1.0699  1.0170  1.6883
  931MOL0     H22885   0.995   8.737   6.459 -0.2684  0.9245 -0.3372
  931MOL0     H22886   0.879   8.742   6.270 -0.4367  0.7448 -0.9635
  931MOL0     H22887   0.949   8.579   6.261 -0.7959 -0.0025 -0.5945
  931MOL0     H22888   0.956   8.680   6.041 -0.0579 -3.1943  0.7121
  931MOL0     H22889   1.072   8.801   6.109 -0.1313 -0.8906  0.7600
  931MOL0     H22890   1.290   8.452   6.010 -0.3892  0.7137 -2.5511
  931MOL0     H22891   1.394   8.873   6.670  1.5430  0.7750  0.9504
  931MOL0     H22892   1.562   9.042   6.703  1.2813 -1.6242 -0.8973
  932MOL0     O22893   0.091   7.340   0.737 -0.5439  0.4058  0.6742
  932MOL0     C22894   0.098   7.372   0.618 -0.3807  0.5813 -0.0318
  932MOL0     O22895  -0.013   7.384   0.538  0.3512  0.0766  0.3411
  932MOL0     C22896  -0.134   7.357   0.593  0.1058 -0.1031  0.3781
  932MOL0     C22897  -0.194   7.233   0.588 -0.2516  1.2511 -0.4556
  932MOL0     C22898  -0.329   7.221   0.638  0.2361  0.4326  0.0987
  932MOL0     C22899  -0.390   7.338   0.682  0.9329 -0.4425 -0.5613
  932MOL0     O22900  -0.519   7.343   0.724  0.2844 -0.1126  0.6990
  932MOL0     C22901  -0.612   7.276   0.637 -0.1893 -0.1907  0.3978
  932MOL0     C22902  -0.641   7.344   0.504 -0.1483  0.9388  0.4476
  932MOL0     C22903  -0.691   7.490   0.511 -0.0087 -0.5157 -0.4323
  932MOL0     C22904  -0.813   7.516   0.609 -1.1598  0.4731  0.7722
  932MOL0     C22905  -0.829   7.672   0.622 -0.0016  1.0987  0.0612
  932MOL0     C22906  -0.945   7.703   0.715  0.6571 -0.0449  0.0445
  932MOL0     C22907  -1.086   7.683   0.647  0.5397  0.2318  1.1762
  932MOL0     C22908  -1.198   7.722   0.749  0.1679  0.6731  1.2227
  932MOL0     N22909  -1.342   7.725   0.703 -0.2335 -0.3269  0.2656
  932MOL0     C22910  -1.446   7.653   0.764  0.1107  0.4379 -0.1581
  932MOL0     C22911  -1.556   7.662   0.688  0.4491 -0.1272 -0.9356
  932MOL0     C22912  -1.686   7.593   0.718  0.4289 -0.0710  0.4193
  932MOL0     C22913  -1.753   7.645   0.846 -1.2919  0.4672 -0.5385
  932MOL0     C22914  -1.901   7.617   0.863  0.5527 -0.0760  0.1110
  932MOL0     C22915  -1.940   7.480   0.924  0.4332 -0.6382 -0.6599
  932MOL0     O22916  -2.080   7.466   0.908  1.2841 -0.2121  0.0760
  932MOL0     C22917  -2.150   7.380   0.984 -0.3247  0.5469 -0.1949
  932MOL0     C22918  -2.103   7.273   1.066 -0.4935  0.7488 -0.5303
  932MOL0     C22919  -2.185   7.187   1.138  0.2338  0.1580  0.5956
  932MOL0     C22920  -2.325   7.197   1.128 -0.1294 -0.0422 -0.1371
  932MOL0     C22921  -2.414   7.109   1.206 -0.3398 -0.0756 -0.2655
  932MOL0     O22922  -2.364   7.067   1.325 -0.0208  0.2207 -0.2276
  932MOL0     C22923  -2.445   6.981   1.391  0.8900  0.4504  0.2310
  932MOL0     C22924  -2.426   6.848   1.380  0.2998 -0.2669 -0.4413
  932MOL0     C22925  -2.504   6.759   1.463 -0.4681  0.3608  0.3730
  932MOL0     C22926  -2.592   6.810   1.561 -0.1848  0.5730  0.2022
  932MOL0     O22927  -2.653   6.732   1.660 -0.1751  0.0594  0.1361
  932MOL0     C22928  -2.621   6.594   1.705 -0.7345 -0.4890 -0.2664
  932MOL0     C22929  -2.612   6.577   1.859  0.4204 -0.3978 -0.0180
  932MOL0     C22930  -2.730   6.641   1.934  0.1793  0.0366 -0.5297
  932MOL0     C22931  -2.739   6.597   2.081  0.0502 -0.2811  0.4197
  932MOL0     C22932  -2.868   6.646   2.129  0.3015 -0.5505 -1.0509
  932MOL0     C22933  -2.947   6.528   2.186  1.0786  0.9421  0.0799
  932MOL0     C22934  -3.079   6.566   2.260 -0.0144 -0.6406 -0.2311
  932MOL0     C22935  -3.180   6.630   2.166 -0.2221 -0.4407  0.1704
  932MOL0    Cl22936  -3.334   6.677   2.260 -0.2348 -0.1392 -0.3063
  932MOL0     C22937  -2.610   6.953   1.566 -0.0176 -0.5775  0.4793
  932MOL0     C22938  -2.533   7.038   1.481  0.2172  0.5427 -0.9358
  932MOL0     O22939  -2.521   7.076   1.160 -0.1169  0.5539  0.3689
  932MOL0     C22940  -2.380   7.296   1.033  0.2474 -0.6890 -0.8890
  932MOL0     C22941  -2.287   7.380   0.960  0.3258  0.4612 -0.7320
  932MOL0     N22942  -1.518   7.734   0.586  0.3102 -0.1180  0.0122
  932MOL0     N22943  -1.395   7.771   0.590  0.4518  0.1418  0.3401
  932MOL0     C22944  -0.329   7.460   0.678 -0.2745 -0.1122  0.3506
  932MOL0     C22945  -0.196   7.472   0.647 -0.2206 -0.6462 -0.2122
  932MOL0     C22946   0.236   7.383   0.572 -0.6046  0.3613 -0.4027
  932MOL0     C22947   0.344   7.318   0.633 -0.2276  0.3028 -0.2416
  932MOL0     C22948   0.466   7.334   0.574  0.5666 -0.5396 -0.1962
  932MOL0     C22949   0.488   7.406   0.456  0.0856  0.8786 -1.1990
  932MOL0     O22950   0.604   7.435   0.395 -0.1523 -0.0128  0.3580
  932MOL0     C22951   0.721   7.355   0.434 -0.1922  0.1119  0.7860
  932MOL0     C22952   0.835   7.372   0.335 -0.2430  0.0277 -0.3692
  932MOL0     C22953   0.917   7.491   0.360  1.2835  1.3745 -0.0855
  932MOL0     C22954   1.025   7.529   0.257 -0.2137  0.2588  0.5676
  932MOL0     C22955   1.098   7.642   0.311 -0.2955  0.2753  0.3735
  932MOL0     C22956   1.150   7.744   0.354  0.0912  0.2380  0.6911
  932MOL0     C22957   0.382   7.468   0.399  0.1813  0.4899  0.2823
  932MOL0     C22958   0.252   7.453   0.453 -0.5391 -0.1600  0.1145
  932MOL0     H22959  -0.140   7.144   0.556  1.4083  2.4172 -1.0120
  932MOL0     H22960  -0.371   7.122   0.653  1.1652 -0.1328 -0.9276
  932MOL0     H22961  -0.709   7.273   0.687 -1.6212  0.3306 -2.1497
  932MOL0     H22962  -0.583   7.171   0.625 -2.4884 -0.7211 -1.3676
  932MOL0     H22963  -0.701   7.278   0.440  1.5034  0.9051 -1.1296
  932MOL0     H22964  -0.544   7.352   0.454 -0.2018  0.8940  0.3367
  932MOL0     H22965  -0.706   7.533   0.412  0.5699 -0.2568 -0.4095
  932MOL0     H22966  -0.611   7.544   0.561 -1.5218 -0.3994  2.0503
  932MOL0     H22967  -0.907   7.470   0.578 -1.5294 -1.6707  4.4308
  932MOL0     H22968  -0.790   7.472   0.706 -0.5051 -0.6675  0.1312
  932MOL0     H22969  -0.850   7.713   0.523 -0.5560 -1.2435 -0.8335
  932MOL0     H22970  -0.737   7.718   0.661  0.7646  1.5998 -2.1910
  932MOL0     H22971  -0.944   7.804   0.758 -0.7920 -0.4236  1.0611
  932MOL0     H22972  -0.939   7.635   0.800  0.8226  1.6722  1.4649
  932MOL0     H22973  -1.092   7.742   0.556  2.3209  0.4434  1.1713
  932MOL0     H22974  -1.098   7.576   0.625  3.8783 -0.1193  0.5482
  932MOL0     H22975  -1.185   7.825   0.782  3.8138  0.9056 -0.4148
  932MOL0     H22976  -1.181   7.660   0.837 -1.1858 -2.5882 -0.6252
  932MOL0     H22977  -1.437   7.586   0.849  3.6805 -2.3835 -2.4707
  932MOL0     H22978  -1.650   7.493   0.742  1.1729  0.4930  1.7789
  932MOL0     H22979  -1.755   7.590   0.633  2.5795  0.3942 -1.4412
  932MOL0     H22980  -1.741   7.754   0.847  1.7877  0.2376 -2.3671
  932MOL0     H22981  -1.701   7.606   0.935 -1.0044  3.4560  0.7396
  932MOL0     H22982  -1.955   7.696   0.917  0.4537 -0.0213 -0.0687
  932MOL0     H22983  -1.936   7.620   0.760  0.1447  0.2186  0.2550
  932MOL0     H22984  -1.921   7.492   1.031 -0.4737  1.7336 -0.6901
  932MOL0     H22985  -1.880   7.400   0.880  2.8991  1.0654 -0.5871
  932MOL0     H22986  -1.996   7.271   1.083 -0.3211 -1.8567 -1.4359
  932MOL0     H22987  -2.145   7.124   1.216 -2.0865 -0.0446  1.6932
  932MOL0     H22988  -2.354   6.814   1.306 -0.7548 -1.8138 -0.7929
  932MOL0     H22989  -2.507   6.651   1.453 -0.9866  0.4565 -0.5720
  932MOL0     H22990  -2.520   6.564   1.674  0.3566 -0.9927  3.2824
  932MOL0     H22991  -2.702   6.535   1.660  0.0882 -1.4031 -0.5896
  932MOL0     H22992  -2.524   6.628   1.899 -0.7767  1.4259  0.4432
  932MOL0     H22993  -2.618   6.469   1.874 -2.7356 -0.1003  1.6994
  932MOL0     H22994  -2.819   6.602   1.883 -0.2052  0.2439 -0.0194
  932MOL0     H22995  -2.710   6.747   1.915 -0.0291 -0.1597 -1.9804
  932MOL0     H22996  -2.744   6.487   2.086 -3.1219 -0.4351 -2.2475
  932MOL0     H22997  -2.659   6.642   2.140  2.0925 -2.4426 -0.4942
  932MOL0     H22998  -2.934   6.684   2.051 -0.9816  2.5006  1.2749
  932MOL0     H22999  -2.851   6.729   2.199 -0.6343 -0.4426 -0.9393
  932MOL0     H23000  -2.889   6.475   2.263 -0.0376  0.5249  0.6442
  932MOL0     H23001  -2.984   6.462   2.107  3.7387  1.1992 -1.5108
  932MOL0     H23002  -3.125   6.480   2.310  1.1217 -0.2321  1.6462
  932MOL0     H23003  -3.052   6.638   2.338  4.0343 -2.7156  0.5403
  932MOL0     H23004  -3.208   6.559   2.088 -2.5644 -2.0346  2.2732
  932MOL0     H23005  -3.140   6.719   2.118  0.8098 -0.8493  0.2598
  932MOL0     H23006  -2.682   6.996   1.635 -0.4880  0.0480 -0.3794
  932MOL0     H23007  -2.554   7.143   1.500 -1.3570 -0.0347  0.9374
  932MOL0     H23008  -2.486   7.318   1.028  0.6057  1.2547 -0.6972
  932MOL0     H23009  -2.325   7.454   0.890  0.3865  0.9412 -0.2536
  932MOL0     H23010  -0.377   7.549   0.716 -0.1186 -0.5100  1.5245
  932MOL0     H23011  -0.140   7.562   0.669  0.6134 -0.9990 -0.8290
  932MOL0     H23012   0.344   7.246   0.714  2.2982  1.2614  0.6921
  932MOL0     H23013   0.547   7.277   0.616  0.5701  0.5192  1.3015
  932MOL0     H23014   0.697   7.248   0.431 -1.2571  0.3297  1.1110
  932MOL0     H23015   0.761   7.386   0.531  3.0735  1.8116 -0.9148
  932MOL0     H23016   0.905   7.289   0.344  3.1687  2.7535  0.3750
  932MOL0     H23017   0.804   7.383   0.230  0.4727  2.6192 -0.3845
  932MOL0     H23018   0.965   7.470   0.456 -0.8120  0.9012  0.9312
  932MOL0     H23019   0.849   7.576   0.372  1.2108  1.2092  0.7703
  932MOL0     H23020   1.091   7.445   0.231 -1.4203 -0.5479  0.0280
  932MOL0     H23021   0.964   7.547   0.168 -0.4213  0.1746  0.6924
  932MOL0     H23022   1.180   7.821   0.422  0.1892  1.2442 -0.4530
  932MOL0     H23023   0.402   7.517   0.304  2.8076 -1.2034 -0.1336
  932MOL0     H23024   0.162   7.480   0.398 -2.1313  0.6009  2.9030
  933MOL0     O23025   2.159   1.260   7.309 -0.5768 -1.0205 -0.1248
  933MOL0     C23026   2.183   1.377   7.327 -0.1864  0.7874  0.5361
  933MOL0     O23027   2.114   1.464   7.414 -0.6294  0.3197  0.1517
  933MOL0     C23028   1.988   1.440   7.449  0.5765 -1.3674 -0.5799
  933MOL0     C23029   1.903   1.381   7.355  0.7606  0.1897  0.0176
  933MOL0     C23030   1.775   1.351   7.390 -0.8918 -0.2785  0.7051
  933MOL0     C23031   1.724   1.368   7.515  0.6405 -0.3975  0.6364
  933MOL0     O23032   1.597   1.334   7.550 -0.1678 -0.4288 -0.1460
  933MOL0     C23033   1.507   1.279   7.453 -0.5726  0.3614 -0.4863
  933MOL0     C23034   1.372   1.234   7.518  0.8740  0.1462 -0.0946
  933MOL0     C23035   1.277   1.356   7.542 -0.7336  0.3511 -0.5484
  933MOL0     C23036   1.133   1.324   7.596  0.0583  0.0115  0.1183
  933MOL0     C23037   1.039   1.440   7.597  1.0762 -0.7512  0.1896
  933MOL0     C23038   1.082   1.564   7.682  0.0915 -0.1611  0.7838
  933MOL0     C23039   0.994   1.679   7.645  0.7570  0.8876  0.1522
  933MOL0     C23040   1.044   1.828   7.680  0.6931  0.7882  0.8139
  933MOL0     N23041   0.943   1.929   7.634 -0.2236 -0.0780  0.4776
  933MOL0     C23042   0.839   1.976   7.706  0.2769  0.2807 -0.3508
  933MOL0     C23043   0.772   2.045   7.624  0.8894 -0.3969  0.8699
  933MOL0     C23044   0.648   2.124   7.648 -0.4769  1.0283 -0.9982
  933MOL0     C23045   0.526   2.031   7.688  0.4100 -0.5900  0.2615
  933MOL0     C23046   0.383   2.097   7.676  0.1828  0.2268  0.8506
  933MOL0     C23047   0.336   2.082   7.527 -0.3133 -0.3103 -1.2950
  933MOL0     O23048   0.245   2.185   7.482  0.0991 -0.4913 -0.0377
  933MOL0     C23049   0.111   2.146   7.481 -0.1887 -0.7404  0.5894
  933MOL0     C23050   0.027   2.202   7.577  0.3075  0.2232  0.4074
  933MOL0     C23051  -0.105   2.170   7.560  0.0522  0.2622  0.7232
  933MOL0     C23052  -0.160   2.080   7.464  0.3930 -0.3476 -0.4405
  933MOL0     C23053  -0.305   2.051   7.476 -0.2290  0.1946  0.4654
  933MOL0     O23054  -0.339   1.977   7.374  0.1590 -0.2114 -0.1366
  933MOL0     C23055  -0.468   1.939   7.378 -0.0653  0.4221 -0.9986
  933MOL0     C23056  -0.557   1.993   7.290 -0.7919 -0.6740  1.2171
  933MOL0     C23057  -0.691   1.959   7.296  0.6046 -0.2000 -0.5513
  933MOL0     C23058  -0.728   1.850   7.383  0.3274 -0.3197  0.7392
  933MOL0     O23059  -0.862   1.825   7.391  0.0244 -0.6805 -1.0354
  933MOL0     C23060  -0.917   1.698   7.423 -0.4752 -0.0016 -0.3899
  933MOL0     C23061  -1.064   1.711   7.429  0.9182  0.4131  0.5293
  933MOL0     C23062  -1.120   1.597   7.518  0.0850  0.1801  1.0513
  933MOL0     C23063  -1.269   1.605   7.513 -0.0929  0.1452 -0.4399
  933MOL0     C23064  -1.313   1.716   7.613 -1.4216 -0.1624 -0.6515
  933MOL0     C23065  -1.459   1.720   7.618  1.0084 -0.6324  0.7233
  933MOL0     C23066  -1.536   1.761   7.492  0.3689 -0.4357  0.4838
  933MOL0     C23067  -1.676   1.744   7.496 -0.8269 -0.3937 -0.2507
  933MOL0    Cl23068  -1.744   1.855   7.359  0.0121 -0.0888 -0.0194
  933MOL0     C23069  -0.641   1.790   7.464  0.1510 -0.2617 -0.3056
  933MOL0     C23070  -0.512   1.839   7.474 -0.7710  0.1303  0.0030
  933MOL0     O23071  -0.383   2.106   7.552  0.1816  0.2068  0.1844
  933MOL0     C23072  -0.076   2.028   7.370  0.1689  0.1117  0.2105
  933MOL0     C23073   0.063   2.051   7.383 -0.6313  0.1463 -0.0350
  933MOL0     N23074   0.831   2.058   7.501  0.8607  0.2891 -0.2695
  933MOL0     N23075   0.931   1.979   7.504  0.0855  0.3989  0.1743
  933MOL0     C23076   1.809   1.430   7.612  0.4960 -0.8639 -0.8971
  933MOL0     C23077   1.944   1.468   7.577  0.1916  0.9773 -0.0389
  933MOL0     C23078   2.307   1.427   7.263 -0.5394 -0.2971 -0.3502
  933MOL0     C23079   2.379   1.350   7.166  0.6108  0.8947 -0.5614
  933MOL0     C23080   2.495   1.398   7.110 -0.3595 -0.9680 -0.3670
  933MOL0     C23081   2.553   1.510   7.171  0.7569  0.1171  0.0751
  933MOL0     O23082   2.676   1.540   7.121  0.0463 -0.2535  0.0389
  933MOL0     C23083   2.751   1.646   7.183  0.2591 -0.8094  0.2176
  933MOL0     C23084   2.891   1.673   7.136  1.0222 -0.6784  0.4140
  933MOL0     C23085   2.980   1.546   7.139 -0.5772  0.0415 -0.7388
  933MOL0     C23086   3.036   1.525   7.285  0.4931  0.1568  0.2604
  933MOL0     C23087   3.166   1.461   7.291 -1.2388 -0.4550 -1.0662
  933MOL0     C23088   3.280   1.422   7.301  0.2911 -0.7342 -0.3792
  933MOL0     C23089   2.486   1.584   7.271 -0.2328  0.3800  0.4417
  933MOL0     C23090   2.360   1.540   7.307  0.0966 -0.8518 -0.1499
  933MOL0     H23091   1.937   1.349   7.257  1.9124 -0.1797  0.5175
  933MOL0     H23092   1.702   1.308   7.322 -0.7573  0.2256  0.2421
  933MOL0     H23093   1.534   1.180   7.414  1.8089 -0.0487  1.8840
  933MOL0     H23094   1.485   1.351   7.374 -1.2801 -0.5458 -1.1363
  933MOL0     H23095   1.399   1.176   7.607  2.5826 -1.1024 -1.3549
  933MOL0     H23096   1.319   1.171   7.446  1.4207 -0.9594  0.4432
  933MOL0     H23097   1.273   1.406   7.445 -2.6980 -0.7865 -1.1106
  933MOL0     H23098   1.323   1.425   7.614  1.8306 -0.3075 -1.4825
  933MOL0     H23099   1.092   1.251   7.526 -0.7776  0.9340 -0.3721
  933MOL0     H23100   1.135   1.285   7.698 -3.8177  1.1546  0.7878
  933MOL0     H23101   0.942   1.405   7.632  0.7188 -0.3174 -0.3455
  933MOL0     H23102   1.026   1.465   7.491 -0.2369 -1.9713  0.0289
  933MOL0     H23103   1.183   1.591   7.650  1.0846 -2.2274  1.9600
  933MOL0     H23104   1.062   1.559   7.789 -0.1828  2.2684  0.9038
  933MOL0     H23105   0.985   1.682   7.536  3.9038  0.7863 -0.2036
  933MOL0     H23106   0.896   1.671   7.692  0.7161  0.6673  0.0286
  933MOL0     H23107   1.142   1.850   7.636  0.5563 -0.0319  0.0784
  933MOL0     H23108   1.055   1.827   7.789 -0.4468  1.4860  0.9542
  933MOL0     H23109   0.793   1.924   7.789 -0.6471 -0.8205 -1.5118
  933MOL0     H23110   0.629   2.181   7.557 -0.3476  1.7461 -0.5826
  933MOL0     H23111   0.672   2.190   7.732  0.9375  1.2418 -1.5462
  933MOL0     H23112   0.549   1.997   7.789 -2.4785 -2.4763  0.3967
  933MOL0     H23113   0.517   1.936   7.633  2.9839 -1.3605  1.0037
  933MOL0     H23114   0.308   2.048   7.739  0.5989 -2.6550 -0.7490
  933MOL0     H23115   0.373   2.199   7.713 -0.8464 -0.2718  2.0110
  933MOL0     H23116   0.297   1.980   7.526 -1.8410  0.1440  1.6245
  933MOL0     H23117   0.426   2.088   7.465  0.2725 -2.6792 -0.7723
  933MOL0     H23118   0.064   2.266   7.656  2.1980 -1.5807  1.0567
  933MOL0     H23119  -0.176   2.198   7.637 -0.9908  0.6136 -0.3219
  933MOL0     H23120  -0.527   2.067   7.217 -0.2476 -0.4461  1.6673
  933MOL0     H23121  -0.777   2.010   7.254  0.5965 -0.4330 -0.8145
  933MOL0     H23122  -0.879   1.663   7.519  0.2283 -1.5486 -1.1914
  933MOL0     H23123  -0.893   1.619   7.350 -0.4623 -1.2504  0.9202
  933MOL0     H23124  -1.092   1.703   7.324  2.8446 -1.4810  0.1002
  933MOL0     H23125  -1.096   1.808   7.468 -2.0225 -0.7103  1.1495
  933MOL0     H23126  -1.086   1.616   7.620  2.6882 -2.0990  0.7392
  933MOL0     H23127  -1.072   1.506   7.481 -0.0246  0.5136  0.0569
  933MOL0     H23128  -1.302   1.619   7.409 -1.9351  0.9495  0.2152
  933MOL0     H23129  -1.296   1.506   7.548 -0.5410 -0.0465 -1.2801
  933MOL0     H23130  -1.269   1.812   7.584  0.1506 -0.6877 -0.1203
  933MOL0     H23131  -1.287   1.679   7.713 -1.7096  1.3628  0.0083
  933MOL0     H23132  -1.489   1.792   7.694 -1.6307 -0.0212 -0.7577
  933MOL0     H23133  -1.497   1.627   7.660  5.0130 -2.8529 -0.0077
  933MOL0     H23134  -1.502   1.863   7.471 -0.2269 -0.5360 -1.1372
  933MOL0     H23135  -1.497   1.714   7.401 -2.4672  1.2723 -1.7815
  933MOL0     H23136  -1.709   1.779   7.594 -4.1113  0.7038 -1.5927
  933MOL0     H23137  -1.704   1.639   7.485 -0.3338 -0.7869  1.9309
  933MOL0     H23138  -0.681   1.720   7.537 -2.3426  0.6037 -0.7306
  933MOL0     H23139  -0.449   1.772   7.532 -0.2227 -0.2884 -1.0630
  933MOL0     H23140  -0.112   1.963   7.290  2.8900  1.5586 -2.3668
  933MOL0     H23141   0.124   2.014   7.302 -1.5712  1.3776 -1.3658
  933MOL0     H23142   1.774   1.450   7.713 -2.5350 -1.7159 -1.6787
  933MOL0     H23143   2.009   1.522   7.644 -1.1158  1.6950  0.6844
  933MOL0     H23144   2.326   1.260   7.136 -1.1190  1.3296  1.0468
  933MOL0     H23145   2.539   1.336   7.033 -2.7605 -2.5154 -0.5958
  933MOL0     H23146   2.755   1.619   7.289  1.6936 -1.1117  0.1161
  933MOL0     H23147   2.693   1.738   7.178  1.7788  0.1761 -0.0839
  933MOL0     H23148   2.876   1.694   7.030 -0.4548 -0.3981  0.6528
  933MOL0     H23149   2.933   1.757   7.192 -1.6902  0.0458  1.5428
  933MOL0     H23150   3.061   1.555   7.067 -1.9394 -3.7570 -3.0945
  933MOL0     H23151   2.920   1.457   7.117  0.8418 -0.4730 -2.7339
  933MOL0     H23152   3.037   1.608   7.357 -2.8978 -1.3945  2.3076
  933MOL0     H23153   2.975   1.452   7.340  1.3265  0.3540  1.4889
  933MOL0     H23154   3.375   1.373   7.313  0.4937 -0.5371 -1.1675
  933MOL0     H23155   2.538   1.666   7.319 -2.5325  1.5240  1.1260
  933MOL0     H23156   2.312   1.606   7.379  0.2139  1.1202 -1.7928
  934MOL0     O23157   1.657   3.051   7.536 -0.2295 -0.1916  0.0406
  934MOL0     C23158   1.669   2.976   7.441 -0.4625  0.6637  0.2211
  934MOL0     O23159   1.586   2.967   7.331  0.1921 -0.4230  0.2132
  934MOL0     C23160   1.484   3.051   7.315 -0.0449 -0.0318 -0.0306
  934MOL0     C23161   1.388   3.079   7.417  0.3869 -0.0394 -0.1691
  934MOL0     C23162   1.283   3.172   7.390  0.7722  0.5574  0.7379
  934MOL0     C23163   1.263   3.223   7.264  0.0651  0.6413 -0.3242
  934MOL0     O23164   1.151   3.293   7.234 -1.3376 -0.1966 -0.3396
  934MOL0     C23165   1.065   3.356   7.326  0.0385  0.3031  0.0944
  934MOL0     C23166   0.976   3.455   7.256  0.9375 -0.2346 -0.0717
  934MOL0     C23167   0.862   3.508   7.346  0.4439  0.2020  1.0018
  934MOL0     C23168   0.763   3.567   7.253 -0.5067 -0.8771  0.4098
  934MOL0     C23169   0.648   3.633   7.325 -0.4404 -0.1074 -0.3194
  934MOL0     C23170   0.528   3.545   7.339 -0.2668  0.6004 -0.1924
  934MOL0     C23171   0.408   3.598   7.420 -0.4042  1.1410 -0.4831
  934MOL0     C23172   0.327   3.691   7.333  0.0607 -0.1098  0.5788
  934MOL0     N23173   0.189   3.705   7.381 -0.5602 -0.5226 -0.3704
  934MOL0     C23174   0.107   3.614   7.444  0.1340  1.3509  1.2198
  934MOL0     C23175  -0.015   3.658   7.448 -0.3862  1.1357  0.3971
  934MOL0     C23176  -0.130   3.585   7.511  0.2070  0.0929 -0.3466
  934MOL0     C23177  -0.259   3.627   7.453  1.4501  0.3726  0.6158
  934MOL0     C23178  -0.367   3.644   7.553 -0.7261 -0.3278 -0.1100
  934MOL0     C23179  -0.509   3.626   7.498 -0.6036 -0.4745  0.8305
  934MOL0     O23180  -0.601   3.647   7.609  0.2272  0.5840  0.8535
  934MOL0     C23181  -0.738   3.655   7.568 -0.9503 -0.2902  0.2618
  934MOL0     C23182  -0.793   3.772   7.583 -0.4152  0.5637  0.2092
  934MOL0     C23183  -0.925   3.798   7.545  0.2791 -0.1793 -0.3213
  934MOL0     C23184  -1.003   3.692   7.499  0.4769 -1.0117 -0.3582
  934MOL0     C23185  -1.144   3.711   7.463 -0.2581  0.6193 -0.7319
  934MOL0     O23186  -1.184   3.836   7.459  0.0110 -0.2028 -0.1120
  934MOL0     C23187  -1.315   3.882   7.459  0.2441 -0.2943 -0.5758
  934MOL0     C23188  -1.330   4.011   7.390 -0.7635  0.1188 -0.4849
  934MOL0     C23189  -1.455   4.063   7.389  0.6008  0.6287 -0.4855
  934MOL0     C23190  -1.565   3.993   7.442 -0.0358  0.7936 -0.0033
  934MOL0     O23191  -1.688   4.056   7.416 -0.3245  0.3138  0.2827
  934MOL0     C23192  -1.810   3.994   7.460 -0.2934  0.8525 -0.7055
  934MOL0     C23193  -1.930   4.060   7.390 -0.1235 -1.0967 -0.2408
  934MOL0     C23194  -1.940   4.208   7.432  0.6058 -0.1551 -0.0948
  934MOL0     C23195  -2.064   4.275   7.369 -0.5937 -0.0285  1.1487
  934MOL0     C23196  -2.081   4.417   7.423  0.6448  0.5642  0.6882
  934MOL0     C23197  -2.192   4.498   7.349 -0.0165  0.0396 -0.0794
  934MOL0     C23198  -2.339   4.477   7.386  0.0366 -0.3671  0.1837
  934MOL0     C23199  -2.437   4.578   7.347 -0.6386  0.0009 -0.2688
  934MOL0    Cl23200  -2.381   4.751   7.406  0.2056 -0.2477 -0.2480
  934MOL0     C23201  -1.548   3.865   7.504  0.8278  0.1805  0.6098
  934MOL0     C23202  -1.424   3.812   7.522  0.0137  0.1069  0.8553
  934MOL0     O23203  -1.217   3.615   7.447 -0.0303 -0.9171 -0.0366
  934MOL0     C23204  -0.948   3.570   7.484 -0.4121  0.6968  0.0332
  934MOL0     C23205  -0.809   3.547   7.510 -0.0486 -0.0732  0.2503
  934MOL0     N23206  -0.013   3.789   7.394  0.7427  0.0774 -0.3168
  934MOL0     N23207   0.107   3.821   7.369  0.8165  0.2018 -0.6225
  934MOL0     C23208   1.358   3.206   7.170 -0.1816  0.0853 -0.1220
  934MOL0     C23209   1.472   3.122   7.196 -0.3635  0.0827 -0.6004
  934MOL0     C23210   1.793   2.902   7.431  0.1037 -0.3132 -0.6505
  934MOL0     C23211   1.821   2.791   7.341 -0.3383  0.2265  0.1479
  934MOL0     C23212   1.943   2.736   7.334  0.2619  0.3621 -0.3478
  934MOL0     C23213   2.050   2.799   7.391 -0.0346 -0.1016 -0.8363
  934MOL0     O23214   2.165   2.737   7.355  0.0697 -0.3221 -0.3041
  934MOL0     C23215   2.301   2.758   7.410 -0.2596  0.1743  0.6621
  934MOL0     C23216   2.378   2.871   7.354  0.4706  0.9903 -0.4569
  934MOL0     C23217   2.434   2.829   7.221  0.1202 -0.5207 -0.4113
  934MOL0     C23218   2.523   2.927   7.151  0.8199  0.0316  0.7414
  934MOL0     C23219   2.595   2.852   7.040  1.1689  0.5637 -0.8608
  934MOL0     C23220   2.661   2.782   6.962  0.4775  0.4109  0.8259
  934MOL0     C23221   2.034   2.897   7.490 -0.2367 -0.4577 -0.4349
  934MOL0     C23222   1.902   2.938   7.515  0.2425  0.1044 -0.3001
  934MOL0     H23223   1.387   3.023   7.510 -1.9696 -0.5612 -0.4443
  934MOL0     H23224   1.208   3.196   7.464  0.9431  5.1023 -0.2683
  934MOL0     H23225   1.123   3.404   7.406 -0.4639  0.2999  0.4688
  934MOL0     H23226   1.004   3.281   7.377  2.5265 -1.6375  0.3652
  934MOL0     H23227   0.927   3.395   7.179 -0.9986  1.9456 -0.6462
  934MOL0     H23228   1.032   3.537   7.209  0.1249 -0.1709 -0.9718
  934MOL0     H23229   0.895   3.587   7.414 -3.2644  0.6037  2.6205
  934MOL0     H23230   0.805   3.429   7.396 -1.7234  0.6035 -0.6655
  934MOL0     H23231   0.817   3.642   7.196 -0.7656  0.6172  2.0565
  934MOL0     H23232   0.728   3.500   7.174  2.6698 -1.4551 -0.6365
  934MOL0     H23233   0.618   3.725   7.275  0.8759 -0.1996 -1.3164
  934MOL0     H23234   0.687   3.668   7.421 -0.4091  1.0497 -0.7474
  934MOL0     H23235   0.560   3.448   7.377  3.4558  1.1466 -1.5353
  934MOL0     H23236   0.495   3.518   7.238  0.2975  2.0761 -0.7961
  934MOL0     H23237   0.348   3.510   7.445 -1.4677  2.2281  0.9642
  934MOL0     H23238   0.426   3.653   7.513 -3.7621  1.0892  0.3155
  934MOL0     H23239   0.308   3.658   7.230  0.4655  1.9430 -0.1997
  934MOL0     H23240   0.385   3.783   7.334  1.2615 -0.8259 -0.0260
  934MOL0     H23241   0.137   3.517   7.482 -0.2823 -0.5612 -2.8223
  934MOL0     H23242  -0.128   3.598   7.620  2.2101 -3.8438  0.2808
  934MOL0     H23243  -0.128   3.476   7.497 -3.3815 -0.1562  0.1486
  934MOL0     H23244  -0.290   3.552   7.379 -1.0138  2.4987 -0.6408
  934MOL0     H23245  -0.240   3.726   7.410  0.0360 -0.6282 -2.6628
  934MOL0     H23246  -0.358   3.570   7.633  0.7766 -1.6913 -1.4628
  934MOL0     H23247  -0.363   3.746   7.594  1.4309 -0.0942 -0.7808
  934MOL0     H23248  -0.501   3.525   7.454  1.4368  0.6763 -1.7551
  934MOL0     H23249  -0.525   3.695   7.415  2.2431  0.7526  1.1742
  934MOL0     H23250  -0.741   3.850   7.637  0.0152 -0.0908  0.7625
  934MOL0     H23251  -0.954   3.902   7.556  2.3343  0.6517 -2.0714
  934MOL0     H23252  -1.246   4.064   7.346 -0.5547  0.8014  0.6879
  934MOL0     H23253  -1.463   4.166   7.354  0.6430  1.5901  2.0474
  934MOL0     H23254  -1.818   4.013   7.567  2.7252 -1.1757 -0.0042
  934MOL0     H23255  -1.817   3.887   7.438 -2.1827  0.7718  0.1319
  934MOL0     H23256  -2.021   4.010   7.423  0.7798  0.5201  5.9293
  934MOL0     H23257  -1.927   4.048   7.281 -1.0097 -0.1059 -0.3939
  934MOL0     H23258  -1.853   4.268   7.405  0.8002 -0.0658  0.7056
  934MOL0     H23259  -1.948   4.222   7.540 -0.2682 -0.4737 -0.1027
  934MOL0     H23260  -2.048   4.286   7.262  1.8698 -0.9509  1.3570
  934MOL0     H23261  -2.146   4.206   7.393  1.9908 -3.7373  0.2982
  934MOL0     H23262  -1.989   4.475   7.413  2.0638 -1.8474 -1.4569
  934MOL0     H23263  -2.104   4.410   7.530 -1.2848  0.6912  0.3247
  934MOL0     H23264  -2.179   4.482   7.242 -2.7202  0.0877 -0.4945
  934MOL0     H23265  -2.174   4.602   7.377 -0.5944  0.1020  0.0729
  934MOL0     H23266  -2.372   4.379   7.349 -1.4290 -1.3576  3.6579
  934MOL0     H23267  -2.344   4.451   7.492  0.7357 -0.8556  0.1115
  934MOL0     H23268  -2.540   4.553   7.373 -0.8151 -0.3717 -1.2680
  934MOL0     H23269  -2.430   4.575   7.238  0.5146 -1.8629 -0.1865
  934MOL0     H23270  -1.637   3.810   7.534 -0.1719  1.4370  0.0719
  934MOL0     H23271  -1.418   3.713   7.565 -1.1376  0.3277  1.5717
  934MOL0     H23272  -1.012   3.485   7.467  0.8828 -1.2742  3.8279
  934MOL0     H23273  -0.761   3.450   7.514  2.7209  1.1276 -1.1919
  934MOL0     H23274   1.352   3.269   7.082 -0.5294  0.7665  0.3826
  934MOL0     H23275   1.556   3.106   7.129  0.0144 -0.4391 -0.0147
  934MOL0     H23276   1.744   2.751   7.276 -2.8664  1.4494  2.1803
  934MOL0     H23277   1.958   2.647   7.273 -3.9664 -0.6538 -0.1964
  934MOL0     H23278   2.357   2.667   7.388  0.1507  1.0777 -2.4757
  934MOL0     H23279   2.289   2.773   7.518 -1.3556 -0.6707  0.6804
  934MOL0     H23280   2.304   2.952   7.353 -0.7305 -0.0142  1.7070
  934MOL0     H23281   2.464   2.883   7.420  2.4116 -1.2142 -2.3857
  934MOL0     H23282   2.354   2.796   7.155 -0.6368  0.1085  0.1569
  934MOL0     H23283   2.491   2.737   7.237 -2.4111 -2.2184 -0.6690
  934MOL0     H23284   2.455   3.005   7.116  1.6900  0.7359  0.5959
  934MOL0     H23285   2.592   2.968   7.225  0.4186  1.2877  0.4389
  934MOL0     H23286   2.723   2.730   6.892 -1.0983 -3.1504  1.8509
  934MOL0     H23287   2.117   2.938   7.547 -1.2781  0.0388  0.7817
  934MOL0     H23288   1.896   3.016   7.589  2.1595  1.8087 -1.8239
  935MOL0     O23289  10.382   3.673  10.979 -0.7382 -0.0876 -0.5102
  935MOL0     C23290  10.357   3.792  10.975  0.6095 -0.4692  0.1226
  935MOL0     O23291  10.236   3.846  10.940  0.1487  0.5056 -0.4756
  935MOL0     C23292  10.132   3.763  10.921 -0.1340  0.3928 -0.0753
  935MOL0     C23293  10.135   3.659  10.819 -0.0384 -0.3703 -1.0256
  935MOL0     C23294  10.015   3.586  10.798  0.0763  0.2699  0.8890
  935MOL0     C23295   9.899   3.604  10.870  0.3688  0.0022  0.2359
  935MOL0     O23296   9.790   3.520  10.838 -0.1886  0.1919 -0.3275
  935MOL0     C23297   9.709   3.462  10.947 -0.6140 -0.1580  0.4514
  935MOL0     C23298   9.589   3.401  10.887  0.1764  0.0695 -0.1736
  935MOL0     C23299   9.486   3.504  10.855  0.3844 -0.1809 -0.2279
  935MOL0     C23300   9.364   3.448  10.776 -1.2366 -0.1842  0.1942
  935MOL0     C23301   9.268   3.557  10.732  0.3295 -0.6160 -0.5230
  935MOL0     C23302   9.153   3.520  10.642  0.0542  0.0970  1.6451
  935MOL0     C23303   9.188   3.438  10.519  0.2355  0.0660  0.3407
  935MOL0     C23304   9.074   3.349  10.471 -0.3159 -0.0262 -0.4580
  935MOL0     N23305   9.123   3.277  10.349 -0.6351 -0.4655 -0.8419
  935MOL0     C23306   9.033   3.251  10.245 -0.3753 -0.3523  0.1865
  935MOL0     C23307   9.112   3.184  10.159  0.4964  0.8121  0.1839
  935MOL0     C23308   9.068   3.128  10.021 -0.7330  0.0326  0.1885
  935MOL0     C23309   9.173   3.168   9.921  0.6347 -0.2965  0.1531
  935MOL0     C23310   9.161   3.093   9.788 -0.1071 -0.1332  0.3122
  935MOL0     C23311   9.291   3.073   9.714 -0.1455 -0.6871  0.0041
  935MOL0     O23312   9.377   3.195   9.695  0.0694  0.0618  0.3929
  935MOL0     C23313   9.492   3.188   9.627 -0.3279 -0.4908  0.8453
  935MOL0     C23314   9.578   3.301   9.612  0.8827 -0.1626  0.1725
  935MOL0     C23315   9.699   3.306   9.559 -0.1908 -0.4357  0.3961
  935MOL0     C23316   9.752   3.190   9.506  0.5390 -0.4273  0.4724
  935MOL0     C23317   9.891   3.186   9.454  0.3834  0.7878 -1.0626
  935MOL0     O23318   9.940   3.059   9.411 -0.3367  0.0997 -0.3539
  935MOL0     C23319  10.069   3.041   9.365  0.8635 -1.1109 -0.0901
  935MOL0     C23320  10.144   3.138   9.310 -0.0648 -0.6522 -1.0443
  935MOL0     C23321  10.276   3.114   9.277  0.9132 -0.3855  0.3349
  935MOL0     C23322  10.324   2.980   9.281 -0.3875  0.0652  0.7804
  935MOL0     O23323  10.460   2.951   9.256 -0.0290 -0.3713 -0.4814
  935MOL0     C23324  10.494   2.821   9.216  0.8611 -0.1641  0.4542
  935MOL0     C23325  10.614   2.830   9.123  0.3630  0.0054  0.0286
  935MOL0     C23326  10.585   2.897   8.992 -0.5185 -0.5018 -0.0100
  935MOL0     C23327  10.722   2.922   8.925 -0.2475 -0.1811 -0.9380
  935MOL0     C23328  10.716   2.985   8.790  0.1881 -0.5889  0.3992
  935MOL0     C23329  10.643   2.896   8.686  0.4067 -0.1233 -0.2509
  935MOL0     C23330  10.659   2.956   8.546  0.8236 -1.1987  0.0468
  935MOL0     C23331  10.596   2.859   8.440 -1.4912 -0.4148 -0.3562
  935MOL0    Cl23332  10.424   2.851   8.468 -0.1325 -0.8013 -0.0710
  935MOL0     C23333  10.227   2.879   9.325 -0.3582  0.3920 -0.4491
  935MOL0     C23334  10.104   2.914   9.370 -0.3058 -0.2125 -0.2838
  935MOL0     O23335   9.949   3.293   9.463  0.3646 -0.2384  0.2467
  935MOL0     C23336   9.680   3.075   9.511 -0.0906  0.1130  0.8856
  935MOL0     C23337   9.554   3.077   9.568 -0.1153  0.1270 -0.5481
  935MOL0     N23338   9.229   3.146  10.224  0.8647 -0.7974  0.2047
  935MOL0     N23339   9.238   3.208  10.332  0.8113  0.0063  0.1523
  935MOL0     C23340   9.906   3.693  10.974  0.3713 -0.5424 -0.3115
  935MOL0     C23341  10.018   3.774  10.997 -0.5512 -0.0761 -0.9903
  935MOL0     C23342  10.474   3.880  11.003  0.2607  1.0963  0.1740
  935MOL0     C23343  10.462   4.014  10.992  0.3453 -0.8131  0.7683
  935MOL0     C23344  10.571   4.100  11.008  0.3283  1.0379  0.3598
  935MOL0     C23345  10.712   4.052  11.026  0.8605 -0.5346 -0.1589
  935MOL0     O23346  10.824   4.126  11.036 -0.4163 -0.2551  0.1241
  935MOL0     C23347  10.818   4.262  10.978 -0.5271  0.0723 -0.5596
  935MOL0     C23348  10.961   4.318  10.973 -0.2443 -0.6776 -0.3219
  935MOL0     C23349  10.955   4.466  10.919  0.4949 -0.5483 -0.0043
  935MOL0     C23350  11.088   4.547  10.933  0.8004 -0.2483  0.1442
  935MOL0     C23351  11.124   4.578  11.069 -0.0953  0.3986  0.0768
  935MOL0     C23352  11.180   4.614  11.162  0.2047 -0.6885 -0.9340
  935MOL0     C23353  10.716   3.913  11.043  0.1886 -0.7924  0.5315
  935MOL0     C23354  10.600   3.831  11.034 -0.3414  0.3762  1.3125
  935MOL0     H23355  10.219   3.627  10.757  1.0287  3.6652 -1.9927
  935MOL0     H23356  10.020   3.504  10.727 -3.6429  1.1091 -0.5313
  935MOL0     H23357   9.672   3.535  11.019  0.5174  0.4701  0.4275
  935MOL0     H23358   9.760   3.378  10.995 -4.2502 -0.5796  4.0724
  935MOL0     H23359   9.543   3.332  10.960 -2.2724  1.9470  0.1999
  935MOL0     H23360   9.609   3.344  10.796 -0.7595 -2.3414  1.0262
  935MOL0     H23361   9.527   3.591  10.803 -0.1036  0.0666 -0.1968
  935MOL0     H23362   9.450   3.547  10.948 -0.6421 -1.7191  0.1216
  935MOL0     H23363   9.399   3.378  10.700 -0.8406  0.2337 -0.0103
  935MOL0     H23364   9.306   3.386  10.845  1.5170 -2.5829  0.5675
  935MOL0     H23365   9.324   3.634  10.677  0.3741 -0.7209 -0.6258
  935MOL0     H23366   9.228   3.610  10.819 -0.5788 -1.9900 -0.0686
  935MOL0     H23367   9.106   3.616  10.618  0.8984  0.1292  0.0506
  935MOL0     H23368   9.089   3.456  10.704  0.6227 -3.2094 -0.9371
  935MOL0     H23369   9.207   3.517  10.446  1.3306 -1.6527 -1.3294
  935MOL0     H23370   9.281   3.382  10.534  0.2901  0.3668  1.1670
  935MOL0     H23371   8.985   3.408  10.446  1.6344  2.6561 -1.6843
  935MOL0     H23372   9.053   3.271  10.545  0.8602 -0.9217 -1.0448
  935MOL0     H23373   8.929   3.278  10.227  0.5142  3.5642  0.0645
  935MOL0     H23374   8.970   3.166   9.990  0.5639  3.2710 -0.3188
  935MOL0     H23375   9.056   3.019  10.028 -3.0767 -0.0780 -3.2151
  935MOL0     H23376   9.274   3.150   9.958 -0.3357 -0.0324  3.1492
  935MOL0     H23377   9.168   3.277   9.911 -0.6662 -0.2159  1.3689
  935MOL0     H23378   9.116   2.994   9.802  1.8317 -0.9858  0.7348
  935MOL0     H23379   9.095   3.151   9.722  0.5780  0.4943  0.1648
  935MOL0     H23380   9.267   3.030   9.617 -2.4943 -1.7277  0.9775
  935MOL0     H23381   9.344   2.992   9.765  2.0445 -0.0310 -1.1512
  935MOL0     H23382   9.539   3.389   9.662  0.1508 -0.2127 -0.2864
  935MOL0     H23383   9.757   3.397   9.556 -0.0696 -0.4021 -4.9209
  935MOL0     H23384  10.105   3.239   9.301  0.5804 -0.1711  0.8814
  935MOL0     H23385  10.335   3.203   9.257  2.6469 -1.7709 -1.0329
  935MOL0     H23386  10.408   2.778   9.165 -0.6744  2.6181  0.4747
  935MOL0     H23387  10.516   2.749   9.296  0.5238 -0.9408 -0.1538
  935MOL0     H23388  10.649   2.729   9.099 -1.2724 -0.3093 -1.1699
  935MOL0     H23389  10.691   2.887   9.176 -0.8610 -1.3859  3.5767
  935MOL0     H23390  10.534   2.992   9.008  0.7940  0.1780  0.2632
  935MOL0     H23391  10.531   2.824   8.930  0.7244  1.1574 -3.2953
  935MOL0     H23392  10.778   2.987   8.992 -2.1768  0.6662 -0.0870
  935MOL0     H23393  10.771   2.824   8.927  1.9790  0.8757 -0.2604
  935MOL0     H23394  10.806   3.019   8.737  1.6372 -4.3419  0.1266
  935MOL0     H23395  10.658   3.076   8.805  0.2201 -0.5311  0.1809
  935MOL0     H23396  10.537   2.888   8.713  1.5622 -0.8547  5.0547
  935MOL0     H23397  10.700   2.803   8.688  0.3787 -0.1386 -0.2177
  935MOL0     H23398  10.612   3.053   8.528 -1.8037 -2.9473 -4.1896
  935MOL0     H23399  10.764   2.968   8.520  0.6763  0.8641  0.2060
  935MOL0     H23400  10.642   2.760   8.438 -3.3965 -1.3521  0.1014
  935MOL0     H23401  10.617   2.904   8.343 -0.6347 -0.3267 -0.1430
  935MOL0     H23402  10.263   2.778   9.340 -1.8141 -0.2906 -1.3906
  935MOL0     H23403  10.028   2.855   9.420 -1.8529  1.1662 -0.8910
  935MOL0     H23404   9.713   2.985   9.460  1.4509  2.7105 -3.2295
  935MOL0     H23405   9.502   2.982   9.568  0.2001 -0.1312 -3.4467
  935MOL0     H23406   9.814   3.712  11.028  0.9809 -0.5562  0.7559
  935MOL0     H23407  10.014   3.853  11.072 -1.8602 -0.5380 -0.5513
  935MOL0     H23408  10.370   4.069  10.973  0.8794 -0.7754 -2.2259
  935MOL0     H23409  10.549   4.204  10.989  1.7071  0.9638 -2.0059
  935MOL0     H23410  10.760   4.328  11.044  1.5517  1.7764 -0.3336
  935MOL0     H23411  10.772   4.269  10.879 -0.2051  0.9099 -0.6592
  935MOL0     H23412  11.011   4.318  11.070  0.1611 -0.6762 -0.5269
  935MOL0     H23413  11.031   4.261  10.911  0.7086 -1.1176  1.1166
  935MOL0     H23414  10.878   4.520  10.974  1.3113  0.8251 -0.1767
  935MOL0     H23415  10.935   4.470  10.811  2.5221 -0.9225 -0.4389
  935MOL0     H23416  11.167   4.481  10.894 -1.0989 -3.0187  0.6680
  935MOL0     H23417  11.080   4.642  10.881  1.1047 -0.6098 -0.5732
  935MOL0     H23418  11.261   4.651  11.221  0.5476  2.3104 -3.0373
  935MOL0     H23419  10.814   3.867  11.054 -0.5656 -2.5615  0.1509
  935MOL0     H23420  10.606   3.723  11.043 -2.2812  0.3132  2.4312
  936MOL0     O23421   7.098   7.495   1.951 -0.0810  0.3365  0.6261
  936MOL0     C23422   7.117   7.374   1.962  0.0944  1.1211 -0.5472
  936MOL0     O23423   7.042   7.272   1.911  0.2536 -0.3488  0.1981
  936MOL0     C23424   6.910   7.300   1.878 -0.3555 -0.2597 -0.4716
  936MOL0     C23425   6.864   7.365   1.764 -0.2647 -0.1040 -0.2431
  936MOL0     C23426   6.726   7.391   1.736 -0.4515  0.3952  0.2439
  936MOL0     C23427   6.632   7.348   1.832 -0.0840  0.2027  0.4538
  936MOL0     O23428   6.497   7.359   1.818 -0.1397 -0.8196 -0.1169
  936MOL0     C23429   6.447   7.446   1.712 -0.6009  0.3272 -0.4363
  936MOL0     C23430   6.294   7.420   1.708 -0.5385  0.3390  0.0070
  936MOL0     C23431   6.229   7.485   1.584  0.2379 -0.0658 -0.1443
  936MOL0     C23432   6.080   7.465   1.588  0.7822 -0.2452 -0.4716
  936MOL0     C23433   5.999   7.562   1.505 -0.2400  0.2892 -0.1622
  936MOL0     C23434   5.844   7.528   1.527 -0.3048  1.0864  0.4747
  936MOL0     C23435   5.756   7.582   1.419  0.3358 -0.1508  0.1901
  936MOL0     C23436   5.753   7.478   1.300 -0.7606 -0.9802 -0.2720
  936MOL0     N23437   5.638   7.488   1.214 -0.0557 -0.6531  0.6619
  936MOL0     C23438   5.516   7.480   1.257  0.0992  0.5284 -0.7756
  936MOL0     C23439   5.438   7.466   1.149 -0.0264 -0.1840 -0.0370
  936MOL0     C23440   5.290   7.447   1.143  0.4440  0.6155  0.4078
  936MOL0     C23441   5.214   7.580   1.103 -0.7407 -0.5101 -0.1677
  936MOL0     C23442   5.143   7.565   0.968 -0.7273 -0.8781  0.3178
  936MOL0     C23443   5.067   7.697   0.938  0.4260  0.0762 -0.1067
  936MOL0     O23444   4.996   7.669   0.815 -0.0855  0.0885  0.0770
  936MOL0     C23445   4.858   7.683   0.828  0.0065  1.2797  0.5380
  936MOL0     C23446   4.806   7.799   0.784 -0.4896 -0.3187  0.3402
  936MOL0     C23447   4.670   7.820   0.801  0.0196 -0.6181 -0.3329
  936MOL0     C23448   4.582   7.720   0.853  0.0643 -1.1325  0.7342
  936MOL0     C23449   4.434   7.752   0.847 -0.6147 -0.2943 -1.0114
  936MOL0     O23450   4.386   7.854   0.777  0.1700 -0.0062 -0.9223
  936MOL0     C23451   4.254   7.885   0.771  0.5303 -0.1350 -0.5902
  936MOL0     C23452   4.184   7.855   0.661 -0.1614 -0.5180  0.1375
  936MOL0     C23453   4.055   7.882   0.656 -0.8097 -0.5637 -0.1502
  936MOL0     C23454   3.992   7.946   0.760 -0.7960  0.4735  0.1393
  936MOL0     O23455   3.865   8.005   0.762 -0.0047  0.6378  0.0915
  936MOL0     C23456   3.771   7.946   0.669 -0.1347 -0.8064  0.5103
  936MOL0     C23457   3.640   8.028   0.652 -0.1202  0.4656 -0.8850
  936MOL0     C23458   3.541   7.976   0.539 -0.4653  0.3622 -0.1985
  936MOL0     C23459   3.407   8.057   0.544 -0.8785 -0.7419  0.3617
  936MOL0     C23460   3.310   8.040   0.434 -1.1532  0.1078  0.7405
  936MOL0     C23461   3.244   7.903   0.422  0.0036  0.4973 -0.4217
  936MOL0     C23462   3.174   7.884   0.290  0.5343 -0.2720  0.1539
  936MOL0     C23463   3.060   7.777   0.293  0.0422  0.3742  0.3815
  936MOL0    Cl23464   2.927   7.849   0.395 -0.0670  0.1487  0.4328
  936MOL0     C23465   4.059   7.973   0.877  0.6639 -0.2612 -0.0742
  936MOL0     C23466   4.190   7.930   0.888 -0.0367 -0.3714 -0.4057
  936MOL0     O23467   4.366   7.667   0.905 -0.1409 -0.6547  0.4732
  936MOL0     C23468   4.640   7.599   0.890 -0.5453 -0.6010  0.3242
  936MOL0     C23469   4.774   7.571   0.877 -0.2640 -0.8537  0.2221
  936MOL0     N23470   5.521   7.476   1.037 -0.9261 -0.0097  0.7336
  936MOL0     N23471   5.645   7.492   1.071  0.7691  0.4232 -0.2906
  936MOL0     C23472   6.674   7.280   1.942 -0.2356 -0.4448 -0.3410
  936MOL0     C23473   6.808   7.255   1.956 -0.1845  1.4066 -0.4594
  936MOL0     C23474   7.247   7.316   2.014  0.1285  0.9349 -0.9781
  936MOL0     C23475   7.261   7.180   2.057 -0.2676 -0.1563  0.1303
  936MOL0     C23476   7.368   7.140   2.120  0.0019  0.0103 -0.4418
  936MOL0     C23477   7.481   7.225   2.130 -0.7160  0.3557  0.1353
  936MOL0     O23478   7.595   7.189   2.190 -0.3158 -0.5214  0.5425
  936MOL0     C23479   7.660   7.068   2.129 -0.7594  0.5122 -0.1045
  936MOL0     C23480   7.764   7.003   2.220  0.8900  0.8797  0.5088
  936MOL0     C23481   7.885   7.094   2.255  1.1018 -0.0672 -0.4586
  936MOL0     C23482   7.995   7.005   2.313 -0.0162  0.1425 -0.2658
  936MOL0     C23483   8.114   7.072   2.356 -0.0368  0.6350 -0.1190
  936MOL0     C23484   8.209   7.132   2.392  0.4632 -0.8205 -0.8440
  936MOL0     C23485   7.479   7.358   2.098  0.4298  0.0534 -0.4534
  936MOL0     C23486   7.359   7.407   2.041 -0.4895  0.0349 -0.6216
  936MOL0     H23487   6.944   7.404   1.702 -0.7437  0.0684 -0.7577
  936MOL0     H23488   6.692   7.466   1.665 -1.3992  0.0374  0.3013
  936MOL0     H23489   6.482   7.418   1.612 -1.4899 -2.3490 -0.0797
  936MOL0     H23490   6.467   7.551   1.731  2.4501  0.1846 -2.2445
  936MOL0     H23491   6.258   7.442   1.809  0.5654 -2.1359  1.0223
  936MOL0     H23492   6.301   7.312   1.692 -0.8992  0.2890  0.1751
  936MOL0     H23493   6.269   7.452   1.488 -1.1297  0.3598 -0.8812
  936MOL0     H23494   6.254   7.591   1.597  0.4602 -0.3698  2.4510
  936MOL0     H23495   6.063   7.362   1.554  2.8745  0.0451 -2.7007
  936MOL0     H23496   6.032   7.466   1.686 -3.7559 -1.2739 -2.4551
  936MOL0     H23497   6.040   7.555   1.404  1.1911  0.8338  0.3618
  936MOL0     H23498   6.005   7.668   1.532  1.9421  0.0746  0.3284
  936MOL0     H23499   5.812   7.564   1.625 -1.1750  0.0481  0.5796
  936MOL0     H23500   5.836   7.419   1.529 -0.1255  1.0743  0.5519
  936MOL0     H23501   5.656   7.611   1.452  1.6248  3.7861  1.0856
  936MOL0     H23502   5.793   7.676   1.379  1.2886 -1.2456 -1.6225
  936MOL0     H23503   5.752   7.376   1.340 -3.5750  0.2220  3.2532
  936MOL0     H23504   5.850   7.493   1.251 -0.8335  1.5959  0.2662
  936MOL0     H23505   5.491   7.472   1.363 -1.2524 -0.6995 -1.1384
  936MOL0     H23506   5.263   7.420   1.246  0.1645  1.5607  0.5903
  936MOL0     H23507   5.261   7.361   1.082  1.8548  1.4075 -1.4757
  936MOL0     H23508   5.281   7.665   1.116  0.3715 -1.6187  1.9091
  936MOL0     H23509   5.141   7.609   1.180 -0.5501 -1.3202  0.3222
  936MOL0     H23510   5.229   7.552   0.901 -0.0192 -2.8809  1.5315
  936MOL0     H23511   5.074   7.481   0.967 -1.9909  0.1270 -1.3307
  936MOL0     H23512   5.142   7.770   0.908 -0.8374 -0.0859 -4.3916
  936MOL0     H23513   5.005   7.729   1.022  1.6400  1.2642  0.3535
  936MOL0     H23514   4.874   7.881   0.764  1.0977 -1.6399  0.1201
  936MOL0     H23515   4.632   7.918   0.778 -1.1854 -0.7381  1.0262
  936MOL0     H23516   4.227   7.824   0.566  0.3543  2.3529 -0.6611
  936MOL0     H23517   4.018   7.854   0.558  1.0134 -1.8193 -0.5445
  936MOL0     H23518   3.753   7.841   0.694  1.4172 -1.2498 -0.1132
  936MOL0     H23519   3.813   7.957   0.568 -1.0602  0.2402  0.2243
  936MOL0     H23520   3.661   8.135   0.645 -1.6543  0.8409 -0.1209
  936MOL0     H23521   3.591   8.027   0.750  1.5485  0.9165 -0.0077
  936MOL0     H23522   3.529   7.868   0.539  1.2120  0.1407  0.5656
  936MOL0     H23523   3.583   8.001   0.441 -2.0231 -0.5507 -1.1304
  936MOL0     H23524   3.354   8.030   0.635 -2.2376  0.0866 -0.1516
  936MOL0     H23525   3.432   8.163   0.549  1.3305 -1.1595 -0.6535
  936MOL0     H23526   3.358   8.060   0.338 -0.0133 -0.6658  1.1239
  936MOL0     H23527   3.232   8.116   0.435 -1.4981 -0.1268 -1.5463
  936MOL0     H23528   3.169   7.892   0.501  0.0290  0.0947 -0.4558
  936MOL0     H23529   3.318   7.824   0.430 -1.6230 -0.8453  3.2422
  936MOL0     H23530   3.137   7.981   0.257 -0.9218  0.3999  3.4755
  936MOL0     H23531   3.239   7.846   0.210 -0.2495 -3.5001  0.9072
  936MOL0     H23532   3.102   7.681   0.325  3.0465  1.2899 -0.4229
  936MOL0     H23533   3.021   7.768   0.192 -2.4331 -1.2596  1.3838
  936MOL0     H23534   4.012   8.030   0.956 -1.5826 -2.5044  0.3267
  936MOL0     H23535   4.244   7.943   0.981  1.1009 -4.3410 -0.2992
  936MOL0     H23536   4.571   7.522   0.924  0.9888 -1.4605  1.6058
  936MOL0     H23537   4.814   7.473   0.899 -0.0439 -1.1992 -1.5790
  936MOL0     H23538   6.605   7.244   2.017  2.4858 -3.5456  0.9106
  936MOL0     H23539   6.832   7.213   2.053  0.3169 -0.2145 -1.2398
  936MOL0     H23540   7.188   7.101   2.038  0.8654 -1.1461 -0.2288
  936MOL0     H23541   7.375   7.036   2.149  0.2584 -0.4341 -2.0187
  936MOL0     H23542   7.708   7.080   2.031 -1.8965  0.7598 -0.6519
  936MOL0     H23543   7.591   6.987   2.103  0.8742 -0.7611 -0.5674
  936MOL0     H23544   7.712   6.977   2.313 -1.5087 -3.8176 -1.8092
  936MOL0     H23545   7.793   6.909   2.172 -0.6227  0.2480  0.7669
  936MOL0     H23546   7.849   7.155   2.338  1.1259 -0.6800  0.0124
  936MOL0     H23547   7.925   7.151   2.170  0.1095  2.4773  0.6847
  936MOL0     H23548   7.957   6.948   2.399 -1.4544  1.1723 -0.1908
  936MOL0     H23549   8.034   6.945   2.230  2.4901  1.1949  0.0580
  936MOL0     H23550   8.300   7.180   2.424  1.2909 -3.4507  1.1118
  936MOL0     H23551   7.569   7.418   2.107  1.6515 -1.2703 -2.9581
  936MOL0     H23552   7.343   7.512   2.019 -0.9421 -0.6972 -4.3063
  937MOL0     O23553   5.687  10.882   4.364 -1.5310 -0.0044 -0.6068
  937MOL0     C23554   5.761  10.819   4.433 -0.4719  0.3547 -0.3596
  937MOL0     O23555   5.717  10.718   4.513 -0.6195 -0.3458 -0.5304
  937MOL0     C23556   5.582  10.705   4.539  0.1650  0.0849 -0.2069
  937MOL0     C23557   5.504  10.642   4.438  0.0632 -0.7243  0.3501
  937MOL0     C23558   5.378  10.594   4.462  0.8699 -0.3381 -0.1275
  937MOL0     C23559   5.319  10.616   4.589  1.2713 -0.2065  0.2636
  937MOL0     O23560   5.191  10.575   4.631 -0.5530  0.1912  0.0061
  937MOL0     C23561   5.112  10.503   4.531 -1.0972  0.3538 -0.5054
  937MOL0     C23562   4.975  10.470   4.596 -0.5169  0.6095  0.0992
  937MOL0     C23563   4.858  10.558   4.545  0.5098 -0.1125 -0.5815
  937MOL0     C23564   4.724  10.521   4.612  0.7473  0.8564  0.2271
  937MOL0     C23565   4.613  10.618   4.554  0.8263 -1.1139 -0.2964
  937MOL0     C23566   4.477  10.600   4.617  0.3698  0.5980  0.6256
  937MOL0     C23567   4.461  10.698   4.736 -1.2116  0.8492 -0.0115
  937MOL0     C23568   4.334  10.672   4.812 -0.3889  0.3838 -0.5874
  937MOL0     N23569   4.310  10.767   4.918  0.3348  0.0019  0.9917
  937MOL0     C23570   4.269  10.889   4.891  0.2361 -0.6841  0.6752
  937MOL0     C23571   4.293  10.959   5.004 -0.5546 -0.0621  0.1669
  937MOL0     C23572   4.258  11.104   5.034  0.4490 -0.2513  0.1997
  937MOL0     C23573   4.309  11.208   4.939 -0.6806 -0.0673  1.0142
  937MOL0     C23574   4.296  11.347   5.013  0.6699 -0.0947 -0.1917
  937MOL0     C23575   4.162  11.413   4.973 -1.6148  0.3944 -0.5928
  937MOL0     O23576   4.150  11.438   4.837 -0.0846  0.2278  0.6252
  937MOL0     C23577   4.015  11.465   4.809 -0.6951 -0.5485 -0.1138
  937MOL0     C23578   3.976  11.598   4.816  0.5414  0.1094  0.6549
  937MOL0     C23579   3.839  11.630   4.795 -0.0658 -0.0665 -0.2241
  937MOL0     C23580   3.740  11.533   4.763 -1.3591  0.1671 -0.0860
  937MOL0     C23581   3.600  11.571   4.762 -0.3714 -0.3958 -0.2315
  937MOL0     O23582   3.514  11.488   4.825 -0.0427 -0.4419 -0.4547
  937MOL0     C23583   3.384  11.534   4.820  0.3550  0.1661  0.6639
  937MOL0     C23584   3.323  11.585   4.934 -0.2783  0.5666 -1.7084
  937MOL0     C23585   3.190  11.628   4.932 -0.5368 -0.7876 -0.6944
  937MOL0     C23586   3.108  11.612   4.818  0.9069  0.1432 -0.5929
  937MOL0     O23587   2.979  11.635   4.840  0.0159 -0.8215 -0.0123
  937MOL0     C23588   2.895  11.573   4.746  0.4632  0.0359  0.1707
  937MOL0     C23589   2.764  11.559   4.822  0.5746 -0.0966 -0.7097
  937MOL0     C23590   2.677  11.682   4.821 -0.1977 -0.4167  0.8098
  937MOL0     C23591   2.531  11.671   4.860  0.5520  0.0091  0.7342
  937MOL0     C23592   2.459  11.803   4.836  0.0641  0.6920 -0.2649
  937MOL0     C23593   2.332  11.815   4.920 -0.1411  0.2520 -1.1876
  937MOL0     C23594   2.267  11.950   4.917  0.6635 -0.3424 -1.3948
  937MOL0     C23595   2.154  11.955   5.013  0.4356  0.0239  0.1959
  937MOL0    Cl23596   2.043  12.091   4.976 -0.1500  0.3260  0.2788
  937MOL0     C23597   3.172  11.568   4.705 -0.9441 -0.1072  0.5303
  937MOL0     C23598   3.304  11.528   4.706  0.3425 -0.6839 -0.2338
  937MOL0     O23599   3.570  11.683   4.719 -0.6286  0.5662 -0.3107
  937MOL0     C23600   3.788  11.394   4.748 -0.8935 -0.3884 -0.5474
  937MOL0     C23601   3.918  11.361   4.782 -0.3532 -0.4763  0.1049
  937MOL0     N23602   4.365  10.876   5.087 -0.2636 -0.1474 -0.7209
  937MOL0     N23603   4.377  10.760   5.035 -0.0919 -0.6226  0.2728
  937MOL0     C23604   5.390  10.679   4.680  0.3769  1.4014 -0.2920
  937MOL0     C23605   5.520  10.720   4.660 -0.3992  0.1546 -0.5926
  937MOL0     C23606   5.904  10.840   4.404  0.1370 -0.1843  0.8225
  937MOL0     C23607   5.991  10.746   4.455 -0.0339  0.6963 -0.2241
  937MOL0     C23608   6.122  10.737   4.412 -0.3763  0.6273 -0.3185
  937MOL0     C23609   6.178  10.815   4.313 -0.2353  0.0778  0.4949
  937MOL0     O23610   6.311  10.789   4.286  0.5457  0.2963  0.2578
  937MOL0     C23611   6.369  10.871   4.179 -0.2926 -0.8749 -0.4327
  937MOL0     C23612   6.516  10.832   4.161 -0.5532  0.0008 -0.5874
  937MOL0     C23613   6.583  10.871   4.026  0.3455 -0.1564 -0.5008
  937MOL0     C23614   6.736  10.865   4.034  0.7593 -0.1109 -0.2278
  937MOL0     C23615   6.783  10.740   4.087  0.2590 -0.3517  0.5144
  937MOL0     C23616   6.827  10.639   4.126 -0.9756  0.8642 -1.4378
  937MOL0     C23617   6.095  10.919   4.263 -0.1307 -0.1773 -1.6253
  937MOL0     C23618   5.959  10.926   4.304 -0.2262 -0.9073 -0.2217
  937MOL0     H23619   5.564  10.608   4.354  0.1261 -1.3819  0.6536
  937MOL0     H23620   5.332  10.533   4.385 -1.7842  0.1965  0.9367
  937MOL0     H23621   5.164  10.409   4.513 -1.5739  0.0703 -0.4183
  937MOL0     H23622   5.101  10.558   4.437  0.7429 -1.4071 -1.8210
  937MOL0     H23623   4.978  10.483   4.705 -0.6172 -1.6398  0.4366
  937MOL0     H23624   4.948  10.364   4.583  1.9556 -0.1381  0.5016
  937MOL0     H23625   4.855  10.551   4.436  3.1176 -1.6983 -0.6562
  937MOL0     H23626   4.880  10.660   4.576  0.4669 -1.0038  2.7604
  937MOL0     H23627   4.714  10.416   4.582 -1.2894  1.5578 -1.7416
  937MOL0     H23628   4.723  10.524   4.722  0.7736  1.4360  0.2120
  937MOL0     H23629   4.589  10.589   4.452 -1.2466 -0.4241 -0.0502
  937MOL0     H23630   4.651  10.719   4.568 -2.5539  0.1856  0.4573
  937MOL0     H23631   4.478  10.492   4.635  0.6915 -0.3666 -3.8882
  937MOL0     H23632   4.399  10.625   4.545 -0.1402  0.3099  1.0697
  937MOL0     H23633   4.541  10.683   4.809 -1.3838 -1.3934 -0.2041
  937MOL0     H23634   4.472  10.799   4.695  1.3345  0.2009 -1.1060
  937MOL0     H23635   4.347  10.576   4.862  2.0798  1.8134  1.7810
  937MOL0     H23636   4.250  10.665   4.742  0.0847 -0.8894 -1.0566
  937MOL0     H23637   4.201  10.918   4.811 -0.8672 -2.2910  0.9882
  937MOL0     H23638   4.302  11.122   5.133  0.5064 -0.2809  0.1798
  937MOL0     H23639   4.150  11.111   5.020  0.2405 -1.5334  0.9406
  937MOL0     H23640   4.249  11.211   4.847 -0.8817 -1.1159  1.0997
  937MOL0     H23641   4.415  11.196   4.914 -0.3394 -0.1596  2.4346
  937MOL0     H23642   4.296  11.337   5.122  0.3139  2.9545  0.1757
  937MOL0     H23643   4.378  11.412   4.981 -1.9396  3.8484  0.3458
  937MOL0     H23644   4.158  11.510   5.023 -1.1533 -2.1050  5.0301
  937MOL0     H23645   4.081  11.352   5.014 -0.9113  0.0400  0.3124
  937MOL0     H23646   4.054  11.673   4.818  1.0408 -0.0961 -3.2666
  937MOL0     H23647   3.808  11.733   4.809  2.2609  0.5147  1.2104
  937MOL0     H23648   3.376  11.593   5.028  1.4558 -1.9364 -2.3809
  937MOL0     H23649   3.153  11.664   5.027 -0.5470 -2.4447 -0.0340
  937MOL0     H23650   2.924  11.469   4.736  0.1880 -0.3612  2.8313
  937MOL0     H23651   2.869  11.628   4.655 -0.4602  2.2969  1.7068
  937MOL0     H23652   2.788  11.543   4.927 -2.0281  0.6917  0.0988
  937MOL0     H23653   2.698  11.480   4.784  0.2556 -0.7067  1.0143
  937MOL0     H23654   2.679  11.725   4.720 -0.9102  0.2839  1.0865
  937MOL0     H23655   2.712  11.759   4.890 -1.1586  2.0231 -1.2638
  937MOL0     H23656   2.479  11.591   4.807 -0.4328  0.3139  1.2224
  937MOL0     H23657   2.528  11.636   4.964 -0.4676  1.4651  1.2309
  937MOL0     H23658   2.433  11.812   4.730 -2.3005  2.7177  0.4085
  937MOL0     H23659   2.521  11.892   4.852  2.5838 -1.2157  1.4611
  937MOL0     H23660   2.368  11.804   5.023  2.3335  0.4553 -1.9573
  937MOL0     H23661   2.257  11.743   4.886 -0.9912  1.7141 -2.5319
  937MOL0     H23662   2.345  12.023   4.938  1.3949 -1.7685  1.4359
  937MOL0     H23663   2.241  11.974   4.814  2.0552 -1.2361 -1.9798
  937MOL0     H23664   2.192  11.960   5.116  1.1704 -1.3531  0.0153
  937MOL0     H23665   2.108  11.857   4.995  2.7562 -0.9470 -0.7877
  937MOL0     H23666   3.122  11.556   4.609  1.3242 -2.7440 -0.4517
  937MOL0     H23667   3.328  11.478   4.613  0.1683  0.2484 -0.7949
  937MOL0     H23668   3.710  11.322   4.725 -2.7909  0.6038  2.1810
  937MOL0     H23669   3.938  11.254   4.787  2.6679 -0.1601 -2.2293
  937MOL0     H23670   5.351  10.697   4.780  1.9177  0.2781  0.5530
  937MOL0     H23671   5.570  10.768   4.743  0.2300 -0.1735 -0.7743
  937MOL0     H23672   5.951  10.685   4.535  1.6281  0.4792  0.4789
  937MOL0     H23673   6.189  10.659   4.445  1.3424  2.8967  1.9685
  937MOL0     H23674   6.360  10.976   4.208 -0.2155 -1.2581  1.0870
  937MOL0     H23675   6.326  10.849   4.082 -1.3752 -1.0992  0.0882
  937MOL0     H23676   6.577  10.884   4.235  1.7814  1.5889 -3.4399
  937MOL0     H23677   6.523  10.723   4.172 -1.2497  0.1268  1.8533
  937MOL0     H23678   6.554  10.975   4.005  0.8181 -0.2535 -1.7236
  937MOL0     H23679   6.544  10.800   3.953 -1.3181 -1.4031  1.4783
  937MOL0     H23680   6.786  10.888   3.939  2.4776  0.5299  0.7720
  937MOL0     H23681   6.774  10.936   4.109 -1.0031  0.1650  0.4488
  937MOL0     H23682   6.891  10.554   4.142 -1.6155  0.6925  0.5000
  937MOL0     H23683   6.138  11.002   4.208 -0.0342  1.4624  0.7761
  937MOL0     H23684   5.896  11.006   4.268 -1.7939 -2.1639 -0.3561
  938MOL0     O23685   3.168   7.869   5.189 -1.2046 -0.4745 -0.7644
  938MOL0     C23686   3.229   7.973   5.164 -0.1469  0.1266 -0.5906
  938MOL0     O23687   3.173   8.095   5.190 -0.0712  0.3724 -0.3854
  938MOL0     C23688   3.046   8.096   5.249  0.1387 -0.1940 -0.3853
  938MOL0     C23689   2.934   8.101   5.159  0.1296  0.3486  0.0612
  938MOL0     C23690   2.817   8.109   5.223  0.3536 -0.9753  0.0166
  938MOL0     C23691   2.786   8.094   5.360 -1.1050  1.0975 -0.0305
  938MOL0     O23692   2.664   8.071   5.415 -0.0354  0.0908  0.1940
  938MOL0     C23693   2.548   8.071   5.327 -1.1983  0.1766  0.2771
  938MOL0     C23694   2.528   7.933   5.285  0.0685  0.4449 -0.3189
  938MOL0     C23695   2.377   7.905   5.267 -0.7512  0.4835 -1.1011
  938MOL0     C23696   2.299   7.956   5.159 -0.1044 -0.3110  0.6543
  938MOL0     C23697   2.169   7.869   5.142  0.4709 -0.0560 -0.0448
  938MOL0     C23698   2.057   7.913   5.244  0.9451 -0.5847 -0.5064
  938MOL0     C23699   1.960   7.802   5.261 -1.2623  0.3008 -0.5371
  938MOL0     C23700   1.872   7.852   5.379  0.1951  0.1635  0.5785
  938MOL0     N23701   1.774   7.746   5.416  0.5280 -0.0212  0.0267
  938MOL0     C23702   1.653   7.728   5.358  0.2658  0.4116 -0.3932
  938MOL0     C23703   1.606   7.609   5.398  0.1125 -0.0346 -0.5209
  938MOL0     C23704   1.485   7.533   5.367 -0.3965 -0.0011 -0.8356
  938MOL0     C23705   1.382   7.541   5.486  0.5526 -0.2213  0.3978
  938MOL0     C23706   1.261   7.461   5.455 -0.0794 -0.2341 -0.0032
  938MOL0     C23707   1.282   7.313   5.418 -0.1442 -0.0355 -0.0854
  938MOL0     O23708   1.167   7.247   5.354 -0.2253  0.1132  0.5518
  938MOL0     C23709   1.081   7.188   5.448 -0.1654  0.0543 -0.2644
  938MOL0     C23710   0.954   7.150   5.391  0.7253  0.7101 -0.0418
  938MOL0     C23711   0.848   7.088   5.465 -0.0749  1.1677 -0.9136
  938MOL0     C23712   0.862   7.065   5.604 -0.6933  0.2377 -0.2351
  938MOL0     C23713   0.746   7.016   5.686 -0.3720 -0.6510  0.4699
  938MOL0     O23714   0.786   6.956   5.805 -0.2175 -0.6172  1.1890
  938MOL0     C23715   0.697   6.919   5.893 -0.3348 -0.9099  0.0332
  938MOL0     C23716   0.720   6.802   5.964  0.3684 -0.8216  1.1044
  938MOL0     C23717   0.627   6.752   6.056 -1.2780 -0.9086 -0.9169
  938MOL0     C23718   0.522   6.838   6.101  0.3365 -0.1325  0.2019
  938MOL0     O23719   0.428   6.788   6.193 -0.4460 -0.0465  0.1836
  938MOL0     C23720   0.476   6.714   6.308  0.1356 -0.8192  0.0505
  938MOL0     C23721   0.376   6.667   6.415 -1.2046 -1.2085  0.0709
  938MOL0     C23722   0.273   6.775   6.461  0.1744  0.1091  0.1893
  938MOL0     C23723   0.168   6.801   6.354  0.1751  0.4922 -0.8419
  938MOL0     C23724   0.055   6.897   6.411 -1.1301 -0.7549 -1.1294
  938MOL0     C23725  -0.044   6.935   6.308  0.2376  0.3110  0.3162
  938MOL0     C23726  -0.168   7.021   6.339 -0.1721 -1.2796 -0.8592
  938MOL0     C23727  -0.129   7.155   6.399  0.3606  0.5902  0.6143
  938MOL0    Cl23728  -0.269   7.260   6.441 -0.0305 -0.0460  0.4377
  938MOL0     C23729   0.498   6.959   6.035 -0.3119  0.0618  0.6915
  938MOL0     C23730   0.590   7.003   5.939  0.4912  0.6043 -0.2038
  938MOL0     O23731   0.631   7.029   5.645 -0.2859  0.0411  0.6321
  938MOL0     C23732   0.987   7.116   5.659  0.0737  0.3249 -0.3981
  938MOL0     C23733   1.087   7.171   5.592 -0.3287  0.8683  0.5483
  938MOL0     N23734   1.708   7.561   5.480 -0.2006 -0.2315  0.1059
  938MOL0     N23735   1.805   7.640   5.491 -0.0723  0.1302  0.5260
  938MOL0     C23736   2.899   8.081   5.445  1.1533 -0.4015 -0.1518
  938MOL0     C23737   3.029   8.093   5.386  0.7621  0.7704 -0.0734
  938MOL0     C23738   3.371   7.964   5.105  0.2018 -1.1699  0.8663
  938MOL0     C23739   3.414   8.059   5.013 -0.0663  0.1250  0.1399
  938MOL0     C23740   3.543   8.043   4.963 -0.1972 -0.8097  0.1320
  938MOL0     C23741   3.621   7.937   4.990  0.4946 -0.3390  0.1472
  938MOL0     O23742   3.747   7.951   4.927  0.8970  0.2619 -0.2612
  938MOL0     C23743   3.856   7.862   4.955  0.2163  0.3229  0.1488
  938MOL0     C23744   3.919   7.808   4.816 -0.3399 -0.4089 -0.7344
  938MOL0     C23745   4.030   7.712   4.842 -0.5055 -0.0443 -0.1594
  938MOL0     C23746   4.157   7.781   4.903 -0.3692  0.2908 -0.1068
  938MOL0     C23747   4.277   7.701   4.872 -0.3097  0.1034  0.0993
  938MOL0     C23748   4.376   7.633   4.857  0.2419 -0.6435 -1.0099
  938MOL0     C23749   3.588   7.846   5.087 -0.5094  0.8715  0.1758
  938MOL0     C23750   3.456   7.860   5.140  0.7586  0.4645  0.7676
  938MOL0     H23751   2.947   8.097   5.051 -2.5668  0.2364 -0.3165
  938MOL0     H23752   2.739   8.125   5.149  0.1002 -0.8375  0.3064
  938MOL0     H23753   2.559   8.141   5.244  0.8770 -0.2890  0.1079
  938MOL0     H23754   2.463   8.100   5.390 -2.4075 -4.5087  1.2303
  938MOL0     H23755   2.570   7.873   5.366 -0.9950 -0.2875 -0.3037
  938MOL0     H23756   2.581   7.906   5.194 -1.8219 -0.3767 -1.2287
  938MOL0     H23757   2.320   7.930   5.357 -2.8035  0.0758 -2.2410
  938MOL0     H23758   2.362   7.797   5.274 -2.8822  0.7579 -0.7036
  938MOL0     H23759   2.283   8.063   5.171  1.4851 -0.2380  2.5275
  938MOL0     H23760   2.346   7.932   5.063 -0.3917 -0.2983  0.5102
  938MOL0     H23761   2.195   7.764   5.154  1.3860 -0.1213 -2.1967
  938MOL0     H23762   2.131   7.893   5.043 -3.1457 -2.2387  0.6175
  938MOL0     H23763   2.001   7.993   5.197 -0.4089 -1.1894  0.0227
  938MOL0     H23764   2.098   7.952   5.338 -0.0821  3.0399 -1.4025
  938MOL0     H23765   1.916   7.782   5.163 -1.5477 -0.7594 -0.2055
  938MOL0     H23766   2.005   7.708   5.296 -1.9219 -0.0792 -0.6838
  938MOL0     H23767   1.810   7.942   5.368  0.7928  0.9086  2.8199
  938MOL0     H23768   1.944   7.883   5.455  0.8151  1.6827 -0.5780
  938MOL0     H23769   1.617   7.795   5.280 -0.4306 -0.1492 -0.5546
  938MOL0     H23770   1.517   7.434   5.334  0.0216  1.5566 -6.0079
  938MOL0     H23771   1.447   7.577   5.275  0.6345  0.9508 -0.8386
  938MOL0     H23772   1.343   7.642   5.506 -1.7566 -0.7881 -0.8654
  938MOL0     H23773   1.425   7.501   5.578 -4.1842 -2.0941  2.1008
  938MOL0     H23774   1.201   7.470   5.546 -0.9205  0.3428 -0.6043
  938MOL0     H23775   1.204   7.506   5.373 -1.2854 -0.0280  0.9264
  938MOL0     H23776   1.326   7.250   5.495 -4.0567 -1.1292  1.5121
  938MOL0     H23777   1.355   7.311   5.336  0.4136 -2.9979  0.3850
  938MOL0     H23778   0.937   7.160   5.285 -0.0449  1.0591  0.1051
  938MOL0     H23779   0.755   7.055   5.419 -2.0040  0.0841  3.2717
  938MOL0     H23780   0.810   6.742   5.953 -2.0534 -4.1763 -3.5572
  938MOL0     H23781   0.630   6.650   6.094 -0.4563 -1.0889 -1.4570
  938MOL0     H23782   0.556   6.774   6.352 -0.2698 -1.6472  2.0440
  938MOL0     H23783   0.528   6.623   6.276  1.3458 -0.6011  1.3068
  938MOL0     H23784   0.428   6.639   6.507 -0.9840  3.5117  1.6537
  938MOL0     H23785   0.324   6.577   6.381  0.1372 -2.7336  1.8322
  938MOL0     H23786   0.320   6.871   6.483  1.3479  0.1934 -2.3129
  938MOL0     H23787   0.218   6.739   6.548  0.0636  1.1213  0.5438
  938MOL0     H23788   0.207   6.839   6.259  1.8928 -0.6895 -0.6604
  938MOL0     H23789   0.128   6.701   6.336  0.6028  0.3457 -1.0049
  938MOL0     H23790   0.095   6.992   6.450 -2.6402 -0.3308 -0.5339
  938MOL0     H23791   0.001   6.860   6.499  1.9028  0.7328  1.5858
  938MOL0     H23792  -0.081   6.837   6.277 -2.0806  1.1618  0.1970
  938MOL0     H23793   0.003   6.977   6.219 -0.7294  0.5422 -0.0997
  938MOL0     H23794  -0.231   7.044   6.252 -0.1095 -1.4579 -0.9540
  938MOL0     H23795  -0.235   6.965   6.405  2.1062 -0.7320  2.0780
  938MOL0     H23796  -0.074   7.217   6.327  1.8141 -2.2133 -0.8527
  938MOL0     H23797  -0.060   7.152   6.484  0.8372  1.7462  0.2874
  938MOL0     H23798   0.417   7.028   6.057  2.0415  3.2129  0.2242
  938MOL0     H23799   0.594   7.098   5.888  2.5770 -1.2506 -3.9994
  938MOL0     H23800   0.999   7.120   5.766  3.3417  1.3504 -0.7055
  938MOL0     H23801   1.176   7.177   5.654  0.4826  3.6081 -0.7077
  938MOL0     H23802   2.883   8.062   5.550 -1.7171  0.8831 -0.2888
  938MOL0     H23803   3.107   8.078   5.460  0.5899  2.0855  0.3924
  938MOL0     H23804   3.357   8.144   4.976  0.7303 -0.0323 -1.6016
  938MOL0     H23805   3.586   8.117   4.896 -1.1710 -0.0261  0.3547
  938MOL0     H23806   3.827   7.769   5.006 -0.7274  0.1349 -0.6931
  938MOL0     H23807   3.936   7.916   5.006 -2.1134  1.2679  3.0871
  938MOL0     H23808   3.839   7.760   4.758 -0.4715 -0.8157 -0.2254
  938MOL0     H23809   3.949   7.894   4.755 -1.3435  0.5232  0.0360
  938MOL0     H23810   4.054   7.663   4.748  0.3527 -1.2506  0.6601
  938MOL0     H23811   3.991   7.631   4.904 -1.9427  1.8587  1.6032
  938MOL0     H23812   4.162   7.876   4.849  0.6374  1.4467  1.8936
  938MOL0     H23813   4.164   7.800   5.010 -0.4312 -0.8629  0.1135
  938MOL0     H23814   4.460   7.570   4.836  0.4988 -1.3164  1.6171
  938MOL0     H23815   3.647   7.764   5.128 -3.4307 -1.4386  0.1231
  938MOL0     H23816   3.427   7.773   5.198  4.1659 -1.1447  0.3447
  939MOL0     O23817   1.171   3.574   7.604 -0.5484  0.0422 -0.9166
  939MOL0     C23818   1.222   3.577   7.714 -0.1341  0.0270  0.7185
  939MOL0     O23819   1.165   3.613   7.827 -0.3826 -0.4870 -0.2886
  939MOL0     C23820   1.040   3.663   7.821 -0.4614  0.3381 -0.5386
  939MOL0     C23821   0.934   3.574   7.825 -0.1574 -0.7873 -0.7182
  939MOL0     C23822   0.806   3.622   7.839 -0.7801  0.1418  1.5312
  939MOL0     C23823   0.783   3.763   7.811  0.0863 -0.0344  0.2700
  939MOL0     O23824   0.670   3.830   7.799  0.0790 -0.6423 -0.4401
  939MOL0     C23825   0.541   3.764   7.793 -0.9677  0.2576 -0.5944
  939MOL0     C23826   0.459   3.864   7.712 -0.2160  0.2128 -0.4339
  939MOL0     C23827   0.305   3.831   7.727 -0.4132 -0.3783  1.1719
  939MOL0     C23828   0.225   3.960   7.736  0.5955 -0.2855  0.3703
  939MOL0     C23829   0.077   3.921   7.739  0.1372  0.5961 -0.0561
  939MOL0     C23830  -0.006   4.051   7.736  0.2349 -0.0675  0.0972
  939MOL0     C23831  -0.159   4.015   7.735 -0.1685  0.1126  0.7361
  939MOL0     C23832  -0.202   3.978   7.588 -1.0145 -0.0674  0.4884
  939MOL0     N23833  -0.173   4.080   7.486 -0.3125 -0.3202 -0.2451
  939MOL0     C23834  -0.174   4.069   7.350 -0.4700  0.4314 -0.3167
  939MOL0     C23835  -0.156   4.191   7.302 -0.1411  0.8906  0.2988
  939MOL0     C23836  -0.146   4.227   7.161 -0.0262 -0.8104 -0.7869
  939MOL0     C23837  -0.076   4.125   7.073  0.3653 -0.1476  0.3550
  939MOL0     C23838   0.068   4.095   7.126 -0.1492 -0.3315  0.5046
  939MOL0     C23839   0.140   3.994   7.040  0.0724 -0.2885 -0.8008
  939MOL0     O23840   0.277   4.016   7.075  0.3147 -0.6272  0.5290
  939MOL0     C23841   0.373   3.939   7.018  0.5274 -0.2617  0.3086
  939MOL0     C23842   0.495   3.945   7.081  0.6447 -0.7681 -0.0346
  939MOL0     C23843   0.611   3.880   7.030  0.9179  0.0881  0.2011
  939MOL0     C23844   0.596   3.787   6.928  0.4030  0.0506 -0.4892
  939MOL0     C23845   0.720   3.721   6.877  0.3466  0.0164  0.2450
  939MOL0     O23846   0.838   3.751   6.927  0.2556  0.1897  0.3085
  939MOL0     C23847   0.960   3.689   6.895  0.3487 -0.0335 -0.0048
  939MOL0     C23848   0.969   3.568   6.827 -0.3881  0.7114  0.0678
  939MOL0     C23849   1.095   3.523   6.785  0.1808  0.2608 -0.0330
  939MOL0     C23850   1.212   3.588   6.828  0.1749 -0.1120  0.2635
  939MOL0     O23851   1.335   3.533   6.809  1.0572 -0.4173  0.3449
  939MOL0     C23852   1.455   3.595   6.858  0.7607  0.2992  0.3077
  939MOL0     C23853   1.573   3.503   6.836 -0.7075  0.5183 -0.1827
  939MOL0     C23854   1.610   3.503   6.688  0.0375 -0.0346  0.3758
  939MOL0     C23855   1.726   3.406   6.677  0.0840  0.8018 -0.3736
  939MOL0     C23856   1.792   3.388   6.544 -0.6926 -0.6922  0.1845
  939MOL0     C23857   1.831   3.524   6.483 -0.3119  0.6797 -0.8416
  939MOL0     C23858   1.956   3.576   6.548  0.7980  0.2210 -0.3062
  939MOL0     C23859   1.918   3.710   6.617 -1.1420  0.0225 -0.2746
  939MOL0    Cl23860   2.054   3.772   6.724 -0.4917 -0.1773  0.1424
  939MOL0     C23861   1.195   3.704   6.906  0.4664  0.0217 -1.0386
  939MOL0     C23862   1.068   3.755   6.932  0.1219  0.0888 -0.7218
  939MOL0     O23863   0.701   3.636   6.794  0.2858 -0.4813 -0.1621
  939MOL0     C23864   0.467   3.768   6.868  1.0589 -1.3446 -0.5463
  939MOL0     C23865   0.362   3.851   6.907 -0.5219 -0.4729 -0.1160
  939MOL0     N23866  -0.166   4.282   7.405 -0.7470  0.0390  1.1081
  939MOL0     N23867  -0.182   4.217   7.512 -0.1734 -0.4158  0.3718
  939MOL0     C23868   0.890   3.842   7.797 -0.4190 -0.8446 -0.2368
  939MOL0     C23869   1.022   3.798   7.798  0.5017 -0.5277 -0.8027
  939MOL0     C23870   1.357   3.516   7.716 -0.5462  0.1990 -0.7605
  939MOL0     C23871   1.436   3.567   7.824 -0.2860  0.0180  0.3635
  939MOL0     C23872   1.559   3.502   7.861  0.8381  0.2715  0.3487
  939MOL0     C23873   1.608   3.399   7.784  0.2447  0.4226  0.5096
  939MOL0     O23874   1.720   3.339   7.838  0.0106  0.8933 -0.3253
  939MOL0     C23875   1.809   3.255   7.754  0.5891 -0.3468 -1.5110
  939MOL0     C23876   1.944   3.250   7.827 -0.4817  0.6548 -0.1570
  939MOL0     C23877   1.964   3.144   7.928  0.3496  0.6486 -0.2339
  939MOL0     C23878   2.104   3.149   7.987  0.5431  0.6028  0.1877
  939MOL0     C23879   2.121   3.032   8.071 -0.6740 -0.0645 -0.6477
  939MOL0     C23880   2.145   2.944   8.151  0.7063 -0.5808 -0.3890
  939MOL0     C23881   1.535   3.351   7.678 -0.2745 -0.9901 -0.3466
  939MOL0     C23882   1.412   3.414   7.636 -0.0857  0.0298 -0.0827
  939MOL0     H23883   0.954   3.468   7.815 -0.5527 -0.8380 -1.0032
  939MOL0     H23884   0.719   3.556   7.836 -0.1520 -0.7440  2.4535
  939MOL0     H23885   0.514   3.729   7.893  0.4771 -0.2859 -0.3702
  939MOL0     H23886   0.555   3.672   7.735  2.0940 -0.5863  1.2284
  939MOL0     H23887   0.484   3.851   7.607 -1.5340 -1.7908 -0.5530
  939MOL0     H23888   0.474   3.968   7.745 -5.2564  1.7900 -2.0638
  939MOL0     H23889   0.293   3.774   7.820 -0.2210 -2.1918  0.1417
  939MOL0     H23890   0.272   3.765   7.646  3.1258  0.7717 -1.4779
  939MOL0     H23891   0.253   4.011   7.828  0.1993  1.7464 -0.5817
  939MOL0     H23892   0.246   4.027   7.652 -1.4666 -0.5948 -0.4482
  939MOL0     H23893   0.053   3.878   7.837 -2.8659  0.3164 -0.8183
  939MOL0     H23894   0.054   3.851   7.659  1.3321 -0.2345  0.3129
  939MOL0     H23895   0.025   4.117   7.654 -1.9161 -0.2125 -0.8927
  939MOL0     H23896   0.019   4.102   7.829 -0.8995  1.2688 -0.3062
  939MOL0     H23897  -0.176   3.932   7.804  0.0812  0.0559  0.7303
  939MOL0     H23898  -0.216   4.104   7.762  1.0992  1.5369 -1.0315
  939MOL0     H23899  -0.311   3.974   7.579 -0.8791 -1.5464 -0.7258
  939MOL0     H23900  -0.159   3.888   7.544  2.1107  0.8433  1.4519
  939MOL0     H23901  -0.178   3.974   7.296  3.3789  0.0720 -0.2316
  939MOL0     H23902  -0.099   4.325   7.149  2.3852 -1.9873 -1.6490
  939MOL0     H23903  -0.248   4.244   7.127 -0.1693 -1.0294 -0.4651
  939MOL0     H23904  -0.069   4.163   6.970  4.2213 -0.0526  0.5095
  939MOL0     H23905  -0.133   4.032   7.063  0.2656  0.0566 -1.2994
  939MOL0     H23906   0.129   4.185   7.118 -0.9221  0.1267 -0.6085
  939MOL0     H23907   0.068   4.061   7.230  0.0467  1.8407  1.2679
  939MOL0     H23908   0.119   4.015   6.935  2.9490 -0.3596 -1.4683
  939MOL0     H23909   0.118   3.893   7.075  0.1238  0.0237  0.1681
  939MOL0     H23910   0.498   4.012   7.166  1.1603  0.5590 -1.0724
  939MOL0     H23911   0.711   3.905   7.066  0.7131  1.4388 -0.1037
  939MOL0     H23912   0.884   3.510   6.791 -0.7757  0.9885  0.5221
  939MOL0     H23913   1.119   3.434   6.726  0.8955 -0.3497  1.1423
  939MOL0     H23914   1.452   3.608   6.967  0.2673  0.4872  0.2721
  939MOL0     H23915   1.467   3.696   6.818  0.1119  0.7628  1.2526
  939MOL0     H23916   1.557   3.404   6.877  1.1595  0.1473 -0.2667
  939MOL0     H23917   1.652   3.541   6.901  0.2884 -3.6428  1.3064
  939MOL0     H23918   1.641   3.606   6.666 -1.2893  0.6910  1.7363
  939MOL0     H23919   1.525   3.474   6.626  0.5478  1.6896 -1.2300
  939MOL0     H23920   1.807   3.436   6.743  3.0945 -0.7433 -3.0855
  939MOL0     H23921   1.686   3.308   6.703 -0.3475  0.3311 -2.6240
  939MOL0     H23922   1.727   3.336   6.473 -0.6395  0.0475 -0.4121
  939MOL0     H23923   1.880   3.325   6.561  1.8984  1.8639 -2.5801
  939MOL0     H23924   1.746   3.592   6.484 -0.3062  0.7207  1.6026
  939MOL0     H23925   1.844   3.505   6.376  5.0537  1.7255 -0.6618
  939MOL0     H23926   1.990   3.514   6.631 -1.3562  0.3954  0.7547
  939MOL0     H23927   2.038   3.592   6.477 -0.1235 -0.6884 -1.6103
  939MOL0     H23928   1.829   3.702   6.680 -2.0745 -0.5863 -1.6206
  939MOL0     H23929   1.890   3.782   6.539  0.4560 -0.9346 -1.7938
  939MOL0     H23930   1.287   3.755   6.936 -0.3060  0.1415  1.3217
  939MOL0     H23931   1.055   3.848   6.986 -2.3691 -0.3131 -0.4720
  939MOL0     H23932   0.448   3.693   6.792  0.4195 -0.8546 -0.8786
  939MOL0     H23933   0.267   3.842   6.855 -1.0240  5.3660 -0.9493
  939MOL0     H23934   0.885   3.948   7.772  1.0335 -1.3410 -2.9163
  939MOL0     H23935   1.098   3.873   7.781 -0.4420  0.7448  0.3619
  939MOL0     H23936   1.391   3.633   7.898 -3.7102 -2.1040  0.3728
  939MOL0     H23937   1.611   3.531   7.952  2.0085  2.2784 -0.8776
  939MOL0     H23938   1.808   3.298   7.654 -2.8236  0.6167 -1.1790
  939MOL0     H23939   1.763   3.156   7.757 -3.9104  1.5588  0.3862
  939MOL0     H23940   2.010   3.229   7.742 -1.0437  4.1390 -1.6363
  939MOL0     H23941   1.955   3.349   7.873 -0.9689 -0.3146  2.1676
  939MOL0     H23942   1.945   3.051   7.875 -3.7960  0.7592  0.7004
  939MOL0     H23943   1.891   3.166   8.007 -1.2896  1.3987 -1.8593
  939MOL0     H23944   2.179   3.152   7.908 -0.8698 -1.7108 -1.3543
  939MOL0     H23945   2.109   3.239   8.049 -1.4442  2.4906 -2.2150
  939MOL0     H23946   2.170   2.864   8.218 -1.7342  1.9195  3.9488
  939MOL0     H23947   1.572   3.271   7.614 -1.0225  1.1212 -3.6822
  939MOL0     H23948   1.349   3.387   7.552 -0.1060 -0.0661 -0.0361
  940MOL0     O23949   2.148   9.195   7.553  0.0784 -0.1275 -1.4904
  940MOL0     C23950   2.245   9.219   7.479 -0.2603  0.6079 -1.1284
  940MOL0     O23951   2.242   9.240   7.349  0.5545  0.7567 -0.4340
  940MOL0     C23952   2.124   9.235   7.291  0.0087  0.4711 -0.5154
  940MOL0     C23953   2.012   9.310   7.327  0.3659 -0.4208  0.8949
  940MOL0     C23954   1.885   9.272   7.279 -0.0403 -0.3115 -1.0616
  940MOL0     C23955   1.872   9.163   7.207 -0.2067  0.0913  0.2837
  940MOL0     O23956   1.750   9.121   7.178 -0.4799 -0.7329  0.0786
  940MOL0     C23957   1.724   9.086   7.038 -0.6281 -0.0196 -0.6309
  940MOL0     C23958   1.585   9.013   7.025 -0.1259  0.1459 -0.7711
  940MOL0     C23959   1.469   9.104   7.073  0.3391  0.6981  0.4887
  940MOL0     C23960   1.345   9.033   7.016 -0.4295  0.3113 -0.0879
  940MOL0     C23961   1.229   9.126   7.007 -0.3873 -0.1161  0.0413
  940MOL0     C23962   1.116   9.048   6.936 -0.2944  0.5512 -0.0720
  940MOL0     C23963   1.001   9.145   6.889  0.4964  0.6144 -0.4043
  940MOL0     C23964   0.868   9.074   6.857 -0.8539  0.4223  0.2235
  940MOL0     N23965   0.753   9.157   6.849 -0.0653 -0.1854 -0.2654
  940MOL0     C23966   0.698   9.231   6.954  0.0086  0.5106  0.1656
  940MOL0     C23967   0.590   9.296   6.908 -0.2737  0.0348  0.5353
  940MOL0     C23968   0.514   9.394   6.984  0.6169  0.1737 -0.4395
  940MOL0     C23969   0.367   9.370   6.945 -0.4702 -0.6695 -0.1719
  940MOL0     C23970   0.279   9.483   7.010 -0.0430  0.8744 -0.1404
  940MOL0     C23971   0.137   9.486   6.953  0.2298 -0.4969 -0.8112
  940MOL0     O23972   0.046   9.509   7.066  0.3255  1.1147  0.0335
  940MOL0     C23973  -0.073   9.557   7.029  0.5057 -0.1081 -0.8949
  940MOL0     C23974  -0.150   9.603   7.134 -0.8158 -0.4467  0.0658
  940MOL0     C23975  -0.273   9.663   7.110  0.3110  1.2879  0.1711
  940MOL0     C23976  -0.322   9.674   6.972  0.7014  0.1092  0.1721
  940MOL0     C23977  -0.444   9.745   6.937  0.1664  0.3419 -0.1356
  940MOL0     O23978  -0.499   9.810   7.043 -0.2167  0.5132 -0.5826
  940MOL0     C23979  -0.616   9.874   7.016  1.1226  0.6798  0.9894
  940MOL0     C23980  -0.620   9.978   6.922  0.1638 -0.7610 -0.8234
  940MOL0     C23981  -0.728  10.071   6.925 -0.6089 -0.4560 -0.9897
  940MOL0     C23982  -0.837  10.049   7.006 -0.3442 -0.6514  0.3665
  940MOL0     O23983  -0.942  10.127   7.015 -0.1897  0.1487 -0.0775
  940MOL0     C23984  -0.981  10.218   6.903  0.1979 -0.1844  0.4020
  940MOL0     C23985  -1.096  10.304   6.940 -0.2283  0.0699 -0.3847
  940MOL0     C23986  -1.110  10.423   6.857 -0.0065 -0.0092 -0.0461
  940MOL0     C23987  -1.122  10.396   6.707  0.6434 -0.3663  0.0409
  940MOL0     C23988  -1.146  10.521   6.610 -0.6320 -0.0269  0.3552
  940MOL0     C23989  -1.280  10.582   6.623  0.1900 -0.4554  0.4415
  940MOL0     C23990  -1.312  10.689   6.521 -0.2923 -0.2622  0.3099
  940MOL0     C23991  -1.466  10.719   6.526  0.7201 -1.3246  0.6539
  940MOL0    Cl23992  -1.515  10.805   6.677  0.4290 -0.3828  0.2736
  940MOL0     C23993  -0.843   9.930   7.078  1.1952 -0.0994  0.3130
  940MOL0     C23994  -0.730   9.847   7.094 -0.8783  0.8246 -0.1060
  940MOL0     O23995  -0.496   9.728   6.831 -0.6279 -0.6808 -0.1523
  940MOL0     C23996  -0.249   9.607   6.872 -0.5320 -0.6962  0.1197
  940MOL0     C23997  -0.130   9.542   6.897  0.1055  0.6035 -0.1814
  940MOL0     N23998   0.595   9.283   6.764  0.0511  0.0571 -1.2482
  940MOL0     N23999   0.700   9.206   6.732  0.3441 -0.0329  0.3744
  940MOL0     C24000   1.986   9.086   7.170  0.0353 -0.4794 -0.1360
  940MOL0     C24001   2.109   9.127   7.205 -0.0916  0.7376  1.0246
  940MOL0     C24002   2.379   9.208   7.542  0.5172 -0.1461  0.6458
  940MOL0     C24003   2.494   9.212   7.458 -0.2052  0.3189 -0.4464
  940MOL0     C24004   2.622   9.213   7.515  0.0345  0.4892 -0.4019
  940MOL0     C24005   2.639   9.203   7.649 -0.3336 -0.7688 -0.7902
  940MOL0     O24006   2.763   9.188   7.716  0.5039 -0.2534 -0.0826
  940MOL0     C24007   2.882   9.157   7.643 -0.8178  0.0237  0.1995
  940MOL0     C24008   3.004   9.135   7.730  0.8637 -0.0695  0.3012
  940MOL0     C24009   3.029   9.233   7.835 -0.1447 -0.6879 -0.0904
  940MOL0     C24010   3.147   9.182   7.919 -0.6033 -0.9359  0.4685
  940MOL0     C24011   3.123   9.065   8.010  1.5187 -0.1084 -0.4525
  940MOL0     C24012   3.119   8.983   8.101 -0.3958 -0.0964 -0.2674
  940MOL0     C24013   2.532   9.213   7.735  0.0205  0.2071 -0.2419
  940MOL0     C24014   2.400   9.212   7.681 -0.3198 -0.0234 -0.6864
  940MOL0     H24015   2.018   9.395   7.394 -2.9755  2.3454 -1.9164
  940MOL0     H24016   1.796   9.318   7.321  0.9708 -1.7628  3.1609
  940MOL0     H24017   1.796   9.007   7.014  0.0307  0.2320  0.4247
  940MOL0     H24018   1.729   9.172   6.971 -0.9727  2.0804  1.8684
  940MOL0     H24019   1.576   8.923   7.087 -2.0243  2.7992  3.2644
  940MOL0     H24020   1.578   8.993   6.918 -1.2306  0.2006 -0.7147
  940MOL0     H24021   1.500   9.199   7.027  1.2260  0.3731  0.3914
  940MOL0     H24022   1.458   9.120   7.181 -0.5096  3.8913  0.0345
  940MOL0     H24023   1.374   8.997   6.917  1.0918 -1.0154  0.7773
  940MOL0     H24024   1.328   8.939   7.070 -2.2724  0.3328 -0.5721
  940MOL0     H24025   1.260   9.217   6.955 -0.3817  0.4068  0.9424
  940MOL0     H24026   1.189   9.152   7.106  1.1845 -1.3811  1.0572
  940MOL0     H24027   1.076   8.975   7.007 -0.5773  0.8530  0.0788
  940MOL0     H24028   1.147   8.996   6.845  2.4217  2.0817 -0.1095
  940MOL0     H24029   0.987   9.220   6.967  0.4888  0.3005 -0.0982
  940MOL0     H24030   1.032   9.206   6.804 -0.5031  1.3472 -0.2527
  940MOL0     H24031   0.857   8.996   6.934  1.9529  0.7321  1.0632
  940MOL0     H24032   0.878   9.029   6.758  3.0216  0.1339  0.5727
  940MOL0     H24033   0.725   9.221   7.059 -1.9027 -0.4337  0.5958
  940MOL0     H24034   0.539   9.494   6.949 -1.5604  0.9360  0.0114
  940MOL0     H24035   0.538   9.369   7.088  0.5685 -0.4793 -0.5831
  940MOL0     H24036   0.338   9.268   6.974  2.5503 -1.6538 -0.2039
  940MOL0     H24037   0.363   9.381   6.836  0.0697  2.3656  0.0362
  940MOL0     H24038   0.265   9.453   7.114 -2.1151 -0.1019 -0.6335
  940MOL0     H24039   0.331   9.579   7.013 -1.3992  1.6654 -0.7649
  940MOL0     H24040   0.123   9.386   6.911  1.9037 -0.9707 -0.3491
  940MOL0     H24041   0.122   9.552   6.867 -0.3855 -0.9386 -1.0448
  940MOL0     H24042  -0.105   9.603   7.233 -0.2360  0.9544 -0.1763
  940MOL0     H24043  -0.332   9.707   7.189  0.5450  2.6286 -0.3683
  940MOL0     H24044  -0.541   9.997   6.850 -2.8460  1.6656 -3.8260
  940MOL0     H24045  -0.738  10.148   6.849 -1.3352 -1.0015 -1.4708
  940MOL0     H24046  -1.007  10.151   6.820 -3.3197 -1.4543  2.3115
  940MOL0     H24047  -0.900  10.287   6.877 -1.5257  1.1031 -1.9070
  940MOL0     H24048  -1.074  10.336   7.043  0.8067  1.1978 -0.9319
  940MOL0     H24049  -1.187  10.244   6.939  0.6929 -1.4514 -2.9056
  940MOL0     H24050  -1.019  10.483   6.868  0.8654 -1.0740 -1.2559
  940MOL0     H24051  -1.192  10.481   6.900  1.3893 -0.3371  3.4620
  940MOL0     H24052  -1.033  10.347   6.668 -0.4367 -1.3569 -1.2730
  940MOL0     H24053  -1.206  10.327   6.694 -0.3261 -0.0559  3.6854
  940MOL0     H24054  -1.151  10.489   6.506 -1.9692 -2.7271  1.1528
  940MOL0     H24055  -1.067  10.596   6.615 -0.1229 -0.4857 -0.5997
  940MOL0     H24056  -1.293  10.631   6.721  1.6365  1.3013 -0.1915
  940MOL0     H24057  -1.345  10.498   6.600  1.2632 -2.1221  3.0289
  940MOL0     H24058  -1.261  10.786   6.527 -0.6303 -0.0011 -0.8360
  940MOL0     H24059  -1.282  10.647   6.425  0.3174 -0.5310  0.6094
  940MOL0     H24060  -1.523  10.627   6.517 -1.0413 -0.2111 -0.0406
  940MOL0     H24061  -1.482  10.790   6.444 -0.0235  0.2492  2.0847
  940MOL0     H24062  -0.929   9.922   7.144  0.3463 -0.2919 -0.7837
  940MOL0     H24063  -0.722   9.761   7.161  1.2633  0.9037 -0.1794
  940MOL0     H24064  -0.291   9.611   6.772 -3.2351  0.6447  1.2070
  940MOL0     H24065  -0.064   9.502   6.821  2.1523 -1.0728  2.3116
  940MOL0     H24066   1.968   8.992   7.118  1.0806 -1.6508  1.5139
  940MOL0     H24067   2.191   9.064   7.172  0.5033  1.4481  1.1108
  940MOL0     H24068   2.490   9.231   7.351  0.2949 -1.0226 -0.7269
  940MOL0     H24069   2.706   9.218   7.447  0.9437  2.0559  0.7925
  940MOL0     H24070   2.918   9.241   7.584  4.7576 -1.0617  1.4296
  940MOL0     H24071   2.870   9.068   7.580  1.4426 -0.4559  0.3586
  940MOL0     H24072   2.990   9.042   7.786  1.4089  0.1685  0.8485
  940MOL0     H24073   3.095   9.105   7.678  1.7067 -0.6457  2.0350
  940MOL0     H24074   2.948   9.239   7.908 -0.3129  1.7595 -0.3909
  940MOL0     H24075   3.060   9.328   7.790  2.1291 -1.4139 -0.1597
  940MOL0     H24076   3.223   9.158   7.844 -0.6611  1.2865 -0.3746
  940MOL0     H24077   3.186   9.270   7.971 -1.1998 -0.6008  0.3548
  940MOL0     H24078   3.096   8.914   8.180  1.0189 -0.7705 -0.4210
  940MOL0     H24079   2.549   9.205   7.841 -0.7268 -3.5342 -0.2779
  940MOL0     H24080   2.308   9.222   7.737 -1.0815  1.0255 -2.0386
  941MOL0     O24081   0.313   4.475   2.310 -1.0895  0.2828 -0.1569
  941MOL0     C24082   0.314   4.375   2.389  0.1050  0.6825  0.0558
  941MOL0     O24083   0.204   4.307   2.436  0.2054  0.4287  0.7107
  941MOL0     C24084   0.074   4.340   2.406 -0.0606 -0.3627  0.3791
  941MOL0     C24085  -0.012   4.235   2.426 -0.1399 -0.1295 -0.1398
  941MOL0     C24086  -0.150   4.252   2.407  1.0298  0.1902 -0.0919
  941MOL0     C24087  -0.189   4.375   2.344 -0.2816 -0.0236 -0.0635
  941MOL0     O24088  -0.322   4.386   2.301 -0.7635  0.3590  0.4768
  941MOL0     C24089  -0.359   4.498   2.220  0.3952 -0.2351 -0.2943
  941MOL0     C24090  -0.504   4.484   2.181 -0.9805 -0.5500  0.1752
  941MOL0     C24091  -0.598   4.524   2.308 -0.1441 -0.9106  0.9673
  941MOL0     C24092  -0.735   4.453   2.300 -0.2934  0.0343 -0.4251
  941MOL0     C24093  -0.825   4.505   2.178 -0.6963 -0.4657  0.4741
  941MOL0     C24094  -0.859   4.655   2.196 -0.1032 -0.4017  0.4798
  941MOL0     C24095  -0.974   4.689   2.107 -0.0229 -0.7744  0.5923
  941MOL0     C24096  -1.106   4.617   2.140  0.3357  0.1242 -0.7160
  941MOL0     N24097  -1.215   4.677   2.062  0.2267  0.3852  0.0322
  941MOL0     C24098  -1.267   4.631   1.940  0.3432 -0.3548 -0.4126
  941MOL0     C24099  -1.386   4.699   1.918  0.2999 -0.7837  0.2095
  941MOL0     C24100  -1.498   4.670   1.824 -0.3383  0.2759  0.0924
  941MOL0     C24101  -1.450   4.601   1.697  0.9333  0.3911 -0.1104
  941MOL0     C24102  -1.562   4.610   1.587  0.8876  0.4559 -0.0276
  941MOL0     C24103  -1.678   4.502   1.598  0.4132 -0.5489 -0.0357
  941MOL0     O24104  -1.780   4.541   1.501 -0.3169  0.3105 -1.3189
  941MOL0     C24105  -1.893   4.465   1.503 -0.3911  0.6326  0.7310
  941MOL0     C24106  -2.014   4.520   1.452 -0.0025  0.0070 -0.4022
  941MOL0     C24107  -2.133   4.450   1.451 -0.5384  0.0420 -0.2515
  941MOL0     C24108  -2.138   4.324   1.507  0.1745 -0.2067 -0.5453
  941MOL0     C24109  -2.267   4.247   1.517  0.7353 -0.0831 -0.1508
  941MOL0     O24110  -2.370   4.302   1.435 -0.0136 -0.6418  0.0328
  941MOL0     C24111  -2.498   4.243   1.413  0.5588 -0.2716  0.6079
  941MOL0     C24112  -2.564   4.260   1.290  0.1496 -0.6305 -1.4615
  941MOL0     C24113  -2.701   4.215   1.278  0.1949 -0.4966 -0.3483
  941MOL0     C24114  -2.759   4.137   1.374  0.2444  0.4980  0.1252
  941MOL0     O24115  -2.876   4.070   1.338 -0.0323  0.2202 -0.0644
  941MOL0     C24116  -2.977   4.046   1.447 -0.1715 -0.3381  0.0974
  941MOL0     C24117  -2.975   3.900   1.508 -0.4781  0.9630  0.4395
  941MOL0     C24118  -3.053   3.885   1.643  0.2305 -0.2785 -0.1504
  941MOL0     C24119  -3.056   3.746   1.688 -0.5331 -0.2383 -0.4332
  941MOL0     C24120  -3.138   3.735   1.818 -0.1333  0.4787  0.2608
  941MOL0     C24121  -3.099   3.613   1.906  0.6052  0.4138  0.4990
  941MOL0     C24122  -3.184   3.637   2.035  0.1432 -0.6014 -0.4309
  941MOL0     C24123  -3.188   3.511   2.119  0.0435  0.1090  0.6939
  941MOL0    Cl24124  -3.025   3.472   2.197  0.3979  0.0707  0.2112
  941MOL0     C24125  -2.701   4.131   1.501 -0.8087  0.1803 -0.3156
  941MOL0     C24126  -2.569   4.178   1.518 -0.6343  0.7208  0.3929
  941MOL0     O24127  -2.269   4.141   1.577 -0.0334 -0.6658  0.3338
  941MOL0     C24128  -2.028   4.274   1.566 -0.3088 -0.9010  0.1714
  941MOL0     C24129  -1.904   4.343   1.566  0.2586  0.1705 -0.2361
  941MOL0     N24130  -1.397   4.792   2.018 -0.7702  0.2730  0.6569
  941MOL0     N24131  -1.296   4.773   2.100  0.7895  0.7655 -0.0433
  941MOL0     C24132  -0.098   4.479   2.340 -0.7111 -0.1776 -0.3615
  941MOL0     C24133   0.036   4.465   2.373  0.3857 -0.3310 -0.3800
  941MOL0     C24134   0.444   4.361   2.454  0.2021 -0.0309  0.0828
  941MOL0     C24135   0.556   4.408   2.387 -0.5028 -0.2226 -0.2478
  941MOL0     C24136   0.677   4.389   2.445 -0.2785  0.7333 -0.4560
  941MOL0     C24137   0.701   4.328   2.574 -0.2263  0.1277  0.4652
  941MOL0     O24138   0.827   4.309   2.629  0.2773  0.2005 -0.1013
  941MOL0     C24139   0.867   4.177   2.652 -0.4780  0.3209 -0.1092
  941MOL0     C24140   1.019   4.181   2.692  0.4475  0.5512  1.1951
  941MOL0     C24141   1.049   4.251   2.827  0.1345 -0.2263 -0.1447
  941MOL0     C24142   1.194   4.226   2.877  1.7236  0.1041  0.0727
  941MOL0     C24143   1.222   4.310   2.990  0.0916  0.6436  0.1023
  941MOL0     C24144   1.244   4.395   3.080 -0.0135  0.0916 -0.4633
  941MOL0     C24145   0.589   4.275   2.635 -0.8210  0.0689 -0.3225
  941MOL0     C24146   0.461   4.289   2.577 -0.5425 -0.3936  0.1811
  941MOL0     H24147   0.026   4.138   2.456  0.7976  1.0093  2.7814
  941MOL0     H24148  -0.221   4.172   2.428 -1.3351  1.6778 -1.8545
  941MOL0     H24149  -0.301   4.510   2.128 -0.7946  2.2959 -0.8184
  941MOL0     H24150  -0.350   4.595   2.271  3.4948  1.1730 -3.1516
  941MOL0     H24151  -0.517   4.377   2.160  0.0849 -0.3502 -1.7766
  941MOL0     H24152  -0.531   4.538   2.090 -3.1092 -1.8896 -0.0483
  941MOL0     H24153  -0.622   4.630   2.324  3.0739  0.0363  0.3581
  941MOL0     H24154  -0.549   4.484   2.397  0.2998 -2.7184 -0.0352
  941MOL0     H24155  -0.704   4.348   2.287  0.7843  0.1411  1.0548
  941MOL0     H24156  -0.799   4.454   2.388  0.6727 -0.5512  0.3043
  941MOL0     H24157  -0.922   4.454   2.174 -2.7369  3.1256 -0.9978
  941MOL0     H24158  -0.769   4.487   2.086  1.2855 -0.6010  1.6688
  941MOL0     H24159  -0.783   4.728   2.167  0.3566  0.5534  3.7295
  941MOL0     H24160  -0.883   4.674   2.301  0.2007 -0.9195  0.6445
  941MOL0     H24161  -0.981   4.797   2.113 -0.0446 -0.8639  2.8881
  941MOL0     H24162  -0.951   4.659   2.004  0.6658 -0.4011  0.6382
  941MOL0     H24163  -1.130   4.634   2.245  1.6103  0.9399 -0.5301
  941MOL0     H24164  -1.098   4.508   2.135 -1.5850 -0.3183  2.8254
  941MOL0     H24165  -1.247   4.539   1.886 -0.3378  0.2810 -1.7828
  941MOL0     H24166  -1.554   4.759   1.794  0.2755 -0.0642 -2.2392
  941MOL0     H24167  -1.561   4.607   1.888  1.5681 -1.4201  0.3934
  941MOL0     H24168  -1.424   4.496   1.714  0.0479  0.5512  2.6862
  941MOL0     H24169  -1.363   4.654   1.658  0.6110  1.5019  0.6428
  941MOL0     H24170  -1.603   4.712   1.590 -3.6213 -1.0712 -1.5976
  941MOL0     H24171  -1.520   4.597   1.487 -0.3691  2.7252 -0.9208
  941MOL0     H24172  -1.719   4.492   1.699 -5.0231 -4.3177 -2.1801
  941MOL0     H24173  -1.639   4.402   1.579 -0.5809 -0.8286 -0.6937
  941MOL0     H24174  -2.010   4.627   1.437  0.2436 -0.1276 -1.3650
  941MOL0     H24175  -2.221   4.500   1.411 -0.7608 -0.8087 -0.8544
  941MOL0     H24176  -2.527   4.324   1.210 -1.8916 -0.0604 -2.0235
  941MOL0     H24177  -2.743   4.232   1.179  1.7319  0.2974 -0.8986
  941MOL0     H24178  -3.071   4.064   1.395  0.1202 -2.0867 -1.1338
  941MOL0     H24179  -2.981   4.126   1.522 -1.8771  1.2136 -1.5444
  941MOL0     H24180  -2.873   3.870   1.535 -0.1131  3.4112  2.1165
  941MOL0     H24181  -3.015   3.827   1.438  2.7868  2.0419 -2.8926
  941MOL0     H24182  -3.158   3.917   1.640 -0.4371 -1.8130  2.8285
  941MOL0     H24183  -3.002   3.947   1.718  2.0501  3.0534 -3.7888
  941MOL0     H24184  -3.104   3.677   1.618 -1.6654 -0.5703  0.6246
  941MOL0     H24185  -2.955   3.708   1.709  1.0624  2.0332 -3.2500
  941MOL0     H24186  -3.243   3.716   1.792 -0.4366 -0.1648  1.8681
  941MOL0     H24187  -3.127   3.831   1.869 -1.0115  1.0563 -0.5862
  941MOL0     H24188  -2.995   3.629   1.939  0.5511 -0.1497  0.9571
  941MOL0     H24189  -3.121   3.518   1.859 -0.5164  0.6611  0.5104
  941MOL0     H24190  -3.142   3.718   2.095  4.1976 -0.4813 -3.0448
  941MOL0     H24191  -3.284   3.671   2.006  0.6161  1.8934  0.6055
  941MOL0     H24192  -3.222   3.428   2.056  1.0217 -0.6448  1.1355
  941MOL0     H24193  -3.264   3.522   2.198 -0.3247 -0.9136  0.4909
  941MOL0     H24194  -2.740   4.066   1.579  0.7996  0.2188  0.5586
  941MOL0     H24195  -2.519   4.166   1.614  0.2258 -1.3536 -0.2552
  941MOL0     H24196  -2.013   4.176   1.609  1.1594 -1.2233 -0.9690
  941MOL0     H24197  -1.822   4.297   1.620 -0.8141 -2.0415 -0.3677
  941MOL0     H24198  -0.133   4.575   2.302  0.4821 -1.0082 -3.9830
  941MOL0     H24199   0.096   4.555   2.378 -0.1568  0.0392 -0.4430
  941MOL0     H24200   0.551   4.437   2.282  0.4399  0.2446 -0.1780
  941MOL0     H24201   0.770   4.420   2.399 -0.2636  3.2140  1.0630
  941MOL0     H24202   0.841   4.114   2.567  1.6671 -0.9541  0.0910
  941MOL0     H24203   0.814   4.137   2.739  0.6342 -0.6483  0.1542
  941MOL0     H24204   1.037   4.073   2.697  0.6812  0.4544 -0.7732
  941MOL0     H24205   1.082   4.224   2.614  1.0480 -0.0985  1.3060
  941MOL0     H24206   0.983   4.213   2.905  0.8132  1.1807  1.1966
  941MOL0     H24207   1.036   4.359   2.814  1.7771  0.2014  1.3381
  941MOL0     H24208   1.207   4.121   2.904  1.2987 -0.2250 -0.9639
  941MOL0     H24209   1.260   4.242   2.791  0.5238 -0.5131 -0.9911
  941MOL0     H24210   1.271   4.475   3.147 -0.1538 -0.8441  0.7574
  941MOL0     H24211   0.592   4.226   2.731  0.8066  2.1873  0.8062
  941MOL0     H24212   0.385   4.240   2.635 -1.0492  0.8704  0.6186
  942MOL0     O24213   6.372  10.479   1.904  0.8362  0.2033  0.1390
  942MOL0     C24214   6.280  10.556   1.863 -0.1638  0.8437  0.5837
  942MOL0     O24215   6.296  10.685   1.818 -0.9392  0.0242  0.2184
  942MOL0     C24216   6.420  10.743   1.838  0.1487 -0.4057 -0.5888
  942MOL0     C24217   6.500  10.781   1.736  0.3356 -0.4810 -0.0112
  942MOL0     C24218   6.631  10.834   1.762  0.0811 -0.5890  0.3975
  942MOL0     C24219   6.664  10.872   1.889  0.1599 -0.9880 -0.8318
  942MOL0     O24220   6.784  10.942   1.910  0.5449 -0.8810 -0.5436
  942MOL0     C24221   6.893  10.850   1.898 -0.1544 -0.3049 -0.9808
  942MOL0     C24222   7.015  10.925   1.946 -0.0456  0.1095 -0.0124
  942MOL0     C24223   7.079  11.006   1.825 -0.0936  0.8695  0.8577
  942MOL0     C24224   7.183  11.102   1.861  0.5977  0.7837  0.1693
  942MOL0     C24225   7.316  11.035   1.891  0.5361  0.1216  0.1857
  942MOL0     C24226   7.425  11.141   1.923 -0.1917 -0.7674 -0.2617
  942MOL0     C24227   7.541  11.079   1.994 -0.3545  0.0578  0.1649
  942MOL0     C24228   7.518  11.040   2.141  0.1986  0.5141 -0.0868
  942MOL0     N24229   7.490  11.155   2.225 -0.4821  0.7614 -0.5133
  942MOL0     C24230   7.368  11.197   2.263  0.2230 -0.5410  0.1204
  942MOL0     C24231   7.383  11.299   2.345 -0.3286 -0.9556 -0.8226
  942MOL0     C24232   7.281  11.385   2.408  0.6293  1.2384 -0.5238
  942MOL0     C24233   7.176  11.311   2.489  0.9595  0.9672  0.1943
  942MOL0     C24234   7.060  11.265   2.381 -0.4475 -0.1453  0.2804
  942MOL0     C24235   6.930  11.307   2.434 -0.7632 -0.3036 -0.0762
  942MOL0     O24236   6.902  11.244   2.552  0.1033 -0.9474 -0.1439
  942MOL0     C24237   6.773  11.251   2.597 -0.6537  0.3121 -1.0362
  942MOL0     C24238   6.667  11.331   2.537  0.4469 -0.0554 -0.5687
  942MOL0     C24239   6.538  11.318   2.582 -0.1936 -0.8653  0.2256
  942MOL0     C24240   6.500  11.244   2.696  0.7127 -0.9211 -0.0941
  942MOL0     C24241   6.357  11.245   2.737 -0.3790  0.5676  0.0313
  942MOL0     O24242   6.262  11.315   2.670 -0.4440  0.3959  0.8506
  942MOL0     C24243   6.135  11.327   2.707 -0.3962 -0.2652 -1.1546
  942MOL0     C24244   6.093  11.456   2.736 -0.3159 -0.4544 -0.0975
  942MOL0     C24245   5.959  11.478   2.778  0.3533 -0.4110 -0.5076
  942MOL0     C24246   5.876  11.363   2.785 -0.0201 -0.1932  0.4180
  942MOL0     O24247   5.749  11.371   2.835  0.0647  0.4854  0.1073
  942MOL0     C24248   5.673  11.479   2.791  0.1906  0.3285 -0.1785
  942MOL0     C24249   5.540  11.437   2.722 -0.3343  0.3646 -1.1146
  942MOL0     C24250   5.563  11.323   2.620 -0.7126  0.4325  0.2876
  942MOL0     C24251   5.672  11.354   2.507  0.2278  0.4717 -1.4782
  942MOL0     C24252   5.723  11.217   2.449 -0.1620  0.5862  0.4408
  942MOL0     C24253   5.615  11.133   2.375 -0.9556 -0.1948 -0.1736
  942MOL0     C24254   5.629  11.132   2.219  0.1505 -0.6181 -0.3449
  942MOL0     C24255   5.509  11.080   2.145  0.3557 -0.5157  0.0631
  942MOL0    Cl24256   5.439  11.187   2.034  0.3423 -0.1603 -0.1026
  942MOL0     C24257   5.914  11.238   2.741 -0.5987 -0.4235  0.7655
  942MOL0     C24258   6.047  11.213   2.706 -0.2377 -0.6487  0.2891
  942MOL0     O24259   6.336  11.183   2.841 -0.4370 -0.3639 -0.6032
  942MOL0     C24260   6.602  11.161   2.753 -0.5133 -0.1077 -0.8021
  942MOL0     C24261   6.734  11.170   2.704 -0.6328  0.2540  0.6299
  942MOL0     N24262   7.522  11.322   2.350  0.3441  0.7088 -0.5652
  942MOL0     N24263   7.587  11.241   2.271  0.8812  0.0627  0.1337
  942MOL0     C24264   6.590  10.830   1.994  0.7903  0.3325 -0.0653
  942MOL0     C24265   6.464  10.770   1.967  0.1202  0.0486 -0.3244
  942MOL0     C24266   6.146  10.504   1.884 -0.7445 -0.1373  0.0348
  942MOL0     C24267   6.033  10.594   1.868 -1.0847 -0.2061  0.7823
  942MOL0     C24268   5.899  10.550   1.880 -0.7977 -0.0976  0.8766
  942MOL0     C24269   5.878  10.415   1.907 -0.1306  0.3859 -0.0233
  942MOL0     O24270   5.748  10.371   1.940 -0.0313 -0.5367  0.3405
  942MOL0     C24271   5.657  10.472   1.959 -0.4132  0.7889  0.1315
  942MOL0     C24272   5.536  10.417   2.026  1.1228 -0.4310 -0.1561
  942MOL0     C24273   5.561  10.321   2.138  0.3106 -0.5545 -1.0088
  942MOL0     C24274   5.434  10.259   2.192  0.2280 -0.3302 -0.1969
  942MOL0     C24275   5.456  10.186   2.315 -0.2622 -0.0270  0.4893
  942MOL0     C24276   5.470  10.116   2.409  0.1493  0.1578  0.4721
  942MOL0     C24277   5.989  10.330   1.932 -0.7397 -0.0730  1.1096
  942MOL0     C24278   6.119  10.370   1.910 -0.1104 -0.5730 -0.3848
  942MOL0     H24279   6.463  10.764   1.636  0.0812 -0.4672  0.0791
  942MOL0     H24280   6.699  10.865   1.683  2.7185 -1.4536  2.2315
  942MOL0     H24281   6.912  10.820   1.794 -1.7709 -1.7689 -0.8886
  942MOL0     H24282   6.881  10.762   1.962  2.9364  1.2317  2.0237
  942MOL0     H24283   7.091  10.857   1.984  0.7113  0.1403 -1.3976
  942MOL0     H24284   6.994  11.004   2.019  0.5685  1.2051 -0.9918
  942MOL0     H24285   6.999  11.066   1.779  0.0295  0.1964 -0.2767
  942MOL0     H24286   7.109  10.939   1.743 -0.9956 -0.1484  1.3212
  942MOL0     H24287   7.194  11.179   1.784  2.0331 -1.1163 -1.6547
  942MOL0     H24288   7.150  11.154   1.952  1.6463  3.7174 -1.0029
  942MOL0     H24289   7.337  10.986   1.796 -3.5799 -1.5093 -0.0962
  942MOL0     H24290   7.305  10.960   1.971  2.8966  1.7585  2.2109
  942MOL0     H24291   7.384  11.218   1.989 -0.9573 -1.3294 -0.0686
  942MOL0     H24292   7.457  11.168   1.823  1.0613  2.2280  0.8424
  942MOL0     H24293   7.575  10.990   1.941 -1.2526 -1.0233  1.3348
  942MOL0     H24294   7.624  11.150   1.997 -0.7992  0.8728 -3.1720
  942MOL0     H24295   7.618  11.005   2.169  0.6986  0.8143 -1.4154
  942MOL0     H24296   7.441  10.963   2.152 -0.9530  1.2402 -2.2905
  942MOL0     H24297   7.272  11.163   2.226 -0.9957  2.6818  0.0605
  942MOL0     H24298   7.234  11.454   2.337  0.7423  0.4455 -1.3874
  942MOL0     H24299   7.335  11.445   2.482 -1.4296  3.0640 -0.3891
  942MOL0     H24300   7.135  11.362   2.577 -1.4559  0.3117 -0.4699
  942MOL0     H24301   7.220  11.214   2.514  0.9330  0.3586 -1.9520
  942MOL0     H24302   7.088  11.298   2.280 -0.3410  1.0409  0.6801
  942MOL0     H24303   7.054  11.156   2.383 -2.1960 -0.1311 -1.4357
  942MOL0     H24304   6.856  11.282   2.358 -0.6721  3.4549 -1.6204
  942MOL0     H24305   6.929  11.414   2.457 -2.4421 -0.3997  0.4753
  942MOL0     H24306   6.683  11.393   2.449 -0.8482  1.1786  0.0428
  942MOL0     H24307   6.456  11.365   2.529  1.0154 -1.1632 -2.0319
  942MOL0     H24308   6.149  11.547   2.718 -2.6825  1.3345  1.0919
  942MOL0     H24309   5.923  11.575   2.811 -0.4724 -0.8116 -0.2093
  942MOL0     H24310   5.723  11.541   2.716 -0.3804 -1.7141 -2.3806
  942MOL0     H24311   5.647  11.551   2.869  1.9183  3.1060 -2.0001
  942MOL0     H24312   5.502  11.522   2.664 -2.6788  0.3334  0.2418
  942MOL0     H24313   5.461  11.407   2.791 -1.9454  0.2967 -2.9064
  942MOL0     H24314   5.464  11.307   2.576 -1.5825 -0.5294  2.4390
  942MOL0     H24315   5.590  11.231   2.673  1.0316 -0.0436 -1.3345
  942MOL0     H24316   5.624  11.419   2.433  1.6161  2.4917 -0.7060
  942MOL0     H24317   5.745  11.419   2.556  0.4757 -0.3807 -0.6931
  942MOL0     H24318   5.766  11.169   2.537 -0.1216 -1.8726 -0.8402
  942MOL0     H24319   5.803  11.236   2.377  1.1731  0.0528  1.7328
  942MOL0     H24320   5.517  11.173   2.404 -0.9380 -0.2177 -0.0817
  942MOL0     H24321   5.628  11.029   2.407 -0.0234 -0.6175 -1.8571
  942MOL0     H24322   5.644  11.233   2.180 -1.6003 -0.9354 -2.0113
  942MOL0     H24323   5.709  11.067   2.183 -0.5146  0.0803 -3.4015
  942MOL0     H24324   5.435  11.037   2.213 -2.3006  1.7608 -1.1812
  942MOL0     H24325   5.544  10.996   2.084  1.6100 -1.7910  2.4382
  942MOL0     H24326   5.856  11.146   2.751 -0.3678 -0.7453 -0.6579
  942MOL0     H24327   6.072  11.118   2.661  0.9166 -0.0380 -0.4079
  942MOL0     H24328   6.597  11.092   2.836 -0.2453 -2.9026 -2.9298
  942MOL0     H24329   6.810  11.099   2.733  2.1243  0.9578 -3.8517
  942MOL0     H24330   6.605  10.836   2.101 -2.9178 -1.1718  0.6675
  942MOL0     H24331   6.406  10.748   2.057 -0.4474  2.0433 -0.1303
  942MOL0     H24332   6.059  10.696   1.843 -1.4492 -0.5384 -1.0757
  942MOL0     H24333   5.822  10.626   1.870 -0.2605  0.2193 -1.4737
  942MOL0     H24334   5.619  10.509   1.863 -3.2482 -2.1256 -0.0618
  942MOL0     H24335   5.701  10.552   2.020  0.6377  0.4557 -0.1603
  942MOL0     H24336   5.482  10.505   2.063  0.5229 -0.4268 -1.0004
  942MOL0     H24337   5.478  10.380   1.941 -0.0539  3.0528 -1.0191
  942MOL0     H24338   5.617  10.383   2.208 -1.5998  0.8598 -0.6738
  942MOL0     H24339   5.621  10.237   2.101  0.4309 -1.5516  1.2732
  942MOL0     H24340   5.360  10.337   2.212  1.8758  1.4937 -0.8975
  942MOL0     H24341   5.400  10.190   2.115  1.5952  0.5974 -1.7106
  942MOL0     H24342   5.473  10.049   2.492  2.9760 -2.2338 -1.3535
  942MOL0     H24343   5.969  10.226   1.956  1.6172 -0.4121  1.8705
  942MOL0     H24344   6.209  10.310   1.920  2.9639  3.6174 -0.1740
  943MOL0     O24345   5.796  10.060   5.488 -0.8077  0.5468  0.2579
  943MOL0     C24346   5.758  10.147   5.556  0.3086  0.2739  0.4779
  943MOL0     O24347   5.815  10.266   5.571  0.0657  0.1560  0.9359
  943MOL0     C24348   5.907  10.317   5.485 -0.2711  0.1956 -0.0738
  943MOL0     C24349   5.924  10.286   5.350  0.0381  0.1881  0.2555
  943MOL0     C24350   6.005  10.361   5.267 -0.7790 -0.1996 -0.2037
  943MOL0     C24351   6.077  10.474   5.310 -0.3358 -0.3082  0.4890
  943MOL0     O24352   6.167  10.534   5.222 -0.5545 -0.4578 -0.3033
  943MOL0     C24353   6.299  10.573   5.270 -0.0782 -0.6870  0.5201
  943MOL0     C24354   6.407  10.583   5.151  0.4001 -0.0795  0.2975
  943MOL0     C24355   6.378  10.709   5.071 -0.1045  0.1132 -0.5377
  943MOL0     C24356   6.466  10.701   4.946 -0.3920  0.1611  0.2617
  943MOL0     C24357   6.446  10.825   4.857  0.5715 -1.3693  0.4064
  943MOL0     C24358   6.299  10.836   4.807  0.0092  0.1812 -0.0221
  943MOL0     C24359   6.293  10.905   4.674 -0.0986 -0.1585  0.6277
  943MOL0     C24360   6.335  11.057   4.695  0.1747 -0.3766  0.2047
  943MOL0     N24361   6.355  11.128   4.561 -0.7778  1.0609  0.4266
  943MOL0     C24362   6.262  11.155   4.463  0.9154 -0.0697 -0.3689
  943MOL0     C24363   6.332  11.230   4.374 -0.0539  0.7016 -0.8943
  943MOL0     C24364   6.291  11.297   4.246  0.0656  0.4918 -0.5553
  943MOL0     C24365   6.372  11.415   4.239  0.1094  0.6632 -0.1016
  943MOL0     C24366   6.335  11.522   4.135  0.4652  1.0556  0.0449
  943MOL0     C24367   6.441  11.622   4.104 -0.3400  0.4364 -0.0492
  943MOL0     O24368   6.476  11.696   4.229  0.0932 -0.1286 -0.4909
  943MOL0     C24369   6.569  11.792   4.231 -0.3403  0.5597 -0.4485
  943MOL0     C24370   6.709  11.756   4.250 -0.2777  0.1858  0.2354
  943MOL0     C24371   6.809  11.852   4.255  0.3172 -0.0529  0.1131
  943MOL0     C24372   6.781  11.986   4.249 -0.3465 -0.7296  0.7967
  943MOL0     C24373   6.894  12.078   4.263  0.1903 -0.9858  0.5344
  943MOL0     O24374   6.866  12.212   4.269 -0.2761  0.3470  0.7261
  943MOL0     C24375   6.973  12.292   4.280  0.1990 -0.6383  0.0640
  943MOL0     C24376   6.963  12.405   4.197 -1.1504 -1.2340 -0.0177
  943MOL0     C24377   7.070  12.490   4.197  0.5364 -0.0007 -0.5753
  943MOL0     C24378   7.180  12.482   4.291  1.1743  0.6772  0.4151
  943MOL0     O24379   7.273  12.581   4.310  0.1785 -0.0721  0.1829
  943MOL0     C24380   7.356  12.610   4.198  0.4973  0.0307 -0.1158
  943MOL0     C24381   7.488  12.539   4.211 -0.4135  0.2230 -0.1958
  943MOL0     C24382   7.583  12.561   4.092  0.5300 -0.1323  0.4241
  943MOL0     C24383   7.586  12.706   4.039  0.3881  0.3295 -0.5058
  943MOL0     C24384   7.691  12.786   4.113  0.6590 -0.3353 -0.1180
  943MOL0     C24385   7.654  12.927   4.104 -0.0629 -0.6022  0.4172
  943MOL0     C24386   7.637  12.980   3.965 -0.7720  0.6637  0.3474
  943MOL0     C24387   7.754  12.955   3.861  0.4152  0.6038 -0.4844
  943MOL0    Cl24388   7.678  12.995   3.700 -0.1808 -0.2192  0.5138
  943MOL0     C24389   7.182  12.369   4.371 -0.5797  0.5920 -0.4190
  943MOL0     C24390   7.082  12.278   4.370 -0.1767 -0.2387 -0.3403
  943MOL0     O24391   7.007  12.020   4.276 -0.3150  0.1004 -0.1300
  943MOL0     C24392   6.642  12.017   4.223 -0.4194  0.9493  0.3912
  943MOL0     C24393   6.535  11.926   4.219  0.1511  0.4201 -0.4217
  943MOL0     N24394   6.471  11.225   4.414  0.1984 -0.0722 -0.0266
  943MOL0     N24395   6.479  11.165   4.523 -0.5761  0.2713  0.8979
  943MOL0     C24396   6.062  10.501   5.442  0.0526  0.2804 -1.0799
  943MOL0     C24397   5.978  10.424   5.524 -0.2920  0.2184 -1.5747
  943MOL0     C24398   5.629  10.130   5.627  0.2126 -0.8998  0.7802
  943MOL0     C24399   5.559  10.008   5.619  0.8057  0.4171  0.0300
  943MOL0     C24400   5.430   9.991   5.666 -0.9376 -0.4579  0.3496
  943MOL0     C24401   5.374  10.099   5.737  0.3808  0.8206 -0.5814
  943MOL0     O24402   5.257  10.061   5.795  0.2016  0.3278 -0.6141
  943MOL0     C24403   5.190  10.158   5.877 -0.4744 -0.3777  0.1439
  943MOL0     C24404   5.071  10.084   5.949 -0.4786 -0.4586  0.5704
  943MOL0     C24405   4.952  10.090   5.864  0.2135 -0.1918  0.3324
  943MOL0     C24406   4.838   9.990   5.906  1.0354  0.1944  0.5938
  943MOL0     C24407   4.805   9.995   6.049  0.3084 -0.7338 -0.7068
  943MOL0     C24408   4.777   9.988   6.169 -0.1242  0.3526  0.1854
  943MOL0     C24409   5.444  10.226   5.750  1.0398 -0.0550  0.0563
  943MOL0     C24410   5.566  10.237   5.685 -0.7448 -0.3506 -0.2506
  943MOL0     H24411   5.884  10.196   5.303  0.8184  0.0063 -0.0813
  943MOL0     H24412   6.022  10.325   5.167  1.2909  0.9785 -0.3317
  943MOL0     H24413   6.331  10.499   5.345 -0.3702 -1.7690 -0.4011
  943MOL0     H24414   6.301  10.674   5.312 -1.3732 -0.3878 -0.1069
  943MOL0     H24415   6.390  10.495   5.088 -3.3221 -0.5444  1.6531
  943MOL0     H24416   6.512  10.583   5.181  0.5241  1.3171 -0.0803
  943MOL0     H24417   6.411  10.802   5.118 -1.1920 -0.4679  1.4858
  943MOL0     H24418   6.273  10.707   5.041 -0.6011 -2.0264  1.1355
  943MOL0     H24419   6.569  10.694   4.982 -0.7571  2.2425  1.8830
  943MOL0     H24420   6.438  10.611   4.891  1.2920 -0.1991 -0.0597
  943MOL0     H24421   6.504  10.821   4.765  0.6024 -0.6054  0.3891
  943MOL0     H24422   6.488  10.913   4.907  0.3832 -1.5535  0.9040
  943MOL0     H24423   6.222  10.877   4.873  0.7196  0.3628  0.7146
  943MOL0     H24424   6.267  10.735   4.779 -2.6574  0.6598  1.0631
  943MOL0     H24425   6.357  10.861   4.597 -1.6477 -4.5039  1.5314
  943MOL0     H24426   6.193  10.891   4.632 -0.8298 -1.7949  2.7098
  943MOL0     H24427   6.432  11.064   4.745  1.7921 -1.5028 -2.5273
  943MOL0     H24428   6.264  11.113   4.756  0.2597  1.9672 -1.6912
  943MOL0     H24429   6.166  11.110   4.437 -0.1087  0.9619  1.4049
  943MOL0     H24430   6.188  11.332   4.249  0.7690  2.9176 -1.7511
  943MOL0     H24431   6.313  11.224   4.168  1.2287 -1.3397  1.3761
  943MOL0     H24432   6.475  11.386   4.216  0.0731  2.1051 -2.4448
  943MOL0     H24433   6.378  11.463   4.337 -0.8392  2.1768 -0.7440
  943MOL0     H24434   6.300  11.460   4.052 -0.6852  2.2873 -0.4279
  943MOL0     H24435   6.246  11.573   4.173 -0.5166 -1.1150  0.8107
  943MOL0     H24436   6.421  11.677   4.011 -0.1111  0.4987 -0.0629
  943MOL0     H24437   6.530  11.561   4.083 -1.5973 -1.8760  0.9497
  943MOL0     H24438   6.732  11.650   4.253 -0.0474  0.1767 -1.2596
  943MOL0     H24439   6.910  11.815   4.266 -0.1646 -2.5149 -2.5937
  943MOL0     H24440   6.891  12.437   4.122 -2.8376  2.5742  2.8657
  943MOL0     H24441   7.064  12.580   4.138  2.0094  0.1517 -0.5222
  943MOL0     H24442   7.373  12.717   4.209  0.8338  0.0750 -1.0072
  943MOL0     H24443   7.301  12.587   4.106 -0.3855 -0.6254  0.5444
  943MOL0     H24444   7.475  12.432   4.229  0.3478  0.2661  0.6863
  943MOL0     H24445   7.532  12.576   4.304  0.3882  0.3364 -0.6065
  943MOL0     H24446   7.538  12.490   4.023 -0.9385  0.4423  0.7423
  943MOL0     H24447   7.685  12.534   4.118  0.9494 -1.3826 -2.2649
  943MOL0     H24448   7.619  12.702   3.935  1.9494 -0.9927  0.0040
  943MOL0     H24449   7.491  12.758   4.051  1.6174  2.5123  0.5187
  943MOL0     H24450   7.789  12.763   4.072  0.7422 -0.8203  0.3451
  943MOL0     H24451   7.689  12.756   4.218  0.2985 -0.6162 -0.1997
  943MOL0     H24452   7.737  12.986   4.144  1.3646 -0.9602 -1.8996
  943MOL0     H24453   7.562  12.960   4.153 -1.3162  2.0907 -3.3017
  943MOL0     H24454   7.546  12.939   3.921 -0.9087 -0.7090  1.8441
  943MOL0     H24455   7.622  13.088   3.967 -1.0069  0.6732 -1.0576
  943MOL0     H24456   7.778  12.849   3.863 -3.1222 -0.3219 -0.2594
  943MOL0     H24457   7.841  13.016   3.887 -0.4132  1.5305  0.1927
  943MOL0     H24458   7.271  12.349   4.430  0.0409  0.6827 -1.2908
  943MOL0     H24459   7.086  12.201   4.446  3.5132  0.0354 -0.0923
  943MOL0     H24460   6.615  12.122   4.221  3.3642  2.1097  1.5460
  943MOL0     H24461   6.432  11.956   4.205 -0.3401 -0.4023  1.2076
  943MOL0     H24462   6.116  10.580   5.495  2.1578 -0.8006 -1.5076
  943MOL0     H24463   5.962  10.444   5.629 -3.4494 -3.9944 -1.0034
  943MOL0     H24464   5.611   9.920   5.583  0.2486  0.6180 -1.2869
  943MOL0     H24465   5.380   9.896   5.650 -0.6183 -0.8205  1.3932
  943MOL0     H24466   5.158  10.252   5.830  1.7094  0.0389 -0.6524
  943MOL0     H24467   5.262  10.189   5.954  0.5033  1.6938 -1.4997
  943MOL0     H24468   5.094   9.985   5.989 -0.7829 -1.1939 -0.9982
  943MOL0     H24469   5.041  10.136   6.040 -5.6131 -2.6743  0.5210
  943MOL0     H24470   4.983  10.064   5.762  0.3008 -2.8660  0.9696
  943MOL0     H24471   4.926  10.196   5.861 -0.2738 -0.3160 -1.9103
  943MOL0     H24472   4.743   9.990   5.852  1.5634 -2.2551 -0.4498
  943MOL0     H24473   4.889   9.899   5.875  1.6458  1.1139 -1.2281
  943MOL0     H24474   4.758   9.988   6.274 -2.2884  0.5937 -0.1595
  943MOL0     H24475   5.388  10.304   5.801  2.0051 -0.6213  2.1068
  943MOL0     H24476   5.618  10.332   5.677  0.9269 -1.3233 -2.0341
  944MOL0     O24477   4.715   3.279   7.091  0.4902  0.3142  0.1643
  944MOL0     C24478   4.742   3.352   6.991  1.4035  0.3543 -0.0814
  944MOL0     O24479   4.651   3.412   6.914 -0.1952  0.4175  0.2125
  944MOL0     C24480   4.518   3.405   6.952 -0.3017  0.0616  0.2578
  944MOL0     C24481   4.451   3.287   6.913  0.9027  0.4590 -0.2565
  944MOL0     C24482   4.313   3.282   6.932 -0.4293 -0.0902 -0.6849
  944MOL0     C24483   4.244   3.394   6.989  0.3901  0.7760  0.6565
  944MOL0     O24484   4.117   3.380   7.024  1.1230 -0.3468  0.0116
  944MOL0     C24485   4.029   3.495   7.032  0.7861  0.6451 -0.2905
  944MOL0     C24486   4.023   3.531   7.179  0.4172  0.1894  0.0206
  944MOL0     C24487   3.930   3.657   7.209  0.4633 -0.1900  0.8178
  944MOL0     C24488   3.784   3.606   7.211  0.5939 -0.0903 -0.0453
  944MOL0     C24489   3.696   3.717   7.278 -0.0545 -0.1199  0.5124
  944MOL0     C24490   3.570   3.650   7.346 -0.4900  0.0814  1.4239
  944MOL0     C24491   3.494   3.755   7.436 -1.0611  0.1363  1.3808
  944MOL0     C24492   3.388   3.829   7.359  0.7753 -0.2809 -0.1686
  944MOL0     N24493   3.309   3.920   7.441 -0.0488  0.9594  1.2330
  944MOL0     C24494   3.270   3.895   7.569 -0.3506 -0.2876 -0.1183
  944MOL0     C24495   3.259   4.018   7.634  0.0625 -0.5612  0.5872
  944MOL0     C24496   3.228   4.041   7.780  0.1224  0.4174  0.0573
  944MOL0     C24497   3.080   4.077   7.789  0.0392  1.0550  0.3830
  944MOL0     C24498   2.985   3.955   7.774  0.2185 -0.2632 -0.9376
  944MOL0     C24499   2.842   4.001   7.789 -0.1433 -0.5544  0.5801
  944MOL0     O24500   2.796   3.958   7.925 -0.4826  0.0655 -0.0456
  944MOL0     C24501   2.674   4.007   7.969  0.4352  0.2087 -0.0995
  944MOL0     C24502   2.571   4.066   7.895 -0.4694  0.2013 -0.0137
  944MOL0     C24503   2.448   4.085   7.946 -0.0683  0.0082 -0.1020
  944MOL0     C24504   2.413   4.033   8.075  1.0888 -1.1184 -0.7124
  944MOL0     C24505   2.273   4.057   8.133 -0.4734  0.0788  0.4071
  944MOL0     O24506   2.262   4.001   8.262  0.1910 -0.2291  0.4099
  944MOL0     C24507   2.144   4.033   8.330 -0.3736 -0.3515 -1.1946
  944MOL0     C24508   2.020   3.989   8.302  0.3145  0.1642 -0.7653
  944MOL0     C24509   1.911   4.021   8.395  0.2658  0.0314 -1.0423
  944MOL0     C24510   1.930   4.102   8.501  0.6693  0.3858 -0.6291
  944MOL0     O24511   1.830   4.122   8.591  0.1637 -0.1646  0.3183
  944MOL0     C24512   1.817   4.254   8.653 -0.5280  0.2570 -0.3688
  944MOL0     C24513   1.669   4.263   8.694  0.0769  0.3647  0.0401
  944MOL0     C24514   1.573   4.255   8.576 -0.0616  0.3417 -0.4284
  944MOL0     C24515   1.425   4.264   8.609 -0.1593 -0.3720  0.4840
  944MOL0     C24516   1.319   4.240   8.489 -0.1578  0.0755  0.4495
  944MOL0     C24517   1.180   4.293   8.512  0.8387  0.2152 -0.5373
  944MOL0     C24518   1.162   4.447   8.521 -0.2265  0.5551 -0.4439
  944MOL0     C24519   1.012   4.482   8.504 -0.7754  0.5889 -0.3240
  944MOL0    Cl24520   0.948   4.422   8.341 -0.1493  0.2913  0.1757
  944MOL0     C24521   2.058   4.165   8.519  0.0442  0.5089  0.2139
  944MOL0     C24522   2.163   4.130   8.429  0.1207 -0.4136  0.0918
  944MOL0     O24523   2.187   4.113   8.064  0.0434  1.6649 -0.0901
  944MOL0     C24524   2.521   3.978   8.161 -0.0217 -1.4451  1.3444
  944MOL0     C24525   2.652   3.977   8.104  0.9638  0.6487  0.0150
  944MOL0     N24526   3.271   4.109   7.536  0.7835  0.2847 -0.6658
  944MOL0     N24527   3.290   4.053   7.422  0.6869 -0.0690  0.1757
  944MOL0     C24528   4.322   3.509   7.020  0.5868  0.1805 -0.7051
  944MOL0     C24529   4.457   3.518   6.997 -0.8436  0.0900 -0.3323
  944MOL0     C24530   4.887   3.383   6.975  0.4330  0.0678 -0.1204
  944MOL0     C24531   4.978   3.310   7.049 -0.3314 -0.1112  0.1774
  944MOL0     C24532   5.123   3.318   7.025  0.7423  0.0152 -1.1403
  944MOL0     C24533   5.170   3.408   6.930 -0.1972 -0.7022  1.3133
  944MOL0     O24534   5.305   3.433   6.904 -0.7990  0.0558  0.0618
  944MOL0     C24535   5.403   3.392   7.005 -0.0283 -0.7569  0.2974
  944MOL0     C24536   5.395   3.469   7.135  0.4346  0.6631  0.2581
  944MOL0     C24537   5.445   3.613   7.132 -0.0951  0.5484 -0.8946
  944MOL0     C24538   5.431   3.680   7.273  0.3828 -0.6531 -1.6178
  944MOL0     C24539   5.520   3.620   7.371 -0.9041 -0.1290  0.7350
  944MOL0     C24540   5.605   3.573   7.447 -0.0436 -0.2880  0.1799
  944MOL0     C24541   5.073   3.487   6.862 -0.5112  0.6004 -0.0448
  944MOL0     C24542   4.930   3.474   6.885 -0.2401  0.1591  0.4668
  944MOL0     H24543   4.508   3.203   6.875  0.6318 -0.6053  1.5768
  944MOL0     H24544   4.254   3.193   6.915 -1.9673  1.0585 -1.5853
  944MOL0     H24545   3.930   3.470   6.993  1.1942  1.4754 -1.9190
  944MOL0     H24546   4.071   3.579   6.975  0.8781  1.1987  0.5723
  944MOL0     H24547   4.119   3.535   7.231  0.3117  1.9369  0.1496
  944MOL0     H24548   3.976   3.444   7.225 -1.2307  0.8276 -0.3830
  944MOL0     H24549   3.950   3.741   7.142  2.5350  0.5346  2.2581
  944MOL0     H24550   3.950   3.698   7.309 -1.3498 -1.4524  1.7655
  944MOL0     H24551   3.758   3.580   7.108  0.8781 -0.1023 -0.1163
  944MOL0     H24552   3.777   3.515   7.272 -1.4421 -0.9040 -1.3888
  944MOL0     H24553   3.669   3.789   7.201 -0.2472 -0.1887  0.5147
  944MOL0     H24554   3.756   3.768   7.354 -1.3227  0.3656  1.2174
  944MOL0     H24555   3.594   3.566   7.411 -0.4100  0.8577  2.4154
  944MOL0     H24556   3.503   3.606   7.271  1.8727 -1.7705  0.2509
  944MOL0     H24557   3.448   3.704   7.521 -2.9211  2.3978  1.8257
  944MOL0     H24558   3.555   3.831   7.487 -2.2354  2.1920 -0.1470
  944MOL0     H24559   3.327   3.753   7.309  0.7272 -1.2277  1.2654
  944MOL0     H24560   3.432   3.885   7.275 -0.7811  1.1776 -0.0753
  944MOL0     H24561   3.281   3.799   7.620 -1.7574 -0.0166  0.7612
  944MOL0     H24562   3.300   4.119   7.805  2.0250 -0.1439 -3.1506
  944MOL0     H24563   3.241   3.947   7.835 -0.4094  0.2074 -0.1796
  944MOL0     H24564   3.046   4.158   7.724  0.4132  2.3083  1.6796
  944MOL0     H24565   3.070   4.105   7.895  1.2702 -1.7489  1.3509
  944MOL0     H24566   3.004   3.920   7.672  1.6464 -0.4718 -0.6198
  944MOL0     H24567   3.006   3.875   7.846 -2.5949 -1.8205 -1.6864
  944MOL0     H24568   2.782   3.966   7.705  4.1264 -0.8381 -2.6559
  944MOL0     H24569   2.837   4.110   7.789  4.3424 -0.0831 -2.1778
  944MOL0     H24570   2.594   4.103   7.795  1.2203  0.7048  0.5317
  944MOL0     H24571   2.374   4.133   7.884  1.9902  1.8655 -1.2770
  944MOL0     H24572   1.993   3.915   8.227 -1.2413 -1.5999  1.3763
  944MOL0     H24573   1.815   3.972   8.380  0.3670  0.5813 -4.2338
  944MOL0     H24574   1.834   4.327   8.573 -2.1384 -3.1199 -4.1292
  944MOL0     H24575   1.893   4.262   8.732 -2.7020  0.7903  1.7955
  944MOL0     H24576   1.667   4.366   8.729  1.1946 -0.3073  2.2959
  944MOL0     H24577   1.636   4.189   8.768 -0.2406  1.4413  0.9868
  944MOL0     H24578   1.589   4.163   8.519 -0.7244  0.5793 -1.0239
  944MOL0     H24579   1.595   4.344   8.516  3.1106  0.3098  0.5250
  944MOL0     H24580   1.395   4.190   8.684 -1.0025 -1.2363 -0.6808
  944MOL0     H24581   1.418   4.362   8.658 -1.4087  0.8504 -1.9763
  944MOL0     H24582   1.321   4.133   8.468  2.7094 -0.0639  1.1110
  944MOL0     H24583   1.355   4.290   8.398 -0.0080 -1.1023 -0.1537
  944MOL0     H24584   1.145   4.254   8.608 -1.3116  0.4817 -1.1444
  944MOL0     H24585   1.125   4.247   8.429 -0.0892  0.1354  0.0991
  944MOL0     H24586   1.212   4.485   8.611  1.9494  0.5965 -1.6188
  944MOL0     H24587   1.227   4.492   8.445 -0.1185 -1.2579 -1.4665
  944MOL0     H24588   0.999   4.591   8.505 -0.6082  0.6664 -2.2658
  944MOL0     H24589   0.962   4.437   8.591  3.4329 -0.6162  1.7302
  944MOL0     H24590   2.082   4.220   8.609  1.6798 -0.9412  0.7088
  944MOL0     H24591   2.266   4.161   8.442 -0.0078 -0.5247  1.4473
  944MOL0     H24592   2.503   3.957   8.265 -1.7575 -0.8369  1.2006
  944MOL0     H24593   2.737   3.924   8.146  0.3734 -0.0477  0.3502
  944MOL0     H24594   4.268   3.592   7.064  1.1287  1.4413 -2.2961
  944MOL0     H24595   4.507   3.612   7.018 -0.1691 -0.6534  1.5448
  944MOL0     H24596   4.948   3.241   7.127 -0.2608  2.0073  2.1981
  944MOL0     H24597   5.180   3.253   7.091 -1.5793 -0.7107  0.2750
  944MOL0     H24598   5.494   3.414   6.948 -2.0250  0.2747 -2.7663
  944MOL0     H24599   5.401   3.284   7.017  1.6535 -1.1190 -2.0284
  944MOL0     H24600   5.290   3.461   7.162  1.1924 -0.4775  3.2897
  944MOL0     H24601   5.458   3.415   7.207  0.9890  1.0435  0.0695
  944MOL0     H24602   5.390   3.674   7.060 -3.3002 -0.8580  0.1372
  944MOL0     H24603   5.551   3.618   7.108  0.1011 -0.8867 -0.4691
  944MOL0     H24604   5.456   3.786   7.280  1.9176 -0.9170 -2.5647
  944MOL0     H24605   5.328   3.665   7.307  1.0895 -4.6879 -0.7759
  944MOL0     H24606   5.672   3.535   7.521 -0.3043 -0.3492  0.3834
  944MOL0     H24607   5.104   3.551   6.781 -0.9601  0.5813 -0.2333
  944MOL0     H24608   4.861   3.526   6.819 -0.4046 -0.6886 -0.0340
  945MOL0     O24609   3.134  11.248   4.968  0.4291 -0.3189  0.0320
  945MOL0     C24610   3.180  11.142   4.934  0.6145  0.1659  0.2731
  945MOL0     O24611   3.108  11.026   4.916 -0.6167 -0.4441 -0.4867
  945MOL0     C24612   2.970  11.038   4.928  0.0820 -0.9123 -0.4797
  945MOL0     C24613   2.885  11.127   4.859 -0.2131 -0.5793  1.0163
  945MOL0     C24614   2.743  11.144   4.877  0.0338 -0.0084  0.2908
  945MOL0     C24615   2.678  11.046   4.958 -0.6837  0.1271  0.1597
  945MOL0     O24616   2.546  11.043   4.984  0.9779 -0.4482  0.3844
  945MOL0     C24617   2.460  11.124   4.909  0.3621  0.1890  0.6496
  945MOL0     C24618   2.315  11.078   4.931 -0.7329  0.2072  0.5173
  945MOL0     C24619   2.281  11.083   5.086  0.0752  0.2957 -0.8550
  945MOL0     C24620   2.143  11.022   5.111 -0.3562  0.1169  0.7406
  945MOL0     C24621   2.032  11.125   5.078  0.7339  0.3193  0.4342
  945MOL0     C24622   1.902  11.055   5.097  0.5405 -0.3902  1.0129
  945MOL0     C24623   1.796  11.160   5.060  0.6208  0.2729 -0.7130
  945MOL0     C24624   1.658  11.130   5.131 -0.2084  0.9802 -0.1013
  945MOL0     N24625   1.606  11.001   5.122 -0.0809  0.0094  0.1718
  945MOL0     C24626   1.600  10.901   5.216 -0.5178 -0.4439  0.3272
  945MOL0     C24627   1.543  10.791   5.161 -0.1600 -0.1703  0.4398
  945MOL0     C24628   1.543  10.649   5.202  0.3466  0.1710  0.1584
  945MOL0     C24629   1.625  10.551   5.108 -0.0502 -0.4071 -1.1268
  945MOL0     C24630   1.591  10.412   5.152  0.0374 -0.3471  0.6422
  945MOL0     C24631   1.700  10.312   5.109  0.4020  0.6428 -0.5167
  945MOL0     O24632   1.692  10.300   4.960 -0.4555  0.4800  0.1063
  945MOL0     C24633   1.797  10.243   4.886 -0.1158 -0.2680  0.1853
  945MOL0     C24634   1.898  10.165   4.942  0.6207 -0.2890  0.4257
  945MOL0     C24635   2.002  10.126   4.862  0.1381 -0.5061 -0.0853
  945MOL0     C24636   2.013  10.153   4.725  0.8723 -0.0582 -0.1297
  945MOL0     C24637   2.118  10.101   4.639  0.0332  0.2119  0.5960
  945MOL0     O24638   2.238  10.086   4.709  0.3457  0.1441 -0.1022
  945MOL0     C24639   2.348  10.041   4.647  0.7377  0.4644  1.3246
  945MOL0     C24640   2.456  10.132   4.644  0.4682 -0.5675  0.4377
  945MOL0     C24641   2.575  10.095   4.590 -0.2475  0.2248  0.0598
  945MOL0     C24642   2.590   9.969   4.521 -0.4901  0.0803 -0.0007
  945MOL0     O24643   2.701   9.927   4.446 -0.6782 -0.3556 -0.3022
  945MOL0     C24644   2.816  10.006   4.451 -0.5249  0.0381  0.3687
  945MOL0     C24645   2.941   9.945   4.382 -0.2786 -0.1003  0.0319
  945MOL0     C24646   2.923   9.949   4.232 -0.1945 -0.2822  0.0756
  945MOL0     C24647   3.058   9.905   4.158  0.5366  0.4399 -0.5258
  945MOL0     C24648   3.051   9.942   4.006  0.2262 -0.9603  0.1619
  945MOL0     C24649   3.182   9.908   3.925  0.4410  0.8737  0.2359
  945MOL0     C24650   3.243   9.763   3.937 -0.1765  0.0187  0.4386
  945MOL0     C24651   3.372   9.781   3.860 -1.2726 -0.2608 -0.1614
  945MOL0    Cl24652   3.447   9.625   3.842 -0.2157  0.0499  0.0240
  945MOL0     C24653   2.488   9.877   4.534  0.8424 -0.8520  0.3835
  945MOL0     C24654   2.362   9.910   4.591 -0.6696 -0.2884  0.4086
  945MOL0     O24655   2.105  10.080   4.517 -0.0893 -0.7991 -0.4032
  945MOL0     C24656   1.892  10.212   4.666 -0.3236 -0.4484 -0.5113
  945MOL0     C24657   1.787  10.267   4.744  0.4471 -0.8498  0.4762
  945MOL0     N24658   1.498  10.837   5.040  0.3393  1.5862 -0.2464
  945MOL0     N24659   1.538  10.954   5.011  1.0997  0.4633 -0.8389
  945MOL0     C24660   2.769  10.957   5.031  0.0477  0.0780  0.1210
  945MOL0     C24661   2.909  10.947   5.015  0.8177  0.0599  0.2675
  945MOL0     C24662   3.328  11.131   4.927  0.9960 -0.7475  0.0687
  945MOL0     C24663   3.384  11.016   4.865  0.1751 -0.5448 -0.3176
  945MOL0     C24664   3.527  10.998   4.866  0.1412  0.3790  0.1759
  945MOL0     C24665   3.614  11.093   4.923 -0.6087 -0.1706 -1.1290
  945MOL0     O24666   3.756  11.087   4.913  1.0769 -0.0909 -0.6564
  945MOL0     C24667   3.818  10.967   4.878  0.0624 -0.1314  0.4659
  945MOL0     C24668   3.803  10.864   4.988  0.2530  0.5415  0.2492
  945MOL0     C24669   3.923  10.890   5.079 -0.5811  0.1970 -0.0092
  945MOL0     C24670   3.910  10.808   5.204 -0.0680  0.3143 -1.0143
  945MOL0     C24671   4.029  10.819   5.288 -0.5933  0.0951  0.1590
  945MOL0     C24672   4.131  10.840   5.350 -0.3716  0.0120 -0.4044
  945MOL0     C24673   3.555  11.198   4.988  0.2792  0.5485 -0.0176
  945MOL0     C24674   3.416  11.221   4.987 -0.7198 -1.2860  0.0659
  945MOL0     H24675   2.930  11.204   4.797  1.4670 -2.2596  0.0609
  945MOL0     H24676   2.672  11.211   4.828 -0.2535  0.4508  1.2989
  945MOL0     H24677   2.475  11.114   4.801  1.3688 -0.2802  0.8205
  945MOL0     H24678   2.483  11.228   4.934  2.5152  1.1878 -4.4081
  945MOL0     H24679   2.307  10.974   4.898  2.2606  1.0326 -3.6787
  945MOL0     H24680   2.239  11.122   4.865  1.2989  1.0193 -1.4126
  945MOL0     H24681   2.292  11.184   5.128 -0.7504  1.0467 -2.3594
  945MOL0     H24682   2.349  11.019   5.144  0.7353  0.8248 -1.0232
  945MOL0     H24683   2.128  10.932   5.051 -0.7650 -0.2420  1.3661
  945MOL0     H24684   2.129  10.998   5.217 -2.9602 -0.1635  0.4059
  945MOL0     H24685   2.041  11.147   4.972 -3.2049  2.7351  0.3980
  945MOL0     H24686   2.052  11.217   5.132  3.1695 -0.1115  0.3609
  945MOL0     H24687   1.890  11.026   5.202  3.0495 -1.2381  1.1269
  945MOL0     H24688   1.889  10.966   5.034  0.2685 -0.7140  1.5164
  945MOL0     H24689   1.823  11.263   5.086 -2.8387  1.3621 -0.8132
  945MOL0     H24690   1.787  11.168   4.951  0.0089  3.5013 -0.5504
  945MOL0     H24691   1.579  11.195   5.091 -0.9116  2.1369  2.9219
  945MOL0     H24692   1.676  11.137   5.238 -2.4051 -0.1565  0.3943
  945MOL0     H24693   1.655  10.906   5.309  1.2795  0.6439 -0.7277
  945MOL0     H24694   1.437  10.624   5.189  0.0721  2.0264 -1.8358
  945MOL0     H24695   1.590  10.638   5.300  0.9596  1.5381  0.0491
  945MOL0     H24696   1.732  10.574   5.114 -0.3325  1.0227 -1.2220
  945MOL0     H24697   1.601  10.555   5.001  0.0412  1.0845 -1.1168
  945MOL0     H24698   1.590  10.416   5.261  1.0752  1.7233  0.6299
  945MOL0     H24699   1.496  10.377   5.111 -0.9244  2.0164  0.7225
  945MOL0     H24700   1.687  10.217   5.163 -2.2885  0.1723 -1.8512
  945MOL0     H24701   1.799  10.348   5.137  1.6525  0.2551 -3.9361
  945MOL0     H24702   1.913  10.163   5.049  0.0442 -1.5410  0.4919
  945MOL0     H24703   2.084  10.077   4.913  0.9453 -0.9390 -1.7487
  945MOL0     H24704   2.447  10.228   4.693  2.4768 -0.8268  1.3830
  945MOL0     H24705   2.651  10.173   4.592 -0.6200  0.6382 -1.1499
  945MOL0     H24706   2.846  10.019   4.555 -1.0924  0.8169  0.4372
  945MOL0     H24707   2.799  10.099   4.398  2.1985 -0.9206 -2.4834
  945MOL0     H24708   2.956   9.839   4.404  1.1059 -0.2464 -1.3930
  945MOL0     H24709   3.032   9.995   4.417 -2.6120  1.9860  3.7553
  945MOL0     H24710   2.903  10.053   4.206  0.4424 -0.5957 -1.8353
  945MOL0     H24711   2.833   9.896   4.198 -2.0710  3.3123 -1.0666
  945MOL0     H24712   3.146   9.944   4.209  1.0443 -3.4378  1.9823
  945MOL0     H24713   3.063   9.796   4.167  2.2935  0.6609  2.0655
  945MOL0     H24714   3.042  10.051   3.992  0.0080 -0.9224  0.6039
  945MOL0     H24715   2.969   9.900   3.947  0.7782  1.3326 -2.4841
  945MOL0     H24716   3.256   9.984   3.952 -2.0148  2.1149  4.3772
  945MOL0     H24717   3.138   9.937   3.829 -6.0183  2.4182  3.0533
  945MOL0     H24718   3.256   9.735   4.042 -0.5165  1.2985  0.8387
  945MOL0     H24719   3.184   9.690   3.881  3.1586 -1.5290 -1.3982
  945MOL0     H24720   3.441   9.849   3.912  0.5413  1.6001 -4.5257
  945MOL0     H24721   3.361   9.819   3.758 -0.1135  2.2255  0.5730
  945MOL0     H24722   2.500   9.777   4.494 -1.4447 -0.4361 -1.5574
  945MOL0     H24723   2.290   9.829   4.596  0.8317 -1.7759 -0.8330
  945MOL0     H24724   1.887  10.222   4.558  2.4627  0.5995 -0.6169
  945MOL0     H24725   1.707  10.319   4.692  1.1860 -0.9420 -0.8017
  945MOL0     H24726   2.717  10.891   5.100  2.3569 -2.1884 -0.1768
  945MOL0     H24727   2.970  10.884   5.079  0.1081 -2.4581 -1.3812
  945MOL0     H24728   3.328  10.928   4.837  0.2874 -0.2217 -1.6368
  945MOL0     H24729   3.563  10.915   4.806 -2.1829  0.7669 -1.9707
  945MOL0     H24730   3.924  10.982   4.858  0.8522 -3.9225  1.0806
  945MOL0     H24731   3.796  10.922   4.781  3.9254 -0.4511 -0.4147
  945MOL0     H24732   3.709  10.879   5.043  0.3394 -2.1260  1.2655
  945MOL0     H24733   3.800  10.764   4.946 -0.6927  0.5043  0.3794
  945MOL0     H24734   3.924  10.995   5.108 -0.4996  0.1627  0.1100
  945MOL0     H24735   4.018  10.863   5.032  0.2896  0.2320  1.6575
  945MOL0     H24736   3.830  10.843   5.269  0.4282 -2.0871  1.0333
  945MOL0     H24737   3.899  10.702   5.183  1.3685 -0.0840  0.1197
  945MOL0     H24738   4.220  10.869   5.402 -1.7198  3.1692  0.3886
  945MOL0     H24739   3.622  11.272   5.031  2.6312 -0.8208 -1.1438
  945MOL0     H24740   3.388  11.315   5.033 -0.9273  1.1363 -4.4401
  946MOL0     O24741   3.864   5.798   7.785 -0.5430  0.1427 -0.1477
  946MOL0     C24742   3.898   5.889   7.849 -0.2180 -0.8959 -0.5639
  946MOL0     O24743   3.832   6.006   7.856 -0.1698  0.2497 -0.2788
  946MOL0     C24744   3.696   6.027   7.823 -0.7994 -0.7728 -0.7733
  946MOL0     C24745   3.632   6.138   7.895 -0.8626  0.7893 -0.2716
  946MOL0     C24746   3.496   6.160   7.877  0.1615 -0.7126 -0.0544
  946MOL0     C24747   3.425   6.093   7.778  0.3664  0.1791 -0.3432
  946MOL0     O24748   3.296   6.131   7.728 -0.2578 -0.0115  0.1024
  946MOL0     C24749   3.299   6.279   7.693 -0.6165 -0.1380 -0.5797
  946MOL0     C24750   3.166   6.327   7.630 -0.4164  0.9619  0.2940
  946MOL0     C24751   3.053   6.296   7.731 -0.0896 -0.5686  0.5641
  946MOL0     C24752   2.933   6.383   7.710 -1.1038  0.6436  0.1928
  946MOL0     C24753   2.815   6.344   7.795  0.5577  0.1738  0.2946
  946MOL0     C24754   2.705   6.446   7.795  0.1394 -0.3643  0.5086
  946MOL0     C24755   2.577   6.409   7.873  0.1315 -0.0841 -0.1648
  946MOL0     C24756   2.479   6.515   7.884 -0.3326  0.4405 -0.1802
  946MOL0     N24757   2.397   6.502   7.762 -0.2120  0.5257  0.0293
  946MOL0     C24758   2.304   6.400   7.739 -0.4503  0.9671 -1.0470
  946MOL0     C24759   2.256   6.425   7.615  0.3696  0.7306 -0.6477
  946MOL0     C24760   2.152   6.350   7.528 -0.4858 -0.6733 -0.1693
  946MOL0     C24761   2.023   6.427   7.499  0.6423 -0.1339 -0.2953
  946MOL0     C24762   1.926   6.417   7.621 -0.1036  0.2371 -0.4150
  946MOL0     C24763   1.792   6.471   7.586  0.1301 -0.8800 -0.1891
  946MOL0     O24764   1.692   6.398   7.658  0.7298  0.0689 -0.0533
  946MOL0     C24765   1.569   6.462   7.670 -0.8793 -0.1057  0.6896
  946MOL0     C24766   1.489   6.421   7.775  0.0453  0.8514 -0.0979
  946MOL0     C24767   1.370   6.487   7.806  1.5204 -0.2395  0.1169
  946MOL0     C24768   1.330   6.602   7.734 -0.3794  0.6194 -1.3445
  946MOL0     C24769   1.214   6.685   7.774 -0.8668  1.5017 -0.0344
  946MOL0     O24770   1.158   6.661   7.892  0.4763 -0.0741  0.3350
  946MOL0     C24771   1.047   6.742   7.925  0.4879  0.1005 -0.6031
  946MOL0     C24772   0.919   6.718   7.876 -0.3547  0.1112  0.4366
  946MOL0     C24773   0.807   6.783   7.924 -0.4682  0.3022 -0.6103
  946MOL0     C24774   0.823   6.870   8.038  0.7475 -0.0337  1.0313
  946MOL0     O24775   0.715   6.941   8.084 -0.1185  0.1592  0.5824
  946MOL0     C24776   0.717   7.011   8.214 -0.2798 -0.2962 -0.6845
  946MOL0     C24777   0.583   7.085   8.237 -0.3425  0.6720 -1.1175
  946MOL0     C24778   0.564   7.189   8.128  0.0756  0.0426  0.1415
  946MOL0     C24779   0.480   7.308   8.173 -1.0031 -0.1462  0.2765
  946MOL0     C24780   0.334   7.283   8.221 -0.1340  0.0082 -0.5279
  946MOL0     C24781   0.250   7.234   8.107 -0.1874  0.2662 -0.4060
  946MOL0     C24782   0.106   7.215   8.144 -0.3252  0.5478 -1.4400
  946MOL0     C24783   0.038   7.352   8.161 -0.1619 -0.0211  0.5259
  946MOL0    Cl24784  -0.124   7.313   8.222  0.2199 -0.1693  0.4068
  946MOL0     C24785   0.954   6.899   8.082  0.6232  0.0975 -0.2631
  946MOL0     C24786   1.060   6.835   8.027  0.3750  0.2324 -0.1693
  946MOL0     O24787   1.170   6.763   7.694 -0.2894 -0.0939 -0.0731
  946MOL0     C24788   1.412   6.638   7.622  0.1035  0.6974  0.7098
  946MOL0     C24789   1.530   6.566   7.591 -0.4066 -0.3257  0.8402
  946MOL0     N24790   2.323   6.535   7.568 -0.5326  0.0527 -0.3542
  946MOL0     N24791   2.409   6.587   7.656  0.0328  0.1854  0.8687
  946MOL0     C24792   3.486   5.992   7.709  0.6352 -0.6536  0.7647
  946MOL0     C24793   3.622   5.960   7.720  0.2400 -0.2370 -0.2862
  946MOL0     C24794   4.017   5.869   7.931  0.1317  0.0312 -0.5126
  946MOL0     C24795   4.090   5.968   8.001  0.9618 -0.3186  0.5636
  946MOL0     C24796   4.201   5.925   8.079  0.7184 -0.1368 -0.4697
  946MOL0     C24797   4.231   5.788   8.106 -0.1701 -0.4739  0.5256
  946MOL0     O24798   4.326   5.747   8.196 -0.1442  0.3231  0.1159
  946MOL0     C24799   4.439   5.831   8.233 -0.9363  0.7602 -0.1397
  946MOL0     C24800   4.535   5.859   8.114  0.1978 -0.4325 -0.1418
  946MOL0     C24801   4.665   5.927   8.142 -0.7859 -0.7515 -0.2775
  946MOL0     C24802   4.773   5.914   8.035  0.2392  0.0697  0.4040
  946MOL0     C24803   4.896   5.983   8.068 -0.3135  0.0706 -0.3852
  946MOL0     C24804   4.986   6.066   8.081 -0.1237 -1.3236  0.2368
  946MOL0     C24805   4.149   5.694   8.048  0.0856 -0.6793  0.0178
  946MOL0     C24806   4.043   5.726   7.969 -1.3511  0.4837  0.4939
  946MOL0     H24807   3.673   6.211   7.963 -3.0870  3.9214 -2.0309
  946MOL0     H24808   3.449   6.239   7.934 -2.0859 -2.4799  0.6707
  946MOL0     H24809   3.379   6.309   7.625  0.3588 -0.3033  0.4473
  946MOL0     H24810   3.310   6.334   7.787 -2.0044 -0.2616 -0.3328
  946MOL0     H24811   3.155   6.272   7.536  0.6741  1.7409 -0.3105
  946MOL0     H24812   3.169   6.433   7.603  2.0511  0.9047  0.1361
  946MOL0     H24813   3.090   6.318   7.832  1.1480 -3.2473  0.7713
  946MOL0     H24814   3.034   6.189   7.723 -1.4885 -0.2828 -0.1815
  946MOL0     H24815   2.974   6.480   7.740  0.6889  0.6085 -1.8456
  946MOL0     H24816   2.914   6.390   7.602 -2.2115 -0.8469  0.2483
  946MOL0     H24817   2.845   6.329   7.899 -1.2901  0.6233  0.9307
  946MOL0     H24818   2.774   6.249   7.759  2.6412 -1.0829  1.0754
  946MOL0     H24819   2.665   6.470   7.696 -2.0417  0.6794  1.5802
  946MOL0     H24820   2.757   6.533   7.835 -0.7928 -0.2957  1.6264
  946MOL0     H24821   2.519   6.322   7.842  0.4654 -0.3337 -0.0859
  946MOL0     H24822   2.610   6.388   7.975 -0.5972  1.7792  0.5120
  946MOL0     H24823   2.523   6.615   7.892  0.3284  0.2135 -0.8139
  946MOL0     H24824   2.415   6.486   7.967 -3.1552  1.5270 -1.8386
  946MOL0     H24825   2.277   6.329   7.817 -1.0905  2.4005  0.0828
  946MOL0     H24826   2.129   6.259   7.584 -1.0361  0.3883  1.3679
  946MOL0     H24827   2.199   6.333   7.431  1.1762  1.6843  0.1389
  946MOL0     H24828   1.971   6.378   7.416  1.3495  1.1407 -1.5156
  946MOL0     H24829   2.049   6.527   7.465  3.7284 -1.4018 -2.1339
  946MOL0     H24830   1.928   6.315   7.661  3.0819  1.4183  2.9230
  946MOL0     H24831   1.961   6.467   7.711 -1.8249 -2.5058  1.9762
  946MOL0     H24832   1.771   6.477   7.479 -2.0227 -0.0118  0.2194
  946MOL0     H24833   1.794   6.574   7.623 -0.2560 -0.3179 -1.6797
  946MOL0     H24834   1.519   6.327   7.818  2.5188  0.7184 -1.9006
  946MOL0     H24835   1.297   6.460   7.882 -2.3232  0.9709 -2.8682
  946MOL0     H24836   0.904   6.654   7.789  1.2959  0.2190  0.0361
  946MOL0     H24837   0.715   6.751   7.877 -0.4529  0.0866 -0.4967
  946MOL0     H24838   0.795   7.086   8.221 -0.3911  0.3985 -4.6269
  946MOL0     H24839   0.713   6.934   8.292 -1.6031  0.9539  0.5490
  946MOL0     H24840   0.585   7.132   8.336 -2.4873 -2.8944  0.8722
  946MOL0     H24841   0.503   7.010   8.234 -2.2763  2.6830 -3.3878
  946MOL0     H24842   0.510   7.149   8.042  2.5277 -1.8520 -0.6454
  946MOL0     H24843   0.665   7.222   8.101  0.4050 -1.2632 -0.2905
  946MOL0     H24844   0.527   7.371   8.249 -0.6175  3.7683 -2.8326
  946MOL0     H24845   0.468   7.368   8.082  0.6734 -2.6484 -1.7223
  946MOL0     H24846   0.299   7.377   8.265  0.0197  0.2549 -0.9327
  946MOL0     H24847   0.343   7.214   8.305 -1.2508 -0.1331 -0.5165
  946MOL0     H24848   0.296   7.139   8.077 -0.7254 -0.2968  0.4894
  946MOL0     H24849   0.267   7.302   8.023  0.3239 -0.2856 -0.7645
  946MOL0     H24850   0.059   7.157   8.065 -1.8126  0.8888 -0.8326
  946MOL0     H24851   0.097   7.158   8.237 -2.2050  0.4805 -1.6304
  946MOL0     H24852   0.027   7.398   8.062 -1.1743  1.4399  1.2738
  946MOL0     H24853   0.099   7.411   8.230 -0.3762  1.8244 -0.7719
  946MOL0     H24854   0.971   6.952   8.175 -1.7973  0.0131  0.3002
  946MOL0     H24855   1.158   6.853   8.072  1.5032 -2.2896 -1.4166
  946MOL0     H24856   1.388   6.715   7.549  2.6190  1.9971  1.1361
  946MOL0     H24857   1.576   6.588   7.495 -3.7067 -0.4427 -0.9425
  946MOL0     H24858   3.438   5.945   7.623  0.1545  0.3814  0.4525
  946MOL0     H24859   3.678   5.886   7.663  1.4126  0.5737 -0.2122
  946MOL0     H24860   4.052   6.070   7.996 -0.5367 -0.8308  0.8690
  946MOL0     H24861   4.263   5.991   8.140 -0.7690  0.1747  0.7620
  946MOL0     H24862   4.494   5.768   8.305 -2.8759 -2.5936 -1.3804
  946MOL0     H24863   4.414   5.921   8.290 -1.7260  0.9688 -0.7925
  946MOL0     H24864   4.566   5.760   8.077  3.0129  0.5565 -0.6517
  946MOL0     H24865   4.490   5.922   8.037 -2.3613  1.2356  2.5060
  946MOL0     H24866   4.709   5.899   8.238  2.6553  0.8651 -1.2094
  946MOL0     H24867   4.638   6.033   8.149  1.7000  0.0588 -1.7106
  946MOL0     H24868   4.797   5.808   8.019  0.5731  0.0855  0.7879
  946MOL0     H24869   4.738   5.957   7.941  1.5783  2.7902  1.0428
  946MOL0     H24870   5.066   6.138   8.082 -0.4152 -0.8460 -2.3303
  946MOL0     H24871   4.165   5.588   8.066  0.8630 -1.0584 -2.4354
  946MOL0     H24872   3.983   5.648   7.925  1.4627 -1.0634 -0.8628
  947MOL0     O24873   7.052   2.652  10.745 -0.2326 -0.2781 -0.6409
  947MOL0     C24874   6.956   2.705  10.681 -0.3281  0.2606  0.0938
  947MOL0     O24875   6.921   2.680  10.547 -0.0741  0.2181  0.1660
  947MOL0     C24876   7.007   2.596  10.481 -0.6661 -0.9021  0.5506
  947MOL0     C24877   6.968   2.469  10.444 -0.5492  0.1651  0.6755
  947MOL0     C24878   7.056   2.382  10.376  0.1603  0.0806 -0.3492
  947MOL0     C24879   7.191   2.424  10.361 -0.3113  0.6524  0.6296
  947MOL0     O24880   7.289   2.346  10.303 -0.2079 -0.7437 -0.0701
  947MOL0     C24881   7.305   2.216  10.358  0.3952  0.3379 -0.4828
  947MOL0     C24882   7.332   2.219  10.511 -0.3484  0.0982 -0.1000
  947MOL0     C24883   7.315   2.076  10.562 -1.0853  0.0821 -0.4056
  947MOL0     C24884   7.341   2.068  10.721 -1.3200  0.2230 -0.0308
  947MOL0     C24885   7.383   1.926  10.777  0.4496 -0.2341 -0.0208
  947MOL0     C24886   7.281   1.802  10.762  0.3435 -0.4067 -0.2482
  947MOL0     C24887   7.138   1.824  10.813  0.1312 -0.6067 -0.7636
  947MOL0     C24888   7.130   1.866  10.961  0.0849  0.3599 -0.2679
  947MOL0     N24889   6.987   1.887  11.000 -0.3036  0.7930 -0.7795
  947MOL0     C24890   6.912   1.980  10.954  0.3662  0.2101  0.1901
  947MOL0     C24891   6.787   1.968  11.006  0.1998 -0.6421  0.5270
  947MOL0     C24892   6.665   2.058  10.982 -0.1945  1.1425  0.4947
  947MOL0     C24893   6.554   1.950  10.945 -0.6529  0.5530  0.0645
  947MOL0     C24894   6.420   2.012  10.888 -0.2440  0.3037  0.3349
  947MOL0     C24895   6.321   2.060  10.993 -0.5791 -0.5059  0.2101
  947MOL0     O24896   6.351   2.203  11.009  0.6249 -0.5289  0.6771
  947MOL0     C24897   6.236   2.287  10.996 -0.1189  0.1551 -0.3279
  947MOL0     C24898   6.185   2.338  10.874 -0.3066  0.1893  0.1736
  947MOL0     C24899   6.076   2.417  10.876 -0.0061  0.3439  0.4058
  947MOL0     C24900   5.997   2.445  10.995  0.0082 -1.2530  0.9778
  947MOL0     C24901   5.889   2.538  11.007  0.3437  0.3956  0.2301
  947MOL0     O24902   5.856   2.597  10.887 -0.8362 -0.4243  0.2099
  947MOL0     C24903   5.744   2.673  10.880 -0.1870  0.3317 -0.7806
  947MOL0     C24904   5.738   2.793  10.817 -0.7169 -0.0458  0.8534
  947MOL0     C24905   5.617   2.850  10.810 -0.2131  0.1477 -0.5399
  947MOL0     C24906   5.498   2.789  10.863  0.1713 -0.3990 -0.0130
  947MOL0     O24907   5.368   2.847  10.855  0.1168 -0.2468 -0.4596
  947MOL0     C24908   5.356   2.981  10.809  0.7195  0.4825  0.2667
  947MOL0     C24909   5.225   3.047  10.859 -0.2728 -0.4995 -0.2864
  947MOL0     C24910   5.108   2.989  10.785  0.1927 -0.2496  0.4255
  947MOL0     C24911   4.979   3.063  10.819  0.1192  0.3069  0.0716
  947MOL0     C24912   4.857   3.024  10.725 -0.1509 -0.0009 -0.2451
  947MOL0     C24913   4.725   3.085  10.782  0.6405 -0.3410 -0.1462
  947MOL0     C24914   4.618   3.093  10.664 -0.1684  0.6288 -0.0034
  947MOL0     C24915   4.482   3.086  10.723  0.6533  0.2555 -0.4079
  947MOL0    Cl24916   4.469   2.927  10.808 -0.4343  0.5472  0.4300
  947MOL0     C24917   5.500   2.668  10.927 -0.7794  0.2078 -0.0368
  947MOL0     C24918   5.627   2.605  10.935  0.5822  0.0810  0.7083
  947MOL0     O24919   5.834   2.561  11.117  0.3101  0.4535 -0.0401
  947MOL0     C24920   6.045   2.390  11.113 -0.6208  0.2194 -0.0833
  947MOL0     C24921   6.166   2.316  11.108  0.8005  0.1273 -0.6016
  947MOL0     N24922   6.787   1.851  11.086  0.3347 -0.2326 -0.3153
  947MOL0     N24923   6.909   1.797  11.065  0.2046  0.3337  0.5773
  947MOL0     C24924   7.224   2.559  10.390 -0.5039 -0.1489 -0.7224
  947MOL0     C24925   7.134   2.645  10.456  0.1895  0.7441 -0.6637
  947MOL0     C24926   6.868   2.791  10.761 -0.3129 -0.6872  0.0553
  947MOL0     C24927   6.750   2.857  10.711 -0.2845 -0.2150 -0.3510
  947MOL0     C24928   6.662   2.947  10.781 -0.5096  0.5597  0.5465
  947MOL0     C24929   6.697   2.985  10.912 -0.4506 -0.0906  0.0346
  947MOL0     O24930   6.638   3.072  10.998  0.3624  0.2927 -0.8630
  947MOL0     C24931   6.495   3.103  10.972 -0.1028  0.4365  0.0153
  947MOL0     C24932   6.428   3.136  11.105 -0.4551 -0.0365 -0.0600
  947MOL0     C24933   6.375   3.268  11.118 -0.1541  0.4545 -0.5570
  947MOL0     C24934   6.364   3.315  11.262 -0.2688 -0.0956  0.0129
  947MOL0     C24935   6.270   3.235  11.339  0.6807  0.8766  0.3867
  947MOL0     C24936   6.194   3.173  11.413  0.0888  0.1746  0.1016
  947MOL0     C24937   6.815   2.914  10.970 -0.0311  0.3042 -0.4793
  947MOL0     C24938   6.895   2.824  10.899 -0.0179  0.5743  0.5849
  947MOL0     H24939   6.870   2.428  10.468  0.6803 -1.8563  2.6626
  947MOL0     H24940   7.032   2.280  10.349  0.3616 -0.9588  2.9690
  947MOL0     H24941   7.386   2.162  10.309  1.9576  0.7277  1.5296
  947MOL0     H24942   7.212   2.162  10.337  0.4820  0.3681 -0.9686
  947MOL0     H24943   7.266   2.277  10.577 -3.5982 -1.3708 -1.8310
  947MOL0     H24944   7.426   2.273  10.529 -0.0411  0.6478 -2.9200
  947MOL0     H24945   7.380   2.006  10.510  0.3074  1.6630 -0.9038
  947MOL0     H24946   7.217   2.038  10.533 -0.1810 -0.5657 -2.8062
  947MOL0     H24947   7.425   2.132  10.751 -0.4743 -0.7414 -0.2869
  947MOL0     H24948   7.249   2.103  10.769 -1.1465  0.7201 -0.0608
  947MOL0     H24949   7.401   1.942  10.883  3.1543  0.8307 -0.5680
  947MOL0     H24950   7.479   1.902  10.730  0.8452  1.8865 -0.3873
  947MOL0     H24951   7.324   1.711  10.804  1.7628  0.8912  1.2421
  947MOL0     H24952   7.272   1.781  10.655 -1.1625 -0.2782 -0.1691
  947MOL0     H24953   7.081   1.898  10.756  0.6128 -1.8693 -3.0215
  947MOL0     H24954   7.080   1.731  10.802 -1.3643  0.2876 -0.7271
  947MOL0     H24955   7.187   1.955  10.992 -0.7504  0.7257  0.2790
  947MOL0     H24956   7.167   1.790  11.030  2.9669  0.2131 -1.8130
  947MOL0     H24957   6.941   2.069  10.900  2.3880 -0.9628 -0.7746
  947MOL0     H24958   6.688   2.127  10.900 -0.9298 -2.1521 -2.7845
  947MOL0     H24959   6.647   2.107  11.078  2.5436  0.2598  1.5646
  947MOL0     H24960   6.519   1.903  11.038  1.4498  0.3797  0.8313
  947MOL0     H24961   6.591   1.880  10.871 -3.2943 -0.2717 -0.5711
  947MOL0     H24962   6.441   2.088  10.813 -3.4125 -0.0929 -1.1462
  947MOL0     H24963   6.362   1.940  10.829 -0.7492  0.3423  0.7702
  947MOL0     H24964   6.353   1.998  11.077 -0.2842 -3.2472 -1.7528
  947MOL0     H24965   6.217   2.028  10.975  0.0616 -2.1792 -0.7805
  947MOL0     H24966   6.249   2.324  10.788 -0.8845  0.5975 -0.3333
  947MOL0     H24967   6.041   2.452  10.779 -1.1841  0.8133  0.9796
  947MOL0     H24968   5.829   2.836  10.777  0.3845 -3.7071 -1.0053
  947MOL0     H24969   5.614   2.941  10.751 -4.2922  0.6958  0.2522
  947MOL0     H24970   5.361   2.979  10.700  3.8889  0.5004  0.3284
  947MOL0     H24971   5.436   3.045  10.846 -2.0287  3.0965  2.1399
  947MOL0     H24972   5.222   3.155  10.846 -1.9851 -0.0502  2.8493
  947MOL0     H24973   5.210   3.036  10.967 -2.3412  3.1109 -0.0670
  947MOL0     H24974   5.096   2.884  10.811  2.3883  0.1257  3.5308
  947MOL0     H24975   5.125   2.998  10.677 -1.7027  0.1192  0.1125
  947MOL0     H24976   4.947   3.033  10.919  0.4542  3.0759  1.0958
  947MOL0     H24977   4.997   3.171  10.825  1.5250  0.0697  6.3034
  947MOL0     H24978   4.842   2.917  10.709 -1.0192  0.2850 -1.5003
  947MOL0     H24979   4.876   3.061  10.624  0.8803 -1.2517 -0.5346
  947MOL0     H24980   4.745   3.187  10.816  0.0773 -1.1647  2.9961
  947MOL0     H24981   4.691   3.036  10.873  1.2092  0.7988  0.7173
  947MOL0     H24982   4.632   3.192  10.619  1.5486 -1.2999 -4.3573
  947MOL0     H24983   4.638   3.011  10.593  0.0537  0.5234  0.1805
  947MOL0     H24984   4.406   3.098  10.645 -2.1708  1.0346  2.2776
  947MOL0     H24985   4.459   3.167  10.792  1.5118  0.4852 -0.3758
  947MOL0     H24986   5.410   2.633  10.977 -0.9590 -0.0554 -0.5356
  947MOL0     H24987   5.622   2.510  10.987  0.5046  0.6275  1.7242
  947MOL0     H24988   6.008   2.411  11.213  2.0588  1.3504  0.7899
  947MOL0     H24989   6.200   2.272  11.201  0.9542 -3.1332 -2.0634
  947MOL0     H24990   7.323   2.602  10.387  0.4738 -2.0795  1.4529
  947MOL0     H24991   7.163   2.740  10.499 -1.8532  3.1539 -4.0661
  947MOL0     H24992   6.730   2.855  10.604 -1.8372  0.4361 -0.1002
  947MOL0     H24993   6.579   2.999  10.734 -1.0085 -0.6249  0.0872
  947MOL0     H24994   6.448   3.022  10.915  0.1083 -0.8081  1.5190
  947MOL0     H24995   6.492   3.193  10.911  1.7618  0.0950 -0.6484
  947MOL0     H24996   6.348   3.062  11.115 -0.7411  0.1895 -0.6704
  947MOL0     H24997   6.493   3.125  11.193  0.4435  1.1305 -0.5532
  947MOL0     H24998   6.278   3.264  11.067 -1.9191 -0.6892  2.5993
  947MOL0     H24999   6.444   3.334  11.067 -1.5116 -0.8022 -4.3256
  947MOL0     H25000   6.458   3.298  11.313 -0.6678 -1.2471  0.3828
  947MOL0     H25001   6.330   3.419  11.266 -3.2168 -0.9765  0.6200
  947MOL0     H25002   6.135   3.101  11.466  1.0139 -1.4293 -0.9416
  947MOL0     H25003   6.841   2.935  11.073 -0.8009  3.2928 -0.7839
  947MOL0     H25004   6.964   2.761  10.955 -1.3660 -4.7015 -2.9604
  948MOL0     O25005   7.023   0.325   7.253 -0.2878  0.4013 -0.8901
  948MOL0     C25006   7.044   0.331   7.376  0.4007  0.1872 -0.0842
  948MOL0     O25007   6.948   0.327   7.476  0.1292 -0.4612  0.0409
  948MOL0     C25008   6.818   0.303   7.433  0.1673 -0.3983  0.4167
  948MOL0     C25009   6.784   0.179   7.378  0.3906  0.4821 -0.0050
  948MOL0     C25010   6.650   0.141   7.366 -0.3520 -0.1478  0.5274
  948MOL0     C25011   6.550   0.240   7.387 -0.1909 -1.1133 -0.0903
  948MOL0     O25012   6.422   0.214   7.386 -0.0122 -0.5609 -0.3379
  948MOL0     C25013   6.372   0.077   7.401  0.7398 -0.1511  0.4197
  948MOL0     C25014   6.221   0.066   7.385  0.1975  0.1228 -1.1949
  948MOL0     C25015   6.171  -0.079   7.341 -0.3624 -0.7707 -0.6309
  948MOL0     C25016   6.208  -0.184   7.445 -0.2965 -0.1333 -0.1401
  948MOL0     C25017   6.164  -0.332   7.425 -0.3923 -0.1589  1.0788
  948MOL0     C25018   6.019  -0.349   7.445 -0.6028  0.0101 -0.5933
  948MOL0     C25019   5.994  -0.503   7.455  0.0355 -0.2222 -1.1618
  948MOL0     C25020   5.848  -0.541   7.460  0.7893  0.2824  0.3417
  948MOL0     N25021   5.771  -0.496   7.575  0.1168 -1.0193 -0.2816
  948MOL0     C25022   5.685  -0.578   7.634  0.2729 -0.3810  0.2429
  948MOL0     C25023   5.619  -0.502   7.728 -0.0730  0.4071  0.1585
  948MOL0     C25024   5.507  -0.552   7.813 -0.1389 -0.7706 -0.1394
  948MOL0     C25025   5.477  -0.703   7.813 -1.2644  0.1673 -0.8788
  948MOL0     C25026   5.380  -0.741   7.933 -0.7965  0.5843 -0.8901
  948MOL0     C25027   5.237  -0.715   7.919  0.8199  0.0526 -1.1841
  948MOL0     O25028   5.183  -0.697   8.056  0.4283 -0.3747 -0.1939
  948MOL0     C25029   5.055  -0.658   8.042  1.2514  0.1387  0.2025
  948MOL0     C25030   5.001  -0.553   8.118  0.3530  0.0953  0.1832
  948MOL0     C25031   4.869  -0.508   8.118 -0.0757 -0.3290 -0.5587
  948MOL0     C25032   4.781  -0.541   8.013  0.0978  0.3799 -0.7617
  948MOL0     C25033   4.649  -0.481   7.981 -0.4848 -0.2414 -0.5560
  948MOL0     O25034   4.587  -0.538   7.882  0.4245  0.2208  0.4330
  948MOL0     C25035   4.465  -0.491   7.844  0.0046  0.0401  1.3954
  948MOL0     C25036   4.401  -0.364   7.860 -0.4799  0.8034  0.0792
  948MOL0     C25037   4.274  -0.344   7.804  0.2557 -0.1149  1.0186
  948MOL0     C25038   4.215  -0.446   7.719  0.2700  0.0293 -0.6542
  948MOL0     O25039   4.092  -0.421   7.659  0.1778  0.1193  0.0689
  948MOL0     C25040   4.011  -0.528   7.604  0.2295 -0.0262 -0.6194
  948MOL0     C25041   3.869  -0.472   7.566  0.0716  0.8978 -0.1178
  948MOL0     C25042   3.795  -0.394   7.670  0.2601  0.1864 -0.3816
  948MOL0     C25043   3.647  -0.362   7.616 -0.5267  0.7099 -0.6551
  948MOL0     C25044   3.587  -0.238   7.692 -0.2465  0.1545  0.8633
  948MOL0     C25045   3.588  -0.264   7.840 -0.1676 -0.7004  0.3040
  948MOL0     C25046   3.461  -0.358   7.868  0.5750  0.0712  1.0934
  948MOL0     C25047   3.417  -0.338   8.014 -0.5460  0.0527 -0.7325
  948MOL0    Cl25048   3.327  -0.187   8.058 -0.2431  0.1509 -0.1040
  948MOL0     C25049   4.282  -0.571   7.697 -0.5638 -0.1457  0.4634
  948MOL0     C25050   4.403  -0.588   7.761  0.5735  0.0359 -0.5906
  948MOL0     O25051   4.611  -0.385   8.045 -0.3989 -0.2209 -0.0551
  948MOL0     C25052   4.824  -0.662   7.941 -0.2922  0.7116 -0.2397
  948MOL0     C25053   4.960  -0.707   7.947 -0.4641 -0.8304 -0.2865
  948MOL0     N25054   5.682  -0.378   7.734  1.5051 -0.4208  0.3378
  948MOL0     N25055   5.775  -0.376   7.649 -0.4951  0.8876  0.2805
  948MOL0     C25056   6.587   0.372   7.426 -0.2072 -0.2814  0.5621
  948MOL0     C25057   6.726   0.407   7.447 -0.4292  0.5553 -0.1018
  948MOL0     C25058   7.184   0.330   7.417 -0.1374 -0.3331 -0.6060
  948MOL0     C25059   7.218   0.309   7.557 -0.2301  0.8147 -0.6019
  948MOL0     C25060   7.353   0.319   7.597  0.2110 -0.0025 -0.2562
  948MOL0     C25061   7.452   0.315   7.506  0.4322  0.4114  0.4356
  948MOL0     O25062   7.586   0.315   7.538  0.5279 -0.0599 -0.3991
  948MOL0     C25063   7.633   0.284   7.667  0.5292 -0.1552  0.0740
  948MOL0     C25064   7.679   0.416   7.738  0.6646 -1.0877 -0.2583
  948MOL0     C25065   7.579   0.537   7.740 -0.1437 -0.2653 -0.6552
  948MOL0     C25066   7.644   0.665   7.801  0.1474 -0.2995  0.5292
  948MOL0     C25067   7.709   0.635   7.928 -0.2955  0.5536  0.1898
  948MOL0     C25068   7.760   0.604   8.030 -0.3617 -0.0190 -0.5302
  948MOL0     C25069   7.419   0.310   7.371  0.6106 -0.9226 -1.0834
  948MOL0     C25070   7.291   0.328   7.324  0.6312 -0.8658 -1.1085
  948MOL0     H25071   6.861   0.104   7.366 -0.2602 -0.1983  0.0194
  948MOL0     H25072   6.622   0.051   7.313 -0.0282  0.2157 -0.2694
  948MOL0     H25073   6.400   0.050   7.503  3.4271 -1.0815 -0.4517
  948MOL0     H25074   6.413   0.010   7.324  1.8117 -2.4525  2.8342
  948MOL0     H25075   6.193   0.135   7.305 -0.9863 -0.4394 -1.2910
  948MOL0     H25076   6.179   0.095   7.482 -0.7332  2.0614 -2.1168
  948MOL0     H25077   6.225  -0.107   7.250  2.8956 -1.8647  1.5022
  948MOL0     H25078   6.063  -0.076   7.323 -0.7060 -0.8983  1.2627
  948MOL0     H25079   6.317  -0.192   7.441 -0.3914 -1.5213 -0.5865
  948MOL0     H25080   6.197  -0.147   7.548  5.9130 -0.9758  1.2406
  948MOL0     H25081   6.221  -0.393   7.496  2.5694  0.6112 -0.4786
  948MOL0     H25082   6.181  -0.356   7.320  1.3514  1.2523  0.9947
  948MOL0     H25083   5.959  -0.295   7.371  0.9417  0.1919 -1.7569
  948MOL0     H25084   6.002  -0.303   7.543  1.0968 -0.9563  0.1985
  948MOL0     H25085   6.049  -0.554   7.376  1.6804 -0.7454  0.2776
  948MOL0     H25086   6.038  -0.524   7.552 -2.2733  1.1507  0.2862
  948MOL0     H25087   5.851  -0.650   7.449 -3.1735  0.1767 -0.9024
  948MOL0     H25088   5.798  -0.510   7.368  1.0904 -1.1136 -0.3268
  948MOL0     H25089   5.666  -0.675   7.590  1.2027 -1.1287  1.4368
  948MOL0     H25090   5.422  -0.496   7.771 -1.1934 -0.2468  2.4881
  948MOL0     H25091   5.516  -0.506   7.912  0.2154 -0.3781 -0.3468
  948MOL0     H25092   5.572  -0.758   7.823 -1.7540 -0.7076 -0.9490
  948MOL0     H25093   5.428  -0.726   7.719 -3.9331  2.6924 -0.2618
  948MOL0     H25094   5.401  -0.847   7.953  1.1907  1.0082 -0.5285
  948MOL0     H25095   5.410  -0.690   8.025 -2.2053  1.5019 -0.9095
  948MOL0     H25096   5.189  -0.792   7.858 -1.3453  1.8259 -1.8394
  948MOL0     H25097   5.228  -0.618   7.869 -0.6121  0.9041  0.5786
  948MOL0     H25098   5.066  -0.511   8.194 -1.6705  2.9378  0.5174
  948MOL0     H25099   4.821  -0.433   8.180  0.1517 -0.9915  0.4502
  948MOL0     H25100   4.444  -0.276   7.907 -4.0255  1.2222  2.9642
  948MOL0     H25101   4.242  -0.241   7.814  2.5904  0.6795  0.9148
  948MOL0     H25102   3.994  -0.607   7.679 -0.0423 -0.7242 -1.3986
  948MOL0     H25103   4.044  -0.576   7.512  1.0691  0.5307 -0.6145
  948MOL0     H25104   3.807  -0.554   7.526 -2.1308  2.1148  0.6246
  948MOL0     H25105   3.890  -0.410   7.479  0.9765 -1.1744 -1.4474
  948MOL0     H25106   3.842  -0.302   7.706  0.8322 -0.4424  0.5329
  948MOL0     H25107   3.790  -0.453   7.762 -1.3820  2.1088  0.8715
  948MOL0     H25108   3.656  -0.334   7.511 -3.6145  0.4945 -1.0878
  948MOL0     H25109   3.584  -0.451   7.631 -0.7381  1.3271  3.2454
  948MOL0     H25110   3.487  -0.213   7.655  0.1136  0.1906 -0.1188
  948MOL0     H25111   3.649  -0.149   7.681 -2.1824  1.6459  1.3444
  948MOL0     H25112   3.566  -0.168   7.886 -1.6328 -1.2434  0.8023
  948MOL0     H25113   3.683  -0.311   7.868  0.9215  0.5556 -1.1206
  948MOL0     H25114   3.379  -0.326   7.803 -0.2089 -2.2872  0.8195
  948MOL0     H25115   3.477  -0.464   7.848 -0.5507  0.3039 -1.3839
  948MOL0     H25116   3.506  -0.326   8.076 -0.0327 -0.0261 -1.4517
  948MOL0     H25117   3.357  -0.427   8.035 -0.8389  0.2187 -0.8555
  948MOL0     H25118   4.250  -0.651   7.631 -1.7688 -2.1109  3.2042
  948MOL0     H25119   4.462  -0.678   7.742  2.9916  1.8355 -2.1847
  948MOL0     H25120   4.763  -0.715   7.869 -3.0118  0.8846  1.7566
  948MOL0     H25121   4.995  -0.790   7.888 -1.0012 -1.7592  0.6688
  948MOL0     H25122   6.509   0.442   7.453 -2.9453 -2.5750 -0.8399
  948MOL0     H25123   6.754   0.495   7.503 -1.6899  1.6627 -1.1571
  948MOL0     H25124   7.148   0.288   7.638  0.3425  0.4355 -0.1951
  948MOL0     H25125   7.379   0.315   7.702 -0.2038 -1.2571 -0.1788
  948MOL0     H25126   7.717   0.215   7.666  1.4566  0.8847  1.5854
  948MOL0     H25127   7.557   0.236   7.728 -1.5042  2.1732 -0.4712
  948MOL0     H25128   7.724   0.386   7.833  0.2224 -2.0621 -0.3425
  948MOL0     H25129   7.763   0.453   7.679  0.9112 -2.8054 -1.0414
  948MOL0     H25130   7.488   0.512   7.796  1.0089 -1.4682  0.7514
  948MOL0     H25131   7.563   0.563   7.635 -0.6893 -1.2070 -0.8098
  948MOL0     H25132   7.726   0.690   7.734  2.5317 -2.6312  2.3768
  948MOL0     H25133   7.582   0.755   7.808 -0.3625 -0.5245 -0.8170
  948MOL0     H25134   7.792   0.580   8.129 -0.4366  1.2458 -0.1887
  948MOL0     H25135   7.502   0.293   7.304  0.8916  1.5284 -1.4572
  948MOL0     H25136   7.273   0.330   7.217  3.6116  1.6131 -1.7265
  949MOL0     O25137   9.186   8.796   5.659  0.3319  0.6403 -0.1098
  949MOL0     C25138   9.231   8.879   5.579 -0.1371  0.2766 -0.4555
  949MOL0     O25139   9.159   8.939   5.472 -0.2407 -0.1900 -0.5097
  949MOL0     C25140   9.029   8.900   5.469 -0.9312  0.8992  0.0613
  949MOL0     C25141   8.926   8.981   5.482  0.4943 -0.3999 -0.7265
  949MOL0     C25142   8.798   8.927   5.479 -0.3005  0.1884 -0.2268
  949MOL0     C25143   8.767   8.790   5.455  0.7519  0.1469 -0.2143
  949MOL0     O25144   8.633   8.757   5.454  0.0891  0.2019  0.0713
  949MOL0     C25145   8.585   8.623   5.455 -1.1579 -0.0011  0.1162
  949MOL0     C25146   8.558   8.584   5.598  0.3340  0.3521  0.4202
  949MOL0     C25147   8.419   8.519   5.616 -1.0461 -0.0723  0.3014
  949MOL0     C25148   8.300   8.621   5.607 -0.7459  0.5445  0.1741
  949MOL0     C25149   8.170   8.535   5.603 -0.3553  0.4820  0.3770
  949MOL0     C25150   8.128   8.477   5.743  0.1629 -0.2458  0.0188
  949MOL0     C25151   7.978   8.464   5.743  0.8580 -1.1116  0.0409
  949MOL0     C25152   7.920   8.396   5.872 -0.1350 -0.0451 -0.1845
  949MOL0     N25153   7.792   8.328   5.858  0.7500  0.0528  0.3480
  949MOL0     C25154   7.759   8.200   5.897 -0.0286  0.4208  0.1319
  949MOL0     C25155   7.628   8.192   5.860 -0.1642  0.6948 -0.1139
  949MOL0     C25156   7.552   8.073   5.880  0.0266 -1.4645  0.4715
  949MOL0     C25157   7.418   8.114   5.941 -0.3010 -0.5773 -0.7545
  949MOL0     C25158   7.353   7.990   5.992 -0.7032  0.2220 -0.0817
  949MOL0     C25159   7.304   7.892   5.884  0.0870 -0.6099 -0.0304
  949MOL0     O25160   7.167   7.853   5.915  0.3351 -0.3142 -0.3791
  949MOL0     C25161   7.096   7.792   5.820  0.3570  1.0317 -0.1597
  949MOL0     C25162   7.020   7.882   5.747  0.0622 -0.1454  0.1486
  949MOL0     C25163   6.958   7.838   5.631 -0.4001  0.3590  0.8203
  949MOL0     C25164   6.957   7.700   5.597  0.2532  0.3141 -0.0413
  949MOL0     C25165   6.875   7.658   5.478  0.0561 -0.7425  0.3742
  949MOL0     O25166   6.819   7.751   5.395  0.0565  0.6169 -0.2137
  949MOL0     C25167   6.715   7.710   5.317  0.4757 -0.2308  0.3926
  949MOL0     C25168   6.593   7.668   5.372 -0.0326 -0.4985 -0.4384
  949MOL0     C25169   6.487   7.625   5.304 -0.1312  1.0450  0.5031
  949MOL0     C25170   6.499   7.635   5.161 -0.1584 -0.0144 -0.9268
  949MOL0     O25171   6.397   7.602   5.076  0.5011 -0.1984  0.8332
  949MOL0     C25172   6.279   7.537   5.133  0.5829 -0.1515  0.3850
  949MOL0     C25173   6.186   7.499   5.013 -0.4664  0.4414  0.2280
  949MOL0     C25174   6.045   7.442   5.056  0.3152  1.0928 -0.3174
  949MOL0     C25175   5.958   7.443   4.940  0.1089 -0.2007 -0.1315
  949MOL0     C25176   5.814   7.387   4.970  0.0751  0.0706 -0.0032
  949MOL0     C25177   5.762   7.339   4.834  0.3721  0.1399  0.0537
  949MOL0     C25178   5.622   7.287   4.840 -0.7021 -0.7239 -0.8120
  949MOL0     C25179   5.563   7.249   4.698 -1.0797 -0.6480  0.3848
  949MOL0    Cl25180   5.439   7.121   4.732 -0.2248 -0.1048  0.5507
  949MOL0     C25181   6.612   7.678   5.103 -0.4686 -0.2781  0.6990
  949MOL0     C25182   6.719   7.715   5.178 -0.8665  0.6491  0.3366
  949MOL0     O25183   6.858   7.537   5.467  0.9317  0.1191  0.1878
  949MOL0     C25184   7.027   7.605   5.682  0.4900 -0.3346 -0.1846
  949MOL0     C25185   7.095   7.655   5.793 -0.0964  0.2134 -1.2121
  949MOL0     N25186   7.579   8.314   5.826  0.7867 -0.5363  0.3334
  949MOL0     N25187   7.675   8.397   5.819  0.1735  0.1770 -0.3433
  949MOL0     C25188   8.873   8.706   5.436  0.3393 -0.2970 -0.3332
  949MOL0     C25189   8.999   8.762   5.448  0.4799 -0.1341  0.0088
  949MOL0     C25190   9.361   8.941   5.616 -0.1059 -0.6288 -0.2874
  949MOL0     C25191   9.416   9.052   5.536 -0.0447 -0.4038 -0.1587
  949MOL0     C25192   9.538   9.104   5.572  0.5579  0.4059  0.4897
  949MOL0     C25193   9.603   9.060   5.681 -0.4631  0.0386  0.5366
  949MOL0     O25194   9.731   9.115   5.723 -0.1867  1.2160 -0.5210
  949MOL0     C25195   9.773   9.228   5.653 -0.5605 -0.7739  0.8582
  949MOL0     C25196   9.916   9.278   5.699  0.6497  0.4407  0.0060
  949MOL0     C25197   9.984   9.401   5.632 -0.1639 -0.6366 -0.3261
  949MOL0     C25198  10.118   9.449   5.696 -0.6138 -0.8186  0.1082
  949MOL0     C25199  10.230   9.357   5.683 -0.0710  0.1450 -0.2776
  949MOL0     C25200  10.309   9.271   5.663 -0.2399  0.2343 -1.1485
  949MOL0     C25201   9.552   8.950   5.750 -0.2932  0.3563  0.1227
  949MOL0     C25202   9.435   8.885   5.717  0.3405 -0.5374 -0.7877
  949MOL0     H25203   8.942   9.088   5.491 -1.5633 -0.2006  1.9895
  949MOL0     H25204   8.710   8.986   5.502  0.2482  0.1200  2.2611
  949MOL0     H25205   8.649   8.542   5.417 -0.5952  0.6760 -0.3989
  949MOL0     H25206   8.491   8.633   5.400 -0.1974 -0.6427 -1.7624
  949MOL0     H25207   8.572   8.673   5.660 -0.6698 -0.3410  1.6877
  949MOL0     H25208   8.632   8.514   5.638 -0.0313  0.8860  2.1242
  949MOL0     H25209   8.406   8.472   5.714 -1.2827 -2.5180 -0.8166
  949MOL0     H25210   8.409   8.437   5.544  3.8612 -0.9836  0.3136
  949MOL0     H25211   8.291   8.682   5.697  0.5509  0.3618  0.4491
  949MOL0     H25212   8.314   8.676   5.513 -0.2142  1.1237  0.5842
  949MOL0     H25213   8.182   8.451   5.534  0.2953 -1.5281  2.7883
  949MOL0     H25214   8.092   8.599   5.559 -0.5519 -0.2672 -0.4010
  949MOL0     H25215   8.151   8.549   5.823 -0.1312  1.4563 -1.3764
  949MOL0     H25216   8.175   8.382   5.771  1.7147  0.9933  1.9152
  949MOL0     H25217   7.958   8.571   5.734  3.0237 -0.7480 -0.9071
  949MOL0     H25218   7.930   8.416   5.657 -1.2391 -0.6830  0.8978
  949MOL0     H25219   7.903   8.463   5.957  1.3861  0.6932 -0.4263
  949MOL0     H25220   7.996   8.320   5.895  1.8383  1.5717 -1.0544
  949MOL0     H25221   7.824   8.129   5.948 -1.2945 -1.1368 -0.3358
  949MOL0     H25222   7.606   7.996   5.936  1.7360 -1.0964 -0.5820
  949MOL0     H25223   7.534   8.029   5.781 -0.2683  2.1158 -1.2368
  949MOL0     H25224   7.354   8.153   5.862 -2.6920  0.3801  1.5302
  949MOL0     H25225   7.424   8.193   6.016 -0.6267  1.5669 -2.8701
  949MOL0     H25226   7.411   7.939   6.070 -0.8102  0.8540  0.4188
  949MOL0     H25227   7.265   8.017   6.051 -2.8090 -3.3664 -1.2554
  949MOL0     H25228   7.374   7.808   5.884 -0.8538 -1.4364  1.3765
  949MOL0     H25229   7.300   7.935   5.784 -0.7602 -0.6395 -0.0233
  949MOL0     H25230   7.017   7.989   5.761  0.1050 -0.0135 -0.7780
  949MOL0     H25231   6.904   7.915   5.577  0.5930 -0.7765 -1.9726
  949MOL0     H25232   6.598   7.681   5.480  0.4033  5.9332 -0.8076
  949MOL0     H25233   6.401   7.591   5.362  2.9137 -1.3409  4.1600
  949MOL0     H25234   6.214   7.595   5.200 -0.2922 -1.3045  0.5718
  949MOL0     H25235   6.312   7.439   5.170 -1.8536 -0.4493  2.0362
  949MOL0     H25236   6.241   7.426   4.954 -2.5227 -0.6728 -0.3986
  949MOL0     H25237   6.177   7.591   4.953  3.0281  2.5403  2.5386
  949MOL0     H25238   6.002   7.498   5.139 -1.0976  0.1525 -0.3741
  949MOL0     H25239   6.063   7.343   5.100  0.3349  1.9516  1.7241
  949MOL0     H25240   5.958   7.543   4.896  1.6588 -0.6329 -1.2112
  949MOL0     H25241   6.004   7.377   4.866  0.5838  0.2725 -0.2641
  949MOL0     H25242   5.751   7.468   5.009 -0.9006 -0.9624  0.5997
  949MOL0     H25243   5.819   7.309   5.047 -0.4401  0.6412  0.6262
  949MOL0     H25244   5.829   7.258   4.804  3.3333  1.6950  2.0257
  949MOL0     H25245   5.775   7.429   4.772  1.3727  1.0768  1.5607
  949MOL0     H25246   5.617   7.198   4.904 -1.0470 -2.3914 -2.9996
  949MOL0     H25247   5.556   7.364   4.881  3.1630  0.9450  2.9128
  949MOL0     H25248   5.650   7.217   4.640  0.0937  3.6566 -0.5753
  949MOL0     H25249   5.519   7.332   4.642 -0.0585  0.8578  1.7114
  949MOL0     H25250   6.601   7.701   4.998  2.9237  1.3230  0.5573
  949MOL0     H25251   6.805   7.746   5.119 -0.7682 -0.1622  0.0390
  949MOL0     H25252   7.010   7.500   5.657  0.2889 -0.7343  1.5426
  949MOL0     H25253   7.169   7.597   5.847 -1.1673 -0.6987 -0.6860
  949MOL0     H25254   8.858   8.599   5.422  0.2407 -0.2913 -0.2631
  949MOL0     H25255   9.087   8.700   5.440  0.4236 -0.0821 -1.0542
  949MOL0     H25256   9.360   9.080   5.447 -0.4400 -1.3578 -0.2207
  949MOL0     H25257   9.582   9.173   5.501  0.2861 -1.9464 -2.1342
  949MOL0     H25258   9.707   9.314   5.658  1.3319  0.8703 -0.7135
  949MOL0     H25259   9.791   9.195   5.550 -2.3884 -3.0286  1.1728
  949MOL0     H25260   9.896   9.312   5.801  0.1921 -1.0078  0.4292
  949MOL0     H25261   9.988   9.197   5.715  2.3292  1.9306  0.2973
  949MOL0     H25262   9.910   9.479   5.652 -1.1504 -2.1390  2.5753
  949MOL0     H25263   9.996   9.376   5.527 -2.2017 -2.4892 -0.1851
  949MOL0     H25264  10.147   9.542   5.646  0.4615 -1.9597 -1.5085
  949MOL0     H25265  10.103   9.462   5.804  1.9028 -1.4781  0.6032
  949MOL0     H25266  10.380   9.191   5.660 -0.4734 -0.0491  0.0930
  949MOL0     H25267   9.609   8.908   5.831 -2.5814 -0.3797  1.4482
  949MOL0     H25268   9.394   8.818   5.792 -0.0479 -0.1490 -0.6535
  950MOL0     O25269   0.261   0.173   2.745 -0.3198 -0.4418  1.0534
  950MOL0     C25270   0.361   0.234   2.768  0.4056  0.2136 -0.6866
  950MOL0     O25271   0.373   0.366   2.796 -0.2142 -0.1515  0.2230
  950MOL0     C25272   0.249   0.424   2.831  0.8852 -0.3452 -0.3141
  950MOL0     C25273   0.239   0.488   2.961  0.3085  0.3975 -0.0343
  950MOL0     C25274   0.123   0.559   2.993  0.4767 -0.0366 -0.4825
  950MOL0     C25275   0.009   0.564   2.908 -0.5560 -0.3548  0.8035
  950MOL0     O25276  -0.110   0.619   2.943  0.5545 -0.0914 -0.4966
  950MOL0     C25277  -0.144   0.636   3.079 -0.0678  0.2852  0.7683
  950MOL0     C25278  -0.274   0.717   3.074  0.2938  0.5879 -0.7514
  950MOL0     C25279  -0.344   0.701   3.211 -1.0065 -0.2177  0.1185
  950MOL0     C25280  -0.492   0.748   3.197  0.1944 -0.3584  0.7187
  950MOL0     C25281  -0.571   0.696   3.310  0.3422  1.0554 -0.2269
  950MOL0     C25282  -0.718   0.728   3.311  0.1783 -0.0049  0.6785
  950MOL0     C25283  -0.776   0.720   3.453  1.2164 -0.1842  0.2758
  950MOL0     C25284  -0.925   0.774   3.441 -0.4199 -0.4412 -0.0646
  950MOL0     N25285  -1.003   0.744   3.560 -0.2994  0.0220 -0.8005
  950MOL0     C25286  -1.050   0.847   3.647 -0.4271  1.1080  0.5410
  950MOL0     C25287  -1.113   0.769   3.742 -0.0376 -0.8865  0.0980
  950MOL0     C25288  -1.189   0.818   3.859  0.5380  0.0632  0.4966
  950MOL0     C25289  -1.334   0.765   3.855 -0.6329  0.0061 -0.6588
  950MOL0     C25290  -1.393   0.780   3.997  0.1500 -0.2155  0.7375
  950MOL0     C25291  -1.546   0.765   3.998  0.0672 -0.4912 -0.3780
  950MOL0     O25292  -1.572   0.639   3.955 -0.1140 -0.1632 -0.0550
  950MOL0     C25293  -1.701   0.597   3.917  0.0385  0.2148 -0.1919
  950MOL0     C25294  -1.809   0.633   4.004 -0.2113  0.7299 -0.4042
  950MOL0     C25295  -1.929   0.572   3.975 -0.0485  0.4434  0.2787
  950MOL0     C25296  -1.956   0.506   3.858 -0.0269 -0.3805  0.5781
  950MOL0     C25297  -2.093   0.459   3.818  0.4595  0.5800  0.1468
  950MOL0     O25298  -2.196   0.486   3.904 -0.2851  0.2715 -0.9811
  950MOL0     C25299  -2.329   0.451   3.887 -0.3285 -0.0607 -1.0094
  950MOL0     C25300  -2.372   0.332   3.819 -0.3498  0.4444 -0.0423
  950MOL0     C25301  -2.508   0.294   3.827  0.8548  0.2185  0.1828
  950MOL0     C25302  -2.601   0.376   3.894 -0.3253 -0.0951 -0.2955
  950MOL0     O25303  -2.734   0.342   3.931 -1.0530 -0.1117 -0.0398
  950MOL0     C25304  -2.802   0.238   3.866 -0.4177  0.5666 -0.3650
  950MOL0     C25305  -2.820   0.251   3.706  0.1822 -0.3976 -0.3470
  950MOL0     C25306  -2.836   0.398   3.661 -0.1722  0.1327 -0.0542
  950MOL0     C25307  -2.851   0.415   3.511 -0.0591 -0.7750 -0.1273
  950MOL0     C25308  -2.986   0.339   3.469  0.5515  0.1098 -0.2564
  950MOL0     C25309  -3.014   0.365   3.321 -0.6871  0.3403  0.4177
  950MOL0     C25310  -3.148   0.311   3.280  0.3521  0.6392 -0.6140
  950MOL0     C25311  -3.178   0.312   3.131  0.3198  0.2486 -0.3664
  950MOL0    Cl25312  -3.186   0.476   3.069  0.2954  0.1404  0.1042
  950MOL0     C25313  -2.562   0.494   3.966  0.0228  0.1636 -1.3509
  950MOL0     C25314  -2.432   0.529   3.956 -0.8727  0.1512 -0.2318
  950MOL0     O25315  -2.108   0.407   3.707 -0.2617  0.7917  0.7814
  950MOL0     C25316  -1.853   0.471   3.774 -0.0797 -0.3160 -0.3973
  950MOL0     C25317  -1.727   0.517   3.804 -1.0631  0.1479 -0.0197
  950MOL0     N25318  -1.088   0.636   3.720  0.0818  0.3936  0.1173
  950MOL0     N25319  -1.030   0.621   3.612 -0.7371  0.4735 -0.3704
  950MOL0     C25320   0.022   0.496   2.780  0.3678 -0.3282  0.1816
  950MOL0     C25321   0.132   0.428   2.744 -0.0310 -0.3314 -0.4029
  950MOL0     C25322   0.487   0.154   2.776 -0.6475  0.1971 -0.5573
  950MOL0     C25323   0.485   0.014   2.748  0.0256  0.0665  0.9672
  950MOL0     C25324   0.598  -0.068   2.773 -0.2299  0.2976  0.0990
  950MOL0     C25325   0.730  -0.010   2.798 -0.1119 -0.2874  0.3463
  950MOL0     O25326   0.839  -0.092   2.800 -0.8528 -0.5593  0.2929
  950MOL0     C25327   0.972  -0.038   2.807  0.4280  0.2449  0.1278
  950MOL0     C25328   1.014  -0.010   2.949  0.4509  0.4822 -0.6096
  950MOL0     C25329   1.157   0.050   2.947 -0.3674  0.0506  1.1010
  950MOL0     C25330   1.201   0.067   3.096 -0.1359  0.1044 -0.1054
  950MOL0     C25331   1.344   0.082   3.098  0.3945 -0.1915 -0.0906
  950MOL0     C25332   1.467   0.097   3.105 -0.0872  0.3627 -0.1611
  950MOL0     C25333   0.729   0.128   2.811  0.0539  0.8027  0.6562
  950MOL0     C25334   0.616   0.208   2.811  0.8872  0.7553 -0.7674
  950MOL0     H25335   0.320   0.474   3.031 -1.6448 -0.2467  2.2106
  950MOL0     H25336   0.124   0.621   3.082 -0.3229  0.6757 -0.9550
  950MOL0     H25337  -0.074   0.704   3.127 -0.0104  1.0141 -0.3198
  950MOL0     H25338  -0.160   0.544   3.136 -0.3123 -2.2149 -2.9794
  950MOL0     H25339  -0.343   0.689   2.994 -2.3844  3.2482  0.4270
  950MOL0     H25340  -0.248   0.821   3.053  2.0332  0.4485  0.4843
  950MOL0     H25341  -0.296   0.749   3.296  1.0175 -0.3763 -0.8712
  950MOL0     H25342  -0.344   0.595   3.236 -0.6473  0.1179  1.6250
  950MOL0     H25343  -0.500   0.857   3.193 -0.1751 -0.3855  0.7566
  950MOL0     H25344  -0.539   0.716   3.103 -3.5357  1.7180  1.6920
  950MOL0     H25345  -0.528   0.742   3.399 -0.9272  1.7276  0.0649
  950MOL0     H25346  -0.556   0.588   3.309  1.7501  1.2372 -0.2037
  950MOL0     H25347  -0.775   0.669   3.239 -1.4833  0.9792  1.1504
  950MOL0     H25348  -0.729   0.833   3.281  0.7036 -0.3463 -0.8271
  950MOL0     H25349  -0.773   0.618   3.491  2.3561  0.4039  1.9034
  950MOL0     H25350  -0.707   0.776   3.517  1.4568  0.5013 -0.5497
  950MOL0     H25351  -0.968   0.739   3.347  1.0013 -0.6972 -0.6488
  950MOL0     H25352  -0.921   0.883   3.437  0.4325 -0.5032 -1.3279
  950MOL0     H25353  -1.042   0.955   3.654  1.4748  0.9647  1.2443
  950MOL0     H25354  -1.190   0.927   3.865  0.9031  0.0083  2.1588
  950MOL0     H25355  -1.128   0.790   3.945  1.8087  1.6150  0.1506
  950MOL0     H25356  -1.341   0.664   3.815  0.5568 -1.0778  1.6269
  950MOL0     H25357  -1.388   0.821   3.778  0.6633  0.6963 -1.1131
  950MOL0     H25358  -1.349   0.712   4.070  2.0958  1.2320  1.0126
  950MOL0     H25359  -1.360   0.877   4.037  1.4261 -0.6733  0.8450
  950MOL0     H25360  -1.589   0.840   3.930 -1.4785 -2.2434 -1.4111
  950MOL0     H25361  -1.590   0.797   4.092  1.5772 -1.6820  0.7919
  950MOL0     H25362  -1.782   0.692   4.091  1.0498 -2.3066  1.4270
  950MOL0     H25363  -2.013   0.590   4.042 -0.3607  1.2039 -0.2978
  950MOL0     H25364  -2.295   0.264   3.785 -0.6608 -1.5759  2.9348
  950MOL0     H25365  -2.558   0.211   3.777  0.9404 -0.5129  1.2608
  950MOL0     H25366  -2.900   0.231   3.914 -0.1062 -3.6045  0.0157
  950MOL0     H25367  -2.756   0.144   3.896  1.0133  1.2566 -0.2845
  950MOL0     H25368  -2.908   0.200   3.665  1.1438 -0.8979 -1.8586
  950MOL0     H25369  -2.738   0.207   3.649 -2.2168 -1.9817 -2.8410
  950MOL0     H25370  -2.752   0.465   3.679  0.6518 -0.3133 -1.9678
  950MOL0     H25371  -2.925   0.431   3.716  0.3953 -0.6534  1.3898
  950MOL0     H25372  -2.848   0.522   3.487 -0.4550 -0.3802  1.4769
  950MOL0     H25373  -2.760   0.380   3.463 -1.8576 -1.3521 -3.3973
  950MOL0     H25374  -3.065   0.399   3.513  1.1861  2.5705 -2.2383
  950MOL0     H25375  -3.003   0.233   3.490 -0.3059  0.3588  0.3341
  950MOL0     H25376  -2.928   0.325   3.267  0.5958  0.2556  2.4112
  950MOL0     H25377  -3.011   0.471   3.292  1.5586  0.2534  0.1737
  950MOL0     H25378  -3.162   0.215   3.331 -0.8533  2.0762  1.9126
  950MOL0     H25379  -3.226   0.367   3.331 -0.4767 -0.8393 -0.2211
  950MOL0     H25380  -3.277   0.278   3.098 -1.1731  5.4624 -2.3033
  950MOL0     H25381  -3.106   0.245   3.083 -2.9012 -1.9512 -2.5776
  950MOL0     H25382  -2.636   0.555   4.017 -0.1450  0.1921 -1.6201
  950MOL0     H25383  -2.396   0.623   3.998 -0.7954 -0.3248  0.7942
  950MOL0     H25384  -1.877   0.423   3.680  0.7816  1.7087 -1.7190
  950MOL0     H25385  -1.646   0.500   3.733 -2.3546 -0.2645 -1.4359
  950MOL0     H25386  -0.058   0.507   2.708 -2.1355 -3.0855  2.3158
  950MOL0     H25387   0.131   0.368   2.653  1.2851  0.4691 -0.9888
  950MOL0     H25388   0.395  -0.038   2.717 -0.6240  0.5554  1.9534
  950MOL0     H25389   0.611  -0.176   2.768 -2.3791 -0.2453  3.2545
  950MOL0     H25390   0.981   0.059   2.758 -0.7773 -0.2475 -1.1204
  950MOL0     H25391   1.039  -0.116   2.770  0.2960  0.5149 -0.6971
  950MOL0     H25392   0.939   0.053   2.997  0.2758 -0.0844 -0.1145
  950MOL0     H25393   1.012  -0.100   3.012  0.8528  0.6584 -0.3400
  950MOL0     H25394   1.159   0.149   2.901 -3.9483  1.2180  3.0038
  950MOL0     H25395   1.209  -0.026   2.888 -3.4599 -0.0273 -1.8464
  950MOL0     H25396   1.154   0.147   3.153  0.5830 -2.5208  4.7303
  950MOL0     H25397   1.170  -0.017   3.159 -0.6406  0.1938 -0.2312
  950MOL0     H25398   1.571   0.103   3.127  0.5988 -0.2070 -2.8878
  950MOL0     H25399   0.821   0.183   2.828 -1.5149  2.7011  4.0736
  950MOL0     H25400   0.614   0.315   2.823  0.4608  0.4702  2.3889
  951MOL0     O25401   7.532   3.297   7.954  0.1176 -0.2740 -0.1831
  951MOL0     C25402   7.529   3.413   7.977 -0.3286 -0.8335 -0.0113
  951MOL0     O25403   7.436   3.501   7.931 -0.0730 -0.2061 -0.2418
  951MOL0     C25404   7.307   3.473   7.932  1.1609  0.4649  0.2104
  951MOL0     C25405   7.245   3.367   8.002 -0.0425  0.1838 -0.1810
  951MOL0     C25406   7.103   3.372   8.015 -0.3143  0.4971 -0.0569
  951MOL0     C25407   7.020   3.468   7.949 -0.2978 -0.5172  1.1784
  951MOL0     O25408   6.884   3.478   7.949  0.0847 -0.1781  0.4496
  951MOL0     C25409   6.808   3.409   8.051 -1.0166 -0.3046  0.0394
  951MOL0     C25410   6.663   3.432   8.022 -0.6908  0.0402 -0.2879
  951MOL0     C25411   6.627   3.353   7.893  0.2514 -0.7014  0.4557
  951MOL0     C25412   6.483   3.383   7.838 -0.4015 -0.2040  0.9214
  951MOL0     C25413   6.473   3.302   7.710 -0.0672  0.0453 -0.1024
  951MOL0     C25414   6.343   3.329   7.630  0.3369  0.1906 -0.0906
  951MOL0     C25415   6.343   3.265   7.485  0.3878  1.0647  0.6977
  951MOL0     C25416   6.243   3.324   7.383 -0.5707  0.1255 -0.2633
  951MOL0     N25417   6.112   3.336   7.438  0.4581 -0.3263 -0.3918
  951MOL0     C25418   6.032   3.228   7.478  0.4828 -0.2181  0.1740
  951MOL0     C25419   5.912   3.289   7.502  1.0858 -0.5770 -0.2836
  951MOL0     C25420   5.785   3.227   7.539  0.0178 -0.1965  0.3153
  951MOL0     C25421   5.775   3.240   7.695  0.3333  0.2667  0.7587
  951MOL0     C25422   5.657   3.159   7.751  0.1914 -0.4360 -0.6551
  951MOL0     C25423   5.524   3.227   7.723 -0.8079  1.6190  0.3280
  951MOL0     O25424   5.436   3.129   7.670 -0.1122  0.7721 -0.1832
  951MOL0     C25425   5.303   3.153   7.701 -0.5504  0.6479  0.0658
  951MOL0     C25426   5.227   3.039   7.732  0.1441  0.4258 -0.0487
  951MOL0     C25427   5.084   3.047   7.762  1.4258  0.7187 -0.2256
  951MOL0     C25428   5.028   3.173   7.747  0.3047  0.4081  0.1267
  951MOL0     C25429   4.878   3.180   7.751  1.0686  0.1379 -0.2560
  951MOL0     O25430   4.809   3.072   7.806  0.7682  0.4162  0.1968
  951MOL0     C25431   4.673   3.075   7.818  1.0848 -0.9339  0.0583
  951MOL0     C25432   4.576   3.156   7.752  0.5868 -0.2870  1.0881
  951MOL0     C25433   4.442   3.137   7.764 -0.1845  0.4593 -0.8055
  951MOL0     C25434   4.387   3.029   7.845 -0.8640 -0.1154  0.4085
  951MOL0     O25435   4.253   3.007   7.852 -0.1167 -0.9070 -0.0568
  951MOL0     C25436   4.182   2.970   7.733 -0.6145 -0.3013 -0.1077
  951MOL0     C25437   4.056   2.899   7.772 -0.6382 -0.3679  0.8822
  951MOL0     C25438   3.986   2.982   7.872 -0.1216 -0.5481 -0.4296
  951MOL0     C25439   3.851   2.932   7.909  0.1729  1.0075 -0.4724
  951MOL0     C25440   3.772   3.040   7.992 -0.7159 -0.0687 -0.1790
  951MOL0     C25441   3.652   2.981   8.066  0.9053  0.3480  0.3430
  951MOL0     C25442   3.558   2.924   7.962  0.4560 -0.2728 -0.3361
  951MOL0     C25443   3.426   2.881   8.020  0.1428 -1.1171 -0.7947
  951MOL0    Cl25444   3.428   2.819   8.189 -0.0268 -0.2464 -0.7472
  951MOL0     C25445   4.476   2.940   7.905  0.1322 -0.1488  0.4538
  951MOL0     C25446   4.616   2.967   7.888  0.4570 -0.0326  0.5247
  951MOL0     O25447   4.834   3.291   7.733  0.5586 -0.8677 -0.3957
  951MOL0     C25448   5.097   3.291   7.710 -0.2380  1.1416 -0.2278
  951MOL0     C25449   5.241   3.281   7.704 -0.0861 -0.6054 -0.2367
  951MOL0     N25450   5.915   3.430   7.495 -0.0517  0.2905  0.0806
  951MOL0     N25451   6.038   3.452   7.459 -0.6607 -0.6444 -0.2906
  951MOL0     C25452   7.084   3.568   7.871  0.5237  0.2770  0.5578
  951MOL0     C25453   7.224   3.567   7.862 -0.1291  0.8864 -0.0938
  951MOL0     C25454   7.632   3.474   8.070 -0.4996  0.6048  0.9059
  951MOL0     C25455   7.616   3.601   8.127 -0.0477 -1.0881 -0.3784
  951MOL0     C25456   7.705   3.664   8.208  0.3395 -0.4945  0.3356
  951MOL0     C25457   7.827   3.601   8.224 -1.0385 -0.2271  0.5575
  951MOL0     O25458   7.912   3.654   8.315 -0.0160 -0.5851 -0.0109
  951MOL0     C25459   7.950   3.794   8.297  0.3097  0.6777  0.0331
  951MOL0     C25460   7.993   3.839   8.149  0.7688 -0.0700 -0.0060
  951MOL0     C25461   8.067   3.978   8.156  0.5739 -0.8380 -0.4093
  951MOL0     C25462   8.115   4.044   8.020 -0.0837 -0.9995 -0.9007
  951MOL0     C25463   8.012   4.117   7.950  0.8981 -0.1679  0.1715
  951MOL0     C25464   7.941   4.190   7.889  1.0431  0.8115  0.3859
  951MOL0     C25465   7.848   3.471   8.181  0.5735 -0.0760  0.4773
  951MOL0     C25466   7.748   3.406   8.100  0.3770  0.2513  0.7763
  951MOL0     H25467   7.301   3.292   8.056 -0.5311 -1.7832 -2.2232
  951MOL0     H25468   7.058   3.297   8.080  0.2316  1.1849  1.1240
  951MOL0     H25469   6.854   3.466   8.133 -1.6246  1.2002 -0.6155
  951MOL0     H25470   6.828   3.303   8.064  2.9107  0.2347 -0.2237
  951MOL0     H25471   6.631   3.535   8.007 -0.3614  0.1470 -0.2582
  951MOL0     H25472   6.614   3.403   8.116  0.3441 -0.6720  0.0512
  951MOL0     H25473   6.633   3.244   7.907  0.2721 -0.5105  2.0865
  951MOL0     H25474   6.699   3.374   7.813  0.3206 -0.5779  0.5508
  951MOL0     H25475   6.398   3.374   7.906 -1.0671  1.2433  0.3393
  951MOL0     H25476   6.486   3.489   7.810 -0.0540 -0.1005  1.3538
  951MOL0     H25477   6.475   3.194   7.728  0.8088  0.2316  1.0205
  951MOL0     H25478   6.558   3.325   7.645  1.0645 -2.4367  0.4053
  951MOL0     H25479   6.322   3.437   7.629 -1.0982 -0.0188  1.7697
  951MOL0     H25480   6.267   3.284   7.694  1.9949 -1.2505  0.9724
  951MOL0     H25481   6.442   3.279   7.442  0.8531  0.3959  1.5231
  951MOL0     H25482   6.325   3.158   7.494 -0.7201  1.0174 -1.4901
  951MOL0     H25483   6.242   3.255   7.299  1.5590 -1.2198  0.7256
  951MOL0     H25484   6.283   3.418   7.344  0.7862 -0.7533 -1.0703
  951MOL0     H25485   6.046   3.120   7.480 -0.1045 -0.3246  2.8721
  951MOL0     H25486   5.799   3.121   7.520 -1.8846 -0.7390  1.6356
  951MOL0     H25487   5.697   3.274   7.493 -0.2175 -2.9710 -2.3676
  951MOL0     H25488   5.769   3.346   7.722 -0.3211  0.3616  0.2648
  951MOL0     H25489   5.868   3.204   7.740 -1.2620 -0.9884  3.2047
  951MOL0     H25490   5.663   3.060   7.704  2.3769 -0.2545 -0.8676
  951MOL0     H25491   5.666   3.153   7.860  2.2433  2.3921 -0.5381
  951MOL0     H25492   5.534   3.311   7.654 -3.0487 -0.4164 -2.6912
  951MOL0     H25493   5.479   3.265   7.816 -3.8294 -4.5959  1.9270
  951MOL0     H25494   5.280   2.945   7.746  0.5433  0.5713 -0.5602
  951MOL0     H25495   5.034   2.958   7.798  2.4064  0.5025  0.6407
  951MOL0     H25496   4.614   3.224   7.676  1.5928 -1.4544  0.5143
  951MOL0     H25497   4.386   3.201   7.695  0.6147  0.8963 -1.0561
  951MOL0     H25498   4.245   2.912   7.665 -0.4444  0.1869 -0.3751
  951MOL0     H25499   4.144   3.061   7.686 -3.7313 -1.1607  0.5639
  951MOL0     H25500   4.072   2.796   7.805  1.4106  0.3536  2.3725
  951MOL0     H25501   4.000   2.899   7.679  0.0057  2.0193  0.4304
  951MOL0     H25502   3.987   3.088   7.843  0.3833 -1.2178 -3.2149
  951MOL0     H25503   4.048   2.986   7.962 -3.1201  0.2882  1.7490
  951MOL0     H25504   3.783   2.911   7.825 -0.7456  4.5854 -0.7733
  951MOL0     H25505   3.872   2.840   7.965  0.5716  1.1581 -0.3724
  951MOL0     H25506   3.737   3.123   7.929  0.2256 -0.9686 -1.9610
  951MOL0     H25507   3.832   3.092   8.067 -1.5382  0.5839  0.0458
  951MOL0     H25508   3.609   3.056   8.133  0.3310  0.3320 -0.0066
  951MOL0     H25509   3.682   2.900   8.134 -1.3129  1.4261  2.8141
  951MOL0     H25510   3.535   3.000   7.886 -1.7053 -3.1402 -2.7872
  951MOL0     H25511   3.603   2.841   7.907  0.8045 -0.4465  0.2023
  951MOL0     H25512   3.370   2.805   7.965 -0.7075 -0.9579 -0.1771
  951MOL0     H25513   3.367   2.973   8.030  2.4230  0.3024  0.3241
  951MOL0     H25514   4.438   2.863   7.972 -0.6575  1.9126  2.5248
  951MOL0     H25515   4.691   2.900   7.928  1.3509  0.7754  0.2585
  951MOL0     H25516   5.041   3.384   7.706 -0.7336  1.0778  2.9739
  951MOL0     H25517   5.291   3.377   7.689 -0.4396 -0.0070  2.0440
  951MOL0     H25518   7.036   3.650   7.819  1.8150  1.6962  1.5204
  951MOL0     H25519   7.272   3.640   7.796  0.5260 -0.8462 -1.6378
  951MOL0     H25520   7.525   3.657   8.107  0.1047 -1.5686 -2.6937
  951MOL0     H25521   7.681   3.756   8.259  3.0552 -0.1293  1.0953
  951MOL0     H25522   8.035   3.812   8.364 -0.6851  0.4849  1.3906
  951MOL0     H25523   7.866   3.859   8.326 -1.2285 -1.3282  0.2838
  951MOL0     H25524   8.072   3.781   8.100  0.3706  0.5313 -1.4228
  951MOL0     H25525   7.907   3.831   8.082  2.2633 -0.8725 -1.9336
  951MOL0     H25526   8.154   3.972   8.223 -0.8058  0.4053  1.5839
  951MOL0     H25527   8.011   4.057   8.207  2.8122  0.6177 -0.0568
  951MOL0     H25528   8.201   4.109   8.041 -0.5573 -0.6204 -0.1113
  951MOL0     H25529   8.153   3.963   7.957  4.5863 -0.3655  0.6477
  951MOL0     H25530   7.863   4.244   7.838  0.3859  1.6418  2.1815
  951MOL0     H25531   7.944   3.427   8.207 -0.1989 -2.2411 -0.1088
  951MOL0     H25532   7.781   3.310   8.061  3.0155  0.5703  1.9626
  952MOL0     O25533   4.112   7.785   1.869 -0.1332  0.2445  0.2048
  952MOL0     C25534   4.138   7.853   1.973  0.2039  0.5504  0.0921
  952MOL0     O25535   4.078   7.834   2.092 -0.9466 -0.8628  0.1618
  952MOL0     C25536   3.981   7.735   2.091  0.4857 -0.7241 -0.3547
  952MOL0     C25537   4.012   7.601   2.054  0.0158  0.1111  1.1647
  952MOL0     C25538   3.906   7.504   2.053  0.1851 -0.0669  0.1867
  952MOL0     C25539   3.778   7.533   2.113 -1.4160  0.4565  0.8169
  952MOL0     O25540   3.684   7.439   2.109 -0.0631  0.1389  0.7143
  952MOL0     C25541   3.558   7.427   2.183  0.3962  1.3110  0.6523
  952MOL0     C25542   3.592   7.391   2.320 -0.2178 -0.0079  0.1685
  952MOL0     C25543   3.479   7.326   2.388 -0.3855  0.9940  0.7167
  952MOL0     C25544   3.509   7.192   2.456  0.5246 -0.0906  0.2035
  952MOL0     C25545   3.383   7.162   2.547  0.5027 -0.4770 -0.3364
  952MOL0     C25546   3.404   7.022   2.609  0.5606  0.2728  0.2344
  952MOL0     C25547   3.294   7.001   2.718  0.5432  0.5637  0.2385
  952MOL0     C25548   3.172   6.954   2.643 -0.5621  0.6045  0.2200
  952MOL0     N25549   3.058   6.950   2.732  0.0401  0.4658 -0.7216
  952MOL0     C25550   2.966   7.054   2.746  0.5856 -0.3540 -0.3954
  952MOL0     C25551   2.865   6.995   2.816 -0.0781  0.3102 -0.0245
  952MOL0     C25552   2.734   7.063   2.848 -0.6229 -0.1655 -0.0821
  952MOL0     C25553   2.740   7.124   2.979  0.1463  0.5516 -0.5071
  952MOL0     C25554   2.619   7.215   3.005  0.5122 -1.0481 -0.3291
  952MOL0     C25555   2.487   7.133   3.014  1.0967  0.1323 -0.0201
  952MOL0     O25556   2.393   7.222   3.074  0.4493  0.5156  0.2572
  952MOL0     C25557   2.279   7.167   3.123 -0.0670 -0.1242 -0.2107
  952MOL0     C25558   2.242   7.239   3.239  0.8748 -0.0514 -0.3296
  952MOL0     C25559   2.119   7.223   3.292  0.9200 -0.1116  0.3306
  952MOL0     C25560   2.026   7.142   3.221  0.5096  0.7914  0.1198
  952MOL0     C25561   1.885   7.120   3.280 -0.8318 -0.8094 -0.1132
  952MOL0     O25562   1.793   7.066   3.200 -0.1155  0.0069  0.2202
  952MOL0     C25563   1.662   7.040   3.236  0.4679  0.2179  0.3408
  952MOL0     C25564   1.585   6.983   3.131  0.6614  1.4830  0.3977
  952MOL0     C25565   1.448   6.939   3.141 -0.3117  0.4337 -0.3330
  952MOL0     C25566   1.379   6.977   3.261  0.5642  0.0029 -0.3387
  952MOL0     O25567   1.256   6.923   3.302 -0.3573 -0.1849 -0.6438
  952MOL0     C25568   1.168   6.872   3.203  0.0210  0.3187 -0.2088
  952MOL0     C25569   1.027   6.860   3.260 -0.0670 -0.0329 -0.0355
  952MOL0     C25570   0.972   6.980   3.334  0.0138  0.8987 -1.0518
  952MOL0     C25571   0.817   6.943   3.372 -0.5185  0.3091  0.6293
  952MOL0     C25572   0.792   6.828   3.477  0.0299 -0.3408  0.1308
  952MOL0     C25573   0.646   6.808   3.511 -0.7154 -0.6665  0.4507
  952MOL0     C25574   0.549   6.801   3.403  0.4810  0.2254  0.3122
  952MOL0     C25575   0.552   6.670   3.321 -0.1397  0.8095 -1.0160
  952MOL0    Cl25576   0.703   6.658   3.219 -0.0995  0.0234  0.7998
  952MOL0     C25577   1.454   7.042   3.361  1.2021 -1.1237  0.9063
  952MOL0     C25578   1.584   7.082   3.346 -0.1924  0.6021 -0.1973
  952MOL0     O25579   1.865   7.140   3.396 -0.4342  0.0430  0.2972
  952MOL0     C25580   2.063   7.077   3.099  0.2911 -0.3365 -0.4599
  952MOL0     C25581   2.190   7.082   3.058 -0.6728  0.4019  0.2113
  952MOL0     N25582   2.892   6.860   2.830 -0.4025 -1.2472  0.0872
  952MOL0     N25583   3.011   6.838   2.793  0.9150  0.1578  0.2860
  952MOL0     C25584   3.756   7.660   2.170 -0.8897  1.0044  0.0427
  952MOL0     C25585   3.859   7.748   2.160  0.0868 -0.7452 -0.0678
  952MOL0     C25586   4.268   7.929   1.967  0.3405  0.3221  0.0384
  952MOL0     C25587   4.314   7.992   1.852  0.1680  0.4769 -0.7104
  952MOL0     C25588   4.417   8.076   1.844 -0.2883  0.1840 -0.4732
  952MOL0     C25589   4.473   8.119   1.967  0.9702 -0.5127 -0.9798
  952MOL0     O25590   4.588   8.197   1.958  0.1152  0.4490 -0.1380
  952MOL0     C25591   4.589   8.330   2.009  0.6664 -0.1327 -0.1473
  952MOL0     C25592   4.660   8.427   1.913  0.5506  0.0494 -0.4745
  952MOL0     C25593   4.570   8.456   1.799 -0.9967  0.2159 -0.1900
  952MOL0     C25594   4.650   8.515   1.681  0.3353  0.4535  0.8671
  952MOL0     C25595   4.785   8.570   1.694 -0.1813 -0.5169 -0.0642
  952MOL0     C25596   4.898   8.624   1.705 -0.3374  0.5795 -0.4572
  952MOL0     C25597   4.441   8.056   2.084 -0.1029 -1.2428 -0.5958
  952MOL0     C25598   4.331   7.965   2.089 -0.0705 -0.2285 -0.5537
  952MOL0     H25599   4.102   7.556   2.013 -1.4391 -1.7166 -0.2180
  952MOL0     H25600   3.911   7.406   2.007 -1.4460  0.2755 -0.8169
  952MOL0     H25601   3.492   7.355   2.136  0.7334  0.9200  0.7707
  952MOL0     H25602   3.503   7.522   2.177 -1.6833  0.0697 -1.2249
  952MOL0     H25603   3.611   7.481   2.379 -0.9307 -0.3195  0.9003
  952MOL0     H25604   3.687   7.337   2.322 -0.3513 -0.2688  2.6321
  952MOL0     H25605   3.399   7.296   2.320 -0.9040  1.8999  0.9044
  952MOL0     H25606   3.453   7.392   2.472 -2.5358  0.6040  0.4013
  952MOL0     H25607   3.523   7.107   2.390  0.4644  0.9753 -1.2291
  952MOL0     H25608   3.600   7.196   2.517  2.0897  0.7755 -2.0375
  952MOL0     H25609   3.289   7.156   2.490 -0.7011  0.2677  1.4684
  952MOL0     H25610   3.379   7.246   2.617 -2.3657  0.0465 -1.0135
  952MOL0     H25611   3.506   7.009   2.647  0.7235 -1.2790 -0.6445
  952MOL0     H25612   3.387   6.955   2.524  1.4940  0.0834  0.1908
  952MOL0     H25613   3.323   6.925   2.791  0.3358 -0.6685 -0.9287
  952MOL0     H25614   3.280   7.086   2.786  2.0962  2.3528 -1.5500
  952MOL0     H25615   3.179   6.857   2.593 -3.2094  0.6568 -0.4003
  952MOL0     H25616   3.158   7.030   2.566 -0.7456  2.0016  1.5826
  952MOL0     H25617   2.978   7.159   2.720  0.3367 -0.8145 -2.5169
  952MOL0     H25618   2.647   6.999   2.838 -3.0833  2.5435  2.2330
  952MOL0     H25619   2.713   7.140   2.773 -2.8040 -1.0740 -0.4727
  952MOL0     H25620   2.828   7.187   2.994 -0.2599  0.7341  1.3474
  952MOL0     H25621   2.739   7.044   3.054  1.9669 -1.3084 -2.3423
  952MOL0     H25622   2.626   7.271   3.098 -0.0268 -1.3602 -0.0939
  952MOL0     H25623   2.603   7.284   2.922  0.8646  0.3758  0.7641
  952MOL0     H25624   2.498   7.042   3.074 -2.1533  0.2917  1.0429
  952MOL0     H25625   2.437   7.105   2.921 -3.4997  2.7294  1.3794
  952MOL0     H25626   2.325   7.297   3.278  0.1704  2.9697 -2.9601
  952MOL0     H25627   2.094   7.275   3.384 -0.4778 -2.6968  1.5520
  952MOL0     H25628   1.626   6.960   3.033  2.7285  1.5895  1.1987
  952MOL0     H25629   1.407   6.885   3.056  1.1636  0.3144 -1.0130
  952MOL0     H25630   1.204   6.775   3.169 -0.4517 -0.6315  1.8225
  952MOL0     H25631   1.161   6.940   3.118  0.6824 -1.4557 -1.7535
  952MOL0     H25632   1.022   6.772   3.326  0.0549  1.7135  2.4206
  952MOL0     H25633   0.963   6.830   3.177  1.2767 -1.8679 -0.4812
  952MOL0     H25634   0.970   7.061   3.261 -3.7136  0.7588 -1.2733
  952MOL0     H25635   1.018   7.013   3.427  0.4261 -2.5016  0.1149
  952MOL0     H25636   0.775   7.040   3.401  0.2932  1.4205 -1.6408
  952MOL0     H25637   0.761   6.914   3.283 -2.2377  1.0096  1.4421
  952MOL0     H25638   0.842   6.851   3.572 -0.9302 -0.0725  0.5772
  952MOL0     H25639   0.827   6.731   3.440 -0.5277  0.1426 -1.7347
  952MOL0     H25640   0.607   6.890   3.571 -0.2627  0.0163 -0.1738
  952MOL0     H25641   0.649   6.715   3.569  0.8093 -0.3943  0.8366
  952MOL0     H25642   0.450   6.800   3.448  0.6508  3.0684  0.9834
  952MOL0     H25643   0.556   6.889   3.338  0.9798 -0.3216 -0.3932
  952MOL0     H25644   0.460   6.673   3.261 -2.0546  3.0230  1.6955
  952MOL0     H25645   0.536   6.593   3.397  0.9281  4.2348  3.1032
  952MOL0     H25646   1.391   7.055   3.448 -3.8375 -2.1117 -2.1796
  952MOL0     H25647   1.627   7.121   3.438 -2.0635  0.2777  0.8767
  952MOL0     H25648   1.985   7.020   3.051 -0.8063  1.8771 -1.4662
  952MOL0     H25649   2.224   7.024   2.972  0.6959  1.8047 -0.2424
  952MOL0     H25650   3.660   7.698   2.203 -1.4025  0.7974 -1.1756
  952MOL0     H25651   3.836   7.838   2.217 -4.5005 -1.5757 -0.2253
  952MOL0     H25652   4.253   7.962   1.767 -1.1565 -0.7462  0.5966
  952MOL0     H25653   4.456   8.122   1.753  2.4156  0.7518  0.8540
  952MOL0     H25654   4.636   8.332   2.108  0.6304 -1.2187 -0.0913
  952MOL0     H25655   4.488   8.370   2.025  0.4845  0.8064 -3.0217
  952MOL0     H25656   4.696   8.513   1.971  1.0686 -2.3452  3.1080
  952MOL0     H25657   4.734   8.363   1.864 -2.9985 -2.7711 -2.6722
  952MOL0     H25658   4.493   8.530   1.824 -1.6963  0.3353 -2.4116
  952MOL0     H25659   4.520   8.363   1.769 -2.4062 -0.1498  2.8961
  952MOL0     H25660   4.659   8.440   1.602  1.2537 -1.5828  2.8158
  952MOL0     H25661   4.593   8.600   1.641  1.2003  0.8616  0.4804
  952MOL0     H25662   4.988   8.659   1.750 -0.1743 -0.5756  0.1656
  952MOL0     H25663   4.512   8.073   2.165  0.0590  0.9892 -1.1405
  952MOL0     H25664   4.297   7.915   2.179  1.5467 -2.7998 -1.2614
  953MOL0     O25665   3.069   6.091   5.903 -0.1445  0.0946  0.4809
  953MOL0     C25666   3.106   6.085   6.021 -0.9799  0.5071 -1.0946
  953MOL0     O25667   3.019   6.056   6.125 -0.7608  0.1070  0.1380
  953MOL0     C25668   2.880   6.054   6.104 -0.5658  0.2588 -0.2193
  953MOL0     C25669   2.803   5.937   6.119 -0.5076 -0.1100  0.9797
  953MOL0     C25670   2.670   5.945   6.105  0.8753  0.2384  0.5932
  953MOL0     C25671   2.609   6.053   6.040 -1.0552 -0.7005  0.6275
  953MOL0     O25672   2.475   6.036   6.025 -0.2403 -0.2787  0.6679
  953MOL0     C25673   2.395   6.154   6.046 -0.8311 -0.2779 -0.5096
  953MOL0     C25674   2.249   6.096   6.064  0.2693  0.0527  0.1465
  953MOL0     C25675   2.147   6.208   6.049 -0.1640  0.4105  0.4389
  953MOL0     C25676   2.004   6.146   6.047 -1.0014 -0.2847  0.0902
  953MOL0     C25677   1.943   6.174   6.187  0.1526 -0.7499 -0.0792
  953MOL0     C25678   1.815   6.093   6.215 -0.0911 -0.3795  0.8619
  953MOL0     C25679   1.835   5.959   6.289 -0.4426  0.2309 -0.1034
  953MOL0     C25680   1.700   5.890   6.316 -0.5546 -0.8237  0.2259
  953MOL0     N25681   1.577   5.971   6.340  0.0341  0.8471 -0.3791
  953MOL0     C25682   1.507   5.970   6.459  0.3500  0.2585  0.9891
  953MOL0     C25683   1.428   6.072   6.463  0.2335  0.0127 -0.5729
  953MOL0     C25684   1.355   6.110   6.587  0.0160 -0.7014  0.2074
  953MOL0     C25685   1.220   6.028   6.590 -0.2573  0.5612  0.1884
  953MOL0     C25686   1.120   6.095   6.487  0.1333  0.0698  0.2364
  953MOL0     C25687   0.978   6.086   6.526  0.5781 -0.2401  0.2754
  953MOL0     O25688   0.955   6.157   6.650 -1.0056 -0.2538  0.7334
  953MOL0     C25689   0.832   6.154   6.711  0.0536 -0.3810 -0.3419
  953MOL0     C25690   0.809   6.232   6.816  0.3049 -1.1389  0.8950
  953MOL0     C25691   0.686   6.247   6.880 -0.0765  0.7396  0.6081
  953MOL0     C25692   0.575   6.168   6.833 -0.3294  0.5794 -0.5245
  953MOL0     C25693   0.449   6.193   6.895  0.0122 -0.0582  0.9801
  953MOL0     O25694   0.422   6.304   6.956  0.7614 -0.2391  0.3713
  953MOL0     C25695   0.298   6.331   7.006 -0.1078 -1.0604 -0.6729
  953MOL0     C25696   0.306   6.401   7.124  0.3402 -0.5816  0.3299
  953MOL0     C25697   0.193   6.440   7.195  0.5220  0.0312 -0.3950
  953MOL0     C25698   0.067   6.403   7.136  0.2994 -0.4373  0.2647
  953MOL0     O25699  -0.045   6.429   7.212  0.2873 -0.3815  0.4022
  953MOL0     C25700  -0.065   6.331   7.315 -0.6079 -0.2806  0.3293
  953MOL0     C25701  -0.203   6.292   7.291  0.4729  0.6872 -0.9550
  953MOL0     C25702  -0.260   6.174   7.386  0.4577 -0.4490  0.7423
  953MOL0     C25703  -0.274   6.234   7.519 -0.7006 -0.5267  0.9371
  953MOL0     C25704  -0.360   6.143   7.607 -0.4153  0.6519 -0.1373
  953MOL0     C25705  -0.507   6.176   7.588 -0.6012 -0.1594 -0.1868
  953MOL0     C25706  -0.562   6.284   7.689 -0.2045 -0.1032  0.5660
  953MOL0     C25707  -0.670   6.361   7.610 -0.1289 -0.9418 -0.2325
  953MOL0    Cl25708  -0.727   6.507   7.709 -0.3519  0.4639 -0.1463
  953MOL0     C25709   0.056   6.345   7.009  0.2849  0.3835 -1.2948
  953MOL0     C25710   0.174   6.305   6.948 -0.2698 -0.4522 -0.1795
  953MOL0     O25711   0.364   6.106   6.881 -0.1841 -0.6253 -0.1510
  953MOL0     C25712   0.600   6.078   6.728  0.6763 -0.1444  0.2181
  953MOL0     C25713   0.725   6.073   6.667 -0.0632 -0.5061  0.1832
  953MOL0     N25714   1.433   6.134   6.340  0.0121 -0.4876 -0.1856
  953MOL0     N25715   1.523   6.074   6.270 -0.2440 -0.1348 -0.0741
  953MOL0     C25716   2.691   6.168   6.011 -0.5962 -0.0296  0.0673
  953MOL0     C25717   2.823   6.169   6.048  0.1552  0.4933 -0.3994
  953MOL0     C25718   3.258   6.095   6.055 -0.3553 -0.1030 -0.4784
  953MOL0     C25719   3.352   6.116   5.958 -0.2752  0.0828  0.3878
  953MOL0     C25720   3.488   6.122   5.992 -0.5265  0.2184  0.4510
  953MOL0     C25721   3.523   6.124   6.123 -0.6938  0.5242 -0.8287
  953MOL0     O25722   3.657   6.138   6.146 -0.1511  0.4102  0.3979
  953MOL0     C25723   3.698   6.120   6.286 -0.4650  0.6140  0.2929
  953MOL0     C25724   3.846   6.169   6.315 -0.2098 -0.2469  0.0331
  953MOL0     C25725   3.856   6.328   6.286  0.5678 -0.5207  0.3135
  953MOL0     C25726   3.998   6.380   6.256  0.1209  0.6514  0.3812
  953MOL0     C25727   4.072   6.364   6.387  0.3208 -0.0707  0.4002
  953MOL0     C25728   4.144   6.351   6.484  0.7504 -0.0288  0.2518
  953MOL0     C25729   3.428   6.103   6.230  0.7028 -0.0687 -0.3237
  953MOL0     C25730   3.290   6.093   6.194  0.0764  0.2288 -0.3490
  953MOL0     H25731   2.849   5.842   6.147  2.1229  0.4360 -1.0181
  953MOL0     H25732   2.604   5.865   6.136 -0.8464  0.8304 -1.2813
  953MOL0     H25733   2.390   6.217   5.957 -1.6554  0.7834  0.2630
  953MOL0     H25734   2.427   6.210   6.135  2.6004 -0.4686 -1.4779
  953MOL0     H25735   2.236   6.051   6.163  1.0962 -0.2689  0.1165
  953MOL0     H25736   2.225   6.024   5.985 -0.5293  0.6173 -0.1368
  953MOL0     H25737   2.147   6.260   5.953 -0.6569 -1.1952 -0.4674
  953MOL0     H25738   2.153   6.281   6.131 -1.2983  0.7260  0.2585
  953MOL0     H25739   1.945   6.199   5.971 -1.0256 -2.7865 -1.7538
  953MOL0     H25740   2.003   6.040   6.021 -0.6125 -0.6426  1.4701
  953MOL0     H25741   1.926   6.281   6.199 -0.6226 -0.8408 -0.2697
  953MOL0     H25742   2.011   6.142   6.267 -1.4593 -0.3943  1.5124
  953MOL0     H25743   1.765   6.080   6.118 -0.2455 -0.8600  0.9989
  953MOL0     H25744   1.750   6.162   6.269  3.3984  1.4848  2.9937
  953MOL0     H25745   1.894   5.899   6.219 -0.2620 -2.1860  1.9875
  953MOL0     H25746   1.889   5.972   6.383  0.1864 -1.8633 -0.1232
  953MOL0     H25747   1.720   5.822   6.399 -1.6857  0.2316  1.4067
  953MOL0     H25748   1.691   5.830   6.226 -3.2788  0.9572 -0.8072
  953MOL0     H25749   1.523   5.891   6.532  1.6861 -1.5984 -1.2160
  953MOL0     H25750   1.326   6.216   6.582  1.7923 -0.0865  1.7885
  953MOL0     H25751   1.427   6.095   6.668 -0.5660 -2.0608  0.4901
  953MOL0     H25752   1.178   6.034   6.691 -2.9839  0.1356 -0.8241
  953MOL0     H25753   1.237   5.923   6.566  0.5254 -0.0796  3.0835
  953MOL0     H25754   1.140   6.202   6.475  1.2753 -0.0376  1.0703
  953MOL0     H25755   1.147   6.048   6.392  0.9075 -0.1167  0.5441
  953MOL0     H25756   0.953   5.980   6.536  0.9610 -0.3489  0.1019
  953MOL0     H25757   0.918   6.132   6.447 -1.4720  0.4837  2.1397
  953MOL0     H25758   0.888   6.302   6.841 -1.9156  1.6877  0.5997
  953MOL0     H25759   0.661   6.304   6.969  2.8869  0.0546  2.0104
  953MOL0     H25760   0.404   6.440   7.152 -0.5677  1.4045  1.0090
  953MOL0     H25761   0.194   6.496   7.288 -0.4445  0.1788 -0.4685
  953MOL0     H25762  -0.058   6.378   7.413 -2.9053 -1.3529  1.0714
  953MOL0     H25763   0.007   6.250   7.301  0.1892  0.3827  0.5050
  953MOL0     H25764  -0.212   6.257   7.188 -6.8656 -1.2629 -0.2542
  953MOL0     H25765  -0.258   6.385   7.307  1.8177  1.1087  1.7198
  953MOL0     H25766  -0.188   6.092   7.391  1.8121  0.6848  0.3476
  953MOL0     H25767  -0.363   6.145   7.363  0.1324  0.4238  1.0528
  953MOL0     H25768  -0.173   6.245   7.559  0.9989 -1.2704 -2.7935
  953MOL0     H25769  -0.319   6.334   7.526 -2.3536 -1.3403  3.2938
  953MOL0     H25770  -0.339   6.170   7.711  2.8853  1.5351 -0.9210
  953MOL0     H25771  -0.333   6.038   7.594  0.9679  0.4841  3.1064
  953MOL0     H25772  -0.564   6.082   7.590 -1.4042  0.2582 -1.7981
  953MOL0     H25773  -0.526   6.202   7.484 -0.6083 -0.7932 -0.3530
  953MOL0     H25774  -0.602   6.230   7.775  0.1919 -1.0661  0.1656
  953MOL0     H25775  -0.475   6.349   7.703 -0.2190  0.4132 -1.4681
  953MOL0     H25776  -0.758   6.299   7.593 -1.0108 -0.6444  2.6889
  953MOL0     H25777  -0.619   6.402   7.522 -0.2610  3.8353  1.6493
  953MOL0     H25778  -0.042   6.330   6.965  0.2956  1.6443 -1.7855
  953MOL0     H25779   0.166   6.251   6.854  0.3909  1.7311 -1.5754
  953MOL0     H25780   0.516   6.024   6.685 -1.3238  2.9530 -0.0621
  953MOL0     H25781   0.740   6.022   6.572 -0.7841 -0.8091  0.2245
  953MOL0     H25782   2.649   6.257   5.963 -1.2008  0.1085  0.8341
  953MOL0     H25783   2.875   6.263   6.032 -0.1175  0.6357 -0.4525
  953MOL0     H25784   3.315   6.133   5.858  0.5436 -1.0748 -0.1321
  953MOL0     H25785   3.553   6.143   5.907 -2.0797  2.1857 -0.3426
  953MOL0     H25786   3.696   6.015   6.317  1.7833  0.3593 -0.2190
  953MOL0     H25787   3.635   6.172   6.359  0.8093  0.8141  1.3011
  953MOL0     H25788   3.866   6.145   6.420  5.2848  0.5175 -0.5593
  953MOL0     H25789   3.926   6.117   6.261  1.6419  2.8374 -0.4700
  953MOL0     H25790   3.814   6.386   6.369 -2.4943 -2.7499  0.5253
  953MOL0     H25791   3.792   6.349   6.199  0.7064 -2.6201 -0.3653
  953MOL0     H25792   4.050   6.327   6.176  0.7662  2.2760 -0.3253
  953MOL0     H25793   3.987   6.485   6.228 -0.8560  0.2041 -1.0483
  953MOL0     H25794   4.207   6.353   6.570 -0.1895 -0.2280  0.9603
  953MOL0     H25795   3.458   6.102   6.334  1.9904 -2.6878 -0.6610
  953MOL0     H25796   3.214   6.081   6.270  0.9426  1.0145  0.6718
  954MOL0     O25797   4.935   1.091   7.269 -1.0734  0.7158 -0.1972
  954MOL0     C25798   4.979   1.165   7.189  0.7545 -0.7375  0.5760
  954MOL0     O25799   4.911   1.282   7.160 -0.4052 -0.7736 -0.5598
  954MOL0     C25800   4.782   1.296   7.188  0.0861 -0.4545 -0.1183
  954MOL0     C25801   4.694   1.339   7.090  0.0153 -0.8241  0.0527
  954MOL0     C25802   4.560   1.372   7.112  0.4695  0.0620 -0.6467
  954MOL0     C25803   4.517   1.372   7.249  0.0597 -0.2966 -0.6887
  954MOL0     O25804   4.390   1.403   7.282  0.0643 -0.5007  0.3054
  954MOL0     C25805   4.318   1.331   7.385  0.9719 -0.0101 -0.2994
  954MOL0     C25806   4.162   1.360   7.395  0.2635 -0.2953 -0.6498
  954MOL0     C25807   4.141   1.506   7.447 -0.8474  1.2734  0.6216
  954MOL0     C25808   4.001   1.539   7.484 -0.5287  0.2406  0.3537
  954MOL0     C25809   3.902   1.549   7.364 -0.2234 -0.8951 -0.0290
  954MOL0     C25810   3.763   1.578   7.411  0.6091 -0.3412  0.1641
  954MOL0     C25811   3.647   1.577   7.303 -1.3337 -0.5616  0.8013
  954MOL0     C25812   3.521   1.650   7.356 -0.3836  0.8423  0.0365
  954MOL0     N25813   3.544   1.795   7.373 -0.3142 -0.1072  0.2395
  954MOL0     C25814   3.570   1.884   7.271 -0.8626 -0.0853 -0.5293
  954MOL0     C25815   3.592   2.003   7.326  0.1745  0.2012 -0.1643
  954MOL0     C25816   3.611   2.135   7.250 -0.5673  0.7848 -0.4519
  954MOL0     C25817   3.487   2.191   7.172 -0.5214  0.1612 -0.7721
  954MOL0     C25818   3.374   2.226   7.272 -1.2964 -0.4532  0.3897
  954MOL0     C25819   3.264   2.297   7.192  0.2143  0.4956  1.0234
  954MOL0     O25820   3.213   2.202   7.086  0.1631 -0.6092 -0.2586
  954MOL0     C25821   3.089   2.145   7.097 -0.0974  0.0156  0.5230
  954MOL0     C25822   3.027   2.093   6.983  0.7546  0.8125 -0.1363
  954MOL0     C25823   2.892   2.047   6.994  0.6629  0.0257 -1.0407
  954MOL0     C25824   2.817   2.039   7.113 -0.6597 -0.4604 -0.0733
  954MOL0     C25825   2.680   1.978   7.125 -0.2677 -0.9253  0.0011
  954MOL0     O25826   2.627   1.921   7.014  0.1112 -0.3595 -0.1794
  954MOL0     C25827   2.497   1.878   6.995 -0.0562 -0.3782 -0.0538
  954MOL0     C25828   2.387   1.938   7.056  0.7213  0.4582 -0.2460
  954MOL0     C25829   2.259   1.897   7.028  0.8040 -0.3504  0.3925
  954MOL0     C25830   2.233   1.780   6.961 -0.6738  0.2246  0.2774
  954MOL0     O25831   2.103   1.743   6.967 -0.4033  0.7746 -0.3450
  954MOL0     C25832   2.077   1.612   7.029  0.0228  0.2432  0.4066
  954MOL0     C25833   1.929   1.570   7.000  0.0833 -0.0125  0.6952
  954MOL0     C25834   1.829   1.681   7.013  1.0432 -0.9038 -0.6336
  954MOL0     C25835   1.798   1.700   7.167  0.7103  0.4321 -0.2328
  954MOL0     C25836   1.693   1.811   7.193 -0.7303  0.2147 -0.1487
  954MOL0     C25837   1.553   1.769   7.132 -0.7866 -0.2659 -0.1643
  954MOL0     C25838   1.427   1.849   7.159  0.1788 -0.0919 -0.3417
  954MOL0     C25839   1.383   1.857   7.303  0.4356 -0.1904 -0.0774
  954MOL0    Cl25840   1.322   1.688   7.336  0.3401  0.0013  0.0416
  954MOL0     C25841   2.348   1.709   6.907  0.2393 -0.6148 -0.0978
  954MOL0     C25842   2.479   1.761   6.927 -0.3094  0.9353  0.2581
  954MOL0     O25843   2.630   1.978   7.229 -0.3128 -0.2431 -0.6768
  954MOL0     C25844   2.896   2.079   7.219  0.4178  0.3439  0.8265
  954MOL0     C25845   3.023   2.135   7.214  0.7562 -0.7182  0.3968
  954MOL0     N25846   3.572   1.993   7.468 -0.0665 -0.8001  0.3971
  954MOL0     N25847   3.548   1.868   7.494  1.1162 -0.1441  0.5645
  954MOL0     C25848   4.609   1.329   7.351 -0.0021  0.8858  0.6666
  954MOL0     C25849   4.735   1.294   7.319 -0.3062 -0.4025 -1.0443
  954MOL0     C25850   5.108   1.127   7.131 -0.2335  0.2075 -0.4394
  954MOL0     C25851   5.132   1.167   7.000 -0.4672 -0.7727  0.0386
  954MOL0     C25852   5.247   1.128   6.930 -0.2962 -0.6222  0.0123
  954MOL0     C25853   5.336   1.047   6.994  0.3660 -1.2391 -0.1455
  954MOL0     O25854   5.454   1.012   6.932 -0.0471 -0.0452 -0.0157
  954MOL0     C25855   5.579   1.045   7.005  0.3974 -0.0356  0.3826
  954MOL0     C25856   5.588   1.185   7.056 -0.3495 -0.2578  0.1011
  954MOL0     C25857   5.583   1.290   6.949 -0.0834  0.1264 -0.0844
  954MOL0     C25858   5.573   1.433   7.002 -0.5774 -0.5653 -0.2787
  954MOL0     C25859   5.445   1.450   7.077 -0.1584 -0.5977  0.6613
  954MOL0     C25860   5.341   1.484   7.129 -0.5322  1.0663  0.3642
  954MOL0     C25861   5.312   1.009   7.129 -1.1878  0.0217 -0.1427
  954MOL0     C25862   5.201   1.043   7.193  0.1715 -0.3104  0.0267
  954MOL0     H25863   4.742   1.357   6.995  2.5791 -0.2516  1.3652
  954MOL0     H25864   4.483   1.418   7.051 -0.2079  1.4360  1.1462
  954MOL0     H25865   4.364   1.363   7.478 -0.6528 -1.4178  1.0512
  954MOL0     H25866   4.342   1.225   7.370  4.3075  0.6882 -0.7741
  954MOL0     H25867   4.116   1.286   7.461  1.8917 -1.2178 -0.4910
  954MOL0     H25868   4.115   1.343   7.298 -3.4101 -1.0963  1.1232
  954MOL0     H25869   4.170   1.572   7.365  3.3033 -1.3343 -0.2651
  954MOL0     H25870   4.213   1.514   7.529 -0.2962 -0.5645  0.3716
  954MOL0     H25871   3.951   1.477   7.559 -1.4110 -0.2723 -0.6307
  954MOL0     H25872   3.993   1.638   7.530 -0.6609 -0.4984  2.0016
  954MOL0     H25873   3.905   1.470   7.289 -0.5724  0.1442 -1.1648
  954MOL0     H25874   3.937   1.639   7.311  0.3424 -0.7041  0.6398
  954MOL0     H25875   3.759   1.663   7.479 -1.2486  0.7869 -1.2537
  954MOL0     H25876   3.726   1.487   7.460  0.3657 -0.2774  0.1024
  954MOL0     H25877   3.691   1.623   7.214  2.7192 -1.0138  2.3698
  954MOL0     H25878   3.618   1.475   7.279  0.7137 -1.1543  0.6216
  954MOL0     H25879   3.494   1.600   7.449 -1.2765 -1.1111 -1.2180
  954MOL0     H25880   3.443   1.638   7.280  0.1805 -4.3877 -0.0432
  954MOL0     H25881   3.581   1.849   7.169 -0.2253 -3.9112  0.7043
  954MOL0     H25882   3.692   2.121   7.178  0.6649  0.3897  0.9442
  954MOL0     H25883   3.654   2.206   7.322  1.2830 -1.2295  0.5417
  954MOL0     H25884   3.455   2.118   7.097 -1.7824 -0.1649  0.0603
  954MOL0     H25885   3.521   2.285   7.128  1.1410  0.1140  0.3211
  954MOL0     H25886   3.329   2.143   7.327  0.4740 -0.8847  1.2419
  954MOL0     H25887   3.410   2.305   7.338  3.1319 -2.3930  0.6308
  954MOL0     H25888   3.310   2.387   7.150 -1.2288  0.7405 -0.1171
  954MOL0     H25889   3.185   2.333   7.257 -0.2975  0.9330  0.1664
  954MOL0     H25890   3.081   2.080   6.890 -0.6005  2.9020 -1.3026
  954MOL0     H25891   2.840   2.018   6.903  0.3808  0.1416 -0.9185
  954MOL0     H25892   2.401   2.020   7.126 -0.3622  3.0035 -2.8206
  954MOL0     H25893   2.176   1.950   7.074 -0.9026 -0.9776 -1.7727
  954MOL0     H25894   2.105   1.618   7.134  2.7242  2.4426 -0.3072
  954MOL0     H25895   2.139   1.535   6.980 -0.4554  0.6021 -0.8085
  954MOL0     H25896   1.891   1.492   7.068  0.5126 -0.9661 -0.1324
  954MOL0     H25897   1.919   1.527   6.900  0.9716 -2.0982  1.4525
  954MOL0     H25898   1.736   1.651   6.964 -0.6394  0.9627  1.2291
  954MOL0     H25899   1.867   1.776   6.972  1.4010 -0.1480  1.3276
  954MOL0     H25900   1.754   1.609   7.209 -0.0852  2.0579  2.7378
  954MOL0     H25901   1.889   1.722   7.225  0.2048  3.4148 -0.4286
  954MOL0     H25902   1.720   1.912   7.159 -4.7598  1.6503  0.3003
  954MOL0     H25903   1.686   1.823   7.302  2.0568 -1.0042  0.2347
  954MOL0     H25904   1.542   1.661   7.150  3.9046 -0.7935  0.8509
  954MOL0     H25905   1.572   1.781   7.025 -0.2429  0.2209 -0.0168
  954MOL0     H25906   1.438   1.948   7.114 -1.1762  0.3633  0.2714
  954MOL0     H25907   1.353   1.793   7.101 -0.8039 -0.6837  1.4317
  954MOL0     H25908   1.313   1.939   7.325  0.6690 -0.2421  0.9064
  954MOL0     H25909   1.472   1.874   7.365  1.4967 -3.3260 -0.5661
  954MOL0     H25910   2.335   1.617   6.851  2.1630 -0.4350 -0.8997
  954MOL0     H25911   2.570   1.711   6.897 -0.9421 -1.3965  1.9944
  954MOL0     H25912   2.853   2.074   7.319  2.9456  2.6775  2.1411
  954MOL0     H25913   3.054   2.175   7.310 -1.6720  2.9359 -0.1354
  954MOL0     H25914   4.577   1.317   7.455 -0.1731 -1.6002  0.3850
  954MOL0     H25915   4.803   1.261   7.398 -1.1845  1.0708  0.3746
  954MOL0     H25916   5.056   1.221   6.944  0.7232 -2.7794 -3.8981
  954MOL0     H25917   5.261   1.154   6.826  1.3357  0.9111  0.5585
  954MOL0     H25918   5.657   1.027   6.930 -0.4696 -0.4698 -0.4309
  954MOL0     H25919   5.599   0.979   7.090  0.9660 -2.7789 -1.7420
  954MOL0     H25920   5.509   1.204   7.130 -0.2877  0.6922 -0.0588
  954MOL0     H25921   5.687   1.195   7.101 -0.9756 -1.1703  1.7666
  954MOL0     H25922   5.486   1.276   6.900 -0.2390 -1.8364  0.7171
  954MOL0     H25923   5.667   1.281   6.879 -1.4253 -0.9294 -1.6148
  954MOL0     H25924   5.660   1.470   7.056  0.5555 -1.1904 -1.6070
  954MOL0     H25925   5.571   1.496   6.912  1.7415  1.8773  1.2398
  954MOL0     H25926   5.252   1.499   7.186  1.0567  0.2645  3.2320
  954MOL0     H25927   5.377   0.932   7.169 -2.5161 -1.3163 -0.4718
  954MOL0     H25928   5.174   0.999   7.287  1.9987 -0.5434  0.4898
  955MOL0     O25929  11.246   6.074   6.793  0.7870 -0.1201 -0.2333
  955MOL0     C25930  11.218   6.076   6.676 -0.7555 -0.5740 -0.3098
  955MOL0     O25931  11.092   6.106   6.629  0.5329  0.5929  0.1537
  955MOL0     C25932  10.992   6.135   6.727 -0.0287  0.2070  0.0525
  955MOL0     C25933  10.909   6.043   6.769 -0.6435  0.0839  0.4894
  955MOL0     C25934  10.817   6.064   6.872  1.0051 -0.1205  0.1558
  955MOL0     C25935  10.801   6.184   6.939 -0.0072 -0.2493  0.4887
  955MOL0     O25936  10.694   6.208   7.034  0.1371 -0.1144 -0.1258
  955MOL0     C25937  10.665   6.332   7.102 -0.1899 -0.8952  0.0031
  955MOL0     C25938  10.565   6.294   7.213  0.5145  0.1222 -0.1536
  955MOL0     C25939  10.424   6.256   7.174  1.3031  0.2219 -0.7558
  955MOL0     C25940  10.339   6.228   7.304  0.3064  0.6212  0.3381
  955MOL0     C25941  10.191   6.224   7.279  0.4809 -0.5227  0.7405
  955MOL0     C25942  10.118   6.199   7.408  0.2453  0.0276  0.2787
  955MOL0     C25943   9.973   6.245   7.374  0.6397 -1.1271  0.4170
  955MOL0     C25944   9.881   6.237   7.495 -0.3896 -0.4027  0.4612
  955MOL0     N25945   9.748   6.187   7.459  0.0431  0.4635 -0.2000
  955MOL0     C25946   9.710   6.051   7.453 -0.1463  0.2011  0.0942
  955MOL0     C25947   9.576   6.062   7.441  0.5893 -0.6659 -0.0080
  955MOL0     C25948   9.484   5.933   7.446 -0.0482 -0.6770  0.1039
  955MOL0     C25949   9.490   5.891   7.598  0.8651  0.7015  0.6449
  955MOL0     C25950   9.424   5.762   7.632 -0.4765 -0.2670 -0.5462
  955MOL0     C25951   9.270   5.775   7.667 -0.5896  0.3148  0.4657
  955MOL0     O25952   9.271   5.844   7.794  0.1149 -0.0625  0.5737
  955MOL0     C25953   9.159   5.914   7.821 -0.0087 -0.2197 -0.2780
  955MOL0     C25954   9.162   6.040   7.865 -0.0447  0.4208  0.4394
  955MOL0     C25955   9.052   6.112   7.906  0.4374  0.4475  0.0069
  955MOL0     C25956   8.929   6.055   7.906 -0.1634  0.1373 -0.3950
  955MOL0     C25957   8.817   6.138   7.959  0.3517  0.3281  0.2846
  955MOL0     O25958   8.694   6.087   7.930 -0.5437  0.3108  0.3505
  955MOL0     C25959   8.578   6.166   7.945 -0.5837 -0.2452  0.7265
  955MOL0     C25960   8.455   6.106   7.975 -0.1578 -0.0153  0.8888
  955MOL0     C25961   8.336   6.183   7.985 -0.6361  0.3356  0.3460
  955MOL0     C25962   8.337   6.318   7.965 -0.2201  0.2134 -0.5346
  955MOL0     O25963   8.224   6.390   7.998 -0.1078  0.3400 -0.1923
  955MOL0     C25964   8.213   6.538   7.988  1.2611 -0.2263  0.1073
  955MOL0     C25965   8.069   6.587   8.016 -0.0789 -0.8766 -0.2732
  955MOL0     C25966   7.974   6.482   7.969  1.2607  0.2457  0.3061
  955MOL0     C25967   7.832   6.528   7.965  0.4683  0.1814 -0.2665
  955MOL0     C25968   7.739   6.413   7.924 -0.0569 -0.6402 -0.1643
  955MOL0     C25969   7.592   6.455   7.941 -0.0040  0.1295  0.5767
  955MOL0     C25970   7.482   6.360   7.886 -0.1480  0.7268  0.5404
  955MOL0     C25971   7.346   6.396   7.950 -0.4380  0.6374  0.1949
  955MOL0    Cl25972   7.205   6.279   7.905 -0.2035  0.4597 -0.2956
  955MOL0     C25973   8.456   6.384   7.941  0.0133  1.1583  0.9187
  955MOL0     C25974   8.576   6.309   7.918  0.3055 -0.6679 -0.3268
  955MOL0     O25975   8.837   6.241   8.023  0.4698  0.3598  0.4002
  955MOL0     C25976   8.915   5.928   7.848 -0.4810 -0.0864 -0.0830
  955MOL0     C25977   9.030   5.852   7.813  0.6800 -0.5593 -0.1628
  955MOL0     N25978   9.540   6.200   7.442  0.4073  0.0302  0.3285
  955MOL0     N25979   9.641   6.266   7.448 -0.4076 -0.4827 -0.2276
  955MOL0     C25980  10.892   6.281   6.892  0.0645 -0.5576  0.0734
  955MOL0     C25981  10.983   6.256   6.790  0.0800 -0.4902 -0.3804
  955MOL0     C25982  11.310   6.029   6.571 -0.7296 -0.3424 -0.2514
  955MOL0     C25983  11.438   5.999   6.613 -0.5270  0.3232  0.7181
  955MOL0     C25984  11.535   5.962   6.518  0.7034  0.2724 -0.6036
  955MOL0     C25985  11.505   5.949   6.379  0.3651 -0.5738 -0.4891
  955MOL0     O25986  11.603   5.912   6.300 -0.0424 -0.3726  0.0544
  955MOL0     C25987  11.581   5.872   6.157 -0.1028  0.4735  0.5719
  955MOL0     C25988  11.707   5.795   6.118 -0.4434 -0.4739  0.2721
  955MOL0     C25989  11.837   5.876   6.119  0.0605 -0.0037 -0.8160
  955MOL0     C25990  11.930   5.802   6.221 -0.4204 -0.1844  0.5644
  955MOL0     C25991  12.074   5.844   6.208 -0.2998  1.2440 -0.1049
  955MOL0     C25992  12.196   5.846   6.194  0.0501  0.3773 -0.1106
  955MOL0     C25993  11.366   5.961   6.345  0.2535  0.3049 -0.2248
  955MOL0     C25994  11.275   6.010   6.440 -0.4142  0.3478  0.3043
  955MOL0     H25995  10.916   5.947   6.720 -0.6927  1.1450 -1.7066
  955MOL0     H25996  10.765   5.971   6.893 -1.4727  0.9492 -0.8256
  955MOL0     H25997  10.619   6.398   7.027  1.2621 -2.6441 -2.6035
  955MOL0     H25998  10.756   6.372   7.147 -0.7877 -0.6647  1.0417
  955MOL0     H25999  10.557   6.371   7.291 -1.5186 -0.7845  0.6182
  955MOL0     H26000  10.611   6.212   7.269  0.2557  0.9511  1.3355
  955MOL0     H26001  10.425   6.171   7.106 -0.0636 -0.7901  0.4490
  955MOL0     H26002  10.380   6.337   7.116 -2.8639 -0.6434  0.8694
  955MOL0     H26003  10.371   6.127   7.334 -2.2891 -1.2099 -2.4901
  955MOL0     H26004  10.364   6.309   7.373 -1.3092  1.2277  0.2435
  955MOL0     H26005  10.163   6.153   7.200 -1.9477  2.3959 -1.2516
  955MOL0     H26006  10.162   6.320   7.237 -0.4699 -0.2649  1.9518
  955MOL0     H26007  10.164   6.264   7.484 -0.6754 -0.0829  0.9447
  955MOL0     H26008  10.122   6.092   7.428  0.0023 -0.1906 -0.7881
  955MOL0     H26009   9.976   6.341   7.322  1.5496 -1.0414  0.6087
  955MOL0     H26010   9.924   6.184   7.299 -2.3672 -1.0226  2.1360
  955MOL0     H26011   9.865   6.337   7.537  1.0202  0.1560 -0.2619
  955MOL0     H26012   9.926   6.181   7.578  0.4590  1.2523  1.1553
  955MOL0     H26013   9.776   5.965   7.453 -0.7533 -0.2772 -0.3698
  955MOL0     H26014   9.520   5.847   7.388  0.3831 -1.9879  2.2398
  955MOL0     H26015   9.379   5.949   7.419  0.0341  0.7297  0.5271
  955MOL0     H26016   9.442   5.975   7.649  3.0069  1.5369  1.3828
  955MOL0     H26017   9.593   5.889   7.633  2.1142 -1.4118 -2.6389
  955MOL0     H26018   9.444   5.693   7.549  0.4695 -0.2556 -0.3428
  955MOL0     H26019   9.474   5.716   7.718  1.4584 -0.1780 -1.5476
  955MOL0     H26020   9.219   5.680   7.684 -1.4212  0.7221  0.2626
  955MOL0     H26021   9.218   5.834   7.591  0.4907  1.5467  0.6431
  955MOL0     H26022   9.254   6.096   7.870 -1.4113  2.9776 -1.0843
  955MOL0     H26023   9.057   6.212   7.948  1.3922  0.7576 -0.7994
  955MOL0     H26024   8.448   6.002   8.006 -0.2787  0.2025  1.5972
  955MOL0     H26025   8.236   6.141   7.993  0.2033 -1.6576  1.1695
  955MOL0     H26026   8.228   6.561   7.882 -3.0469  0.1209 -0.6021
  955MOL0     H26027   8.283   6.576   8.064  0.2871 -2.2724  2.1492
  955MOL0     H26028   8.049   6.682   7.965  2.1619 -0.5486 -0.6426
  955MOL0     H26029   8.052   6.595   8.124 -0.0380  0.7154 -0.3620
  955MOL0     H26030   7.972   6.399   8.040 -3.0019  1.5108  1.9698
  955MOL0     H26031   8.000   6.453   7.867 -1.3632 -1.0707 -0.0962
  955MOL0     H26032   7.798   6.566   8.062 -2.6724 -0.8204 -0.8391
  955MOL0     H26033   7.819   6.607   7.890  2.2339  0.7391 -0.0289
  955MOL0     H26034   7.747   6.331   7.995 -3.1711  0.4361  1.6620
  955MOL0     H26035   7.763   6.384   7.821 -0.0023  0.2022 -0.4001
  955MOL0     H26036   7.575   6.555   7.899  0.2500 -0.1873 -0.2899
  955MOL0     H26037   7.582   6.470   8.049  0.1374  1.2163  0.4483
  955MOL0     H26038   7.475   6.382   7.779 -3.2181  4.0631  1.2240
  955MOL0     H26039   7.508   6.256   7.906  0.1337  1.0983  2.1992
  955MOL0     H26040   7.319   6.500   7.929 -1.7966  0.7460  2.2388
  955MOL0     H26041   7.361   6.401   8.058 -2.0253  1.9307  0.3925
  955MOL0     H26042   8.465   6.492   7.949  4.3329  1.0762 -0.2333
  955MOL0     H26043   8.664   6.350   7.869 -0.3361  0.0955 -0.8567
  955MOL0     H26044   8.813   5.890   7.843 -0.8469  0.2549  2.8298
  955MOL0     H26045   9.022   5.756   7.764 -1.7017 -1.5824  2.0212
  955MOL0     H26046  10.874   6.375   6.943 -2.4966 -2.2061  2.5102
  955MOL0     H26047  11.042   6.343   6.763  1.0703 -1.1213 -0.3005
  955MOL0     H26048  11.461   6.009   6.718 -3.4375 -3.1483  1.8946
  955MOL0     H26049  11.639   5.951   6.549  0.5212 -1.0114 -0.4361
  955MOL0     H26050  11.572   5.957   6.089  0.8523  0.8541  0.9011
  955MOL0     H26051  11.490   5.813   6.145 -2.4739  3.7405  1.1664
  955MOL0     H26052  11.703   5.702   6.177  1.9176  0.8563  2.7504
  955MOL0     H26053  11.698   5.758   6.016  0.8147  1.2848 -0.5016
  955MOL0     H26054  11.821   5.983   6.137 -2.8238  0.0164 -2.8032
  955MOL0     H26055  11.888   5.861   6.024  0.5735  1.4983 -0.8009
  955MOL0     H26056  11.893   5.808   6.323 -2.5141 -0.2602 -0.1494
  955MOL0     H26057  11.928   5.694   6.203  1.8262 -0.6774  2.7117
  955MOL0     H26058  12.302   5.842   6.185  0.2394 -0.4056  2.0267
  955MOL0     H26059  11.334   5.947   6.242  1.4810 -2.3257 -0.3456
  955MOL0     H26060  11.171   6.026   6.415 -1.5388 -3.1126  2.1035
  956MOL0     O26061   1.784   9.283   5.043  0.3031  0.0655 -0.7040
  956MOL0     C26062   1.814   9.176   5.098  0.4104 -0.0809  0.3693
  956MOL0     O26063   1.730   9.066   5.109 -0.8872  0.3805 -0.0273
  956MOL0     C26064   1.604   9.085   5.073 -0.0464  0.8376 -0.0904
  956MOL0     C26065   1.510   9.117   5.175  0.8606  0.4638  0.1351
  956MOL0     C26066   1.372   9.132   5.137 -0.1335 -0.2596 -0.7207
  956MOL0     C26067   1.339   9.137   5.003  0.2040  0.7156 -0.8995
  956MOL0     O26068   1.215   9.139   4.953 -0.3881 -0.4454  0.5840
  956MOL0     C26069   1.100   9.144   5.038 -0.7922 -0.5986 -0.4478
  956MOL0     C26070   0.968   9.149   4.954 -0.6251 -0.4338 -0.1707
  956MOL0     C26071   0.947   9.021   4.866 -0.3622 -0.2664 -0.3365
  956MOL0     C26072   0.835   9.037   4.768  0.2880  0.0168  0.4752
  956MOL0     C26073   0.693   9.045   4.828 -0.6644  0.1030  0.5578
  956MOL0     C26074   0.660   8.926   4.908 -0.1527  0.1536 -0.3219
  956MOL0     C26075   0.511   8.931   4.956  0.9862  0.4812  0.8208
  956MOL0     C26076   0.411   8.881   4.849  0.4557 -0.6180  0.3513
  956MOL0     N26077   0.313   8.993   4.816  0.3228  0.2785  0.0561
  956MOL0     C26078   0.171   8.979   4.837 -0.4776 -0.0654 -0.1069
  956MOL0     C26079   0.118   9.092   4.787 -0.9045 -1.1823  0.1759
  956MOL0     C26080  -0.027   9.124   4.820  0.1631 -0.6267  0.3905
  956MOL0     C26081  -0.106   9.093   4.691  0.5256  0.6080 -0.3046
  956MOL0     C26082  -0.256   9.079   4.703 -0.0721 -0.6494  0.7630
  956MOL0     C26083  -0.294   8.935   4.696 -0.3858 -0.4374  0.5179
  956MOL0     O26084  -0.227   8.856   4.796  0.7571  0.4767  0.5521
  956MOL0     C26085  -0.283   8.740   4.832 -0.3886 -0.3309 -0.2660
  956MOL0     C26086  -0.215   8.653   4.917  0.2334  0.0698  0.4429
  956MOL0     C26087  -0.255   8.523   4.954 -0.2531 -0.4248  0.5204
  956MOL0     C26088  -0.373   8.471   4.906  0.4802 -0.1310  0.2709
  956MOL0     C26089  -0.415   8.330   4.934  1.0083 -0.1841  0.2287
  956MOL0     O26090  -0.335   8.261   5.011 -0.7230 -1.0767 -0.2235
  956MOL0     C26091  -0.371   8.131   5.041 -0.0098  0.5532 -0.6096
  956MOL0     C26092  -0.289   8.026   4.997  0.0513  0.0366  0.7505
  956MOL0     C26093  -0.310   7.898   5.040 -0.3502 -0.1801 -0.1774
  956MOL0     C26094  -0.417   7.861   5.115  0.0529 -0.2772 -0.9814
  956MOL0     O26095  -0.420   7.727   5.155  0.1722  0.1768  0.3957
  956MOL0     C26096  -0.533   7.669   5.230 -0.1105  0.5737  0.3184
  956MOL0     C26097  -0.496   7.523   5.267 -0.3219 -1.3351 -0.2997
  956MOL0     C26098  -0.410   7.520   5.395 -0.9105  0.3019  0.7727
  956MOL0     C26099  -0.261   7.542   5.364  0.3952  0.5136 -0.1694
  956MOL0     C26100  -0.166   7.471   5.465  0.1027  0.0492  0.5782
  956MOL0     C26101  -0.027   7.478   5.415 -0.2643 -1.1646 -0.0295
  956MOL0     C26102   0.081   7.444   5.514  0.3453  0.2644 -0.8046
  956MOL0     C26103   0.215   7.417   5.454  0.3794 -0.8688 -0.2408
  956MOL0    Cl26104   0.291   7.582   5.440  0.4895 -0.1296 -0.1371
  956MOL0     C26105  -0.506   7.957   5.156  0.2424 -0.0540  0.2810
  956MOL0     C26106  -0.489   8.089   5.115  0.9939  0.0445  0.0109
  956MOL0     O26107  -0.521   8.296   4.888  0.7023  0.7105  0.1463
  956MOL0     C26108  -0.441   8.557   4.813  0.0134  0.2080 -0.4071
  956MOL0     C26109  -0.404   8.683   4.765  0.1944 -0.5220 -0.9501
  956MOL0     N26110   0.228   9.173   4.743  0.0374  0.2080 -0.5335
  956MOL0     N26111   0.344   9.118   4.762  0.0197  0.4940  0.1731
  956MOL0     C26112   1.435   9.125   4.906 -0.7717 -0.0173 -0.2977
  956MOL0     C26113   1.570   9.103   4.936  0.0390  0.4816 -0.3655
  956MOL0     C26114   1.955   9.162   5.145 -0.9379  0.2617  0.2173
  956MOL0     C26115   2.049   9.245   5.093 -0.3702 -0.2424  0.2913
  956MOL0     C26116   2.187   9.243   5.127 -0.1303  0.1541  1.3634
  956MOL0     C26117   2.223   9.127   5.197  1.0277  0.8436  0.9071
  956MOL0     O26118   2.350   9.100   5.247 -0.3255 -0.3512 -0.3886
  956MOL0     C26119   2.458   9.194   5.201  0.0201 -0.9459 -0.0376
  956MOL0     C26120   2.594   9.128   5.208 -0.4345 -0.3919  0.3053
  956MOL0     C26121   2.699   9.201   5.129  0.6492 -0.5182 -0.0492
  956MOL0     C26122   2.837   9.125   5.115 -0.3520 -1.1687  0.7484
  956MOL0     C26123   2.944   9.208   5.053  0.5766 -0.2491  0.4705
  956MOL0     C26124   3.044   9.266   5.001 -0.1174  0.1448 -0.4015
  956MOL0     C26125   2.129   9.043   5.247 -0.7567 -0.7923  0.8115
  956MOL0     C26126   1.996   9.059   5.224  0.2300 -0.0874 -0.9010
  956MOL0     H26127   1.535   9.114   5.280  1.0516  2.6214  0.1970
  956MOL0     H26128   1.296   9.158   5.210  0.6699 -0.4208  0.1904
  956MOL0     H26129   1.103   9.231   5.104  1.6673 -0.7909 -0.2044
  956MOL0     H26130   1.090   9.060   5.107 -2.5825 -0.1771 -0.1558
  956MOL0     H26131   0.961   9.238   4.891  1.1236 -1.3281 -1.7493
  956MOL0     H26132   0.889   9.154   5.029 -0.7955 -0.6077 -0.3381
  956MOL0     H26133   0.943   8.928   4.923  2.9671 -1.9471 -2.4865
  956MOL0     H26134   1.036   9.011   4.803 -0.9586  0.5057 -1.3430
  956MOL0     H26135   0.859   9.126   4.709 -2.2070 -0.0051 -0.6882
  956MOL0     H26136   0.835   8.953   4.699  0.4340  0.4577 -0.0663
  956MOL0     H26137   0.619   9.056   4.748 -1.7291 -1.4617  1.2655
  956MOL0     H26138   0.683   9.138   4.885 -2.6311 -0.0428  0.5287
  956MOL0     H26139   0.729   8.922   4.994 -1.1903  2.2143  0.6741
  956MOL0     H26140   0.676   8.838   4.846  0.5745 -1.0193  1.4504
  956MOL0     H26141   0.495   8.867   5.043 -1.2992 -2.1057 -1.3285
  956MOL0     H26142   0.486   9.034   4.983 -1.8638 -0.1609  0.9969
  956MOL0     H26143   0.354   8.799   4.895  2.4360 -0.8925  2.4419
  956MOL0     H26144   0.454   8.852   4.752  0.8172 -0.1530  0.3717
  956MOL0     H26145   0.113   8.894   4.872 -0.5381  0.1767  0.3784
  956MOL0     H26146  -0.032   9.232   4.836 -0.2550 -0.3957 -1.1973
  956MOL0     H26147  -0.047   9.071   4.914  0.2889 -1.9028 -0.2884
  956MOL0     H26148  -0.068   8.994   4.663  5.0257  1.4844  1.8599
  956MOL0     H26149  -0.079   9.169   4.617 -1.5763  0.8433 -0.8823
  956MOL0     H26150  -0.293   9.126   4.795  0.0653  0.9304  0.0393
  956MOL0     H26151  -0.294   9.134   4.617 -1.6319  0.6531  2.1961
  956MOL0     H26152  -0.261   8.901   4.598  0.2883 -1.4447  1.0715
  956MOL0     H26153  -0.403   8.940   4.687 -0.1221  2.5590 -3.7164
  956MOL0     H26154  -0.121   8.695   4.951  0.4850  0.8357 -1.0707
  956MOL0     H26155  -0.198   8.459   5.021 -0.9515 -1.8020 -0.1530
  956MOL0     H26156  -0.200   8.045   4.939 -0.9885 -0.5844 -1.1126
  956MOL0     H26157  -0.234   7.823   5.020  0.5945  0.8253 -0.4261
  956MOL0     H26158  -0.626   7.667   5.174  0.9895  1.5118 -1.6295
  956MOL0     H26159  -0.541   7.719   5.327  1.2680  2.7668 -0.6279
  956MOL0     H26160  -0.453   7.474   5.179 -0.4203 -0.9458 -0.5670
  956MOL0     H26161  -0.590   7.471   5.290 -0.0823 -1.0325  1.5514
  956MOL0     H26162  -0.438   7.423   5.438  0.0459 -0.8360 -1.0346
  956MOL0     H26163  -0.446   7.591   5.470 -2.9520 -1.2207  1.3495
  956MOL0     H26164  -0.239   7.496   5.267 -4.8789 -0.2852 -1.2676
  956MOL0     H26165  -0.240   7.650   5.364 -0.1734  0.6595  1.7776
  956MOL0     H26166  -0.195   7.366   5.475 -1.1832  0.4164  0.8882
  956MOL0     H26167  -0.176   7.513   5.566  1.9234  2.3373 -0.0979
  956MOL0     H26168  -0.007   7.582   5.389 -0.8960 -0.9076  0.4801
  956MOL0     H26169  -0.021   7.408   5.331 -2.2004 -0.4726 -0.7897
  956MOL0     H26170   0.088   7.528   5.584  0.9877  2.6969 -3.6059
  956MOL0     H26171   0.048   7.350   5.559 -1.3094  0.0617 -2.3374
  956MOL0     H26172   0.215   7.353   5.365  0.3022 -2.5742  0.9286
  956MOL0     H26173   0.280   7.356   5.517 -0.1458 -1.2784 -0.0819
  956MOL0     H26174  -0.597   7.931   5.209  1.5505 -2.3967  1.5645
  956MOL0     H26175  -0.566   8.162   5.137  1.0315 -0.3097  1.4069
  956MOL0     H26176  -0.522   8.491   4.781  1.1982 -3.2964  2.9642
  956MOL0     H26177  -0.463   8.732   4.689 -1.7933 -2.2157 -0.5902
  956MOL0     H26178   1.409   9.133   4.801  1.7328 -0.6713 -1.0256
  956MOL0     H26179   1.639   9.099   4.852  1.4761 -0.0487  0.8089
  956MOL0     H26180   2.003   9.321   5.032 -0.9968  0.4172  1.5660
  956MOL0     H26181   2.244   9.330   5.097 -2.9590  1.5086 -0.6299
  956MOL0     H26182   2.462   9.293   5.248 -2.2676  0.2039 -2.0504
  956MOL0     H26183   2.433   9.212   5.096  0.7952 -0.6145 -0.1781
  956MOL0     H26184   2.615   9.129   5.315 -0.2756 -0.3731  0.2743
  956MOL0     H26185   2.600   9.023   5.181  1.0913  0.3957 -3.0294
  956MOL0     H26186   2.724   9.292   5.184 -0.1213 -1.1736  1.4446
  956MOL0     H26187   2.671   9.214   5.024  1.5991 -2.4792 -0.6095
  956MOL0     H26188   2.876   9.100   5.214 -0.1690 -0.1225  0.9502
  956MOL0     H26189   2.828   9.037   5.050 -4.4770  0.3833 -1.0981
  956MOL0     H26190   3.119   9.319   4.946  2.1420 -0.4621  1.9014
  956MOL0     H26191   2.160   8.956   5.304  2.3246  0.0217  0.5111
  956MOL0     H26192   1.935   8.990   5.282  0.7760  2.3196  2.8813
  957MOL0     O26193   1.573   3.736   5.472  0.0930  0.2968 -0.0496
  957MOL0     C26194   1.535   3.621   5.479 -0.4187 -0.1018 -0.0200
  957MOL0     O26195   1.399   3.588   5.488 -0.9436  0.1806 -0.4422
  957MOL0     C26196   1.309   3.681   5.524  0.3624  0.3122  0.7991
  957MOL0     C26197   1.183   3.669   5.456 -0.3043  0.1821 -1.1715
  957MOL0     C26198   1.087   3.770   5.479 -0.6376  0.1254  0.3356
  957MOL0     C26199   1.104   3.880   5.565 -0.2899 -0.4628  0.3000
  957MOL0     O26200   1.008   3.970   5.583  0.9318  0.5904 -0.3316
  957MOL0     C26201   1.001   4.020   5.720 -0.5807 -0.0273 -0.2472
  957MOL0     C26202   0.854   4.014   5.752  0.3182  0.0172  0.6514
  957MOL0     C26203   0.788   4.150   5.721  0.6128  0.8679 -0.6557
  957MOL0     C26204   0.637   4.116   5.745 -0.0507  0.2760  0.0416
  957MOL0     C26205   0.558   4.253   5.764 -0.0372  0.8956 -0.0218
  957MOL0     C26206   0.423   4.246   5.699 -0.2858  0.4317 -0.8423
  957MOL0     C26207   0.344   4.378   5.677 -0.7094 -0.4190 -0.1677
  957MOL0     C26208   0.298   4.445   5.810 -0.5368 -0.5889 -0.0361
  957MOL0     N26209   0.204   4.555   5.795  0.2334 -0.5650  0.1151
  957MOL0     C26210   0.115   4.575   5.696  0.6579  0.8547  0.0306
  957MOL0     C26211   0.024   4.665   5.739  0.6737  0.5599  0.0457
  957MOL0     C26212  -0.109   4.707   5.663  0.5805 -0.0666 -0.6907
  957MOL0     C26213  -0.099   4.847   5.595  0.5072  0.4834 -0.4048
  957MOL0     C26214  -0.131   4.973   5.671  0.4435 -0.3179  0.2206
  957MOL0     C26215  -0.275   4.994   5.714  0.3454  0.2853 -0.2986
  957MOL0     O26216  -0.347   5.023   5.601 -0.1758  0.7617  1.0811
  957MOL0     C26217  -0.464   5.079   5.603  0.7997 -1.2546  0.0639
  957MOL0     C26218  -0.530   5.090   5.479 -0.6650 -0.4493  0.7516
  957MOL0     C26219  -0.658   5.145   5.471  0.6758 -0.5465  0.2688
  957MOL0     C26220  -0.729   5.192   5.581  0.0891  0.7820 -1.2323
  957MOL0     C26221  -0.868   5.247   5.580 -0.1819 -0.1981  0.8520
  957MOL0     O26222  -0.915   5.284   5.700 -0.1439  0.4159  0.1293
  957MOL0     C26223  -1.046   5.323   5.720 -0.2026 -0.1703  0.0391
  957MOL0     C26224  -1.111   5.433   5.656  0.4463  0.2826 -0.2081
  957MOL0     C26225  -1.249   5.447   5.678 -0.2587  0.6533 -0.5202
  957MOL0     C26226  -1.314   5.366   5.771 -0.2417 -0.1317 -0.4219
  957MOL0     O26227  -1.452   5.374   5.768 -0.1498 -0.3527  0.2670
  957MOL0     C26228  -1.500   5.376   5.901 -0.3439  0.4229 -0.9879
  957MOL0     C26229  -1.626   5.459   5.902 -0.5336 -0.2681 -0.5441
  957MOL0     C26230  -1.731   5.406   5.815 -0.2357 -0.3613  0.7878
  957MOL0     C26231  -1.729   5.470   5.676  0.3380 -0.3976 -0.0842
  957MOL0     C26232  -1.863   5.417   5.614  0.1578 -0.2141  0.0890
  957MOL0     C26233  -1.918   5.512   5.496  0.3880  0.8546  0.2755
  957MOL0     C26234  -2.044   5.447   5.446 -0.7110 -0.3104 -0.0016
  957MOL0     C26235  -2.035   5.400   5.310  0.1536 -0.2367 -0.0080
  957MOL0    Cl26236  -2.191   5.360   5.242  0.2402  0.2809 -0.6744
  957MOL0     C26237  -1.247   5.269   5.845  0.6527 -0.5178  0.1672
  957MOL0     C26238  -1.107   5.257   5.831 -0.7212 -0.1440 -0.3632
  957MOL0     O26239  -0.932   5.257   5.474  0.1182 -0.3988 -0.2101
  957MOL0     C26240  -0.659   5.176   5.703 -0.4893 -0.3905 -0.3439
  957MOL0     C26241  -0.537   5.120   5.718 -0.5233 -0.9523 -0.8103
  957MOL0     N26242   0.064   4.714   5.860 -0.2123 -0.3537  0.3754
  957MOL0     N26243   0.167   4.639   5.895  1.6852 -0.1286  0.1225
  957MOL0     C26244   1.226   3.885   5.638 -0.2915  0.4851  0.0216
  957MOL0     C26245   1.328   3.785   5.613  0.3563  0.3198  0.3010
  957MOL0     C26246   1.640   3.516   5.477 -0.3418  0.6489 -0.6193
  957MOL0     C26247   1.778   3.545   5.437  0.1266 -0.1413 -0.1180
  957MOL0     C26248   1.881   3.453   5.440 -0.3900 -1.1434  0.3077
  957MOL0     C26249   1.850   3.326   5.487  0.5616 -0.1215  0.1158
  957MOL0     O26250   1.929   3.214   5.503  0.1244 -0.4800 -0.0663
  957MOL0     C26251   2.067   3.234   5.483  0.3996  0.6638 -0.6653
  957MOL0     C26252   2.132   3.291   5.615  0.2997  0.4048  0.8253
  957MOL0     C26253   2.092   3.199   5.733 -0.4910  1.0731  0.3799
  957MOL0     C26254   2.130   3.049   5.727  0.9864 -0.0151  0.3002
  957MOL0     C26255   2.270   3.041   5.691  0.6181 -0.4864  0.5150
  957MOL0     C26256   2.388   3.036   5.660 -0.2655 -0.3491 -0.4652
  957MOL0     C26257   1.716   3.295   5.523  0.6633  0.3860 -0.8872
  957MOL0     C26258   1.614   3.387   5.523 -0.7114 -0.2069 -0.1383
  957MOL0     H26259   1.168   3.592   5.381 -1.3602 -0.5849 -0.1965
  957MOL0     H26260   0.990   3.789   5.433 -1.6456  1.8850  2.9388
  957MOL0     H26261   1.046   4.120   5.729 -0.3648 -0.0805 -0.7139
  957MOL0     H26262   1.060   3.957   5.787 -2.9591 -1.2600  0.8122
  957MOL0     H26263   0.859   3.980   5.856  2.6047  2.8001  1.5943
  957MOL0     H26264   0.812   3.936   5.688 -0.9190 -1.0101  2.5986
  957MOL0     H26265   0.796   4.181   5.616  1.2624  0.9589 -0.5823
  957MOL0     H26266   0.815   4.229   5.792 -2.0194  1.0376  0.2811
  957MOL0     H26267   0.615   4.055   5.657  1.3275  0.8010 -0.6779
  957MOL0     H26268   0.616   4.049   5.830  0.4135 -2.0853 -1.6053
  957MOL0     H26269   0.610   4.331   5.708  1.3967  0.6133  0.8570
  957MOL0     H26270   0.555   4.271   5.872  0.1167  0.2489  0.0991
  957MOL0     H26271   0.351   4.177   5.745  0.7317 -1.0615 -1.4116
  957MOL0     H26272   0.437   4.200   5.601 -2.0146 -0.0377 -0.9008
  957MOL0     H26273   0.402   4.441   5.609  0.1866 -1.0862 -0.0529
  957MOL0     H26274   0.255   4.351   5.620 -0.4535  0.2571 -0.8954
  957MOL0     H26275   0.381   4.477   5.874 -1.0532  0.6400  0.0486
  957MOL0     H26276   0.232   4.372   5.859 -0.3875 -1.0834 -0.5521
  957MOL0     H26277   0.098   4.495   5.624 -0.0549  0.2849  0.8040
  957MOL0     H26278  -0.189   4.714   5.737 -0.4521 -0.0547 -1.7780
  957MOL0     H26279  -0.135   4.631   5.590  2.7487 -0.4084 -1.1805
  957MOL0     H26280  -0.159   4.833   5.505 -0.3783 -0.9416  0.3742
  957MOL0     H26281   0.001   4.863   5.554  0.5268 -1.6829 -1.3123
  957MOL0     H26282  -0.071   4.963   5.762  1.3929  0.9117 -0.2457
  957MOL0     H26283  -0.091   5.058   5.615 -0.6625  0.1679  0.1286
  957MOL0     H26284  -0.278   5.071   5.792 -0.6232  0.9079 -0.9323
  957MOL0     H26285  -0.326   4.905   5.751 -1.0224  1.0092 -0.3743
  957MOL0     H26286  -0.482   5.054   5.388 -2.4040 -3.0380  0.7749
  957MOL0     H26287  -0.706   5.132   5.374  3.2908 -1.3209 -1.0162
  957MOL0     H26288  -1.059   5.496   5.584  0.3409  3.1236  2.0545
  957MOL0     H26289  -1.305   5.507   5.607 -3.8346  0.8759  2.2681
  957MOL0     H26290  -1.429   5.424   5.970 -2.9133  0.5560  1.7737
  957MOL0     H26291  -1.519   5.273   5.934  1.3767 -0.2936 -2.1192
  957MOL0     H26292  -1.590   5.560   5.880  4.2010 -1.6597 -0.2460
  957MOL0     H26293  -1.657   5.440   6.005  0.9260  2.6098  0.5205
  957MOL0     H26294  -1.828   5.416   5.865 -0.5943  1.9822 -0.2406
  957MOL0     H26295  -1.713   5.301   5.792 -0.0008  0.6362 -5.0187
  957MOL0     H26296  -1.743   5.578   5.687 -1.1456 -0.7414  1.7852
  957MOL0     H26297  -1.642   5.450   5.612  0.6756 -0.0412  0.2532
  957MOL0     H26298  -1.946   5.418   5.685 -2.9796  2.4629 -3.2577
  957MOL0     H26299  -1.838   5.315   5.583 -0.5371 -0.4435  0.2714
  957MOL0     H26300  -1.847   5.525   5.414 -0.9867 -1.1732 -1.3294
  957MOL0     H26301  -1.937   5.611   5.539  0.9791  1.1326 -0.0865
  957MOL0     H26302  -2.070   5.360   5.507  1.1364  0.9202  2.7362
  957MOL0     H26303  -2.125   5.520   5.458  1.3819  2.0410  0.6096
  957MOL0     H26304  -1.965   5.316   5.307  0.3506 -0.0855  0.2489
  957MOL0     H26305  -2.005   5.473   5.235  1.1252 -0.5897  0.0267
  957MOL0     H26306  -1.297   5.205   5.918 -0.1505 -0.7772 -0.5910
  957MOL0     H26307  -1.059   5.183   5.895  0.2254 -0.5020 -1.4624
  957MOL0     H26308  -0.699   5.204   5.800  3.3930  0.0741  1.3189
  957MOL0     H26309  -0.501   5.103   5.819 -4.1353 -1.2278  0.6074
  957MOL0     H26310   1.249   3.976   5.693 -0.8009  0.9436 -0.5032
  957MOL0     H26311   1.417   3.781   5.675 -1.7909 -2.1708  3.5738
  957MOL0     H26312   1.808   3.647   5.417 -0.4579 -0.5801 -3.8853
  957MOL0     H26313   1.977   3.484   5.399 -0.6264  0.2763  0.7874
  957MOL0     H26314   2.101   3.298   5.400  0.8373  1.3275  0.0102
  957MOL0     H26315   2.116   3.138   5.463 -1.5535 -0.4633 -0.3311
  957MOL0     H26316   2.240   3.298   5.608  0.4025  0.8068  2.4620
  957MOL0     H26317   2.096   3.394   5.618 -1.6732 -0.1596 -0.7096
  957MOL0     H26318   1.986   3.213   5.754 -0.2418  2.0281  1.0701
  957MOL0     H26319   2.133   3.235   5.828 -0.8890 -1.6254  1.6775
  957MOL0     H26320   2.088   2.997   5.813 -1.3573  0.0472 -0.7253
  957MOL0     H26321   2.086   2.998   5.641 -0.3932 -1.5629  1.8505
  957MOL0     H26322   2.487   3.042   5.619  0.3893 -1.2503  0.8906
  957MOL0     H26323   1.689   3.192   5.542 -2.6741  1.6411  2.2172
  957MOL0     H26324   1.515   3.359   5.556 -1.6355 -0.3080 -2.7767
  958MOL0     O26325   9.578   3.383   4.666 -0.2403 -0.2075  0.5417
  958MOL0     C26326   9.636   3.316   4.586  0.1550 -0.0585  0.1326
  958MOL0     O26327   9.576   3.223   4.511 -0.1561  0.6223 -0.1253
  958MOL0     C26328   9.441   3.215   4.495 -0.3804  0.3473  0.8788
  958MOL0     C26329   9.393   3.104   4.415  0.0127 -0.6708 -0.5972
  958MOL0     C26330   9.257   3.090   4.382 -0.7153  1.3134  0.3488
  958MOL0     C26331   9.164   3.188   4.410 -0.9881  1.0073  0.0378
  958MOL0     O26332   9.033   3.171   4.365 -0.7875  0.1678 -0.0279
  958MOL0     C26333   8.934   3.214   4.453  0.8077 -0.1098 -0.2838
  958MOL0     C26334   8.810   3.144   4.420  0.4824  0.2926 -0.2915
  958MOL0     C26335   8.734   3.203   4.288 -0.2534 -0.1413 -0.4821
  958MOL0     C26336   8.635   3.311   4.329  0.3760 -0.0330  0.2025
  958MOL0     C26337   8.605   3.413   4.216  0.1119  0.1791  1.3104
  958MOL0     C26338   8.540   3.368   4.092  0.9263 -0.7183 -0.0189
  958MOL0     C26339   8.389   3.341   4.115  0.0133  0.4417 -0.2220
  958MOL0     C26340   8.323   3.262   3.999 -0.1778 -0.5891 -0.5010
  958MOL0     N26341   8.177   3.283   3.991 -0.0878  0.7558  0.0482
  958MOL0     C26342   8.120   3.353   3.887 -0.1158 -0.2400 -0.9669
  958MOL0     C26343   7.984   3.344   3.906  0.8061  0.1989 -0.6843
  958MOL0     C26344   7.883   3.401   3.807  0.2439 -1.0383  0.7056
  958MOL0     C26345   7.780   3.490   3.883  0.1431 -0.5044 -0.1034
  958MOL0     C26346   7.831   3.627   3.954  0.4033  0.1674  0.9109
  958MOL0     C26347   7.936   3.714   3.887 -0.0916  0.5932  0.6973
  958MOL0     O26348   8.074   3.666   3.887  0.6528 -0.0863  0.0564
  958MOL0     C26349   8.151   3.709   3.991  0.2121  0.0469  0.1548
  958MOL0     C26350   8.105   3.712   4.126  0.0142 -0.0110 -0.2874
  958MOL0     C26351   8.189   3.744   4.233  0.1539  0.4091 -0.1004
  958MOL0     C26352   8.326   3.759   4.206  0.4940  0.0086 -0.5628
  958MOL0     C26353   8.431   3.795   4.310  0.1735 -0.7183  0.5158
  958MOL0     O26354   8.565   3.763   4.284  0.3168 -0.1376 -0.1673
  958MOL0     C26355   8.651   3.818   4.378 -0.4144 -0.5818 -0.3566
  958MOL0     C26356   8.756   3.732   4.432  0.4643 -0.4507 -0.3805
  958MOL0     C26357   8.861   3.788   4.501  0.2525  0.1903  0.2062
  958MOL0     C26358   8.869   3.925   4.531  0.0370 -0.2108 -0.4117
  958MOL0     O26359   8.970   3.971   4.617  0.1918 -0.2026  0.2625
  958MOL0     C26360   9.024   4.102   4.590 -0.2677 -0.1122 -0.1123
  958MOL0     C26361   9.163   4.096   4.663 -0.0122 -0.3869  0.0158
  958MOL0     C26362   9.269   4.188   4.598 -0.2694  0.2054  0.0219
  958MOL0     C26363   9.394   4.180   4.675  1.0989 -0.0701 -0.1327
  958MOL0     C26364   9.489   4.261   4.588 -0.2433 -0.4080 -0.2202
  958MOL0     C26365   9.608   4.308   4.682  0.6979  0.4573 -1.0874
  958MOL0     C26366   9.725   4.346   4.592 -0.1196  0.1925  0.2124
  958MOL0     C26367   9.845   4.422   4.652  0.4669  1.0886  0.2329
  958MOL0    Cl26368   9.966   4.319   4.726  0.1416  0.3128 -0.1119
  958MOL0     C26369   8.765   4.011   4.480 -1.1034 -0.4458 -0.7623
  958MOL0     C26370   8.661   3.958   4.407  0.3233 -0.2361  1.3017
  958MOL0     O26371   8.388   3.850   4.406  0.3439 -0.0199 -0.3230
  958MOL0     C26372   8.374   3.758   4.067  0.3239 -0.5077  0.4216
  958MOL0     C26373   8.280   3.750   3.963  0.2766 -0.2798 -0.0416
  958MOL0     N26374   7.960   3.275   4.019 -1.1028 -0.4398  0.0643
  958MOL0     N26375   8.076   3.246   4.076  0.0428 -0.2924 -0.0211
  958MOL0     C26376   9.210   3.297   4.482  1.0372  0.0485 -1.0475
  958MOL0     C26377   9.340   3.314   4.523 -0.8072 -0.8479 -0.4753
  958MOL0     C26378   9.779   3.341   4.568 -0.7836 -0.0148 -0.5997
  958MOL0     C26379   9.840   3.449   4.627  0.5248 -1.0702 -0.2979
  958MOL0     C26380   9.974   3.475   4.604  0.2038  1.1473  0.3044
  958MOL0     C26381  10.054   3.390   4.540 -0.1832  0.8221 -0.2429
  958MOL0     O26382  10.193   3.412   4.542  0.3745  0.0449 -0.5261
  958MOL0     C26383  10.260   3.385   4.419  0.9418 -0.7116 -0.6786
  958MOL0     C26384  10.332   3.247   4.432  0.3963 -0.3165 -0.8754
  958MOL0     C26385  10.459   3.263   4.520 -0.8183  0.3861  0.2188
  958MOL0     C26386  10.558   3.361   4.454  0.0140 -0.0490  1.0656
  958MOL0     C26387  10.684   3.290   4.431  0.2514 -0.1159 -0.1063
  958MOL0     C26388  10.793   3.238   4.432  0.0061 -1.1327 -0.3301
  958MOL0     C26389   9.992   3.280   4.479  0.8938  0.0116  0.7288
  958MOL0     C26390   9.859   3.256   4.492  0.2048 -0.1968  0.4007
  958MOL0     H26391   9.461   3.022   4.393 -0.2344 -0.4445 -2.3117
  958MOL0     H26392   9.220   2.995   4.346 -4.0481  1.9165  1.8201
  958MOL0     H26393   8.919   3.322   4.445 -3.6135 -0.5679 -0.5046
  958MOL0     H26394   8.962   3.197   4.558  1.6001 -0.5937 -0.5621
  958MOL0     H26395   8.742   3.157   4.505 -0.2735  2.6037 -1.1650
  958MOL0     H26396   8.825   3.037   4.403 -1.3736 -0.1754  0.7057
  958MOL0     H26397   8.686   3.125   4.228  2.4138 -1.1505 -1.4318
  958MOL0     H26398   8.810   3.245   4.221 -1.9138  2.0451 -1.1108
  958MOL0     H26399   8.543   3.277   4.377 -1.6844  2.8662 -1.3341
  958MOL0     H26400   8.684   3.372   4.405  1.1659  2.9396 -2.4363
  958MOL0     H26401   8.704   3.445   4.184 -0.6198 -0.9270 -2.6126
  958MOL0     H26402   8.557   3.501   4.260 -3.3231 -0.9826  0.2242
  958MOL0     H26403   8.583   3.274   4.057  2.5846  0.4823 -1.4307
  958MOL0     H26404   8.553   3.443   4.013  0.3941  0.4985  1.0101
  958MOL0     H26405   8.368   3.287   4.208  0.2904  0.9928  0.1698
  958MOL0     H26406   8.348   3.442   4.121 -4.4352 -1.1563 -0.5281
  958MOL0     H26407   8.338   3.154   4.010  2.0002 -0.3121 -0.2440
  958MOL0     H26408   8.369   3.288   3.904 -1.7590  1.1823 -0.8341
  958MOL0     H26409   8.178   3.413   3.818  0.3308  0.7170  0.2169
  958MOL0     H26410   7.831   3.320   3.754 -2.1351  1.0059 -0.2578
  958MOL0     H26411   7.934   3.457   3.728 -1.3870 -2.4316 -1.4824
  958MOL0     H26412   7.721   3.434   3.957  1.3180 -0.3557  0.9799
  958MOL0     H26413   7.710   3.527   3.807 -1.3884  0.7364  1.7984
  958MOL0     H26414   7.742   3.691   3.955 -1.5725 -2.3480  3.6529
  958MOL0     H26415   7.855   3.590   4.054 -2.5860 -2.8329  0.7015
  958MOL0     H26416   7.929   3.815   3.930  2.3790  0.3416  1.8305
  958MOL0     H26417   7.918   3.724   3.780  0.3038 -0.3030  0.5398
  958MOL0     H26418   8.005   3.688   4.161 -0.0290 -0.2087 -0.5460
  958MOL0     H26419   8.156   3.754   4.336  1.1375  1.2023  0.1538
  958MOL0     H26420   8.758   3.631   4.393 -2.8130 -0.3658 -1.1347
  958MOL0     H26421   8.941   3.720   4.528  1.8385  2.6625  2.1359
  958MOL0     H26422   8.960   4.187   4.615 -0.5707  1.3125 -4.7661
  958MOL0     H26423   9.040   4.115   4.482  0.9342  1.1883  0.1791
  958MOL0     H26424   9.199   3.993   4.667 -0.1034 -0.5476 -2.2300
  958MOL0     H26425   9.142   4.117   4.768  2.0545 -1.4129  0.6824
  958MOL0     H26426   9.245   4.294   4.606 -1.1890 -0.1372  4.6364
  958MOL0     H26427   9.278   4.161   4.493 -1.4071  2.6113 -0.7593
  958MOL0     H26428   9.370   4.228   4.771 -0.8094  0.9776 -1.0636
  958MOL0     H26429   9.421   4.075   4.684 -0.2386 -0.2902  2.2261
  958MOL0     H26430   9.437   4.352   4.556 -0.3957 -0.3006  0.3354
  958MOL0     H26431   9.524   4.201   4.503 -0.6979 -2.1312  0.7683
  958MOL0     H26432   9.648   4.220   4.734 -1.4959 -1.5790 -2.5921
  958MOL0     H26433   9.578   4.385   4.754 -1.2210  2.2100 -3.5967
  958MOL0     H26434   9.762   4.253   4.547  1.7088 -0.4714  2.8484
  958MOL0     H26435   9.679   4.406   4.513  0.2689 -0.9022 -0.8710
  958MOL0     H26436   9.822   4.497   4.729  1.9593  1.3770  0.4225
  958MOL0     H26437   9.892   4.465   4.563 -0.5177 -0.3911 -1.0704
  958MOL0     H26438   8.761   4.112   4.519  1.5964 -0.3296 -0.5614
  958MOL0     H26439   8.581   4.015   4.360  2.7140 -1.2468 -4.8222
  958MOL0     H26440   8.479   3.773   4.045  0.3524 -2.1571 -0.7607
  958MOL0     H26441   8.300   3.756   3.857  0.7250 -0.7553  0.0151
  958MOL0     H26442   9.145   3.379   4.511 -0.7242 -1.2520 -1.1888
  958MOL0     H26443   9.365   3.408   4.570  0.7751 -2.0987  1.3222
  958MOL0     H26444   9.798   3.519   4.700  2.2365 -0.5814  0.2780
  958MOL0     H26445  10.019   3.568   4.639 -1.9654  2.6335 -0.6366
  958MOL0     H26446  10.335   3.464   4.408 -1.6227  1.6445 -2.5957
  958MOL0     H26447  10.196   3.387   4.331  0.5215 -0.1536 -0.3661
  958MOL0     H26448  10.261   3.176   4.477  1.1613  0.7226  2.2636
  958MOL0     H26449  10.359   3.218   4.331 -1.9236 -1.3141 -1.2718
  958MOL0     H26450  10.508   3.169   4.548  2.2719  1.0741 -2.3290
  958MOL0     H26451  10.439   3.306   4.619  1.3536 -2.4264  2.0411
  958MOL0     H26452  10.524   3.404   4.359 -2.7118 -0.4264  1.7776
  958MOL0     H26453  10.565   3.447   4.521 -2.6751  1.8720 -0.8716
  958MOL0     H26454  10.882   3.179   4.425  0.8546  0.1548 -0.6993
  958MOL0     H26455  10.057   3.206   4.433  0.6720 -1.0968  2.1304
  958MOL0     H26456   9.807   3.175   4.442 -2.2879  1.8779 -0.6491
  959MOL0     O26457   6.221   5.890   4.965  0.9960  0.1431 -0.6157
  959MOL0     C26458   6.218   5.980   5.055  0.1110 -0.0570 -0.3918
  959MOL0     O26459   6.135   6.097   5.050 -0.1594  0.1772  0.2323
  959MOL0     C26460   6.013   6.082   4.991  0.2743  0.3629 -0.2091
  959MOL0     C26461   5.957   6.190   4.929  0.5135 -0.5420  0.7278
  959MOL0     C26462   5.828   6.196   4.881  0.4872  0.7822  0.6211
  959MOL0     C26463   5.748   6.088   4.898  0.4360 -0.2237  0.0376
  959MOL0     O26464   5.616   6.095   4.847 -0.3233 -0.3238  0.2870
  959MOL0     C26465   5.526   5.995   4.897  0.4666  1.1483  0.4106
  959MOL0     C26466   5.385   6.053   4.860 -1.1145  0.0411 -0.5027
  959MOL0     C26467   5.343   6.165   4.959  0.1153  0.0912  0.3972
  959MOL0     C26468   5.228   6.258   4.914 -0.5887 -0.8002  0.7348
  959MOL0     C26469   5.103   6.194   4.864  1.1213 -0.6262  0.3438
  959MOL0     C26470   5.044   6.079   4.947  0.0780 -0.0495 -0.1026
  959MOL0     C26471   4.964   6.123   5.065  0.1262  0.4789  0.5843
  959MOL0     C26472   4.832   6.183   5.012  0.3709  0.4475  0.2999
  959MOL0     N26473   4.723   6.105   5.061  0.2051  0.5908 -0.3350
  959MOL0     C26474   4.714   6.078   5.194  0.4167  0.2083 -0.4345
  959MOL0     C26475   4.648   5.957   5.210  0.2879  0.1439 -0.0106
  959MOL0     C26476   4.625   5.886   5.340 -0.2768 -0.5423  0.5413
  959MOL0     C26477   4.577   5.970   5.464  0.2920  0.6695 -0.7194
  959MOL0     C26478   4.522   5.894   5.584 -0.1265 -0.0351  0.7063
  959MOL0     C26479   4.639   5.810   5.632 -0.5836  0.1927 -0.0616
  959MOL0     O26480   4.748   5.889   5.675 -0.6257 -0.1655  0.1018
  959MOL0     C26481   4.769   5.887   5.808 -0.1398 -0.4034 -0.3645
  959MOL0     C26482   4.902   5.876   5.846  0.5064  0.0944  0.2854
  959MOL0     C26483   4.941   5.889   5.978  0.1808 -0.7556 -0.4681
  959MOL0     C26484   4.845   5.910   6.076  0.1493 -0.7828 -0.7143
  959MOL0     C26485   4.887   5.930   6.216 -0.5460  0.1737  0.6140
  959MOL0     O26486   5.016   5.922   6.245 -0.2281  0.7538  0.4389
  959MOL0     C26487   5.061   5.864   6.358 -0.0850 -0.2484 -0.1790
  959MOL0     C26488   4.986   5.761   6.414 -0.4506 -0.7874 -0.1214
  959MOL0     C26489   5.042   5.697   6.530 -1.3223 -0.4905 -0.1350
  959MOL0     C26490   5.166   5.733   6.586  0.0744  0.8169 -0.9247
  959MOL0     O26491   5.188   5.664   6.703 -0.1279  0.1159  0.6603
  959MOL0     C26492   5.325   5.626   6.733 -0.3879 -0.7589  0.8922
  959MOL0     C26493   5.353   5.531   6.853  1.2235 -0.0158 -0.4080
  959MOL0     C26494   5.307   5.576   6.994 -0.5562 -0.1283 -0.4005
  959MOL0     C26495   5.340   5.485   7.109 -0.4754 -0.8564  0.3801
  959MOL0     C26496   5.292   5.546   7.236 -0.0882 -0.0494 -0.0884
  959MOL0     C26497   5.148   5.508   7.279 -0.1644 -0.5296 -0.3239
  959MOL0     C26498   5.096   5.585   7.395 -0.1458 -0.6142  1.0334
  959MOL0     C26499   4.944   5.551   7.417 -0.3308  0.8815 -1.1713
  959MOL0    Cl26500   4.827   5.624   7.310 -0.0001 -0.2606  0.5882
  959MOL0     C26501   5.239   5.835   6.528 -0.8820 -0.6555 -0.1722
  959MOL0     C26502   5.189   5.889   6.407 -0.1741 -0.0068 -0.3313
  959MOL0     O26503   4.792   5.930   6.298 -0.7921  0.3979 -0.0775
  959MOL0     C26504   4.708   5.918   6.038 -0.2819 -0.1040  0.1651
  959MOL0     C26505   4.669   5.896   5.908  0.1285 -0.0200 -0.2547
  959MOL0     N26506   4.608   5.926   5.081 -0.3216  0.6807 -0.9325
  959MOL0     N26507   4.653   6.009   4.995  0.0905 -0.1464  0.2533
  959MOL0     C26508   5.802   5.972   4.955  0.5283  0.0462 -0.3680
  959MOL0     C26509   5.926   5.970   5.007  0.0431 -0.0634 -0.2308
  959MOL0     C26510   6.302   5.966   5.176  0.0806  0.9986  0.2471
  959MOL0     C26511   6.301   6.067   5.279  0.1457  0.0506 -0.5335
  959MOL0     C26512   6.383   6.046   5.387  0.1445  0.7990 -0.7230
  959MOL0     C26513   6.479   5.941   5.384 -0.7185 -1.0591 -0.2490
  959MOL0     O26514   6.550   5.904   5.497  0.3726  0.6339 -0.0444
  959MOL0     C26515   6.633   6.007   5.544  0.4723  0.2951 -0.2661
  959MOL0     C26516   6.739   5.935   5.633 -0.0972  0.0296 -0.1156
  959MOL0     C26517   6.857   5.887   5.557 -0.5630  0.0312 -0.8967
  959MOL0     C26518   6.965   5.850   5.659 -0.3110 -0.2039 -0.0392
  959MOL0     C26519   7.040   5.969   5.699 -0.2258  0.2288  0.4107
  959MOL0     C26520   7.110   6.061   5.720  0.7802  0.1714 -0.1286
  959MOL0     C26521   6.465   5.841   5.287 -1.0375 -0.0533 -0.7773
  959MOL0     C26522   6.380   5.853   5.185  0.1564 -0.4417  0.2630
  959MOL0     H26523   6.018   6.280   4.921  0.4754 -0.5769 -0.0337
  959MOL0     H26524   5.792   6.282   4.826 -1.2580  0.1974  0.7721
  959MOL0     H26525   5.533   5.981   5.005 -0.3245  1.0475  0.4530
  959MOL0     H26526   5.539   5.903   4.839  0.6023  2.6886 -2.1126
  959MOL0     H26527   5.313   5.971   4.870 -0.2970 -0.7017 -0.5715
  959MOL0     H26528   5.378   6.086   4.756 -2.1752 -2.9726 -1.4903
  959MOL0     H26529   5.420   6.237   4.987 -0.9696  1.6451 -0.4930
  959MOL0     H26530   5.309   6.115   5.051 -0.5206 -0.9633 -0.3812
  959MOL0     H26531   5.205   6.326   4.996 -2.1792 -2.6146  1.8687
  959MOL0     H26532   5.262   6.329   4.837 -0.3508 -0.8503  0.7915
  959MOL0     H26533   5.125   6.156   4.763 -2.2512 -0.8037 -0.4441
  959MOL0     H26534   5.020   6.261   4.841 -0.5945 -2.9405 -0.6543
  959MOL0     H26535   5.119   6.004   4.974  1.8189  1.3699 -0.7938
  959MOL0     H26536   4.978   6.025   4.878 -0.1603  0.8325 -0.5769
  959MOL0     H26537   4.950   6.035   5.129 -2.3965  0.5663  0.2371
  959MOL0     H26538   5.012   6.204   5.120  2.2705  0.0937 -0.5731
  959MOL0     H26539   4.808   6.183   4.906 -2.3595 -3.9556  0.6978
  959MOL0     H26540   4.822   6.289   5.040  0.9342  0.1950  1.5505
  959MOL0     H26541   4.764   6.141   5.267  2.3009  0.7260 -2.0996
  959MOL0     H26542   4.711   5.827   5.372 -0.3941 -0.4952  0.9538
  959MOL0     H26543   4.544   5.815   5.324  2.2853 -3.8480  1.2384
  959MOL0     H26544   4.489   6.028   5.433 -1.9742 -0.8725  2.2544
  959MOL0     H26545   4.656   6.040   5.494 -0.2111 -0.1730  3.0992
  959MOL0     H26546   4.508   5.962   5.668  1.9283  0.5968  0.5973
  959MOL0     H26547   4.443   5.823   5.559  3.7155 -4.7332  0.3476
  959MOL0     H26548   4.661   5.736   5.555 -2.0799  0.2093 -0.5263
  959MOL0     H26549   4.599   5.753   5.716 -0.3754  1.3687  0.8674
  959MOL0     H26550   4.983   5.854   5.776 -0.2588 -2.4144  0.0878
  959MOL0     H26551   5.045   5.881   6.007 -0.5118  0.0277  2.5362
  959MOL0     H26552   4.884   5.739   6.385 -0.6821 -1.2179  0.9599
  959MOL0     H26553   4.985   5.617   6.576 -0.3758 -1.1102  0.0053
  959MOL0     H26554   5.392   5.708   6.761 -1.9616  1.1369 -0.5432
  959MOL0     H26555   5.368   5.585   6.641  2.9060  2.8099  0.5535
  959MOL0     H26556   5.457   5.497   6.858  1.2172 -0.1720 -1.1648
  959MOL0     H26557   5.299   5.438   6.828  0.2518  0.9044 -1.8980
  959MOL0     H26558   5.199   5.592   6.985 -0.9905 -1.3251  1.9269
  959MOL0     H26559   5.351   5.672   7.021 -0.2397  0.3999 -2.6091
  959MOL0     H26560   5.286   5.391   7.094 -2.4905  0.4223 -0.9635
  959MOL0     H26561   5.447   5.461   7.111  0.9269  3.8130 -2.2088
  959MOL0     H26562   5.313   5.654   7.230  2.5522 -0.5186 -0.3398
  959MOL0     H26563   5.353   5.511   7.319 -0.2699  0.2974  0.1970
  959MOL0     H26564   5.151   5.403   7.310  0.2279  0.2985  2.8461
  959MOL0     H26565   5.079   5.512   7.195  0.6942 -0.2361 -1.0222
  959MOL0     H26566   5.158   5.557   7.480  0.5545 -0.8027  0.4662
  959MOL0     H26567   5.109   5.693   7.382  2.2513 -0.8784  0.7340
  959MOL0     H26568   4.921   5.600   7.512 -1.3896  0.0613 -0.9930
  959MOL0     H26569   4.928   5.443   7.425 -2.2468  1.2743  3.5968
  959MOL0     H26570   5.331   5.872   6.572  1.1708  0.0440 -4.5796
  959MOL0     H26571   5.247   5.962   6.350  0.7229 -0.2746  0.2094
  959MOL0     H26572   4.629   5.930   6.111  1.1595  2.7591  1.3698
  959MOL0     H26573   4.562   5.892   5.888 -0.2931  1.0646  1.5529
  959MOL0     H26574   5.749   5.880   4.976  1.1283 -0.3375 -0.5126
  959MOL0     H26575   5.960   5.880   5.058 -3.5421 -2.2932 -1.4308
  959MOL0     H26576   6.229   6.147   5.282 -0.0563 -0.1599  0.6058
  959MOL0     H26577   6.379   6.108   5.476  1.6976 -1.6065  1.1322
  959MOL0     H26578   6.573   6.065   5.615 -2.0681 -1.8179 -0.5339
  959MOL0     H26579   6.679   6.065   5.464 -1.1950 -0.5364 -1.9081
  959MOL0     H26580   6.772   6.017   5.698  0.8875  0.6585 -1.3682
  959MOL0     H26581   6.687   5.858   5.691 -2.2357 -1.0046 -3.1596
  959MOL0     H26582   6.900   5.950   5.480 -0.6042 -0.1153 -1.0401
  959MOL0     H26583   6.805   5.799   5.519 -4.6791  1.2658  1.2422
  959MOL0     H26584   6.932   5.790   5.745 -0.0512  1.4448  1.2635
  959MOL0     H26585   7.036   5.783   5.610  0.8507  1.1220 -0.2411
  959MOL0     H26586   7.170   6.142   5.755  0.5134 -0.2562  1.3980
  959MOL0     H26587   6.520   5.747   5.297 -0.7978  0.2430  0.9399
  959MOL0     H26588   6.363   5.760   5.131 -0.4315 -1.2899  1.8456
  960MOL0     O26589   8.747   5.914   2.591 -0.2484  0.3619  0.6844
  960MOL0     C26590   8.842   5.903   2.511 -0.4298 -0.7723  0.2182
  960MOL0     O26591   8.832   5.886   2.381  0.3231  0.1688  0.4545
  960MOL0     C26592   8.705   5.917   2.318  0.2664  0.9052  0.2639
  960MOL0     C26593   8.699   6.004   2.209  0.1293 -0.4709  0.1170
  960MOL0     C26594   8.577   6.023   2.132  0.2506 -0.8945  0.1751
  960MOL0     C26595   8.457   5.948   2.164 -0.4723 -0.4868 -0.6811
  960MOL0     O26596   8.338   5.949   2.109 -0.3662 -0.0610 -0.4323
  960MOL0     C26597   8.303   6.045   2.011  0.5665 -0.1492 -0.7491
  960MOL0     C26598   8.155   6.009   1.965 -0.8123  0.2813 -0.5934
  960MOL0     C26599   8.083   6.122   1.901 -0.1390  0.1975  0.3812
  960MOL0     C26600   8.062   6.246   1.992  0.0248  0.8253  1.0644
  960MOL0     C26601   7.935   6.317   1.962  0.3482 -0.4527  0.1839
  960MOL0     C26602   7.867   6.375   2.091  0.4550  0.4751 -0.1079
  960MOL0     C26603   7.745   6.461   2.059 -0.5596  0.4179  0.0799
  960MOL0     C26604   7.766   6.585   1.973 -0.0420 -0.1923 -0.2122
  960MOL0     N26605   7.632   6.650   1.944  0.0496  0.5659 -0.9633
  960MOL0     C26606   7.597   6.693   1.819 -0.3048  0.1710  0.0254
  960MOL0     C26607   7.495   6.771   1.841  0.6570  0.5489  0.3616
  960MOL0     C26608   7.404   6.842   1.739 -0.8836  0.6422 -1.0896
  960MOL0     C26609   7.285   6.920   1.801  0.4543  0.6393 -0.0665
  960MOL0     C26610   7.185   6.966   1.700  0.0890 -0.3131 -0.5174
  960MOL0     C26611   7.239   7.071   1.599 -0.5554 -0.0614  0.2415
  960MOL0     O26612   7.144   7.127   1.515 -0.8562  0.0538 -0.0314
  960MOL0     C26613   7.072   7.053   1.422 -0.2830  0.7046 -0.5927
  960MOL0     C26614   6.944   7.091   1.375 -0.8183  0.1589  0.8542
  960MOL0     C26615   6.880   7.021   1.277 -1.4729 -0.3343 -0.0059
  960MOL0     C26616   6.939   6.907   1.219 -0.3977  0.5267 -0.4216
  960MOL0     C26617   6.848   6.823   1.134 -1.2453 -0.7870  0.0068
  960MOL0     O26618   6.740   6.882   1.082  0.4247  0.4413  0.1755
  960MOL0     C26619   6.670   6.810   0.986  0.1005 -0.1743  0.1559
  960MOL0     C26620   6.599   6.692   0.999  0.1428 -0.4365 -0.6652
  960MOL0     C26621   6.529   6.635   0.893 -0.5198 -0.4148  0.7662
  960MOL0     C26622   6.532   6.704   0.765 -0.6205  0.3167  0.5218
  960MOL0     O26623   6.455   6.640   0.665  0.4451 -0.5904 -0.5071
  960MOL0     C26624   6.429   6.707   0.547  1.2652 -0.5517  0.6316
  960MOL0     C26625   6.312   6.640   0.461  0.2035  0.9373  0.4436
  960MOL0     C26626   6.200   6.587   0.545 -0.2795  0.7118  0.1556
  960MOL0     C26627   6.079   6.527   0.483  0.1108  0.5320 -0.6242
  960MOL0     C26628   6.022   6.415   0.575 -0.2386 -0.1291  0.7899
  960MOL0     C26629   5.886   6.357   0.507  0.1350 -0.4311 -1.1359
  960MOL0     C26630   5.846   6.239   0.594  0.2258 -0.6989  0.2087
  960MOL0     C26631   5.726   6.176   0.532 -0.1393  0.1727  0.0944
  960MOL0    Cl26632   5.677   6.039   0.648 -0.0428  0.1124  0.1453
  960MOL0     C26633   6.623   6.818   0.749  0.0246  0.7493 -0.4442
  960MOL0     C26634   6.686   6.873   0.858  0.5341 -0.6769  0.1194
  960MOL0     O26635   6.883   6.702   1.123  0.8814 -0.0710  0.6973
  960MOL0     C26636   7.063   6.862   1.255  0.6687  0.1924 -0.6683
  960MOL0     C26637   7.134   6.939   1.356  0.1161  0.4339 -0.1606
  960MOL0     N26638   7.464   6.774   1.978  0.2174 -0.0722  0.0729
  960MOL0     N26639   7.545   6.696   2.040  0.7291 -0.4727 -0.0863
  960MOL0     C26640   8.472   5.858   2.270 -0.1705 -0.2103  0.0158
  960MOL0     C26641   8.588   5.840   2.347  1.1976  0.2699 -0.6501
  960MOL0     C26642   8.988   5.903   2.557 -0.5105  0.1774  0.4083
  960MOL0     C26643   9.094   5.882   2.466  0.3989 -0.3853 -1.2371
  960MOL0     C26644   9.228   5.890   2.507 -0.0561 -0.7305  0.0758
  960MOL0     C26645   9.257   5.917   2.644  0.2569  1.1544  0.5466
  960MOL0     O26646   9.382   5.900   2.701 -0.5028  0.3488 -0.1449
  960MOL0     C26647   9.502   5.946   2.639 -0.9015 -0.1368  0.6832
  960MOL0     C26648   9.544   6.069   2.724 -0.4132  0.4557  0.0890
  960MOL0     C26649   9.696   6.077   2.708 -0.0521 -0.7082  0.0249
  960MOL0     C26650   9.760   6.162   2.823 -0.0072 -0.0247 -0.1751
  960MOL0     C26651   9.907   6.185   2.796  0.1301  0.1107  0.4810
  960MOL0     C26652  10.029   6.183   2.761  0.2768 -0.4640  0.7917
  960MOL0     C26653   9.156   5.938   2.734 -0.0850 -0.1446  0.0394
  960MOL0     C26654   9.026   5.930   2.690  0.2574 -0.2774 -0.3865
  960MOL0     H26655   8.788   6.063   2.191 -0.1849 -0.3108 -0.9330
  960MOL0     H26656   8.562   6.099   2.055  0.3792 -0.4231  0.6160
  960MOL0     H26657   8.365   6.046   1.921  1.6866  0.4366 -0.0016
  960MOL0     H26658   8.314   6.147   2.052  2.2621 -0.4665 -0.3209
  960MOL0     H26659   8.095   5.977   2.050  0.8024  0.7136  0.7483
  960MOL0     H26660   8.161   5.921   1.900 -2.7937 -1.1590  1.0612
  960MOL0     H26661   7.988   6.078   1.870  0.1442  0.2692 -0.6153
  960MOL0     H26662   8.131   6.154   1.808 -0.2008  1.4311  0.7597
  960MOL0     H26663   8.061   6.227   2.100 -1.6467 -1.1433  0.7672
  960MOL0     H26664   8.147   6.311   1.971  2.2406 -1.9500  0.8053
  960MOL0     H26665   7.862   6.243   1.928 -0.7226  0.0808  1.2504
  960MOL0     H26666   7.952   6.391   1.883 -2.1439  0.7877  0.6858
  960MOL0     H26667   7.940   6.444   2.135 -1.3452  0.3647  3.4184
  960MOL0     H26668   7.848   6.310   2.177  2.3889 -2.4170 -1.6870
  960MOL0     H26669   7.671   6.398   2.010  0.2921 -0.1148 -0.5506
  960MOL0     H26670   7.705   6.498   2.154  0.9571  0.4443  0.7430
  960MOL0     H26671   7.823   6.569   1.881  3.9327 -1.0179  2.1476
  960MOL0     H26672   7.819   6.663   2.030 -4.4996  1.7633  1.8107
  960MOL0     H26673   7.643   6.667   1.725  1.2637  1.9693  0.2345
  960MOL0     H26674   7.354   6.759   1.688 -2.0044  0.4141  0.3273
  960MOL0     H26675   7.458   6.911   1.673  2.7761 -1.5031 -0.6270
  960MOL0     H26676   7.309   7.008   1.862 -2.2405 -0.2957  2.5305
  960MOL0     H26677   7.227   6.860   1.870 -2.1745  0.8316 -1.9719
  960MOL0     H26678   7.146   6.876   1.650  0.7756 -1.3747  0.7891
  960MOL0     H26679   7.097   7.010   1.749  0.1134 -1.6339  0.7778
  960MOL0     H26680   7.317   7.031   1.534 -0.9400  0.6685 -0.6912
  960MOL0     H26681   7.281   7.162   1.643  0.9220  2.1190 -4.9526
  960MOL0     H26682   6.898   7.189   1.390  2.2648  2.1897 -1.5913
  960MOL0     H26683   6.783   7.059   1.246 -0.0038  1.7222 -2.4075
  960MOL0     H26684   6.593   6.649   1.099 -0.0324  0.8063 -0.1302
  960MOL0     H26685   6.473   6.544   0.911  1.6491 -2.2632 -1.0648
  960MOL0     H26686   6.519   6.708   0.485  0.0972 -2.8988 -1.2702
  960MOL0     H26687   6.396   6.809   0.571  1.0811 -0.5629  0.4296
  960MOL0     H26688   6.353   6.553   0.409  1.1508  0.4040  2.0009
  960MOL0     H26689   6.281   6.721   0.395  0.3992 -0.2142 -1.1208
  960MOL0     H26690   6.169   6.665   0.615  0.6103  3.2833 -2.1512
  960MOL0     H26691   6.243   6.506   0.605 -1.1280 -0.1556 -0.3908
  960MOL0     H26692   6.009   6.606   0.454  0.5822  0.4545 -2.0672
  960MOL0     H26693   6.103   6.484   0.385  0.2605 -2.5237  0.6344
  960MOL0     H26694   6.008   6.456   0.676  0.4931 -2.4994  1.9292
  960MOL0     H26695   6.094   6.333   0.579  0.4246  0.2925 -1.3071
  960MOL0     H26696   5.901   6.306   0.411  0.4160 -1.4651 -0.5632
  960MOL0     H26697   5.804   6.428   0.501  0.0057 -0.5398 -0.6646
  960MOL0     H26698   5.930   6.169   0.596  0.9592  0.1441 -0.4599
  960MOL0     H26699   5.828   6.276   0.696  1.1633  2.9059 -0.7897
  960MOL0     H26700   5.748   6.130   0.435 -1.3937 -0.6142  0.1529
  960MOL0     H26701   5.637   6.236   0.511 -0.7574 -1.2040 -1.4488
  960MOL0     H26702   6.635   6.869   0.654  2.4397 -0.0023 -0.6199
  960MOL0     H26703   6.743   6.966   0.850  1.4415 -1.0818  1.4663
  960MOL0     H26704   7.110   6.771   1.220  0.2702 -0.9466  1.5838
  960MOL0     H26705   7.232   6.906   1.389  0.7313  1.0966 -1.2722
  960MOL0     H26706   8.382   5.805   2.299  1.2353 -3.1507 -0.5460
  960MOL0     H26707   8.587   5.753   2.412 -0.9572  0.1468 -0.7747
  960MOL0     H26708   9.072   5.854   2.363  1.0375 -1.0950 -1.1917
  960MOL0     H26709   9.301   5.857   2.434 -0.1282 -5.1388  1.7242
  960MOL0     H26710   9.481   5.979   2.537 -5.5565  0.3165  1.5472
  960MOL0     H26711   9.567   5.859   2.638 -0.6573  0.0274 -1.3787
  960MOL0     H26712   9.486   6.152   2.682 -0.3704 -0.0336 -0.9913
  960MOL0     H26713   9.532   6.052   2.831 -0.1810  0.7865  0.1693
  960MOL0     H26714   9.728   6.123   2.614  2.1619 -3.2166 -0.5555
  960MOL0     H26715   9.739   5.978   2.722 -2.9358 -2.2649 -1.4447
  960MOL0     H26716   9.711   6.259   2.825 -2.5335 -1.2142  1.4213
  960MOL0     H26717   9.739   6.119   2.921 -2.3650 -1.5657 -1.2539
  960MOL0     H26718  10.131   6.201   2.732  0.5620 -1.2267  1.2829
  960MOL0     H26719   9.181   5.958   2.838 -1.3695  0.1849  0.3016
  960MOL0     H26720   8.942   5.954   2.754  0.1873 -1.0174 -0.2011
  961MOL0     O26721   9.016  10.769  10.535  0.0669 -0.9828 -0.3947
  961MOL0     C26722   9.105  10.777  10.459 -1.1477  0.3390  0.1004
  961MOL0     O26723   9.125  10.695  10.348  0.1128 -0.1713  0.2832
  961MOL0     C26724   9.027  10.599  10.323 -0.1721 -0.4568 -0.4755
  961MOL0     C26725   9.058  10.474  10.353  0.1326  0.2550 -0.1234
  961MOL0     C26726   8.973  10.377  10.328  0.4463  0.3338  0.2283
  961MOL0     C26727   8.841  10.390  10.287  0.0005 -0.1417 -1.3163
  961MOL0     O26728   8.741  10.298  10.267 -0.4613 -0.0791 -0.2677
  961MOL0     C26729   8.746  10.170  10.329  0.2725  0.2920  1.6942
  961MOL0     C26730   8.625  10.081  10.312 -0.1683  0.0483 -0.0441
  961MOL0     C26731   8.495  10.154  10.367 -0.0199 -0.3744  0.3792
  961MOL0     C26732   8.496  10.217  10.502 -0.2961 -0.2692 -0.6717
  961MOL0     C26733   8.362  10.272  10.548  0.4197  0.5816 -0.6683
  961MOL0     C26734   8.317  10.398  10.480  0.5163  0.4625  0.6814
  961MOL0     C26735   8.361  10.541  10.525  0.2583  1.2247 -0.2910
  961MOL0     C26736   8.293  10.577  10.655 -0.0331 -1.1199 -0.7928
  961MOL0     N26737   8.145  10.581  10.653 -0.1148  0.4156  0.2733
  961MOL0     C26738   8.062  10.686  10.614  0.8185 -0.4023 -0.2467
  961MOL0     C26739   7.937  10.636  10.594  0.2774  0.6839 -0.1583
  961MOL0     C26740   7.810  10.711  10.555 -0.6441  0.2789 -0.4093
  961MOL0     C26741   7.714  10.743  10.666 -0.7729 -0.9883  0.6459
  961MOL0     C26742   7.587  10.830  10.627  0.1804  0.7609  0.7912
  961MOL0     C26743   7.448  10.768  10.658 -0.6129 -0.9816 -0.0402
  961MOL0     O26744   7.349  10.850  10.593  0.7760  0.5253  0.1641
  961MOL0     C26745   7.214  10.826  10.619 -0.3925  0.0199 -0.6394
  961MOL0     C26746   7.163  10.725  10.705 -0.0178 -0.0081  0.5477
  961MOL0     C26747   7.026  10.707  10.714 -0.7052  0.0997  0.1633
  961MOL0     C26748   6.934  10.800  10.656  0.1662  0.1071  0.1864
  961MOL0     C26749   6.793  10.774  10.675 -0.0366  0.4109 -0.2082
  961MOL0     O26750   6.704  10.868  10.617  0.2972  0.1289 -0.4317
  961MOL0     C26751   6.568  10.832  10.610 -0.6340 -0.1303  0.3614
  961MOL0     C26752   6.487  10.824  10.724 -0.1776  0.0024  0.0855
  961MOL0     C26753   6.349  10.803  10.714 -0.3384 -0.1175  0.3464
  961MOL0     C26754   6.285  10.786  10.590 -0.4671  0.4915 -0.3011
  961MOL0     O26755   6.149  10.763  10.591 -0.1504 -0.8691  0.1089
  961MOL0     C26756   6.075  10.753  10.468 -0.5167  0.1589 -0.9625
  961MOL0     C26757   5.925  10.750  10.502  0.3016 -0.6314 -0.1974
  961MOL0     C26758   5.878  10.879  10.566 -0.5679 -0.0887 -0.3888
  961MOL0     C26759   5.722  10.901  10.585 -0.2439  0.0107  0.9156
  961MOL0     C26760   5.648  10.889  10.452 -0.4050  0.7714  0.2988
  961MOL0     C26761   5.509  10.968  10.444  0.6830  0.0553 -0.6723
  961MOL0     C26762   5.410  10.925  10.327  0.4871  0.5679  0.4049
  961MOL0     C26763   5.265  10.950  10.352  0.3359 -0.0145 -0.3392
  961MOL0    Cl26764   5.239  11.120  10.410  0.3480  0.0393 -0.1117
  961MOL0     C26765   6.367  10.797  10.479  0.3380  0.1942 -0.3333
  961MOL0     C26766   6.503  10.828  10.487  0.2134 -0.6480 -0.0895
  961MOL0     O26767   6.756  10.657  10.708  0.1268  0.8838 -0.3054
  961MOL0     C26768   6.981  10.906  10.577 -0.6264  0.3721 -0.9919
  961MOL0     C26769   7.122  10.914  10.557  0.7254  0.3296 -0.5046
  961MOL0     N26770   7.956  10.496  10.608 -0.7292 -0.1715  0.4495
  961MOL0     N26771   8.068  10.470  10.661  0.0749 -0.1772 -0.6354
  961MOL0     C26772   8.804  10.526  10.261  0.1159  0.3013 -0.8156
  961MOL0     C26773   8.896  10.632  10.277  0.4885  0.9723 -0.6230
  961MOL0     C26774   9.203  10.881  10.498  0.0263 -0.2070 -1.4598
  961MOL0     C26775   9.291  10.922  10.394 -0.0466 -0.0608 -0.9355
  961MOL0     C26776   9.377  11.030  10.420  0.0414  0.2046 -0.0726
  961MOL0     C26777   9.370  11.094  10.545  0.2962 -0.0253  0.7130
  961MOL0     O26778   9.457  11.200  10.559  0.3115  0.0006  0.1244
  961MOL0     C26779   9.492  11.240  10.690 -0.8692 -0.2711 -0.2664
  961MOL0     C26780   9.590  11.357  10.677  1.4405 -0.1632 -0.7263
  961MOL0     C26781   9.507  11.474  10.618  0.3002  0.7262 -0.2085
  961MOL0     C26782   9.602  11.590  10.578  0.7526 -0.2699  0.3013
  961MOL0     C26783   9.551  11.724  10.592  0.2796 -0.1028  0.1444
  961MOL0     C26784   9.511  11.837  10.616  0.4407 -0.1505  0.1441
  961MOL0     C26785   9.284  11.057  10.644 -0.0790  0.3468 -0.4705
  961MOL0     C26786   9.201  10.948  10.620 -0.3307  0.5861  0.2780
  961MOL0     H26787   9.155  10.455  10.399 -0.6148 -0.3473  1.2671
  961MOL0     H26788   9.005  10.279  10.363 -2.0631  0.1181  2.1489
  961MOL0     H26789   8.783  10.180  10.431  1.7648  0.1828  1.1881
  961MOL0     H26790   8.819  10.119  10.265  0.0704  4.2928 -2.2328
  961MOL0     H26791   8.638   9.992  10.374  1.7813  0.7211  0.5553
  961MOL0     H26792   8.604  10.034  10.215 -2.2003  0.2334  0.2601
  961MOL0     H26793   8.419  10.076  10.378  2.0499 -2.3972  1.0923
  961MOL0     H26794   8.464  10.218  10.284  0.4581  0.6855  1.0016
  961MOL0     H26795   8.538  10.151  10.579 -3.5279  0.9147  2.3764
  961MOL0     H26796   8.567  10.300  10.501  0.1024 -0.5302  1.4079
  961MOL0     H26797   8.372  10.301  10.653 -1.0182  0.3227 -0.4388
  961MOL0     H26798   8.295  10.188  10.528  2.8054 -1.0190 -2.5149
  961MOL0     H26799   8.208  10.394  10.494  0.6975 -0.2736  2.0697
  961MOL0     H26800   8.343  10.376  10.376 -6.0003 -2.6237 -0.8102
  961MOL0     H26801   8.469  10.542  10.542  0.2112 -1.4069  0.6358
  961MOL0     H26802   8.338  10.610  10.443 -2.8597  1.0545  0.2919
  961MOL0     H26803   8.337  10.674  10.676  0.1408 -0.2912 -4.4035
  961MOL0     H26804   8.331  10.518  10.739 -0.9901  1.2459  1.4233
  961MOL0     H26805   8.094  10.789  10.608  1.2675 -0.6127 -3.2709
  961MOL0     H26806   7.762  10.660  10.471 -0.5744  0.3012 -0.4630
  961MOL0     H26807   7.840  10.809  10.517  0.4710 -0.8742 -2.7225
  961MOL0     H26808   7.776  10.800  10.737 -0.2739 -1.5976  0.7059
  961MOL0     H26809   7.681  10.648  10.709 -0.5621 -1.0333  0.7096
  961MOL0     H26810   7.582  10.930  10.670 -2.4535  1.3190 -0.6129
  961MOL0     H26811   7.586  10.859  10.522  0.8892  2.1249  1.1448
  961MOL0     H26812   7.432  10.764  10.766 -1.9519  0.2846 -0.1536
  961MOL0     H26813   7.442  10.669  10.612  0.4281 -0.7266 -0.7538
  961MOL0     H26814   7.226  10.652  10.754  0.3855 -1.5048 -2.0367
  961MOL0     H26815   6.989  10.634  10.785 -1.7222  2.0089  1.7095
  961MOL0     H26816   6.524  10.837  10.825 -0.6581  5.1896 -0.1031
  961MOL0     H26817   6.277  10.811  10.795 -2.5237 -0.0322 -1.4874
  961MOL0     H26818   6.119  10.672  10.408 -0.1866  0.3277 -0.9483
  961MOL0     H26819   6.100  10.840  10.407  1.7248  1.1853  1.2326
  961MOL0     H26820   5.895  10.666  10.567 -0.7071  0.5110  0.8693
  961MOL0     H26821   5.877  10.724  10.407  1.5143 -0.5707 -0.8388
  961MOL0     H26822   5.923  10.960  10.506  2.4138 -0.3317  1.2986
  961MOL0     H26823   5.921  10.886  10.666  0.8231  2.2906 -1.0723
  961MOL0     H26824   5.678  10.843  10.666  1.4960  0.3642  2.1649
  961MOL0     H26825   5.712  11.003  10.622  5.1529  0.3635  2.2047
  961MOL0     H26826   5.624  10.783  10.440 -2.0770  1.0575  0.8939
  961MOL0     H26827   5.718  10.927  10.377 -0.6672  1.6131  0.4661
  961MOL0     H26828   5.535  11.073  10.430  2.2080  0.0899  1.7184
  961MOL0     H26829   5.452  10.943  10.534  2.1953 -2.9394 -0.4244
  961MOL0     H26830   5.438  10.978  10.236  3.1970 -1.5920 -0.1651
  961MOL0     H26831   5.432  10.822  10.298 -0.7919 -0.0823  1.6072
  961MOL0     H26832   5.223  10.882  10.428  0.7052 -0.3053 -0.3941
  961MOL0     H26833   5.218  10.943  10.254 -0.6046 -1.5986  0.1718
  961MOL0     H26834   6.321  10.781  10.381  1.0877  0.8675 -0.8121
  961MOL0     H26835   6.550  10.838  10.390  2.7838  2.8563  1.3254
  961MOL0     H26836   6.917  10.971  10.519  0.3438  0.9294 -1.4524
  961MOL0     H26837   7.153  10.987  10.483  0.2522 -0.2434 -1.2877
  961MOL0     H26838   8.706  10.541  10.217  0.4122 -0.2017 -1.6686
  961MOL0     H26839   8.862  10.732  10.251 -1.1691  1.1142  1.6963
  961MOL0     H26840   9.307  10.868  10.301  1.6240 -1.6707  0.2134
  961MOL0     H26841   9.447  11.054  10.341 -0.6073  0.0140 -0.7127
  961MOL0     H26842   9.539  11.153  10.736  0.2742 -1.1557 -2.9012
  961MOL0     H26843   9.414  11.270  10.760 -0.1652  0.9657  0.0124
  961MOL0     H26844   9.611  11.384  10.781 -0.1161  0.4818 -0.5657
  961MOL0     H26845   9.680  11.335  10.618  1.4301  1.9076 -1.5787
  961MOL0     H26846   9.429  11.494  10.691  0.0951 -2.0289  0.4575
  961MOL0     H26847   9.454  11.447  10.527  0.5742 -1.3474  0.1880
  961MOL0     H26848   9.687  11.581  10.646 -0.4836  0.2774  1.9888
  961MOL0     H26849   9.633  11.584  10.474 -1.5730  2.1564 -0.6303
  961MOL0     H26850   9.493  11.941  10.635  2.1031 -0.0492  1.3354
  961MOL0     H26851   9.266  11.125  10.727 -4.0505  1.3867 -1.9597
  961MOL0     H26852   9.127  10.928  10.696  1.6232  0.4295  2.2505
  962MOL0     O26853   4.677   0.625   0.559  0.5427 -0.2673  0.0091
  962MOL0     C26854   4.688   0.578   0.668 -0.3899 -0.0813 -0.6548
  962MOL0     O26855   4.586   0.528   0.753 -0.5429 -1.0472 -0.1639
  962MOL0     C26856   4.452   0.527   0.720 -0.8812 -0.0294  0.2535
  962MOL0     C26857   4.398   0.558   0.590 -0.1394 -0.4354 -0.5499
  962MOL0     C26858   4.257   0.560   0.571  1.1017  0.4478 -0.1161
  962MOL0     C26859   4.168   0.525   0.678 -0.4377 -0.3575 -0.6784
  962MOL0     O26860   4.034   0.537   0.666  0.1211 -0.4710  0.0235
  962MOL0     C26861   3.977   0.456   0.558  0.0286 -0.0963 -0.7482
  962MOL0     C26862   3.925   0.534   0.437 -0.5294  0.0620  0.0991
  962MOL0     C26863   3.880   0.439   0.325 -0.7649 -0.1935  0.3414
  962MOL0     C26864   3.833   0.532   0.204 -0.3001 -0.1441 -0.6137
  962MOL0     C26865   3.795   0.431   0.100 -0.3176 -0.3601 -0.3877
  962MOL0     C26866   3.739   0.505  -0.021  0.9879  0.0786  0.6179
  962MOL0     C26867   3.597   0.560   0.005  0.5557 -0.0770  0.0609
  962MOL0     C26868   3.500   0.580  -0.114  0.0439 -0.0972 -0.2879
  962MOL0     N26869   3.554   0.647  -0.232  0.5321 -0.3762  0.4708
  962MOL0     C26870   3.547   0.613  -0.366 -0.0398  1.3481  0.2655
  962MOL0     C26871   3.566   0.732  -0.431  0.2069  0.1890  0.9725
  962MOL0     C26872   3.577   0.760  -0.576  0.9678 -0.6354 -0.1601
  962MOL0     C26873   3.436   0.791  -0.627 -0.2703 -0.1358 -0.4823
  962MOL0     C26874   3.449   0.843  -0.773  0.0449 -0.4064 -0.5714
  962MOL0     C26875   3.461   0.728  -0.866  0.1066  0.8416  0.7586
  962MOL0     O26876   3.458   0.759  -1.010  0.3906 -0.3562  0.0900
  962MOL0     C26877   3.575   0.791  -1.081  0.0513 -0.7907 -0.0437
  962MOL0     C26878   3.574   0.779  -1.224  0.3151 -0.6825  0.5043
  962MOL0     C26879   3.688   0.822  -1.309 -0.1516  0.2014 -0.3104
  962MOL0     C26880   3.807   0.862  -1.249 -0.0203 -0.6982  0.4127
  962MOL0     C26881   3.907   0.930  -1.331 -0.7925 -0.9362 -0.1234
  962MOL0     O26882   3.884   0.926  -1.469 -1.0452 -0.3441  0.1314
  962MOL0     C26883   3.945   1.026  -1.531 -0.5750 -1.0833  0.1326
  962MOL0     C26884   3.871   1.142  -1.550 -0.5307  0.3268  0.2007
  962MOL0     C26885   3.922   1.253  -1.618  0.2905  0.3528  0.5539
  962MOL0     C26886   4.040   1.243  -1.686  0.5868  0.3514  1.0948
  962MOL0     O26887   4.093   1.341  -1.776 -0.6271 -0.0350 -0.9358
  962MOL0     C26888   4.013   1.454  -1.802 -0.1641 -0.1379  0.7577
  962MOL0     C26889   4.102   1.561  -1.868 -0.5776  0.0874 -0.2752
  962MOL0     C26890   4.037   1.692  -1.909  0.1439 -0.1385  0.7384
  962MOL0     C26891   3.890   1.677  -1.945  0.6000 -0.2631 -0.7546
  962MOL0     C26892   3.837   1.816  -1.995  0.0243  0.7236  0.1927
  962MOL0     C26893   3.682   1.813  -1.978  0.2800 -0.2765  0.1058
  962MOL0     C26894   3.616   1.955  -2.015 -0.7070  0.1910 -0.1973
  962MOL0     C26895   3.464   1.948  -1.998  0.4618  0.1202 -0.0454
  962MOL0    Cl26896   3.399   1.847  -2.125  0.1927 -0.3613  0.7695
  962MOL0     C26897   4.105   1.114  -1.680  0.5043  0.0644  1.1456
  962MOL0     C26898   4.061   1.014  -1.605 -0.4308  0.7056 -0.0022
  962MOL0     O26899   4.010   0.981  -1.279  0.6332  0.0775  0.0283
  962MOL0     C26900   3.811   0.865  -1.109  0.0675  0.5543  0.3551
  962MOL0     C26901   3.700   0.827  -1.033 -0.8643  0.7194  0.3246
  962MOL0     N26902   3.579   0.835  -0.340  0.0080 -0.4800 -0.1035
  962MOL0     N26903   3.575   0.785  -0.222 -0.4442 -0.2091  0.2790
  962MOL0     C26904   4.223   0.494   0.805 -0.1325 -0.4525  0.4715
  962MOL0     C26905   4.362   0.496   0.820  0.1162  0.6844  0.8399
  962MOL0     C26906   4.830   0.558   0.724  1.1429  0.1197 -0.0568
  962MOL0     C26907   4.837   0.503   0.851 -1.1322 -0.0554  0.0355
  962MOL0     C26908   4.962   0.503   0.917  0.6664 -0.5154 -0.5692
  962MOL0     C26909   5.084   0.539   0.844  0.0389  0.6109 -0.1749
  962MOL0     O26910   5.216   0.531   0.884  0.0289  0.2952 -0.3782
  962MOL0     C26911   5.242   0.463   1.002  0.2149  0.0220  0.3291
  962MOL0     C26912   5.391   0.420   1.018  0.0502  0.2137 -0.7603
  962MOL0     C26913   5.485   0.532   1.045 -0.4428 -0.5231  0.8263
  962MOL0     C26914   5.630   0.486   1.050 -0.0261  0.9977 -0.0931
  962MOL0     C26915   5.730   0.584   1.034  0.3138 -0.3066  0.3461
  962MOL0     C26916   5.812   0.670   1.011 -1.0080 -0.0351 -0.7545
  962MOL0     C26917   5.066   0.579   0.709  0.2195  0.1100 -1.1531
  962MOL0     C26918   4.938   0.598   0.646  0.2017 -0.6864 -0.5457
  962MOL0     H26919   4.459   0.575   0.501  0.4562 -1.0606 -0.2739
  962MOL0     H26920   4.214   0.577   0.473  2.3580  0.1030 -0.7371
  962MOL0     H26921   3.891   0.401   0.597 -0.4097  1.0997  0.0126
  962MOL0     H26922   4.032   0.370   0.519 -1.7906 -1.6101 -0.1481
  962MOL0     H26923   4.000   0.605   0.401 -0.4465 -0.5535 -0.9779
  962MOL0     H26924   3.841   0.593   0.474 -1.1756 -0.0809 -1.0967
  962MOL0     H26925   3.792   0.380   0.350 -2.6306  2.2964 -0.0216
  962MOL0     H26926   3.955   0.380   0.271 -1.1739  1.5196 -2.3039
  962MOL0     H26927   3.741   0.585   0.230 -0.8092 -1.2978 -0.0237
  962MOL0     H26928   3.911   0.602   0.173 -1.0564  0.7386 -0.5639
  962MOL0     H26929   3.728   0.352   0.135 -0.1270 -0.2004  0.3478
  962MOL0     H26930   3.889   0.386   0.065  0.1260 -1.5442  2.1387
  962MOL0     H26931   3.729   0.439  -0.108  1.1883 -0.9442  1.3491
  962MOL0     H26932   3.804   0.590  -0.042  0.7147  0.5644  1.6640
  962MOL0     H26933   3.548   0.488   0.071  1.2645 -3.4021 -2.7580
  962MOL0     H26934   3.609   0.650   0.067 -3.7289 -1.0641  2.7335
  962MOL0     H26935   3.412   0.633  -0.076 -0.4557 -0.3938 -1.0204
  962MOL0     H26936   3.469   0.482  -0.152  0.5542 -0.6489  0.6783
  962MOL0     H26937   3.530   0.515  -0.409 -5.8469  0.9678  2.5899
  962MOL0     H26938   3.608   0.666  -0.623 -2.8644 -2.0560 -0.2716
  962MOL0     H26939   3.648   0.841  -0.591  0.7586 -0.8169 -2.5364
  962MOL0     H26940   3.390   0.870  -0.567  0.6851  0.0382  0.0378
  962MOL0     H26941   3.371   0.704  -0.623 -0.3173 -0.0611  2.9252
  962MOL0     H26942   3.358   0.900  -0.797 -0.6682 -1.0976  0.4089
  962MOL0     H26943   3.537   0.906  -0.787  1.0889 -1.9968 -1.3308
  962MOL0     H26944   3.369   0.673  -0.848 -0.1030  1.3909  1.4191
  962MOL0     H26945   3.548   0.666  -0.841  1.3423  1.2404 -2.1311
  962MOL0     H26946   3.477   0.763  -1.269  0.0431 -0.9992  1.1891
  962MOL0     H26947   3.667   0.825  -1.416 -1.6256 -0.3587 -0.0542
  962MOL0     H26948   3.766   1.143  -1.525 -0.7313  3.1872 -0.3453
  962MOL0     H26949   3.854   1.337  -1.619  1.5842  1.4285  0.6282
  962MOL0     H26950   3.975   1.494  -1.708  0.5013 -0.9341  1.3848
  962MOL0     H26951   3.941   1.427  -1.881  3.2892 -1.0588 -2.3571
  962MOL0     H26952   4.144   1.510  -1.955  0.2942 -1.7120  1.1318
  962MOL0     H26953   4.186   1.585  -1.802 -0.8437  0.0749  0.0719
  962MOL0     H26954   4.107   1.737  -1.979  1.5464 -1.2497  1.3745
  962MOL0     H26955   4.046   1.748  -1.816  2.2295 -1.5394  1.4579
  962MOL0     H26956   3.879   1.596  -2.018 -6.3460 -1.2198  0.6440
  962MOL0     H26957   3.838   1.641  -1.856  1.6010 -0.0274 -0.0675
  962MOL0     H26958   3.859   1.836  -2.100  1.5362  1.0033  0.5278
  962MOL0     H26959   3.870   1.898  -1.930  1.3899  0.2865  0.0956
  962MOL0     H26960   3.647   1.794  -1.876  0.4555 -3.2898 -0.3119
  962MOL0     H26961   3.661   1.734  -2.051 -1.0946 -1.8555  2.1141
  962MOL0     H26962   3.671   2.024  -1.950  0.0916 -0.6318  0.0249
  962MOL0     H26963   3.641   1.989  -2.116 -0.0320 -0.2439 -0.1865
  962MOL0     H26964   3.421   2.048  -2.004  2.8788  1.2137  0.0437
  962MOL0     H26965   3.429   1.908  -1.902  1.2300  0.1928  0.2748
  962MOL0     H26966   4.193   1.109  -1.744  0.6412 -3.0780  1.4481
  962MOL0     H26967   4.119   0.923  -1.593 -0.3170  0.6027 -1.1909
  962MOL0     H26968   3.903   0.900  -1.063  1.0010  0.3340 -1.2583
  962MOL0     H26969   3.720   0.811  -0.928  3.1702  1.8013 -0.1181
  962MOL0     H26970   4.160   0.470   0.890  0.4512 -1.4340  0.6461
  962MOL0     H26971   4.415   0.475   0.913  1.1824 -0.4884  0.0129
  962MOL0     H26972   4.749   0.477   0.910 -0.9926  0.0514  0.2949
  962MOL0     H26973   4.960   0.470   1.020 -0.1011 -0.3059 -0.5122
  962MOL0     H26974   5.198   0.363   1.005  0.2273  0.0476  2.0407
  962MOL0     H26975   5.203   0.519   1.087  3.5950  0.1107  1.9945
  962MOL0     H26976   5.400   0.358   1.108 -3.4599  0.8931  0.2174
  962MOL0     H26977   5.421   0.357   0.934 -2.1650 -1.6952 -0.2453
  962MOL0     H26978   5.453   0.587   1.135  0.8605  2.2671 -0.3084
  962MOL0     H26979   5.478   0.603   0.962  0.3091 -0.8337  0.4886
  962MOL0     H26980   5.653   0.437   1.145  0.5595  0.9517 -0.2524
  962MOL0     H26981   5.646   0.418   0.966 -0.4481  2.4845 -1.4100
  962MOL0     H26982   5.883   0.746   0.984 -0.1061 -0.7222 -0.3807
  962MOL0     H26983   5.160   0.604   0.660  0.3071 -0.7915 -1.4700
  962MOL0     H26984   4.921   0.642   0.548 -0.5693 -0.6552 -0.4048
  963MOL0     O26985   7.410   4.903   2.034  0.2632  0.2565 -1.2589
  963MOL0     C26986   7.471   4.933   1.932  0.6065  1.3924  0.2958
  963MOL0     O26987   7.596   4.979   1.924  0.3721 -0.1131  0.3336
  963MOL0     C26988   7.628   5.055   2.036  0.0701 -0.1781  0.7387
  963MOL0     C26989   7.692   5.003   2.146  0.3031 -0.3812  0.4896
  963MOL0     C26990   7.717   5.086   2.255 -0.6668 -0.5812  0.2935
  963MOL0     C26991   7.691   5.226   2.251  0.7527 -0.4892  0.8779
  963MOL0     O26992   7.713   5.316   2.349 -0.3203  0.1767 -0.1155
  963MOL0     C26993   7.847   5.374   2.380 -0.0580  0.8286  0.8529
  963MOL0     C26994   7.832   5.502   2.463  0.3034 -1.2325  0.5214
  963MOL0     C26995   7.798   5.616   2.364 -0.2105 -1.1086  0.0097
  963MOL0     C26996   7.922   5.662   2.285 -0.0076  0.1105 -0.0231
  963MOL0     C26997   7.888   5.788   2.204  0.3742 -0.1186  0.0331
  963MOL0     C26998   7.809   5.757   2.074 -0.8835  1.0184 -0.3846
  963MOL0     C26999   7.684   5.837   2.056  1.1334  0.3017 -0.4027
  963MOL0     C27000   7.704   5.986   2.030 -0.1661 -0.3577  0.2861
  963MOL0     N27001   7.592   6.075   1.989 -0.1854 -0.5686 -0.0686
  963MOL0     C27002   7.509   6.137   2.081 -0.4118 -0.3677  0.5091
  963MOL0     C27003   7.421   6.199   2.005  1.2194  0.1097 -1.1507
  963MOL0     C27004   7.319   6.292   2.049 -0.8626  0.7285 -0.5645
  963MOL0     C27005   7.331   6.436   1.996  0.0103  0.0677 -0.3401
  963MOL0     C27006   7.236   6.471   1.877 -0.0204 -0.5181  0.1558
  963MOL0     C27007   7.270   6.396   1.753  0.5099 -0.5096  0.9038
  963MOL0     O27008   7.235   6.483   1.639  0.8994 -0.0788  0.0180
  963MOL0     C27009   7.109   6.483   1.585  0.3848  1.3487  0.8957
  963MOL0     C27010   7.010   6.387   1.599  0.2445 -0.2635 -0.4498
  963MOL0     C27011   6.881   6.403   1.547 -0.2398  0.5631  1.0353
  963MOL0     C27012   6.849   6.524   1.476 -0.4111 -0.2618 -0.2372
  963MOL0     C27013   6.712   6.547   1.423 -0.8158  0.3649  0.2470
  963MOL0     O27014   6.606   6.468   1.460 -0.4657  0.0395  0.6143
  963MOL0     C27015   6.485   6.493   1.385 -0.7137  0.8859  0.3017
  963MOL0     C27016   6.427   6.388   1.311  1.4894 -0.1551  0.7351
  963MOL0     C27017   6.305   6.407   1.239 -0.4435  0.8543  0.7351
  963MOL0     C27018   6.248   6.532   1.228  0.3380 -0.5386  0.5008
  963MOL0     O27019   6.146   6.539   1.132  0.5460 -0.0886  0.5315
  963MOL0     C27020   6.025   6.611   1.155  0.7274  0.5669 -0.0942
  963MOL0     C27021   5.910   6.555   1.077 -0.3988  0.1882 -0.2460
  963MOL0     C27022   5.782   6.608   1.137 -0.2306  0.1365 -0.3142
  963MOL0     C27023   5.661   6.558   1.062 -0.7029  1.0172  0.6888
  963MOL0     C27024   5.538   6.618   1.137  0.3096  0.1511  0.5836
  963MOL0     C27025   5.408   6.561   1.090  0.2349  0.1638  0.3694
  963MOL0     C27026   5.376   6.627   0.954  0.6504  0.5253 -0.1926
  963MOL0     C27027   5.242   6.572   0.887  0.5164  0.9399 -0.0282
  963MOL0    Cl27028   5.096   6.596   0.999  0.0473  0.2473  0.2548
  963MOL0     C27029   6.303   6.639   1.301  0.4138  0.1674 -0.5515
  963MOL0     C27030   6.420   6.619   1.374  0.2620  0.4026 -0.0880
  963MOL0     O27031   6.705   6.648   1.355 -0.2084  0.0174  0.4431
  963MOL0     C27032   6.947   6.617   1.465 -0.4014  0.2727  1.1400
  963MOL0     C27033   7.073   6.589   1.511 -0.3585 -0.5466 -0.5749
  963MOL0     N27034   7.456   6.185   1.874  0.0523 -0.0155 -1.0059
  963MOL0     N27035   7.554   6.107   1.867 -0.3449  0.4411 -0.4897
  963MOL0     C27036   7.626   5.274   2.130 -1.0234  0.5380 -0.0907
  963MOL0     C27037   7.595   5.188   2.029 -0.2668  0.6678 -0.7211
  963MOL0     C27038   7.411   4.888   1.807  0.5396  0.3553  0.4796
  963MOL0     C27039   7.287   4.812   1.807 -1.1232 -0.2693 -0.2435
  963MOL0     C27040   7.236   4.756   1.681  0.9895 -0.3033  0.3036
  963MOL0     C27041   7.306   4.781   1.560  0.5352 -0.3173 -0.2216
  963MOL0     O27042   7.270   4.721   1.445  0.1763 -0.1219 -0.1375
  963MOL0     C27043   7.218   4.587   1.455 -1.2045  0.5174  0.5267
  963MOL0     C27044   7.277   4.508   1.332  0.4500  0.0169 -0.4375
  963MOL0     C27045   7.245   4.363   1.343  0.5081  0.0061  0.5869
  963MOL0     C27046   7.352   4.284   1.422  0.3710 -0.5012 -0.2568
  963MOL0     C27047   7.308   4.147   1.437 -0.2746 -0.2217 -0.3862
  963MOL0     C27048   7.259   4.041   1.474 -0.7308 -0.8103  0.5009
  963MOL0     C27049   7.431   4.845   1.564 -0.4407  0.7093 -0.1028
  963MOL0     C27050   7.476   4.908   1.680 -0.8973 -0.7234  0.0022
  963MOL0     H27051   7.729   4.901   2.145  0.3442 -0.3670  0.5567
  963MOL0     H27052   7.767   5.050   2.344 -4.4133  1.1976  3.3924
  963MOL0     H27053   7.914   5.400   2.298  2.0891 -1.9900  1.5917
  963MOL0     H27054   7.901   5.304   2.444  1.3240 -1.9424 -2.9313
  963MOL0     H27055   7.927   5.517   2.515  1.4764  1.3107 -2.0595
  963MOL0     H27056   7.753   5.489   2.537 -0.7404  0.6753 -0.1698
  963MOL0     H27057   7.768   5.709   2.413  0.1216  0.6049 -2.7791
  963MOL0     H27058   7.715   5.579   2.302  0.3605  0.0728 -1.5435
  963MOL0     H27059   7.993   5.689   2.364 -2.2606 -2.2829  3.0461
  963MOL0     H27060   7.968   5.584   2.225  0.0314  0.2530 -0.1796
  963MOL0     H27061   7.975   5.852   2.189 -2.1801  3.5093 -0.8845
  963MOL0     H27062   7.830   5.858   2.266 -1.8050 -1.7818 -0.0182
  963MOL0     H27063   7.774   5.654   2.081  1.0100  0.4128  0.5837
  963MOL0     H27064   7.875   5.758   1.987 -0.8704 -0.9209 -0.4226
  963MOL0     H27065   7.637   5.793   1.968 -0.8541  3.1635 -0.8786
  963MOL0     H27066   7.612   5.822   2.136  2.2192 -0.7449  0.4267
  963MOL0     H27067   7.779   5.988   1.950 -0.8629 -0.4174 -0.3819
  963MOL0     H27068   7.746   6.033   2.120  1.0140 -3.2206  1.3453
  963MOL0     H27069   7.515   6.150   2.189 -1.4706  0.5356  0.4744
  963MOL0     H27070   7.323   6.301   2.158 -0.3703 -0.2499 -0.4979
  963MOL0     H27071   7.224   6.258   2.006  0.6673  1.0195 -4.6281
  963MOL0     H27072   7.436   6.449   1.967  0.4936 -2.8219 -0.1888
  963MOL0     H27073   7.308   6.513   2.070 -0.4688  2.2162 -2.6153
  963MOL0     H27074   7.140   6.440   1.921  0.7446 -1.0168  1.5503
  963MOL0     H27075   7.239   6.576   1.848  0.8478 -0.6193 -0.1425
  963MOL0     H27076   7.225   6.297   1.740  1.8353 -1.2916  2.0179
  963MOL0     H27077   7.376   6.373   1.740  0.2581 -0.5704 -1.5628
  963MOL0     H27078   7.035   6.290   1.640  0.0871  0.7972  2.3266
  963MOL0     H27079   6.827   6.311   1.565  1.5046 -0.4738  1.2912
  963MOL0     H27080   6.469   6.288   1.321 -1.2177 -1.3860  0.5277
  963MOL0     H27081   6.265   6.324   1.181  1.2885  1.9746 -2.3289
  963MOL0     H27082   6.039   6.715   1.126 -0.1377  0.5596 -0.5492
  963MOL0     H27083   6.008   6.593   1.262  2.5551  0.4503  0.2152
  963MOL0     H27084   5.908   6.445   1.080  0.3435  0.1730 -0.2184
  963MOL0     H27085   5.926   6.577   0.971  2.1429 -1.1432 -0.1995
  963MOL0     H27086   5.793   6.716   1.141  0.5724  0.0386  2.8814
  963MOL0     H27087   5.774   6.579   1.242 -0.8056  0.4359 -0.2703
  963MOL0     H27088   5.671   6.566   0.953 -1.2495  0.1234  0.5682
  963MOL0     H27089   5.664   6.453   1.092  2.2301  0.9993  0.5463
  963MOL0     H27090   5.551   6.725   1.121  2.0469 -0.2171 -0.8049
  963MOL0     H27091   5.547   6.582   1.240 -0.7365  0.6444  0.8639
  963MOL0     H27092   5.335   6.569   1.171 -1.7295 -2.5636 -0.9472
  963MOL0     H27093   5.416   6.453   1.075 -1.9595  0.0463 -0.3232
  963MOL0     H27094   5.366   6.731   0.985 -0.8931  0.6431 -0.9921
  963MOL0     H27095   5.454   6.610   0.880 -0.2735 -0.1159 -1.0540
  963MOL0     H27096   5.252   6.464   0.878  0.5634  1.0073 -0.8223
  963MOL0     H27097   5.222   6.610   0.786 -0.1606  0.2619 -0.1581
  963MOL0     H27098   6.259   6.738   1.303  0.2243  0.1039  2.0821
  963MOL0     H27099   6.456   6.702   1.434  0.5441  0.4541 -0.3252
  963MOL0     H27100   6.926   6.710   1.413  3.2582  0.2427 -0.7179
  963MOL0     H27101   7.139   6.674   1.493  0.5093 -0.6848  1.6657
  963MOL0     H27102   7.620   5.379   2.103 -0.5415  0.2417 -1.4298
  963MOL0     H27103   7.532   5.228   1.951 -1.0729  0.7643 -0.0417
  963MOL0     H27104   7.232   4.801   1.900 -0.2944 -1.4575  0.1302
  963MOL0     H27105   7.139   4.707   1.678  2.2179 -2.8729 -2.5756
  963MOL0     H27106   7.109   4.592   1.464 -1.2134  3.1891 -0.0903
  963MOL0     H27107   7.253   4.536   1.545 -0.4845 -0.6732 -0.4033
  963MOL0     H27108   7.241   4.551   1.238 -0.7056 -1.7663 -0.8643
  963MOL0     H27109   7.386   4.520   1.331  0.5879 -0.5383 -3.5094
  963MOL0     H27110   7.237   4.314   1.245 -0.1649 -1.6118  1.3989
  963MOL0     H27111   7.147   4.350   1.390 -0.0798 -1.7783 -0.9779
  963MOL0     H27112   7.450   4.275   1.376  1.9570  1.4502  2.4363
  963MOL0     H27113   7.370   4.345   1.512  2.3130 -1.7716  0.2751
  963MOL0     H27114   7.245   3.942   1.511 -2.1503 -1.8929 -2.6057
  963MOL0     H27115   7.474   4.857   1.465  1.5397 -0.5406  0.5457
  963MOL0     H27116   7.561   4.974   1.675 -2.2246  1.3869  2.5800
  964MOL0     O27117   7.803   0.180  10.042 -0.1020 -0.2186 -0.1688
  964MOL0     C27118   7.843   0.110  10.135  0.2356  0.4303  0.7229
  964MOL0     O27119   7.782  -0.004  10.184 -0.3329 -0.3017  0.2788
  964MOL0     C27120   7.655  -0.046  10.135 -0.0266  0.2826 -0.4998
  964MOL0     C27121   7.534  -0.005  10.195 -0.3019  0.5050 -0.1859
  964MOL0     C27122   7.413  -0.052  10.159  0.4195 -0.7776 -0.2767
  964MOL0     C27123   7.402  -0.159  10.072  0.1641  1.1766  0.2135
  964MOL0     O27124   7.274  -0.205  10.038 -0.3543 -0.3544 -0.2552
  964MOL0     C27125   7.185  -0.225  10.147 -0.4499  0.3944  0.4623
  964MOL0     C27126   7.082  -0.317  10.077 -0.2760  0.2357 -0.6769
  964MOL0     C27127   6.950  -0.328  10.158  0.0778  0.4202 -0.0388
  964MOL0     C27128   6.847  -0.407  10.066 -0.0357 -0.2773 -0.2465
  964MOL0     C27129   6.704  -0.398  10.116  0.2583 -0.8609 -0.1779
  964MOL0     C27130   6.601  -0.476  10.031  0.1561  0.6187 -0.0332
  964MOL0     C27131   6.465  -0.435  10.065  0.0565  0.8592 -0.5336
  964MOL0     C27132   6.366  -0.505   9.963  0.5827  0.4435  0.6092
  964MOL0     N27133   6.230  -0.488  10.000 -1.0514 -0.7595 -0.0777
  964MOL0     C27134   6.122  -0.439   9.919  0.3459 -0.9198 -0.6541
  964MOL0     C27135   6.013  -0.431  10.000  0.4722 -0.1672 -0.0571
  964MOL0     C27136   5.881  -0.376   9.960  0.3160  0.7851 -0.2559
  964MOL0     C27137   5.760  -0.433  10.040  0.1464  0.0052 -0.3687
  964MOL0     C27138   5.732  -0.576   9.990  0.0623 -0.8292  0.1654
  964MOL0     C27139   5.581  -0.601  10.024  0.4117  0.4207  0.3850
  964MOL0     O27140   5.496  -0.547   9.921  0.2582 -0.0791  0.5627
  964MOL0     C27141   5.355  -0.551   9.924 -0.6442  0.1989  0.0512
  964MOL0     C27142   5.284  -0.621  10.018  0.6588  0.7341  0.1225
  964MOL0     C27143   5.148  -0.630  10.028  0.3572 -0.2439 -0.2936
  964MOL0     C27144   5.076  -0.562   9.930  0.4973 -0.8622  0.0017
  964MOL0     C27145   4.933  -0.581   9.914 -0.3807 -0.9512  0.6273
  964MOL0     O27146   4.868  -0.659  10.011 -0.6538  0.0347  0.1639
  964MOL0     C27147   4.733  -0.685  10.001  0.0235 -1.2955  0.8072
  964MOL0     C27148   4.650  -0.658  10.105 -0.2656  0.0586 -0.8285
  964MOL0     C27149   4.511  -0.687  10.110 -0.5947  1.1291 -0.2553
  964MOL0     C27150   4.456  -0.755  10.002 -0.7050 -0.9436  1.0329
  964MOL0     O27151   4.322  -0.788   9.984  0.0889 -0.2671  0.0021
  964MOL0     C27152   4.220  -0.725  10.054 -0.1714  0.5938  0.0212
  964MOL0     C27153   4.152  -0.835  10.126  0.5144  0.3274 -0.0513
  964MOL0     C27154   4.032  -0.778  10.196 -1.3774  1.0328 -1.7070
  964MOL0     C27155   3.984  -0.884  10.301  0.3734 -0.2719  0.1061
  964MOL0     C27156   3.843  -0.851  10.361 -0.1716  0.2903 -0.0242
  964MOL0     C27157   3.721  -0.870  10.267 -0.2458 -0.1598  0.0791
  964MOL0     C27158   3.593  -0.832  10.347  0.0784  0.4944  0.6289
  964MOL0     C27159   3.572  -0.683  10.365 -0.3030  0.3726 -0.1668
  964MOL0    Cl27160   3.438  -0.659  10.489  0.4439  0.0511  0.4155
  964MOL0     C27161   4.542  -0.788   9.890  1.1550  0.0772 -0.4409
  964MOL0     C27162   4.679  -0.753   9.895  0.1731  0.1237  0.5004
  964MOL0     O27163   4.880  -0.529   9.812 -0.6916  0.6749  0.1449
  964MOL0     C27164   5.153  -0.491   9.828  0.8366  0.1198 -0.2910
  964MOL0     C27165   5.286  -0.491   9.823  0.0883  0.1258 -0.4413
  964MOL0     N27166   6.049  -0.464  10.126 -0.0632  0.1843  0.4396
  964MOL0     N27167   6.175  -0.502  10.125 -0.0310 -1.0876  0.2932
  964MOL0     C27168   7.516  -0.196  10.008 -1.0916  0.2905 -0.6689
  964MOL0     C27169   7.646  -0.147  10.038  0.9106  0.0612  0.8138
  964MOL0     C27170   7.969   0.155  10.192  0.2254 -0.0036 -0.3574
  964MOL0     C27171   8.034   0.266  10.139  0.1816 -0.1817  0.5449
  964MOL0     C27172   8.159   0.306  10.176 -0.5973 -0.1231  0.2287
  964MOL0     C27173   8.235   0.226  10.268  0.0476 -0.0139  0.0670
  964MOL0     O27174   8.368   0.239  10.289 -0.8551 -0.0902 -0.1976
  964MOL0     C27175   8.454   0.316  10.204  0.3289 -1.1809 -0.1537
  964MOL0     C27176   8.586   0.255  10.204  0.4610  0.1458  0.4797
  964MOL0     C27177   8.679   0.341  10.108  0.8696 -0.8536 -1.0015
  964MOL0     C27178   8.823   0.333  10.142 -0.2410 -0.3138 -0.5526
  964MOL0     C27179   8.903   0.418  10.059  0.1819 -0.3740  0.7186
  964MOL0     C27180   8.960   0.504   9.994  1.0445 -0.1569 -0.4934
  964MOL0     C27181   8.174   0.116  10.325  0.3309  0.2012 -0.0027
  964MOL0     C27182   8.045   0.081  10.284  0.7477 -0.2911 -0.1699
  964MOL0     H27183   7.552   0.065  10.276 -0.6282  1.5298 -0.9791
  964MOL0     H27184   7.333  -0.003  10.214  1.2746  0.0881  0.2326
  964MOL0     H27185   7.143  -0.133  10.188  2.3558  1.7633  0.4776
  964MOL0     H27186   7.231  -0.277  10.232 -1.0231  0.1809  0.6456
  964MOL0     H27187   7.129  -0.413  10.054  0.2692 -0.2507  2.2021
  964MOL0     H27188   7.054  -0.274   9.980 -1.2476  2.0642  0.3639
  964MOL0     H27189   6.912  -0.232  10.192 -0.8119 -0.1878  0.7349
  964MOL0     H27190   6.979  -0.378  10.251  1.2899  3.0614  1.1036
  964MOL0     H27191   6.847  -0.372   9.962 -0.2238 -0.0977 -0.1858
  964MOL0     H27192   6.875  -0.513  10.068  0.9816 -0.0072  1.2152
  964MOL0     H27193   6.674  -0.293  10.120  2.3993 -0.1740 -0.6329
  964MOL0     H27194   6.695  -0.433  10.220 -0.8846  3.5429  1.4320
  964MOL0     H27195   6.600  -0.585  10.041 -1.2717  0.3948 -2.0118
  964MOL0     H27196   6.626  -0.448   9.928  2.0011  0.8820  0.4463
  964MOL0     H27197   6.434  -0.457  10.168  0.7580  2.4560  0.0645
  964MOL0     H27198   6.448  -0.327  10.054 -2.8929  0.3086 -2.4853
  964MOL0     H27199   6.391  -0.610   9.946 -0.1027  0.4350 -0.4649
  964MOL0     H27200   6.378  -0.453   9.868 -1.2867  0.6586  0.4476
  964MOL0     H27201   6.123  -0.415   9.814  0.3060  0.4842 -0.3542
  964MOL0     H27202   5.869  -0.392   9.852  1.3324  3.9392 -0.9599
  964MOL0     H27203   5.897  -0.269   9.977 -2.2466  1.1539  0.2654
  964MOL0     H27204   5.672  -0.371  10.024 -1.1070 -0.9270  2.2565
  964MOL0     H27205   5.772  -0.431  10.149 -2.1620  3.0539 -0.0276
  964MOL0     H27206   5.745  -0.583   9.882 -0.2530 -1.9757  0.1853
  964MOL0     H27207   5.802  -0.646  10.037  0.6427 -0.6230 -0.3773
  964MOL0     H27208   5.550  -0.541  10.111  3.0527  0.3852  1.4344
  964MOL0     H27209   5.557  -0.706  10.040 -0.0318  0.3376 -0.7775
  964MOL0     H27210   5.339  -0.669  10.099 -0.2435  1.5066  1.2269
  964MOL0     H27211   5.101  -0.698  10.099  0.7339  1.2648  1.4672
  964MOL0     H27212   4.689  -0.612  10.196  1.3184 -0.7733 -1.0693
  964MOL0     H27213   4.450  -0.663  10.196 -2.0773 -2.5662 -0.1310
  964MOL0     H27214   4.145  -0.664  10.004 -4.3091 -4.3240 -0.6632
  964MOL0     H27215   4.260  -0.651  10.124 -2.0128 -1.1027  3.1526
  964MOL0     H27216   4.220  -0.878  10.200 -0.0574 -3.1291 -1.3499
  964MOL0     H27217   4.127  -0.913  10.053 -0.5885 -0.9897  1.6405
  964MOL0     H27218   3.947  -0.749  10.133 -2.2823 -0.6508 -1.3348
  964MOL0     H27219   4.069  -0.689  10.248  3.7723 -0.6258 -2.0152
  964MOL0     H27220   3.982  -0.982  10.254  3.6850 -0.0013 -0.8297
  964MOL0     H27221   4.065  -0.891  10.374  0.5644 -2.5989 -0.2546
  964MOL0     H27222   3.852  -0.750  10.401  5.2427  0.6182 -1.2488
  964MOL0     H27223   3.829  -0.913  10.450 -1.3199  3.4820  2.1848
  964MOL0     H27224   3.711  -0.974  10.236 -0.8649 -0.3911  1.0080
  964MOL0     H27225   3.743  -0.809  10.180  1.8647  1.9139  1.9121
  964MOL0     H27226   3.507  -0.869  10.291  0.7516  2.0289 -1.5405
  964MOL0     H27227   3.611  -0.879  10.445  2.5963  0.4263  0.2019
  964MOL0     H27228   3.545  -0.647  10.265  0.8246 -0.3315 -0.7436
  964MOL0     H27229   3.661  -0.624  10.389 -0.9424  1.4214 -0.2835
  964MOL0     H27230   4.489  -0.831   9.806  0.0419  1.9422 -0.7564
  964MOL0     H27231   4.755  -0.757   9.817 -0.2566 -0.0751  0.0830
  964MOL0     H27232   5.099  -0.428   9.758 -0.7988  1.0359  1.6844
  964MOL0     H27233   5.337  -0.429   9.750 -0.7124  2.5208  0.9347
  964MOL0     H27234   7.502  -0.278   9.939  0.3376 -0.4610 -0.1133
  964MOL0     H27235   7.728  -0.189   9.982 -0.3143 -0.2262 -0.8451
  964MOL0     H27236   7.987   0.329  10.063  3.8049  0.4605 -1.4099
  964MOL0     H27237   8.205   0.396  10.136 -0.0260 -0.2528  0.5812
  964MOL0     H27238   8.465   0.416  10.246  1.1060 -1.1938 -0.3218
  964MOL0     H27239   8.410   0.314  10.104 -1.6041  2.0377  0.4991
  964MOL0     H27240   8.633   0.260  10.303  0.9655 -2.1923  0.4158
  964MOL0     H27241   8.587   0.151  10.173  0.4310  0.6241 -1.2014
  964MOL0     H27242   8.651   0.446  10.124  2.4402 -0.2545 -2.0091
  964MOL0     H27243   8.668   0.314  10.003 -0.9827 -2.1815 -0.5292
  964MOL0     H27244   8.838   0.349  10.249 -0.3084  0.5876 -0.6749
  964MOL0     H27245   8.868   0.235  10.122 -1.2560 -1.0472  0.6601
  964MOL0     H27246   9.008   0.587   9.945 -1.2402 -0.8892 -4.3679
  964MOL0     H27247   8.232   0.069  10.404  0.4925  1.4815  0.6637
  964MOL0     H27248   7.999  -0.013  10.315  0.5290 -0.3920 -0.7853
  965MOL0     O27249   1.933  10.802  10.753  0.0271 -0.1463 -0.7031
  965MOL0     C27250   1.942  10.922  10.735  0.1303 -0.2265 -0.7779
  965MOL0     O27251   1.847  11.011  10.776  0.0430  0.6174 -0.6675
  965MOL0     C27252   1.721  10.972  10.773  0.5080 -0.4569  0.2936
  965MOL0     C27253   1.653  11.005  10.886  0.0994  0.4952  0.3308
  965MOL0     C27254   1.514  11.007  10.900 -0.6313  0.3092 -0.0176
  965MOL0     C27255   1.436  10.971  10.790  0.0316  0.3109  0.0704
  965MOL0     O27256   1.300  10.955  10.786 -0.5382 -0.3412  0.1479
  965MOL0     C27257   1.224  10.979  10.906  0.3710 -0.3043  0.9038
  965MOL0     C27258   1.081  10.932  10.890  0.2938  0.3290 -0.1732
  965MOL0     C27259   1.065  10.785  10.916  0.9157 -1.0450 -0.5963
  965MOL0     C27260   0.913  10.735  10.939  0.1057  0.9129  0.3505
  965MOL0     C27261   0.838  10.749  10.811 -0.1905  0.1319  0.7966
  965MOL0     C27262   0.889  10.646  10.707 -0.6592  0.2320  0.6716
  965MOL0     C27263   0.782  10.616  10.604 -0.3435 -0.2296 -0.1668
  965MOL0     C27264   0.840  10.517  10.495  0.4893 -0.1953 -0.5685
  965MOL0     N27265   0.729  10.425  10.444  0.5393  0.0192  0.4100
  965MOL0     C27266   0.665  10.440  10.318 -0.2660  0.4997 -0.1320
  965MOL0     C27267   0.601  10.326  10.293  0.0256  1.3202  0.4631
  965MOL0     C27268   0.513  10.295  10.169  0.8804 -0.2572 -0.3424
  965MOL0     C27269   0.458  10.142  10.170 -1.1990 -0.4497 -0.2451
  965MOL0     C27270   0.352  10.123  10.061  0.7124  0.9630  0.3764
  965MOL0     C27271   0.331   9.974  10.038 -0.5669  0.5027  0.0502
  965MOL0     O27272   0.259   9.941   9.920  0.7018 -0.1938  0.0278
  965MOL0     C27273   0.118   9.946   9.923  0.1122 -0.2471  0.2474
  965MOL0     C27274   0.051   9.932   9.797 -0.1718 -0.9286  0.0578
  965MOL0     C27275  -0.094   9.948   9.790  0.9996  0.0270  0.8950
  965MOL0     C27276  -0.168   9.962   9.909  0.3464  0.1531 -0.3445
  965MOL0     C27277  -0.318   9.971   9.892  1.1491 -0.5224  0.7723
  965MOL0     O27278  -0.362  10.002   9.773  0.2127  0.2313 -0.2712
  965MOL0     C27279  -0.501  10.003   9.752 -0.3489 -0.0077  0.6514
  965MOL0     C27280  -0.566   9.887   9.696 -0.4096 -0.0476  0.3405
  965MOL0     C27281  -0.702   9.893   9.673 -0.5452  0.0833  0.0080
  965MOL0     C27282  -0.769  10.018   9.690 -0.0965  0.0135 -0.8932
  965MOL0     O27283  -0.911  10.014   9.683 -0.4107 -0.1467  0.0554
  965MOL0     C27284  -0.971  10.018   9.554  0.6548  0.9076  0.8479
  965MOL0     C27285  -1.127  10.036   9.547  1.0452 -0.0138 -0.6997
  965MOL0     C27286  -1.191   9.915   9.611 -0.9317  0.7246 -0.2341
  965MOL0     C27287  -1.337   9.919   9.581 -0.0410  0.2162  1.1757
  965MOL0     C27288  -1.422  10.005   9.673 -0.7930 -0.6441  0.2333
  965MOL0     C27289  -1.565   9.989   9.648 -0.7497  0.1459 -0.3113
  965MOL0     C27290  -1.616  10.067   9.527 -0.0683  0.1238  0.4299
  965MOL0     C27291  -1.767  10.100   9.532  0.4126 -0.3371 -0.5972
  965MOL0    Cl27292  -1.797  10.226   9.665 -0.6838 -0.3149  0.0831
  965MOL0     C27293  -0.703  10.125   9.743 -0.1602  0.1538 -0.3135
  965MOL0     C27294  -0.570  10.114   9.774 -0.6708 -0.8233  0.0169
  965MOL0     O27295  -0.386   9.927   9.980  0.0617  0.4958  0.0533
  965MOL0     C27296  -0.101   9.974  10.036  0.7049  0.6892  0.0030
  965MOL0     C27297   0.039   9.972  10.041  0.2542  0.6943  0.0449
  965MOL0     N27298   0.623  10.241  10.393 -0.4277 -0.2962  0.2389
  965MOL0     N27299   0.706  10.299  10.482  0.2049  0.2903 -0.0233
  965MOL0     C27300   1.499  10.940  10.667  0.2055 -0.7505  1.0099
  965MOL0     C27301   1.645  10.938  10.657 -0.2024  0.2702  0.2064
  965MOL0     C27302   2.070  10.972  10.682 -0.4185 -0.3233  0.0461
  965MOL0     C27303   2.185  10.891  10.666  0.4068  0.3847 -0.8572
  965MOL0     C27304   2.306  10.947  10.620 -0.7790  0.1441  0.3426
  965MOL0     C27305   2.309  11.079  10.574 -0.4243  0.0390 -0.1012
  965MOL0     O27306   2.433  11.129  10.548  0.4267 -0.5033  0.1756
  965MOL0     C27307   2.450  11.274  10.566 -0.7155  0.1658 -0.1986
  965MOL0     C27308   2.608  11.303  10.595  1.4177  0.7256  0.7134
  965MOL0     C27309   2.704  11.238  10.494  0.0086 -0.3606  0.6173
  965MOL0     C27310   2.708  11.315  10.360  0.3690  0.0700  0.3352
  965MOL0     C27311   2.826  11.256  10.287  0.9603  0.3544  0.6821
  965MOL0     C27312   2.918  11.215  10.228 -0.1903  0.0192  0.1259
  965MOL0     C27313   2.196  11.155  10.583  0.5705 -0.5455 -0.9254
  965MOL0     C27314   2.073  11.097  10.635  0.3663 -0.0821 -0.1717
  965MOL0     H27315   1.712  11.035  10.971  1.4493  1.9636 -1.0555
  965MOL0     H27316   1.476  11.029  10.999  3.2082 -0.1007  1.7210
  965MOL0     H27317   1.208  11.087  10.917 -2.2036 -0.3072 -1.5992
  965MOL0     H27318   1.276  10.935  10.991  0.6714 -1.9217 -0.0809
  965MOL0     H27319   1.043  10.927  10.787  3.2334  0.4694 -1.3799
  965MOL0     H27320   1.011  10.997  10.942 -0.6544  0.4664 -1.5520
  965MOL0     H27321   1.122  10.740  10.997 -1.2626 -1.2511  0.9069
  965MOL0     H27322   1.095  10.730  10.826 -0.3679  1.7097 -2.8459
  965MOL0     H27323   0.905  10.629  10.961 -1.0401  1.0932  0.8494
  965MOL0     H27324   0.873  10.790  11.025  1.3433 -1.0026  2.2397
  965MOL0     H27325   0.835  10.848  10.765  0.1586  0.0512  0.5995
  965MOL0     H27326   0.731  10.735  10.832 -0.6625 -1.7603 -2.2424
  965MOL0     H27327   0.925  10.555  10.756 -2.5203 -0.8881  0.0343
  965MOL0     H27328   0.976  10.701  10.668  0.2495 -0.1531  2.0694
  965MOL0     H27329   0.687  10.574  10.638 -1.4091  1.6727 -0.6044
  965MOL0     H27330   0.761  10.703  10.541 -0.7473  0.3545  0.7562
  965MOL0     H27331   0.919  10.452  10.531  0.9886 -1.6887 -3.9633
  965MOL0     H27332   0.885  10.577  10.415 -2.2184  1.5762 -0.9109
  965MOL0     H27333   0.671  10.533  10.262 -3.2739  0.7170 -0.2256
  965MOL0     H27334   0.573  10.311  10.079 -2.6212  1.4839 -2.5872
  965MOL0     H27335   0.427  10.361  10.181 -0.6545 -2.0153 -1.1344
  965MOL0     H27336   0.415  10.125  10.269 -1.3235  1.8476  0.1410
  965MOL0     H27337   0.539  10.067  10.172  1.6357  2.3747 -0.7486
  965MOL0     H27338   0.258  10.156  10.106  0.4652  0.0264  0.5557
  965MOL0     H27339   0.376  10.182   9.972  0.1526  1.2443  0.4069
  965MOL0     H27340   0.280   9.940  10.129  2.2696  1.2421  2.0636
  965MOL0     H27341   0.426   9.921  10.027 -1.3206 -0.7542 -0.6458
  965MOL0     H27342   0.114   9.916   9.710  0.6481  2.2846 -0.0753
  965MOL0     H27343  -0.131   9.953   9.688  0.4446 -1.1113  1.0202
  965MOL0     H27344  -0.503   9.803   9.666 -2.6913 -2.3195  1.4979
  965MOL0     H27345  -0.764   9.817   9.627 -0.5587  0.3992 -0.5023
  965MOL0     H27346  -0.960   9.929   9.492  0.5624  0.0774  2.0009
  965MOL0     H27347  -0.928  10.104   9.502 -1.5477  1.9357  0.6313
  965MOL0     H27348  -1.159  10.042   9.442  2.5303  0.4781 -1.1503
  965MOL0     H27349  -1.150  10.127   9.602  0.3812  0.0264 -1.0262
  965MOL0     H27350  -1.173   9.931   9.718  0.4987  3.3487 -0.7796
  965MOL0     H27351  -1.138   9.832   9.563  1.2123  1.8125  0.0974
  965MOL0     H27352  -1.351   9.955   9.479 -2.9168 -2.5021  0.4487
  965MOL0     H27353  -1.379   9.818   9.575  2.2448 -0.7016 -0.7019
  965MOL0     H27354  -1.388  10.109   9.668 -0.7703 -0.7057 -1.6039
  965MOL0     H27355  -1.421   9.972   9.777 -2.9506 -3.8064 -0.6251
  965MOL0     H27356  -1.617  10.016   9.741  1.6858 -1.1337  1.5686
  965MOL0     H27357  -1.589   9.883   9.631 -0.4893  0.1761 -0.8821
  965MOL0     H27358  -1.561  10.160   9.543  1.4894 -0.9896  1.9320
  965MOL0     H27359  -1.586  10.016   9.435  0.3534  1.2260 -0.0563
  965MOL0     H27360  -1.823  10.009   9.558  0.6859 -0.1773  0.6298
  965MOL0     H27361  -1.808  10.128   9.435 -1.0534 -1.9346 -0.4968
  965MOL0     H27362  -0.750  10.222   9.757 -0.4907 -0.2897  1.9985
  965MOL0     H27363  -0.510  10.194   9.816 -0.9104 -0.7299  0.1856
  965MOL0     H27364  -0.161   9.989  10.125 -0.0645 -0.3210 -0.3221
  965MOL0     H27365   0.082  10.007  10.134  1.7447  0.2656 -0.4475
  965MOL0     H27366   1.437  10.926  10.579 -0.9935  2.9631  1.1071
  965MOL0     H27367   1.701  10.922  10.565  0.4581 -1.8953  0.9193
  965MOL0     H27368   2.168  10.795  10.713  1.7132  1.4669  2.1022
  965MOL0     H27369   2.391  10.880  10.620 -0.8431  0.0077 -1.5909
  965MOL0     H27370   2.389  11.305  10.651 -3.9325 -2.2484 -1.4138
  965MOL0     H27371   2.414  11.320  10.473  0.0725  0.1621 -0.5124
  965MOL0     H27372   2.629  11.410  10.606  0.4870  1.0391 -0.3670
  965MOL0     H27373   2.624  11.251  10.690 -1.1101  1.2645  1.4922
  965MOL0     H27374   2.664  11.139  10.471 -1.7293  0.7624 -1.5142
  965MOL0     H27375   2.805  11.239  10.537 -0.0610  3.6534  1.0699
  965MOL0     H27376   2.617  11.303  10.300  1.3912 -2.1596 -0.9441
  965MOL0     H27377   2.739  11.416  10.386  0.0833  0.0937  0.5758
  965MOL0     H27378   3.007  11.182  10.177 -0.1668 -0.3166  0.3761
  965MOL0     H27379   2.192  11.262  10.563  0.3672 -0.0925  1.2597
  965MOL0     H27380   1.984  11.158  10.647 -0.3459 -1.0972 -0.1211
  966MOL0     O27381   2.562   9.771   7.246 -0.5177 -0.1556  0.2989
  966MOL0     C27382   2.579   9.666   7.311 -0.0829  0.3161 -0.0876
  966MOL0     O27383   2.484   9.568   7.345 -1.1941 -0.1918  0.6315
  966MOL0     C27384   2.359   9.579   7.296  0.0290 -0.7749 -0.3744
  966MOL0     C27385   2.309   9.521   7.178 -0.5029  0.0832 -0.1878
  966MOL0     C27386   2.170   9.536   7.149 -0.1254  0.2847 -0.1451
  966MOL0     C27387   2.090   9.620   7.233 -0.0008  0.5388 -0.4576
  966MOL0     O27388   1.956   9.632   7.212  0.2363  0.2587  0.0649
  966MOL0     C27389   1.889   9.580   7.099  0.4282  0.2884 -0.1129
  966MOL0     C27390   1.745   9.643   7.098 -0.4487  0.8997  0.1996
  966MOL0     C27391   1.646   9.522   7.080  0.0223  0.1894 -0.3223
  966MOL0     C27392   1.507   9.566   7.135  0.1067 -0.1490  0.1669
  966MOL0     C27393   1.400   9.449   7.145 -0.1639 -0.0903 -0.3155
  966MOL0     C27394   1.275   9.527   7.204 -0.0359  0.3473  0.5137
  966MOL0     C27395   1.165   9.423   7.213 -0.8018  0.1198  1.4834
  966MOL0     C27396   1.069   9.476   7.313  0.5926 -0.6763  0.7678
  966MOL0     N27397   0.957   9.375   7.337 -0.5401  0.2698 -0.7281
  966MOL0     C27398   0.935   9.307   7.448  0.2778  0.3278  0.0105
  966MOL0     C27399   0.843   9.213   7.417 -0.2387  0.4719 -0.1775
  966MOL0     C27400   0.775   9.106   7.503 -0.1811  0.1678  0.3089
  966MOL0     C27401   0.626   9.075   7.471 -0.2485  0.5530  0.0870
  966MOL0     C27402   0.525   9.185   7.525  0.0205  0.3535 -0.1344
  966MOL0     C27403   0.382   9.135   7.514 -1.5852 -0.8278 -0.4583
  966MOL0     O27404   0.311   9.257   7.533 -0.4575  0.1942  0.0391
  966MOL0     C27405   0.181   9.259   7.491 -0.4834 -0.9983 -0.2555
  966MOL0     C27406   0.131   9.217   7.373 -0.0488  0.3510 -0.9363
  966MOL0     C27407  -0.000   9.244   7.337  0.0390  0.2463 -0.3608
  966MOL0     C27408  -0.098   9.299   7.429 -0.8036  0.5730  0.3926
  966MOL0     C27409  -0.239   9.311   7.382  0.5457  0.5465  0.8851
  966MOL0     O27410  -0.315   9.399   7.453 -0.5849 -0.0854 -1.3704
  966MOL0     C27411  -0.440   9.421   7.423 -0.6446  0.1543 -0.1382
  966MOL0     C27412  -0.510   9.488   7.527 -0.7379  0.3496  0.1655
  966MOL0     C27413  -0.649   9.513   7.510  0.2124 -0.8088 -0.0957
  966MOL0     C27414  -0.729   9.466   7.405 -0.6255 -0.5041 -0.1434
  966MOL0     O27415  -0.865   9.487   7.416  0.1381  0.6309  0.0493
  966MOL0     C27416  -0.945   9.407   7.324 -0.0624  0.0039 -0.1270
  966MOL0     C27417  -1.092   9.421   7.354 -0.3130  0.1489 -1.1459
  966MOL0     C27418  -1.154   9.561   7.316  0.0762  0.4833 -0.7791
  966MOL0     C27419  -1.308   9.544   7.305 -0.0814 -0.0407 -0.8703
  966MOL0     C27420  -1.377   9.682   7.312  0.5523 -0.0339 -0.4236
  966MOL0     C27421  -1.336   9.766   7.197  0.5735 -0.5569  1.4578
  966MOL0     C27422  -1.429   9.893   7.185 -0.3108 -0.4020  0.6000
  966MOL0     C27423  -1.381  10.011   7.278  0.3687 -0.4111  0.0642
  966MOL0    Cl27424  -1.235  10.079   7.200 -0.1019  0.3336  0.3358
  966MOL0     C27425  -0.654   9.409   7.299  0.4330 -0.1606  0.2477
  966MOL0     C27426  -0.514   9.378   7.311 -0.2932 -0.3290  0.2075
  966MOL0     O27427  -0.279   9.248   7.282  0.1399  0.2430 -0.0161
  966MOL0     C27428  -0.048   9.342   7.551 -1.1146 -0.2690  0.2461
  966MOL0     C27429   0.089   9.325   7.572 -0.0699  0.0230 -0.5150
  966MOL0     N27430   0.817   9.231   7.280  0.8118  0.0118  0.9640
  966MOL0     N27431   0.875   9.335   7.232  0.0507 -0.0142  0.8710
  966MOL0     C27432   2.138   9.668   7.360 -1.4621 -0.8344  0.5176
  966MOL0     C27433   2.272   9.648   7.386  0.1400 -0.0852  0.2812
  966MOL0     C27434   2.723   9.641   7.367  1.1479 -0.0074 -0.2507
  966MOL0     C27435   2.748   9.552   7.476  0.1478 -0.4773 -0.2654
  966MOL0     C27436   2.877   9.556   7.531  0.3288  0.2236  0.2256
  966MOL0     C27437   2.981   9.629   7.476 -0.8047  0.3354 -0.3433
  966MOL0     O27438   3.107   9.624   7.539 -0.5691 -0.4486  0.5798
  966MOL0     C27439   3.134   9.547   7.659 -0.2379  0.2658 -0.5673
  966MOL0     C27440   3.271   9.570   7.723 -0.3893  0.9789  0.3166
  966MOL0     C27441   3.277   9.713   7.787 -0.3282  0.6219  0.6392
  966MOL0     C27442   3.413   9.775   7.784 -1.2289 -0.3149 -0.7275
  966MOL0     C27443   3.527   9.696   7.844  0.5219  0.2003 -0.3482
  966MOL0     C27444   3.622   9.632   7.888 -1.0138  0.1349 -0.1019
  966MOL0     C27445   2.961   9.698   7.364 -0.2244 -0.6325 -0.3623
  966MOL0     C27446   2.832   9.717   7.314 -0.6585  0.3444  0.4816
  966MOL0     H27447   2.383   9.474   7.114  0.9358  2.2593 -0.2249
  966MOL0     H27448   2.136   9.496   7.054  1.7004 -0.8801 -0.3720
  966MOL0     H27449   1.882   9.471   7.094 -0.7549  0.2723  1.3878
  966MOL0     H27450   1.934   9.614   7.005 -3.1640 -1.7681 -2.8255
  966MOL0     H27451   1.736   9.721   7.021  0.6955  1.2373  0.3904
  966MOL0     H27452   1.719   9.685   7.196 -3.1568  1.9974 -0.9020
  966MOL0     H27453   1.684   9.434   7.133  1.9357  1.4406  0.5111
  966MOL0     H27454   1.636   9.508   6.972 -1.5798  1.2168 -0.3366
  966MOL0     H27455   1.518   9.607   7.236 -3.1811  0.9863  0.1828
  966MOL0     H27456   1.474   9.649   7.071 -0.9943 -0.7777 -0.1028
  966MOL0     H27457   1.447   9.374   7.209  2.3092  2.3050  0.9165
  966MOL0     H27458   1.378   9.398   7.050  1.2509  0.1516 -0.8115
  966MOL0     H27459   1.259   9.624   7.155  1.3848  1.0784  1.4249
  966MOL0     H27460   1.306   9.555   7.305  0.2658  0.0756  0.4960
  966MOL0     H27461   1.127   9.411   7.111 -0.1432 -2.4090  1.4744
  966MOL0     H27462   1.208   9.326   7.236  0.6008  0.3079 -0.1335
  966MOL0     H27463   1.020   9.567   7.279  3.9078  0.6824 -0.8208
  966MOL0     H27464   1.130   9.493   7.403  2.7420 -1.2808 -0.4832
  966MOL0     H27465   0.989   9.329   7.540 -0.1935 -2.0445  0.9318
  966MOL0     H27466   0.776   9.121   7.612 -2.0755 -0.9332  0.5341
  966MOL0     H27467   0.833   9.016   7.482  0.0583  0.9427 -2.7666
  966MOL0     H27468   0.598   8.979   7.516 -0.5757  0.1187 -0.9847
  966MOL0     H27469   0.618   9.068   7.362 -1.2569  0.0446  0.1778
  966MOL0     H27470   0.554   9.205   7.629 -1.0064 -1.5174  0.5744
  966MOL0     H27471   0.549   9.270   7.462  0.9499  0.7873  0.7845
  966MOL0     H27472   0.365   9.067   7.599  2.3440 -1.3766  0.0785
  966MOL0     H27473   0.372   9.087   7.416 -1.2950  3.3026 -2.7324
  966MOL0     H27474   0.195   9.165   7.303 -0.0767  1.3175 -1.6949
  966MOL0     H27475  -0.023   9.208   7.237  2.5767 -2.2478 -0.1584
  966MOL0     H27476  -0.459   9.531   7.613  0.8012 -2.2499  0.6368
  966MOL0     H27477  -0.691   9.560   7.599 -1.4760  1.4419 -1.9552
  966MOL0     H27478  -0.916   9.302   7.318  0.5141  0.1723 -0.4096
  966MOL0     H27479  -0.923   9.445   7.224  0.9846 -0.3753 -0.0506
  966MOL0     H27480  -1.115   9.393   7.457 -0.7314  0.8477 -1.0414
  966MOL0     H27481  -1.144   9.352   7.287 -1.9189 -0.9622  1.1146
  966MOL0     H27482  -1.120   9.605   7.222 -0.0106 -1.0899 -1.5855
  966MOL0     H27483  -1.124   9.635   7.391  0.3302  1.8937 -2.2188
  966MOL0     H27484  -1.334   9.493   7.212  1.8385  1.5744 -2.3804
  966MOL0     H27485  -1.345   9.474   7.381 -1.4475 -1.4281 -2.7282
  966MOL0     H27486  -1.341   9.725   7.407  0.6304 -1.5079  0.2314
  966MOL0     H27487  -1.485   9.667   7.314 -0.1220  3.6439  2.0960
  966MOL0     H27488  -1.355   9.715   7.102 -2.3911 -0.1119  1.7016
  966MOL0     H27489  -1.231   9.794   7.208  0.6066 -0.7345  1.5879
  966MOL0     H27490  -1.431   9.937   7.084 -0.2492  0.4074  0.9440
  966MOL0     H27491  -1.530   9.861   7.210  0.0806 -0.5046  2.1330
  966MOL0     H27492  -1.358   9.973   7.378 -2.0088 -1.7083  0.2139
  966MOL0     H27493  -1.474  10.067   7.293  1.1604  0.9634 -0.0596
  966MOL0     H27494  -0.705   9.384   7.206 -0.0813 -1.0155  0.7470
  966MOL0     H27495  -0.462   9.331   7.229  0.5276 -0.0045  0.5384
  966MOL0     H27496  -0.119   9.392   7.616 -2.1208  0.5068 -1.3837
  966MOL0     H27497   0.126   9.359   7.668 -1.6822  0.8756 -0.1598
  966MOL0     H27498   2.067   9.726   7.418  1.5802  1.8261  1.8599
  966MOL0     H27499   2.308   9.686   7.481 -1.2041 -2.1533  1.7049
  966MOL0     H27500   2.669   9.497   7.526  1.2724  1.5095  4.1918
  966MOL0     H27501   2.889   9.494   7.620 -0.8139  0.2750  0.4326
  966MOL0     H27502   3.130   9.441   7.630  0.8448  0.3577 -1.1117
  966MOL0     H27503   3.061   9.560   7.740  1.6824  0.9042  1.1657
  966MOL0     H27504   3.309   9.499   7.797 -0.7148  2.0153  1.4918
  966MOL0     H27505   3.351   9.573   7.648 -1.1404 -1.2266 -0.6528
  966MOL0     H27506   3.245   9.716   7.892  0.1135  3.7143  0.7832
  966MOL0     H27507   3.209   9.779   7.732  0.6110 -1.3020 -3.1893
  966MOL0     H27508   3.443   9.784   7.680 -0.5643  0.7186 -0.4654
  966MOL0     H27509   3.413   9.871   7.836  0.8516 -0.9909  0.6892
  966MOL0     H27510   3.711   9.592   7.932 -1.9470 -3.3283 -1.1124
  966MOL0     H27511   3.045   9.752   7.321 -0.0734 -1.7313 -1.5035
  966MOL0     H27512   2.814   9.784   7.231 -0.2725 -0.4355 -0.2396
  967MOL0     O27513   2.572   4.218  10.451 -0.0913 -0.3772 -0.4601
  967MOL0     C27514   2.591   4.099  10.459  0.4243  0.3427 -0.6858
  967MOL0     O27515   2.493   4.011  10.479  0.0387  0.8369 -0.2040
  967MOL0     C27516   2.362   4.047  10.490 -0.6199  0.2485  0.1124
  967MOL0     C27517   2.314   4.149  10.573  0.5306 -1.1517  0.4249
  967MOL0     C27518   2.180   4.168  10.605 -0.0656  0.0294  0.0114
  967MOL0     C27519   2.087   4.081  10.550 -0.5270 -0.2446  0.3539
  967MOL0     O27520   1.953   4.106  10.567 -0.2880 -0.3846  0.2576
  967MOL0     C27521   1.876   3.982  10.584  0.3766  0.1052 -0.8345
  967MOL0     C27522   1.754   4.014  10.661 -0.3811  0.2938  0.4110
  967MOL0     C27523   1.652   3.906  10.646 -0.0614  0.0497  0.4406
  967MOL0     C27524   1.519   3.943  10.715 -0.0688  0.3310 -0.7242
  967MOL0     C27525   1.428   3.825  10.735 -0.3031 -0.2714  0.5851
  967MOL0     C27526   1.300   3.872  10.812 -0.1478 -0.2918 -0.5392
  967MOL0     C27527   1.193   3.764  10.838  0.3366  0.4535  0.8450
  967MOL0     C27528   1.080   3.815  10.932 -0.4947  0.2988  0.6279
  967MOL0     N27529   0.974   3.722  10.943 -0.1103  0.6626 -0.4485
  967MOL0     C27530   0.864   3.700  10.855 -0.0880 -0.1726  0.7718
  967MOL0     C27531   0.790   3.609  10.915 -0.3273  1.4006 -0.3747
  967MOL0     C27532   0.668   3.542  10.866  0.0709  0.2367 -0.0244
  967MOL0     C27533   0.541   3.561  10.949 -0.0060 -0.0377  0.1504
  967MOL0     C27534   0.428   3.461  10.893 -0.1795  0.1094  0.2920
  967MOL0     C27535   0.304   3.501  10.966  0.1598 -0.3625  1.0940
  967MOL0     O27536   0.225   3.388  10.999  0.0354 -0.4308 -0.1987
  967MOL0     C27537   0.102   3.412  11.055  0.2681 -0.1245 -0.4665
  967MOL0     C27538   0.015   3.298  11.046  0.2213 -0.3593 -0.1086
  967MOL0     C27539  -0.117   3.302  11.092 -0.4299  0.0551 -0.2802
  967MOL0     C27540  -0.169   3.421  11.146  0.2339 -0.3304 -0.3003
  967MOL0     C27541  -0.316   3.418  11.196  0.0250  0.9219  0.7049
  967MOL0     O27542  -0.387   3.313  11.151  0.3347  0.4141 -0.2598
  967MOL0     C27543  -0.520   3.327  11.173  0.5287  0.3807  0.7514
  967MOL0     C27544  -0.611   3.402  11.091  0.3142  0.1794  0.6163
  967MOL0     C27545  -0.747   3.433  11.123 -0.2659  0.0149  0.3613
  967MOL0     C27546  -0.807   3.373  11.234 -0.0029 -0.0623  0.5990
  967MOL0     O27547  -0.937   3.380  11.274 -0.1857  0.9647 -0.1734
  967MOL0     C27548  -1.026   3.446  11.182  0.3454  0.4764 -0.2637
  967MOL0     C27549  -1.159   3.459  11.244 -0.7139  0.5357  0.5264
  967MOL0     C27550  -1.161   3.553  11.357  0.5181 -0.0233  0.4177
  967MOL0     C27551  -1.311   3.584  11.407 -0.2607 -0.4714  0.1780
  967MOL0     C27552  -1.317   3.680  11.536 -0.5096  0.0317  0.6326
  967MOL0     C27553  -1.286   3.825  11.513  0.1887  0.4206  0.3854
  967MOL0     C27554  -1.310   3.905  11.647  0.2431 -0.3141  0.1223
  967MOL0     C27555  -1.264   4.052  11.624  0.6375  0.7232 -1.1723
  967MOL0    Cl27556  -1.091   4.063  11.634 -0.0084  0.0432  0.1708
  967MOL0     C27557  -0.730   3.290  11.318  0.7056  0.4167 -0.1261
  967MOL0     C27558  -0.592   3.278  11.292  0.0508  0.8493  0.3173
  967MOL0     O27559  -0.358   3.521  11.251  0.3625  0.3015 -0.1443
  967MOL0     C27560  -0.079   3.541  11.142 -0.2477 -0.2076 -0.2084
  967MOL0     C27561   0.053   3.535  11.100  0.2777 -0.7779 -0.2662
  967MOL0     N27562   0.854   3.574  11.031  0.6933 -0.4374 -0.4791
  967MOL0     N27563   0.964   3.642  11.057  0.5535  0.0391  0.4714
  967MOL0     C27564   2.131   3.992  10.448  0.4459  0.7315  0.5058
  967MOL0     C27565   2.268   3.967  10.426 -0.4541 -0.3022  0.0812
  967MOL0     C27566   2.724   4.048  10.463  0.0124  0.5825  1.1876
  967MOL0     C27567   2.829   4.144  10.447  1.5746  0.0736 -0.2782
  967MOL0     C27568   2.956   4.099  10.466 -0.4411 -0.9930 -0.1455
  967MOL0     C27569   2.984   3.967  10.504  0.2352 -1.3454 -0.6591
  967MOL0     O27570   3.105   3.906  10.518  0.0634  1.1237 -0.6210
  967MOL0     C27571   3.224   3.966  10.464  0.6899  0.0159  0.6024
  967MOL0     C27572   3.343   3.876  10.479 -0.2611 -0.0493  0.5493
  967MOL0     C27573   3.333   3.741  10.409 -0.4571 -0.9083 -1.1144
  967MOL0     C27574   3.450   3.644  10.429  0.8552 -0.0492  1.0998
  967MOL0     C27575   3.566   3.704  10.376 -0.1740 -0.1885 -0.0147
  967MOL0     C27576   3.679   3.752  10.356  0.4393 -0.5649  0.4323
  967MOL0     C27577   2.879   3.874  10.496 -1.0393  0.3000  0.4249
  967MOL0     C27578   2.748   3.912  10.473 -0.1771 -0.6945 -0.5532
  967MOL0     H27579   2.384   4.209  10.630  0.8131  0.9183 -1.9280
  967MOL0     H27580   2.154   4.253  10.668  2.4532  0.4898  0.5702
  967MOL0     H27581   1.929   3.908  10.644 -0.6718  0.1272  0.1538
  967MOL0     H27582   1.849   3.947  10.484 -0.2245 -0.8302 -0.3483
  967MOL0     H27583   1.712   4.107  10.623  1.7605  1.5447  0.9351
  967MOL0     H27584   1.783   4.025  10.766 -0.4269  1.6542  0.2992
  967MOL0     H27585   1.693   3.819  10.697  1.8429  1.2883  1.1391
  967MOL0     H27586   1.624   3.896  10.541  0.0708 -0.7016  0.4749
  967MOL0     H27587   1.551   3.981  10.813 -0.2046 -2.5249  0.5382
  967MOL0     H27588   1.475   4.023  10.656 -1.6545  0.0110 -0.0372
  967MOL0     H27589   1.487   3.759  10.798 -0.2984  0.0726  0.9445
  967MOL0     H27590   1.405   3.783  10.637  0.9047  2.0645 -0.8030
  967MOL0     H27591   1.248   3.948  10.752  1.3637  1.9773  0.8873
  967MOL0     H27592   1.340   3.915  10.904 -0.7730 -2.3206  0.7362
  967MOL0     H27593   1.149   3.725  10.745 -1.5605  0.3036  1.7614
  967MOL0     H27594   1.255   3.688  10.884  2.6687  2.4502  1.1782
  967MOL0     H27595   1.045   3.908  10.886 -0.7238 -0.8927 -1.7592
  967MOL0     H27596   1.122   3.856  11.025  0.1973  1.5016 -0.1962
  967MOL0     H27597   0.852   3.753  10.761  1.0900  1.6100  1.5784
  967MOL0     H27598   0.688   3.435  10.862 -1.4405 -0.1983  2.2247
  967MOL0     H27599   0.641   3.580  10.766  1.1158  0.3961 -0.2510
  967MOL0     H27600   0.504   3.663  10.934 -4.3708 -1.4105  0.2683
  967MOL0     H27601   0.556   3.549  11.057 -0.3223 -0.3640  0.1610
  967MOL0     H27602   0.411   3.468  10.785  0.3973 -1.5225  0.0664
  967MOL0     H27603   0.456   3.355  10.903 -1.3372 -0.4139 -1.4301
  967MOL0     H27604   0.254   3.573  10.900  2.2530  0.7351  0.6525
  967MOL0     H27605   0.330   3.555  11.057  0.5574  0.7363  0.3492
  967MOL0     H27606   0.061   3.220  10.985  0.9824  0.5417 -0.7097
  967MOL0     H27607  -0.165   3.210  11.063 -1.6072  1.0581 -1.6604
  967MOL0     H27608  -0.559   3.448  11.007 -1.6135 -1.1998 -1.4845
  967MOL0     H27609  -0.800   3.505  11.061  2.4041  0.6399 -1.3387
  967MOL0     H27610  -1.054   3.377  11.101  0.3060  1.6413 -1.2802
  967MOL0     H27611  -0.998   3.548  11.153 -0.7677  0.2109 -2.5439
  967MOL0     H27612  -1.191   3.359  11.277  1.2479 -0.1669  0.4586
  967MOL0     H27613  -1.231   3.484  11.166 -2.8450  0.6622  2.4172
  967MOL0     H27614  -1.117   3.644  11.316  0.2752  0.5400  1.3939
  967MOL0     H27615  -1.103   3.519  11.443  0.4167  3.5154  2.0246
  967MOL0     H27616  -1.365   3.631  11.324 -0.9340 -0.9687  0.3325
  967MOL0     H27617  -1.365   3.491  11.425 -2.2200  0.8096  1.2261
  967MOL0     H27618  -1.245   3.645  11.609  0.1864  2.3793  1.1611
  967MOL0     H27619  -1.418   3.680  11.580  0.1721  1.5806  2.3363
  967MOL0     H27620  -1.339   3.876  11.432  0.4553  3.1171  1.7779
  967MOL0     H27621  -1.182   3.827  11.480 -0.4828 -0.8375 -2.0235
  967MOL0     H27622  -1.417   3.901  11.665  0.2053 -1.4758 -0.2197
  967MOL0     H27623  -1.248   3.871  11.731  1.0469 -0.7770 -0.6322
  967MOL0     H27624  -1.303   4.120  11.700  0.6308  1.2324 -1.6269
  967MOL0     H27625  -1.311   4.092  11.534 -0.5684  0.7803 -0.5409
  967MOL0     H27626  -0.770   3.232  11.401  0.1609 -0.6703 -1.1191
  967MOL0     H27627  -0.543   3.223  11.372  0.6260 -0.3271 -0.7981
  967MOL0     H27628  -0.111   3.636  11.183  1.0519  0.3601 -0.4603
  967MOL0     H27629   0.109   3.628  11.094  0.4290 -0.6662  2.1475
  967MOL0     H27630   2.058   3.925  10.404  1.8136 -0.0532 -0.6648
  967MOL0     H27631   2.298   3.892  10.354  2.0852  1.8570 -1.2687
  967MOL0     H27632   2.817   4.250  10.431  0.4711  0.0078  0.0638
  967MOL0     H27633   3.044   4.163  10.463 -1.2873  0.2559  0.7280
  967MOL0     H27634   3.241   4.064  10.509  0.0703  0.5435 -0.2796
  967MOL0     H27635   3.207   3.980  10.357  2.4533  0.5566  0.3649
  967MOL0     H27636   3.430   3.930  10.441  1.5684 -1.9880  1.7104
  967MOL0     H27637   3.370   3.851  10.582  2.1962  1.7756  0.4327
  967MOL0     H27638   3.333   3.756  10.301  3.8644  0.3047 -1.1240
  967MOL0     H27639   3.247   3.689  10.453  2.0248 -3.1596  1.5102
  967MOL0     H27640   3.450   3.627  10.537 -1.2219  1.2245  1.3491
  967MOL0     H27641   3.421   3.555  10.373 -0.2877 -0.2193  1.9086
  967MOL0     H27642   3.775   3.798  10.359  0.3247 -0.2143 -0.7648
  967MOL0     H27643   2.895   3.768  10.513 -1.1778 -0.2024 -2.1488
  967MOL0     H27644   2.668   3.838  10.472 -0.9277  0.0132  1.4473
  968MOL0     O27645   0.076   5.343   3.293  0.6644 -0.2723 -0.6448
  968MOL0     C27646   0.115   5.275   3.390 -0.1558  0.0937 -0.9842
  968MOL0     O27647   0.029   5.211   3.481 -0.1354  0.8984 -0.0048
  968MOL0     C27648  -0.101   5.241   3.496  1.2261  0.4439  0.0735
  968MOL0     C27649  -0.188   5.135   3.530 -0.1729 -0.0648 -0.3467
  968MOL0     C27650  -0.320   5.146   3.570 -0.1354 -0.4940  0.2010
  968MOL0     C27651  -0.384   5.278   3.566 -0.5209  0.6416 -0.2744
  968MOL0     O27652  -0.515   5.292   3.597 -0.3474  0.4679  0.3984
  968MOL0     C27653  -0.572   5.197   3.686 -0.3151 -0.2943 -0.0242
  968MOL0     C27654  -0.718   5.230   3.728  0.4327  1.2599  0.1338
  968MOL0     C27655  -0.824   5.161   3.640 -0.6010  0.1782  0.0715
  968MOL0     C27656  -0.926   5.081   3.723 -0.0850 -0.3621  0.6254
  968MOL0     C27657  -1.014   4.985   3.637  0.4519 -0.7157 -0.3406
  968MOL0     C27658  -1.125   5.057   3.562  0.1757 -0.1002 -1.1838
  968MOL0     C27659  -1.249   4.974   3.544  0.5837 -0.3504 -0.4493
  968MOL0     C27660  -1.232   4.847   3.456  0.7857  0.0010  0.1914
  968MOL0     N27661  -1.360   4.778   3.449 -0.1936  0.2700  0.2536
  968MOL0     C27662  -1.474   4.805   3.375 -0.8098  0.2381 -0.5666
  968MOL0     C27663  -1.551   4.699   3.397 -0.5924 -0.5255 -0.0471
  968MOL0     C27664  -1.693   4.691   3.347 -0.4106 -0.2424  1.0333
  968MOL0     C27665  -1.748   4.544   3.331  0.1564 -0.0296 -0.2231
  968MOL0     C27666  -1.886   4.551   3.271 -0.4310  0.3123 -0.0426
  968MOL0     C27667  -1.956   4.411   3.285 -0.2640  0.1850 -0.0071
  968MOL0     O27668  -2.097   4.425   3.265 -0.2873 -0.2216  0.2184
  968MOL0     C27669  -2.162   4.343   3.181  0.3006 -0.4767  0.6804
  968MOL0     C27670  -2.297   4.326   3.214  0.1610 -0.2758 -0.1903
  968MOL0     C27671  -2.393   4.253   3.135 -0.8858 -1.2297  0.0481
  968MOL0     C27672  -2.338   4.193   3.019 -0.3695  0.9142 -0.2729
  968MOL0     C27673  -2.432   4.098   2.940 -0.8534  0.1117 -0.7232
  968MOL0     O27674  -2.359   4.037   2.844 -0.4998 -0.1492  0.0601
  968MOL0     C27675  -2.413   3.944   2.752 -0.7764  0.0827  0.5595
  968MOL0     C27676  -2.538   3.885   2.752  0.5027 -0.9647 -0.0288
  968MOL0     C27677  -2.573   3.801   2.653  1.3243 -0.0685  0.3953
  968MOL0     C27678  -2.493   3.768   2.540 -0.1166 -0.6582  1.0188
  968MOL0     O27679  -2.509   3.676   2.440  0.0358 -0.3543  0.8845
  968MOL0     C27680  -2.590   3.564   2.487  0.0003 -0.2864  0.6108
  968MOL0     C27681  -2.603   3.450   2.386 -0.3927  0.1057 -0.0839
  968MOL0     C27682  -2.612   3.495   2.235  0.6605  0.3518 -0.7544
  968MOL0     C27683  -2.627   3.370   2.142  0.3804  0.4328 -0.4239
  968MOL0     C27684  -2.685   3.412   2.006 -0.0244 -0.7027 -0.0377
  968MOL0     C27685  -2.601   3.521   1.930 -0.2989  0.2770  0.6669
  968MOL0     C27686  -2.641   3.519   1.783  0.8657  0.2581 -0.5665
  968MOL0     C27687  -2.547   3.599   1.702  0.8980  0.1496 -0.0043
  968MOL0    Cl27688  -2.389   3.499   1.674  0.1466 -0.3755  0.0945
  968MOL0     C27689  -2.368   3.831   2.535  0.4183 -0.1320 -0.1219
  968MOL0     C27690  -2.335   3.925   2.635 -0.3659  0.3580 -0.3709
  968MOL0     O27691  -2.550   4.084   2.964  0.4540 -0.5487 -0.4716
  968MOL0     C27692  -2.204   4.223   2.976 -0.0494  0.4128 -0.4222
  968MOL0     C27693  -2.117   4.298   3.054  0.7035 -0.0827 -0.1793
  968MOL0     N27694  -1.502   4.616   3.495 -0.6254  0.1236  0.7080
  968MOL0     N27695  -1.391   4.670   3.529 -0.0114 -0.4460  0.0922
  968MOL0     C27696  -0.307   5.379   3.518  0.0403  0.0551  0.8704
  968MOL0     C27697  -0.175   5.357   3.474 -0.0974  0.0972 -0.3091
  968MOL0     C27698   0.265   5.277   3.408 -0.1464  0.4553  1.9905
  968MOL0     C27699   0.352   5.361   3.325 -0.1393  0.6757  1.1363
  968MOL0     C27700   0.493   5.355   3.329  0.5917 -0.1135  0.5420
  968MOL0     C27701   0.547   5.278   3.429 -0.6748 -0.8258 -0.1775
  968MOL0     O27702   0.684   5.294   3.435  0.6965 -0.4352 -1.1228
  968MOL0     C27703   0.753   5.260   3.558  0.2176 -0.0763  0.3434
  968MOL0     C27704   0.879   5.326   3.557 -0.3031 -1.2784 -0.3120
  968MOL0     C27705   0.865   5.482   3.526  0.5809 -0.6617 -0.3063
  968MOL0     C27706   0.992   5.563   3.537  0.3012 -0.3959 -0.1017
  968MOL0     C27707   1.045   5.570   3.670  0.5168 -0.1434  0.0427
  968MOL0     C27708   1.073   5.585   3.784  0.5320  0.0239  0.6794
  968MOL0     C27709   0.466   5.209   3.521 -0.0108 -0.1642  0.1568
  968MOL0     C27710   0.329   5.209   3.513  0.4455  0.5967 -0.2584
  968MOL0     H27711  -0.144   5.036   3.539 -0.1464  0.0167  0.4808
  968MOL0     H27712  -0.365   5.050   3.592  0.8358 -1.6659 -2.5420
  968MOL0     H27713  -0.519   5.203   3.782 -0.1279 -0.2994 -0.1264
  968MOL0     H27714  -0.562   5.092   3.655  0.4920 -1.1081  2.7212
  968MOL0     H27715  -0.731   5.338   3.717 -0.4486  1.2087  0.6100
  968MOL0     H27716  -0.733   5.209   3.834  0.1706 -2.5747 -0.5235
  968MOL0     H27717  -0.780   5.083   3.577  0.4232 -0.5087  1.5953
  968MOL0     H27718  -0.875   5.238   3.582 -1.0001 -0.4312 -0.4006
  968MOL0     H27719  -0.875   5.015   3.794 -0.3221 -1.0084  0.2023
  968MOL0     H27720  -0.987   5.155   3.777  1.0789 -0.5073  2.2316
  968MOL0     H27721  -1.059   4.905   3.698 -1.7253  0.8020  0.1565
  968MOL0     H27722  -0.953   4.942   3.557 -0.7089  0.8603 -2.1571
  968MOL0     H27723  -1.084   5.092   3.467 -1.4701  0.4775 -1.7153
  968MOL0     H27724  -1.153   5.144   3.622 -1.1104 -2.1725  1.4246
  968MOL0     H27725  -1.287   4.949   3.643  0.3778 -0.5549 -0.5781
  968MOL0     H27726  -1.321   5.044   3.502  0.7317  0.3672  0.4622
  968MOL0     H27727  -1.158   4.782   3.505  2.0063  1.9533  1.0747
  968MOL0     H27728  -1.194   4.877   3.358  0.3371  1.4743  0.4609
  968MOL0     H27729  -1.498   4.890   3.312 -0.1764  1.7263  1.1333
  968MOL0     H27730  -1.691   4.744   3.252 -1.5649 -1.7133  0.1579
  968MOL0     H27731  -1.763   4.738   3.417 -3.9805 -2.3836 -0.8203
  968MOL0     H27732  -1.756   4.499   3.430 -3.1775 -0.4904 -0.5890
  968MOL0     H27733  -1.694   4.478   3.263 -2.1262 -0.6080 -1.5883
  968MOL0     H27734  -1.943   4.637   3.309 -2.7768 -0.6318 -1.2274
  968MOL0     H27735  -1.876   4.563   3.163 -0.3783  0.1640 -0.0543
  968MOL0     H27736  -1.957   4.382   3.390  0.0261 -0.5917 -0.2095
  968MOL0     H27737  -1.907   4.336   3.222 -1.5056  0.9215 -1.9294
  968MOL0     H27738  -2.325   4.382   3.302  2.5850  1.4513 -0.4078
  968MOL0     H27739  -2.500   4.255   3.154 -0.6491  0.1313  1.3942
  968MOL0     H27740  -2.602   3.891   2.840  1.0283  2.2849  0.2500
  968MOL0     H27741  -2.673   3.759   2.656  1.3564 -0.2015 -0.1716
  968MOL0     H27742  -2.684   3.602   2.527  1.4157  2.2214  1.7571
  968MOL0     H27743  -2.527   3.522   2.567  2.2835  1.2902 -0.2427
  968MOL0     H27744  -2.690   3.393   2.419  1.0114 -0.8564  2.1573
  968MOL0     H27745  -2.518   3.382   2.393  0.0670  0.7434  0.8348
  968MOL0     H27746  -2.521   3.551   2.211  0.3271  0.5102 -1.7128
  968MOL0     H27747  -2.691   3.570   2.230  1.8280  1.6442 -0.4851
  968MOL0     H27748  -2.528   3.325   2.136  1.1702  2.2565 -2.3221
  968MOL0     H27749  -2.693   3.295   2.187  1.2160  0.5582  1.0651
  968MOL0     H27750  -2.788   3.447   2.016 -0.6087 -2.0933 -0.8252
  968MOL0     H27751  -2.694   3.324   1.941  0.1320 -1.0651  0.4267
  968MOL0     H27752  -2.495   3.497   1.932  0.0975  1.6335 -1.0670
  968MOL0     H27753  -2.607   3.618   1.981  0.9248  1.3771 -1.1506
  968MOL0     H27754  -2.619   3.424   1.735 -0.1661  0.5462 -1.6578
  968MOL0     H27755  -2.745   3.550   1.768  0.7533 -0.3646 -1.1250
  968MOL0     H27756  -2.530   3.699   1.741  2.1654 -0.5477  1.3580
  968MOL0     H27757  -2.594   3.618   1.605  2.2067 -1.4495 -1.0075
  968MOL0     H27758  -2.295   3.812   2.457  2.1060  3.9998  0.2040
  968MOL0     H27759  -2.233   3.963   2.628  1.1105 -2.9044  1.0989
  968MOL0     H27760  -2.151   4.174   2.895  0.7653 -2.4120  1.6604
  968MOL0     H27761  -2.017   4.317   3.017  0.7272  3.1525  1.1807
  968MOL0     H27762  -0.369   5.468   3.513 -3.2495 -2.0803  0.4228
  968MOL0     H27763  -0.120   5.438   3.426  0.0718  0.7820  0.9761
  968MOL0     H27764   0.304   5.427   3.254 -1.7987 -0.3339  1.2590
  968MOL0     H27765   0.559   5.390   3.250 -0.2852 -2.3910 -1.2733
  968MOL0     H27766   0.755   5.152   3.578  1.6682  0.2909  2.4246
  968MOL0     H27767   0.698   5.306   3.640 -0.4852 -0.3512  0.0375
  968MOL0     H27768   0.912   5.322   3.662 -0.8235 -2.7469 -0.1759
  968MOL0     H27769   0.949   5.273   3.493  2.1786 -0.3843  1.4890
  968MOL0     H27770   0.784   5.510   3.595 -0.0279 -2.3687 -0.2956
  968MOL0     H27771   0.838   5.500   3.422  1.6129  0.7191 -0.3700
  968MOL0     H27772   1.069   5.525   3.469  0.9666 -0.3612  0.6171
  968MOL0     H27773   0.961   5.659   3.496  1.1260 -2.3136 -6.2713
  968MOL0     H27774   1.074   5.584   3.891 -0.1752  0.2185  0.6908
  968MOL0     H27775   0.513   5.149   3.598  0.9593  0.3377 -0.0298
  968MOL0     H27776   0.275   5.150   3.587  1.4713  0.3339  0.2889
  969MOL0     O27777   9.507  10.944   8.641  0.3510  0.1003 -0.2388
  969MOL0     C27778   9.433  11.026   8.688 -0.7124  0.0223  0.0531
  969MOL0     O27779   9.470  11.135   8.759  0.4690 -0.2539 -0.9916
  969MOL0     C27780   9.554  11.130   8.863 -0.2020 -0.6227  0.5046
  969MOL0     C27781   9.532  11.219   8.970 -0.1910 -0.0743 -0.1891
  969MOL0     C27782   9.610  11.214   9.084 -0.7931  0.6137 -1.0149
  969MOL0     C27783   9.719  11.125   9.106 -0.0121  0.5288  1.3250
  969MOL0     O27784   9.779  11.121   9.233  1.0331  0.3176  0.7528
  969MOL0     C27785   9.899  11.043   9.240 -0.6579 -0.2280 -0.5164
  969MOL0     C27786   9.972  11.067   9.374  0.3905 -0.1444  0.0553
  969MOL0     C27787  10.121  11.020   9.367 -0.3655 -0.4001  0.0352
  969MOL0     C27788  10.208  11.099   9.472 -0.2234 -0.5935 -0.7447
  969MOL0     C27789  10.188  11.041   9.616  0.0831 -0.0516 -0.2767
  969MOL0     C27790  10.242  10.900   9.634 -0.1383  0.1124  0.1727
  969MOL0     C27791  10.245  10.863   9.783 -0.3302  0.1491  0.1962
  969MOL0     C27792  10.353  10.947   9.859 -0.9925 -0.7019  0.0120
  969MOL0     N27793  10.357  10.937  10.005 -0.4368  0.8312  0.1585
  969MOL0     C27794  10.405  10.820  10.064 -0.6161 -0.4953  1.7597
  969MOL0     C27795  10.377  10.827  10.195  0.6533  0.0863 -0.7032
  969MOL0     C27796  10.411  10.721  10.304 -0.3202  0.1563  0.0056
  969MOL0     C27797  10.297  10.624  10.329 -0.2838 -0.7866 -0.5532
  969MOL0     C27798  10.170  10.700  10.361  0.1820 -0.3023 -0.3834
  969MOL0     C27799  10.050  10.687  10.259  0.3000 -0.0253 -0.3908
  969MOL0     O27800  10.019  10.553  10.236 -0.7394 -0.0125 -0.0150
  969MOL0     C27801   9.895  10.521  10.183  0.2110 -0.6269 -0.0766
  969MOL0     C27802   9.860  10.384  10.191  0.5043  0.2771 -0.5939
  969MOL0     C27803   9.730  10.335  10.145  0.4547 -0.0638  0.3011
  969MOL0     C27804   9.641  10.423  10.081 -0.6388  0.4582 -0.0397
  969MOL0     C27805   9.514  10.377  10.031  0.1263  0.2965 -0.1746
  969MOL0     O27806   9.441  10.462   9.954  0.5632  0.8291  0.0581
  969MOL0     C27807   9.319  10.427   9.915  0.2190 -0.0638  0.3385
  969MOL0     C27808   9.216  10.418  10.012  0.3182 -1.2865  0.2840
  969MOL0     C27809   9.078  10.401   9.969 -0.1358 -0.0193 -0.2823
  969MOL0     C27810   9.047  10.404   9.832 -0.3190 -0.0233  0.0204
  969MOL0     O27811   8.920  10.400   9.787  0.4816 -0.7244 -0.0060
  969MOL0     C27812   8.817  10.483   9.845 -0.0429  0.1837  0.5043
  969MOL0     C27813   8.708  10.396   9.895  0.3884  0.0526 -0.3547
  969MOL0     C27814   8.589  10.475   9.950  0.5935 -0.4068  0.3993
  969MOL0     C27815   8.485  10.369   9.991 -0.0355 -0.4548 -0.3713
  969MOL0     C27816   8.370  10.426  10.084  0.2888  0.0081 -0.7136
  969MOL0     C27817   8.271  10.533  10.031  0.8671 -0.1492 -0.2427
  969MOL0     C27818   8.122  10.490  10.058 -0.3975 -0.1931 -0.0472
  969MOL0     C27819   8.090  10.488  10.212  0.0709 -0.4293 -0.6315
  969MOL0    Cl27820   7.911  10.454  10.246  0.6129 -0.0519  0.0607
  969MOL0     C27821   9.148  10.412   9.742  0.0899  0.7607 -0.3020
  969MOL0     C27822   9.283  10.437   9.782 -0.0923 -1.1815  0.2923
  969MOL0     O27823   9.476  10.260  10.059  0.6222  0.3234 -0.5414
  969MOL0     C27824   9.675  10.558  10.078 -0.9801 -0.3076  0.3548
  969MOL0     C27825   9.798  10.610  10.133 -0.1311  0.0479 -0.2024
  969MOL0     N27826  10.314  10.950  10.212 -0.5886  0.5931 -0.1353
  969MOL0     N27827  10.297  11.008  10.093  0.2095  0.3883  0.2318
  969MOL0     C27828   9.732  11.036   9.003 -0.2131  0.0794  0.0313
  969MOL0     C27829   9.649  11.031   8.894 -0.4674  0.6759 -0.2443
  969MOL0     C27830   9.292  10.999   8.664  0.3351  0.5920  0.3469
  969MOL0     C27831   9.198  11.092   8.704 -0.7073  0.5293 -0.3485
  969MOL0     C27832   9.061  11.070   8.671  0.2034  0.1136  0.1453
  969MOL0     C27833   9.021  10.953   8.603  0.5134  0.1592 -0.2748
  969MOL0     O27834   8.885  10.935   8.574 -0.3140  0.0413 -0.0544
  969MOL0     C27835   8.854  10.867   8.458 -0.0705 -0.7589 -0.1066
  969MOL0     C27836   8.740  10.937   8.395  0.3645 -0.1511 -0.1944
  969MOL0     C27837   8.618  10.939   8.489 -0.3599 -0.2487 -0.1255
  969MOL0     C27838   8.585  11.074   8.557  0.5085 -1.0104  0.2740
  969MOL0     C27839   8.571  11.179   8.454  0.2954  0.1486 -0.2454
  969MOL0     C27840   8.578  11.261   8.370 -0.2525 -0.9884  0.4029
  969MOL0     C27841   9.118  10.859   8.571  0.1656  0.2253 -0.5022
  969MOL0     C27842   9.246  10.879   8.615 -0.1995  0.4162  1.5970
  969MOL0     H27843   9.449  11.288   8.964  0.1352  0.3932  0.4932
  969MOL0     H27844   9.583  11.279   9.166  3.3301  2.8737 -1.1846
  969MOL0     H27845   9.971  11.082   9.168  1.0233 -0.4187  0.9866
  969MOL0     H27846   9.881  10.936   9.224 -1.3984 -0.2551  0.3662
  969MOL0     H27847   9.913  11.032   9.459 -1.4259 -0.1047 -1.1185
  969MOL0     H27848   9.974  11.174   9.396 -0.1837 -0.1976  0.3848
  969MOL0     H27849  10.166  11.053   9.273 -1.7130 -1.6762 -1.1276
  969MOL0     H27850  10.120  10.910   9.366 -3.4862 -0.4792 -0.6243
  969MOL0     H27851  10.309  11.079   9.435 -0.9044 -1.2809 -2.3160
  969MOL0     H27852  10.189  11.206   9.468  3.2374  0.4193  2.7926
  969MOL0     H27853  10.080  11.036   9.631  0.0231 -1.7205 -1.0646
  969MOL0     H27854  10.228  11.113   9.688  1.4343 -1.7560  0.7483
  969MOL0     H27855  10.339  10.891   9.584  0.1964 -0.8553  0.9575
  969MOL0     H27856  10.178  10.830   9.580 -0.6392  2.1078 -1.9641
  969MOL0     H27857  10.148  10.881   9.831 -0.8958 -3.1597  0.5580
  969MOL0     H27858  10.274  10.760   9.804 -1.6568  0.4554  4.5550
  969MOL0     H27859  10.312  11.045   9.835 -0.8608 -1.4190 -3.6784
  969MOL0     H27860  10.457  10.938   9.826  0.1006  4.0482  1.3237
  969MOL0     H27861  10.475  10.754  10.015  0.0728  3.2667 -3.1227
  969MOL0     H27862  10.448  10.759  10.400  1.9303 -1.7363 -0.0347
  969MOL0     H27863  10.495  10.664  10.263 -0.1287  1.4376 -1.4905
  969MOL0     H27864  10.319  10.553  10.410  0.3404 -1.2178 -1.0866
  969MOL0     H27865  10.280  10.578  10.232  2.6449  0.2248 -1.6680
  969MOL0     H27866  10.122  10.669  10.454 -2.6547  0.5969 -1.4387
  969MOL0     H27867  10.181  10.808  10.367  0.2458 -0.2738 -0.9502
  969MOL0     H27868  10.080  10.721  10.160  1.7860  1.3518  0.4795
  969MOL0     H27869   9.964  10.751  10.285  0.2140  0.8529 -2.6424
  969MOL0     H27870   9.924  10.305  10.228 -1.1358 -0.8746 -0.1505
  969MOL0     H27871   9.716  10.228  10.155  0.3397 -0.2922 -1.8004
  969MOL0     H27872   9.232  10.413  10.119 -1.0741  0.8118  0.6522
  969MOL0     H27873   8.999  10.385  10.042 -2.3717 -2.0258 -2.9190
  969MOL0     H27874   8.772  10.548   9.770 -0.9798 -2.5485 -1.4491
  969MOL0     H27875   8.858  10.542   9.928  1.2979 -1.4530  1.0734
  969MOL0     H27876   8.747  10.323   9.967  1.8406 -2.4839 -3.4704
  969MOL0     H27877   8.680  10.330   9.813  0.9038 -0.8783  0.2104
  969MOL0     H27878   8.552  10.538   9.868  0.0976 -0.0749  0.8740
  969MOL0     H27879   8.617  10.537  10.036 -0.5629 -1.4979  1.5960
  969MOL0     H27880   8.444  10.328   9.898 -1.8586  0.4048  0.0124
  969MOL0     H27881   8.529  10.288  10.050 -0.8736 -2.4172 -2.3032
  969MOL0     H27882   8.410  10.469  10.177  1.2220 -1.4375 -0.4020
  969MOL0     H27883   8.317  10.336  10.116 -1.8979  1.6152  0.3998
  969MOL0     H27884   8.300  10.548   9.926 -2.2823 -0.8975 -1.3259
  969MOL0     H27885   8.276  10.632  10.077 -3.3681 -0.1810  0.6419
  969MOL0     H27886   8.062  10.560   9.999  0.4224  2.7720  2.3262
  969MOL0     H27887   8.097  10.390  10.022  1.4881  1.2380 -6.7662
  969MOL0     H27888   8.103  10.589  10.253  0.8057 -0.5578 -0.5341
  969MOL0     H27889   8.166  10.425  10.259 -1.0202 -0.0864  1.6856
  969MOL0     H27890   9.110  10.408   9.640 -1.5185  0.4043  0.2911
  969MOL0     H27891   9.359  10.441   9.704 -2.1958  1.6819 -1.8415
  969MOL0     H27892   9.596  10.614  10.029  1.0884  1.4311 -1.1732
  969MOL0     H27893   9.829  10.713  10.139 -1.4544  0.5381 -1.2815
  969MOL0     H27894   9.801  10.953   9.017 -0.0114  0.3871  0.9552
  969MOL0     H27895   9.664  10.954   8.819 -0.5752 -2.2122  2.5528
  969MOL0     H27896   9.232  11.179   8.759  0.6736 -1.2388  1.7687
  969MOL0     H27897   8.990  11.147   8.702 -0.2377 -0.7374  1.3691
  969MOL0     H27898   8.831  10.763   8.483  0.2181 -1.1302 -1.3068
  969MOL0     H27899   8.944  10.851   8.399 -0.2708 -3.6350  0.2498
  969MOL0     H27900   8.768  11.039   8.366 -4.3102  1.5253  0.3345
  969MOL0     H27901   8.720  10.892   8.298  0.0764 -3.1038  1.1419
  969MOL0     H27902   8.629  10.864   8.567  0.9339 -1.5590 -1.5107
  969MOL0     H27903   8.529  10.924   8.427  1.0480  0.9818 -2.6151
  969MOL0     H27904   8.490  11.056   8.606  0.7756 -1.4763  0.6265
  969MOL0     H27905   8.664  11.101   8.627  0.9805 -0.8944 -0.2857
  969MOL0     H27906   8.593  11.345   8.306 -1.9756 -2.8741 -2.7693
  969MOL0     H27907   9.100  10.770   8.513 -0.2408  1.1059 -1.7773
  969MOL0     H27908   9.309  10.792   8.600 -2.5882 -1.1129 -0.4516
  970MOL0     O27909   6.828   9.546   9.357  0.8982 -0.1480 -0.0546
  970MOL0     C27910   6.913   9.458   9.350 -1.1594 -0.4002  0.8204
  970MOL0     O27911   6.892   9.332   9.295 -0.3655 -0.2370 -0.5165
  970MOL0     C27912   6.769   9.319   9.245 -0.2701 -1.0402 -0.4269
  970MOL0     C27913   6.681   9.248   9.329  0.5449  0.1158  0.7250
  970MOL0     C27914   6.554   9.225   9.282  0.3818 -0.2509 -0.0558
  970MOL0     C27915   6.505   9.275   9.160 -0.8148  0.7064  0.2486
  970MOL0     O27916   6.389   9.243   9.096  0.4202  0.1583  0.2731
  970MOL0     C27917   6.277   9.188   9.160  0.4610  0.1666 -0.4893
  970MOL0     C27918   6.148   9.273   9.108 -0.5425  0.3720  0.2239
  970MOL0     C27919   6.020   9.268   9.200  0.5003 -0.1467  1.2312
  970MOL0     C27920   5.903   9.340   9.146  0.0390  0.0366 -0.8910
  970MOL0     C27921   5.773   9.318   9.231 -0.1408  0.5545 -0.2877
  970MOL0     C27922   5.647   9.359   9.161 -0.5751 -0.9129  0.5037
  970MOL0     C27923   5.664   9.507   9.094 -0.0423 -0.7958  0.0544
  970MOL0     C27924   5.556   9.551   8.992  0.7029 -0.3623  0.0789
  970MOL0     N27925   5.418   9.515   9.020 -0.4667 -0.1066  0.0857
  970MOL0     C27926   5.332   9.568   9.105 -0.3255 -0.7287  0.1911
  970MOL0     C27927   5.212   9.503   9.091  0.0769  0.2348  0.6237
  970MOL0     C27928   5.089   9.530   9.173  0.4093  0.2546 -0.5116
  970MOL0     C27929   4.976   9.576   9.081 -0.2698  0.5524  0.2915
  970MOL0     C27930   4.838   9.588   9.152 -0.0700  0.7509  0.1674
  970MOL0     C27931   4.742   9.679   9.059 -0.1827  0.9843 -0.7778
  970MOL0     O27932   4.613   9.674   9.116  0.0685 -0.9219  0.1409
  970MOL0     C27933   4.509   9.724   9.047 -0.2132 -0.2776  0.3001
  970MOL0     C27934   4.520   9.849   8.984  0.2451  0.0512  0.5482
  970MOL0     C27935   4.412   9.901   8.913 -0.5075 -0.1232  0.1630
  970MOL0     C27936   4.285   9.832   8.919 -0.3194 -0.3444  0.8975
  970MOL0     C27937   4.162   9.888   8.855  0.0265  0.7748  0.1130
  970MOL0     O27938   4.162  10.016   8.826 -0.0777 -0.2952  0.4919
  970MOL0     C27939   4.044  10.075   8.793 -0.4234 -0.2175 -1.1081
  970MOL0     C27940   3.929  10.062   8.861 -0.3274  0.1874 -0.8489
  970MOL0     C27941   3.813  10.137   8.831 -0.0585  0.2927 -0.2734
  970MOL0     C27942   3.825  10.240   8.739  1.0137  0.5471 -0.7681
  970MOL0     O27943   3.705  10.301   8.707 -0.2084  0.2619 -0.3564
  970MOL0     C27944   3.672  10.319   8.566 -0.2454  0.0677  0.4614
  970MOL0     C27945   3.654  10.185   8.490  0.2350 -1.4075 -0.1601
  970MOL0     C27946   3.524  10.113   8.531 -0.1007  0.8422 -0.3025
  970MOL0     C27947   3.388  10.175   8.488  0.3214  0.1580 -0.0925
  970MOL0     C27948   3.268  10.072   8.509 -0.5260 -0.0386  0.0136
  970MOL0     C27949   3.235  10.015   8.652 -0.4368  0.4457 -0.1558
  970MOL0     C27950   3.124   9.912   8.631 -0.2136 -0.4874 -0.0688
  970MOL0     C27951   3.154   9.792   8.545  0.3268 -0.5672 -0.3572
  970MOL0    Cl27952   3.048   9.639   8.567 -0.1465  0.2374 -0.1753
  970MOL0     C27953   3.943  10.265   8.673 -0.2114 -0.3573 -0.3164
  970MOL0     C27954   4.054  10.184   8.703  0.2804  0.1024  0.1658
  970MOL0     O27955   4.077   9.802   8.821 -0.2747 -1.2736  0.4161
  970MOL0     C27956   4.276   9.708   8.987 -0.3581 -0.8832  0.3853
  970MOL0     C27957   4.390   9.653   9.052  0.1059 -0.1617 -0.0993
  970MOL0     N27958   5.235   9.402   8.995 -1.2212  0.4860 -0.1067
  970MOL0     N27959   5.362   9.409   8.953 -0.0276  0.0654 -0.5294
  970MOL0     C27960   6.593   9.352   9.078  0.2686  0.3339 -0.6868
  970MOL0     C27961   6.726   9.371   9.121  0.0238  0.0371  0.1811
  970MOL0     C27962   7.049   9.481   9.397 -0.0916 -0.4360 -1.0103
  970MOL0     C27963   7.090   9.611   9.440  0.3149  0.0044 -0.5721
  970MOL0     C27964   7.225   9.624   9.479  0.4447  0.9962 -0.4310
  970MOL0     C27965   7.319   9.524   9.481  0.1382  0.7022  0.9107
  970MOL0     O27966   7.445   9.549   9.523  0.3964  0.5214  0.0434
  970MOL0     C27967   7.541   9.443   9.522 -0.2455  0.8917  0.4534
  970MOL0     C27968   7.681   9.505   9.557 -0.5416  0.3304 -0.8027
  970MOL0     C27969   7.777   9.387   9.553  0.2055  0.3307  0.3322
  970MOL0     C27970   7.919   9.437   9.528  0.0469 -0.1960 -0.2677
  970MOL0     C27971   8.015   9.331   9.537 -0.4397  0.1276  0.5804
  970MOL0     C27972   8.081   9.232   9.547 -0.2717  0.4651 -0.7798
  970MOL0     C27973   7.271   9.395   9.444 -0.6196 -0.5114 -0.6921
  970MOL0     C27974   7.141   9.373   9.402  0.1785 -0.2726  1.0054
  970MOL0     H27975   6.709   9.212   9.427 -0.3229  2.0865  1.7457
  970MOL0     H27976   6.493   9.169   9.353 -1.8527  0.6674 -1.1336
  970MOL0     H27977   6.284   9.191   9.269 -0.0618  0.7118 -0.4658
  970MOL0     H27978   6.265   9.080   9.146 -2.7469  0.2342  0.8677
  970MOL0     H27979   6.125   9.220   9.015 -0.8703  0.5480  0.1996
  970MOL0     H27980   6.175   9.378   9.091 -1.1261  0.8765  2.1542
  970MOL0     H27981   6.054   9.305   9.297 -0.2852 -2.6961  2.5754
  970MOL0     H27982   5.987   9.166   9.219 -0.9074  0.0485  0.0329
  970MOL0     H27983   5.923   9.447   9.137  0.6209 -0.1384 -1.7708
  970MOL0     H27984   5.886   9.304   9.044 -0.1172  1.1736 -1.2838
  970MOL0     H27985   5.779   9.387   9.316  0.5943  2.2470 -1.6706
  970MOL0     H27986   5.765   9.215   9.267  0.7784  0.4562 -0.3455
  970MOL0     H27987   5.556   9.355   9.220  0.3615  1.5588  2.3147
  970MOL0     H27988   5.647   9.301   9.068  1.2866  0.3059 -0.3250
  970MOL0     H27989   5.668   9.573   9.181 -0.9329 -1.2037  0.4202
  970MOL0     H27990   5.762   9.528   9.051 -0.9246 -0.2391 -1.7474
  970MOL0     H27991   5.587   9.502   8.899  1.2581  2.3005 -1.2353
  970MOL0     H27992   5.566   9.659   8.980  1.1444 -0.4577 -0.4511
  970MOL0     H27993   5.346   9.639   9.186 -0.2648  0.8308 -1.1367
  970MOL0     H27994   5.112   9.601   9.253  2.3297 -2.1443  1.2253
  970MOL0     H27995   5.070   9.436   9.227  1.3900  1.0273  1.2632
  970MOL0     H27996   4.958   9.506   8.999 -0.2747  1.5255 -0.5627
  970MOL0     H27997   5.004   9.674   9.041  0.3078  0.6618  0.9466
  970MOL0     H27998   4.803   9.489   9.185  3.3050 -0.4121  0.6449
  970MOL0     H27999   4.851   9.637   9.249  2.6896 -2.2151  1.4652
  970MOL0     H28000   4.743   9.654   8.952  0.5288  1.1038 -0.8089
  970MOL0     H28001   4.775   9.784   9.054 -3.1486  2.0193 -0.1917
  970MOL0     H28002   4.616   9.900   8.977  1.5924 -2.4554 -0.3477
  970MOL0     H28003   4.430   9.996   8.865  2.4646 -0.1666  0.9547
  970MOL0     H28004   3.917   9.977   8.927 -0.3637 -1.0722 -2.4263
  970MOL0     H28005   3.721  10.123   8.887  1.0049 -1.9460  1.0408
  970MOL0     H28006   3.748  10.375   8.512 -0.0198  2.1479  2.7460
  970MOL0     H28007   3.582  10.380   8.556  0.8418  1.3674 -1.9978
  970MOL0     H28008   3.739  10.118   8.504 -0.5172 -3.1059 -2.8563
  970MOL0     H28009   3.649  10.199   8.382  0.4288  1.4000  0.1105
  970MOL0     H28010   3.521  10.110   8.640 -0.4753  3.0987 -0.2045
  970MOL0     H28011   3.528  10.009   8.496  0.2114  1.6935 -3.0786
  970MOL0     H28012   3.375  10.270   8.541 -2.5869  0.0828 -0.5169
  970MOL0     H28013   3.377  10.211   8.385 -3.1581 -0.5206 -0.0607
  970MOL0     H28014   3.288   9.985   8.446 -0.8191 -0.6096  0.6840
  970MOL0     H28015   3.175  10.106   8.463 -0.6309  0.3439  0.5012
  970MOL0     H28016   3.204  10.104   8.707  1.4626  2.6874 -2.4802
  970MOL0     H28017   3.326   9.976   8.699 -0.7993  0.7765  0.8557
  970MOL0     H28018   3.097   9.869   8.727  1.2837  1.2935  1.2256
  970MOL0     H28019   3.030   9.965   8.612 -0.7001  0.2433  3.6807
  970MOL0     H28020   3.262   9.776   8.551  0.2713 -0.5010  1.1705
  970MOL0     H28021   3.140   9.815   8.439  0.8160 -1.9923 -0.7460
  970MOL0     H28022   3.958  10.341   8.597  2.5095  0.0881  0.5440
  970MOL0     H28023   4.151  10.211   8.662  0.2733 -0.1141  0.0037
  970MOL0     H28024   4.180   9.661   8.968 -0.3192 -0.5463 -0.7214
  970MOL0     H28025   4.388   9.565   9.115 -1.3852  0.8257  1.2928
  970MOL0     H28026   6.558   9.382   8.979  2.8132 -0.9371 -2.0566
  970MOL0     H28027   6.795   9.420   9.053 -0.8256  1.5975  0.3923
  970MOL0     H28028   7.022   9.696   9.444  1.1508  0.6635  2.9970
  970MOL0     H28029   7.263   9.723   9.500 -1.0533  1.3918  0.5385
  970MOL0     H28030   7.553   9.402   9.422  0.2667  1.9793  0.0479
  970MOL0     H28031   7.521   9.360   9.591 -0.7661 -1.4198 -2.2981
  970MOL0     H28032   7.692   9.582   9.480 -3.7016  0.9361 -0.7733
  970MOL0     H28033   7.678   9.546   9.659 -0.9799  0.4505 -0.8604
  970MOL0     H28034   7.749   9.320   9.471  1.2886  0.9745 -0.5978
  970MOL0     H28035   7.776   9.331   9.647  0.5652 -0.2124  0.0183
  970MOL0     H28036   7.934   9.489   9.432  0.1678  0.8069  0.2832
  970MOL0     H28037   7.933   9.507   9.611 -3.4575  2.2346 -1.4859
  970MOL0     H28038   8.131   9.137   9.556  2.1328  1.6504 -0.7671
  970MOL0     H28039   7.339   9.310   9.451 -2.0269 -1.5462  1.5426
  970MOL0     H28040   7.110   9.277   9.363 -0.8885  0.9982 -1.5377
  971MOL0     O28041   2.461   9.506   0.147  0.1361 -0.1319 -0.9120
  971MOL0     C28042   2.450   9.621   0.095 -0.6858  0.4436  0.5117
  971MOL0     O28043   2.352   9.667   0.010  0.4584  0.6310 -0.0200
  971MOL0     C28044   2.256   9.579  -0.038 -0.6975  0.6075 -0.3179
  971MOL0     C28045   2.121   9.597  -0.001 -0.8091  0.1066 -0.3986
  971MOL0     C28046   2.027   9.500  -0.029  0.6016 -0.2719 -0.0310
  971MOL0     C28047   2.063   9.389  -0.108  0.6031  0.4016 -0.3460
  971MOL0     O28048   1.977   9.280  -0.144 -0.1147 -0.3012 -0.4639
  971MOL0     C28049   1.880   9.218  -0.056  1.0747  0.1205 -0.5117
  971MOL0     C28050   1.804   9.109  -0.114  1.0958  1.3195  0.2213
  971MOL0     C28051   1.741   9.153  -0.247 -0.3621 -0.0402 -0.4880
  971MOL0     C28052   1.648   9.041  -0.289  1.6362 -0.3010  0.6178
  971MOL0     C28053   1.548   9.086  -0.408  0.5165  0.1889 -0.2542
  971MOL0     C28054   1.457   8.972  -0.451  0.2369 -0.1171 -1.0182
  971MOL0     C28055   1.336   8.971  -0.350  1.0317  0.1969  0.2872
  971MOL0     C28056   1.223   8.883  -0.404  0.1999  0.3188  0.0543
  971MOL0     N28057   1.255   8.739  -0.411  0.1162  0.0039 -0.6895
  971MOL0     C28058   1.303   8.672  -0.520  0.3869  0.6754  0.2460
  971MOL0     C28059   1.296   8.537  -0.483 -0.8137 -0.4468  0.4898
  971MOL0     C28060   1.334   8.416  -0.568 -0.2215 -0.5041  0.9237
  971MOL0     C28061   1.415   8.462  -0.685  0.0503  0.6645 -0.4828
  971MOL0     C28062   1.494   8.349  -0.764  1.1650 -0.3279  0.6404
  971MOL0     C28063   1.581   8.410  -0.874 -0.9803 -1.1776 -0.5983
  971MOL0     O28064   1.648   8.303  -0.942  0.8366  0.0970  1.1846
  971MOL0     C28065   1.738   8.333  -1.034  0.2308 -0.2794  0.1029
  971MOL0     C28066   1.799   8.234  -1.106 -0.4370  0.6527  0.8260
  971MOL0     C28067   1.901   8.246  -1.203  0.7392 -0.6049  0.5285
  971MOL0     C28068   1.946   8.374  -1.234  0.4876  0.3350 -0.7060
  971MOL0     C28069   2.043   8.380  -1.353 -0.6312 -0.1317 -1.0723
  971MOL0     O28070   2.081   8.503  -1.387 -0.2568 -0.2991 -0.3829
  971MOL0     C28071   2.182   8.524  -1.472  0.8914  0.9536 -0.2532
  971MOL0     C28072   2.240   8.443  -1.567 -0.0347  0.2026 -0.7965
  971MOL0     C28073   2.347   8.478  -1.640  0.4220 -1.4581 -0.8751
  971MOL0     C28074   2.413   8.603  -1.613 -0.8678  0.8269 -0.0355
  971MOL0     O28075   2.532   8.645  -1.672  0.2246  0.4210 -1.1447
  971MOL0     C28076   2.589   8.574  -1.780  0.1494 -0.1003 -0.2572
  971MOL0     C28077   2.734   8.640  -1.795  1.0660  0.1668 -0.2052
  971MOL0     C28078   2.768   8.644  -1.946  0.2419  0.0853 -0.3263
  971MOL0     C28079   2.918   8.673  -1.962 -0.2941 -0.2387 -0.1008
  971MOL0     C28080   2.945   8.686  -2.113  0.3487 -0.4062 -0.3777
  971MOL0     C28081   3.091   8.703  -2.142 -0.1473  0.6133  0.6098
  971MOL0     C28082   3.108   8.694  -2.300  0.2529 -0.1537 -0.2968
  971MOL0     C28083   3.260   8.694  -2.330  0.9593 -0.1071 -0.8455
  971MOL0    Cl28084   3.295   8.662  -2.505 -0.1329  0.4064 -0.5606
  971MOL0     C28085   2.343   8.690  -1.526 -0.7060  0.0238 -0.4625
  971MOL0     C28086   2.230   8.650  -1.454 -1.1089  0.7665 -0.0984
  971MOL0     O28087   2.108   8.279  -1.381 -0.0397 -0.5194 -0.5231
  971MOL0     C28088   1.887   8.483  -1.169  0.3256  0.3442  0.6157
  971MOL0     C28089   1.780   8.462  -1.076 -0.0320 -0.3115 -0.5995
  971MOL0     N28090   1.256   8.535  -0.352  0.1900 -0.2371  0.7728
  971MOL0     N28091   1.229   8.654  -0.313  0.1579  0.4388 -0.3762
  971MOL0     C28092   2.196   9.378  -0.160 -0.2699  0.0119  0.1521
  971MOL0     C28093   2.291   9.475  -0.130 -0.0650 -0.5177  0.2980
  971MOL0     C28094   2.553   9.733   0.131 -0.8156  0.1562 -0.1209
  971MOL0     C28095   2.639   9.718   0.243 -0.0078  1.3150 -0.1510
  971MOL0     C28096   2.723   9.823   0.278 -0.1865 -0.0283  1.0346
  971MOL0     C28097   2.733   9.933   0.207  0.0295  0.1179  1.3371
  971MOL0     O28098   2.831  10.021   0.254 -0.6102  0.2338  0.4514
  971MOL0     C28099   2.884  10.129   0.173 -0.9455 -0.1124 -0.3252
  971MOL0     C28100   2.971  10.222   0.267  0.2284 -0.1649  0.0016
  971MOL0     C28101   3.107  10.158   0.300 -0.4072  0.4641 -0.2785
  971MOL0     C28102   3.185  10.241   0.404 -0.5149 -0.2815  0.0524
  971MOL0     C28103   3.209  10.374   0.345 -0.4495  0.3275 -0.2724
  971MOL0     C28104   3.230  10.470   0.283  0.7456 -0.7117 -0.0539
  971MOL0     C28105   2.662   9.943   0.083  0.4768 -0.0514  0.7407
  971MOL0     C28106   2.566   9.843   0.049 -0.0861 -0.1385 -0.4202
  971MOL0     H28107   2.102   9.685   0.059 -0.3260  2.2074 -3.1252
  971MOL0     H28108   1.927   9.524   0.006  1.1635  0.5239  1.0816
  971MOL0     H28109   1.807   9.292  -0.022 -0.3220 -2.0260  1.4679
  971MOL0     H28110   1.930   9.184   0.035 -0.3003 -1.7434 -0.4112
  971MOL0     H28111   1.735   9.061  -0.045  0.4899  3.0574  0.8737
  971MOL0     H28112   1.876   9.034  -0.151 -0.9472  0.1817 -1.6588
  971MOL0     H28113   1.814   9.171  -0.327 -0.6786  2.5331 -0.2714
  971MOL0     H28114   1.683   9.245  -0.232 -0.0943  0.0372  0.0791
  971MOL0     H28115   1.705   8.953  -0.323 -1.4095 -2.3453  0.3914
  971MOL0     H28116   1.581   9.016  -0.206 -4.0306  1.1991 -2.8893
  971MOL0     H28117   1.621   9.109  -0.487  2.3208 -0.6757  1.0868
  971MOL0     H28118   1.485   9.173  -0.386 -2.8332 -1.7596 -1.5099
  971MOL0     H28119   1.517   8.880  -0.457  0.0718 -0.3486  0.5026
  971MOL0     H28120   1.415   8.984  -0.551  1.8190 -1.4261 -1.8919
  971MOL0     H28121   1.369   8.943  -0.250  0.8069  1.5831  0.7689
  971MOL0     H28122   1.307   9.076  -0.346  1.3171  0.2366  1.8938
  971MOL0     H28123   1.181   8.919  -0.498 -3.2418 -1.8535  0.6090
  971MOL0     H28124   1.141   8.894  -0.334  0.0205 -1.3605  0.1469
  971MOL0     H28125   1.332   8.715  -0.615  3.1674  0.9852  1.1470
  971MOL0     H28126   1.240   8.376  -0.609  0.9659 -1.0071 -1.4916
  971MOL0     H28127   1.397   8.345  -0.515  1.8145  1.6162  1.4757
  971MOL0     H28128   1.491   8.538  -0.665  0.1825 -0.2600  3.4726
  971MOL0     H28129   1.343   8.510  -0.752  1.1497  1.1635 -1.3270
  971MOL0     H28130   1.550   8.286  -0.694 -0.2830 -2.2174  0.1869
  971MOL0     H28131   1.420   8.287  -0.815  0.1730  1.8042 -0.6273
  971MOL0     H28132   1.646   8.466  -0.806 -2.0243 -4.0491  3.0949
  971MOL0     H28133   1.531   8.478  -0.944 -2.3259 -0.6463  0.8265
  971MOL0     H28134   1.788   8.127  -1.089 -2.1903  1.0236  2.2894
  971MOL0     H28135   1.956   8.167  -1.252  0.6905  1.6420 -3.5666
  971MOL0     H28136   2.192   8.353  -1.605  2.8887 -1.0450 -1.8271
  971MOL0     H28137   2.385   8.402  -1.707 -2.6695 -1.8135 -2.4353
  971MOL0     H28138   2.518   8.586  -1.863  0.6313 -0.2458 -0.6954
  971MOL0     H28139   2.599   8.465  -1.769  0.9427 -0.2514 -2.1032
  971MOL0     H28140   2.812   8.576  -1.751  1.3362 -3.2804 -4.9259
  971MOL0     H28141   2.731   8.736  -1.743 -0.2377 -0.0226  0.0942
  971MOL0     H28142   2.713   8.723  -1.997 -0.7220 -2.5167 -3.6796
  971MOL0     H28143   2.757   8.552  -2.004  2.0417  0.3238 -1.1205
  971MOL0     H28144   2.949   8.766  -1.913  1.5836 -1.3491  0.9445
  971MOL0     H28145   2.982   8.596  -1.919  0.6457  0.3066 -0.4946
  971MOL0     H28146   2.894   8.766  -2.167 -0.4164 -0.1762  0.6444
  971MOL0     H28147   2.907   8.591  -2.152  0.3888 -1.1600  1.3273
  971MOL0     H28148   3.146   8.620  -2.096 -0.9802 -0.1663  0.2193
  971MOL0     H28149   3.118   8.800  -2.098  0.9318  1.0501 -0.9347
  971MOL0     H28150   3.053   8.609  -2.342 -3.7784  1.3936  1.4445
  971MOL0     H28151   3.063   8.785  -2.342 -4.3848 -0.9823  2.2600
  971MOL0     H28152   3.314   8.624  -2.266 -3.0006 -2.2173  0.5403
  971MOL0     H28153   3.290   8.797  -2.307  3.0884 -0.5987 -1.2827
  971MOL0     H28154   2.381   8.790  -1.507 -0.1192  0.2369 -2.5120
  971MOL0     H28155   2.185   8.708  -1.375 -0.7933 -0.0532  0.7027
  971MOL0     H28156   1.918   8.586  -1.180  2.9574 -0.2978  1.4236
  971MOL0     H28157   1.737   8.548  -1.026  1.5981  0.5638 -0.6188
  971MOL0     H28158   2.242   9.303  -0.223 -0.5959  0.4631 -0.6376
  971MOL0     H28159   2.396   9.480  -0.158  0.4988  0.0851  2.2955
  971MOL0     H28160   2.602   9.641   0.309 -1.3795 -0.3511 -2.7252
  971MOL0     H28161   2.785   9.813   0.366  0.4889 -0.8222  0.4828
  971MOL0     H28162   2.795  10.183   0.142 -1.8059  0.1029  2.2584
  971MOL0     H28163   2.944  10.095   0.088 -1.8015 -2.7137  0.0470
  971MOL0     H28164   2.989  10.317   0.215 -3.4437  0.4725 -0.3554
  971MOL0     H28165   2.922  10.252   0.360  0.4802 -0.8393  0.3556
  971MOL0     H28166   3.172  10.142   0.213  1.3201 -1.9392  1.3024
  971MOL0     H28167   3.087  10.059   0.344 -0.5508  0.3051 -0.6928
  971MOL0     H28168   3.135  10.247   0.501 -0.6928 -3.2377  0.2408
  971MOL0     H28169   3.277  10.183   0.418 -1.1213 -1.1635  0.4946
  971MOL0     H28170   3.248  10.552   0.217 -0.6778 -0.0342  0.3669
  971MOL0     H28171   2.668  10.032   0.021 -0.2115 -0.3005  0.3075
  971MOL0     H28172   2.496   9.858  -0.034  0.3204 -3.0151 -1.3850
  972MOL0     O28173   1.834   0.220  10.102  0.7907  0.0675 -0.1276
  972MOL0     C28174   1.907   0.314  10.110 -0.7317 -0.0968  0.1870
  972MOL0     O28175   1.907   0.403  10.212 -0.0787 -0.3387 -1.0795
  972MOL0     C28176   1.801   0.423  10.289 -0.1557 -0.1074  0.2740
  972MOL0     C28177   1.666   0.375  10.271  0.1299 -0.7703  0.3557
  972MOL0     C28178   1.570   0.393  10.367 -0.9149  0.2622  0.3372
  972MOL0     C28179   1.600   0.457  10.482 -0.2641 -0.2110  0.0109
  972MOL0     O28180   1.525   0.468  10.598  0.2837 -0.3004  0.1013
  972MOL0     C28181   1.393   0.411  10.609  0.2599  0.1965  1.4379
  972MOL0     C28182   1.342   0.465  10.743 -0.1401  0.6369  0.0877
  972MOL0     C28183   1.333   0.617  10.752 -0.1042  0.2014 -0.1823
  972MOL0     C28184   1.240   0.669  10.862  0.2269 -0.4278 -0.2199
  972MOL0     C28185   1.098   0.637  10.822 -0.3709  0.2900 -1.3203
  972MOL0     C28186   0.991   0.728  10.887  0.1388  0.3955  0.0721
  972MOL0     C28187   0.847   0.711  10.844 -0.0740 -0.2035  0.6959
  972MOL0     C28188   0.749   0.808  10.907  0.3905 -0.2183 -0.1079
  972MOL0     N28189   0.623   0.795  10.840 -1.2530 -0.3364  0.2681
  972MOL0     C28190   0.567   0.883  10.754 -0.4412 -0.0047  0.1884
  972MOL0     C28191   0.447   0.838  10.718 -0.8245  0.3845  0.0477
  972MOL0     C28192   0.345   0.884  10.611 -0.1618 -0.3542 -0.0751
  972MOL0     C28193   0.196   0.881  10.654  0.3275  0.0172 -0.3998
  972MOL0     C28194   0.108   0.921  10.538  0.0649  0.5091 -0.4478
  972MOL0     C28195  -0.041   0.924  10.580 -0.3736  0.7179 -0.1275
  972MOL0     O28196  -0.103   0.947  10.451 -0.8077  0.0093  0.2188
  972MOL0     C28197  -0.241   0.920  10.447 -0.0115 -0.1825 -0.7628
  972MOL0     C28198  -0.292   0.828  10.362  0.4324  0.3531 -0.1654
  972MOL0     C28199  -0.429   0.815  10.346 -0.5200  0.6692 -0.4466
  972MOL0     C28200  -0.517   0.868  10.440 -0.1068 -0.2246  0.5522
  972MOL0     C28201  -0.661   0.834  10.448 -0.1648 -0.4196 -0.4603
  972MOL0     O28202  -0.737   0.888  10.550  1.0361 -0.0024 -0.0027
  972MOL0     C28203  -0.873   0.865  10.545  0.2884 -0.2242 -0.2761
  972MOL0     C28204  -0.970   0.975  10.554  0.1940  0.3089  0.0146
  972MOL0     C28205  -1.105   0.959  10.524 -0.0261 -0.0766  0.9778
  972MOL0     C28206  -1.151   0.834  10.492  0.1618  0.2875 -0.0614
  972MOL0     O28207  -1.282   0.838  10.473  0.6000 -0.4266 -0.9358
  972MOL0     C28208  -1.359   0.716  10.453  0.0898 -0.2299 -0.4500
  972MOL0     C28209  -1.503   0.761  10.459  0.1010  0.7947  0.3394
  972MOL0     C28210  -1.537   0.859  10.350 -0.0718  0.4624  0.7405
  972MOL0     C28211  -1.592   0.808  10.225  0.1814  0.7827  0.2682
  972MOL0     C28212  -1.745   0.779  10.248 -0.4156  0.3372 -0.3159
  972MOL0     C28213  -1.783   0.650  10.175  0.3200  0.0873 -0.1893
  972MOL0     C28214  -1.928   0.607  10.209 -0.3455  0.3845 -0.2493
  972MOL0     C28215  -2.030   0.705  10.150  0.6546  0.2130  0.8737
  972MOL0    Cl28216  -2.043   0.712   9.968 -0.3434  0.8305  0.3650
  972MOL0     C28217  -1.067   0.722  10.489  0.4400  0.2617  0.1069
  972MOL0     C28218  -0.926   0.738  10.509  0.4295  0.6211 -0.4363
  972MOL0     O28219  -0.694   0.764  10.352  0.6820 -0.0400 -0.8184
  972MOL0     C28220  -0.461   0.963  10.531 -0.4990  0.2842  0.2202
  972MOL0     C28221  -0.325   0.987  10.536 -0.6579 -0.1491 -0.1569
  972MOL0     N28222   0.444   0.711  10.780  0.4520  0.6645  0.7372
  972MOL0     N28223   0.544   0.692  10.854 -0.0692  0.3818  0.0021
  972MOL0     C28224   1.719   0.526  10.497 -0.4212  0.0897  0.6197
  972MOL0     C28225   1.820   0.505  10.394  0.0046  0.7947 -0.3940
  972MOL0     C28226   2.023   0.317  10.025 -0.0618 -0.1761 -0.6092
  972MOL0     C28227   2.026   0.254   9.901 -0.5421  1.0995  0.3909
  972MOL0     C28228   2.135   0.259   9.811  0.4325  0.3310  0.0663
  972MOL0     C28229   2.253   0.311   9.851 -0.1054  0.0754 -0.5924
  972MOL0     O28230   2.380   0.285   9.803 -0.0333  0.1546  0.4464
  972MOL0     C28231   2.409   0.147   9.772  0.1999 -1.0187 -0.2513
  972MOL0     C28232   2.358   0.041   9.867  0.6857 -0.0068  0.0449
  972MOL0     C28233   2.444  -0.083   9.859 -0.4814  0.2535 -0.2171
  972MOL0     C28234   2.397  -0.199   9.944 -0.1446 -0.2589  0.1491
  972MOL0     C28235   2.362  -0.159  10.079  0.3155  0.0083 -0.1363
  972MOL0     C28236   2.311  -0.119  10.184 -0.3807  0.6769 -0.2530
  972MOL0     C28237   2.252   0.376   9.981  0.1481  0.3084 -0.0329
  972MOL0     C28238   2.135   0.383  10.062 -0.3812  0.2054 -0.1478
  972MOL0     H28239   1.646   0.325  10.177 -0.4472  0.2056 -0.0529
  972MOL0     H28240   1.478   0.336  10.353 -1.3389  1.0517 -0.1600
  972MOL0     H28241   1.406   0.303  10.612  1.7486 -0.0542 -3.5932
  972MOL0     H28242   1.322   0.445  10.533 -0.2184 -0.4239  1.6032
  972MOL0     H28243   1.413   0.429  10.818 -1.2882  1.3377  1.5742
  972MOL0     H28244   1.247   0.416  10.768 -0.7312  0.9665 -1.3767
  972MOL0     H28245   1.303   0.658  10.655 -1.8374  1.6852  0.9060
  972MOL0     H28246   1.432   0.659  10.770  0.5700 -0.4707 -2.0741
  972MOL0     H28247   1.272   0.632  10.960 -0.1897 -0.2660 -0.0222
  972MOL0     H28248   1.266   0.775  10.864 -1.0252  0.1656 -4.7340
  972MOL0     H28249   1.070   0.534  10.845  0.6826  0.5264  1.4759
  972MOL0     H28250   1.093   0.646  10.713 -1.4856  2.3859 -1.1462
  972MOL0     H28251   1.028   0.828  10.861  2.2024 -0.0990  0.9087
  972MOL0     H28252   0.996   0.734  10.996  0.3010  0.2403  0.0735
  972MOL0     H28253   0.852   0.743  10.739 -1.6972 -0.6671  0.4437
  972MOL0     H28254   0.815   0.607  10.841  1.1958 -0.6064 -1.3002
  972MOL0     H28255   0.791   0.908  10.893  2.7609 -1.4834 -3.0158
  972MOL0     H28256   0.751   0.770  11.009  2.7075 -0.0914 -0.0558
  972MOL0     H28257   0.617   0.973  10.719  1.0347 -1.4753 -1.7875
  972MOL0     H28258   0.359   0.831  10.516 -0.0688  0.1010 -0.3144
  972MOL0     H28259   0.366   0.987  10.582 -0.8955 -0.2433 -0.2054
  972MOL0     H28260   0.179   0.945  10.741 -0.2010  0.0544 -0.5287
  972MOL0     H28261   0.165   0.780  10.680 -2.0209  0.0085 -2.7702
  972MOL0     H28262   0.137   1.019  10.500  1.0776  0.8961  1.2263
  972MOL0     H28263   0.105   0.843  10.461 -3.1149  1.1096 -1.0773
  972MOL0     H28264  -0.076   0.998  10.652 -1.4361 -0.8176  0.9847
  972MOL0     H28265  -0.070   0.828  10.624  1.7674 -0.3467 -0.8915
  972MOL0     H28266  -0.222   0.772  10.301  0.7392 -0.2226  0.6886
  972MOL0     H28267  -0.446   0.737  10.273 -1.3270 -0.2007  0.6189
  972MOL0     H28268  -0.940   1.076  10.579  1.4623 -0.3738  1.4700
  972MOL0     H28269  -1.164   1.049  10.529  1.2803  1.0266 -1.4900
  972MOL0     H28270  -1.341   0.630  10.518 -0.7759 -1.4068 -1.7026
  972MOL0     H28271  -1.324   0.692  10.352  1.4000 -1.7178  0.3191
  972MOL0     H28272  -1.523   0.800  10.559  0.7556 -0.2512  0.8930
  972MOL0     H28273  -1.571   0.676  10.448 -1.4312  1.5730  2.9388
  972MOL0     H28274  -1.450   0.920  10.321 -1.0165  1.3327 -0.3974
  972MOL0     H28275  -1.610   0.931  10.388 -0.9662 -0.0082 -0.0492
  972MOL0     H28276  -1.583   0.882  10.144  0.3328  3.2766  2.4402
  972MOL0     H28277  -1.546   0.714  10.193 -1.3156  0.5693 -1.4640
  972MOL0     H28278  -1.797   0.868  10.210 -0.4571 -0.7820 -3.1150
  972MOL0     H28279  -1.776   0.768  10.352 -2.9985  0.6309 -0.9853
  972MOL0     H28280  -1.712   0.569  10.195  0.8756  0.5854 -0.1412
  972MOL0     H28281  -1.780   0.668  10.067  0.8718 -4.6444 -1.2003
  972MOL0     H28282  -1.948   0.510  10.163 -2.4970 -0.5778  2.4728
  972MOL0     H28283  -1.943   0.599  10.317 -1.0050  0.5895 -0.3156
  972MOL0     H28284  -2.016   0.807  10.187  0.5609  0.6069 -0.1478
  972MOL0     H28285  -2.131   0.672  10.174  1.0018 -2.9584 -1.3740
  972MOL0     H28286  -1.117   0.627  10.474 -2.0959  1.3943  0.7786
  972MOL0     H28287  -0.860   0.653  10.494  0.4985  0.5554  0.2025
  972MOL0     H28288  -0.506   1.023  10.609 -1.7677  0.3090 -0.5134
  972MOL0     H28289  -0.280   1.071  10.589 -0.8856 -0.7246  0.9775
  972MOL0     H28290   1.747   0.579  10.588  1.4960  0.7173 -0.2775
  972MOL0     H28291   1.912   0.561  10.404 -0.5975  1.8610 -0.7161
  972MOL0     H28292   1.933   0.207   9.871  0.0711 -0.0094  0.1607
  972MOL0     H28293   2.130   0.215   9.712 -1.4847 -0.3749  0.4358
  972MOL0     H28294   2.518   0.141   9.762  0.3966 -0.4884  1.3188
  972MOL0     H28295   2.365   0.124   9.675  1.1641 -1.6402 -0.5608
  972MOL0     H28296   2.365   0.074   9.971  3.8900  0.0900 -0.0890
  972MOL0     H28297   2.260   0.015   9.828  1.2421 -3.8245  0.8217
  972MOL0     H28298   2.546  -0.055   9.887 -0.3675  1.5237 -1.7771
  972MOL0     H28299   2.456  -0.119   9.757  2.5535  2.9105 -0.9743
  972MOL0     H28300   2.306  -0.236   9.896 -0.6013  2.3381 -1.2001
  972MOL0     H28301   2.478  -0.272   9.946 -1.1033 -1.3402  0.5532
  972MOL0     H28302   2.259  -0.091  10.273  0.8946 -0.5426  0.9201
  972MOL0     H28303   2.346   0.415  10.019  1.0603 -0.3036 -1.5759
  972MOL0     H28304   2.144   0.433  10.157  0.4769 -2.6427  1.3993
  973MOL0     O28305  11.288  11.265   0.151 -0.3553 -0.0078 -0.0286
  973MOL0     C28306  11.400  11.203   0.143  0.5243 -0.7107 -0.0622
  973MOL0     O28307  11.415  11.072   0.095  0.6304  0.5783  1.0702
  973MOL0     C28308  11.293  11.013   0.055  0.2468 -0.3199 -0.2244
  973MOL0     C28309  11.213  10.955   0.155  0.1229 -0.2707  0.2414
  973MOL0     C28310  11.100  10.889   0.115  0.0210  0.1774 -0.2099
  973MOL0     C28311  11.074  10.865  -0.015  0.2227  0.4765  0.4544
  973MOL0     O28312  10.990  10.756  -0.050  0.0537 -0.3820 -0.5233
  973MOL0     C28313  10.870  10.740   0.024  0.0469 -0.9358 -0.7133
  973MOL0     C28314  10.761  10.724  -0.082 -0.3709  0.1419 -0.4326
  973MOL0     C28315  10.634  10.681  -0.011 -0.6843 -1.3278 -0.1709
  973MOL0     C28316  10.545  10.592  -0.103 -0.0249 -0.0401 -0.1472
  973MOL0     C28317  10.437  10.516  -0.019 -0.1486 -0.3914  0.5015
  973MOL0     C28318  10.340  10.610   0.054 -0.2740  0.1167 -0.5424
  973MOL0     C28319  10.250  10.523   0.146 -0.5561 -0.6258 -0.6472
  973MOL0     C28320  10.157  10.431   0.074  0.4614  0.3200 -0.4157
  973MOL0     N28321  10.039  10.510   0.025 -0.1712  0.3926  0.3891
  973MOL0     C28322   9.914  10.517   0.088 -0.8098  0.3322 -0.9979
  973MOL0     C28323   9.845  10.594   0.010 -0.0306  0.3001  0.0657
  973MOL0     C28324   9.707  10.640   0.026 -0.6699  0.6854 -0.1895
  973MOL0     C28325   9.607  10.534  -0.007 -0.1278  0.1082 -0.0286
  973MOL0     C28326   9.469  10.584   0.049 -0.0602 -0.0095 -0.2734
  973MOL0     C28327   9.416  10.723  -0.003  0.2555  0.3172  0.8931
  973MOL0     O28328   9.477  10.839   0.041 -0.2321  0.3271 -0.4861
  973MOL0     C28329   9.475  10.958  -0.027  0.5595 -0.0390  0.2536
  973MOL0     C28330   9.554  11.052   0.023 -1.3230 -0.7353  0.2643
  973MOL0     C28331   9.543  11.181  -0.039  0.2712  0.7981  0.0203
  973MOL0     C28332   9.469  11.202  -0.157  0.3866 -0.3126 -0.1726
  973MOL0     C28333   9.436  11.337  -0.212  0.4645 -0.0431 -0.5560
  973MOL0     O28334   9.508  11.435  -0.148 -0.3866  0.3774 -0.2535
  973MOL0     C28335   9.476  11.569  -0.160 -0.3209 -0.1454 -0.2163
  973MOL0     C28336   9.459  11.644  -0.042 -0.1689 -0.9018 -1.0118
  973MOL0     C28337   9.422  11.781  -0.045  0.5228 -0.1797 -1.2408
  973MOL0     C28338   9.356  11.825  -0.158 -0.7018  0.3628 -0.6205
  973MOL0     O28339   9.285  11.938  -0.151 -0.2733  0.0695 -0.7201
  973MOL0     C28340   9.305  12.040  -0.247 -0.2805 -0.0864  0.2743
  973MOL0     C28341   9.178  12.126  -0.251 -0.1764  0.4721  0.2910
  973MOL0     C28342   9.166  12.213  -0.128 -0.0035 -0.3830  0.1737
  973MOL0     C28343   9.057  12.315  -0.141  0.3078  0.1712  0.5378
  973MOL0     C28344   9.072  12.434  -0.044 -0.4899 -0.5057  0.4636
  973MOL0     C28345   8.961  12.537  -0.071  0.6746 -0.1516  0.1388
  973MOL0     C28346   8.950  12.648   0.038  0.0789 -0.8533 -0.3814
  973MOL0     C28347   9.043  12.770   0.002  0.0537  0.8447 -0.0816
  973MOL0    Cl28348   8.967  12.841  -0.138  0.3567  0.0944  0.5408
  973MOL0     C28349   9.365  11.751  -0.282  0.3614  0.1094 -0.2587
  973MOL0     C28350   9.426  11.626  -0.279 -0.6839 -0.4937 -0.0665
  973MOL0     O28351   9.345  11.348  -0.301 -0.4481 -0.5927 -0.0078
  973MOL0     C28352   9.412  11.086  -0.215  0.7078  0.2038 -0.2933
  973MOL0     C28353   9.409  10.970  -0.151 -0.4637 -0.4530  0.1937
  973MOL0     N28354   9.917  10.624  -0.115  0.5389 -0.6029  0.1845
  973MOL0     N28355  10.033  10.578  -0.099  0.3874  0.3363  0.0802
  973MOL0     C28356  11.149  10.926  -0.117 -0.1995 -0.1657 -0.4682
  973MOL0     C28357  11.252  11.009  -0.081 -0.9922 -0.0794  0.5075
  973MOL0     C28358  11.522  11.280   0.181 -0.4060 -0.0611 -0.5209
  973MOL0     C28359  11.647  11.235   0.143  1.0577 -0.1652  0.4052
  973MOL0     C28360  11.768  11.292   0.182  0.5173 -0.1315  0.6676
  973MOL0     C28361  11.754  11.406   0.257  0.0995 -0.0621 -0.1349
  973MOL0     O28362  11.871  11.458   0.309 -0.5798 -0.3768 -0.3330
  973MOL0     C28363  11.932  11.385   0.413  0.5128 -0.4577 -0.4459
  973MOL0     C28364  12.065  11.449   0.444  0.8117 -0.3975 -0.3362
  973MOL0     C28365  12.151  11.455   0.323 -0.4930 -0.2998  0.2721
  973MOL0     C28366  12.296  11.493   0.347 -0.7774  0.8533  0.2694
  973MOL0     C28367  12.366  11.403   0.438 -0.2222 -0.3095 -1.0005
  973MOL0     C28368  12.425  11.335   0.524  0.0127  0.1408 -0.6327
  973MOL0     C28369  11.631  11.466   0.286  0.1923 -0.1625  0.8030
  973MOL0     C28370  11.511  11.397   0.261  0.4763  0.3002  0.9322
  973MOL0     H28371  11.238  10.945   0.260 -1.1676  0.7695  0.6681
  973MOL0     H28372  11.042  10.837   0.191  1.0993 -0.1741  0.3876
  973MOL0     H28373  10.850  10.828   0.086  4.9057  0.6322 -0.9176
  973MOL0     H28374  10.886  10.650   0.084 -2.2471 -0.3580  0.9170
  973MOL0     H28375  10.788  10.643  -0.150  0.0865  1.8658 -2.3993
  973MOL0     H28376  10.747  10.813  -0.143 -3.3597  1.1697  1.5193
  973MOL0     H28377  10.582  10.774   0.010  1.4343  0.2304 -1.4145
  973MOL0     H28378  10.650  10.620   0.079 -1.7798 -1.5669 -0.1275
  973MOL0     H28379  10.499  10.641  -0.189 -2.0129 -0.5731  0.5667
  973MOL0     H28380  10.601  10.512  -0.152 -1.2053  0.4611 -2.4357
  973MOL0     H28381  10.497  10.455   0.049  2.6345 -0.5741 -1.8901
  973MOL0     H28382  10.377  10.447  -0.079 -0.2932  0.4221 -0.3219
  973MOL0     H28383  10.270  10.660  -0.014 -0.4648  0.6037  0.0003
  973MOL0     H28384  10.399  10.682   0.110 -1.9949  0.0863  1.4368
  973MOL0     H28385  10.314  10.455   0.203  0.7303  1.0278 -0.0622
  973MOL0     H28386  10.192  10.586   0.214  3.3578  1.9296  0.6273
  973MOL0     H28387  10.116  10.355   0.141 -0.4503 -0.1384 -1.4574
  973MOL0     H28388  10.207  10.367   0.000 -0.1504  0.2186 -0.7492
  973MOL0     H28389   9.889  10.484   0.188  1.0072 -1.5491 -1.0996
  973MOL0     H28390   9.687  10.728  -0.036 -0.3557  1.5779  0.9307
  973MOL0     H28391   9.696  10.679   0.127  1.2062  0.8085  0.0163
  973MOL0     H28392   9.629  10.438   0.041  3.0464  1.3712  1.3425
  973MOL0     H28393   9.599  10.517  -0.115 -1.5921 -0.7531  0.1820
  973MOL0     H28394   9.392  10.513   0.018  0.0094 -1.4073  2.4682
  973MOL0     H28395   9.476  10.595   0.158  3.8849  0.6253 -0.4624
  973MOL0     H28396   9.310  10.743   0.016  0.0534 -1.2542  1.5788
  973MOL0     H28397   9.430  10.714  -0.111  0.9651  0.8360  0.9337
  973MOL0     H28398   9.599  11.049   0.122 -2.3377  0.2287  0.7829
  973MOL0     H28399   9.584  11.262   0.022  0.3276  1.8312 -1.3512
  973MOL0     H28400   9.485  11.603   0.055 -3.4746  1.1532  0.9220
  973MOL0     H28401   9.398  11.830   0.049 -2.9096 -1.9273 -1.0487
  973MOL0     H28402   9.319  12.009  -0.351  2.0741  0.9877  0.2118
  973MOL0     H28403   9.392  12.097  -0.215  1.2007 -1.9259 -0.2971
  973MOL0     H28404   9.095  12.057  -0.269 -1.0470  1.1351  1.6282
  973MOL0     H28405   9.196  12.197  -0.332  1.6894 -0.6811 -0.3950
  973MOL0     H28406   9.267  12.253  -0.116  1.2607 -3.0175 -0.8260
  973MOL0     H28407   9.153  12.143  -0.045  0.8967 -0.0504  0.6117
  973MOL0     H28408   9.065  12.362  -0.240 -5.6002 -1.9950 -1.3892
  973MOL0     H28409   8.956  12.274  -0.135 -0.2354  1.5547  1.2399
  973MOL0     H28410   9.173  12.474  -0.057  0.3794 -3.0886 -1.6421
  973MOL0     H28411   9.062  12.414   0.064 -0.9618 -1.6464  0.2277
  973MOL0     H28412   8.866  12.486  -0.054 -0.5330  2.1391  0.6583
  973MOL0     H28413   8.960  12.568  -0.176 -0.6650 -0.7358 -0.0436
  973MOL0     H28414   8.847  12.681   0.055  0.4917 -0.6458  1.9848
  973MOL0     H28415   8.980  12.615   0.138 -1.2587 -1.1075 -0.0449
  973MOL0     H28416   9.146  12.739  -0.016 -0.1654 -1.6650  2.3703
  973MOL0     H28417   9.043  12.851   0.076 -2.1945  1.3329 -0.5183
  973MOL0     H28418   9.323  11.784  -0.376 -1.2703  0.8639  0.7038
  973MOL0     H28419   9.419  11.567  -0.370 -0.1032 -0.0575 -0.3993
  973MOL0     H28420   9.355  11.103  -0.306 -0.8299  1.1360  0.7830
  973MOL0     H28421   9.351  10.887  -0.191 -3.2118  0.6895  1.5437
  973MOL0     H28422  11.137  10.897  -0.221  1.1102 -1.8751 -0.1842
  973MOL0     H28423  11.311  11.065  -0.153 -0.5390  1.1607  1.8167
  973MOL0     H28424  11.647  11.137   0.094 -3.1043 -0.7176  1.1675
  973MOL0     H28425  11.865  11.243   0.173 -0.6185 -2.3129 -0.4488
  973MOL0     H28426  11.948  11.277   0.400 -0.2602 -0.5528 -0.6281
  973MOL0     H28427  11.862  11.402   0.494  0.3464  4.7321 -1.3858
  973MOL0     H28428  12.040  11.544   0.491 -0.3608 -0.5415 -0.6224
  973MOL0     H28429  12.111  11.389   0.523  0.3704  0.9191  0.9461
  973MOL0     H28430  12.114  11.539   0.263  2.9847  0.2581 -1.3606
  973MOL0     H28431  12.139  11.367   0.259 -0.5496 -0.5989  0.6892
  973MOL0     H28432  12.353  11.512   0.255  0.3452  0.9296  0.9645
  973MOL0     H28433  12.296  11.591   0.396 -0.5900  0.2440  1.5142
  973MOL0     H28434  12.484  11.279   0.594  0.5612  1.9458  0.4385
  973MOL0     H28435  11.625  11.568   0.324 -2.0369  0.5841 -1.2526
  973MOL0     H28436  11.414  11.437   0.288 -1.5882 -3.2898 -0.5109
  974MOL0     O28437   1.885   4.587   4.492 -0.6308  0.3762 -0.2877
  974MOL0     C28438   1.846   4.590   4.605 -0.1974  0.2530 -0.5501
  974MOL0     O28439   1.719   4.613   4.647  0.4877 -0.0086  0.0414
  974MOL0     C28440   1.598   4.623   4.577  0.5472 -0.0842 -0.1370
  974MOL0     C28441   1.593   4.618   4.442 -0.4067  1.1930  0.0204
  974MOL0     C28442   1.472   4.643   4.372  0.1702  0.3996 -0.3263
  974MOL0     C28443   1.352   4.655   4.439 -0.5331 -0.9413  0.0576
  974MOL0     O28444   1.239   4.683   4.362  0.2406  0.4053  0.0017
  974MOL0     C28445   1.112   4.709   4.430  0.2953  0.2373 -1.5104
  974MOL0     C28446   1.048   4.597   4.504 -0.6284  1.3907  0.4447
  974MOL0     C28447   0.902   4.619   4.531  0.4568  0.9412  1.1081
  974MOL0     C28448   0.859   4.507   4.611  1.2665  0.1207 -0.7398
  974MOL0     C28449   0.707   4.513   4.627  1.1604  0.6798 -0.2313
  974MOL0     C28450   0.652   4.402   4.714 -0.7665  0.3545  0.2560
  974MOL0     C28451   0.500   4.449   4.736  0.1494  0.6018  0.3188
  974MOL0     C28452   0.409   4.415   4.610  0.3240 -0.4560  0.8006
  974MOL0     N28453   0.290   4.357   4.658  1.1133 -1.3905  0.4319
  974MOL0     C28454   0.250   4.222   4.692 -0.0992  0.2603  0.6088
  974MOL0     C28455   0.120   4.217   4.716  0.0077 -0.1927 -0.9023
  974MOL0     C28456   0.048   4.086   4.756 -0.6802  0.2688  0.2207
  974MOL0     C28457   0.084   4.064   4.906 -0.0505  0.0994  0.6750
  974MOL0     C28458   0.049   3.917   4.947  0.2275  0.7023 -0.1585
  974MOL0     C28459   0.030   3.909   5.097  1.0477 -0.7216 -0.5463
  974MOL0     O28460  -0.063   4.014   5.143 -0.2746 -0.1234  0.3945
  974MOL0     C28461  -0.199   4.002   5.116  0.6413 -0.7098 -0.0275
  974MOL0     C28462  -0.261   3.890   5.064  0.1522 -1.5456  0.4253
  974MOL0     C28463  -0.396   3.883   5.044  0.8132  1.3658  0.4943
  974MOL0     C28464  -0.486   3.991   5.078  0.0015  0.6332  0.2949
  974MOL0     C28465  -0.631   3.995   5.060  0.5351  0.5750  1.1129
  974MOL0     O28466  -0.675   3.922   4.948  0.2659  0.0222 -0.0294
  974MOL0     C28467  -0.806   3.914   4.905 -0.1265  0.3708  0.3799
  974MOL0     C28468  -0.916   3.866   4.978  0.5416 -0.2059  0.3275
  974MOL0     C28469  -1.044   3.866   4.924  0.0760 -0.5911 -0.1272
  974MOL0     C28470  -1.063   3.924   4.798 -0.8134 -0.9777 -0.7612
  974MOL0     O28471  -1.194   3.938   4.760 -0.4152 -0.3285  0.0740
  974MOL0     C28472  -1.224   4.023   4.647  0.5459 -0.0619 -0.5794
  974MOL0     C28473  -1.374   4.031   4.646 -0.2630  0.5703  0.4527
  974MOL0     C28474  -1.426   3.882   4.617  0.3542 -0.3158  0.4989
  974MOL0     C28475  -1.584   3.886   4.640  0.1802  0.6228  0.8010
  974MOL0     C28476  -1.645   3.775   4.547 -0.6969  0.2377 -0.5502
  974MOL0     C28477  -1.798   3.778   4.570  0.6128 -0.3246  0.3912
  974MOL0     C28478  -1.861   3.675   4.473 -0.4430  0.1038  0.3362
  974MOL0     C28479  -2.003   3.678   4.492  0.2290  0.0062 -0.2492
  974MOL0    Cl28480  -2.093   3.607   4.348  0.3951 -0.7940 -0.4121
  974MOL0     C28481  -0.956   3.980   4.728  0.0437 -0.1377 -0.7812
  974MOL0     C28482  -0.824   3.974   4.785 -0.1681 -0.8903  0.0863
  974MOL0     O28483  -0.699   4.069   5.125  0.2876  0.4548  0.0368
  974MOL0     C28484  -0.420   4.102   5.142 -0.2192  0.2547  0.8744
  974MOL0     C28485  -0.280   4.106   5.161 -0.3671 -0.2548  0.3585
  974MOL0     N28486   0.066   4.348   4.705 -0.1705  0.4911  1.2009
  974MOL0     N28487   0.170   4.422   4.667  0.2001 -1.1127  0.1643
  974MOL0     C28488   1.359   4.686   4.571 -0.4965 -0.0550 -1.1975
  974MOL0     C28489   1.480   4.657   4.648 -0.8386 -0.8979  1.0864
  974MOL0     C28490   1.954   4.603   4.710  0.8436 -0.2801  0.4419
  974MOL0     C28491   1.917   4.660   4.835 -0.2545  0.6289  0.3047
  974MOL0     C28492   2.009   4.648   4.942  0.2005 -0.2581  0.2230
  974MOL0     C28493   2.138   4.609   4.913  0.0971 -0.4069  0.4518
  974MOL0     O28494   2.227   4.606   5.018 -0.0831 -0.1390 -0.0438
  974MOL0     C28495   2.339   4.699   4.999 -0.2152  0.2133 -0.1261
  974MOL0     C28496   2.427   4.699   5.119  0.1206 -1.6509  0.2904
  974MOL0     C28497   2.497   4.575   5.133 -0.1646 -0.7848  0.2772
  974MOL0     C28498   2.507   4.519   5.272  0.2109 -0.5543  0.2442
  974MOL0     C28499   2.597   4.396   5.281 -0.5138  0.1163 -0.8927
  974MOL0     C28500   2.664   4.296   5.296  0.3211  0.0575  0.5363
  974MOL0     C28501   2.174   4.579   4.782  0.2950  0.2104  1.0632
  974MOL0     C28502   2.083   4.569   4.677  0.1835  0.1847 -0.7807
  974MOL0     H28503   1.688   4.613   4.390 -0.0922  1.5594  0.5514
  974MOL0     H28504   1.462   4.622   4.266 -1.4552  1.1000 -0.3389
  974MOL0     H28505   1.042   4.721   4.347 -1.2224 -0.4753 -0.3693
  974MOL0     H28506   1.107   4.804   4.483 -1.8833  0.0072 -1.2407
  974MOL0     H28507   1.101   4.576   4.598 -0.3051  0.1851  0.0113
  974MOL0     H28508   1.055   4.509   4.440  0.5246  1.6348  0.2242
  974MOL0     H28509   0.855   4.613   4.433  1.1049  0.5400  0.8184
  974MOL0     H28510   0.870   4.716   4.571 -2.2678  1.1521 -1.2570
  974MOL0     H28511   0.879   4.411   4.562  1.4433  0.3826 -1.1829
  974MOL0     H28512   0.909   4.500   4.709  0.4503 -0.3481 -0.3434
  974MOL0     H28513   0.668   4.502   4.525 -0.8109 -0.9999  0.6209
  974MOL0     H28514   0.674   4.608   4.669 -0.5287  0.6554 -1.4167
  974MOL0     H28515   0.713   4.405   4.805  0.2809 -0.2718 -0.4034
  974MOL0     H28516   0.660   4.302   4.672 -0.4896  0.1916  0.6899
  974MOL0     H28517   0.460   4.400   4.825  0.9427 -2.0167 -0.6687
  974MOL0     H28518   0.487   4.555   4.758  0.9869  0.2711  2.6292
  974MOL0     H28519   0.458   4.351   4.536  0.6450 -1.6217  1.9937
  974MOL0     H28520   0.390   4.508   4.555 -0.8401 -0.5426  1.0458
  974MOL0     H28521   0.319   4.139   4.707  1.5986  1.1298 -1.6790
  974MOL0     H28522   0.086   3.998   4.703 -2.8394 -1.5225  1.4625
  974MOL0     H28523  -0.060   4.088   4.741 -0.4206  2.5640 -1.9158
  974MOL0     H28524   0.033   4.139   4.967 -1.2722  0.9076 -1.2453
  974MOL0     H28525   0.192   4.069   4.916 -0.0068 -0.4194  0.5007
  974MOL0     H28526  -0.037   3.872   4.897 -1.3345  1.3560  1.7896
  974MOL0     H28527   0.135   3.857   4.917  1.6626  0.9468  3.0493
  974MOL0     H28528   0.120   3.914   5.159 -0.4449  0.4813  1.6830
  974MOL0     H28529  -0.012   3.810   5.118  1.1958 -0.4103  1.4401
  974MOL0     H28530  -0.205   3.806   5.026 -1.3710 -2.6489  0.5180
  974MOL0     H28531  -0.437   3.790   5.005  1.9688  0.2023  1.9375
  974MOL0     H28532  -0.906   3.826   5.078 -0.9612  0.5545  0.7995
  974MOL0     H28533  -1.128   3.846   4.989  2.1147 -0.9465  2.6121
  974MOL0     H28534  -1.192   3.987   4.549 -2.0195  1.2080 -1.9847
  974MOL0     H28535  -1.196   4.126   4.673 -0.1675  0.1760 -0.7164
  974MOL0     H28536  -1.395   4.102   4.564  4.1653  2.4054  0.6524
  974MOL0     H28537  -1.407   4.063   4.745 -3.0996  1.9370 -0.8036
  974MOL0     H28538  -1.378   3.824   4.695  0.5115 -0.4581  0.2956
  974MOL0     H28539  -1.394   3.855   4.516 -2.7566  0.7750 -0.9349
  974MOL0     H28540  -1.602   3.860   4.745  2.6983 -0.7651  0.9823
  974MOL0     H28541  -1.623   3.984   4.614  1.8695  1.4272  1.1586
  974MOL0     H28542  -1.613   3.673   4.567  2.5755  0.9310 -1.6699
  974MOL0     H28543  -1.622   3.801   4.443  2.3272  0.9742  0.2184
  974MOL0     H28544  -1.837   3.871   4.528 -3.2781  0.0725  4.1470
  974MOL0     H28545  -1.836   3.770   4.673 -2.7566 -1.3378 -0.8133
  974MOL0     H28546  -1.841   3.697   4.368  1.9189  0.4032  0.8028
  974MOL0     H28547  -1.817   3.579   4.501  0.0668  0.5319  1.0577
  974MOL0     H28548  -2.044   3.778   4.506 -1.2121 -0.7202  1.0776
  974MOL0     H28549  -2.024   3.627   4.587  1.0369  0.6321  0.2768
  974MOL0     H28550  -0.969   4.017   4.627 -0.4811  1.5675 -0.1153
  974MOL0     H28551  -0.734   3.998   4.729 -0.9209  0.1515 -0.7286
  974MOL0     H28552  -0.477   4.176   5.197 -0.2657 -0.4879  1.8695
  974MOL0     H28553  -0.239   4.182   5.228 -1.4747  1.9846 -1.3757
  974MOL0     H28554   1.276   4.717   4.634 -1.1488 -1.3075 -1.4257
  974MOL0     H28555   1.482   4.683   4.754 -3.3395  0.8027  0.8239
  974MOL0     H28556   1.815   4.687   4.862  0.0947  0.7059  1.5742
  974MOL0     H28557   1.986   4.670   5.046 -0.3389  1.7423 -0.2857
  974MOL0     H28558   2.295   4.797   4.981  0.5264  0.9010  1.6273
  974MOL0     H28559   2.410   4.687   4.916  1.1899  0.5409  0.9941
  974MOL0     H28560   2.494   4.785   5.118 -0.1330 -1.4542  0.0658
  974MOL0     H28561   2.364   4.708   5.208 -2.6793 -3.0616 -1.3996
  974MOL0     H28562   2.597   4.591   5.091  0.6745  1.6492  2.8738
  974MOL0     H28563   2.446   4.498   5.075 -0.2090  0.9759 -2.1786
  974MOL0     H28564   2.535   4.605   5.334 -1.5160 -0.6408  1.2274
  974MOL0     H28565   2.406   4.490   5.304  0.4264 -0.5466  0.9467
  974MOL0     H28566   2.736   4.221   5.321  2.5474  2.1193  0.7410
  974MOL0     H28567   2.274   4.543   4.761  0.6658  1.3843  0.7402
  974MOL0     H28568   2.108   4.512   4.588 -1.0634  0.9397 -1.6429
  975MOL0     O28569   4.690   3.982   6.861 -1.1627 -0.1500  0.4884
  975MOL0     C28570   4.683   3.879   6.794 -0.4441  0.7213  0.4314
  975MOL0     O28571   4.573   3.811   6.755 -0.0044 -0.1728 -0.3870
  975MOL0     C28572   4.450   3.835   6.806  0.5975  0.0422 -0.3554
  975MOL0     C28573   4.414   3.898   6.929 -0.8536 -0.0292  0.1536
  975MOL0     C28574   4.282   3.892   6.968 -0.1181 -0.1882 -0.1713
  975MOL0     C28575   4.178   3.833   6.894 -0.3548  0.2202  0.2488
  975MOL0     O28576   4.060   3.836   6.950  0.3270 -0.8628 -0.3229
  975MOL0     C28577   3.955   3.873   6.864  1.0356  0.9464  0.2635
  975MOL0     C28578   3.819   3.851   6.925 -0.3546 -0.4657 -0.3573
  975MOL0     C28579   3.706   3.927   6.844 -1.3032  0.3472 -0.3929
  975MOL0     C28580   3.576   3.936   6.919  0.1251  0.5440 -0.5138
  975MOL0     C28581   3.469   4.023   6.845  0.4398  0.1744 -0.4647
  975MOL0     C28582   3.355   4.082   6.931 -0.4177  0.0509  0.2131
  975MOL0     C28583   3.262   3.973   6.992  0.2112  0.2171 -0.1245
  975MOL0     C28584   3.174   4.044   7.097 -0.7309  0.3228  0.0846
  975MOL0     N28585   3.057   3.979   7.140  0.0016  0.0080  0.2994
  975MOL0     C28586   2.989   4.003   7.260  0.2209  0.2333  0.5610
  975MOL0     C28587   2.900   3.902   7.275  0.5214  0.8103  0.1056
  975MOL0     C28588   2.804   3.885   7.392 -0.0922  0.4309  0.8086
  975MOL0     C28589   2.656   3.924   7.357  0.0530  0.1204  0.5342
  975MOL0     C28590   2.650   4.076   7.353 -0.6352 -0.1391 -0.2661
  975MOL0     C28591   2.516   4.136   7.324  0.2419  0.6272 -0.2671
  975MOL0     O28592   2.499   4.270   7.281  0.1139 -0.4402 -0.6488
  975MOL0     C28593   2.380   4.333   7.328  0.4925 -0.4011 -0.3105
  975MOL0     C28594   2.387   4.464   7.300  0.7203 -0.0641  0.1799
  975MOL0     C28595   2.282   4.555   7.335 -0.8509 -0.2421  0.4738
  975MOL0     C28596   2.168   4.511   7.395  0.1795 -0.0088  0.4448
  975MOL0     C28597   2.055   4.597   7.421  0.0251 -0.1789  0.3820
  975MOL0     O28598   1.954   4.546   7.486  0.1962  0.4893  0.3186
  975MOL0     C28599   1.867   4.640   7.540  0.3781  0.1095 -0.7061
  975MOL0     C28600   1.792   4.735   7.465  1.2036  1.1677 -0.0645
  975MOL0     C28601   1.700   4.821   7.522 -0.3851 -0.4455 -0.3918
  975MOL0     C28602   1.679   4.830   7.651  1.0130 -0.1419 -0.7108
  975MOL0     O28603   1.588   4.929   7.699 -0.1225 -0.1636 -0.4652
  975MOL0     C28604   1.530   4.897   7.827 -0.2202 -0.1549 -0.3744
  975MOL0     C28605   1.404   4.986   7.834 -0.3663  0.2151 -0.0020
  975MOL0     C28606   1.283   4.950   7.757 -0.2262 -0.4444 -0.0187
  975MOL0     C28607   1.174   5.044   7.803 -0.3692  0.9747  0.1711
  975MOL0     C28608   1.051   5.037   7.727  0.5851 -0.9655 -0.3418
  975MOL0     C28609   0.960   5.162   7.756  0.2745  0.1833 -0.0289
  975MOL0     C28610   0.818   5.157   7.684  0.4696  0.4149 -0.0664
  975MOL0     C28611   0.730   5.286   7.710  0.2447 -0.8928 -0.4159
  975MOL0    Cl28612   0.576   5.278   7.617  0.3076  0.0102  0.1693
  975MOL0     C28613   1.758   4.736   7.726  0.0951  0.0497 -1.0636
  975MOL0     C28614   1.846   4.648   7.677 -0.9887 -0.5670 -0.0199
  975MOL0     O28615   2.063   4.713   7.380  0.9960  0.2280 -0.4054
  975MOL0     C28616   2.151   4.372   7.409  0.4656 -0.2319 -1.5117
  975MOL0     C28617   2.263   4.285   7.380  0.0595 -1.0652 -0.7329
  975MOL0     N28618   2.913   3.821   7.168 -0.2681  0.2189  0.5205
  975MOL0     N28619   3.008   3.863   7.086  1.3009  0.0151  0.4410
  975MOL0     C28620   4.216   3.778   6.769  0.3744 -0.6371 -0.8003
  975MOL0     C28621   4.351   3.776   6.727  0.1075 -0.7344  0.1413
  975MOL0     C28622   4.813   3.831   6.751  0.3822 -0.0047  0.9096
  975MOL0     C28623   4.924   3.853   6.825  0.9315 -0.2884 -0.9848
  975MOL0     C28624   5.054   3.828   6.785 -0.5875 -0.6262 -0.7097
  975MOL0     C28625   5.067   3.778   6.651 -1.2220  0.2545  0.4401
  975MOL0     O28626   5.196   3.756   6.593  0.0556  0.3808 -0.1197
  975MOL0     C28627   5.312   3.788   6.673 -0.3946  0.8201 -0.4534
  975MOL0     C28628   5.434   3.744   6.588 -1.0392 -0.4367 -0.1743
  975MOL0     C28629   5.525   3.684   6.689  0.0405 -0.5952  0.3746
  975MOL0     C28630   5.663   3.658   6.634 -0.4385 -0.1884 -0.5159
  975MOL0     C28631   5.774   3.701   6.723 -1.3403  1.5324  0.7580
  975MOL0     C28632   5.867   3.761   6.770 -0.0257 -0.0695 -0.8260
  975MOL0     C28633   4.958   3.747   6.579 -0.4342  0.2805 -0.5323
  975MOL0     C28634   4.834   3.784   6.623 -0.1223  0.0787  0.9765
  975MOL0     H28635   4.490   3.942   6.993 -0.4851 -1.9088  1.0825
  975MOL0     H28636   4.284   3.947   7.062  4.4792 -0.0541 -0.0970
  975MOL0     H28637   3.967   3.818   6.770  0.8129 -1.5713  1.6112
  975MOL0     H28638   3.958   3.982   6.857  0.7690  0.8310 -3.5725
  975MOL0     H28639   3.820   3.902   7.022 -1.4923  0.8555 -0.9959
  975MOL0     H28640   3.789   3.746   6.932 -0.6997 -0.3396  0.0989
  975MOL0     H28641   3.698   3.867   6.753  2.0355  2.2315 -2.0981
  975MOL0     H28642   3.742   4.028   6.827 -0.1347 -0.0832 -0.5464
  975MOL0     H28643   3.543   3.831   6.916  3.0518 -0.6125  1.9116
  975MOL0     H28644   3.600   3.978   7.017  1.3750  0.8586 -0.9361
  975MOL0     H28645   3.422   3.966   6.765  1.1145  2.0268 -2.2712
  975MOL0     H28646   3.513   4.104   6.786 -0.0003 -0.3045 -1.4785
  975MOL0     H28647   3.289   4.139   6.865  4.0358  2.5067 -2.6666
  975MOL0     H28648   3.390   4.159   7.001  2.2686  1.1136 -2.0982
  975MOL0     H28649   3.190   3.942   6.916 -2.4526 -0.2108  2.3982
  975MOL0     H28650   3.303   3.881   7.036  3.9556  0.5981 -2.3726
  975MOL0     H28651   3.156   4.148   7.069  1.1619  1.2759  2.0669
  975MOL0     H28652   3.239   4.058   7.184  2.6025 -2.0559 -1.8085
  975MOL0     H28653   3.002   4.087   7.327  0.2952  0.6526  0.0245
  975MOL0     H28654   2.836   3.933   7.485 -0.3370  1.0997  0.5543
  975MOL0     H28655   2.794   3.781   7.426 -0.1660  0.2804  0.3278
  975MOL0     H28656   2.585   3.890   7.432 -1.4763  2.6994  0.3998
  975MOL0     H28657   2.621   3.892   7.258  1.9172 -0.0277 -0.1129
  975MOL0     H28658   2.684   4.124   7.445 -0.8149  2.6573 -1.5631
  975MOL0     H28659   2.716   4.116   7.275  0.5940  1.6994  1.6150
  975MOL0     H28660   2.471   4.130   7.424  0.3976  1.5642 -0.1296
  975MOL0     H28661   2.460   4.069   7.259 -2.5154  1.2288  1.3237
  975MOL0     H28662   2.478   4.491   7.248 -0.2322  1.1736 -0.9354
  975MOL0     H28663   2.308   4.661   7.338  1.5012 -0.7505  0.1801
  975MOL0     H28664   1.809   4.737   7.358 -0.7800  0.8941 -0.4321
  975MOL0     H28665   1.640   4.882   7.454  0.0311 -0.9112 -1.1947
  975MOL0     H28666   1.600   4.926   7.906 -0.8619 -2.2390  1.0167
  975MOL0     H28667   1.510   4.790   7.827 -1.3509 -0.0538  2.7280
  975MOL0     H28668   1.430   5.080   7.785  0.8779  0.4574  1.0696
  975MOL0     H28669   1.391   5.004   7.941  1.9458 -1.5452  0.6572
  975MOL0     H28670   1.255   4.845   7.769  0.6442 -0.6835  0.0267
  975MOL0     H28671   1.313   4.971   7.654  0.2090  1.3772  0.4508
  975MOL0     H28672   1.146   5.012   7.904 -5.4048  1.8924 -0.6914
  975MOL0     H28673   1.207   5.147   7.811 -2.5053  1.7180  0.0520
  975MOL0     H28674   0.997   4.949   7.765 -1.6457  1.1287  1.6930
  975MOL0     H28675   1.073   5.030   7.620  1.0252 -0.9050 -0.2572
  975MOL0     H28676   1.013   5.251   7.719  0.6996  0.0187  0.1744
  975MOL0     H28677   0.947   5.183   7.863 -0.0840 -1.6735  0.3195
  975MOL0     H28678   0.817   5.144   7.576 -1.3306  0.1221 -0.0331
  975MOL0     H28679   0.756   5.079   7.729  3.1884 -0.7885  1.9016
  975MOL0     H28680   0.784   5.378   7.684 -2.8787  0.6991 -1.7732
  975MOL0     H28681   0.706   5.290   7.817  3.7951  1.3330  0.4762
  975MOL0     H28682   1.734   4.736   7.832 -0.9196 -0.7282 -1.2718
  975MOL0     H28683   1.901   4.580   7.742 -2.4996  1.6960  4.0072
  975MOL0     H28684   2.064   4.330   7.458  2.2439 -1.0621  1.2002
  975MOL0     H28685   2.249   4.177   7.387 -0.6298 -0.9814 -0.7350
  975MOL0     H28686   4.146   3.730   6.702 -3.6278  1.9599  1.0662
  975MOL0     H28687   4.370   3.715   6.639 -0.2647 -0.4864 -0.1180
  975MOL0     H28688   4.913   3.891   6.926 -1.2802 -0.8709 -0.9659
  975MOL0     H28689   5.133   3.841   6.857 -1.7342 -2.5337  1.0166
  975MOL0     H28690   5.297   3.724   6.761  0.1187  0.2790 -0.7567
  975MOL0     H28691   5.320   3.893   6.704 -2.5090  1.7388 -2.6912
  975MOL0     H28692   5.403   3.670   6.514 -2.9433  1.4038 -1.3351
  975MOL0     H28693   5.468   3.830   6.530 -2.8702  0.6358  0.2635
  975MOL0     H28694   5.490   3.585   6.722  0.6136 -1.4169 -1.3758
  975MOL0     H28695   5.530   3.752   6.775  0.0206  0.8068 -0.7014
  975MOL0     H28696   5.677   3.551   6.614 -2.8642 -0.5369 -0.7352
  975MOL0     H28697   5.673   3.703   6.535  0.4350  0.3190 -0.1987
  975MOL0     H28698   5.945   3.821   6.812  0.1094  0.1512 -1.3873
  975MOL0     H28699   4.974   3.693   6.486 -0.6808 -1.2969  0.3079
  975MOL0     H28700   4.752   3.757   6.558  1.2662 -0.0762 -0.8016
  976MOL0     O28701   5.629   0.393   4.786 -0.3405  0.2697 -0.6615
  976MOL0     C28702   5.651   0.474   4.873 -0.0647  0.3460 -0.2579
  976MOL0     O28703   5.568   0.507   4.978  0.4705 -0.2680  0.2590
  976MOL0     C28704   5.445   0.445   4.997 -0.5248 -0.6895  0.1161
  976MOL0     C28705   5.327   0.504   5.028  0.5836 -1.3349  0.1567
  976MOL0     C28706   5.205   0.434   5.051  0.2042  0.0697 -0.1149
  976MOL0     C28707   5.203   0.297   5.034  0.4549  0.6853  0.3422
  976MOL0     O28708   5.097   0.214   5.056  0.2817  0.3097 -0.5185
  976MOL0     C28709   4.971   0.284   5.034  0.5211  0.8233  0.4157
  976MOL0     C28710   4.859   0.188   5.037  0.4563 -0.1868  0.2509
  976MOL0     C28711   4.872   0.065   5.129 -0.3764  0.5733 -0.0448
  976MOL0     C28712   4.739  -0.014   5.159  0.4189 -0.9029 -0.4463
  976MOL0     C28713   4.742  -0.104   5.287  0.8257 -0.6011 -0.3539
  976MOL0     C28714   4.609  -0.176   5.283  1.3268 -0.1919  0.9746
  976MOL0     C28715   4.586  -0.246   5.422  0.3869 -0.1958 -0.1442
  976MOL0     C28716   4.699  -0.338   5.456  0.6602  1.0518  0.2538
  976MOL0     N28717   4.675  -0.413   5.586 -0.3537 -0.2271  0.2759
  976MOL0     C28718   4.664  -0.551   5.598 -0.2025 -1.0638 -0.2784
  976MOL0     C28719   4.662  -0.562   5.728 -0.1110  0.4185  0.4735
  976MOL0     C28720   4.686  -0.691   5.801 -0.6628  1.1934 -0.9330
  976MOL0     C28721   4.564  -0.768   5.832  0.0145  0.9784 -0.7336
  976MOL0     C28722   4.607  -0.893   5.923  0.3697 -0.4850  0.6648
  976MOL0     C28723   4.483  -0.995   5.923 -0.6749  0.1629  0.0582
  976MOL0     O28724   4.386  -0.931   6.009  0.0609 -0.3035  0.5605
  976MOL0     C28725   4.273  -1.001   6.041  0.2693 -0.1424  0.3177
  976MOL0     C28726   4.172  -0.938   6.118 -0.3455 -0.6485 -0.4684
  976MOL0     C28727   4.057  -1.009   6.165 -0.2236  0.3243 -0.5738
  976MOL0     C28728   4.034  -1.135   6.117  0.6254 -0.8047  0.3902
  976MOL0     C28729   3.901  -1.202   6.137 -0.3760  0.0537  0.5114
  976MOL0     O28730   3.906  -1.338   6.124 -0.5995 -0.0655  0.3661
  976MOL0     C28731   3.801  -1.433   6.126 -0.0295 -0.0321  0.2991
  976MOL0     C28732   3.825  -1.558   6.080 -0.0119 -0.3650  1.0178
  976MOL0     C28733   3.732  -1.661   6.079  1.0418  0.0815  0.3291
  976MOL0     C28734   3.599  -1.636   6.127 -0.6912  1.0165  0.0397
  976MOL0     O28735   3.503  -1.737   6.128  0.0295 -0.1994  0.2444
  976MOL0     C28736   3.394  -1.732   6.223  0.1325 -0.7797 -0.1486
  976MOL0     C28737   3.329  -1.874   6.227 -0.0579  0.5646 -0.1102
  976MOL0     C28738   3.197  -1.867   6.305  0.1228  0.6312 -0.0999
  976MOL0     C28739   3.118  -1.998   6.290 -0.2124 -0.6518  0.6323
  976MOL0     C28740   2.964  -1.988   6.342 -0.4160  0.4065  1.2519
  976MOL0     C28741   2.888  -1.881   6.274 -0.2079  0.1151 -0.0674
  976MOL0     C28742   2.735  -1.906   6.297  0.1554  0.1159 -1.3903
  976MOL0     C28743   2.665  -1.777   6.315  0.1490  0.3903 -0.5942
  976MOL0    Cl28744   2.491  -1.805   6.296 -0.1153 -0.0386  0.1365
  976MOL0     C28745   3.574  -1.508   6.176 -0.5326 -0.4973 -0.4920
  976MOL0     C28746   3.673  -1.409   6.175  0.6946  0.2594  0.2599
  976MOL0     O28747   3.800  -1.134   6.160  0.1660  1.0337 -0.1035
  976MOL0     C28748   4.135  -1.201   6.047 -0.2787  0.4045 -0.8233
  976MOL0     C28749   4.259  -1.144   6.019  0.4907  0.1220 -0.4201
  976MOL0     N28750   4.673  -0.441   5.797  0.5565 -0.0748  0.0258
  976MOL0     N28751   4.694  -0.349   5.707 -0.2077  0.0157 -0.0110
  976MOL0     C28752   5.322   0.235   4.995 -1.0118  0.5473  1.0083
  976MOL0     C28753   5.444   0.310   4.979  0.2561  0.3023  0.1434
  976MOL0     C28754   5.785   0.530   4.884  0.2743 -0.1019  0.6379
  976MOL0     C28755   5.889   0.468   4.809 -0.0547  0.0429 -0.3934
  976MOL0     C28756   6.021   0.523   4.822  0.4269 -0.1230  0.6151
  976MOL0     C28757   6.044   0.639   4.896  0.3613 -0.2624 -0.0762
  976MOL0     O28758   6.162   0.693   4.902  0.6570  0.2989 -0.2726
  976MOL0     C28759   6.171   0.833   4.880 -0.3246  0.9576 -0.3618
  976MOL0     C28760   6.291   0.885   4.957 -0.2175  0.3281  0.9140
  976MOL0     C28761   6.312   1.037   4.941  0.6053  0.2952  0.2528
  976MOL0     C28762   6.453   1.079   5.002  0.4747  0.3593  0.1978
  976MOL0     C28763   6.566   1.086   4.900  0.7244 -0.4533  0.2213
  976MOL0     C28764   6.654   1.106   4.822  0.1464  0.1722  0.5227
  976MOL0     C28765   5.939   0.693   4.963  0.3766 -0.4403 -0.0949
  976MOL0     C28766   5.811   0.640   4.962 -0.3171  0.1477 -0.7998
  976MOL0     H28767   5.330   0.612   5.037 -0.3513 -0.8054 -3.8700
  976MOL0     H28768   5.112   0.472   5.093  1.2294  2.2236  0.3979
  976MOL0     H28769   4.965   0.344   4.943 -1.2775  1.3874  0.8668
  976MOL0     H28770   4.946   0.354   5.114  4.0248  3.0369 -0.2096
  976MOL0     H28771   4.830   0.149   4.939  0.5645 -0.9201  0.5024
  976MOL0     H28772   4.768   0.239   5.071 -0.1857 -1.6984  0.9317
  976MOL0     H28773   4.905   0.098   5.228 -1.3990 -1.2440  0.9580
  976MOL0     H28774   4.958   0.004   5.100 -0.6350 -2.3008  4.2982
  976MOL0     H28775   4.660   0.058   5.180 -1.1771 -3.2456  2.3309
  976MOL0     H28776   4.711  -0.077   5.073 -1.6340 -0.4976 -0.1351
  976MOL0     H28777   4.760  -0.042   5.375  4.3706 -0.3912 -1.0494
  976MOL0     H28778   4.823  -0.178   5.288  3.2516  1.8486 -0.4973
  976MOL0     H28779   4.608  -0.239   5.194 -2.5281  1.8110 -0.6346
  976MOL0     H28780   4.524  -0.107   5.273  0.8156 -0.7441  1.4328
  976MOL0     H28781   4.565  -0.175   5.502 -2.5358 -0.3205 -0.6819
  976MOL0     H28782   4.492  -0.301   5.414 -0.4632  1.2863 -0.7383
  976MOL0     H28783   4.785  -0.275   5.479 -0.4262  2.3442  0.9253
  976MOL0     H28784   4.724  -0.407   5.374 -0.5004  3.7494 -2.5876
  976MOL0     H28785   4.670  -0.635   5.529  1.6882  1.5008 -3.5186
  976MOL0     H28786   4.744  -0.656   5.886 -2.6228  1.4974  0.3296
  976MOL0     H28787   4.757  -0.751   5.741 -0.7005  0.2553 -0.0697
  976MOL0     H28788   4.517  -0.797   5.737 -2.4397  3.4906 -0.4404
  976MOL0     H28789   4.490  -0.704   5.882 -2.0048 -0.0563 -2.2262
  976MOL0     H28790   4.699  -0.945   5.895  0.5176 -2.0179  3.6421
  976MOL0     H28791   4.638  -0.855   6.020  3.0066  0.5067 -0.4792
  976MOL0     H28792   4.517  -1.080   5.982 -1.6335  0.9832  1.8954
  976MOL0     H28793   4.442  -1.028   5.828  0.1342 -3.8968  0.9626
  976MOL0     H28794   4.195  -0.836   6.146 -0.5578 -1.1875  1.9006
  976MOL0     H28795   3.977  -0.970   6.228  1.0013  0.4768  0.9647
  976MOL0     H28796   3.925  -1.576   6.043 -0.0384 -0.7194  1.1198
  976MOL0     H28797   3.758  -1.759   6.041  3.6486  1.3394 -1.4319
  976MOL0     H28798   3.318  -1.661   6.189 -1.0091 -1.3483  1.1325
  976MOL0     H28799   3.432  -1.713   6.323  1.6070  0.9898 -0.9878
  976MOL0     H28800   3.403  -1.935   6.280 -0.5949 -0.7147 -0.8140
  976MOL0     H28801   3.325  -1.919   6.128  0.0116  1.1991 -0.4094
  976MOL0     H28802   3.143  -1.778   6.274 -0.2833  0.4896  0.2007
  976MOL0     H28803   3.224  -1.855   6.411 -1.7761  3.3147  0.1697
  976MOL0     H28804   3.130  -2.045   6.192  1.6538 -1.3164  1.1306
  976MOL0     H28805   3.178  -2.063   6.355 -0.1957 -4.4109 -2.7658
  976MOL0     H28806   2.979  -1.948   6.443 -0.7369  0.5093  1.2593
  976MOL0     H28807   2.927  -2.090   6.342  1.4986 -0.3881 -1.4233
  976MOL0     H28808   2.914  -1.855   6.171  0.9316  1.0012  0.4175
  976MOL0     H28809   2.920  -1.789   6.324  4.2595 -2.1485  1.8000
  976MOL0     H28810   2.690  -1.970   6.220 -1.4343 -2.8695  1.7502
  976MOL0     H28811   2.735  -1.953   6.396  1.4797  1.3967 -0.7450
  976MOL0     H28812   2.702  -1.708   6.239  2.1233  0.1521  0.0846
  976MOL0     H28813   2.677  -1.730   6.413 -1.0223 -0.6677  0.0866
  976MOL0     H28814   3.472  -1.481   6.203 -1.2841 -1.5080 -2.1621
  976MOL0     H28815   3.633  -1.311   6.201 -0.0563  0.5965 -1.9594
  976MOL0     H28816   4.117  -1.302   6.012 -1.0142  0.8547 -1.7862
  976MOL0     H28817   4.339  -1.206   5.979 -0.7436 -1.5084 -0.4631
  976MOL0     H28818   5.334   0.129   4.976  0.2335  1.2166 -2.8778
  976MOL0     H28819   5.532   0.255   4.950 -2.6471 -2.6688 -4.1814
  976MOL0     H28820   5.864   0.382   4.748 -1.7525  0.8921 -0.9911
  976MOL0     H28821   6.094   0.485   4.751  1.1808  2.8022 -0.3285
  976MOL0     H28822   6.084   0.889   4.914  0.5428  1.6083  0.8763
  976MOL0     H28823   6.186   0.850   4.773 -1.1447  1.1072 -0.4589
  976MOL0     H28824   6.286   0.859   5.063  4.2616 -0.7255  1.0726
  976MOL0     H28825   6.374   0.833   4.908 -0.8731 -2.1882  2.2828
  976MOL0     H28826   6.227   1.088   4.988 -0.1381 -1.2745  0.6773
  976MOL0     H28827   6.316   1.055   4.834  4.4383 -0.9541  0.0466
  976MOL0     H28828   6.447   1.166   5.068 -0.8196 -0.7912  1.6422
  976MOL0     H28829   6.475   0.998   5.072  0.6780 -0.6269 -0.9675
  976MOL0     H28830   6.736   1.117   4.754  1.4448 -1.8888  1.6395
  976MOL0     H28831   5.958   0.785   5.017  1.0618 -1.1509  0.9211
  976MOL0     H28832   5.721   0.669   5.014 -1.7095 -3.4509 -0.8906
  977MOL0     O28833   8.374   7.423   3.270 -0.5204  0.1566 -0.1821
  977MOL0     C28834   8.432   7.463   3.170 -0.9403  0.8601 -0.5950
  977MOL0     O28835   8.374   7.514   3.064  0.1328  0.2158 -0.3370
  977MOL0     C28836   8.237   7.531   3.045  0.5452 -0.2977 -0.4951
  977MOL0     C28837   8.167   7.619   3.130 -0.0758  0.3107  0.1917
  977MOL0     C28838   8.033   7.650   3.093 -0.7411 -0.6314 -0.0315
  977MOL0     C28839   7.977   7.597   2.973 -1.3476  0.2243 -0.7296
  977MOL0     O28840   7.847   7.616   2.937 -0.4087 -0.2261  0.3530
  977MOL0     C28841   7.768   7.710   3.005 -0.6924 -0.2331  0.6294
  977MOL0     C28842   7.652   7.751   2.920  0.0747  0.0021 -0.0790
  977MOL0     C28843   7.563   7.633   2.877  0.1508  0.1057  0.6288
  977MOL0     C28844   7.442   7.683   2.795  0.4157  0.7337 -0.4475
  977MOL0     C28845   7.336   7.577   2.807  0.4727  0.2180  0.1666
  977MOL0     C28846   7.205   7.638   2.756  0.2223 -0.2951 -0.1882
  977MOL0     C28847   7.094   7.535   2.737 -0.4232 -0.8353  0.1613
  977MOL0     C28848   7.053   7.447   2.863 -0.0932 -0.4916  0.4096
  977MOL0     N28849   6.932   7.375   2.824  0.3089 -0.1796 -0.3415
  977MOL0     C28850   6.807   7.426   2.808  0.3023  0.3100 -0.3092
  977MOL0     C28851   6.741   7.330   2.743  0.0934 -0.8575 -0.4737
  977MOL0     C28852   6.599   7.343   2.686  0.2228  0.5739 -0.1309
  977MOL0     C28853   6.569   7.393   2.539  0.8286 -0.6822  0.9432
  977MOL0     C28854   6.654   7.312   2.439  0.5390 -0.9884 -0.4035
  977MOL0     C28855   6.630   7.367   2.295 -0.1374  0.2791  0.0735
  977MOL0     O28856   6.526   7.288   2.242 -0.1837 -0.6247  0.5084
  977MOL0     C28857   6.411   7.348   2.205 -0.2131  0.5958  0.7066
  977MOL0     C28858   6.401   7.454   2.120 -0.3294 -0.3500 -0.9808
  977MOL0     C28859   6.283   7.491   2.064 -0.1471 -0.1610 -0.2386
  977MOL0     C28860   6.165   7.429   2.105  0.2977 -0.9231  0.6924
  977MOL0     C28861   6.029   7.473   2.057  0.3646  0.5773 -0.2656
  977MOL0     O28862   5.915   7.430   2.129 -0.1194 -0.0242  0.1169
  977MOL0     C28863   5.788   7.453   2.081 -0.0085  0.6899  0.7054
  977MOL0     C28864   5.706   7.540   2.139  0.7043  0.5369 -1.0216
  977MOL0     C28865   5.571   7.559   2.110 -0.6741 -0.5851  0.8802
  977MOL0     C28866   5.521   7.501   1.992  0.2093  0.1789 -0.0862
  977MOL0     O28867   5.400   7.519   1.933  0.7516 -0.0581 -0.3632
  977MOL0     C28868   5.303   7.577   2.022 -0.5462 -0.6322  0.2460
  977MOL0     C28869   5.159   7.562   1.957  0.2618  0.8891  0.1278
  977MOL0     C28870   5.129   7.414   1.914  0.3866 -0.0987 -0.2798
  977MOL0     C28871   4.983   7.396   1.876  0.1743  0.4873 -1.1145
  977MOL0     C28872   4.956   7.255   1.846 -1.1781 -0.4157  0.6515
  977MOL0     C28873   4.815   7.220   1.821 -0.7796  1.0057 -0.2342
  977MOL0     C28874   4.807   7.071   1.786  0.1250 -0.1882 -0.0662
  977MOL0     C28875   4.673   7.011   1.748 -0.3498  0.7383  0.3563
  977MOL0    Cl28876   4.597   7.065   1.591 -0.1138  0.7724  0.1969
  977MOL0     C28877   5.608   7.415   1.920  0.0759 -0.4069  0.2844
  977MOL0     C28878   5.740   7.391   1.968  0.3954 -0.5737 -0.5505
  977MOL0     O28879   6.032   7.557   1.969 -0.1981  0.0828  0.3462
  977MOL0     C28880   6.172   7.317   2.187  0.3605 -0.9165 -0.0630
  977MOL0     C28881   6.293   7.281   2.238  0.1067  0.5664 -0.3011
  977MOL0     N28882   6.834   7.228   2.712  0.7469  0.1929  0.1605
  977MOL0     N28883   6.948   7.257   2.770  0.0291 -0.0409 -0.0789
  977MOL0     C28884   8.059   7.515   2.901 -0.0409  0.8030  0.8758
  977MOL0     C28885   8.181   7.476   2.933 -0.0466  0.7807 -0.8453
  977MOL0     C28886   8.579   7.447   3.164  0.6211 -0.1956 -0.0354
  977MOL0     C28887   8.648   7.452   3.038  0.0608  0.1113  0.7445
  977MOL0     C28888   8.788   7.438   3.033  0.7589 -0.3994 -0.1511
  977MOL0     C28889   8.858   7.414   3.149  0.5534  0.1807  0.1998
  977MOL0     O28890   8.987   7.362   3.126 -0.1832  0.4868 -0.3749
  977MOL0     C28891   9.076   7.361   3.239 -0.5486 -1.0841 -0.0189
  977MOL0     C28892   9.130   7.495   3.268 -0.9542  0.1049  0.7948
  977MOL0     C28893   9.220   7.495   3.394  0.1990 -0.1231 -0.1540
  977MOL0     C28894   9.168   7.430   3.524 -0.8638  0.3304  0.0827
  977MOL0     C28895   9.050   7.495   3.577 -0.7735 -0.6387  0.3880
  977MOL0     C28896   8.960   7.558   3.623 -0.0128  0.5951  0.7241
  977MOL0     C28897   8.794   7.408   3.274  0.3529  0.6995  0.5094
  977MOL0     C28898   8.655   7.435   3.276  0.2016 -0.3643 -0.3806
  977MOL0     H28899   8.226   7.664   3.209  1.6872 -1.0117 -0.3301
  977MOL0     H28900   7.971   7.707   3.162 -1.5616 -3.0974  1.3962
  977MOL0     H28901   7.831   7.797   3.026  1.9215 -1.8255 -0.1589
  977MOL0     H28902   7.726   7.667   3.097  0.6396 -0.4012  1.1798
  977MOL0     H28903   7.677   7.808   2.830 -1.1545  1.5025  0.4800
  977MOL0     H28904   7.590   7.815   2.984  1.0219  0.6191  0.2551
  977MOL0     H28905   7.538   7.560   2.954  2.5008 -1.2618  0.1855
  977MOL0     H28906   7.619   7.580   2.799 -1.6984 -0.9118 -0.0832
  977MOL0     H28907   7.399   7.778   2.830  0.6162  1.3776 -1.8944
  977MOL0     H28908   7.476   7.695   2.692 -0.6558 -0.3524 -0.9639
  977MOL0     H28909   7.323   7.543   2.910 -2.2967  0.3104 -0.0785
  977MOL0     H28910   7.362   7.492   2.742 -2.7951 -0.5178 -0.3652
  977MOL0     H28911   7.223   7.677   2.656  0.0698 -4.2019 -1.9054
  977MOL0     H28912   7.165   7.722   2.813  0.6515  0.8698 -1.5563
  977MOL0     H28913   7.010   7.591   2.693 -0.1339 -1.2702 -0.9758
  977MOL0     H28914   7.110   7.457   2.661  0.4131  0.5481 -1.1378
  977MOL0     H28915   7.032   7.512   2.948 -0.6199 -0.6985  0.4367
  977MOL0     H28916   7.145   7.388   2.876  2.1096  2.4578 -0.5793
  977MOL0     H28917   6.763   7.518   2.846  2.5548  0.8277  1.2210
  977MOL0     H28918   6.547   7.417   2.748 -1.5286  0.7116 -1.6769
  977MOL0     H28919   6.542   7.249   2.686 -0.1097  0.7625 -1.4444
  977MOL0     H28920   6.599   7.498   2.536 -0.9058 -0.0747  2.6358
  977MOL0     H28921   6.467   7.380   2.502  1.4622  2.7922 -2.7063
  977MOL0     H28922   6.759   7.332   2.464  0.3520  0.9971 -1.0876
  977MOL0     H28923   6.647   7.203   2.439  0.8042 -1.0154  0.7029
  977MOL0     H28924   6.720   7.371   2.233 -0.3429  0.2701 -0.2306
  977MOL0     H28925   6.601   7.472   2.296  1.3495  0.6968  0.5175
  977MOL0     H28926   6.492   7.509   2.094  0.0269  0.2584  1.3519
  977MOL0     H28927   6.260   7.578   2.003  0.1815 -0.6651 -1.1035
  977MOL0     H28928   5.743   7.591   2.227  0.9157 -2.8302  1.0096
  977MOL0     H28929   5.521   7.641   2.160  2.6044  1.0203  1.8295
  977MOL0     H28930   5.336   7.682   2.021 -0.3547 -0.6470 -2.0948
  977MOL0     H28931   5.301   7.527   2.119 -0.1200 -1.5681 -0.2106
  977MOL0     H28932   5.141   7.616   1.863 -2.4295 -2.1841 -1.3081
  977MOL0     H28933   5.089   7.603   2.030  0.1125  0.5354  0.1824
  977MOL0     H28934   5.161   7.345   1.992 -0.6715 -0.2499  0.0339
  977MOL0     H28935   5.175   7.384   1.819 -0.7965 -1.0998 -0.5544
  977MOL0     H28936   4.914   7.418   1.958 -3.3531 -2.1849 -3.1051
  977MOL0     H28937   4.964   7.462   1.791  1.6180  1.2037 -0.9124
  977MOL0     H28938   4.996   7.199   1.931  3.7062 -0.3001 -1.2085
  977MOL0     H28939   5.017   7.214   1.765 -1.7589 -0.3946  0.1939
  977MOL0     H28940   4.781   7.274   1.733  1.7287  2.4781 -0.3867
  977MOL0     H28941   4.766   7.246   1.916  1.0654 -1.2917  1.4652
  977MOL0     H28942   4.874   7.056   1.701 -2.4965  0.6848 -2.4512
  977MOL0     H28943   4.856   7.028   1.874  2.0999  0.8503 -0.6154
  977MOL0     H28944   4.599   7.024   1.828 -1.9413  0.6515 -1.0518
  977MOL0     H28945   4.690   6.903   1.740 -2.5232  0.1512  2.4466
  977MOL0     H28946   5.563   7.355   1.841 -1.2240  2.0528 -0.9462
  977MOL0     H28947   5.794   7.311   1.918 -0.6705 -1.8602  0.2727
  977MOL0     H28948   6.081   7.265   2.213 -0.9136 -0.5294 -3.2814
  977MOL0     H28949   6.304   7.210   2.319  1.7998  1.3710  0.2394
  977MOL0     H28950   8.010   7.481   2.811 -1.8176  0.3893  1.9418
  977MOL0     H28951   8.240   7.398   2.887  1.1372  2.1907 -1.8166
  977MOL0     H28952   8.598   7.475   2.944 -0.1396  0.1289  0.8534
  977MOL0     H28953   8.837   7.451   2.937 -0.3019  3.4958 -0.3261
  977MOL0     H28954   9.162   7.294   3.230  0.6341  0.1644  1.3785
  977MOL0     H28955   9.014   7.322   3.320  1.5863  0.0012  2.2849
  977MOL0     H28956   9.195   7.509   3.181 -0.6377 -3.6653  0.2349
  977MOL0     H28957   9.062   7.580   3.274 -0.7202  0.2046  3.6007
  977MOL0     H28958   9.258   7.593   3.425 -0.2241 -0.2073  0.6548
  977MOL0     H28959   9.311   7.442   3.365  0.9174  1.8446 -1.7457
  977MOL0     H28960   9.144   7.324   3.510  2.6546 -0.3790 -1.8612
  977MOL0     H28961   9.240   7.426   3.606 -2.1689 -0.7406  1.2189
  977MOL0     H28962   8.884   7.625   3.658  0.1830  1.9889 -1.3360
  977MOL0     H28963   8.834   7.389   3.373 -1.3526 -0.2221  1.0613
  977MOL0     H28964   8.607   7.433   3.373  3.4943 -1.4020  1.3811
  978MOL0     O28965   4.284   9.218   0.477  0.2415 -0.6453  0.6355
  978MOL0     C28966   4.365   9.284   0.535 -0.4455 -0.0895  0.0589
  978MOL0     O28967   4.352   9.343   0.661 -0.1779 -0.3220  0.6040
  978MOL0     C28968   4.228   9.337   0.704  1.1393 -1.0237 -0.5286
  978MOL0     C28969   4.194   9.228   0.784 -1.3517 -0.0337  0.4318
  978MOL0     C28970   4.074   9.220   0.846  0.9524  0.5131  0.6129
  978MOL0     C28971   3.980   9.327   0.845 -0.1228 -0.2912  0.2821
  978MOL0     O28972   3.867   9.341   0.921  0.0249 -0.2810  0.2096
  978MOL0     C28973   3.816   9.222   0.977  0.4618 -0.3657  0.1778
  978MOL0     C28974   3.684   9.255   1.044  0.0864 -0.0163  0.3192
  978MOL0     C28975   3.581   9.318   0.949 -1.1866  0.0441 -0.0079
  978MOL0     C28976   3.451   9.332   1.029  0.3855  0.4177  0.3221
  978MOL0     C28977   3.343   9.391   0.938  0.2391 -0.1237 -0.7121
  978MOL0     C28978   3.218   9.423   1.022 -0.5129  0.0113 -0.5826
  978MOL0     C28979   3.104   9.488   0.933 -0.5232 -0.0705 -0.1938
  978MOL0     C28980   3.002   9.556   1.016  0.4068  0.5052 -0.1932
  978MOL0     N28981   3.032   9.673   1.102  0.8043 -0.4745 -0.1202
  978MOL0     C28982   3.030   9.798   1.048 -0.6266 -0.8287  0.1549
  978MOL0     C28983   3.027   9.879   1.159  0.5318  0.8510  0.7715
  978MOL0     C28984   3.014  10.031   1.153 -0.5714  0.6695  0.3320
  978MOL0     C28985   2.883  10.085   1.216  0.6103 -0.6768 -0.0939
  978MOL0     C28986   2.861  10.235   1.194 -0.2080 -0.2232  1.0297
  978MOL0     C28987   2.718  10.291   1.226 -0.2635  0.4383  0.7204
  978MOL0     O28988   2.661  10.222   1.336 -0.1842 -0.2510  0.7439
  978MOL0     C28989   2.534  10.255   1.380  0.3567 -1.1010 -0.0367
  978MOL0     C28990   2.470  10.190   1.486 -0.0844 -0.2057  0.2972
  978MOL0     C28991   2.343  10.209   1.528  0.0507 -0.9417  0.0726
  978MOL0     C28992   2.271  10.316   1.474 -0.2119  0.4377 -0.4237
  978MOL0     C28993   2.138  10.343   1.520 -0.9021 -0.5820 -0.1079
  978MOL0     O28994   2.071  10.439   1.448 -1.2343 -0.2231 -0.2674
  978MOL0     C28995   1.943  10.487   1.472 -0.0135 -0.6656  0.9990
  978MOL0     C28996   1.893  10.556   1.361 -0.4499 -0.1785  0.4280
  978MOL0     C28997   1.757  10.583   1.338  0.3455  0.6290 -0.3957
  978MOL0     C28998   1.662  10.546   1.437 -0.4032 -0.6946 -0.0966
  978MOL0     O28999   1.530  10.579   1.430  0.9208 -0.4046 -0.7049
  978MOL0     C29000   1.434  10.482   1.476 -0.1466 -0.3438  0.1552
  978MOL0     C29001   1.294  10.543   1.467  0.3094 -0.0525  0.4169
  978MOL0     C29002   1.184  10.435   1.491  0.1351 -0.0657  0.1285
  978MOL0     C29003   1.046  10.497   1.452 -0.4081  0.6044  0.9539
  978MOL0     C29004   0.935  10.416   1.522 -0.0662 -0.2421 -0.2881
  978MOL0     C29005   0.790  10.432   1.472 -0.9352 -0.3518 -0.4854
  978MOL0     C29006   0.718  10.566   1.491 -0.1076 -0.3225  0.4042
  978MOL0     C29007   0.719  10.613   1.643 -0.0805 -0.0428  0.0149
  978MOL0    Cl29008   0.638  10.769   1.659 -0.4246  0.3716  0.4152
  978MOL0     C29009   1.715  10.481   1.559 -1.0067 -0.0513  0.5601
  978MOL0     C29010   1.851  10.447   1.570 -0.9349  0.4846 -0.1999
  978MOL0     O29011   2.095  10.280   1.613 -0.3920  0.6965 -0.0865
  978MOL0     C29012   2.325  10.391   1.368  0.7451 -0.6948 -0.3849
  978MOL0     C29013   2.452  10.353   1.316  0.2829 -0.2423 -0.1708
  978MOL0     N29014   3.030   9.803   1.275  0.0084 -0.6096  0.4350
  978MOL0     N29015   3.031   9.677   1.238 -0.3044  0.3754 -0.2052
  978MOL0     C29016   4.015   9.438   0.764  0.2514 -0.6261  0.2273
  978MOL0     C29017   4.140   9.447   0.699 -0.5941  0.1895 -0.6163
  978MOL0     C29018   4.494   9.296   0.464  0.1482 -0.3117 -0.5422
  978MOL0     C29019   4.608   9.341   0.539 -0.5826  0.4203 -0.3060
  978MOL0     C29020   4.734   9.348   0.487  0.1847  0.0020  0.5088
  978MOL0     C29021   4.754   9.303   0.358  0.1163  0.5261 -0.4065
  978MOL0     O29022   4.878   9.296   0.301  0.4855 -0.0505 -0.2202
  978MOL0     C29023   4.992   9.269   0.391 -0.1459  0.1577  1.2651
  978MOL0     C29024   5.125   9.286   0.317 -0.2100  0.5272 -0.1808
  978MOL0     C29025   5.147   9.168   0.209  0.4136  0.2622  0.0947
  978MOL0     C29026   5.267   9.202   0.122  0.2362  0.8086 -0.5791
  978MOL0     C29027   5.382   9.231   0.205 -0.2792 -0.2231 -1.3218
  978MOL0     C29028   5.491   9.250   0.260 -0.1534 -0.1603 -0.5995
  978MOL0     C29029   4.652   9.251   0.284  0.6622 -0.5503  0.4974
  978MOL0     C29030   4.519   9.249   0.337 -0.3634  0.2871  0.5236
  978MOL0     H29031   4.274   9.154   0.788  2.4458  3.6161 -0.2554
  978MOL0     H29032   4.066   9.145   0.923 -1.3519 -0.3099 -0.3267
  978MOL0     H29033   3.886   9.201   1.059  1.9336  1.5901 -0.5062
  978MOL0     H29034   3.809   9.142   0.903  0.2864  2.1275 -2.7087
  978MOL0     H29035   3.704   9.321   1.128  0.8456  1.5426 -1.0358
  978MOL0     H29036   3.647   9.159   1.084  0.5274  0.2126  1.2968
  978MOL0     H29037   3.563   9.253   0.863 -2.9941 -1.6621  1.5668
  978MOL0     H29038   3.632   9.414   0.936  1.3276 -1.3530 -1.2902
  978MOL0     H29039   3.420   9.235   1.067 -2.4323  1.2685  0.4283
  978MOL0     H29040   3.471   9.394   1.117  1.2415 -0.3102  0.6562
  978MOL0     H29041   3.317   9.313   0.865 -2.1156 -1.1920  1.1104
  978MOL0     H29042   3.387   9.479   0.891  2.0928  1.5904  3.7236
  978MOL0     H29043   3.246   9.490   1.103  1.0087  0.7953 -1.7029
  978MOL0     H29044   3.179   9.332   1.068 -1.0379  0.2924 -0.4546
  978MOL0     H29045   3.154   9.560   0.867  0.7840 -3.3787 -3.1669
  978MOL0     H29046   3.062   9.418   0.860  0.5977  0.1743 -1.1007
  978MOL0     H29047   2.942   9.478   1.064  0.6602 -0.5736 -1.5651
  978MOL0     H29048   2.939   9.607   0.942  2.6633  4.4374  0.3789
  978MOL0     H29049   3.037   9.832   0.945 -0.6337  4.0302  1.5163
  978MOL0     H29050   3.027  10.071   1.053  2.3055 -0.1585  0.2755
  978MOL0     H29051   3.100  10.057   1.216  2.0831 -4.0003 -0.8368
  978MOL0     H29052   2.874  10.066   1.323  1.5472 -1.0806 -0.0746
  978MOL0     H29053   2.800  10.036   1.165  1.8344 -3.1032  0.1326
  978MOL0     H29054   2.930  10.281   1.265 -0.8138  2.5451 -0.0274
  978MOL0     H29055   2.872  10.287   1.098 -2.5772  3.4108  2.5082
  978MOL0     H29056   2.652  10.277   1.140 -0.6934 -1.8605  1.3305
  978MOL0     H29057   2.730  10.398   1.243 -0.0009  0.3637  1.0282
  978MOL0     H29058   2.526  10.116   1.542 -1.5318  0.1091  2.2897
  978MOL0     H29059   2.299  10.151   1.608  2.6322 -0.6028  1.8662
  978MOL0     H29060   1.967  10.566   1.282 -1.4961 -0.7825 -0.6709
  978MOL0     H29061   1.723  10.628   1.246  0.6468  0.2583 -0.6908
  978MOL0     H29062   1.439  10.472   1.584  0.5572  1.1407  0.2890
  978MOL0     H29063   1.442  10.387   1.422 -1.4427 -1.6877  2.1885
  978MOL0     H29064   1.274  10.601   1.377  0.5539 -1.8235 -0.8296
  978MOL0     H29065   1.284  10.615   1.549 -0.1242 -1.5612  1.7489
  978MOL0     H29066   1.165  10.416   1.597 -3.9340 -1.3556 -0.6235
  978MOL0     H29067   1.204  10.336   1.448  3.3420  0.5818 -0.0538
  978MOL0     H29068   1.036  10.603   1.478 -0.6563  0.8251  0.0155
  978MOL0     H29069   1.040  10.496   1.343  0.4177 -1.4276  0.8833
  978MOL0     H29070   0.941  10.434   1.630 -1.2333  3.6732 -0.7221
  978MOL0     H29071   0.962  10.312   1.504 -0.2743  0.0563 -2.5079
  978MOL0     H29072   0.724  10.347   1.495 -1.6157  0.1622 -0.5132
  978MOL0     H29073   0.800  10.426   1.363 -1.2946 -0.0080 -0.5377
  978MOL0     H29074   0.757  10.646   1.427  0.4737 -1.1218 -0.2629
  978MOL0     H29075   0.617  10.546   1.455  1.0764 -1.6361 -2.5080
  978MOL0     H29076   0.821  10.633   1.675 -0.4025  0.1755  0.9238
  978MOL0     H29077   0.682  10.537   1.713 -2.1976  0.4433 -0.4816
  978MOL0     H29078   1.648  10.462   1.643 -1.6999 -1.3663 -0.2464
  978MOL0     H29079   1.885  10.403   1.663  0.3631  0.8359 -0.4934
  978MOL0     H29080   2.269  10.467   1.315 -0.7677 -1.0927  0.6031
  978MOL0     H29081   2.501  10.405   1.234  0.8716 -1.6612 -0.7549
  978MOL0     H29082   3.955   9.527   0.780 -0.0134 -0.7487 -0.0724
  978MOL0     H29083   4.179   9.539   0.658  2.8675 -0.3775  1.0288
  978MOL0     H29084   4.596   9.389   0.635 -1.3636  1.5378 -0.9337
  978MOL0     H29085   4.811   9.386   0.552 -1.1110  2.4895  0.6969
  978MOL0     H29086   4.968   9.166   0.419 -1.8661 -1.1540 -3.9038
  978MOL0     H29087   4.993   9.341   0.473 -2.3482  0.5258  1.0127
  978MOL0     H29088   5.130   9.385   0.269 -0.1201 -0.2214 -1.8018
  978MOL0     H29089   5.208   9.284   0.388  2.3488  2.1585 -2.8417
  978MOL0     H29090   5.062   9.168   0.141 -0.8527 -0.3866  1.6176
  978MOL0     H29091   5.166   9.074   0.260  0.7422  1.0529  1.4944
  978MOL0     H29092   5.297   9.123   0.052 -1.6691 -1.1215  0.6428
  978MOL0     H29093   5.241   9.285   0.056  0.1785 -0.3050 -2.0032
  978MOL0     H29094   5.589   9.278   0.295  0.6146  0.8637 -3.3207
  978MOL0     H29095   4.664   9.215   0.183  0.6776  1.3124 -0.1985
  978MOL0     H29096   4.446   9.227   0.260  0.9783 -1.1293 -0.4231
  979MOL0     O29097  10.308   7.460   6.456 -0.4587  0.2632  0.2708
  979MOL0     C29098  10.382   7.541   6.515 -0.7915 -0.5570  0.1891
  979MOL0     O29099  10.340   7.629   6.615 -0.2689 -0.8557 -0.3024
  979MOL0     C29100  10.219   7.609   6.666  0.0163  0.7054  0.0260
  979MOL0     C29101  10.208   7.521   6.779 -0.0876 -0.6537 -0.8917
  979MOL0     C29102  10.075   7.518   6.827  0.1558 -0.1193 -0.7466
  979MOL0     C29103   9.964   7.598   6.772 -0.7214 -0.4650  0.5883
  979MOL0     O29104   9.841   7.576   6.825 -0.1993 -0.8828  0.0156
  979MOL0     C29105   9.720   7.612   6.757 -0.6802 -0.1071  0.1699
  979MOL0     C29106   9.605   7.571   6.851 -0.5611  0.8274 -0.0060
  979MOL0     C29107   9.467   7.609   6.795  0.1867  0.0959  0.5445
  979MOL0     C29108   9.350   7.555   6.884 -0.1761 -0.2815  1.5413
  979MOL0     C29109   9.211   7.574   6.823 -0.3510  0.2750 -0.0179
  979MOL0     C29110   9.113   7.513   6.929 -1.2468 -0.1570 -0.4079
  979MOL0     C29111   8.964   7.547   6.906  1.2942  0.3244 -0.3337
  979MOL0     C29112   8.913   7.494   6.773 -0.0268  0.4290 -0.4012
  979MOL0     N29113   8.775   7.538   6.734 -0.7881  0.5239  0.0891
  979MOL0     C29114   8.732   7.660   6.706  0.8697  0.6004 -0.6628
  979MOL0     C29115   8.610   7.638   6.644 -0.0631  0.5440 -0.1220
  979MOL0     C29116   8.534   7.749   6.558 -0.0354  0.3180  0.5402
  979MOL0     C29117   8.571   7.896   6.586  0.0617 -0.0662  0.8696
  979MOL0     C29118   8.521   8.002   6.473  0.0764 -0.4092  0.1649
  979MOL0     C29119   8.378   8.026   6.483  0.0988  0.2372 -0.4721
  979MOL0     O29120   8.324   8.020   6.613 -0.1181  0.1194  0.1777
  979MOL0     C29121   8.193   7.988   6.621  0.8826 -0.7495  0.0155
  979MOL0     C29122   8.092   8.016   6.523  0.1792  0.2285 -0.3779
  979MOL0     C29123   7.952   7.981   6.532 -0.1264 -0.7274  0.3606
  979MOL0     C29124   7.902   7.919   6.642 -1.0888  0.2502 -0.8622
  979MOL0     C29125   7.771   7.876   6.665 -0.0897 -0.3125  0.0936
  979MOL0     O29126   7.746   7.838   6.793 -0.4483  0.0847  0.5287
  979MOL0     C29127   7.614   7.805   6.819 -0.2275  0.2061 -1.0176
  979MOL0     C29128   7.546   7.878   6.925  0.6722  0.4267  0.8622
  979MOL0     C29129   7.414   7.847   6.955 -0.2292 -0.0574 -0.3290
  979MOL0     C29130   7.339   7.764   6.871 -0.3980  0.9099  0.5206
  979MOL0     O29131   7.206   7.744   6.880  1.1687 -0.4507 -1.2486
  979MOL0     C29132   7.123   7.847   6.925  0.3641 -0.1043 -0.5600
  979MOL0     C29133   7.114   7.822   7.083  0.5164  0.6862 -0.1402
  979MOL0     C29134   6.992   7.887   7.143  0.1548 -0.2805 -0.2776
  979MOL0     C29135   6.874   7.779   7.162 -0.4046  0.3259 -0.2477
  979MOL0     C29136   6.749   7.838   7.098 -0.4998 -0.4004  0.2100
  979MOL0     C29137   6.693   7.951   7.184 -0.0346 -0.3605 -0.4359
  979MOL0     C29138   6.599   8.046   7.103 -0.3689 -0.5609  0.4976
  979MOL0     C29139   6.676   8.142   7.009 -0.0332  0.1737  0.1279
  979MOL0    Cl29140   6.805   8.226   7.097 -0.0971  0.2665  0.6332
  979MOL0     C29141   7.408   7.687   6.774 -0.4272 -0.7299 -0.1108
  979MOL0     C29142   7.545   7.710   6.746  0.1763  0.6968 -0.6111
  979MOL0     O29143   7.687   7.910   6.579  0.5028  0.8679  0.2515
  979MOL0     C29144   7.998   7.896   6.748 -0.3814 -0.4066  1.2764
  979MOL0     C29145   8.135   7.924   6.726 -0.7846 -0.2647 -0.4801
  979MOL0     N29146   8.583   7.505   6.634  0.0378  0.2333 -0.6945
  979MOL0     N29147   8.685   7.452   6.690 -0.1595  0.2708 -0.0040
  979MOL0     C29148   9.986   7.679   6.659 -0.2005 -0.5045  0.2690
  979MOL0     C29149  10.109   7.678   6.602  0.2688  0.4213 -0.0953
  979MOL0     C29150  10.532   7.547   6.479  0.5497  0.0223  0.7704
  979MOL0     C29151  10.600   7.668   6.500 -0.4170  0.9779  0.0707
  979MOL0     C29152  10.735   7.681   6.456 -0.5265  0.6404  0.1389
  979MOL0     C29153  10.795   7.588   6.388 -0.6692 -0.1776  0.1496
  979MOL0     O29154  10.924   7.617   6.338 -0.1999  0.3045 -0.4334
  979MOL0     C29155  10.963   7.545   6.219  0.1823  0.3320  0.5872
  979MOL0     C29156  11.061   7.617   6.132 -0.4202  0.1555 -0.8226
  979MOL0     C29157  11.193   7.621   6.206 -0.1274 -0.6210 -0.3653
  979MOL0     C29158  11.273   7.746   6.163 -0.3705  1.2206 -0.2433
  979MOL0     C29159  11.416   7.727   6.202  0.3947  0.5504 -0.4945
  979MOL0     C29160  11.524   7.710   6.250 -0.1217  0.0434  0.1549
  979MOL0     C29161  10.733   7.460   6.373  0.4840 -0.3709 -0.3928
  979MOL0     C29162  10.604   7.438   6.428  0.3585 -0.1041  0.5979
  979MOL0     H29163  10.296   7.467   6.812  0.0751 -0.0856 -0.3673
  979MOL0     H29164  10.050   7.447   6.906  0.6528 -0.6520 -1.0604
  979MOL0     H29165   9.699   7.560   6.663 -0.0129  2.5291 -1.5630
  979MOL0     H29166   9.707   7.719   6.740 -1.2397 -0.5246 -2.3833
  979MOL0     H29167   9.629   7.626   6.943 -0.8327  0.5954  0.2021
  979MOL0     H29168   9.604   7.463   6.868  2.6603  0.8778  1.2211
  979MOL0     H29169   9.456   7.567   6.694 -1.0946  1.4376  0.0936
  979MOL0     H29170   9.462   7.718   6.786  0.5772  0.1658  1.1043
  979MOL0     H29171   9.372   7.448   6.878 -1.7528 -0.5550 -1.9344
  979MOL0     H29172   9.347   7.577   6.991 -1.1382  4.3935  0.7766
  979MOL0     H29173   9.192   7.520   6.730 -1.1515 -0.5977  0.6361
  979MOL0     H29174   9.193   7.681   6.806 -1.1304 -0.2254 -2.7863
  979MOL0     H29175   9.142   7.546   7.029 -0.0223  3.5933 -1.8219
  979MOL0     H29176   9.110   7.405   6.913 -0.5798  0.0654 -2.2021
  979MOL0     H29177   8.908   7.506   6.990  0.3472  0.8145 -0.7039
  979MOL0     H29178   8.958   7.656   6.915 -1.5577  0.2277 -0.2589
  979MOL0     H29179   8.926   7.386   6.770  3.3201  0.7295 -1.1606
  979MOL0     H29180   8.980   7.528   6.693 -0.1394 -1.9533 -1.5820
  979MOL0     H29181   8.788   7.748   6.735  0.2430  1.1113 -0.9813
  979MOL0     H29182   8.428   7.739   6.582  0.8274 -0.4966  4.8915
  979MOL0     H29183   8.550   7.724   6.453  1.6804  2.8354  0.1146
  979MOL0     H29184   8.679   7.907   6.600  0.1262 -0.4347  0.6985
  979MOL0     H29185   8.535   7.918   6.687 -1.2291 -1.4777  0.7597
  979MOL0     H29186   8.580   8.093   6.492 -0.2463 -0.1741  0.0519
  979MOL0     H29187   8.529   7.976   6.367 -0.0398  2.0707 -0.5329
  979MOL0     H29188   8.341   7.944   6.420  2.9010 -0.3837 -1.4520
  979MOL0     H29189   8.350   8.118   6.431  1.9632  0.2929 -1.4676
  979MOL0     H29190   8.107   8.071   6.430  0.4567 -0.8308 -0.9729
  979MOL0     H29191   7.878   8.007   6.457  0.5353  1.4375  0.4058
  979MOL0     H29192   7.588   7.956   6.987  0.9245  1.7085 -0.8560
  979MOL0     H29193   7.370   7.916   7.026  0.1310  0.8970 -0.9985
  979MOL0     H29194   7.028   7.839   6.871  0.7551  1.2788 -1.4951
  979MOL0     H29195   7.159   7.949   6.905  1.2301 -0.1884  0.4692
  979MOL0     H29196   7.196   7.878   7.127  0.2949  1.3083 -0.5017
  979MOL0     H29197   7.118   7.715   7.105 -0.4499  0.0194 -2.7701
  979MOL0     H29198   6.960   7.983   7.101  3.8539  2.1193  1.8327
  979MOL0     H29199   7.026   7.913   7.243  1.1887  1.4969 -1.0389
  979MOL0     H29200   6.902   7.687   7.111 -1.0612  0.2797 -0.5465
  979MOL0     H29201   6.853   7.763   7.268 -1.9000 -1.0591 -0.7001
  979MOL0     H29202   6.663   7.771   7.091  0.3967 -1.8045  1.9299
  979MOL0     H29203   6.775   7.868   6.996  0.3756 -2.0392 -0.0763
  979MOL0     H29204   6.772   8.007   7.235 -0.9431 -1.2693  2.1377
  979MOL0     H29205   6.640   7.907   7.269  1.9028  1.2147  1.7230
  979MOL0     H29206   6.522   7.991   7.047 -2.0718  1.4949  0.6559
  979MOL0     H29207   6.561   8.116   7.178  1.3062  1.0296 -0.0719
  979MOL0     H29208   6.603   8.204   6.957 -0.2626  1.7095  2.1629
  979MOL0     H29209   6.719   8.089   6.923  1.1726 -0.0825  0.8597
  979MOL0     H29210   7.361   7.605   6.720  1.9314 -0.6031 -2.5290
  979MOL0     H29211   7.603   7.646   6.680 -0.6710 -0.3800 -0.3535
  979MOL0     H29212   7.978   7.849   6.844 -0.6102 -1.5160  0.6915
  979MOL0     H29213   8.211   7.885   6.793 -0.3798  0.9880 -0.1824
  979MOL0     H29214   9.900   7.726   6.613 -2.7757 -3.9331  1.2331
  979MOL0     H29215  10.128   7.734   6.511 -1.0759 -0.9567 -1.2848
  979MOL0     H29216  10.554   7.749   6.555  0.8016  2.7654 -1.4139
  979MOL0     H29217  10.790   7.769   6.489 -1.1954  0.7345  1.0718
  979MOL0     H29218  10.883   7.517   6.150  1.7921 -2.4781 -0.2943
  979MOL0     H29219  11.014   7.453   6.248  1.9860  1.6263  1.7035
  979MOL0     H29220  11.072   7.543   6.052 -0.5539 -0.4220 -0.3140
  979MOL0     H29221  11.023   7.709   6.086 -3.0397  0.0845  0.9973
  979MOL0     H29222  11.249   7.534   6.173 -0.2931  0.1649 -2.9540
  979MOL0     H29223  11.183   7.626   6.315  0.2374  0.5589 -0.3717
  979MOL0     H29224  11.264   7.769   6.056 -0.1843  0.0628 -0.5268
  979MOL0     H29225  11.230   7.833   6.214  1.6878  0.9748  2.0743
  979MOL0     H29226  11.622   7.694   6.291  1.1844  2.7420 -1.5986
  979MOL0     H29227  10.785   7.380   6.323 -0.7148 -0.9484 -0.7426
  979MOL0     H29228  10.559   7.339   6.423 -2.4363  0.9994  1.4240
  980MOL0     O29229   3.940   3.079   4.936  0.0459  0.4752 -0.7940
  980MOL0     C29230   3.992   3.167   5.008 -1.0771  0.2355 -0.1210
  980MOL0     O29231   3.938   3.220   5.120 -0.5663  0.1163 -0.6109
  980MOL0     C29232   3.812   3.190   5.154  0.4857 -0.1843 -0.7444
  980MOL0     C29233   3.711   3.289   5.159 -0.1593 -0.0556 -0.1358
  980MOL0     C29234   3.578   3.268   5.195  0.2125  0.1451 -0.4929
  980MOL0     C29235   3.551   3.140   5.237 -0.0413  0.2994  0.5717
  980MOL0     O29236   3.427   3.117   5.278  0.1160  0.1592 -0.3965
  980MOL0     C29237   3.325   3.064   5.186  0.1384  0.1302 -0.8683
  980MOL0     C29238   3.308   3.138   5.055  0.1508  0.3000  0.0956
  980MOL0     C29239   3.187   3.076   4.989 -0.2091  0.3374 -0.6608
  980MOL0     C29240   3.149   3.170   4.871 -0.5071  0.8809  0.2079
  980MOL0     C29241   3.016   3.130   4.819  0.1304 -0.9075  0.0530
  980MOL0     C29242   2.899   3.167   4.901 -0.5275 -0.0216 -0.1692
  980MOL0     C29243   2.771   3.168   4.813 -0.0453  0.1839  0.0260
  980MOL0     C29244   2.650   3.190   4.902  0.1719 -0.8590 -0.0802
  980MOL0     N29245   2.512   3.206   4.842 -0.6028  0.2346  0.3660
  980MOL0     C29246   2.479   3.305   4.754 -0.4743  0.3149  0.3650
  980MOL0     C29247   2.351   3.291   4.744 -0.1147  0.2285  0.3900
  980MOL0     C29248   2.259   3.362   4.648 -1.0434  0.1813 -0.1198
  980MOL0     C29249   2.225   3.499   4.706 -0.5930 -0.0497  0.1086
  980MOL0     C29250   2.126   3.577   4.626 -0.3463 -0.0066 -0.2922
  980MOL0     C29251   2.084   3.699   4.694  0.8303 -0.5293 -0.2579
  980MOL0     O29252   1.969   3.757   4.632 -0.5375  0.5163 -0.1077
  980MOL0     C29253   1.845   3.726   4.672 -0.1583  0.1645  0.1111
  980MOL0     C29254   1.797   3.613   4.740  0.3047 -0.5843 -0.2516
  980MOL0     C29255   1.664   3.590   4.760 -0.6092  0.5294  0.0407
  980MOL0     C29256   1.570   3.674   4.699  0.3892 -0.0393  0.7261
  980MOL0     C29257   1.424   3.655   4.712  0.3518  0.5059 -0.2236
  980MOL0     O29258   1.342   3.762   4.702  0.0165 -0.8774  0.8479
  980MOL0     C29259   1.205   3.739   4.669 -0.3512  0.2446  0.4676
  980MOL0     C29260   1.158   3.628   4.585 -0.5579  0.3263 -0.1164
  980MOL0     C29261   1.020   3.606   4.569  0.5695  0.0047  0.1888
  980MOL0     C29262   0.923   3.705   4.616  0.5403  0.0546  0.5224
  980MOL0     O29263   0.782   3.702   4.611 -0.4951  0.0706  0.4715
  980MOL0     C29264   0.727   3.566   4.590  0.1716  0.3074  1.2205
  980MOL0     C29265   0.589   3.561   4.646  1.3734 -0.8358  0.0804
  980MOL0     C29266   0.520   3.430   4.608 -0.1704 -0.7566  0.9359
  980MOL0     C29267   0.368   3.433   4.649  0.0535 -0.6497 -0.0570
  980MOL0     C29268   0.286   3.471   4.532  0.5331  0.1933  0.6237
  980MOL0     C29269   0.134   3.448   4.558 -0.0268 -0.2327 -0.2139
  980MOL0     C29270   0.048   3.434   4.432  0.0654  0.7057  0.1383
  980MOL0     C29271  -0.093   3.384   4.465  1.0998 -0.2327  0.2848
  980MOL0    Cl29272  -0.168   3.339   4.311  0.1036 -0.2036  0.5606
  980MOL0     C29273   0.976   3.809   4.681  0.4646 -0.6207 -1.0713
  980MOL0     C29274   1.114   3.827   4.718  0.4243  0.4478  0.2916
  980MOL0     O29275   1.395   3.540   4.754  0.3922 -0.1403 -0.1251
  980MOL0     C29276   1.616   3.790   4.630  1.1758  0.9136 -0.1551
  980MOL0     C29277   1.749   3.814   4.617 -1.2057  0.2483  0.7027
  980MOL0     N29278   2.299   3.189   4.828 -0.3217 -0.5174  0.6415
  980MOL0     N29279   2.398   3.136   4.882 -0.5267  0.8705  0.4966
  980MOL0     C29280   3.644   3.037   5.239  0.6859  0.1053 -0.2571
  980MOL0     C29281   3.776   3.064   5.194 -0.0404  0.4992  0.3301
  980MOL0     C29282   4.126   3.228   4.964 -0.2691 -0.3208  0.6702
  980MOL0     C29283   4.197   3.312   5.048 -1.1203  0.2308  0.4635
  980MOL0     C29284   4.316   3.370   5.000  0.6593 -0.5199 -0.3173
  980MOL0     C29285   4.362   3.348   4.864 -0.4476 -0.2731  0.7194
  980MOL0     O29286   4.462   3.440   4.829  0.0887  0.7452 -0.1356
  980MOL0     C29287   4.531   3.433   4.701 -0.0164 -0.4717 -0.8329
  980MOL0     C29288   4.675   3.364   4.726  1.1091 -0.1392 -0.4226
  980MOL0     C29289   4.758   3.449   4.825  0.0908  0.0071  0.0672
  980MOL0     C29290   4.812   3.577   4.771  0.6421 -0.5624  0.3850
  980MOL0     C29291   4.935   3.558   4.693  0.4383 -0.1814  1.1941
  980MOL0     C29292   5.018   3.535   4.615 -0.3596 -0.3024  0.7951
  980MOL0     C29293   4.287   3.268   4.781 -0.2582  0.0309 -0.4789
  980MOL0     C29294   4.175   3.209   4.829 -0.6702  0.5007  0.5968
  980MOL0     H29295   3.745   3.385   5.124  0.5470 -0.3016 -0.1302
  980MOL0     H29296   3.504   3.347   5.200 -0.4760 -0.5644  0.9517
  980MOL0     H29297   3.228   3.064   5.236 -0.4312  3.4765 -1.7905
  980MOL0     H29298   3.359   2.966   5.151  2.8276  0.8423 -0.5316
  980MOL0     H29299   3.396   3.110   4.996  2.4025  1.1426  2.8269
  980MOL0     H29300   3.298   3.247   5.062 -1.0778  0.2569 -0.6615
  980MOL0     H29301   3.098   3.083   5.052 -0.8349 -1.1578 -1.3260
  980MOL0     H29302   3.216   2.975   4.958  1.3327  0.7159 -0.5265
  980MOL0     H29303   3.149   3.275   4.903 -2.0200  1.7292 -2.2499
  980MOL0     H29304   3.224   3.156   4.793  0.6090 -0.2148  1.4321
  980MOL0     H29305   3.009   3.022   4.805 -4.2156 -0.7245 -0.4717
  980MOL0     H29306   3.008   3.183   4.724  3.2033 -1.6821 -0.7320
  980MOL0     H29307   2.911   3.261   4.955  1.2567 -0.1477 -0.2723
  980MOL0     H29308   2.891   3.086   4.974  1.5827  1.3119  1.6614
  980MOL0     H29309   2.769   3.235   4.727  0.7950  0.4115  0.1808
  980MOL0     H29310   2.761   3.067   4.770  1.9176  0.7446 -1.9278
  980MOL0     H29311   2.660   3.280   4.962 -0.9816  0.8031 -2.2459
  980MOL0     H29312   2.647   3.105   4.971 -1.7894  0.2140  1.2468
  980MOL0     H29313   2.558   3.360   4.706  2.0128 -1.8585  1.7136
  980MOL0     H29314   2.169   3.299   4.639 -1.3735  0.2548  2.2245
  980MOL0     H29315   2.313   3.374   4.554  0.1121  2.2022  0.7526
  980MOL0     H29316   2.307   3.571   4.706 -1.3849  0.8733  0.8810
  980MOL0     H29317   2.190   3.475   4.807  0.4254 -2.1609  0.0187
  980MOL0     H29318   2.166   3.615   4.532 -3.0270  1.6944 -0.8646
  980MOL0     H29319   2.042   3.510   4.604  1.1391 -2.5952  1.4537
  980MOL0     H29320   2.160   3.777   4.683  0.8605 -0.7547 -1.9325
  980MOL0     H29321   2.057   3.683   4.799 -1.1672  2.4440 -0.2052
  980MOL0     H29322   1.869   3.555   4.797  2.1894  2.6180  0.9059
  980MOL0     H29323   1.645   3.504   4.823  0.6881  0.6356  0.6164
  980MOL0     H29324   1.239   3.576   4.535 -0.3259  1.4758 -1.0097
  980MOL0     H29325   0.988   3.524   4.505  0.8412  1.4086 -1.8261
  980MOL0     H29326   0.785   3.487   4.638  2.3279  1.8433  1.2998
  980MOL0     H29327   0.736   3.552   4.482 -0.7574  4.4292  0.4421
  980MOL0     H29328   0.533   3.649   4.611  1.8858 -1.1711 -1.6910
  980MOL0     H29329   0.599   3.559   4.755 -0.7958 -2.2388  0.3182
  980MOL0     H29330   0.571   3.344   4.651  0.7898 -0.3830  0.5786
  980MOL0     H29331   0.537   3.438   4.500 -0.7982 -0.0907  0.8805
  980MOL0     H29332   0.342   3.329   4.672 -1.8077  0.3747  3.0917
  980MOL0     H29333   0.356   3.505   4.731  0.7780  0.9529 -1.3014
  980MOL0     H29334   0.321   3.410   4.448 -3.0796  1.4973 -2.0823
  980MOL0     H29335   0.307   3.573   4.498 -1.5878 -0.1214 -1.9086
  980MOL0     H29336   0.100   3.530   4.621  0.1023 -0.6981  0.4695
  980MOL0     H29337   0.115   3.358   4.618  2.1571 -0.9495 -0.4966
  980MOL0     H29338   0.048   3.535   4.388 -0.7105 -0.9698 -4.2208
  980MOL0     H29339   0.090   3.374   4.351 -3.5389  2.5470 -3.4298
  980MOL0     H29340  -0.146   3.469   4.510  3.1484  0.6963  1.0695
  980MOL0     H29341  -0.100   3.298   4.532 -1.5865 -1.4731 -1.4015
  980MOL0     H29342   0.912   3.885   4.725  2.1050  1.0094 -1.4007
  980MOL0     H29343   1.153   3.912   4.773 -1.0328  1.2520  0.1177
  980MOL0     H29344   1.535   3.847   4.586 -1.2090 -2.1868 -0.1970
  980MOL0     H29345   1.780   3.889   4.545 -1.9021 -0.9905 -0.9563
  980MOL0     H29346   3.613   2.941   5.279  1.3773  0.8233  2.1788
  980MOL0     H29347   3.858   2.993   5.199  2.1786  2.7352 -1.7970
  980MOL0     H29348   4.172   3.339   5.150  3.1786  0.1261  1.7434
  980MOL0     H29349   4.368   3.439   5.066  2.7328  1.6999 -3.9419
  980MOL0     H29350   4.532   3.531   4.651 -1.2989 -0.3682 -0.6751
  980MOL0     H29351   4.480   3.369   4.629 -1.0735  0.8436 -1.2885
  980MOL0     H29352   4.653   3.268   4.773  1.9131  0.7677  1.9825
  980MOL0     H29353   4.730   3.345   4.634  0.4721 -5.0606 -0.0582
  980MOL0     H29354   4.845   3.390   4.856  1.8308  1.0212 -2.6193
  980MOL0     H29355   4.690   3.459   4.910 -0.5765 -0.1097 -0.4455
  980MOL0     H29356   4.731   3.624   4.715 -0.2573 -0.9744  1.3025
  980MOL0     H29357   4.827   3.635   4.863  0.3064 -1.4761  1.0321
  980MOL0     H29358   5.100   3.505   4.552  0.9826  2.5495  1.0397
  980MOL0     H29359   4.295   3.262   4.673 -1.3065  3.3002 -0.8323
  980MOL0     H29360   4.116   3.165   4.749  2.1308 -1.8589 -0.3445
  981MOL0     O29361   0.079   7.436   6.851  0.4502  0.4261 -0.1173
  981MOL0     C29362  -0.016   7.417   6.779  0.5768 -0.0578 -0.1373
  981MOL0     O29363  -0.012   7.348   6.656 -0.1923 -1.1142 -0.1777
  981MOL0     C29364   0.104   7.322   6.592 -1.3815  0.2360  0.4736
  981MOL0     C29365   0.125   7.382   6.470 -0.1881  0.2994 -0.1465
  981MOL0     C29366   0.245   7.346   6.392  0.0979  0.1317  0.4949
  981MOL0     C29367   0.347   7.263   6.440  0.0410 -0.3117 -0.6745
  981MOL0     O29368   0.464   7.240   6.367  0.5861  0.2455  0.1741
  981MOL0     C29369   0.553   7.137   6.409 -0.1606  0.8800 -0.3472
  981MOL0     C29370   0.678   7.140   6.326 -0.3949 -0.4170 -0.4443
  981MOL0     C29371   0.763   7.015   6.353 -0.6228  0.8035  0.5273
  981MOL0     C29372   0.903   7.045   6.314  0.6202 -0.2804 -0.4897
  981MOL0     C29373   1.006   6.926   6.330  0.2283 -0.2717  0.2067
  981MOL0     C29374   1.012   6.829   6.206 -0.4921  1.1026 -0.0236
  981MOL0     C29375   1.080   6.910   6.092 -0.0223  0.7145 -0.6682
  981MOL0     C29376   1.114   6.811   5.974 -0.2081  0.0092 -0.7548
  981MOL0     N29377   1.219   6.875   5.890 -0.4751  0.4768 -0.0437
  981MOL0     C29378   1.323   6.811   5.815 -0.6662 -0.0320  0.2967
  981MOL0     C29379   1.363   6.904   5.730  0.4202  0.3994 -0.8835
  981MOL0     C29380   1.468   6.892   5.620  1.5483  0.2475 -0.0530
  981MOL0     C29381   1.386   6.944   5.497 -0.1980 -0.1680  0.4719
  981MOL0     C29382   1.440   6.876   5.365 -0.1425  0.3843 -0.2623
  981MOL0     C29383   1.378   6.932   5.238 -0.4933  0.3782  0.1437
  981MOL0     O29384   1.232   6.915   5.236  0.1302 -0.4559 -0.4928
  981MOL0     C29385   1.154   6.940   5.132 -0.1574  0.6431 -0.5606
  981MOL0     C29386   1.195   6.959   5.003  0.8169 -0.0341  0.9054
  981MOL0     C29387   1.095   6.986   4.904  0.7407 -0.7912  0.4978
  981MOL0     C29388   0.962   6.993   4.935 -0.3629 -0.2517  0.5914
  981MOL0     C29389   0.860   7.033   4.831  0.7434 -0.4745 -0.3165
  981MOL0     O29390   0.744   7.063   4.890 -0.0668 -0.2174 -0.2985
  981MOL0     C29391   0.629   7.064   4.822  1.1815 -0.7324  0.3186
  981MOL0     C29392   0.620   7.120   4.691 -0.4516 -1.5217 -0.0596
  981MOL0     C29393   0.496   7.133   4.625 -0.2980  0.0588 -0.3237
  981MOL0     C29394   0.378   7.104   4.685  0.2227  0.3890  0.3952
  981MOL0     O29395   0.260   7.139   4.617  0.1635 -0.5590 -0.6825
  981MOL0     C29396   0.255   7.268   4.549  0.7633  0.0601 -0.3657
  981MOL0     C29397   0.117   7.292   4.492  0.8196  0.3541 -0.3104
  981MOL0     C29398   0.096   7.435   4.440 -0.2203  0.3215 -0.5274
  981MOL0     C29399  -0.045   7.447   4.395  0.1947  0.5691 -0.3752
  981MOL0     C29400  -0.079   7.571   4.319  0.3376 -1.1460  0.3795
  981MOL0     C29401  -0.190   7.539   4.220  0.6514 -0.1431 -0.1566
  981MOL0     C29402  -0.316   7.491   4.288 -0.1467 -0.1795  0.3891
  981MOL0     C29403  -0.434   7.492   4.197  0.5971 -1.0155  0.3929
  981MOL0    Cl29404  -0.576   7.447   4.305 -0.0971 -0.2224 -0.0297
  981MOL0     C29405   0.380   7.050   4.812  0.9972 -0.6994 -0.4199
  981MOL0     C29406   0.507   7.034   4.877 -0.2736 -0.0456  0.3499
  981MOL0     O29407   0.886   7.036   4.716 -0.5365 -0.3928  0.1066
  981MOL0     C29408   0.924   6.954   5.060  0.8144  0.3810  0.1175
  981MOL0     C29409   1.016   6.942   5.161 -0.7078 -1.0003 -0.3099
  981MOL0     N29410   1.308   7.030   5.767  0.4893  0.6752  0.4314
  981MOL0     N29411   1.221   7.000   5.856  0.4681 -0.8860 -0.0768
  981MOL0     C29412   0.326   7.223   6.572  0.0469  0.4310 -0.0523
  981MOL0     C29413   0.208   7.248   6.647  1.2866 -0.1357  0.2845
  981MOL0     C29414  -0.150   7.455   6.840 -0.0379 -0.3412  0.3148
  981MOL0     C29415  -0.160   7.532   6.957  0.4557 -0.4684 -0.3901
  981MOL0     C29416  -0.285   7.567   7.015 -0.0918 -1.4725 -0.0020
  981MOL0     C29417  -0.401   7.524   6.963  1.2272 -0.7146  1.3050
  981MOL0     O29418  -0.529   7.568   7.006 -0.3265  0.8648  0.2408
  981MOL0     C29419  -0.537   7.665   7.113 -0.5051  0.7892  0.4353
  981MOL0     C29420  -0.684   7.672   7.148  0.1084 -0.3386 -0.6315
  981MOL0     C29421  -0.780   7.725   7.042 -0.4218 -0.0551 -0.9779
  981MOL0     C29422  -0.926   7.704   7.084 -0.0039  0.6220 -0.0448
  981MOL0     C29423  -0.963   7.782   7.206 -0.6412 -0.4139 -0.3355
  981MOL0     C29424  -0.993   7.848   7.300  0.6247  0.4198 -0.0115
  981MOL0     C29425  -0.390   7.443   6.846  0.0575 -0.1630  0.0981
  981MOL0     C29426  -0.269   7.404   6.783 -0.0029 -0.3182 -0.1650
  981MOL0     H29427   0.063   7.455   6.419  1.0851  2.2573  0.9642
  981MOL0     H29428   0.266   7.383   6.292  0.2903 -0.1985  0.4102
  981MOL0     H29429   0.516   7.035   6.401  0.7188  0.3159  1.8454
  981MOL0     H29430   0.585   7.154   6.513  0.6238 -4.6889  0.6064
  981MOL0     H29431   0.725   7.234   6.357 -1.8622 -0.6876  3.0625
  981MOL0     H29432   0.652   7.129   6.220 -2.3713 -2.4051  0.1652
  981MOL0     H29433   0.724   6.938   6.285  0.3205 -0.2029  1.0771
  981MOL0     H29434   0.739   6.985   6.456 -1.5518 -0.6461 -0.0763
  981MOL0     H29435   0.907   7.071   6.207 -1.3342 -0.5212 -0.6584
  981MOL0     H29436   0.938   7.129   6.374  1.0092  0.5023 -1.7556
  981MOL0     H29437   0.994   6.876   6.427  0.4552  0.1882  0.4768
  981MOL0     H29438   1.101   6.980   6.336 -0.0029  0.5695 -2.5764
  981MOL0     H29439   0.908   6.800   6.193 -0.4896  1.5031 -1.0916
  981MOL0     H29440   1.074   6.745   6.240 -3.0230 -0.8337  0.0811
  981MOL0     H29441   1.009   6.984   6.054  1.2443  1.2719 -2.0502
  981MOL0     H29442   1.167   6.965   6.130 -2.7383  4.2439  0.9899
  981MOL0     H29443   1.028   6.801   5.908 -1.1583  3.0743 -0.1635
  981MOL0     H29444   1.149   6.712   6.006  2.4131  1.3705  0.9555
  981MOL0     H29445   1.335   6.703   5.807  1.7884  0.3055 -3.8640
  981MOL0     H29446   1.489   6.785   5.612  1.3924  0.1090  1.2379
  981MOL0     H29447   1.555   6.956   5.632  0.8994  1.0663  0.3840
  981MOL0     H29448   1.388   7.054   5.499  1.5500 -0.1671  0.1246
  981MOL0     H29449   1.281   6.916   5.509 -0.6726  2.5115  5.1733
  981MOL0     H29450   1.549   6.883   5.359  0.0068 -0.8502  0.7357
  981MOL0     H29451   1.404   6.773   5.374 -1.5242  0.8040 -0.6683
  981MOL0     H29452   1.414   6.877   5.149 -0.8219  2.0545 -1.0673
  981MOL0     H29453   1.409   7.035   5.220 -2.0425  0.4912 -2.3474
  981MOL0     H29454   1.300   6.955   4.974  0.3735 -1.1046 -0.7157
  981MOL0     H29455   1.126   7.013   4.803 -2.6511 -2.1825 -1.0698
  981MOL0     H29456   0.700   7.153   4.625 -0.5663 -4.0338 -1.5840
  981MOL0     H29457   0.504   7.165   4.522 -0.2403 -1.3476 -0.7770
  981MOL0     H29458   0.314   7.285   4.458  0.1811  2.9548 -0.3227
  981MOL0     H29459   0.268   7.350   4.621 -0.0427 -0.2007  0.0932
  981MOL0     H29460   0.050   7.267   4.574  0.4119  0.0194 -0.7405
  981MOL0     H29461   0.098   7.228   4.406 -0.3180 -2.0544  1.6254
  981MOL0     H29462   0.168   7.470   4.366 -1.0850  0.9291 -1.0963
  981MOL0     H29463   0.102   7.505   4.524  2.6583  0.0916 -0.4551
  981MOL0     H29464  -0.079   7.358   4.340  1.0901 -0.4477  0.6761
  981MOL0     H29465  -0.104   7.444   4.486  2.8298 -0.7983  1.4090
  981MOL0     H29466   0.009   7.609   4.267  0.1756  3.2470  2.8535
  981MOL0     H29467  -0.107   7.653   4.386 -0.1238 -1.0689  0.0996
  981MOL0     H29468  -0.158   7.461   4.149  1.0629 -2.0773  2.0321
  981MOL0     H29469  -0.204   7.630   4.162  2.2290 -0.2966 -0.8191
  981MOL0     H29470  -0.311   7.390   4.328 -1.0294  0.5961  2.6285
  981MOL0     H29471  -0.339   7.555   4.374  0.3555 -0.0580  0.4359
  981MOL0     H29472  -0.422   7.423   4.113 -0.3823 -1.1860  0.3787
  981MOL0     H29473  -0.430   7.596   4.161  3.9002 -0.5145  1.8677
  981MOL0     H29474   0.288   7.022   4.862  0.6910  0.8539 -0.0716
  981MOL0     H29475   0.516   7.001   4.981 -1.2949 -2.9923 -0.3804
  981MOL0     H29476   0.820   6.945   5.088  1.1184 -0.0046  1.2037
  981MOL0     H29477   0.973   6.932   5.260  0.2615 -2.6190 -0.0089
  981MOL0     H29478   0.399   7.164   6.625 -2.7600 -3.2643  0.0669
  981MOL0     H29479   0.190   7.196   6.740 -0.1308 -1.3714 -0.6325
  981MOL0     H29480  -0.065   7.559   7.000 -1.2322  4.4093  0.9191
  981MOL0     H29481  -0.272   7.628   7.104  0.6503  0.4528 -1.3686
  981MOL0     H29482  -0.506   7.759   7.067  0.2152 -0.1310 -1.0235
  981MOL0     H29483  -0.478   7.645   7.203 -1.2338 -2.9199  0.2644
  981MOL0     H29484  -0.715   7.577   7.192  0.3371 -0.9469 -1.7456
  981MOL0     H29485  -0.680   7.748   7.226  1.1392 -0.4170 -0.5955
  981MOL0     H29486  -0.769   7.673   6.947 -0.0886 -3.3979  0.7552
  981MOL0     H29487  -0.764   7.833   7.034  0.8754 -0.0639  0.9586
  981MOL0     H29488  -0.991   7.731   7.000 -1.5189 -2.1514  0.1165
  981MOL0     H29489  -0.944   7.597   7.099  1.1334 -0.1582 -3.3687
  981MOL0     H29490  -1.034   7.907   7.380  0.7163 -0.6744  0.8648
  981MOL0     H29491  -0.485   7.413   6.803 -0.6812  2.5181 -0.3001
  981MOL0     H29492  -0.278   7.348   6.691  0.7403 -1.9387  0.7104
  982MOL0     O29493   2.373   5.599   2.111  0.6030 -0.4110 -0.1286
  982MOL0     C29494   2.414   5.483   2.116  0.5264 -1.2922 -0.5725
  982MOL0     O29495   2.343   5.375   2.082 -0.5244 -0.4939 -0.3394
  982MOL0     C29496   2.207   5.396   2.069  0.6726 -0.2135  0.2625
  982MOL0     C29497   2.145   5.441   1.947 -0.4592  0.3030 -0.2963
  982MOL0     C29498   2.002   5.451   1.930  0.0107 -0.3311 -0.9236
  982MOL0     C29499   1.923   5.401   2.037  0.0239 -0.4846  0.2042
  982MOL0     O29500   1.789   5.397   2.024 -0.3186  0.2694  0.2429
  982MOL0     C29501   1.696   5.384   2.132 -0.5162  1.2034 -0.5544
  982MOL0     C29502   1.558   5.446   2.093 -0.2138 -0.5523 -0.0482
  982MOL0     C29503   1.505   5.395   1.963  0.0581 -0.5452 -0.0614
  982MOL0     C29504   1.351   5.419   1.949  0.1989  0.5861 -0.0670
  982MOL0     C29505   1.278   5.297   1.884 -1.8677  0.6411  0.6948
  982MOL0     C29506   1.126   5.316   1.907 -0.0835  0.6091 -0.1682
  982MOL0     C29507   1.066   5.414   1.802 -0.2424  0.3774  0.1462
  982MOL0     C29508   0.904   5.421   1.806  0.4753  0.1917 -0.3975
  982MOL0     N29509   0.846   5.485   1.932  0.2914  0.5130  0.3974
  982MOL0     C29510   0.901   5.584   2.012 -0.3562  0.5440  0.3866
  982MOL0     C29511   0.799   5.633   2.088 -0.6725  1.0037 -0.5990
  982MOL0     C29512   0.799   5.762   2.162  0.0275  0.2716 -0.7559
  982MOL0     C29513   0.839   5.739   2.311  0.8094 -0.3411 -0.5246
  982MOL0     C29514   0.976   5.686   2.320  0.7909 -0.1370  0.2908
  982MOL0     C29515   1.009   5.674   2.464 -0.2761  1.1894  0.2731
  982MOL0     O29516   1.120   5.585   2.502  0.2238  0.1468 -0.9347
  982MOL0     C29517   1.243   5.620   2.469 -1.2604  0.2245  0.0831
  982MOL0     C29518   1.338   5.518   2.493 -1.3731 -0.1336 -0.0977
  982MOL0     C29519   1.475   5.538   2.463 -0.1112  0.1358  0.4229
  982MOL0     C29520   1.521   5.659   2.393 -0.3101  0.6715 -0.0253
  982MOL0     C29521   1.668   5.673   2.357  0.3515 -0.3174 -1.2479
  982MOL0     O29522   1.693   5.778   2.284 -0.7637 -0.7000 -0.1166
  982MOL0     C29523   1.817   5.820   2.253  0.0377  0.1624  0.1870
  982MOL0     C29524   1.928   5.741   2.204 -0.4213  0.4573 -1.1975
  982MOL0     C29525   2.053   5.796   2.175  0.9135  0.8983 -0.4265
  982MOL0     C29526   2.076   5.934   2.167  0.5502  0.1998 -0.8097
  982MOL0     O29527   2.189   6.000   2.131  0.9250 -0.4386  0.1986
  982MOL0     C29528   2.307   5.925   2.139 -0.1873  0.1780  0.0725
  982MOL0     C29529   2.414   6.024   2.111  0.7634 -0.5855  0.6829
  982MOL0     C29530   2.542   5.958   2.080  0.1883  0.3508 -0.3795
  982MOL0     C29531   2.650   6.060   2.039  0.0859  0.1616 -0.4652
  982MOL0     C29532   2.772   5.985   1.985  0.2776  0.4011 -0.8717
  982MOL0     C29533   2.836   5.884   2.089 -0.4479 -0.6040  0.2493
  982MOL0     C29534   2.969   5.827   2.047  0.2100 -0.6964 -0.3597
  982MOL0     C29535   2.970   5.725   1.933  0.1318 -0.6030 -0.9457
  982MOL0    Cl29536   3.126   5.628   1.953  0.1617 -0.0467  0.1876
  982MOL0     C29537   1.969   6.012   2.210 -1.2996  0.6343  0.3762
  982MOL0     C29538   1.840   5.960   2.258 -0.0675 -0.2595 -0.1626
  982MOL0     O29539   1.752   5.601   2.414 -1.1171 -0.5674 -0.0853
  982MOL0     C29540   1.427   5.764   2.377  0.0420  0.8549  0.5999
  982MOL0     C29541   1.293   5.738   2.416  0.2875 -0.9087  0.5403
  982MOL0     N29542   0.683   5.567   2.052 -0.2883 -0.8633  0.5549
  982MOL0     N29543   0.713   5.487   1.960 -0.6587 -0.3282  0.7038
  982MOL0     C29544   1.982   5.354   2.153  0.2534 -0.0462  0.3573
  982MOL0     C29545   2.120   5.359   2.170 -0.1346  0.4381  0.2063
  982MOL0     C29546   2.548   5.461   2.181  0.5979  0.0351  0.8395
  982MOL0     C29547   2.607   5.338   2.159  0.4720 -0.2678  0.9445
  982MOL0     C29548   2.734   5.305   2.203  0.8467 -0.1488  1.3120
  982MOL0     C29549   2.814   5.407   2.262 -0.1441  1.1083 -0.5385
  982MOL0     O29550   2.937   5.364   2.305 -0.9575  0.2861 -0.2538
  982MOL0     C29551   3.013   5.432   2.410  0.5415 -0.0657  0.1767
  982MOL0     C29552   3.112   5.532   2.347  0.2974 -0.4446  0.5099
  982MOL0     C29553   3.228   5.467   2.278 -0.6004  0.1911  0.0344
  982MOL0     C29554   3.331   5.393   2.372 -0.0700  0.0757  0.4951
  982MOL0     C29555   3.435   5.346   2.281  0.2068  0.7542  0.4622
  982MOL0     C29556   3.535   5.319   2.217  1.1637  0.1774 -0.0939
  982MOL0     C29557   2.754   5.523   2.290 -0.0163  0.2890 -0.9214
  982MOL0     C29558   2.623   5.560   2.242  0.2411 -0.1218 -0.2093
  982MOL0     H29559   2.199   5.465   1.857 -3.6942  1.9693 -1.9783
  982MOL0     H29560   1.968   5.489   1.834  1.6602  1.3072 -0.9082
  982MOL0     H29561   1.726   5.432   2.226  0.8901  0.3666 -0.5489
  982MOL0     H29562   1.676   5.278   2.149 -1.2139  1.3822 -0.2267
  982MOL0     H29563   1.564   5.555   2.081 -2.0511 -0.4657 -0.5577
  982MOL0     H29564   1.492   5.434   2.179 -1.9587  0.1773 -1.2170
  982MOL0     H29565   1.511   5.286   1.961  1.0163 -0.5111 -2.1739
  982MOL0     H29566   1.566   5.436   1.882 -0.5797  0.8053  0.1108
  982MOL0     H29567   1.310   5.418   2.051  0.7547  1.2475  0.1703
  982MOL0     H29568   1.339   5.515   1.899  1.4379 -0.2263 -2.0181
  982MOL0     H29569   1.305   5.195   1.913 -3.9853 -2.1597 -5.4560
  982MOL0     H29570   1.286   5.302   1.775  0.2462  2.1798  0.8765
  982MOL0     H29571   1.114   5.368   2.003 -0.1810  1.1742 -0.4790
  982MOL0     H29572   1.071   5.222   1.903 -1.6354  1.3230  1.9801
  982MOL0     H29573   1.120   5.509   1.814 -0.1748  0.4665 -0.8422
  982MOL0     H29574   1.084   5.375   1.702 -5.6728  0.0925 -1.0611
  982MOL0     H29575   0.861   5.322   1.789 -1.4435  1.3214 -2.6513
  982MOL0     H29576   0.869   5.471   1.716 -0.5658 -0.6420 -0.4833
  982MOL0     H29577   0.998   5.625   1.983  0.7039 -1.7892  0.3654
  982MOL0     H29578   0.694   5.792   2.155 -0.3329 -0.4998  0.7977
  982MOL0     H29579   0.858   5.840   2.115  1.0051  0.8867  1.3532
  982MOL0     H29580   0.766   5.681   2.370  0.3721 -1.0512 -1.7348
  982MOL0     H29581   0.842   5.841   2.351 -0.8014 -0.1781 -0.7272
  982MOL0     H29582   0.984   5.586   2.276 -1.0338 -0.0349 -0.3640
  982MOL0     H29583   1.045   5.750   2.265 -1.4619  1.6607 -0.5895
  982MOL0     H29584   0.926   5.628   2.519 -0.4928  1.0345 -0.1786
  982MOL0     H29585   1.013   5.772   2.511  1.3894  0.5252  1.6064
  982MOL0     H29586   1.315   5.428   2.549  1.2322 -0.3971  0.7143
  982MOL0     H29587   1.553   5.465   2.477 -1.1238 -1.0777 -0.0608
  982MOL0     H29588   1.907   5.635   2.194 -3.1879  1.0577 -2.8706
  982MOL0     H29589   2.131   5.730   2.138  0.0428 -1.3261  1.4947
  982MOL0     H29590   2.315   5.841   2.070 -0.5211 -0.6063  0.9596
  982MOL0     H29591   2.314   5.882   2.239 -1.9728  1.2030  0.6990
  982MOL0     H29592   2.414   6.107   2.182  0.0631  0.2533 -0.2736
  982MOL0     H29593   2.390   6.077   2.018 -0.9432  1.9871  2.4875
  982MOL0     H29594   2.544   5.883   2.000  1.1169 -1.2273  1.0388
  982MOL0     H29595   2.568   5.903   2.172 -0.8476  0.5142  0.0270
  982MOL0     H29596   2.613   6.125   1.958 -2.7823  0.4220  0.9565
  982MOL0     H29597   2.679   6.120   2.126 -0.4780  0.4072 -0.4421
  982MOL0     H29598   2.843   6.058   1.948 -1.4870  1.9345 -1.3856
  982MOL0     H29599   2.741   5.922   1.901 -1.1397 -1.8153  1.1734
  982MOL0     H29600   2.764   5.803   2.103 -2.1903  0.8000 -0.2214
  982MOL0     H29601   2.834   5.947   2.179 -2.1392  2.4367 -1.7456
  982MOL0     H29602   3.023   5.914   2.010 -0.4049  0.0189  0.4041
  982MOL0     H29603   3.025   5.787   2.132 -1.7941 -0.2384  1.2435
  982MOL0     H29604   2.978   5.784   1.841  1.7484  2.3028  0.8647
  982MOL0     H29605   2.888   5.652   1.935 -0.5251  0.1197 -0.6952
  982MOL0     H29606   1.974   6.120   2.201 -3.7647  0.9608  1.8415
  982MOL0     H29607   1.761   6.023   2.297  0.0178 -0.8332  0.9733
  982MOL0     H29608   1.438   5.866   2.342  0.1534  1.1883  1.5631
  982MOL0     H29609   1.220   5.816   2.401  0.2827 -0.6924  1.6352
  982MOL0     H29610   1.921   5.335   2.241  1.0984  0.1485  1.0101
  982MOL0     H29611   2.155   5.318   2.264  1.2502 -0.0326 -0.4854
  982MOL0     H29612   2.546   5.264   2.110 -0.2842  1.3104 -0.6173
  982MOL0     H29613   2.770   5.205   2.179 -0.6951 -1.1428  2.8611
  982MOL0     H29614   3.068   5.351   2.459  4.0606  2.1522  0.2220
  982MOL0     H29615   2.942   5.471   2.484 -1.1991  0.5369 -1.6985
  982MOL0     H29616   3.051   5.586   2.274 -2.3178  0.1245  2.9714
  982MOL0     H29617   3.149   5.619   2.402 -0.5854  2.3251 -2.8923
  982MOL0     H29618   3.276   5.552   2.230  0.0482  0.5850  1.3320
  982MOL0     H29619   3.205   5.394   2.200 -0.6676  2.0662 -1.7633
  982MOL0     H29620   3.373   5.459   2.448  1.2865  0.8658 -0.8791
  982MOL0     H29621   3.282   5.307   2.418 -0.3375 -0.4678 -0.7733
  982MOL0     H29622   3.632   5.305   2.174  0.1240 -0.3023 -2.4390
  982MOL0     H29623   2.807   5.600   2.344  1.1613 -1.9549  1.3258
  982MOL0     H29624   2.586   5.656   2.279  2.4797  0.6336  0.2107
  983MOL0     O29625   0.538   8.148   7.706 -0.0001 -0.1221 -0.2833
  983MOL0     C29626   0.618   8.191   7.796  0.6566 -0.3332  0.2359
  983MOL0     O29627   0.614   8.314   7.849 -1.1678 -0.4163  0.1484
  983MOL0     C29628   0.507   8.393   7.822 -0.6584  0.3838 -0.6357
  983MOL0     C29629   0.523   8.510   7.749  0.8135  0.2970  0.0172
  983MOL0     C29630   0.408   8.590   7.722 -0.4033  0.6527 -0.0404
  983MOL0     C29631   0.290   8.568   7.784 -0.2774  0.1980  0.7053
  983MOL0     O29632   0.180   8.647   7.759 -0.5125 -0.8264  0.5178
  983MOL0     C29633   0.045   8.606   7.792  0.3030  0.0758  0.1623
  983MOL0     C29634  -0.040   8.726   7.755 -0.0532 -0.3030 -0.3356
  983MOL0     C29635  -0.043   8.765   7.609  0.5576  0.3395  0.3551
  983MOL0     C29636  -0.111   8.902   7.586 -0.2960  0.2322  0.6379
  983MOL0     C29637  -0.266   8.902   7.622 -0.4114 -0.5738 -1.4864
  983MOL0     C29638  -0.337   9.029   7.588  0.5959 -0.0751  0.1889
  983MOL0     C29639  -0.485   9.034   7.625  0.5942  0.5261 -1.2729
  983MOL0     C29640  -0.512   9.169   7.691  1.1291 -0.1100  0.8354
  983MOL0     N29641  -0.659   9.188   7.729 -1.5514  0.1297  0.2869
  983MOL0     C29642  -0.761   9.223   7.651 -0.4232  0.1875  0.0178
  983MOL0     C29643  -0.874   9.211   7.722 -0.2777  0.3976 -0.7093
  983MOL0     C29644  -1.006   9.245   7.648  0.0881 -0.6278  0.0797
  983MOL0     C29645  -1.132   9.182   7.717 -0.0555  0.3593 -0.5952
  983MOL0     C29646  -1.167   9.240   7.858  0.7792 -0.2681  0.1526
  983MOL0     C29647  -1.302   9.186   7.914 -0.7625  0.4079 -0.0167
  983MOL0     O29648  -1.406   9.201   7.817  0.7257 -0.4330 -0.5470
  983MOL0     C29649  -1.533   9.159   7.838  0.3772  0.3082  1.0987
  983MOL0     C29650  -1.594   9.155   7.964 -1.8073 -0.1644  0.5683
  983MOL0     C29651  -1.718   9.092   7.988 -0.3442  0.2976  0.5826
  983MOL0     C29652  -1.796   9.045   7.874  0.2919 -0.2263 -1.0253
  983MOL0     C29653  -1.935   8.988   7.899  0.3239  0.6050 -0.4143
  983MOL0     O29654  -1.999   8.949   7.780  0.7911 -0.2338 -1.3440
  983MOL0     C29655  -2.134   8.917   7.802 -0.3362  0.2839 -0.4402
  983MOL0     C29656  -2.229   9.005   7.748  0.7568 -0.2952  0.1575
  983MOL0     C29657  -2.363   8.976   7.755 -0.9757 -0.4083 -0.9636
  983MOL0     C29658  -2.407   8.875   7.826  0.0571  0.6061 -0.6831
  983MOL0     O29659  -2.538   8.865   7.843 -0.0754  0.2647  0.3402
  983MOL0     C29660  -2.601   8.819   7.965 -0.1492  0.4497  0.5003
  983MOL0     C29661  -2.699   8.928   8.019 -0.6107 -0.6926 -0.9721
  983MOL0     C29662  -2.817   8.867   8.106 -0.7766 -0.6827  0.6019
  983MOL0     C29663  -2.891   8.984   8.164  1.0008  0.1729  0.2892
  983MOL0     C29664  -3.007   8.921   8.241 -0.2710 -0.1289  0.2753
  983MOL0     C29665  -3.121   8.871   8.161 -0.5441 -0.2131  1.0338
  983MOL0     C29666  -3.225   8.805   8.259 -0.8476  0.3144  0.2361
  983MOL0     C29667  -3.339   8.754   8.175 -0.4752  0.1824 -0.9571
  983MOL0    Cl29668  -3.464   8.887   8.162 -0.3636  0.0829  0.2545
  983MOL0     C29669  -2.318   8.784   7.888  0.7394  0.5090  0.3915
  983MOL0     C29670  -2.181   8.806   7.873 -0.3449  0.1041 -0.3969
  983MOL0     O29671  -1.986   8.993   8.012 -0.0201 -0.0672  0.3787
  983MOL0     C29672  -1.737   9.047   7.752 -0.1067  0.1232 -0.2556
  983MOL0     C29673  -1.609   9.106   7.734 -0.4712 -0.3108  0.6997
  983MOL0     N29674  -0.842   9.170   7.849 -0.2249  0.2670 -0.5603
  983MOL0     N29675  -0.706   9.165   7.856 -0.5229  0.4285  0.3531
  983MOL0     C29676   0.280   8.454   7.859 -0.0840 -0.0852 -0.2556
  983MOL0     C29677   0.387   8.374   7.886 -1.0180  0.4069 -0.0451
  983MOL0     C29678   0.732   8.106   7.835 -0.5936  0.2096 -0.6052
  983MOL0     C29679   0.818   8.152   7.943 -0.0451  1.5043  0.7478
  983MOL0     C29680   0.929   8.072   7.972  0.0194 -0.6663 -0.2530
  983MOL0     C29681   0.962   7.963   7.892  0.3174  0.4772 -0.1910
  983MOL0     O29682   1.090   7.908   7.901 -0.2408 -0.4520  0.2651
  983MOL0     C29683   1.190   7.941   7.994 -0.0699  0.5041 -0.2702
  983MOL0     C29684   1.278   7.812   8.008  0.6373 -0.7795 -0.2761
  983MOL0     C29685   1.200   7.695   8.067  0.0969  0.7153  0.2539
  983MOL0     C29686   1.287   7.564   8.062  0.7298 -0.7132 -0.9286
  983MOL0     C29687   1.220   7.454   8.135  0.9692 -0.2947  0.6122
  983MOL0     C29688   1.154   7.365   8.186 -0.0652 -0.6136 -0.4442
  983MOL0     C29689   0.878   7.919   7.803  0.5533 -0.0797  0.1787
  983MOL0     C29690   0.754   7.980   7.777  0.7732  0.2308  1.0252
  983MOL0     H29691   0.624   8.531   7.715  1.2853  0.4325  1.4592
  983MOL0     H29692   0.417   8.684   7.669 -2.2456  1.2019  0.5268
  983MOL0     H29693   0.034   8.573   7.896  1.7614 -3.8773 -0.7865
  983MOL0     H29694   0.023   8.518   7.731  1.7753  0.2656 -0.6791
  983MOL0     H29695  -0.011   8.813   7.814 -2.4159  0.7776 -0.6426
  983MOL0     H29696  -0.142   8.713   7.790 -0.1861  0.1081 -0.5575
  983MOL0     H29697  -0.091   8.681   7.557 -0.1873  2.2003 -2.1418
  983MOL0     H29698   0.057   8.783   7.569  0.2110  1.1194 -0.1959
  983MOL0     H29699  -0.057   8.983   7.635  1.6205 -0.4330 -0.2511
  983MOL0     H29700  -0.108   8.922   7.478 -0.8283 -1.9052  0.1821
  983MOL0     H29701  -0.274   8.890   7.730  2.2580 -0.7778 -1.2456
  983MOL0     H29702  -0.309   8.819   7.565 -0.9499 -1.9267  0.8013
  983MOL0     H29703  -0.326   9.048   7.480 -0.9903  1.7115  0.2974
  983MOL0     H29704  -0.281   9.106   7.642  1.6338 -1.4625  1.1561
  983MOL0     H29705  -0.543   9.030   7.532 -1.8463 -0.3891  0.2077
  983MOL0     H29706  -0.503   8.950   7.692  1.6606  1.7902  0.6739
  983MOL0     H29707  -0.488   9.245   7.616 -3.1012 -1.3964 -2.2357
  983MOL0     H29708  -0.444   9.170   7.776  1.1086  0.5118  0.8548
  983MOL0     H29709  -0.754   9.244   7.545  1.9837 -1.4349 -0.2313
  983MOL0     H29710  -1.008   9.222   7.541  0.7121  2.5077 -0.6970
  983MOL0     H29711  -1.031   9.352   7.649 -2.4480 -1.1169 -1.2830
  983MOL0     H29712  -1.101   9.078   7.734  0.0098  0.5925  0.8316
  983MOL0     H29713  -1.217   9.182   7.648 -1.1933  0.4969  0.7860
  983MOL0     H29714  -1.088   9.209   7.927  0.4044  0.5606  0.9732
  983MOL0     H29715  -1.170   9.349   7.850 -0.6055 -0.4507 -3.2436
  983MOL0     H29716  -1.332   9.215   8.015 -0.3227 -4.2616  1.7035
  983MOL0     H29717  -1.290   9.077   7.918  2.3714  0.6588  0.1806
  983MOL0     H29718  -1.536   9.191   8.048 -0.0825  0.1434 -0.6991
  983MOL0     H29719  -1.752   9.083   8.090  0.9297  1.1616  1.1137
  983MOL0     H29720  -2.191   9.093   7.697 -1.4467  0.6072 -0.0567
  983MOL0     H29721  -2.436   9.041   7.708  0.0409  1.8363  0.4444
  983MOL0     H29722  -2.537   8.783   8.047 -1.6895 -0.1053  1.5171
  983MOL0     H29723  -2.641   8.719   7.945  2.2822 -0.7414  1.1422
  983MOL0     H29724  -2.734   8.988   7.935  4.3919 -0.6475 -3.4522
  983MOL0     H29725  -2.639   8.994   8.082  0.4314 -1.7923 -0.7669
  983MOL0     H29726  -2.781   8.811   8.194 -2.2845  1.7858  2.9591
  983MOL0     H29727  -2.875   8.798   8.045 -3.1691  3.5567 -2.3848
  983MOL0     H29728  -2.834   9.042   8.238  0.1793  0.9413  0.3346
  983MOL0     H29729  -2.933   9.055   8.093 -0.4279  0.9128  1.8090
  983MOL0     H29730  -3.042   9.006   8.301  1.6963  1.5146 -0.7698
  983MOL0     H29731  -2.988   8.839   8.311 -1.3357  1.8332  3.0525
  983MOL0     H29732  -3.090   8.813   8.074  2.8769  2.8609 -0.0038
  983MOL0     H29733  -3.164   8.963   8.121 -1.8494 -1.6439 -1.0403
  983MOL0     H29734  -3.180   8.718   8.308 -0.4967 -1.1330 -2.4561
  983MOL0     H29735  -3.254   8.872   8.339 -0.1353 -0.5267  1.2312
  983MOL0     H29736  -3.376   8.672   8.238  3.1419 -1.9944 -1.3791
  983MOL0     H29737  -3.304   8.704   8.084 -1.3010  1.1054 -1.8079
  983MOL0     H29738  -2.344   8.691   7.937  0.8198  0.1782 -0.1848
  983MOL0     H29739  -2.110   8.731   7.908 -0.3913  0.6751  0.9796
  983MOL0     H29740  -1.787   9.002   7.667 -3.1669  3.8385 -0.7036
  983MOL0     H29741  -1.553   9.096   7.642 -0.8211  1.0006  0.3349
  983MOL0     H29742   0.192   8.428   7.918 -0.5744  2.2052  0.1348
  983MOL0     H29743   0.375   8.291   7.955 -3.4751  1.6719  1.1641
  983MOL0     H29744   0.786   8.238   8.001  0.3510  1.7630  0.5877
  983MOL0     H29745   1.003   8.107   8.043 -0.2718 -1.3486  0.3916
  983MOL0     H29746   1.142   7.961   8.090 -2.0457 -1.7356 -0.6981
  983MOL0     H29747   1.249   8.026   7.958 -0.4208  1.3852  1.1723
  983MOL0     H29748   1.317   7.782   7.910 -1.4360 -2.3400 -0.6772
  983MOL0     H29749   1.364   7.837   8.071  0.3516  0.3589 -0.3150
  983MOL0     H29750   1.112   7.676   8.006 -1.1593  0.8377  1.9633
  983MOL0     H29751   1.167   7.721   8.168 -2.1124  1.4846 -0.6246
  983MOL0     H29752   1.302   7.535   7.957  0.9318  0.5446 -1.2758
  983MOL0     H29753   1.384   7.585   8.106  0.4003  3.6333 -1.8097
  983MOL0     H29754   1.084   7.301   8.237  2.1806 -1.8243  1.2837
  983MOL0     H29755   0.902   7.829   7.747 -0.2240  1.2346 -2.4454
  983MOL0     H29756   0.686   7.941   7.703  0.8772 -0.9608  1.5361
  984MOL0     O29757   2.624   2.033   5.432  0.1633 -0.3514 -0.4797
  984MOL0     C29758   2.672   1.975   5.531  0.1259 -0.8834 -0.5964
  984MOL0     O29759   2.588   1.955   5.642 -1.2734 -0.1060 -0.0254
  984MOL0     C29760   2.458   2.002   5.647  0.2605 -0.1645  0.2356
  984MOL0     C29761   2.350   1.911   5.649  0.4670  0.1666  0.5426
  984MOL0     C29762   2.216   1.948   5.645 -0.8194  0.2590  0.4441
  984MOL0     C29763   2.185   2.085   5.655 -0.4374  0.1001 -0.1488
  984MOL0     O29764   2.059   2.129   5.683  0.4407 -0.3304  0.0393
  984MOL0     C29765   1.953   2.042   5.714 -0.5529 -0.2772  0.0165
  984MOL0     C29766   1.827   2.116   5.741  0.3577  0.3754  0.0473
  984MOL0     C29767   1.722   2.012   5.797  0.1309 -0.0535  0.2409
  984MOL0     C29768   1.571   2.053   5.808 -0.1073  0.8275 -0.2670
  984MOL0     C29769   1.469   1.945   5.838  0.6300 -0.1068  0.1244
  984MOL0     C29770   1.331   2.016   5.872 -1.0727  0.0181 -0.0660
  984MOL0     C29771   1.215   1.915   5.884 -0.4553  0.1617 -0.4369
  984MOL0     C29772   1.212   1.814   5.767 -1.0569 -0.1038 -0.1048
  984MOL0     N29773   1.194   1.887   5.634  0.2110  0.1910 -0.2269
  984MOL0     C29774   1.076   1.902   5.555 -0.1320 -0.0728 -0.2106
  984MOL0     C29775   1.105   1.943   5.430  0.1303  0.3891 -1.1338
  984MOL0     C29776   1.019   1.983   5.321  0.7037 -0.2404 -0.1924
  984MOL0     C29777   0.942   2.107   5.367 -0.6280 -0.0636 -0.4814
  984MOL0     C29778   0.826   2.121   5.277  0.4806  0.0588 -0.1154
  984MOL0     C29779   0.719   2.222   5.329 -0.8607  0.0251 -0.0320
  984MOL0     O29780   0.643   2.280   5.224 -0.4957 -0.4242 -0.0960
  984MOL0     C29781   0.543   2.370   5.259 -0.4768 -0.4013  0.6752
  984MOL0     C29782   0.518   2.421   5.383  0.9081 -1.0221  0.7342
  984MOL0     C29783   0.410   2.509   5.406 -0.1313 -0.0695  0.2273
  984MOL0     C29784   0.324   2.549   5.311 -0.2974  0.1017  0.4930
  984MOL0     C29785   0.215   2.630   5.334  0.6964  0.0443  0.5220
  984MOL0     O29786   0.208   2.703   5.456 -0.1287  0.4181 -0.1615
  984MOL0     C29787   0.119   2.801   5.480  0.0514  0.7764 -0.2393
  984MOL0     C29788   0.155   2.937   5.493  0.0245  0.4700  0.1284
  984MOL0     C29789   0.052   3.026   5.528 -0.0734  0.4386 -0.2405
  984MOL0     C29790  -0.087   2.978   5.555 -0.4462  0.0852 -0.7507
  984MOL0     O29791  -0.190   3.053   5.594  0.2575 -0.2088  0.1577
  984MOL0     C29792  -0.163   3.187   5.629 -0.0391 -0.9471  0.0322
  984MOL0     C29793  -0.298   3.254   5.679  0.3153  0.1251  0.3380
  984MOL0     C29794  -0.300   3.409   5.658 -0.0477  0.3075  0.0390
  984MOL0     C29795  -0.202   3.480   5.752  0.1009  0.8755  0.2280
  984MOL0     C29796  -0.204   3.627   5.730 -0.1394 -0.1445  0.4066
  984MOL0     C29797  -0.153   3.701   5.853  0.0542 -0.2856 -0.1088
  984MOL0     C29798  -0.177   3.853   5.837 -0.1047  0.4861  0.1337
  984MOL0     C29799  -0.171   3.910   5.971 -0.0459 -0.1097 -0.1701
  984MOL0    Cl29800  -0.301   3.851   6.074  0.0192  0.2148 -0.1452
  984MOL0     C29801  -0.120   2.847   5.545 -0.1148 -0.4797  0.1828
  984MOL0     C29802  -0.021   2.763   5.505 -0.1302 -0.3997 -0.5815
  984MOL0     O29803   0.136   2.651   5.237  0.3169  0.0976  0.0187
  984MOL0     C29804   0.341   2.488   5.180  0.2622  0.4357 -0.6716
  984MOL0     C29805   0.442   2.398   5.162  0.2470 -0.7072  0.4065
  984MOL0     N29806   1.245   1.934   5.423 -0.2654 -0.8505 -0.0737
  984MOL0     N29807   1.291   1.909   5.543 -0.6233 -0.1312 -0.1181
  984MOL0     C29808   2.293   2.178   5.668  0.4568 -0.3832 -0.2219
  984MOL0     C29809   2.421   2.135   5.663 -1.0670 -0.4921  0.3334
  984MOL0     C29810   2.811   1.947   5.524 -0.5043  0.3278 -0.2704
  984MOL0     C29811   2.886   1.977   5.405 -0.2917  0.6052  0.4346
  984MOL0     C29812   3.019   1.947   5.398  0.5931 -0.2521  0.9366
  984MOL0     C29813   3.085   1.914   5.515  0.0617  0.0196  0.0058
  984MOL0     O29814   3.224   1.898   5.524 -0.6753  0.0000 -0.4303
  984MOL0     C29815   3.271   1.813   5.417  0.7217  0.6867  0.5562
  984MOL0     C29816   3.367   1.709   5.477  0.4373 -0.5381  0.2214
  984MOL0     C29817   3.484   1.781   5.549  0.0146 -0.1112 -0.0224
  984MOL0     C29818   3.586   1.847   5.454  0.3743 -0.7982 -0.2700
  984MOL0     C29819   3.716   1.840   5.517  0.2557  0.3354  0.1212
  984MOL0     C29820   3.817   1.837   5.584 -0.8543 -0.1241  0.7176
  984MOL0     C29821   3.017   1.888   5.631  0.6129  0.3219 -0.9277
  984MOL0     C29822   2.884   1.911   5.641  0.9172  0.6531  0.0326
  984MOL0     H29823   2.367   1.806   5.630  2.5323  0.6600 -0.6607
  984MOL0     H29824   2.139   1.871   5.643  1.6656 -2.3659 -0.6979
  984MOL0     H29825   1.971   1.986   5.807  1.1425  2.3013  1.3412
  984MOL0     H29826   1.933   1.975   5.630  1.6674  1.3743 -1.9538
  984MOL0     H29827   1.789   2.171   5.655  1.6899 -0.0504 -0.8552
  984MOL0     H29828   1.843   2.195   5.815  1.1033 -0.1627  0.4809
  984MOL0     H29829   1.760   1.975   5.893 -1.3632  2.0247  1.7248
  984MOL0     H29830   1.710   1.937   5.719 -0.7931  0.8054 -0.4670
  984MOL0     H29831   1.548   2.140   5.870 -1.9154  1.1615 -1.3326
  984MOL0     H29832   1.556   2.095   5.708  2.5307 -0.4162 -1.2817
  984MOL0     H29833   1.505   1.867   5.907 -1.0697 -2.6294 -1.6646
  984MOL0     H29834   1.467   1.888   5.745  1.4275  0.5710 -0.3165
  984MOL0     H29835   1.293   2.079   5.791 -1.1910 -0.9216 -0.7661
  984MOL0     H29836   1.337   2.084   5.957  0.9068  0.4280 -0.4900
  984MOL0     H29837   1.226   1.862   5.979 -0.5630  1.2132  0.1738
  984MOL0     H29838   1.121   1.970   5.892 -2.0153 -2.0284 -2.2767
  984MOL0     H29839   1.136   1.736   5.782  0.0952 -1.5057 -1.2691
  984MOL0     H29840   1.300   1.751   5.776 -1.6468 -1.2501 -1.8279
  984MOL0     H29841   0.975   1.894   5.593  0.4235  0.8530  1.5549
  984MOL0     H29842   0.956   1.900   5.291 -0.2369  0.1743  0.5703
  984MOL0     H29843   1.088   2.007   5.240  2.5271 -0.4777  1.2259
  984MOL0     H29844   1.011   2.192   5.362  1.1257 -1.3559  0.7397
  984MOL0     H29845   0.901   2.103   5.469 -1.8908  3.8408 -0.6724
  984MOL0     H29846   0.861   2.164   5.183 -1.8740  0.3339 -0.9291
  984MOL0     H29847   0.770   2.032   5.248 -1.2621  0.9436  0.3825
  984MOL0     H29848   0.773   2.301   5.383  3.9268 -0.2731 -3.7268
  984MOL0     H29849   0.660   2.161   5.399 -1.5771  1.7654  0.9554
  984MOL0     H29850   0.586   2.398   5.464  0.8187  0.5473  1.2983
  984MOL0     H29851   0.404   2.550   5.506 -3.7778 -0.1004  0.1569
  984MOL0     H29852   0.258   2.968   5.479  0.1911 -0.8789 -2.0241
  984MOL0     H29853   0.079   3.130   5.539  1.8436 -0.0210 -0.2697
  984MOL0     H29854  -0.123   3.247   5.546  1.4701 -0.7906  0.8313
  984MOL0     H29855  -0.085   3.196   5.705 -0.1650  2.0607 -0.0787
  984MOL0     H29856  -0.313   3.228   5.784 -1.5441  0.0410  0.0707
  984MOL0     H29857  -0.377   3.216   5.614  1.3381 -1.0786 -0.2639
  984MOL0     H29858  -0.402   3.447   5.665 -0.4505 -0.7401  0.0011
  984MOL0     H29859  -0.272   3.425   5.553  2.8913 -0.7717  0.5662
  984MOL0     H29860  -0.212   3.459   5.859  2.1886 -1.2265  0.0984
  984MOL0     H29861  -0.106   3.441   5.717 -0.3001  0.9001 -0.9303
  984MOL0     H29862  -0.305   3.667   5.724 -0.3362 -0.8299 -1.2963
  984MOL0     H29863  -0.136   3.660   5.651 -0.3190  1.1460  0.7696
  984MOL0     H29864  -0.045   3.683   5.859 -0.0326 -1.9804 -2.5050
  984MOL0     H29865  -0.210   3.671   5.942 -0.9053  1.8954  0.0871
  984MOL0     H29866  -0.111   3.892   5.759  0.6453 -0.6306  0.1819
  984MOL0     H29867  -0.280   3.862   5.800 -0.3442 -2.3140 -0.0825
  984MOL0     H29868  -0.193   4.016   5.952  0.8443  0.2075  0.4746
  984MOL0     H29869  -0.070   3.898   6.012 -0.5235 -0.6090  0.8638
  984MOL0     H29870  -0.221   2.811   5.561  1.5024 -4.1080  4.2567
  984MOL0     H29871  -0.035   2.657   5.490 -3.8290 -0.5120  2.3367
  984MOL0     H29872   0.273   2.519   5.101 -1.2621  0.5047  0.6217
  984MOL0     H29873   0.442   2.362   5.060 -3.6131  1.2785 -0.4738
  984MOL0     H29874   2.265   2.283   5.674  2.0234  0.0140  0.9149
  984MOL0     H29875   2.501   2.208   5.673 -3.2234  1.6841  3.8512
  984MOL0     H29876   2.832   2.000   5.314 -0.6592  1.3298  0.8302
  984MOL0     H29877   3.064   1.943   5.299 -0.2974  1.8874  0.3828
  984MOL0     H29878   3.317   1.876   5.340 -0.4718 -0.6174 -1.3226
  984MOL0     H29879   3.190   1.757   5.370 -0.5827  2.1643  0.9295
  984MOL0     H29880   3.307   1.655   5.550  1.4784 -0.5583  1.0860
  984MOL0     H29881   3.405   1.646   5.396  1.3158  1.8900 -1.3674
  984MOL0     H29882   3.540   1.709   5.609 -0.0688  0.3914  0.6657
  984MOL0     H29883   3.444   1.859   5.614 -1.0335  1.3863 -2.3138
  984MOL0     H29884   3.587   1.808   5.352  1.7434  0.0981 -0.6154
  984MOL0     H29885   3.564   1.954   5.455  0.0833 -0.8395  1.5159
  984MOL0     H29886   3.909   1.836   5.639  0.9208  0.8889 -2.0536
  984MOL0     H29887   3.063   1.847   5.720 -4.7982 -2.4734  0.9560
  984MOL0     H29888   2.838   1.889   5.737 -1.2565 -0.0439 -1.1266
  985MOL0     O29889   3.496   3.236  10.549 -0.0588  0.4322 -0.1101
  985MOL0     C29890   3.506   3.224  10.427 -0.0030 -1.2207 -0.0502
  985MOL0     O29891   3.407   3.169  10.346  0.0491 -0.6298  0.5337
  985MOL0     C29892   3.293   3.131  10.414  0.0974 -0.0364  0.1495
  985MOL0     C29893   3.197   3.215  10.460  0.2332  0.1974  0.1255
  985MOL0     C29894   3.082   3.173  10.519  0.0449  0.1682 -0.7501
  985MOL0     C29895   3.047   3.036  10.521 -0.7559 -0.9913 -0.0086
  985MOL0     O29896   2.941   2.973  10.577 -0.1217  0.8406 -0.5113
  985MOL0     C29897   2.805   3.018  10.538 -0.4189 -0.1255 -0.8461
  985MOL0     C29898   2.733   3.055  10.666  0.8314  0.0381 -0.0987
  985MOL0     C29899   2.591   3.060  10.628  0.6680  0.3023  0.2280
  985MOL0     C29900   2.499   3.048  10.751  0.9509  0.0694  0.2853
  985MOL0     C29901   2.350   3.063  10.715  0.7056  0.8054  0.5343
  985MOL0     C29902   2.315   3.181  10.611  0.0332  0.7141  0.8791
  985MOL0     C29903   2.163   3.204  10.600  0.5531  0.2367 -0.6087
  985MOL0     C29904   2.082   3.078  10.569 -0.3971  0.5256  0.5027
  985MOL0     N29905   1.941   3.093  10.596  0.6572  0.2432 -0.5567
  985MOL0     C29906   1.843   3.053  10.509  1.2159  0.2457 -0.4451
  985MOL0     C29907   1.730   3.067  10.581  0.1190 -0.2705  0.2088
  985MOL0     C29908   1.599   3.042  10.512 -0.6096  0.3974  0.0233
  985MOL0     C29909   1.497   2.941  10.566 -0.2507  0.0259 -0.2415
  985MOL0     C29910   1.485   2.957  10.719  0.0235 -0.3050  0.1264
  985MOL0     C29911   1.364   2.879  10.764  0.5611 -0.3167  0.1325
  985MOL0     O29912   1.249   2.963  10.746 -0.2852  0.9534  0.1321
  985MOL0     C29913   1.148   2.910  10.672 -0.2397 -0.4390  0.6259
  985MOL0     C29914   1.089   2.788  10.700 -0.3088 -0.6055 -0.1922
  985MOL0     C29915   0.976   2.752  10.630  0.6139 -0.1063 -0.4322
  985MOL0     C29916   0.926   2.833  10.520  1.0375  0.0091 -0.4526
  985MOL0     C29917   0.799   2.792  10.450 -1.0030 -0.6271 -0.6898
  985MOL0     O29918   0.716   2.716  10.518 -0.4441  0.3886  0.5309
  985MOL0     C29919   0.587   2.677  10.482 -0.2478  0.1975  0.8374
  985MOL0     C29920   0.515   2.608  10.585 -0.4136  0.2337  0.5283
  985MOL0     C29921   0.376   2.568  10.560 -0.5828 -0.1978 -0.6170
  985MOL0     C29922   0.320   2.583  10.435 -0.3330 -0.4251  0.8712
  985MOL0     O29923   0.194   2.552  10.395 -0.0563 -0.3213  0.9430
  985MOL0     C29924   0.098   2.602  10.489  0.1934 -0.1713 -0.2319
  985MOL0     C29925  -0.034   2.616  10.407  0.4553 -0.8610  0.4440
  985MOL0     C29926  -0.029   2.744  10.317 -0.7510  0.3382 -0.0634
  985MOL0     C29927  -0.158   2.815  10.304 -0.0031 -0.9242 -0.5332
  985MOL0     C29928  -0.152   2.924  10.189 -0.0234 -0.0711 -0.5200
  985MOL0     C29929  -0.293   2.978  10.170 -0.6013  0.6418 -0.2446
  985MOL0     C29930  -0.325   3.071  10.283  0.6891  0.3032  0.9127
  985MOL0     C29931  -0.462   3.034  10.345 -0.0826  0.0270 -0.5198
  985MOL0    Cl29932  -0.599   3.000  10.240 -0.2722  0.8085  0.0339
  985MOL0     C29933   0.400   2.634  10.332 -0.1354  0.3731 -0.0671
  985MOL0     C29934   0.528   2.681  10.357 -0.3286  0.2548 -0.0256
  985MOL0     O29935   0.775   2.868  10.361 -0.7219 -0.3276 -0.4208
  985MOL0     C29936   0.995   2.949  10.492  0.4609  0.5308  0.2727
  985MOL0     C29937   1.102   2.987  10.560  0.5344  0.2469  0.6342
  985MOL0     N29938   1.768   3.111  10.710 -0.4645  0.8690  0.0076
  985MOL0     N29939   1.897   3.131  10.720  0.3939 -0.2359 -0.5442
  985MOL0     C29940   3.145   2.948  10.480 -0.6542  1.3494  0.0202
  985MOL0     C29941   3.267   2.992  10.434  1.0131 -1.0248  0.2117
  985MOL0     C29942   3.634   3.271  10.364  0.1927 -0.2652  0.0114
  985MOL0     C29943   3.656   3.242  10.227 -0.0961  0.1255 -0.4955
  985MOL0     C29944   3.759   3.293  10.154  0.3056  1.1478  0.0223
  985MOL0     C29945   3.851   3.379  10.216  0.0828  0.0987  0.6472
  985MOL0     O29946   3.954   3.436  10.149 -0.0008 -0.5056  0.1433
  985MOL0     C29947   3.940   3.458  10.008 -0.0979 -0.4077  0.1133
  985MOL0     C29948   3.841   3.587   9.990 -0.0742  0.4145 -0.7090
  985MOL0     C29949   3.802   3.601   9.846 -0.1198  0.1586  0.0757
  985MOL0     C29950   3.916   3.620   9.740  0.5635  0.6096 -0.5015
  985MOL0     C29951   3.852   3.610   9.605  0.0522 -0.5723 -1.2239
  985MOL0     C29952   3.804   3.610   9.497  0.5133  0.4528  0.5969
  985MOL0     C29953   3.840   3.405  10.351 -0.2530  1.3420  0.1434
  985MOL0     C29954   3.731   3.356  10.430  0.2967  0.1921  0.7871
  985MOL0     H29955   3.219   3.318  10.432  2.1073 -0.4000 -0.7924
  985MOL0     H29956   3.008   3.248  10.545 -1.6437 -1.3518 -0.9294
  985MOL0     H29957   2.762   2.930  10.489  0.7075 -1.3883  0.3601
  985MOL0     H29958   2.798   3.107  10.474  0.1522  2.7383  2.7852
  985MOL0     H29959   2.755   3.156  10.702  2.7575 -0.2371 -0.4025
  985MOL0     H29960   2.746   2.980  10.743 -2.3996 -2.0537 -1.3804
  985MOL0     H29961   2.567   2.979  10.558  2.2187  0.4416 -0.5107
  985MOL0     H29962   2.582   3.151  10.568 -1.9343  0.0613  0.1562
  985MOL0     H29963   2.512   2.950  10.797 -3.9710 -1.2276 -0.4603
  985MOL0     H29964   2.517   3.132  10.819  2.2170  1.0112 -1.1374
  985MOL0     H29965   2.304   3.075  10.813 -0.2735 -1.1579  0.3511
  985MOL0     H29966   2.306   2.970  10.678 -1.3080  1.0254  2.1984
  985MOL0     H29967   2.342   3.152  10.509 -0.6964  0.1547  0.8392
  985MOL0     H29968   2.373   3.271  10.634  3.9397 -1.4646  0.4960
  985MOL0     H29969   2.127   3.241  10.697  0.4393 -4.5589  1.4583
  985MOL0     H29970   2.146   3.281  10.524 -1.4820 -0.4885 -0.9455
  985MOL0     H29971   2.110   3.002  10.642 -2.1405 -0.2339  0.4226
  985MOL0     H29972   2.104   3.051  10.465  0.7033 -1.0619  1.1089
  985MOL0     H29973   1.857   3.028  10.404 -1.4220  1.7955 -1.2505
  985MOL0     H29974   1.635   3.008  10.414  2.7770  1.3516  0.8069
  985MOL0     H29975   1.546   3.136  10.494 -0.2010  0.0699 -3.5612
  985MOL0     H29976   1.521   2.842  10.525  2.7570  0.7257 -0.4057
  985MOL0     H29977   1.406   2.979  10.520 -0.5285  0.8131  0.9051
  985MOL0     H29978   1.578   2.916  10.762  0.8025 -0.9287 -2.0310
  985MOL0     H29979   1.469   3.063  10.738 -1.3787 -0.7498  1.7131
  985MOL0     H29980   1.372   2.853  10.870 -0.9796  2.2484  0.9702
  985MOL0     H29981   1.358   2.784  10.709 -0.9634 -1.5606  2.2774
  985MOL0     H29982   1.134   2.721  10.773  0.8438  1.9457  1.6156
  985MOL0     H29983   0.930   2.655  10.647  2.4994 -0.8418  0.8821
  985MOL0     H29984   0.561   2.600  10.683 -1.4657 -1.3673  0.9182
  985MOL0     H29985   0.323   2.525  10.645 -2.2234 -1.3904 -2.1839
  985MOL0     H29986   0.127   2.696  10.537  4.0763 -0.7620 -1.0833
  985MOL0     H29987   0.100   2.517  10.559 -0.0892 -0.7997 -0.9681
  985MOL0     H29988  -0.120   2.634  10.471  0.4392  1.0867 -0.0675
  985MOL0     H29989  -0.043   2.522  10.351  0.9649 -0.3824 -0.4687
  985MOL0     H29990   0.005   2.717  10.216 -1.6739 -0.5899 -0.1379
  985MOL0     H29991   0.052   2.809  10.351  0.0180 -1.1125  0.9528
  985MOL0     H29992  -0.225   2.732  10.281  0.0911 -1.5524  1.2541
  985MOL0     H29993  -0.186   2.855  10.402  1.9344  1.1597 -0.7338
  985MOL0     H29994  -0.124   2.890  10.089 -3.0920  0.4215 -1.6718
  985MOL0     H29995  -0.080   3.001  10.217  1.4388 -1.6385  0.1932
  985MOL0     H29996  -0.362   2.894  10.167 -1.1264  1.0705 -0.1965
  985MOL0     H29997  -0.306   3.020  10.070 -0.0547  0.5902 -0.3449
  985MOL0     H29998  -0.248   3.064  10.361 -0.3630  1.2850  2.0701
  985MOL0     H29999  -0.343   3.173  10.250 -1.7253  0.2767  1.9591
  985MOL0     H30000  -0.498   3.115  10.409  2.2122  0.8355 -0.1364
  985MOL0     H30001  -0.441   2.948  10.409 -0.5780  0.7127  0.5924
  985MOL0     H30002   0.366   2.655  10.232 -0.8722  1.3059  0.3700
  985MOL0     H30003   0.581   2.725  10.273  2.4498 -2.5212  0.1279
  985MOL0     H30004   0.950   3.012  10.416 -0.9362  2.1026  2.2897
  985MOL0     H30005   1.148   3.079  10.529 -0.4608  0.3965 -0.4661
  985MOL0     H30006   3.125   2.841  10.483  1.3699  0.9416  1.6672
  985MOL0     H30007   3.354   2.930  10.416  3.0060  0.8184  2.6869
  985MOL0     H30008   3.589   3.169  10.181  0.9895 -1.2447  0.0245
  985MOL0     H30009   3.762   3.264  10.049  1.8561 -0.3600  0.4305
  985MOL0     H30010   3.907   3.368   9.955  2.5278 -0.1666 -2.1506
  985MOL0     H30011   4.042   3.470   9.972  0.4142 -1.0859  1.2431
  985MOL0     H30012   3.752   3.581  10.053 -0.2164 -1.4944 -1.0453
  985MOL0     H30013   3.891   3.681  10.017 -1.0656  0.8227 -0.1954
  985MOL0     H30014   3.727   3.679   9.832  0.0051 -0.0227 -2.0050
  985MOL0     H30015   3.758   3.508   9.808  2.1071 -1.4977  1.3171
  985MOL0     H30016   3.951   3.722   9.762  0.0631  0.5692  0.4909
  985MOL0     H30017   4.001   3.553   9.754 -0.3877 -0.3741  0.7166
  985MOL0     H30018   3.762   3.615   9.399  0.1296 -2.6107  0.4855
  985MOL0     H30019   3.922   3.463  10.392  2.8472 -1.6305 -1.3489
  985MOL0     H30020   3.724   3.391  10.533  1.3685  1.3524  0.4854
  986MOL0     O30021   0.610   0.035   4.046 -0.0355 -0.3990 -0.0598
  986MOL0     C30022   0.671  -0.009   3.945 -0.6754  0.3814 -0.7105
  986MOL0     O30023   0.617  -0.030   3.820  0.0719 -0.7201 -0.4587
  986MOL0     C30024   0.476  -0.026   3.808 -0.4049  0.1888  0.6492
  986MOL0     C30025   0.404   0.087   3.796 -0.2110  0.0909 -0.7588
  986MOL0     C30026   0.260   0.084   3.777 -0.2211 -0.1622 -0.0162
  986MOL0     C30027   0.200  -0.046   3.759 -0.4848 -0.3467 -0.5698
  986MOL0     O30028   0.072  -0.072   3.723 -0.1962 -0.5134  0.9631
  986MOL0     C30029  -0.018  -0.029   3.822 -0.0895  0.3856  0.5396
  986MOL0     C30030  -0.164  -0.021   3.766 -0.2882  0.4100 -0.2591
  986MOL0     C30031  -0.276  -0.010   3.869  0.8892 -0.1143 -0.6056
  986MOL0     C30032  -0.407  -0.019   3.800 -0.0940 -0.0118 -0.7654
  986MOL0     C30033  -0.520  -0.036   3.915 -0.3845 -0.7375  0.2493
  986MOL0     C30034  -0.657  -0.030   3.842  0.8185 -0.1976 -0.4718
  986MOL0     C30035  -0.775  -0.022   3.939  1.0402  0.2546  0.0004
  986MOL0     C30036  -0.821  -0.156   3.989  0.5826  0.5816 -1.2151
  986MOL0     N30037  -0.936  -0.146   4.080 -0.3873 -0.2122 -0.2914
  986MOL0     C30038  -1.067  -0.124   4.039 -0.0188 -0.4977 -0.0163
  986MOL0     C30039  -1.129  -0.101   4.162 -0.3508  0.0587 -0.0596
  986MOL0     C30040  -1.276  -0.068   4.189  0.2746 -0.0025 -0.3482
  986MOL0     C30041  -1.369  -0.178   4.240  0.0079 -0.4434  0.5807
  986MOL0     C30042  -1.350  -0.312   4.163 -0.2905 -0.3728 -0.4568
  986MOL0     C30043  -1.464  -0.408   4.202  0.3221 -0.0428 -0.1167
  986MOL0     O30044  -1.438  -0.538   4.142  0.8517 -0.1480  0.7185
  986MOL0     C30045  -1.555  -0.602   4.111 -0.9649  0.2402  0.4359
  986MOL0     C30046  -1.531  -0.700   4.016 -0.4812 -0.1965 -0.4015
  986MOL0     C30047  -1.630  -0.788   3.978 -1.1649 -0.5132  0.2450
  986MOL0     C30048  -1.762  -0.774   4.030 -0.0026 -0.8018  0.6013
  986MOL0     C30049  -1.871  -0.864   3.986 -0.4904 -0.7184 -0.0652
  986MOL0     O30050  -1.997  -0.840   4.034  0.8956  0.1345  0.2674
  986MOL0     C30051  -2.106  -0.917   4.004  0.5211 -0.3256 -0.8858
  986MOL0     C30052  -2.229  -0.863   4.046  0.5009 -0.0575  0.3871
  986MOL0     C30053  -2.351  -0.929   4.022 -0.7647 -0.2945 -0.2902
  986MOL0     C30054  -2.355  -1.054   3.957 -0.2168 -0.7105 -0.5334
  986MOL0     O30055  -2.479  -1.108   3.922  0.2858  0.1794  0.3893
  986MOL0     C30056  -2.500  -1.248   3.933  0.8833  1.0977 -0.3360
  986MOL0     C30057  -2.511  -1.272   4.078  0.8750 -0.3280  0.0575
  986MOL0     C30058  -2.599  -1.382   4.122 -0.7305  0.6245  0.3500
  986MOL0     C30059  -2.748  -1.355   4.118  0.2279  0.0069 -0.0863
  986MOL0     C30060  -2.822  -1.400   4.241  1.3065 -0.0934  0.5604
  986MOL0     C30061  -2.973  -1.347   4.241  0.1635 -0.6854  0.5221
  986MOL0     C30062  -3.065  -1.395   4.352 -0.1287  0.2107 -0.0501
  986MOL0     C30063  -3.163  -1.280   4.392 -0.6054  0.7927 -0.4893
  986MOL0    Cl30064  -3.291  -1.285   4.259  0.3961  0.2100 -0.7005
  986MOL0     C30065  -2.236  -1.110   3.924 -0.0527 -0.6616 -0.6613
  986MOL0     C30066  -2.111  -1.038   3.940  0.2837  0.5528  0.0566
  986MOL0     O30067  -1.834  -0.953   3.897  0.3798 -0.0834 -0.1998
  986MOL0     C30068  -1.790  -0.672   4.122 -0.6823 -0.0797 -0.5448
  986MOL0     C30069  -1.687  -0.584   4.168 -0.3208  0.5254  0.5186
  986MOL0     N30070  -1.040  -0.117   4.270 -0.1111  0.9728 -0.4874
  986MOL0     N30071  -0.928  -0.139   4.214 -0.3143  0.1043 -0.3905
  986MOL0     C30072   0.278  -0.154   3.771 -0.3814  1.4841 -0.2834
  986MOL0     C30073   0.414  -0.151   3.801 -0.1998 -0.7108  0.4885
  986MOL0     C30074   0.812  -0.045   3.973  0.7012 -0.7067  0.7947
  986MOL0     C30075   0.886  -0.108   3.870  0.4642 -0.9581  0.0365
  986MOL0     C30076   1.021  -0.125   3.875 -0.0352 -0.6997 -0.8948
  986MOL0     C30077   1.090  -0.092   3.995 -0.3626  0.7800 -0.1625
  986MOL0     O30078   1.224  -0.091   4.019  0.1221  0.6145  0.6031
  986MOL0     C30079   1.313  -0.141   3.913  1.2446  0.4098 -0.7743
  986MOL0     C30080   1.282  -0.298   3.894  0.5563  0.4350 -0.0811
  986MOL0     C30081   1.351  -0.346   3.764  0.4752 -0.0983  0.6549
  986MOL0     C30082   1.508  -0.318   3.760  0.8687  0.0166  0.4938
  986MOL0     C30083   1.558  -0.406   3.651  0.2595 -0.0186  0.0688
  986MOL0     C30084   1.594  -0.456   3.542 -0.5853  0.3288 -1.7281
  986MOL0     C30085   1.014  -0.042   4.096  0.9829 -0.5389 -0.5861
  986MOL0     C30086   0.872  -0.019   4.099 -0.8994 -0.0280 -0.0825
  986MOL0     H30087   0.447   0.185   3.813  2.5918 -0.7971 -2.0166
  986MOL0     H30088   0.208   0.177   3.756  1.3197  0.8364  0.4204
  986MOL0     H30089   0.021   0.067   3.858  0.8169 -0.3969  1.7307
  986MOL0     H30090  -0.017  -0.107   3.900  0.0298 -1.1249 -0.9231
  986MOL0     H30091  -0.172  -0.122   3.726  0.2607 -0.1219  0.9112
  986MOL0     H30092  -0.178   0.050   3.684 -3.6652 -0.5579 -0.6868
  986MOL0     H30093  -0.269   0.082   3.927 -0.4146 -0.7179  0.5604
  986MOL0     H30094  -0.260  -0.093   3.939  0.5572 -0.5214 -1.0037
  986MOL0     H30095  -0.428   0.065   3.734  0.5600  1.7960  1.1984
  986MOL0     H30096  -0.412  -0.104   3.733 -1.1900 -1.8862  1.5299
  986MOL0     H30097  -0.511   0.034   3.999  1.6688  1.0909 -1.3969
  986MOL0     H30098  -0.510  -0.133   3.964  1.5581 -1.5989 -1.7040
  986MOL0     H30099  -0.664  -0.111   3.769 -2.6472 -1.9249  1.4803
  986MOL0     H30100  -0.657   0.054   3.773  0.7453 -0.3570 -0.6657
  986MOL0     H30101  -0.752   0.034   4.030 -2.8716  0.7285  0.8918
  986MOL0     H30102  -0.862   0.028   3.895 -0.7156 -0.8874  1.9818
  986MOL0     H30103  -0.737  -0.216   4.028  1.0302  1.2573 -1.1254
  986MOL0     H30104  -0.859  -0.228   3.915 -0.8694 -2.5836  2.2661
  986MOL0     H30105  -1.120  -0.120   3.944 -1.4891  0.5914  0.8046
  986MOL0     H30106  -1.310  -0.017   4.098  0.0319  2.9196  1.2749
  986MOL0     H30107  -1.276   0.009   4.267 -1.0526 -1.3433  1.0323
  986MOL0     H30108  -1.470  -0.143   4.218  0.0105 -1.9194 -2.2031
  986MOL0     H30109  -1.350  -0.185   4.347 -1.3009  2.8286  1.1368
  986MOL0     H30110  -1.351  -0.301   4.055 -1.8339 -0.5587 -0.4741
  986MOL0     H30111  -1.259  -0.364   4.194 -0.1846 -0.9360 -1.6526
  986MOL0     H30112  -1.561  -0.360   4.186  0.6811  1.5110  1.9246
  986MOL0     H30113  -1.456  -0.428   4.309 -0.9451 -0.5580 -0.0978
  986MOL0     H30114  -1.435  -0.716   3.969 -0.3456 -0.0908 -0.1600
  986MOL0     H30115  -1.614  -0.864   3.903  1.0978 -0.1539  0.3068
  986MOL0     H30116  -2.225  -0.767   4.095 -0.1479 -1.0516  2.5404
  986MOL0     H30117  -2.443  -0.880   4.053  0.1735  0.5225  1.3186
  986MOL0     H30118  -2.416  -1.298   3.884  1.0612  1.0665 -0.0005
  986MOL0     H30119  -2.595  -1.274   3.885  1.0635 -1.0128  0.3473
  986MOL0     H30120  -2.550  -1.185   4.131 -0.0870  1.2447 -2.9823
  986MOL0     H30121  -2.412  -1.296   4.117  0.7881 -2.0921 -0.7060
  986MOL0     H30122  -2.569  -1.393   4.227  2.2866 -2.1756 -0.6671
  986MOL0     H30123  -2.575  -1.473   4.067  1.7142  0.9071  0.8636
  986MOL0     H30124  -2.768  -1.248   4.104  0.7122 -0.0479 -1.2415
  986MOL0     H30125  -2.792  -1.404   4.031 -0.3466 -2.7673  1.6150
  986MOL0     H30126  -2.777  -1.367   4.335 -0.9378  1.7276  1.0919
  986MOL0     H30127  -2.813  -1.509   4.233 -2.9040 -0.6166  0.4072
  986MOL0     H30128  -3.023  -1.384   4.151 -2.6888 -1.6318  2.3765
  986MOL0     H30129  -2.978  -1.238   4.240 -3.1665 -0.7030  2.0931
  986MOL0     H30130  -3.116  -1.485   4.319  1.1366 -1.0658  1.3067
  986MOL0     H30131  -3.000  -1.419   4.437  1.6605 -1.6412 -1.8351
  986MOL0     H30132  -3.111  -1.184   4.402  1.1326 -0.2648  1.0722
  986MOL0     H30133  -3.214  -1.296   4.488 -1.0194 -3.6410 -1.2597
  986MOL0     H30134  -2.224  -1.213   3.891  1.8109  0.3946 -3.7646
  986MOL0     H30135  -2.020  -1.086   3.905  1.0325 -0.0340  2.5891
  986MOL0     H30136  -1.892  -0.665   4.160 -0.9063  0.0574 -1.1430
  986MOL0     H30137  -1.714  -0.499   4.230 -2.1217  0.1220  0.3313
  986MOL0     H30138   0.234  -0.253   3.765  1.3672  0.3421  3.1086
  986MOL0     H30139   0.482  -0.236   3.794 -0.9725 -1.2165 -1.9436
  986MOL0     H30140   0.843  -0.149   3.779  0.9867 -0.0086 -0.6663
  986MOL0     H30141   1.068  -0.178   3.792  0.9970 -0.0447 -0.7502
  986MOL0     H30142   1.416  -0.132   3.949  1.2583 -0.7105 -0.5021
  986MOL0     H30143   1.286  -0.092   3.820 -1.0820 -1.4093 -1.1428
  986MOL0     H30144   1.323  -0.355   3.978  1.3040 -2.2580 -2.1068
  986MOL0     H30145   1.175  -0.320   3.893  0.1111  2.2995  1.5265
  986MOL0     H30146   1.306  -0.296   3.678  1.1961  0.3837  0.5487
  986MOL0     H30147   1.331  -0.453   3.754 -1.4325  0.3057 -0.3229
  986MOL0     H30148   1.531  -0.212   3.744 -2.2497  0.6755 -0.4269
  986MOL0     H30149   1.555  -0.353   3.852 -0.6769 -2.0208  0.5850
  986MOL0     H30150   1.626  -0.512   3.457  0.7930 -1.2426 -0.2587
  986MOL0     H30151   1.056  -0.012   4.192 -0.9861 -2.2040  0.8861
  986MOL0     H30152   0.840   0.043   4.182  0.9917  0.7450  0.1266
  987MOL0     O30153   4.903   6.783   6.863  0.2490 -0.0570  0.4198
  987MOL0     C30154   4.884   6.893   6.807  0.1202 -0.4324  0.9704
  987MOL0     O30155   4.897   7.019   6.867 -0.0382 -0.3014 -0.1081
  987MOL0     C30156   4.946   7.022   6.986  0.4504  0.9507 -0.2326
  987MOL0     C30157   4.872   6.999   7.107 -0.3405 -0.5398  0.0455
  987MOL0     C30158   4.938   6.996   7.227 -0.0733  0.4811  0.1148
  987MOL0     C30159   5.080   7.011   7.240 -0.3189  0.7286 -0.7007
  987MOL0     O30160   5.138   7.011   7.365 -0.1440 -0.1496 -0.1100
  987MOL0     C30161   5.172   7.144   7.405  0.5170 -0.1974 -0.3934
  987MOL0     C30162   5.071   7.225   7.467 -0.3549  0.1707  0.5736
  987MOL0     C30163   5.033   7.193   7.616  0.4298  0.0178 -0.1441
  987MOL0     C30164   5.008   7.045   7.644 -0.4361  0.4485 -0.6138
  987MOL0     C30165   4.986   7.018   7.790 -0.3582  0.0596 -0.0282
  987MOL0     C30166   4.945   6.874   7.816 -0.9443  0.3036 -0.1175
  987MOL0     C30167   4.801   6.853   7.762 -0.5087  0.7053 -0.9478
  987MOL0     C30168   4.743   6.712   7.795 -0.0522 -0.5029  0.7069
  987MOL0     N30169   4.626   6.667   7.715 -0.2032  0.0755 -0.3003
  987MOL0     C30170   4.502   6.637   7.761 -0.0995  0.0543 -0.9105
  987MOL0     C30171   4.421   6.640   7.649 -0.9032 -0.1019 -0.0949
  987MOL0     C30172   4.279   6.618   7.663 -0.3695  0.5825  0.6230
  987MOL0     C30173   4.186   6.739   7.632 -0.3776 -0.4021  0.6337
  987MOL0     C30174   4.081   6.721   7.518 -0.7620 -0.0537 -0.8101
  987MOL0     C30175   3.997   6.856   7.518  0.0981 -0.2612 -0.0726
  987MOL0     O30176   3.906   6.854   7.632  0.0664 -0.2202 -0.1481
  987MOL0     C30177   3.797   6.940   7.646 -0.5209  0.4925  0.0428
  987MOL0     C30178   3.725   6.927   7.767 -0.2104 -0.7229 -0.0305
  987MOL0     C30179   3.620   7.011   7.793 -0.1196  0.8584 -0.2265
  987MOL0     C30180   3.590   7.117   7.717  0.1326 -0.3495  0.7305
  987MOL0     C30181   3.482   7.211   7.756 -0.4649 -0.1354  0.5922
  987MOL0     O30182   3.399   7.172   7.853 -0.0861  0.4051 -0.2461
  987MOL0     C30183   3.299   7.245   7.896 -0.1257  0.9325 -0.4538
  987MOL0     C30184   3.251   7.367   7.855 -0.3760  0.7877  0.7361
  987MOL0     C30185   3.135   7.422   7.907 -0.0870 -0.6869 -0.4013
  987MOL0     C30186   3.051   7.346   7.985  0.0172  0.1568 -0.2215
  987MOL0     O30187   2.929   7.411   8.007 -0.4544 -1.3980 -0.4259
  987MOL0     C30188   2.835   7.316   8.056 -0.2413 -0.6625 -0.0659
  987MOL0     C30189   2.696   7.379   8.071  0.6800 -0.4028  0.2311
  987MOL0     C30190   2.597   7.261   8.102 -0.9697  0.3348 -0.3751
  987MOL0     C30191   2.451   7.294   8.132  0.2184  0.5362  0.0844
  987MOL0     C30192   2.380   7.388   8.023 -0.2743  0.3240  0.0752
  987MOL0     C30193   2.244   7.435   8.065  0.4297 -0.0255  0.7109
  987MOL0     C30194   2.239   7.531   8.184  0.2621  0.5396 -0.3532
  987MOL0     C30195   2.091   7.591   8.213 -0.3947  0.6843  0.3264
  987MOL0    Cl30196   2.082   7.670   8.374  0.1007 -0.5642  0.1530
  987MOL0     C30197   3.096   7.220   8.038  0.9394 -0.0160 -0.5667
  987MOL0     C30198   3.224   7.176   7.997  0.6569 -0.3598  0.1378
  987MOL0     O30199   3.473   7.312   7.689  0.6198 -0.9054  0.2102
  987MOL0     C30200   3.666   7.139   7.593  0.7091  0.8727  0.6180
  987MOL0     C30201   3.767   7.049   7.558  0.2631 -0.1936  0.6421
  987MOL0     N30202   4.495   6.665   7.537 -0.3802  0.1007 -0.0870
  987MOL0     N30203   4.619   6.685   7.578 -0.6144 -0.4380 -0.5903
  987MOL0     C30204   5.149   7.031   7.121  0.2884  1.1365  0.6637
  987MOL0     C30205   5.083   7.038   7.000 -0.1055 -0.7395 -0.5677
  987MOL0     C30206   4.822   6.893   6.670  0.3293  0.2657 -0.2172
  987MOL0     C30207   4.823   6.776   6.594  0.1523  0.3890  0.0464
  987MOL0     C30208   4.766   6.780   6.463  0.0627 -0.1740  0.3332
  987MOL0     C30209   4.710   6.902   6.413  0.1299 -0.9488  0.1533
  987MOL0     O30210   4.651   6.904   6.293  0.4807 -0.3688  0.2524
  987MOL0     C30211   4.671   6.809   6.187 -0.4147  0.1973 -0.0992
  987MOL0     C30212   4.585   6.851   6.071  0.5245  0.2734  0.6159
  987MOL0     C30213   4.586   6.757   5.945 -0.0721  0.0524  0.0363
  987MOL0     C30214   4.565   6.838   5.812  0.6888  0.1440  0.6680
  987MOL0     C30215   4.562   6.734   5.709 -0.2689 -0.0158 -0.2974
  987MOL0     C30216   4.559   6.653   5.620 -0.3254 -0.3413  1.0552
  987MOL0     C30217   4.715   7.018   6.490  0.1260 -0.1804 -0.5692
  987MOL0     C30218   4.766   7.012   6.625  0.0672 -0.0570 -0.0474
  987MOL0     H30219   4.765   6.982   7.108 -0.4081 -0.1430 -0.2146
  987MOL0     H30220   4.883   6.973   7.317 -2.1238  2.9825 -0.3657
  987MOL0     H30221   5.216   7.192   7.316 -0.3797 -0.4545 -0.9921
  987MOL0     H30222   5.250   7.130   7.480  0.9224  1.4342 -0.4792
  987MOL0     H30223   4.978   7.216   7.410 -0.4386  4.0599 -0.1786
  987MOL0     H30224   5.089   7.333   7.470 -0.5734  0.3437  5.9698
  987MOL0     H30225   4.944   7.251   7.643 -0.2198 -1.0387  0.0614
  987MOL0     H30226   5.109   7.231   7.685  2.1490 -0.8807 -1.4677
  987MOL0     H30227   4.918   7.013   7.590  0.4973 -2.0461 -0.8127
  987MOL0     H30228   5.079   6.980   7.592 -3.0366  0.0064 -3.9715
  987MOL0     H30229   4.912   7.085   7.835 -3.0109 -0.7906 -2.7697
  987MOL0     H30230   5.086   7.025   7.833  0.3228 -2.3107 -1.0448
  987MOL0     H30231   4.940   6.840   7.920  0.9742 -1.6389 -0.5870
  987MOL0     H30232   5.008   6.811   7.752 -0.5518  1.5448 -0.9952
  987MOL0     H30233   4.730   6.920   7.812 -1.6462 -0.5451 -0.8262
  987MOL0     H30234   4.798   6.856   7.652  0.4796 -1.1784 -1.0733
  987MOL0     H30235   4.716   6.700   7.900 -0.1262 -0.7298  0.6617
  987MOL0     H30236   4.829   6.646   7.777  0.9680  1.3984 -2.1800
  987MOL0     H30237   4.468   6.613   7.861 -1.2030  1.0110 -1.0322
  987MOL0     H30238   4.268   6.589   7.768 -0.5926 -1.0140  0.1813
  987MOL0     H30239   4.249   6.538   7.595  1.6225 -0.0091  0.3625
  987MOL0     H30240   4.256   6.823   7.625 -1.1478  0.5231  2.8135
  987MOL0     H30241   4.125   6.737   7.723  1.6626 -0.2114  2.0690
  987MOL0     H30242   4.137   6.713   7.425  1.9521 -2.2891  0.8343
  987MOL0     H30243   4.023   6.628   7.523  0.9224 -1.1108  0.6956
  987MOL0     H30244   3.946   6.869   7.422  4.2311 -0.2713 -2.5608
  987MOL0     H30245   4.063   6.943   7.529  1.2462 -0.5477 -3.4498
  987MOL0     H30246   3.752   6.839   7.825  0.8267 -0.1512  0.3786
  987MOL0     H30247   3.556   6.990   7.879 -1.0272  2.3431 -0.5040
  987MOL0     H30248   3.298   7.428   7.779 -0.8173  2.7224  1.9597
  987MOL0     H30249   3.092   7.514   7.870 -2.1405 -1.5632 -0.3163
  987MOL0     H30250   2.856   7.262   8.149 -0.3406  0.3282  0.5382
  987MOL0     H30251   2.833   7.233   7.984  0.3199  0.0791 -0.9608
  987MOL0     H30252   2.658   7.433   7.984 -1.3236  0.0518  1.3383
  987MOL0     H30253   2.696   7.451   8.153  2.8869  2.0473 -1.7465
  987MOL0     H30254   2.623   7.207   8.194 -1.8619  1.7992  0.7907
  987MOL0     H30255   2.597   7.188   8.020  0.4685 -1.5087  1.1586
  987MOL0     H30256   2.395   7.201   8.144  0.2929  0.5782  0.8117
  987MOL0     H30257   2.450   7.342   8.230 -1.4457 -1.3922  1.0839
  987MOL0     H30258   2.378   7.336   7.927  2.1471 -0.4119  0.3439
  987MOL0     H30259   2.446   7.475   8.008 -1.3739  1.1193 -0.2498
  987MOL0     H30260   2.185   7.348   8.093  3.2182 -1.3299  3.1367
  987MOL0     H30261   2.193   7.485   7.982 -1.3688 -5.8439 -2.2232
  987MOL0     H30262   2.279   7.470   8.266  0.1131 -1.8746 -1.9828
  987MOL0     H30263   2.308   7.615   8.172 -2.6433  3.2540  0.5019
  987MOL0     H30264   2.023   7.505   8.213  0.9744 -0.5611 -3.1433
  987MOL0     H30265   2.064   7.661   8.135 -0.0973 -0.1680 -0.5634
  987MOL0     H30266   3.033   7.158   8.102  0.3745  2.8332  1.8709
  987MOL0     H30267   3.254   7.081   8.039  1.5173  0.4239  1.3651
  987MOL0     H30268   3.648   7.214   7.516  3.0147 -1.0560 -2.0503
  987MOL0     H30269   3.812   7.062   7.460 -3.5917  2.8021 -1.0027
  987MOL0     H30270   5.255   7.052   7.123  0.2975  1.3926 -0.9886
  987MOL0     H30271   5.138   7.066   6.911  0.5223 -0.5543 -0.1251
  987MOL0     H30272   4.845   6.681   6.642  0.6252  0.0471 -0.8257
  987MOL0     H30273   4.736   6.687   6.414  0.3551  0.4489 -1.0895
  987MOL0     H30274   4.645   6.707   6.218  0.9518  0.4357  2.1003
  987MOL0     H30275   4.778   6.810   6.164 -0.1091  0.1319  1.2217
  987MOL0     H30276   4.485   6.885   6.099 -0.1993 -1.5872  0.4299
  987MOL0     H30277   4.630   6.945   6.038  0.3252  0.4791  0.9339
  987MOL0     H30278   4.503   6.687   5.954 -1.6110  1.7639 -0.2036
  987MOL0     H30279   4.686   6.712   5.940  0.2965  0.9422 -1.1197
  987MOL0     H30280   4.463   6.878   5.806 -0.8573 -3.5336 -1.1049
  987MOL0     H30281   4.639   6.911   5.778  0.1922  0.4516  0.2356
  987MOL0     H30282   4.540   6.583   5.541 -0.8593 -1.3458  2.0448
  987MOL0     H30283   4.677   7.116   6.463 -0.7234 -0.0912  0.8064
  987MOL0     H30284   4.763   7.099   6.690 -0.8428  1.8241 -2.4443
  988MOL0     O30285   3.913   8.897   1.111 -0.4222  0.6067 -0.2107
  988MOL0     C30286   3.937   8.774   1.124  1.1218  0.7318 -0.2233
  988MOL0     O30287   3.829   8.686   1.116 -0.3772  0.2501  0.1027
  988MOL0     C30288   3.705   8.747   1.096  0.5418 -1.1380 -0.0734
  988MOL0     C30289   3.652   8.745   0.967  0.1524  1.4085  0.2607
  988MOL0     C30290   3.517   8.786   0.938 -0.3969 -0.5176 -0.0514
  988MOL0     C30291   3.444   8.831   1.043  0.5567 -1.1436 -0.0114
  988MOL0     O30292   3.312   8.863   1.017 -0.0525  1.1914  0.7879
  988MOL0     C30293   3.213   8.786   1.089 -0.6618 -1.0496  0.2481
  988MOL0     C30294   3.074   8.812   1.025 -0.2937  0.1629  0.2434
  988MOL0     C30295   3.033   8.957   1.058 -1.5033  0.3945  0.1576
  988MOL0     C30296   2.898   8.997   0.995  0.5229 -0.7554  0.3124
  988MOL0     C30297   2.842   9.126   1.046 -0.0160 -0.0232  1.2003
  988MOL0     C30298   2.793   9.130   1.189 -0.2878 -0.1101 -0.3009
  988MOL0     C30299   2.700   9.016   1.223 -0.8006 -0.3339  0.6572
  988MOL0     C30300   2.649   9.023   1.364 -0.4217  0.1376 -0.9017
  988MOL0     N30301   2.527   8.945   1.395  0.2330 -0.8842 -0.6377
  988MOL0     C30302   2.398   8.997   1.407 -0.5166  1.1437 -0.5205
  988MOL0     C30303   2.327   8.904   1.471 -0.7123  0.3025  0.7343
  988MOL0     C30304   2.179   8.912   1.511  0.5617 -0.4095 -0.2252
  988MOL0     C30305   2.126   8.771   1.535 -0.2732  0.0155  0.0295
  988MOL0     C30306   1.977   8.760   1.554  0.4354 -0.6213  0.6788
  988MOL0     C30307   1.889   8.796   1.431 -0.5169 -0.4044  0.4809
  988MOL0     O30308   1.748   8.770   1.460 -0.2908 -0.5253 -0.2317
  988MOL0     C30309   1.667   8.883   1.450  0.5150  0.2924  0.3653
  988MOL0     C30310   1.546   8.860   1.390  0.1901 -0.4640  0.0062
  988MOL0     C30311   1.445   8.949   1.390 -0.2558  0.6538 -0.6123
  988MOL0     C30312   1.455   9.071   1.454 -0.0068  0.3860 -0.2335
  988MOL0     C30313   1.349   9.178   1.448 -0.8687  0.2506 -0.7368
  988MOL0     O30314   1.254   9.160   1.346  0.2187 -1.0848 -0.5898
  988MOL0     C30315   1.141   9.218   1.380  0.8944  0.3089 -0.3088
  988MOL0     C30316   1.057   9.163   1.478 -0.7888  0.0297 -0.1749
  988MOL0     C30317   0.931   9.216   1.497  0.0548  0.7646 -0.3936
  988MOL0     C30318   0.883   9.321   1.424 -0.8132 -0.3130  1.0743
  988MOL0     O30319   0.768   9.388   1.443  0.3508 -0.0506 -0.1626
  988MOL0     C30320   0.681   9.351   1.551  0.4749 -0.1344  0.1809
  988MOL0     C30321   0.578   9.461   1.579  0.2439  0.7868 -0.5713
  988MOL0     C30322   0.468   9.479   1.469  0.0765  0.3553 -0.0295
  988MOL0     C30323   0.410   9.612   1.460 -1.4686 -0.1558 -0.7806
  988MOL0     C30324   0.310   9.615   1.338  0.4013 -0.4997  0.2707
  988MOL0     C30325   0.180   9.535   1.364 -0.5556  0.2732 -0.1010
  988MOL0     C30326   0.072   9.569   1.470  0.0663  0.1834 -0.4081
  988MOL0     C30327   0.087   9.709   1.531 -0.2988 -0.3667  0.5095
  988MOL0    Cl30328  -0.044   9.740   1.646 -0.2863 -0.4446 -0.1316
  988MOL0     C30329   0.958   9.371   1.317  0.2281  0.1851 -0.4989
  988MOL0     C30330   1.087   9.334   1.301 -0.5306  0.3859  1.3876
  988MOL0     O30331   1.350   9.263   1.539 -0.0914 -0.6074 -0.1065
  988MOL0     C30332   1.576   9.094   1.523  0.1754  0.8602 -0.1810
  988MOL0     C30333   1.683   9.004   1.518 -0.5950  0.6483  1.1501
  988MOL0     N30334   2.410   8.789   1.491 -0.1696 -0.2842  0.5218
  988MOL0     N30335   2.534   8.826   1.454  0.0389 -0.0762 -0.9705
  988MOL0     C30336   3.505   8.840   1.175  0.8267 -1.0162  1.0084
  988MOL0     C30337   3.635   8.808   1.193  0.0111 -0.0578  0.5607
  988MOL0     C30338   4.072   8.716   1.156 -0.6679  0.4573 -0.7553
  988MOL0     C30339   4.099   8.576   1.142  0.2009 -1.0783  0.1185
  988MOL0     C30340   4.235   8.537   1.159  0.0179 -0.3307  0.5800
  988MOL0     C30341   4.337   8.619   1.219  0.7095  0.0475 -0.7178
  988MOL0     O30342   4.459   8.563   1.236 -0.4378 -0.3329  0.3405
  988MOL0     C30343   4.575   8.638   1.278 -0.3274  0.1468  0.8535
  988MOL0     C30344   4.696   8.546   1.243  0.0692  0.0186 -0.2374
  988MOL0     C30345   4.827   8.578   1.325 -0.0043  0.2978  1.1142
  988MOL0     C30346   4.924   8.455   1.297  1.2757  0.7098  0.2450
  988MOL0     C30347   5.059   8.488   1.248  0.6292  0.0212 -1.2920
  988MOL0     C30348   5.170   8.513   1.201  0.2183  0.3546  0.2593
  988MOL0     C30349   4.300   8.753   1.243  0.9446 -0.1067 -0.9018
  988MOL0     C30350   4.170   8.802   1.213  0.1647 -0.3302 -0.5027
  988MOL0     H30351   3.715   8.710   0.886  0.5084  2.7635 -0.0698
  988MOL0     H30352   3.477   8.788   0.837  1.5046  0.5548 -0.8234
  988MOL0     H30353   3.212   8.814   1.195 -1.3124  1.4823 -0.3635
  988MOL0     H30354   3.235   8.679   1.091  1.9528 -0.6053 -0.2036
  988MOL0     H30355   2.996   8.751   1.071  1.4653 -2.6194 -0.2294
  988MOL0     H30356   3.072   8.790   0.918 -1.6810  1.5206 -0.0434
  988MOL0     H30357   3.110   9.018   1.011  0.0387  0.1084  2.1584
  988MOL0     H30358   3.036   8.966   1.167 -2.0562  1.5399  0.1009
  988MOL0     H30359   2.906   8.989   0.886 -0.2247 -0.9348  0.2650
  988MOL0     H30360   2.824   8.922   1.023 -0.4411 -0.0692 -0.2987
  988MOL0     H30361   2.755   9.135   0.981  0.2564  3.7377  1.1272
  988MOL0     H30362   2.923   9.197   1.029  1.3807 -1.9256 -0.6685
  988MOL0     H30363   2.744   9.226   1.209  2.3581  1.4457 -0.8167
  988MOL0     H30364   2.879   9.117   1.255 -1.9704 -0.0221  2.0637
  988MOL0     H30365   2.620   9.002   1.149 -0.4074  3.5861 -0.7377
  988MOL0     H30366   2.753   8.920   1.221 -2.0755 -1.0520  0.3906
  988MOL0     H30367   2.622   9.124   1.395 -0.3239  0.3978 -1.6639
  988MOL0     H30368   2.733   8.986   1.424 -0.0142  0.0314 -1.5258
  988MOL0     H30369   2.359   9.094   1.380 -0.3114  1.1102 -0.9426
  988MOL0     H30370   2.130   8.961   1.427  1.3559 -1.2382 -1.2065
  988MOL0     H30371   2.157   8.969   1.602 -0.1514 -0.6379 -0.2521
  988MOL0     H30372   2.180   8.724   1.618 -1.8981 -4.2327 -1.0662
  988MOL0     H30373   2.143   8.712   1.445 -1.8487  1.4435 -1.2728
  988MOL0     H30374   1.960   8.654   1.578 -1.6966 -0.5044 -0.1152
  988MOL0     H30375   1.948   8.830   1.633  1.2165  0.8812 -0.3106
  988MOL0     H30376   1.912   8.723   1.353 -1.3026 -0.6094  0.4334
  988MOL0     H30377   1.909   8.895   1.389 -0.1489 -0.8183 -0.3361
  988MOL0     H30378   1.513   8.761   1.360  1.9056 -1.0964  0.0970
  988MOL0     H30379   1.351   8.903   1.360  0.5551 -1.3127 -0.2955
  988MOL0     H30380   1.085   9.082   1.543 -0.4795  0.0315 -0.3064
  988MOL0     H30381   0.862   9.179   1.573  0.3310 -0.2545 -0.6261
  988MOL0     H30382   0.742   9.347   1.641 -0.6242 -2.9603  0.9069
  988MOL0     H30383   0.628   9.258   1.528 -1.1083  0.2240  2.0648
  988MOL0     H30384   0.636   9.553   1.594 -0.4687  0.8440  2.4300
  988MOL0     H30385   0.530   9.441   1.675  2.9622  0.4208  0.8161
  988MOL0     H30386   0.393   9.401   1.487 -1.2644  1.8131  1.0265
  988MOL0     H30387   0.507   9.451   1.371  0.8839 -0.8305  0.6061
  988MOL0     H30388   0.368   9.628   1.560  2.7049  1.4278  0.9405
  988MOL0     H30389   0.481   9.694   1.445 -1.6403  0.1932  0.2285
  988MOL0     H30390   0.365   9.578   1.251  1.7551 -1.4004  1.4704
  988MOL0     H30391   0.281   9.719   1.321  1.9971  0.3376  2.2557
  988MOL0     H30392   0.203   9.428   1.375  2.4429  0.8390  0.0749
  988MOL0     H30393   0.134   9.533   1.265 -0.3071  1.2338 -0.2472
  988MOL0     H30394  -0.030   9.542   1.441 -0.3614  1.2679  0.0311
  988MOL0     H30395   0.095   9.513   1.562 -0.1252 -2.0451 -1.6426
  988MOL0     H30396   0.088   9.784   1.451 -0.7125 -1.3670 -0.4596
  988MOL0     H30397   0.180   9.719   1.587 -0.0888 -0.6698  0.2213
  988MOL0     H30398   0.917   9.450   1.254  3.1272  1.6519 -0.7061
  988MOL0     H30399   1.140   9.376   1.216  1.4196 -1.8470  1.3684
  988MOL0     H30400   1.589   9.188   1.576  1.0359  0.8014 -0.2690
  988MOL0     H30401   1.778   9.024   1.566  1.5707  2.8956 -3.3605
  988MOL0     H30402   3.443   8.879   1.255 -1.0863  0.1040 -0.8879
  988MOL0     H30403   3.674   8.823   1.293 -1.6766 -1.2775  1.4426
  988MOL0     H30404   4.021   8.517   1.095 -3.0258  1.3087  2.0303
  988MOL0     H30405   4.262   8.438   1.126  0.2158  0.4060 -1.6216
  988MOL0     H30406   4.552   8.661   1.382  1.9628 -0.9610  1.6725
  988MOL0     H30407   4.600   8.734   1.234 -0.3481  0.9784  2.5721
  988MOL0     H30408   4.659   8.443   1.253  0.3679 -0.1209 -0.5424
  988MOL0     H30409   4.706   8.565   1.136 -1.7566  0.4777 -0.3624
  988MOL0     H30410   4.805   8.573   1.432 -0.5240 -2.7192  0.9389
  988MOL0     H30411   4.862   8.675   1.287  0.4114  0.3560  1.6220
  988MOL0     H30412   4.930   8.404   1.393  0.2160  2.2437  1.1635
  988MOL0     H30413   4.876   8.382   1.230 -1.2566  1.3170  1.2827
  988MOL0     H30414   5.254   8.534   1.139  0.4981  1.9335  1.1250
  988MOL0     H30415   4.382   8.814   1.279  0.6767 -1.5394  2.6094
  988MOL0     H30416   4.149   8.906   1.233  3.3532  0.6688 -1.6278
  989MOL0     O30417   2.979   5.139   0.746  0.0532 -0.9811 -0.0994
  989MOL0     C30418   3.058   5.098   0.658 -0.1154 -1.0478  0.6605
  989MOL0     O30419   3.032   5.095   0.519 -0.3453 -0.1697 -0.1607
  989MOL0     C30420   2.916   5.153   0.463 -0.8592  0.1704  0.7514
  989MOL0     C30421   2.820   5.074   0.399 -0.3555  0.3925  0.1703
  989MOL0     C30422   2.708   5.140   0.352  0.2126  0.3220 -0.7177
  989MOL0     C30423   2.687   5.278   0.369  0.5435  0.1594 -0.5252
  989MOL0     O30424   2.592   5.369   0.322  0.0367 -0.3834  1.1475
  989MOL0     C30425   2.500   5.330   0.216 -0.4241  0.0251  0.0668
  989MOL0     C30426   2.443   5.456   0.155  0.2681  0.4550 -0.0369
  989MOL0     C30427   2.373   5.417   0.029  0.3098 -0.1284 -0.3626
  989MOL0     C30428   2.307   5.536  -0.034  0.5992  0.1251 -0.0761
  989MOL0     C30429   2.251   5.510  -0.169  0.9966 -0.7286  0.8938
  989MOL0     C30430   2.193   5.639  -0.233  0.7686 -0.0521  0.5908
  989MOL0     C30431   2.063   5.691  -0.167 -0.4106 -0.8948 -0.7317
  989MOL0     C30432   1.954   5.587  -0.180  0.0952  0.4911  0.6924
  989MOL0     N30433   1.816   5.625  -0.159 -0.6703  0.0271 -0.0024
  989MOL0     C30434   1.768   5.745  -0.106 -0.3538  0.4479  0.1142
  989MOL0     C30435   1.640   5.732  -0.061 -0.2580  0.5653  0.5587
  989MOL0     C30436   1.565   5.848  -0.002 -0.1958  0.4735  0.1082
  989MOL0     C30437   1.474   5.884  -0.118 -0.1244  0.3102  0.2772
  989MOL0     C30438   1.364   5.973  -0.069  0.0544  0.1167 -0.6784
  989MOL0     C30439   1.276   6.021  -0.189 -1.7017  0.1046  0.2817
  989MOL0     O30440   1.190   6.122  -0.143  0.1931 -0.3580  0.1382
  989MOL0     C30441   1.057   6.126  -0.178 -0.4814 -0.1949  0.0911
  989MOL0     C30442   0.993   6.050  -0.275 -0.7385  0.2241  0.3095
  989MOL0     C30443   0.853   6.042  -0.279 -0.5066 -0.5505  0.5463
  989MOL0     C30444   0.777   6.124  -0.190 -0.0338 -0.2452 -0.3573
  989MOL0     C30445   0.626   6.120  -0.190 -0.3496 -0.5415 -0.4707
  989MOL0     O30446   0.551   5.997  -0.216  0.4265 -0.7844 -1.0045
  989MOL0     C30447   0.414   5.980  -0.177  0.0683 -0.2269 -0.4473
  989MOL0     C30448   0.307   6.014  -0.267 -0.2609 -0.5876 -0.2469
  989MOL0     C30449   0.174   6.000  -0.222 -0.1498 -0.1873 -0.2821
  989MOL0     C30450   0.150   5.937  -0.099  0.0672  0.0176  0.1684
  989MOL0     O30451   0.023   5.926  -0.056 -0.6855  0.1313 -0.2394
  989MOL0     C30452  -0.083   6.014  -0.106  0.1500  0.8116  0.3123
  989MOL0     C30453  -0.210   6.004  -0.024  0.3186 -0.6107  0.5713
  989MOL0     C30454  -0.257   5.863   0.013 -0.5672 -0.2391  0.6266
  989MOL0     C30455  -0.295   5.779  -0.110 -0.7781  0.2142 -0.1265
  989MOL0     C30456  -0.350   5.640  -0.085  0.0854 -1.3136  0.0888
  989MOL0     C30457  -0.394   5.574  -0.214 -0.2180 -1.0696 -0.5595
  989MOL0     C30458  -0.441   5.437  -0.190 -0.1112  0.3576  0.1231
  989MOL0     C30459  -0.513   5.386  -0.310  0.1734  0.4876 -0.4896
  989MOL0    Cl30460  -0.651   5.493  -0.382 -0.2152 -0.0491  0.1991
  989MOL0     C30461   0.252   5.890  -0.015 -0.1658 -0.0345  0.8596
  989MOL0     C30462   0.388   5.912  -0.055  0.7078 -0.1747  0.0952
  989MOL0     O30463   0.575   6.226  -0.166 -0.8465 -0.0719 -0.1995
  989MOL0     C30464   0.845   6.206  -0.099 -0.0515  0.2446  0.5991
  989MOL0     C30465   0.986   6.215  -0.099  0.1160  0.4947 -0.2139
  989MOL0     N30466   1.600   5.602  -0.094  0.7143 -0.2805 -1.1029
  989MOL0     N30467   1.709   5.550  -0.135 -0.2813  0.6055  0.1338
  989MOL0     C30468   2.791   5.351   0.430 -0.1194 -0.4364  0.0687
  989MOL0     C30469   2.906   5.290   0.471  0.0315  0.2214  0.0190
  989MOL0     C30470   3.200   5.074   0.695  0.0991 -0.2981  0.7878
  989MOL0     C30471   3.243   5.066   0.827 -0.0687 -1.4372  0.4555
  989MOL0     C30472   3.381   5.039   0.866  0.4975 -0.4782  0.6922
  989MOL0     C30473   3.477   5.023   0.766  0.5211 -0.0354  0.7534
  989MOL0     O30474   3.596   4.981   0.818  0.4490 -0.3860 -0.2440
  989MOL0     C30475   3.701   4.954   0.724 -0.1077  1.4276  0.6080
  989MOL0     C30476   3.778   5.072   0.670 -1.0755 -0.0728  0.0063
  989MOL0     C30477   3.813   5.176   0.786  0.8004  0.6895  0.4063
  989MOL0     C30478   3.878   5.123   0.916  1.0492  0.0980 -1.2020
  989MOL0     C30479   3.895   5.234   1.005 -0.0911 -0.2287 -0.3714
  989MOL0     C30480   3.915   5.341   1.065  0.3006  0.4647 -0.8287
  989MOL0     C30481   3.437   5.035   0.627 -0.3800  0.0661 -0.1720
  989MOL0     C30482   3.305   5.060   0.598  0.8364 -0.3214  0.1943
  989MOL0     H30483   2.828   4.967   0.384  0.5908  0.2618  1.4304
  989MOL0     H30484   2.637   5.072   0.307 -0.9708  0.1644  1.2728
  989MOL0     H30485   2.418   5.272   0.260 -0.4862 -1.2633 -1.6372
  989MOL0     H30486   2.556   5.268   0.144  0.4946  1.4586 -0.4885
  989MOL0     H30487   2.537   5.512   0.146  1.7577 -1.4546  2.3483
  989MOL0     H30488   2.381   5.517   0.222 -0.2122  0.3931 -0.4237
  989MOL0     H30489   2.300   5.338   0.051  0.8012 -0.8663 -1.3183
  989MOL0     H30490   2.447   5.378  -0.042 -0.0871  0.2673 -0.9979
  989MOL0     H30491   2.222   5.556   0.032  1.5018  1.4020  0.7339
  989MOL0     H30492   2.369   5.626  -0.044 -2.6478  2.5690  0.0546
  989MOL0     H30493   2.179   5.428  -0.164  0.3537 -0.1522  1.3609
  989MOL0     H30494   2.337   5.486  -0.232  2.3012  0.8671  1.9829
  989MOL0     H30495   2.164   5.629  -0.338 -0.0941 -0.0495  0.8192
  989MOL0     H30496   2.272   5.715  -0.236  1.6785 -1.0152 -1.3820
  989MOL0     H30497   2.081   5.727  -0.065  0.9841 -4.2753  0.3570
  989MOL0     H30498   2.022   5.779  -0.218  0.8681  0.5867  0.6749
  989MOL0     H30499   1.983   5.497  -0.125  2.3402  0.8767  0.2049
  989MOL0     H30500   1.951   5.553  -0.284 -1.0994  0.5808  0.6826
  989MOL0     H30501   1.818   5.840  -0.094  2.8127 -1.2801  1.9836
  989MOL0     H30502   1.635   5.930   0.017  1.4808 -0.2964 -2.2271
  989MOL0     H30503   1.507   5.825   0.088 -1.3091  1.4581 -0.3387
  989MOL0     H30504   1.417   5.793  -0.143 -1.6064  1.3471 -0.2392
  989MOL0     H30505   1.533   5.917  -0.204  2.0306 -1.2284  1.0576
  989MOL0     H30506   1.304   5.913  -0.000 -1.9243 -1.8838 -3.8929
  989MOL0     H30507   1.401   6.063  -0.018 -1.6727  0.5959 -0.2004
  989MOL0     H30508   1.228   5.933  -0.233  0.0712 -0.8475  0.1617
  989MOL0     H30509   1.338   6.069  -0.265  3.9053 -2.6036  2.5942
  989MOL0     H30510   1.052   5.979  -0.332  0.9595  1.8451 -0.0342
  989MOL0     H30511   0.808   5.982  -0.357 -1.9862  0.6254  0.4380
  989MOL0     H30512   0.329   6.048  -0.367 -1.2646 -3.6657 -1.6246
  989MOL0     H30513   0.099   6.039  -0.289  0.3255  2.0259  0.4041
  989MOL0     H30514  -0.097   5.985  -0.211 -1.5778 -1.7509  1.1677
  989MOL0     H30515  -0.050   6.118  -0.102 -0.7505  1.1260 -0.1442
  989MOL0     H30516  -0.288   6.053  -0.083 -0.2684 -1.3083  0.7598
  989MOL0     H30517  -0.199   6.060   0.070 -1.7594  0.6861  0.0918
  989MOL0     H30518  -0.342   5.860   0.083  0.2344 -2.5440  1.5981
  989MOL0     H30519  -0.187   5.816   0.083  0.5072  0.0655 -0.2238
  989MOL0     H30520  -0.379   5.824  -0.163 -1.2357 -2.3122 -1.7490
  989MOL0     H30521  -0.206   5.772  -0.174 -0.5226 -1.1167  0.3330
  989MOL0     H30522  -0.438   5.645  -0.021 -0.2213 -0.2997 -0.3979
  989MOL0     H30523  -0.270   5.576  -0.048  1.1179 -0.6213 -0.8941
  989MOL0     H30524  -0.306   5.571  -0.278 -0.3638  0.2310 -0.8547
  989MOL0     H30525  -0.471   5.637  -0.261 -0.2442 -0.8226 -0.1901
  989MOL0     H30526  -0.350   5.380  -0.168 -0.4438  0.5440  2.1489
  989MOL0     H30527  -0.508   5.425  -0.104 -0.2386  0.6449  0.0653
  989MOL0     H30528  -0.542   5.282  -0.292 -0.6572  1.0195  1.5951
  989MOL0     H30529  -0.440   5.379  -0.391 -0.0439  2.5615 -0.9242
  989MOL0     H30530   0.230   5.839   0.077  0.3170 -1.5650  0.1568
  989MOL0     H30531   0.467   5.876   0.010 -1.7269 -3.8281  1.3668
  989MOL0     H30532   0.789   6.272  -0.033 -0.6292  1.0858 -0.6873
  989MOL0     H30533   1.023   6.277  -0.019 -1.7611  1.2775  0.0938
  989MOL0     H30534   2.791   5.459   0.425  0.6805 -0.4840 -1.6865
  989MOL0     H30535   2.988   5.352   0.505 -2.3671  2.4509  2.1989
  989MOL0     H30536   3.178   5.105   0.904 -2.2098 -4.4174  0.3444
  989MOL0     H30537   3.413   5.038   0.970  2.8430  2.8508  0.1406
  989MOL0     H30538   3.666   4.896   0.639  1.1959 -0.6610  1.4154
  989MOL0     H30539   3.774   4.889   0.774 -1.1911 -0.4694 -0.1981
  989MOL0     H30540   3.875   5.031   0.640  0.4317 -0.3812  4.5505
  989MOL0     H30541   3.719   5.122   0.592  1.1504  2.6849 -0.0804
  989MOL0     H30542   3.725   5.235   0.813  0.5466  0.3040  0.4181
  989MOL0     H30543   3.881   5.245   0.734  0.9099  0.5574  0.3739
  989MOL0     H30544   3.797   5.062   0.957 -2.5601  2.1150 -4.6030
  989MOL0     H30545   3.968   5.062   0.905  0.4940 -1.3929  1.5480
  989MOL0     H30546   3.934   5.436   1.109 -2.8305 -0.2655  2.5372
  989MOL0     H30547   3.501   4.997   0.548 -3.7315 -1.8652 -2.1612
  989MOL0     H30548   3.283   5.064   0.492  0.1961  0.4182  0.3457
  990MOL0     O30549   5.175   9.470   1.154  0.7353  0.5270 -0.3245
  990MOL0     C30550   5.196   9.593   1.150 -0.2049  0.0225 -0.5041
  990MOL0     O30551   5.114   9.691   1.200 -0.4798 -0.1473  0.0402
  990MOL0     C30552   4.983   9.664   1.225  0.1553  0.6187 -0.1909
  990MOL0     C30553   4.950   9.558   1.306  0.0804  0.3723  0.5833
  990MOL0     C30554   4.823   9.510   1.312  0.7258  0.3395  0.2975
  990MOL0     C30555   4.716   9.580   1.249 -1.0043  0.4948 -0.4943
  990MOL0     O30556   4.591   9.530   1.259  0.5789  0.1728  0.3736
  990MOL0     C30557   4.493   9.597   1.344 -0.7555 -0.4080 -0.1524
  990MOL0     C30558   4.518   9.566   1.497  0.5079 -0.2571 -0.1771
  990MOL0     C30559   4.384   9.594   1.588 -0.6203 -0.1874 -0.0569
  990MOL0     C30560   4.412   9.571   1.739 -0.1002 -0.6040  0.9174
  990MOL0     C30561   4.283   9.618   1.826  0.1078 -0.6458 -0.1300
  990MOL0     C30562   4.159   9.535   1.807  0.2554 -0.3728  0.1288
  990MOL0     C30563   4.119   9.475   1.947  0.2569 -1.0070 -1.0628
  990MOL0     C30564   4.017   9.364   1.926 -0.1916  0.1571 -0.0871
  990MOL0     N30565   3.895   9.413   1.860 -0.3546 -0.8978  0.4019
  990MOL0     C30566   3.822   9.516   1.918  0.3060 -0.1042  0.3611
  990MOL0     C30567   3.739   9.555   1.820 -0.3717 -0.1271  0.4066
  990MOL0     C30568   3.639   9.667   1.824 -0.2926 -0.7485  0.3826
  990MOL0     C30569   3.497   9.608   1.841 -0.1632  0.2380 -0.1632
  990MOL0     C30570   3.397   9.704   1.774 -0.6258  0.3815 -0.5954
  990MOL0     C30571   3.255   9.668   1.832  0.3842 -0.0526 -0.1267
  990MOL0     O30572   3.241   9.749   1.951 -0.6249  0.2206 -0.5177
  990MOL0     C30573   3.115   9.755   2.000 -0.0871  0.4032  0.3841
  990MOL0     C30574   3.083   9.862   2.084 -0.6683 -0.0083 -0.8855
  990MOL0     C30575   2.956   9.881   2.136  0.4609  0.0363 -0.1221
  990MOL0     C30576   2.860   9.779   2.108 -0.4503 -0.4656  0.1295
  990MOL0     C30577   2.729   9.810   2.156 -0.0218 -0.1488  0.0057
  990MOL0     O30578   2.639   9.705   2.155 -0.3088  0.4417  0.9941
  990MOL0     C30579   2.512   9.724   2.208 -0.5362 -0.7758 -0.0744
  990MOL0     C30580   2.426   9.824   2.162 -0.2635 -0.0720 -0.9198
  990MOL0     C30581   2.306   9.842   2.226  0.3844  0.2148 -0.1748
  990MOL0     C30582   2.259   9.759   2.335 -0.6690  0.4659  0.1109
  990MOL0     O30583   2.144   9.807   2.398  0.2922  0.1308 -0.2128
  990MOL0     C30584   2.083   9.711   2.483  0.2394 -0.1024  0.2201
  990MOL0     C30585   1.932   9.733   2.485  0.3005 -0.1625  0.7113
  990MOL0     C30586   1.887   9.869   2.536 -0.2667 -0.7196  1.0033
  990MOL0     C30587   1.738   9.897   2.501 -0.2904 -0.1415  0.3288
  990MOL0     C30588   1.642   9.954   2.604 -0.1993  0.4644  0.3725
  990MOL0     C30589   1.499   9.974   2.554  0.3580 -0.4148  0.1104
  990MOL0     C30590   1.407  10.005   2.671 -1.1641  0.8631  0.2503
  990MOL0     C30591   1.265   9.960   2.642 -0.3356  0.4283 -0.1531
  990MOL0    Cl30592   1.193  10.051   2.511 -0.4891 -0.3111 -0.1506
  990MOL0     C30593   2.352   9.656   2.378 -0.3998  0.4779  0.0115
  990MOL0     C30594   2.468   9.642   2.306  0.9304  0.5385 -0.2236
  990MOL0     O30595   2.692   9.923   2.188 -0.0524 -0.5047  0.3355
  990MOL0     C30596   2.882   9.682   2.009  0.1271  0.4610  0.0008
  990MOL0     C30597   3.008   9.672   1.955  0.2642  0.8412  0.0549
  990MOL0     N30598   3.770   9.486   1.706 -0.9263 -0.8609 -0.2163
  990MOL0     N30599   3.867   9.397   1.731  0.1876  0.2544  0.1795
  990MOL0     C30600   4.750   9.702   1.187  0.3876  0.7004 -0.9418
  990MOL0     C30601   4.880   9.740   1.168 -0.3202  0.0791  0.3924
  990MOL0     C30602   5.320   9.642   1.091 -0.3146 -0.3343 -0.5962
  990MOL0     C30603   5.417   9.549   1.035  0.6142 -0.8021  0.0865
  990MOL0     C30604   5.530   9.595   0.976 -1.0613  0.0786  0.3311
  990MOL0     C30605   5.568   9.728   0.979  0.5099 -0.3884 -0.2683
  990MOL0     O30606   5.683   9.782   0.933 -0.0571 -0.0013 -0.2883
  990MOL0     C30607   5.804   9.699   0.916 -0.4368 -0.1939 -0.8283
  990MOL0     C30608   5.916   9.805   0.913 -0.5111  0.7164 -0.7196
  990MOL0     C30609   6.047   9.729   0.893  0.0037 -1.1632 -0.8672
  990MOL0     C30610   6.170   9.829   0.902  0.8104 -0.0518  0.2157
  990MOL0     C30611   6.289   9.747   0.875  0.2107 -0.2034 -0.8540
  990MOL0     C30612   6.379   9.680   0.865 -0.8387 -0.2748  0.9302
  990MOL0     C30613   5.466   9.818   1.014 -0.5389 -0.1259 -0.6344
  990MOL0     C30614   5.347   9.774   1.076  0.6576 -0.1424 -0.7271
  990MOL0     H30615   5.029   9.492   1.340  1.5566  1.3797 -0.7586
  990MOL0     H30616   4.799   9.419   1.366  2.1361  0.7550  1.6857
  990MOL0     H30617   4.392   9.564   1.320 -1.2767  1.7948 -1.3146
  990MOL0     H30618   4.504   9.704   1.323 -0.2653 -0.1803  1.2136
  990MOL0     H30619   4.600   9.623   1.543 -1.1350  0.6766  1.7918
  990MOL0     H30620   4.539   9.459   1.499 -0.8626 -0.5511 -0.8155
  990MOL0     H30621   4.307   9.521   1.560  2.8884 -3.5266 -1.9508
  990MOL0     H30622   4.343   9.694   1.572 -2.3526 -0.9739 -0.7874
  990MOL0     H30623   4.430   9.464   1.758  2.4057 -0.1892  1.2234
  990MOL0     H30624   4.500   9.631   1.763 -2.4036  3.4171  0.0971
  990MOL0     H30625   4.262   9.723   1.801 -0.2279 -0.5674  0.4556
  990MOL0     H30626   4.311   9.627   1.931  1.7089  0.0020 -0.5913
  990MOL0     H30627   4.169   9.455   1.733  0.7918 -2.6857  2.5385
  990MOL0     H30628   4.073   9.587   1.765  1.1738  0.9755 -0.1245
  990MOL0     H30629   4.208   9.436   1.997  1.4563  3.5366  0.9042
  990MOL0     H30630   4.081   9.551   2.017  0.0710  1.0154 -3.2085
  990MOL0     H30631   3.990   9.329   2.026 -0.1277 -1.3855 -0.5747
  990MOL0     H30632   4.058   9.280   1.868 -2.2649 -2.1728  1.6594
  990MOL0     H30633   3.834   9.559   2.017  1.2567 -0.6762  0.5075
  990MOL0     H30634   3.644   9.720   1.729 -2.0883  4.8781  3.0103
  990MOL0     H30635   3.664   9.748   1.892  2.2052  1.0346 -2.4512
  990MOL0     H30636   3.477   9.594   1.947 -1.2860 -1.5804 -0.5723
  990MOL0     H30637   3.489   9.511   1.791  0.8052 -1.0926  2.1133
  990MOL0     H30638   3.430   9.800   1.812  1.0257 -1.5599  3.5056
  990MOL0     H30639   3.393   9.697   1.665  4.2020 -1.6671 -0.8952
  990MOL0     H30640   3.252   9.560   1.850 -2.7282 -0.0095  0.0775
  990MOL0     H30641   3.189   9.694   1.749  2.5031 -0.0492 -1.9247
  990MOL0     H30642   3.161   9.932   2.111 -0.1576  0.5131 -3.4520
  990MOL0     H30643   2.932   9.962   2.203 -1.7881 -0.9524  0.3817
  990MOL0     H30644   2.448   9.894   2.082  0.5268  2.2736  1.2054
  990MOL0     H30645   2.244   9.916   2.177 -1.4735 -2.2412 -1.7707
  990MOL0     H30646   2.116   9.729   2.586  0.6456  4.1986 -0.4738
  990MOL0     H30647   2.106   9.611   2.447 -0.2743  0.2784 -1.2529
  990MOL0     H30648   1.875   9.666   2.551 -0.8059 -0.7787 -0.8259
  990MOL0     H30649   1.896   9.729   2.382  0.4240  1.7542  0.5575
  990MOL0     H30650   1.954   9.936   2.480  1.3664 -3.2559 -0.2428
  990MOL0     H30651   1.913   9.881   2.641  0.2928 -4.1297  1.3696
  990MOL0     H30652   1.738   9.961   2.413 -1.5864  0.7067  0.9106
  990MOL0     H30653   1.694   9.808   2.456 -0.5248  1.4770 -2.9223
  990MOL0     H30654   1.681  10.050   2.639 -0.8857  1.0031 -0.3054
  990MOL0     H30655   1.654   9.881   2.684  2.9534  3.6497  3.1310
  990MOL0     H30656   1.462   9.884   2.505 -1.3732  0.4627 -0.2653
  990MOL0     H30657   1.497  10.062   2.490 -0.1893  0.4226  1.2477
  990MOL0     H30658   1.430   9.949   2.763 -3.0247  0.6339  0.6162
  990MOL0     H30659   1.397  10.108   2.707 -2.8366  1.1111 -0.8203
  990MOL0     H30660   1.208   9.969   2.735  1.2617  0.6903  0.8449
  990MOL0     H30661   1.267   9.855   2.611  1.1943 -0.0357  1.3269
  990MOL0     H30662   2.338   9.604   2.473  0.5003  2.4830  1.2995
  990MOL0     H30663   2.529   9.565   2.351 -0.8317  0.1025  1.5468
  990MOL0     H30664   2.799   9.621   1.974  0.0277  0.5191  0.1345
  990MOL0     H30665   3.008   9.593   1.880 -2.4017  3.5584 -3.1471
  990MOL0     H30666   4.677   9.769   1.143 -1.8524  1.0315  2.8551
  990MOL0     H30667   4.910   9.823   1.104  0.7926  1.1612  2.2304
  990MOL0     H30668   5.402   9.441   1.044 -1.1698 -0.5273  0.8691
  990MOL0     H30669   5.592   9.520   0.928 -2.3342 -0.1252 -1.0757
  990MOL0     H30670   5.807   9.640   0.824 -2.5340  1.5774 -2.1149
  990MOL0     H30671   5.828   9.632   1.000  2.0157  0.2541 -1.1027
  990MOL0     H30672   5.898   9.880   0.836 -0.5096  1.4584 -0.0105
  990MOL0     H30673   5.928   9.861   1.007 -0.2930 -2.8593  1.5700
  990MOL0     H30674   6.047   9.667   0.802  0.0211 -2.3213 -0.0942
  990MOL0     H30675   6.060   9.653   0.970 -1.4805 -1.7604 -1.1549
  990MOL0     H30676   6.161   9.913   0.833 -1.7693  1.1778  1.8819
  990MOL0     H30677   6.193   9.871   1.000  0.6012  3.0478 -0.9756
  990MOL0     H30678   6.457   9.607   0.863 -0.0658  0.4829 -2.7200
  990MOL0     H30679   5.466   9.926   1.004  0.5688 -0.1914 -1.5602
  990MOL0     H30680   5.278   9.850   1.112  0.3231  0.7387 -3.0163
  991MOL0     O30681   2.053  11.152   9.659  0.5466 -0.4221  0.5645
  991MOL0     C30682   2.155  11.136   9.594  0.1320 -0.9862  0.1818
  991MOL0     O30683   2.214  11.213   9.495  0.4423 -0.1501 -0.3433
  991MOL0     C30684   2.171  11.333   9.468 -0.1085 -0.4784  0.3202
  991MOL0     C30685   2.270  11.423   9.439  0.2983 -0.0222 -0.2171
  991MOL0     C30686   2.243  11.555   9.399  0.6901 -0.5581 -0.2950
  991MOL0     C30687   2.106  11.608   9.391  0.9176 -0.0947  0.1598
  991MOL0     O30688   2.079  11.741   9.347  0.3240  0.5147 -0.0568
  991MOL0     C30689   1.963  11.810   9.382 -0.9557  0.1481 -0.4961
  991MOL0     C30690   1.982  11.847   9.528 -0.5097  0.3763  0.4581
  991MOL0     C30691   1.854  11.899   9.591  0.0703  0.4958 -0.8472
  991MOL0     C30692   1.849  11.862   9.740 -0.3964 -0.2029 -0.0123
  991MOL0     C30693   1.711  11.884   9.801  0.4276  1.0620  0.1953
  991MOL0     C30694   1.715  11.872   9.954  0.8094  0.6631 -0.0931
  991MOL0     C30695   1.569  11.850   9.999  0.3973  0.5647 -0.5144
  991MOL0     C30696   1.488  11.717   9.973 -0.4164  0.8411  0.5209
  991MOL0     N30697   1.376  11.705  10.068  0.1019 -0.0998  0.0604
  991MOL0     C30698   1.276  11.793  10.090  0.3323 -0.0352  0.0344
  991MOL0     C30699   1.209  11.729  10.193 -0.2440 -0.1510  1.2525
  991MOL0     C30700   1.085  11.786  10.244  0.8327 -0.7100 -0.2226
  991MOL0     C30701   1.119  11.867  10.365 -0.3306 -0.0393 -0.2008
  991MOL0     C30702   1.008  11.960  10.419  0.0745 -0.0265 -0.1984
  991MOL0     C30703   0.882  11.888  10.471 -0.0120 -0.2788  1.1598
  991MOL0     O30704   0.925  11.803  10.566 -0.0523 -0.7223  0.0111
  991MOL0     C30705   0.830  11.736  10.645 -1.2830 -0.0327  0.9007
  991MOL0     C30706   0.882  11.627  10.701 -0.5640 -0.3635  0.7982
  991MOL0     C30707   0.800  11.534  10.773  0.2621  0.3343 -1.3234
  991MOL0     C30708   0.659  11.557  10.791  0.8809  0.9647  0.9310
  991MOL0     C30709   0.570  11.456  10.855  0.6668  0.4724  0.5613
  991MOL0     O30710   0.446  11.441  10.791  0.1668 -0.0814  0.1940
  991MOL0     C30711   0.378  11.330  10.832 -0.2650 -0.6392 -0.0490
  991MOL0     C30712   0.244  11.332  10.884  0.4104 -0.1534  0.5272
  991MOL0     C30713   0.177  11.215  10.903  0.9845  0.1168 -0.1728
  991MOL0     C30714   0.238  11.088  10.868 -0.0802  0.3218 -0.8124
  991MOL0     O30715   0.175  10.965  10.895 -0.1318 -0.2729  0.2231
  991MOL0     C30716   0.198  10.856  10.797  0.0896 -0.6388 -0.3569
  991MOL0     C30717   0.092  10.744  10.820  0.2397 -0.3407  0.4541
  991MOL0     C30718  -0.046  10.794  10.767  0.3550  1.1474 -0.5041
  991MOL0     C30719  -0.165  10.692  10.797 -0.7660  0.6531  0.0331
  991MOL0     C30720  -0.309  10.746  10.749  0.6846 -0.2645 -0.1468
  991MOL0     C30721  -0.432  10.654  10.792 -0.0618  0.9128  1.0791
  991MOL0     C30722  -0.404  10.511  10.748 -0.9289 -0.5038 -0.1702
  991MOL0     C30723  -0.531  10.426  10.740  0.1254 -0.2989  0.5530
  991MOL0    Cl30724  -0.608  10.423  10.899 -0.2596  0.0185  0.0725
  991MOL0     C30725   0.362  11.084  10.822  0.2968  0.1890  0.9490
  991MOL0     C30726   0.433  11.203  10.809  0.9742  0.1793 -0.4415
  991MOL0     O30727   0.617  11.382  10.943 -0.1097  0.2711  0.2840
  991MOL0     C30728   0.613  11.669  10.721  0.4536  1.1438 -0.4546
  991MOL0     C30729   0.687  11.756  10.653 -0.0474 -0.3471  0.6835
  991MOL0     N30730   1.266  11.602  10.217  0.1674  0.7112  0.0070
  991MOL0     N30731   1.362  11.596  10.143 -0.3116  0.5482  0.7169
  991MOL0     C30732   2.001  11.519   9.426  0.4386 -0.1000  0.6463
  991MOL0     C30733   2.038  11.386   9.461 -0.3390  0.6846 -0.0754
  991MOL0     C30734   2.225  11.009   9.618  0.9405 -0.2387  0.4951
  991MOL0     C30735   2.343  10.970   9.546  0.3604 -0.5595 -0.0943
  991MOL0     C30736   2.405  10.850   9.575  0.4130 -0.9310  0.0142
  991MOL0     C30737   2.340  10.762   9.651  0.2440 -0.5750 -0.8899
  991MOL0     O30738   2.402  10.643   9.683 -0.1394  0.5010  0.1396
  991MOL0     C30739   2.460  10.641   9.816 -1.1399  0.0958  0.4055
  991MOL0     C30740   2.596  10.720   9.825 -0.0903 -0.7010  0.2679
  991MOL0     C30741   2.715  10.691   9.727  0.4191 -0.5289 -0.2697
  991MOL0     C30742   2.760  10.548   9.720  0.4040 -0.5042  0.0845
  991MOL0     C30743   2.899  10.543   9.685  0.0176 -0.2536  0.3085
  991MOL0     C30744   3.005  10.526   9.637  0.8694  0.6351  0.4275
  991MOL0     C30745   2.217  10.787   9.709 -0.3018  0.0675 -0.2828
  991MOL0     C30746   2.156  10.914   9.692  1.4381  0.1920 -0.6432
  991MOL0     H30747   2.372  11.391   9.425  1.2590  2.5311  0.3944
  991MOL0     H30748   2.322  11.629   9.390  1.0803 -0.7234  1.3897
  991MOL0     H30749   1.878  11.742   9.373 -0.8854 -0.2741  1.5647
  991MOL0     H30750   1.940  11.887   9.308  2.3223  0.7315 -1.0334
  991MOL0     H30751   2.056  11.925   9.543  0.1074 -0.6720  3.3932
  991MOL0     H30752   2.019  11.761   9.585  1.2137  0.7267 -0.0809
  991MOL0     H30753   1.760  11.862   9.547 -3.0558  2.6739  3.2629
  991MOL0     H30754   1.852  12.007   9.577  2.0236  0.6638 -0.0928
  991MOL0     H30755   1.874  11.757   9.756 -2.1987 -1.1754 -2.8396
  991MOL0     H30756   1.916  11.926   9.798 -1.0222  1.9261 -1.5162
  991MOL0     H30757   1.657  11.798   9.759  0.4814  1.1310 -0.0170
  991MOL0     H30758   1.661  11.974   9.764 -2.4845 -1.5617 -3.1189
  991MOL0     H30759   1.747  11.970   9.991 -0.1481  1.1275 -0.4616
  991MOL0     H30760   1.785  11.797   9.994  0.2218  0.5132  0.6989
  991MOL0     H30761   1.555  11.874  10.105 -2.5866  0.9434 -0.9078
  991MOL0     H30762   1.517  11.933   9.949  0.6682  1.0134 -0.0582
  991MOL0     H30763   1.558  11.633   9.971 -0.9143  0.4287  0.2497
  991MOL0     H30764   1.444  11.735   9.874  2.9597  0.5280 -1.1898
  991MOL0     H30765   1.251  11.894  10.058  0.6306  0.0535  0.0751
  991MOL0     H30766   1.006  11.715  10.268 -0.6195  0.2175 -2.0212
  991MOL0     H30767   1.036  11.850  10.170 -1.6222  0.1066  1.9608
  991MOL0     H30768   1.205  11.931  10.344 -1.7259  2.2260  0.5867
  991MOL0     H30769   1.147  11.794  10.441  0.5546 -0.2364 -0.7056
  991MOL0     H30770   1.047  12.012  10.506 -1.2088 -0.5194  0.7006
  991MOL0     H30771   0.977  12.033  10.344  2.2879 -1.0360 -2.2536
  991MOL0     H30772   0.824  11.850  10.387  0.8615  1.4400 -0.2994
  991MOL0     H30773   0.823  11.967  10.518 -0.3729 -0.0005  0.2719
  991MOL0     H30774   0.988  11.611  10.686 -1.2100 -3.8403 -1.0076
  991MOL0     H30775   0.851  11.445  10.809  0.0218  0.8437  0.3896
  991MOL0     H30776   0.195  11.428  10.900  1.5899  0.2647  1.7852
  991MOL0     H30777   0.078  11.214  10.948  1.1683  1.6603  0.3410
  991MOL0     H30778   0.297  10.812  10.808 -1.2584 -3.8634  0.0065
  991MOL0     H30779   0.216  10.892  10.695 -1.9137 -2.5933 -1.5126
  991MOL0     H30780   0.086  10.720  10.927 -0.3565 -2.5706 -0.0229
  991MOL0     H30781   0.122  10.654  10.767  0.2985 -1.7762  2.7572
  991MOL0     H30782  -0.035  10.807  10.659 -0.5206  1.6351 -0.5464
  991MOL0     H30783  -0.071  10.893  10.808  3.4626  0.9846  2.1701
  991MOL0     H30784  -0.153  10.593  10.751 -1.3533  0.9487 -0.7696
  991MOL0     H30785  -0.180  10.681  10.905  0.9152 -0.2858  0.2014
  991MOL0     H30786  -0.305  10.757  10.640  0.7437 -2.5192 -0.4135
  991MOL0     H30787  -0.323  10.846  10.790  1.9138  0.5981 -1.7163
  991MOL0     H30788  -0.517  10.708  10.749 -2.4256 -2.8098  0.6992
  991MOL0     H30789  -0.450  10.654  10.900 -0.9001  0.4207  0.9424
  991MOL0     H30790  -0.348  10.519  10.655  1.2464  1.0953  1.1767
  991MOL0     H30791  -0.332  10.466  10.817  2.8845  3.1710 -1.3794
  991MOL0     H30792  -0.503  10.328  10.699  0.8012  0.6460 -1.3553
  991MOL0     H30793  -0.606  10.464  10.670 -2.4398 -0.8376  2.8333
  991MOL0     H30794   0.411  10.992  10.792 -0.0239  0.6661 -1.2190
  991MOL0     H30795   0.534  11.199  10.770  3.0898 -0.1590  4.3511
  991MOL0     H30796   0.506  11.683  10.732 -0.0110 -1.5724 -0.9593
  991MOL0     H30797   0.631  11.843  10.622  1.0429  1.5001  3.4971
  991MOL0     H30798   1.894  11.535   9.433  0.4469  0.5477 -0.5431
  991MOL0     H30799   1.953  11.323   9.486 -1.8664  0.4798 -4.7140
  991MOL0     H30800   2.384  11.038   9.471 -1.8046  0.1562 -0.7256
  991MOL0     H30801   2.503  10.838   9.532  2.0853  1.2360  2.8299
  991MOL0     H30802   2.478  10.536   9.840 -3.9168 -0.8287 -1.1743
  991MOL0     H30803   2.390  10.682   9.890  0.6173  3.9686  0.2032
  991MOL0     H30804   2.568  10.825   9.829 -0.1435 -0.5784 -2.1444
  991MOL0     H30805   2.634  10.688   9.922  1.6145  1.9130  0.5540
  991MOL0     H30806   2.789  10.761   9.767 -2.1836  4.0208 -2.4747
  991MOL0     H30807   2.683  10.712   9.624 -0.6796 -3.5054 -0.6222
  991MOL0     H30808   2.755  10.501   9.819  0.3398 -1.2865 -0.2854
  991MOL0     H30809   2.693  10.499   9.650 -0.5307  2.0894 -0.9618
  991MOL0     H30810   3.099  10.498   9.593 -0.8849 -0.7592 -2.7825
  991MOL0     H30811   2.175  10.706   9.768 -0.1021  1.3288  1.6727
  991MOL0     H30812   2.064  10.933   9.747  1.0663 -0.4755 -1.0166
  992MOL0     O30813   2.827   9.666   4.055 -0.3672  0.3268 -0.1584
  992MOL0     C30814   2.811   9.555   4.105 -0.3741  0.4979 -0.7539
  992MOL0     O30815   2.694   9.504   4.161  0.0655 -0.0312  1.1358
  992MOL0     C30816   2.578   9.593   4.166 -1.4422  0.1498  0.2564
  992MOL0     C30817   2.452   9.552   4.123 -0.0759  0.6050  0.0216
  992MOL0     C30818   2.345   9.644   4.125 -0.8724 -0.3914 -0.7907
  992MOL0     C30819   2.361   9.777   4.161  0.9356  0.7892  0.5234
  992MOL0     O30820   2.258   9.871   4.147  0.1655 -0.5922 -0.5310
  992MOL0     C30821   2.196   9.877   4.269 -0.1111  0.6507  0.0229
  992MOL0     C30822   2.078   9.781   4.270  0.4259  0.3179  0.5985
  992MOL0     C30823   1.994   9.818   4.389 -0.5414 -0.1673  0.2161
  992MOL0     C30824   1.882   9.711   4.414 -0.1150 -0.6859  0.8781
  992MOL0     C30825   1.786   9.755   4.526 -0.1599 -0.7703 -0.0886
  992MOL0     C30826   1.716   9.894   4.503 -0.1036 -0.5107 -0.0054
  992MOL0     C30827   1.588   9.917   4.583 -0.1254 -0.4354 -0.0441
  992MOL0     C30828   1.516  10.044   4.529 -0.0461 -0.2876  0.9960
  992MOL0     N30829   1.414  10.088   4.621  0.3192  0.4305 -0.4011
  992MOL0     C30830   1.400  10.214   4.658  0.2213  0.2568 -0.5273
  992MOL0     C30831   1.284  10.213   4.725 -0.0583  0.2650  0.5895
  992MOL0     C30832   1.208  10.326   4.785  0.4414  0.6964 -0.3965
  992MOL0     C30833   1.278  10.455   4.816 -0.0076  0.2508  0.1224
  992MOL0     C30834   1.201  10.545   4.915  0.2287 -0.0093  0.0064
  992MOL0     C30835   1.119  10.665   4.850  0.6086 -0.3322 -0.4261
  992MOL0     O30836   0.989  10.615   4.800  0.2796  0.8782  0.3471
  992MOL0     C30837   0.891  10.566   4.884 -0.1252 -0.2866 -1.5157
  992MOL0     C30838   0.905  10.553   5.024  0.1307 -0.3713 -1.3319
  992MOL0     C30839   0.796  10.504   5.107  0.5037 -0.0678 -0.1672
  992MOL0     C30840   0.674  10.468   5.042 -0.4098 -0.3486 -0.8067
  992MOL0     C30841   0.553  10.432   5.124  0.1804  0.2173  0.6513
  992MOL0     O30842   0.551  10.441   5.258  0.7183 -0.2196 -0.0646
  992MOL0     C30843   0.440  10.404   5.327  0.7898 -0.0835 -0.0805
  992MOL0     C30844   0.421  10.268   5.348 -0.3130 -0.3998  0.9818
  992MOL0     C30845   0.323  10.219   5.437 -1.0777 -0.5493  0.9830
  992MOL0     C30846   0.238  10.311   5.497  0.1965  0.0501  0.8421
  992MOL0     O30847   0.140  10.261   5.580  0.7540 -0.6455 -0.3667
  992MOL0     C30848   0.020  10.342   5.586 -1.0252  0.3901  0.0666
  992MOL0     C30849   0.005  10.390   5.735 -0.2892 -0.6565 -0.0261
  992MOL0     C30850  -0.108  10.317   5.803  0.8357  0.2890  0.3937
  992MOL0     C30851  -0.244  10.347   5.734  0.5810  0.0489 -0.1667
  992MOL0     C30852  -0.356  10.277   5.811  0.2930 -0.0340  0.0925
  992MOL0     C30853  -0.360  10.119   5.788  0.9518 -0.2396 -0.2386
  992MOL0     C30854  -0.493  10.065   5.823 -0.1887  0.0559  0.1264
  992MOL0     C30855  -0.590  10.037   5.703 -0.1214  0.1418  0.0737
  992MOL0    Cl30856  -0.587  10.168   5.580 -0.3422  0.5533  0.0233
  992MOL0     C30857   0.269  10.451   5.487  1.1314 -0.4127 -0.8273
  992MOL0     C30858   0.371  10.500   5.409  0.0223 -0.2849  0.1670
  992MOL0     O30859   0.458  10.389   5.052 -0.7066  0.3356 -0.4135
  992MOL0     C30860   0.670  10.479   4.901  0.3093  0.6422 -0.0110
  992MOL0     C30861   0.770  10.523   4.824 -0.1267 -0.2909  0.1972
  992MOL0     N30862   1.240  10.080   4.742 -0.2038 -0.2366  0.6973
  992MOL0     N30863   1.320  10.004   4.670  0.1023  0.4218 -0.0371
  992MOL0     C30864   2.484   9.813   4.214  0.0522  0.3235 -0.0781
  992MOL0     C30865   2.595   9.726   4.204  0.2782 -0.6497  0.4968
  992MOL0     C30866   2.936   9.473   4.123 -0.1418  0.0679 -0.1006
  992MOL0     C30867   2.948   9.390   4.227 -0.8120  0.3402 -0.0121
  992MOL0     C30868   3.069   9.316   4.243 -0.2318 -0.3795  0.0253
  992MOL0     C30869   3.177   9.332   4.150 -0.5085  0.2249  0.7878
  992MOL0     O30870   3.286   9.246   4.166 -0.0260 -0.0986 -0.3267
  992MOL0     C30871   3.368   9.203   4.058 -0.6843 -0.1134  0.6357
  992MOL0     C30872   3.435   9.078   4.116 -0.3438 -0.0733  0.0040
  992MOL0     C30873   3.505   9.001   3.999  0.0544 -0.0634 -0.8406
  992MOL0     C30874   3.588   8.882   4.047  0.3790 -0.0830 -0.5403
  992MOL0     C30875   3.667   8.825   3.938  0.1506  1.0240 -0.4828
  992MOL0     C30876   3.727   8.776   3.846  0.4837  0.2334 -0.8016
  992MOL0     C30877   3.168   9.434   4.050  0.3433  0.3150 -0.2031
  992MOL0     C30878   3.048   9.492   4.027  0.1902 -0.7805 -0.5749
  992MOL0     H30879   2.467   9.450   4.087  1.8604  0.8785 -0.0254
  992MOL0     H30880   2.246   9.603   4.104  0.2689 -2.9834 -1.4773
  992MOL0     H30881   2.181   9.983   4.295  0.3448  0.6504  0.3063
  992MOL0     H30882   2.261   9.848   4.352 -1.1399 -0.5773  0.4252
  992MOL0     H30883   2.105   9.675   4.281  1.3803  0.7733  3.8499
  992MOL0     H30884   2.023   9.792   4.177 -1.9064  3.1915  2.1532
  992MOL0     H30885   1.954   9.919   4.381  1.7477  0.8449  0.7134
  992MOL0     H30886   2.059   9.818   4.477  0.4165  1.4602 -0.4584
  992MOL0     H30887   1.817   9.696   4.327  0.8691 -2.4520  0.3932
  992MOL0     H30888   1.924   9.612   4.433  1.5454 -0.0148  0.8030
  992MOL0     H30889   1.840   9.757   4.621 -0.1182  0.7198 -0.1098
  992MOL0     H30890   1.708   9.681   4.539 -0.1645 -1.2207 -2.2172
  992MOL0     H30891   1.684   9.908   4.399  0.9535  0.8344 -0.1836
  992MOL0     H30892   1.789   9.971   4.531  0.8225 -1.6287  0.7565
  992MOL0     H30893   1.519   9.832   4.590  0.1379 -0.5144  2.4942
  992MOL0     H30894   1.608   9.929   4.689  2.3331 -1.1127 -0.3761
  992MOL0     H30895   1.474  10.048   4.428  1.0818  1.3724  0.5427
  992MOL0     H30896   1.597  10.116   4.512  2.1942 -2.9693 -0.4474
  992MOL0     H30897   1.456  10.301   4.626 -1.9952  0.8272 -3.1954
  992MOL0     H30898   1.154  10.285   4.871  0.3395 -2.2516 -1.7429
  992MOL0     H30899   1.127  10.345   4.714  1.7975 -0.1576 -2.2839
  992MOL0     H30900   1.283  10.517   4.727 -0.3155 -0.1014 -0.1424
  992MOL0     H30901   1.378  10.437   4.857  0.2870 -1.3711 -1.2161
  992MOL0     H30902   1.139  10.485   4.982 -0.7504  0.0701 -0.8057
  992MOL0     H30903   1.284  10.585   4.974  0.8858  0.2491 -1.0716
  992MOL0     H30904   1.180  10.692   4.763 -0.4545 -1.3975 -1.5276
  992MOL0     H30905   1.092  10.749   4.915 -0.9647  0.1113 -1.6059
  992MOL0     H30906   0.990  10.587   5.082 -1.7374 -1.3304  2.2972
  992MOL0     H30907   0.810  10.488   5.213 -0.1691 -0.1351 -0.0868
  992MOL0     H30908   0.481  10.198   5.292  3.0177  0.2215  3.4377
  992MOL0     H30909   0.317  10.113   5.460 -1.4919 -0.7134  0.1627
  992MOL0     H30910  -0.058  10.270   5.560  0.6377 -1.3945 -0.1672
  992MOL0     H30911   0.029  10.423   5.513 -2.2330  0.9823  0.5472
  992MOL0     H30912   0.010  10.500   5.741 -0.6456 -0.4894 -2.0244
  992MOL0     H30913   0.093  10.363   5.794 -1.8512 -1.0624  2.2489
  992MOL0     H30914  -0.117  10.345   5.908 -0.4480  2.6734 -0.2777
  992MOL0     H30915  -0.077  10.213   5.791 -2.0195 -0.7221  1.1871
  992MOL0     H30916  -0.265  10.452   5.757  3.4184  0.2260  2.2475
  992MOL0     H30917  -0.247  10.322   5.627 -0.1144  0.1717 -0.1791
  992MOL0     H30918  -0.454  10.314   5.779  0.5387 -1.3298 -2.3609
  992MOL0     H30919  -0.335  10.299   5.916  0.3705  0.0775  0.0541
  992MOL0     H30920  -0.278  10.065   5.837 -1.2265 -1.1239  2.7316
  992MOL0     H30921  -0.341  10.096   5.683 -0.9907 -0.8839 -0.4935
  992MOL0     H30922  -0.485   9.977   5.887 -3.0382  0.3147  0.9590
  992MOL0     H30923  -0.536  10.140   5.889 -1.1577 -2.2278  2.2317
  992MOL0     H30924  -0.687  10.007   5.744 -0.4469  0.3999 -0.4919
  992MOL0     H30925  -0.553   9.956   5.640 -0.4083 -0.1486  0.2766
  992MOL0     H30926   0.209  10.513   5.554  1.4454 -1.0473  0.0570
  992MOL0     H30927   0.380  10.608   5.400 -1.6682  0.1530  2.6751
  992MOL0     H30928   0.569  10.465   4.863  0.1764 -1.8244  1.0285
  992MOL0     H30929   0.770  10.543   4.717 -0.1406 -2.1070 -0.1857
  992MOL0     H30930   2.489   9.917   4.243  1.6502  0.2735 -0.0770
  992MOL0     H30931   2.690   9.764   4.240  0.6439 -1.1931  0.1038
  992MOL0     H30932   2.874   9.385   4.306 -0.0970  0.9787  0.7268
  992MOL0     H30933   3.067   9.240   4.321 -0.0198 -1.6400 -1.1584
  992MOL0     H30934   3.450   9.270   4.029  0.8994 -0.9892  2.8039
  992MOL0     H30935   3.306   9.181   3.971 -0.2235 -2.2285  0.7863
  992MOL0     H30936   3.508   9.087   4.197  0.0092 -4.7992  0.4967
  992MOL0     H30937   3.362   9.016   4.169 -0.6037  1.2058  1.1895
  992MOL0     H30938   3.569   9.074   3.948 -0.1448  2.0245  1.6692
  992MOL0     H30939   3.429   8.961   3.931  0.3287 -0.2108 -1.0618
  992MOL0     H30940   3.668   8.905   4.118  2.1211 -1.0134 -2.0956
  992MOL0     H30941   3.522   8.815   4.103  0.9725 -1.0500 -0.9658
  992MOL0     H30942   3.761   8.715   3.765  0.8167 -1.4992  0.5843
  992MOL0     H30943   3.260   9.445   3.993  0.3192  1.3680 -0.0490
  992MOL0     H30944   3.031   9.550   3.936 -1.7950  1.5898  1.1808
  993MOL0     O30945   5.717   0.728   5.755 -0.7126  0.3955 -0.7339
  993MOL0     C30946   5.743   0.611   5.782  0.8959 -0.6200  0.2168
  993MOL0     O30947   5.648   0.511   5.794  0.5720  0.2548  0.8231
  993MOL0     C30948   5.514   0.545   5.798  0.4264  0.4212 -0.2565
  993MOL0     C30949   5.426   0.499   5.700  0.4679  0.8607 -0.4916
  993MOL0     C30950   5.290   0.550   5.704  0.3403 -1.0111 -0.0745
  993MOL0     C30951   5.248   0.646   5.782 -0.2458 -0.5408 -0.1007
  993MOL0     O30952   5.111   0.685   5.762 -0.0602 -0.4207 -0.1857
  993MOL0     C30953   5.070   0.799   5.845 -1.0842 -0.2059  0.5676
  993MOL0     C30954   4.941   0.859   5.782  0.6879 -0.5206 -0.3592
  993MOL0     C30955   4.819   0.757   5.786  0.7806  0.8282  0.2633
  993MOL0     C30956   4.679   0.817   5.772  0.1204 -0.8122 -0.7463
  993MOL0     C30957   4.576   0.704   5.759  0.2806  0.0024  0.3499
  993MOL0     C30958   4.440   0.768   5.744  0.1378  0.3983  0.4561
  993MOL0     C30959   4.336   0.651   5.713  0.2515 -0.9047  0.6407
  993MOL0     C30960   4.192   0.695   5.740 -0.0719  0.2696 -0.0037
  993MOL0     N30961   4.103   0.584   5.696 -0.5355  0.1935  0.1969
  993MOL0     C30962   4.045   0.541   5.576 -0.2417 -0.5793 -0.1015
  993MOL0     C30963   3.961   0.447   5.616  0.4077  0.0261  0.2755
  993MOL0     C30964   3.864   0.377   5.523  0.2622  0.9313  0.0300
  993MOL0     C30965   3.716   0.360   5.576  0.8179  0.3163  0.0058
  993MOL0     C30966   3.664   0.494   5.635  0.8273 -0.3888 -0.1123
  993MOL0     C30967   3.515   0.517   5.642  0.1296 -0.2420 -0.0030
  993MOL0     O30968   3.490   0.658   5.638 -0.0143 -0.5600  0.6934
  993MOL0     C30969   3.359   0.706   5.681  0.3881  0.3300  0.7912
  993MOL0     C30970   3.243   0.631   5.695  0.3706 -0.4180  0.4942
  993MOL0     C30971   3.118   0.687   5.731 -0.3177 -0.0278 -0.7356
  993MOL0     C30972   3.103   0.816   5.757 -0.0885  0.3177 -1.2231
  993MOL0     C30973   2.976   0.886   5.806 -0.1149  0.6701 -0.0640
  993MOL0     O30974   2.862   0.826   5.773  0.3788 -0.1681 -0.7110
  993MOL0     C30975   2.737   0.879   5.806 -0.2016 -0.2932 -0.8574
  993MOL0     C30976   2.707   1.002   5.871 -0.2470 -0.6301  1.2544
  993MOL0     C30977   2.580   1.037   5.898  0.4715 -1.3242  0.2299
  993MOL0     C30978   2.472   0.973   5.845 -0.5971 -0.2701 -0.3448
  993MOL0     O30979   2.354   1.041   5.850  0.2391  0.1961  0.4264
  993MOL0     C30980   2.256   1.028   5.744  0.6471 -0.7893  0.1762
  993MOL0     C30981   2.157   1.141   5.769 -0.1885 -0.3213 -0.1597
  993MOL0     C30982   2.060   1.104   5.887 -0.5506  0.8406 -0.4092
  993MOL0     C30983   1.951   1.205   5.918  0.4703 -0.2133  0.6322
  993MOL0     C30984   1.832   1.136   6.006 -0.2262  0.5404  0.2025
  993MOL0     C30985   1.702   1.200   5.989  0.3200  0.2900  0.0507
  993MOL0     C30986   1.586   1.158   6.075 -0.5145  0.3293 -0.0500
  993MOL0     C30987   1.526   1.023   6.025 -0.5462  0.2714  0.1493
  993MOL0    Cl30988   1.417   1.057   5.884 -0.0101 -0.0157 -0.1502
  993MOL0     C30989   2.493   0.858   5.779  0.2156  0.0366 -0.1004
  993MOL0     C30990   2.625   0.807   5.759 -0.7439 -0.8150 -0.4289
  993MOL0     O30991   2.994   0.992   5.870  0.4603 -0.1006  0.1927
  993MOL0     C30992   3.218   0.889   5.752 -0.0399  0.2644  0.0186
  993MOL0     C30993   3.345   0.839   5.713  0.0281 -0.0198  0.1736
  993MOL0     N30994   3.989   0.408   5.750 -0.4485  0.3527 -0.2459
  993MOL0     N30995   4.069   0.493   5.793  0.8687  0.1304  0.2559
  993MOL0     C30996   5.338   0.696   5.878  0.1713  0.0240 -0.5331
  993MOL0     C30997   5.473   0.649   5.887  0.0463 -0.1468  0.5003
  993MOL0     C30998   5.884   0.578   5.804 -0.4390  1.2946  0.8968
  993MOL0     C30999   5.961   0.656   5.879 -0.4367  0.4420  0.1007
  993MOL0     C31000   6.096   0.625   5.889 -0.7497 -0.1105  0.8422
  993MOL0     C31001   6.155   0.510   5.826  0.6680  0.1319 -0.4433
  993MOL0     O31002   6.285   0.479   5.846 -0.0534 -0.4919 -0.3142
  993MOL0     C31003   6.363   0.390   5.758 -0.4488  0.7014 -0.5931
  993MOL0     C31004   6.509   0.382   5.796  0.3633 -0.2523 -0.3766
  993MOL0     C31005   6.551   0.311   5.921 -0.6589 -0.1301  0.2268
  993MOL0     C31006   6.554   0.159   5.895 -0.3472 -0.2480 -0.5280
  993MOL0     C31007   6.593   0.077   6.006  0.0243 -0.2450  0.0125
  993MOL0     C31008   6.630   0.000   6.096 -0.5201  0.0014 -0.6063
  993MOL0     C31009   6.067   0.418   5.764 -0.7728 -0.0259  0.2966
  993MOL0     C31010   5.928   0.449   5.752 -0.0117  0.6132 -0.1809
  993MOL0     H31011   5.463   0.423   5.632  1.0648 -0.2985  1.0561
  993MOL0     H31012   5.215   0.515   5.634  0.7218 -0.8915 -0.5518
  993MOL0     H31013   5.143   0.880   5.848  2.7271 -3.2352 -1.1587
  993MOL0     H31014   5.061   0.769   5.950 -0.5639 -2.1402  0.0984
  993MOL0     H31015   4.970   0.868   5.677  4.9046 -1.5428  0.5554
  993MOL0     H31016   4.916   0.956   5.826  0.0564 -1.7893  2.2450
  993MOL0     H31017   4.825   0.702   5.880 -1.8150  0.4771  0.2866
  993MOL0     H31018   4.836   0.685   5.706 -1.4729  1.2915 -0.7040
  993MOL0     H31019   4.659   0.866   5.868  0.4915 -0.6112 -0.7742
  993MOL0     H31020   4.667   0.887   5.689 -0.1454 -0.9237 -0.8054
  993MOL0     H31021   4.586   0.631   5.841  1.1490 -1.0762 -0.6938
  993MOL0     H31022   4.593   0.644   5.670 -1.2641  3.1036 -2.2188
  993MOL0     H31023   4.433   0.835   5.658  2.2784 -1.5034 -1.3425
  993MOL0     H31024   4.414   0.814   5.839 -0.4605 -0.0173  0.5007
  993MOL0     H31025   4.335   0.629   5.606 -2.1516  1.6467  0.0136
  993MOL0     H31026   4.370   0.574   5.783  2.2110  1.3452  2.3191
  993MOL0     H31027   4.165   0.790   5.693 -0.1249  0.9992  1.4526
  993MOL0     H31028   4.169   0.715   5.845  0.0392  1.9384 -0.2685
  993MOL0     H31029   4.050   0.594   5.482 -0.7043 -0.9002 -0.3078
  993MOL0     H31030   3.901   0.276   5.502 -0.9137  0.4134  0.3485
  993MOL0     H31031   3.872   0.429   5.428 -1.2983  0.1183 -0.5758
  993MOL0     H31032   3.713   0.286   5.656  1.7626  0.4340  0.1552
  993MOL0     H31033   3.662   0.320   5.490  0.4653  0.8194 -0.0161
  993MOL0     H31034   3.697   0.494   5.739  0.8788  1.0992 -0.0980
  993MOL0     H31035   3.708   0.577   5.579 -2.1975  0.2425 -1.7928
  993MOL0     H31036   3.468   0.457   5.721 -2.2894 -2.3310 -2.7910
  993MOL0     H31037   3.450   0.471   5.567 -4.6051  0.8234  3.0340
  993MOL0     H31038   3.231   0.525   5.675 -1.8333 -0.4007  1.4857
  993MOL0     H31039   3.041   0.613   5.752  0.2939  0.0558  2.1580
  993MOL0     H31040   2.778   1.077   5.907  0.7708 -1.9713  2.1641
  993MOL0     H31041   2.559   1.133   5.944  0.4497  0.3279 -2.9144
  993MOL0     H31042   2.204   0.932   5.745 -0.0462 -0.4200  1.3931
  993MOL0     H31043   2.315   1.042   5.653  0.6035  0.2806  0.2945
  993MOL0     H31044   2.093   1.165   5.684 -0.7823 -2.7270 -0.4343
  993MOL0     H31045   2.208   1.234   5.798  0.4475 -0.2602 -1.4480
  993MOL0     H31046   2.119   1.089   5.977 -1.3844 -1.8173 -0.2368
  993MOL0     H31047   2.016   1.009   5.855  0.6618  0.8983 -2.4136
  993MOL0     H31048   1.999   1.288   5.972  2.7375 -0.2002 -1.2319
  993MOL0     H31049   1.909   1.256   5.831 -1.0650  0.5745  1.7956
  993MOL0     H31050   1.847   1.138   6.114 -1.4724 -2.9042  0.5527
  993MOL0     H31051   1.821   1.032   5.975 -1.8885  0.9467 -0.7601
  993MOL0     H31052   1.665   1.181   5.888  2.3037 -1.2184 -0.4563
  993MOL0     H31053   1.712   1.305   6.015 -1.2979  0.5079 -0.0706
  993MOL0     H31054   1.614   1.150   6.181  0.4624  0.6442 -0.2758
  993MOL0     H31055   1.495   1.220   6.068 -1.0938 -0.0649  2.6931
  993MOL0     H31056   1.462   0.963   6.091 -0.1331 -2.6248 -1.8917
  993MOL0     H31057   1.603   0.953   5.992 -3.0135 -2.9114  0.6728
  993MOL0     H31058   2.406   0.813   5.733 -2.0213  3.8511 -0.0973
  993MOL0     H31059   2.633   0.715   5.703 -0.3659  0.1288 -1.9779
  993MOL0     H31060   3.218   0.996   5.773 -0.3519 -0.0032  1.5530
  993MOL0     H31061   3.419   0.918   5.705 -1.3151  1.4481  1.5320
  993MOL0     H31062   5.307   0.784   5.933  0.4317 -1.1839  1.6536
  993MOL0     H31063   5.552   0.697   5.943  0.1645  0.4005 -0.1149
  993MOL0     H31064   5.916   0.742   5.928 -0.3242 -0.5581  2.0596
  993MOL0     H31065   6.158   0.697   5.941 -1.4799 -0.1594  1.7879
  993MOL0     H31066   6.361   0.433   5.657  0.5190  1.1983 -0.4198
  993MOL0     H31067   6.329   0.288   5.778 -1.5567  1.2566  0.4836
  993MOL0     H31068   6.557   0.337   5.709  0.9413  1.0463 -0.7561
  993MOL0     H31069   6.543   0.486   5.794 -2.2977  0.6955 -0.5909
  993MOL0     H31070   6.481   0.324   6.004 -2.8923  1.5749 -1.7875
  993MOL0     H31071   6.641   0.367   5.948 -1.5988  0.9895  1.1313
  993MOL0     H31072   6.452   0.126   5.871  0.0540 -2.8259  0.9739
  993MOL0     H31073   6.629   0.130   5.820  0.9788  0.5695  0.4479
  993MOL0     H31074   6.667  -0.078   6.160 -0.5201 -0.9573 -1.7555
  993MOL0     H31075   6.117   0.325   5.738  3.3161  1.3277  2.3714
  993MOL0     H31076   5.858   0.392   5.693  0.5002  2.8766 -3.2082
  994MOL0     O31077   9.382   9.869   4.549  0.8289 -0.1418  0.1730
  994MOL0     C31078   9.418   9.761   4.601  0.2946 -1.0985  0.1348
  994MOL0     O31079   9.365   9.639   4.586 -0.4391 -0.8202 -0.7476
  994MOL0     C31080   9.248   9.623   4.515 -1.2049 -0.3325  0.5037
  994MOL0     C31081   9.242   9.505   4.434 -0.5057 -0.5836 -0.2249
  994MOL0     C31082   9.123   9.472   4.371 -0.5233  0.3856 -0.0298
  994MOL0     C31083   9.010   9.557   4.374 -0.0651 -0.6364  0.3843
  994MOL0     O31084   8.895   9.517   4.315 -0.0953  0.0262 -0.8365
  994MOL0     C31085   8.773   9.587   4.357  0.1556  0.6065  0.7586
  994MOL0     C31086   8.651   9.505   4.324 -0.2483  0.2090  0.3504
  994MOL0     C31087   8.627   9.518   4.170 -0.3926  0.1106 -0.2693
  994MOL0     C31088   8.519   9.433   4.119 -0.6419  0.0282  1.1582
  994MOL0     C31089   8.394   9.448   4.201  0.2718 -0.1984 -0.6461
  994MOL0     C31090   8.288   9.352   4.149 -0.0794  0.2769  0.7430
  994MOL0     C31091   8.144   9.359   4.220 -0.0055 -0.7635  0.5273
  994MOL0     C31092   8.066   9.490   4.190 -0.7586  0.0549  0.5328
  994MOL0     N31093   7.933   9.478   4.253 -0.0377 -0.1934  0.2185
  994MOL0     C31094   7.843   9.370   4.255  0.2325 -0.1638 -0.2337
  994MOL0     C31095   7.733   9.405   4.326 -0.7409 -0.4659 -0.3090
  994MOL0     C31096   7.607   9.325   4.348 -0.4968 -0.4149  0.0145
  994MOL0     C31097   7.554   9.242   4.233 -1.0383 -0.2654 -0.4429
  994MOL0     C31098   7.462   9.132   4.295  0.7060  0.7618 -0.0510
  994MOL0     C31099   7.410   9.046   4.186 -0.1925  0.3404  0.4462
  994MOL0     O31100   7.330   8.929   4.222  0.1511  0.3196  0.3697
  994MOL0     C31101   7.198   8.941   4.206  0.5885 -0.2732  0.3859
  994MOL0     C31102   7.113   8.934   4.322 -0.0861 -0.7510  1.0970
  994MOL0     C31103   6.978   8.947   4.314  0.2292  0.2387 -0.1221
  994MOL0     C31104   6.912   8.979   4.196 -0.5871 -0.0202 -0.7517
  994MOL0     C31105   6.761   8.988   4.191 -0.4256 -0.2737  0.0348
  994MOL0     O31106   6.716   9.056   4.091  0.3265 -0.0363  0.3170
  994MOL0     C31107   6.582   9.076   4.051 -0.0457 -0.0513 -0.9886
  994MOL0     C31108   6.569   9.095   3.913  0.1125  0.2038 -0.0179
  994MOL0     C31109   6.443   9.130   3.857 -0.5289  0.0198 -0.2124
  994MOL0     C31110   6.322   9.122   3.935  0.0037 -0.4806 -0.0265
  994MOL0     O31111   6.205   9.135   3.874  0.3792 -0.2184 -0.5163
  994MOL0     C31112   6.091   9.189   3.948 -0.0028 -0.1387 -0.0218
  994MOL0     C31113   5.957   9.143   3.890  0.4061 -0.6442  0.5738
  994MOL0     C31114   5.845   9.185   3.986  0.0076  0.4461  0.2351
  994MOL0     C31115   5.710   9.122   3.942  0.1991 -0.1301  0.5764
  994MOL0     C31116   5.597   9.135   4.050  0.2771 -0.0097  0.4004
  994MOL0     C31117   5.481   9.051   4.005  0.7010 -0.2553 -0.5814
  994MOL0     C31118   5.369   9.066   4.106 -0.0174  0.2498  0.6532
  994MOL0     C31119   5.251   8.974   4.068 -0.2081 -1.7526  0.7781
  994MOL0    Cl31120   5.206   8.985   3.895 -0.1680  0.0655  0.2442
  994MOL0     C31121   6.340   9.094   4.070  0.4585  0.6067 -0.2807
  994MOL0     C31122   6.470   9.086   4.129 -0.2559  0.3328 -0.1804
  994MOL0     O31123   6.696   8.949   4.282 -0.2878  0.3799 -0.0372
  994MOL0     C31124   6.991   8.994   4.074 -0.0067 -0.0156 -0.5338
  994MOL0     C31125   7.132   8.965   4.081  0.2628 -0.3008  0.2610
  994MOL0     N31126   7.759   9.537   4.364  0.7348  0.5891  0.4384
  994MOL0     N31127   7.879   9.583   4.328 -0.2212  0.0472 -0.3189
  994MOL0     C31128   9.029   9.681   4.436  0.1379  0.0677 -0.0856
  994MOL0     C31129   9.144   9.710   4.506  0.7277  0.0350 -1.2137
  994MOL0     C31130   9.543   9.776   4.689  0.3248 -0.0097 -0.7974
  994MOL0     C31131   9.618   9.897   4.700 -0.1586  0.7809  0.5987
  994MOL0     C31132   9.749   9.884   4.765  0.2348  0.4807  0.1733
  994MOL0     C31133   9.791   9.770   4.837 -0.5031 -0.6690  0.5024
  994MOL0     O31134   9.909   9.736   4.901 -0.0415  0.1476  0.6662
  994MOL0     C31135  10.018   9.828   4.924 -0.2947  0.2115  0.4391
  994MOL0     C31136  10.138   9.727   4.938 -0.2748 -0.1907 -0.6800
  994MOL0     C31137  10.288   9.769   4.899 -0.3916  0.8605  0.1114
  994MOL0     C31138  10.306   9.828   4.753 -0.4531 -1.1162 -0.4635
  994MOL0     C31139  10.450   9.864   4.728 -0.3405  0.0087  0.2421
  994MOL0     C31140  10.562   9.896   4.700  0.1791 -1.0891 -1.0904
  994MOL0     C31141   9.707   9.659   4.824 -0.3307  0.2355 -0.3389
  994MOL0     C31142   9.588   9.659   4.752 -0.0602  1.2354  0.1559
  994MOL0     H31143   9.326   9.436   4.440 -0.0877 -0.0151  0.6663
  994MOL0     H31144   9.115   9.373   4.328  3.1453  1.0847 -2.8185
  994MOL0     H31145   8.767   9.687   4.312  0.4014  0.8876  1.3453
  994MOL0     H31146   8.778   9.601   4.465 -0.4832  0.3240  0.8307
  994MOL0     H31147   8.568   9.546   4.382 -0.7419 -1.9686  1.2547
  994MOL0     H31148   8.662   9.399   4.344 -1.9298 -0.3162 -1.1778
  994MOL0     H31149   8.720   9.491   4.120 -1.3180 -3.9291 -0.1525
  994MOL0     H31150   8.612   9.618   4.128  3.5470  0.2812 -1.6344
  994MOL0     H31151   8.502   9.464   4.015 -0.9141 -2.3016  0.4542
  994MOL0     H31152   8.556   9.330   4.117 -2.9277 -0.8958 -2.1076
  994MOL0     H31153   8.349   9.547   4.195  0.4356 -0.0619  0.3472
  994MOL0     H31154   8.414   9.433   4.307 -0.8192  2.1960 -0.0504
  994MOL0     H31155   8.328   9.252   4.168  0.9205 -0.4832 -4.1276
  994MOL0     H31156   8.275   9.362   4.041 -1.2639 -0.6459  0.7734
  994MOL0     H31157   8.087   9.272   4.186  0.5428 -0.9558  0.0634
  994MOL0     H31158   8.164   9.353   4.327  0.7223 -0.1222  0.4376
  994MOL0     H31159   8.060   9.507   4.082  1.4861 -1.8235  0.0047
  994MOL0     H31160   8.119   9.570   4.243  0.7769 -0.7498  0.2779
  994MOL0     H31161   7.853   9.278   4.198 -2.3938  0.3367 -1.6256
  994MOL0     H31162   7.529   9.386   4.395  0.2163  0.5306  0.0028
  994MOL0     H31163   7.624   9.255   4.431  2.9836  1.2303  0.8848
  994MOL0     H31164   7.636   9.188   4.186  1.0688  0.3163  2.3094
  994MOL0     H31165   7.504   9.303   4.157  2.5947 -1.0330 -3.7843
  994MOL0     H31166   7.515   9.075   4.371 -0.2396 -1.0771 -0.6918
  994MOL0     H31167   7.383   9.181   4.352  0.9321 -0.7625  1.6626
  994MOL0     H31168   7.492   9.001   4.129 -2.6824  0.8578 -4.0324
  994MOL0     H31169   7.359   9.109   4.112  2.7719  0.3707 -1.7340
  994MOL0     H31170   7.170   8.914   4.412  1.9014 -0.2970 -0.0106
  994MOL0     H31171   6.921   8.948   4.406 -0.1052 -1.4683 -0.2876
  994MOL0     H31172   6.658   9.084   3.853  0.7986  2.6870  0.4559
  994MOL0     H31173   6.430   9.139   3.750  1.0672  0.8431 -0.3701
  994MOL0     H31174   6.088   9.298   3.950  1.5123 -0.0583  2.4885
  994MOL0     H31175   6.095   9.152   4.051 -0.6722  0.4687  0.2292
  994MOL0     H31176   5.960   9.034   3.878 -1.4548 -0.5156 -1.7655
  994MOL0     H31177   5.946   9.189   3.791  1.5326 -0.2256  0.6246
  994MOL0     H31178   5.832   9.293   3.991 -2.5351  0.3173 -1.5547
  994MOL0     H31179   5.856   9.144   4.086  0.7055 -0.9229 -0.3671
  994MOL0     H31180   5.683   9.168   3.847  0.4658  1.9688  1.4463
  994MOL0     H31181   5.736   9.017   3.925  2.2683 -0.1954  3.3553
  994MOL0     H31182   5.567   9.240   4.056 -2.5063 -0.4230 -3.1630
  994MOL0     H31183   5.629   9.107   4.151 -0.5688  0.6934  0.8721
  994MOL0     H31184   5.519   8.948   4.001  0.3492 -0.3433 -2.1988
  994MOL0     H31185   5.453   9.073   3.902 -0.2203  3.0390  0.2520
  994MOL0     H31186   5.421   9.026   4.193  0.7546 -0.9600 -0.3335
  994MOL0     H31187   5.346   9.171   4.123 -1.2886 -0.1296  1.4158
  994MOL0     H31188   5.176   8.996   4.145 -2.0746 -3.3857 -0.4748
  994MOL0     H31189   5.280   8.870   4.085 -0.4136 -1.6896  1.5379
  994MOL0     H31190   6.259   9.075   4.139  1.9292  1.6932  1.8745
  994MOL0     H31191   6.488   9.073   4.235 -0.0485 -1.5949 -0.4101
  994MOL0     H31192   6.940   9.023   3.983 -1.5979  0.8950  0.5951
  994MOL0     H31193   7.200   8.965   3.996  0.1435  1.6954  0.1241
  994MOL0     H31194   8.955   9.758   4.457  0.3367  0.1612  0.2756
  994MOL0     H31195   9.150   9.812   4.544  1.3137  0.3716 -2.1819
  994MOL0     H31196   9.602   9.997   4.661 -0.5920  0.3283 -0.4175
  994MOL0     H31197   9.812   9.972   4.767  0.7127  0.1593  2.7874
  994MOL0     H31198  10.012   9.888   5.015  0.5849  1.3592 -0.2222
  994MOL0     H31199  10.021   9.904   4.846 -1.6335 -1.3545 -1.2086
  994MOL0     H31200  10.146   9.684   5.038  0.7109  0.5031 -0.4465
  994MOL0     H31201  10.122   9.636   4.879  1.7544 -1.4116  0.5352
  994MOL0     H31202  10.355   9.686   4.923 -1.6818  0.5980  3.4637
  994MOL0     H31203  10.316   9.857   4.959  0.2769  0.8097 -0.1197
  994MOL0     H31204  10.263   9.760   4.678  1.3986 -0.5855 -2.1052
  994MOL0     H31205  10.239   9.914   4.743 -0.4394 -1.1283 -0.6579
  994MOL0     H31206  10.659   9.928   4.671  0.4593 -1.4061 -0.5345
  994MOL0     H31207   9.737   9.561   4.860 -1.6769  0.1870  0.6977
  994MOL0     H31208   9.530   9.569   4.732 -1.3755  2.4148 -1.6562
  995MOL0     O31209   4.239   5.857   9.670  0.1215  0.4360  0.0639
  995MOL0     C31210   4.203   5.888   9.786  0.1848 -0.4056 -0.4388
  995MOL0     O31211   4.281   5.912   9.898 -0.0317 -0.8420 -0.4071
  995MOL0     C31212   4.422   5.890   9.894  0.5912 -0.2458  0.2302
  995MOL0     C31213   4.507   5.991   9.946 -0.3099  0.1483  0.4695
  995MOL0     C31214   4.646   5.984   9.924 -0.2686  0.0768  0.9504
  995MOL0     C31215   4.702   5.871   9.856 -0.0415  0.0241 -0.0708
  995MOL0     O31216   4.844   5.869   9.851 -0.3318 -0.2069 -0.0695
  995MOL0     C31217   4.917   5.758   9.900 -0.1441  0.7373 -0.1189
  995MOL0     C31218   4.982   5.665   9.796 -0.3612  0.0920  0.0677
  995MOL0     C31219   5.063   5.731   9.681  0.1474  0.1304 -0.8404
  995MOL0     C31220   5.003   5.706   9.542 -0.2193  0.0518 -0.2882
  995MOL0     C31221   5.108   5.739   9.440 -0.3734  0.1962 -0.2666
  995MOL0     C31222   5.071   5.704   9.296 -0.5793 -0.0736 -0.2114
  995MOL0     C31223   4.974   5.802   9.229  0.5158 -1.1681  0.1251
  995MOL0     C31224   4.952   5.770   9.083 -0.0304  0.6521  0.1252
  995MOL0     N31225   4.808   5.790   9.052  0.7400 -0.5741  0.6250
  995MOL0     C31226   4.747   5.908   9.032  0.3387  0.8981 -0.1385
  995MOL0     C31227   4.607   5.883   9.039  0.1135 -0.3697  0.0883
  995MOL0     C31228   4.503   5.996   9.036 -0.2459 -0.2580  0.3253
  995MOL0     C31229   4.380   5.941   9.101 -0.8139 -0.3201 -0.4655
  995MOL0     C31230   4.291   6.040   9.182 -0.0405 -0.5669 -0.9973
  995MOL0     C31231   4.209   6.130   9.090  0.1470  0.0791 -0.2827
  995MOL0     O31232   4.129   6.037   9.022 -0.0340 -0.7626  0.0805
  995MOL0     C31233   4.039   6.098   8.948  0.1326 -0.0898  0.8507
  995MOL0     C31234   4.061   6.187   8.850 -1.3295  0.0643  0.8279
  995MOL0     C31235   3.965   6.241   8.764  0.8358 -1.0154 -0.2748
  995MOL0     C31236   3.828   6.222   8.797  0.4748 -0.2494 -0.4102
  995MOL0     C31237   3.725   6.282   8.711  0.5731 -0.6444  0.3484
  995MOL0     O31238   3.595   6.223   8.728  0.0924 -0.2738 -0.0287
  995MOL0     C31239   3.482   6.291   8.696 -0.3381  0.5344  0.4327
  995MOL0     C31240   3.432   6.268   8.568  1.7202  0.1228  0.5154
  995MOL0     C31241   3.300   6.316   8.533 -0.1194  0.0214  0.1410
  995MOL0     C31242   3.218   6.372   8.626 -1.0423  0.2383  1.0130
  995MOL0     O31243   3.094   6.412   8.612  0.0853  0.2672  0.4012
  995MOL0     C31244   3.014   6.380   8.490 -0.6345  0.4967 -0.8547
  995MOL0     C31245   2.872   6.437   8.517  0.0513 -0.1257  0.2508
  995MOL0     C31246   2.783   6.350   8.609 -0.0953 -0.7723 -1.1892
  995MOL0     C31247   2.655   6.422   8.647  0.6270  0.1961  0.1707
  995MOL0     C31248   2.664   6.554   8.725  0.2945  0.5207 -0.2214
  995MOL0     C31249   2.528   6.600   8.767 -1.0237  0.0238  0.6773
  995MOL0     C31250   2.537   6.735   8.840 -0.1471 -0.0344 -0.3916
  995MOL0     C31251   2.406   6.809   8.861 -0.5852 -0.8975 -1.3900
  995MOL0    Cl31252   2.345   6.725   9.014 -0.1932 -0.6367  0.1623
  995MOL0     C31253   3.273   6.404   8.748 -0.4736 -0.6063 -0.4772
  995MOL0     C31254   3.404   6.362   8.786  0.3340 -0.0718 -0.2841
  995MOL0     O31255   3.751   6.371   8.631 -0.1941  0.0939 -0.6051
  995MOL0     C31256   3.801   6.146   8.907  0.0356  0.3148 -0.8296
  995MOL0     C31257   3.903   6.076   8.977 -0.3371  0.5531  0.1957
  995MOL0     N31258   4.596   5.741   9.046  0.0591  1.0261  0.1086
  995MOL0     N31259   4.712   5.688   9.053 -0.1543 -0.5231 -0.0854
  995MOL0     C31260   4.621   5.769   9.819  0.3769 -0.1433 -0.6852
  995MOL0     C31261   4.483   5.780   9.838  0.3528 -0.2834  0.2062
  995MOL0     C31262   4.054   5.907   9.802  0.0980 -0.3885  0.1808
  995MOL0     C31263   3.961   5.858   9.705 -0.5756 -0.2467 -0.4588
  995MOL0     C31264   3.828   5.878   9.727 -0.5759 -0.4639  0.3017
  995MOL0     C31265   3.785   5.933   9.844 -0.2821  0.2122 -0.7623
  995MOL0     O31266   3.664   5.916   9.895 -0.2616 -0.4510  0.0298
  995MOL0     C31267   3.554   5.873   9.821  0.3894 -0.0957 -1.1131
  995MOL0     C31268   3.508   5.968   9.710 -0.7132 -0.3938  0.5410
  995MOL0     C31269   3.415   6.066   9.789  0.5080  0.1207  0.6537
  995MOL0     C31270   3.368   6.177   9.702  0.8207 -0.7923  0.7206
  995MOL0     C31271   3.279   6.136   9.592 -0.0549 -0.3519 -0.2700
  995MOL0     C31272   3.198   6.106   9.513  0.6190  0.1077  0.1868
  995MOL0     C31273   3.881   5.973   9.938 -0.8080  0.3697 -0.3769
  995MOL0     C31274   4.014   5.970   9.918  0.7096  0.8035 -0.1136
  995MOL0     H31275   4.453   6.077   9.982 -0.0595  0.6459 -0.3225
  995MOL0     H31276   4.705   6.072   9.948 -1.9138  1.5060 -0.0040
  995MOL0     H31277   4.862   5.697   9.973  1.0314 -0.7922 -0.4667
  995MOL0     H31278   4.994   5.807   9.960  0.5071 -1.4438  0.9440
  995MOL0     H31279   4.911   5.595   9.751  1.1883 -0.7903 -1.0903
  995MOL0     H31280   5.061   5.602   9.839 -1.6702 -0.5235  1.6759
  995MOL0     H31281   5.164   5.691   9.694  0.3894  0.6626 -1.0782
  995MOL0     H31282   5.073   5.840   9.689 -0.6800  0.2905 -1.8323
  995MOL0     H31283   4.977   5.600   9.532 -0.6814  0.1092  0.2627
  995MOL0     H31284   4.909   5.760   9.530  0.8805  1.7708 -1.6957
  995MOL0     H31285   5.201   5.692   9.475 -0.0217  0.8938 -0.2493
  995MOL0     H31286   5.143   5.843   9.449  2.5824 -0.9003  3.7857
  995MOL0     H31287   5.035   5.601   9.301  2.7723 -1.2921  2.0560
  995MOL0     H31288   5.165   5.701   9.240  0.4694 -2.1302  1.4925
  995MOL0     H31289   4.875   5.789   9.274 -0.8853  3.0374 -1.2395
  995MOL0     H31290   5.005   5.906   9.242 -4.5071  1.0009 -2.2464
  995MOL0     H31291   4.975   5.664   9.068 -1.2438  0.2193  1.1128
  995MOL0     H31292   5.024   5.817   9.015 -0.5675 -2.4368 -2.8660
  995MOL0     H31293   4.796   6.003   9.010  2.8195 -0.6355 -1.6097
  995MOL0     H31294   4.496   6.030   8.933  1.0343 -1.7535 -0.2920
  995MOL0     H31295   4.549   6.084   9.083 -1.3705  0.8438 -0.5775
  995MOL0     H31296   4.411   5.873   9.181 -0.5381  0.9273  0.5095
  995MOL0     H31297   4.337   5.879   9.022 -2.0614  0.4320 -0.3934
  995MOL0     H31298   4.219   5.989   9.246 -0.2748  0.2795 -0.5603
  995MOL0     H31299   4.352   6.101   9.250  0.4204 -0.5004 -1.4656
  995MOL0     H31300   4.272   6.179   9.016 -1.0500 -2.1786 -2.9778
  995MOL0     H31301   4.156   6.199   9.157 -0.9464 -0.0071 -1.0184
  995MOL0     H31302   4.166   6.206   8.829 -1.3774 -0.7772 -0.2198
  995MOL0     H31303   3.993   6.281   8.667  0.7396 -1.8212 -0.6444
  995MOL0     H31304   3.501   6.224   8.496 -0.6707 -0.8482 -1.3054
  995MOL0     H31305   3.263   6.314   8.431  0.0348  3.9740 -0.1632
  995MOL0     H31306   3.011   6.272   8.475 -2.0005  0.7906 -3.1682
  995MOL0     H31307   3.054   6.418   8.396 -1.4820 -1.8804 -2.2431
  995MOL0     H31308   2.827   6.481   8.427  0.5908  2.7783  1.2713
  995MOL0     H31309   2.900   6.529   8.570  2.9929  0.1588 -1.5844
  995MOL0     H31310   2.831   6.330   8.705 -1.4665  0.3135 -0.2352
  995MOL0     H31311   2.760   6.251   8.569  0.9429 -1.4725 -0.1471
  995MOL0     H31312   2.602   6.450   8.555  1.3404  1.3684  0.0991
  995MOL0     H31313   2.601   6.348   8.707  3.7061 -0.9799  1.7135
  995MOL0     H31314   2.706   6.631   8.660 -1.4771  1.8027  0.0895
  995MOL0     H31315   2.722   6.537   8.817 -2.4711 -1.4775  1.3068
  995MOL0     H31316   2.486   6.522   8.831 -0.5297 -1.2511 -0.5006
  995MOL0     H31317   2.475   6.619   8.674  1.2196  2.1787 -0.2814
  995MOL0     H31318   2.574   6.723   8.943  0.2164 -2.0832 -0.7283
  995MOL0     H31319   2.600   6.804   8.783  1.9254 -2.0547 -0.7118
  995MOL0     H31320   2.340   6.802   8.774  0.4495 -4.1325 -2.0420
  995MOL0     H31321   2.433   6.913   8.884  1.8993 -1.1310 -2.8955
  995MOL0     H31322   3.215   6.459   8.821  0.0392 -3.0875  1.9952
  995MOL0     H31323   3.447   6.384   8.883  1.4696 -1.1882 -0.5054
  995MOL0     H31324   3.699   6.123   8.932  0.4864 -0.6624  0.1975
  995MOL0     H31325   3.879   6.020   9.067 -3.4600 -1.0011 -1.4291
  995MOL0     H31326   4.665   5.677   9.782 -2.1327 -1.6053 -0.2745
  995MOL0     H31327   4.420   5.709   9.786  0.5894  2.3205 -4.1591
  995MOL0     H31328   4.008   5.803   9.625 -0.9520  2.2871 -2.5816
  995MOL0     H31329   3.768   5.817   9.661  0.1593  0.1689 -0.9978
  995MOL0     H31330   3.476   5.867   9.898  2.4024 -4.7570  0.9259
  995MOL0     H31331   3.558   5.769   9.786 -1.3353 -0.7249  0.3797
  995MOL0     H31332   3.583   6.016   9.646 -0.8895 -1.8836 -0.8516
  995MOL0     H31333   3.459   5.910   9.631  1.9830  2.8713 -4.0374
  995MOL0     H31334   3.471   6.114   9.870  0.1867  0.7489  0.5123
  995MOL0     H31335   3.320   6.017   9.815  0.5333  0.9261  2.3583
  995MOL0     H31336   3.321   6.249   9.770  0.4718  0.5298 -0.8693
  995MOL0     H31337   3.452   6.236   9.664  0.6086  1.0617  2.9022
  995MOL0     H31338   3.128   6.076   9.437  0.6844  0.3449  0.0328
  995MOL0     H31339   3.843   6.008  10.034 -1.0963 -1.5803  0.2699
  995MOL0     H31340   4.084   6.017   9.986  0.9054  0.7642 -0.2852
  996MOL0     O31341   7.823   1.607   5.582  0.0848  0.5001 -0.3709
  996MOL0     C31342   7.876   1.598   5.689 -0.1662  0.1106 -0.0744
  996MOL0     O31343   7.809   1.600   5.813  0.4689  0.6121 -0.2024
  996MOL0     C31344   7.675   1.598   5.808 -0.7032  0.0852  0.2354
  996MOL0     C31345   7.604   1.473   5.834 -0.0832  0.3782 -0.3448
  996MOL0     C31346   7.464   1.477   5.825 -0.2001  1.1822 -0.2400
  996MOL0     C31347   7.396   1.592   5.795 -0.3106  0.3578  0.5975
  996MOL0     O31348   7.260   1.594   5.772  0.6064 -0.3473 -0.0447
  996MOL0     C31349   7.162   1.524   5.858  0.2390  1.1392  0.3483
  996MOL0     C31350   7.059   1.451   5.760 -0.7238  0.5278  0.6144
  996MOL0     C31351   6.961   1.365   5.841  0.7449  0.2765  0.2713
  996MOL0     C31352   6.854   1.440   5.913 -0.0833 -0.8234 -0.1137
  996MOL0     C31353   6.740   1.362   5.952  0.8972 -0.7769 -1.0096
  996MOL0     C31354   6.762   1.252   6.057 -0.2456 -1.4125  0.0947
  996MOL0     C31355   6.656   1.143   6.047  0.1538  0.8765 -0.2667
  996MOL0     C31356   6.696   1.018   5.950 -0.8889 -0.9249 -0.7280
  996MOL0     N31357   6.593   0.916   5.972 -0.1306  0.1558 -0.5072
  996MOL0     C31358   6.583   0.841   6.082  0.9543 -0.2240  0.2222
  996MOL0     C31359   6.464   0.779   6.061 -0.7043  0.7331  0.7853
  996MOL0     C31360   6.414   0.670   6.142 -0.5322 -0.8532 -0.4082
  996MOL0     C31361   6.375   0.716   6.283 -0.2900  0.4851  0.0726
  996MOL0     C31362   6.230   0.705   6.323  0.0992 -0.1475  0.3461
  996MOL0     C31363   6.146   0.819   6.257  0.2546 -0.3949 -0.8984
  996MOL0     O31364   6.003   0.802   6.287 -0.7475 -0.6408  0.2807
  996MOL0     C31365   5.910   0.880   6.228 -0.9637 -0.5645  0.3636
  996MOL0     C31366   5.948   0.981   6.132 -0.2856 -0.4329 -0.5998
  996MOL0     C31367   5.844   1.045   6.065  0.1849  0.2207 -0.4404
  996MOL0     C31368   5.701   1.013   6.087 -0.9025  0.3302 -0.1591
  996MOL0     C31369   5.604   1.080   6.010  0.3412 -0.2299  0.6212
  996MOL0     O31370   5.476   1.069   6.042  0.3525  0.6442  0.1274
  996MOL0     C31371   5.375   1.102   5.945  0.1885  0.1268  0.4194
  996MOL0     C31372   5.253   1.166   5.989 -0.4955  0.6358  0.4282
  996MOL0     C31373   5.153   1.183   5.894 -0.4396 -1.0011 -0.1936
  996MOL0     C31374   5.162   1.146   5.757 -0.5304  0.2835 -0.2561
  996MOL0     O31375   5.054   1.170   5.683  0.2618  0.0549  0.0284
  996MOL0     C31376   5.044   1.157   5.539 -0.5661 -0.1449 -0.4619
  996MOL0     C31377   4.935   1.247   5.474  0.8221 -0.8371  0.3691
  996MOL0     C31378   4.802   1.216   5.528 -0.5097 -0.3180  0.7171
  996MOL0     C31379   4.695   1.299   5.461 -0.4865 -0.0593  0.4891
  996MOL0     C31380   4.587   1.339   5.570  0.4525 -0.2421 -0.8337
  996MOL0     C31381   4.458   1.380   5.489 -0.2567 -0.6290  0.4407
  996MOL0     C31382   4.361   1.445   5.596 -0.5299 -0.5701  0.2054
  996MOL0     C31383   4.227   1.509   5.540 -0.3798  0.0069 -0.1709
  996MOL0    Cl31384   4.133   1.597   5.663  0.1497  0.1673  0.0600
  996MOL0     C31385   5.286   1.098   5.713  0.9876 -0.4190  0.2908
  996MOL0     C31386   5.391   1.075   5.809  0.5339 -0.2229  0.5761
  996MOL0     O31387   5.646   1.145   5.911  0.1820  0.2449  0.4960
  996MOL0     C31388   5.668   0.911   6.175 -0.5311  0.4728 -0.5469
  996MOL0     C31389   5.773   0.848   6.253  0.2190  0.1535  0.2792
  996MOL0     N31390   6.391   0.832   5.958 -0.6175 -0.6105 -0.0389
  996MOL0     N31391   6.475   0.917   5.902 -0.0978 -0.6244  0.4321
  996MOL0     C31392   7.462   1.719   5.769 -0.2495  0.3176 -0.2611
  996MOL0     C31393   7.596   1.713   5.778  1.0493  0.3998  0.3510
  996MOL0     C31394   8.020   1.587   5.674 -0.1802  0.2628  0.0289
  996MOL0     C31395   8.087   1.527   5.785 -0.2551 -0.4154  0.5240
  996MOL0     C31396   8.224   1.529   5.781 -1.5945  0.7281 -0.0654
  996MOL0     C31397   8.299   1.589   5.683  0.0609 -0.2416  0.4144
  996MOL0     O31398   8.431   1.570   5.688 -0.4237 -0.8772 -0.2803
  996MOL0     C31399   8.511   1.651   5.604 -0.8668 -0.3736 -1.2536
  996MOL0     C31400   8.658   1.638   5.647  0.3010 -0.3732  0.0201
  996MOL0     C31401   8.747   1.752   5.592  0.6234  0.4685  0.0809
  996MOL0     C31402   8.891   1.701   5.598 -0.2889  0.1459  0.0981
  996MOL0     C31403   8.990   1.811   5.584  0.0547  0.1547 -0.7687
  996MOL0     C31404   9.065   1.907   5.556  1.1743  0.2661  0.3442
  996MOL0     C31405   8.225   1.659   5.578  0.5062 -0.1544 -0.7643
  996MOL0     C31406   8.083   1.653   5.566 -0.3680  0.5003  0.3909
  996MOL0     H31407   7.660   1.387   5.869 -1.4531 -1.1032 -1.6188
  996MOL0     H31408   7.410   1.383   5.821  2.1601 -0.2916  0.2344
  996MOL0     H31409   7.099   1.598   5.909 -3.1817 -0.9027 -0.6112
  996MOL0     H31410   7.211   1.461   5.933  0.6998 -0.8665 -1.5402
  996MOL0     H31411   7.120   1.392   5.690 -0.4090  1.3103  0.2131
  996MOL0     H31412   7.004   1.527   5.703 -0.5644  0.6617  0.6415
  996MOL0     H31413   7.014   1.302   5.912  1.9669  0.7335 -0.2024
  996MOL0     H31414   6.917   1.298   5.766  0.2817 -0.2091  0.9653
  996MOL0     H31415   6.909   1.484   5.996  0.2258 -0.9244 -0.2630
  996MOL0     H31416   6.811   1.515   5.846  1.6259  0.9158  0.6621
  996MOL0     H31417   6.705   1.305   5.865 -4.5140  1.1355 -0.4952
  996MOL0     H31418   6.651   1.424   5.969  0.9801 -0.4208 -1.8372
  996MOL0     H31419   6.755   1.310   6.149  0.6980 -2.4448  0.8453
  996MOL0     H31420   6.862   1.206   6.057 -0.5047 -2.0560  2.2556
  996MOL0     H31421   6.653   1.099   6.147  3.6353  1.1034  0.0643
  996MOL0     H31422   6.559   1.189   6.023 -0.4590 -0.6887 -0.9821
  996MOL0     H31423   6.796   0.976   5.946 -0.6870 -0.5173 -0.1337
  996MOL0     H31424   6.691   1.053   5.846  0.5393 -2.1954 -1.2544
  996MOL0     H31425   6.657   0.808   6.154  0.5272 -0.0765  0.7286
  996MOL0     H31426   6.488   0.590   6.152  2.7519  1.8547 -1.3135
  996MOL0     H31427   6.321   0.632   6.099  0.0720 -2.1903 -0.6078
  996MOL0     H31428   6.397   0.821   6.302 -2.4067  0.7099  1.7279
  996MOL0     H31429   6.418   0.655   6.363 -1.6140 -2.1665 -1.0904
  996MOL0     H31430   6.192   0.608   6.290 -0.2083  0.2310 -0.4396
  996MOL0     H31431   6.232   0.714   6.432  2.4081  0.5397  0.2915
  996MOL0     H31432   6.165   0.820   6.149 -1.7756  0.6108 -1.3024
  996MOL0     H31433   6.176   0.919   6.291 -1.7032  0.5370 -1.7808
  996MOL0     H31434   6.050   1.013   6.114 -0.8038  0.6930 -1.6847
  996MOL0     H31435   5.875   1.107   5.982  0.9536  0.4326  0.0026
  996MOL0     H31436   5.235   1.183   6.095  0.7415  1.5433  0.5176
  996MOL0     H31437   5.059   1.233   5.919  0.0786  0.6613 -1.3441
  996MOL0     H31438   5.010   1.060   5.503 -0.8550 -0.4788  0.6649
  996MOL0     H31439   5.139   1.189   5.497  0.5092  2.8568  3.5590
  996MOL0     H31440   4.933   1.236   5.365  2.9792  3.1608 -0.2704
  996MOL0     H31441   4.967   1.350   5.492 -1.8459 -0.1006  1.3583
  996MOL0     H31442   4.806   1.217   5.637 -1.3636 -2.5902  0.8307
  996MOL0     H31443   4.786   1.109   5.514 -0.6915 -0.6527  3.1369
  996MOL0     H31444   4.752   1.389   5.436  0.2666  0.6683  4.2543
  996MOL0     H31445   4.657   1.255   5.368  3.3399  0.8990 -1.7485
  996MOL0     H31446   4.628   1.420   5.633  0.0481 -0.7537  0.1128
  996MOL0     H31447   4.584   1.249   5.632  0.5071  1.1260  1.2630
  996MOL0     H31448   4.406   1.292   5.449 -0.3936 -0.0383 -0.7164
  996MOL0     H31449   4.486   1.450   5.410  1.1412 -0.3230  1.1901
  996MOL0     H31450   4.337   1.367   5.668  0.6618  1.6765  3.2235
  996MOL0     H31451   4.420   1.524   5.643 -0.9588  0.2283 -0.5525
  996MOL0     H31452   4.163   1.431   5.499  0.1442  1.0476 -3.2248
  996MOL0     H31453   4.253   1.573   5.455  0.2397  2.6919  1.9185
  996MOL0     H31454   5.302   1.072   5.609 -0.2255  3.6776 -1.0895
  996MOL0     H31455   5.487   1.042   5.771  0.1122 -3.4623  1.9801
  996MOL0     H31456   5.562   0.894   6.191 -0.2841 -0.0224  0.5890
  996MOL0     H31457   5.754   0.770   6.326  0.6939  0.2435  0.4967
  996MOL0     H31458   7.408   1.810   5.744 -0.2671  0.0771 -1.1225
  996MOL0     H31459   7.645   1.810   5.775  1.0476  0.4308  1.1227
  996MOL0     H31460   8.038   1.492   5.875 -1.2061 -0.9057 -0.1673
  996MOL0     H31461   8.278   1.475   5.858  0.0771  1.8180 -0.4094
  996MOL0     H31462   8.476   1.754   5.604 -0.8073 -0.3109 -3.4528
  996MOL0     H31463   8.494   1.614   5.502  3.0794  0.1363 -2.2889
  996MOL0     H31464   8.674   1.651   5.754 -2.2538  1.7290  0.2226
  996MOL0     H31465   8.701   1.541   5.620 -0.1161 -0.3803 -0.6674
  996MOL0     H31466   8.734   1.847   5.645 -2.7539 -1.5083  3.3106
  996MOL0     H31467   8.707   1.769   5.492 -0.5214 -0.7638  0.2918
  996MOL0     H31468   8.896   1.666   5.702 -1.5617  0.8914  0.4317
  996MOL0     H31469   8.910   1.636   5.512 -0.5969  1.1120 -0.7136
  996MOL0     H31470   9.123   1.995   5.534  0.7859  1.0981  2.4052
  996MOL0     H31471   8.268   1.725   5.503  0.9348  2.6944  1.7865
  996MOL0     H31472   8.029   1.710   5.491  0.9230  1.2466  0.0064
  997MOL0     O31473   3.990   3.871   2.534  0.5277  0.4182  0.7061
  997MOL0     C31474   4.036   3.760   2.501  0.1296 -0.3555 -0.5194
  997MOL0     O31475   3.960   3.640   2.493  0.1599  0.1293 -0.4883
  997MOL0     C31476   3.820   3.641   2.485 -0.4905  0.4649 -0.3708
  997MOL0     C31477   3.745   3.729   2.411  0.8488  0.2753 -0.2350
  997MOL0     C31478   3.604   3.726   2.400 -0.1994 -0.6141 -0.3838
  997MOL0     C31479   3.535   3.626   2.468 -0.6491 -0.5746 -0.4249
  997MOL0     O31480   3.402   3.605   2.471  0.0949 -0.1400  0.6895
  997MOL0     C31481   3.313   3.679   2.383  0.4012  0.4345  0.4761
  997MOL0     C31482   3.175   3.643   2.415 -0.3090 -0.1440 -0.4643
  997MOL0     C31483   3.095   3.628   2.290 -0.6965 -0.8895  0.7882
  997MOL0     C31484   2.954   3.581   2.323  0.4498  0.7692  0.4370
  997MOL0     C31485   2.843   3.685   2.317  0.1496  0.5985  0.2090
  997MOL0     C31486   2.723   3.654   2.399 -0.2343 -0.3573 -0.2127
  997MOL0     C31487   2.604   3.746   2.382 -0.3980  0.9115 -0.3810
  997MOL0     C31488   2.544   3.784   2.518 -0.1410 -0.3170 -0.0434
  997MOL0     N31489   2.519   3.676   2.612  0.3811  0.1295  0.8594
  997MOL0     C31490   2.402   3.606   2.627 -0.3875 -1.0938  0.4055
  997MOL0     C31491   2.420   3.554   2.750 -0.3617 -0.3118 -0.3374
  997MOL0     C31492   2.314   3.473   2.823 -0.7626  0.1069 -0.1466
  997MOL0     C31493   2.212   3.566   2.892 -0.8464 -0.3305 -0.2831
  997MOL0     C31494   2.095   3.478   2.951  0.0260  1.1967  0.0555
  997MOL0     C31495   2.003   3.424   2.842  0.6276 -0.6043 -0.3270
  997MOL0     O31496   1.887   3.355   2.888 -0.0882  0.4200 -0.6268
  997MOL0     C31497   1.768   3.359   2.821  1.1832 -0.0686  0.0537
  997MOL0     C31498   1.657   3.301   2.887 -0.3973  0.3571 -0.4062
  997MOL0     C31499   1.534   3.305   2.838 -0.0920  0.1851  0.0360
  997MOL0     C31500   1.515   3.371   2.713 -0.1036 -0.6763 -0.0248
  997MOL0     C31501   1.373   3.375   2.655  0.1218 -0.7458 -0.3252
  997MOL0     O31502   1.275   3.306   2.722  0.0399 -0.2921 -0.1275
  997MOL0     C31503   1.143   3.332   2.687 -0.3808  0.2059 -0.6903
  997MOL0     C31504   1.073   3.436   2.750  0.3009 -0.6113  0.2645
  997MOL0     C31505   0.935   3.452   2.731 -0.4517 -0.7794 -0.9661
  997MOL0     C31506   0.865   3.358   2.647  0.8318  0.0082  0.8202
  997MOL0     O31507   0.732   3.384   2.622 -0.3737  0.7654  0.3786
  997MOL0     C31508   0.656   3.328   2.520  0.2705  0.5890 -0.0279
  997MOL0     C31509   0.509   3.338   2.551 -0.3648 -0.3287 -0.3858
  997MOL0     C31510   0.429   3.326   2.428  0.8209 -0.2424 -0.2573
  997MOL0     C31511   0.287   3.368   2.459  0.6350  1.1628 -0.4390
  997MOL0     C31512   0.198   3.347   2.344 -0.2020  1.0195 -0.1565
  997MOL0     C31513   0.073   3.423   2.357  0.7977  0.2019 -0.7817
  997MOL0     C31514  -0.047   3.346   2.334 -0.4107  0.4932  0.1273
  997MOL0     C31515  -0.175   3.433   2.354  0.6078 -0.0557 -0.2358
  997MOL0    Cl31516  -0.215   3.449   2.530 -0.5235  0.2653 -0.3760
  997MOL0     C31517   0.943   3.262   2.574 -0.4306  0.7277 -0.1701
  997MOL0     C31518   1.078   3.246   2.601  0.5101 -0.3702  0.6642
  997MOL0     O31519   1.345   3.461   2.576  0.8159 -0.3425  0.0784
  997MOL0     C31520   1.620   3.422   2.639 -0.1060 -0.1592 -0.2644
  997MOL0     C31521   1.743   3.415   2.697  0.0693 -0.6944  0.9982
  997MOL0     N31522   2.544   3.577   2.806 -0.2139 -0.0225  0.3322
  997MOL0     N31523   2.604   3.656   2.718 -0.2402  0.3363 -0.3324
  997MOL0     C31524   3.610   3.535   2.536  0.0077 -0.0477 -0.5391
  997MOL0     C31525   3.749   3.538   2.548  0.2640 -0.2079 -0.9763
  997MOL0     C31526   4.184   3.753   2.490  0.3821  0.6043  0.6454
  997MOL0     C31527   4.271   3.850   2.552 -1.1924 -0.3493  0.2953
  997MOL0     C31528   4.408   3.839   2.530  0.2867  0.3455 -0.6615
  997MOL0     C31529   4.465   3.725   2.467  0.0149 -0.8610 -0.1096
  997MOL0     O31530   4.596   3.728   2.451 -0.1833 -0.0506 -0.3017
  997MOL0     C31531   4.671   3.601   2.453  0.2148  0.3383 -0.0153
  997MOL0     C31532   4.810   3.652   2.445  0.7311 -0.7956 -0.5742
  997MOL0     C31533   4.868   3.723   2.563  0.5042  0.4910  0.0364
  997MOL0     C31534   5.015   3.774   2.526  0.6323  0.5682  0.5845
  997MOL0     C31535   5.079   3.816   2.651  0.0358 -0.1267  0.2125
  997MOL0     C31536   5.130   3.865   2.745  0.2740 -0.2136  0.0793
  997MOL0     C31537   4.378   3.640   2.409 -0.0178  0.0977  0.6667
  997MOL0     C31538   4.241   3.655   2.406  0.5011  0.0773 -0.0203
  997MOL0     H31539   3.793   3.810   2.357 -1.3512 -0.0012 -2.7964
  997MOL0     H31540   3.552   3.804   2.347 -1.4222 -0.0225  1.5726
  997MOL0     H31541   3.331   3.634   2.285  0.0820  0.5848  0.3473
  997MOL0     H31542   3.324   3.788   2.384  2.7138  0.2607 -0.3512
  997MOL0     H31543   3.132   3.722   2.477 -1.8899 -0.1027 -1.5388
  997MOL0     H31544   3.181   3.543   2.459 -1.2299 -1.3263 -2.7873
  997MOL0     H31545   3.139   3.555   2.222  2.3307  4.5222 -3.9883
  997MOL0     H31546   3.096   3.721   2.231 -0.4260 -2.6104 -2.1151
  997MOL0     H31547   2.927   3.498   2.258  1.4961  1.3045 -0.7171
  997MOL0     H31548   2.952   3.537   2.424  3.3819 -0.8828 -0.0995
  997MOL0     H31549   2.809   3.691   2.213  3.8936 -0.8453 -1.3051
  997MOL0     H31550   2.881   3.784   2.342  1.1610  0.2001  0.3045
  997MOL0     H31551   2.761   3.652   2.501 -2.4410  1.5497  0.7306
  997MOL0     H31552   2.699   3.553   2.365 -1.2336  0.0616 -0.7767
  997MOL0     H31553   2.642   3.828   2.320  0.5804 -0.1366 -1.2158
  997MOL0     H31554   2.525   3.702   2.320  0.2442 -0.0049 -0.5767
  997MOL0     H31555   2.455   3.847   2.516  0.1103  0.0407 -0.1496
  997MOL0     H31556   2.610   3.861   2.560 -1.8178  0.8383  0.5912
  997MOL0     H31557   2.318   3.605   2.559 -0.2605 -4.3122  0.1421
  997MOL0     H31558   2.363   3.405   2.893  1.1893  0.2793 -1.2872
  997MOL0     H31559   2.271   3.413   2.742  0.9304  1.2336 -1.9649
  997MOL0     H31560   2.174   3.650   2.833 -0.3190  0.5261  0.5585
  997MOL0     H31561   2.257   3.620   2.976  0.2353 -3.3867  1.2525
  997MOL0     H31562   2.145   3.400   3.010 -2.4999  0.7599  1.8186
  997MOL0     H31563   2.031   3.528   3.024 -1.0742  2.4613 -1.6943
  997MOL0     H31564   2.050   3.348   2.778 -2.3054 -3.3985  0.5525
  997MOL0     H31565   1.974   3.510   2.781 -2.7026 -2.7088 -2.0419
  997MOL0     H31566   1.675   3.270   2.989  0.0370  1.2052 -0.2110
  997MOL0     H31567   1.445   3.265   2.886 -0.2603 -0.1295 -0.5200
  997MOL0     H31568   1.125   3.497   2.823  1.5799  0.7789 -1.7377
  997MOL0     H31569   0.886   3.532   2.785 -2.1264 -1.2911 -1.6636
  997MOL0     H31570   0.685   3.224   2.502 -0.3728  0.3048  0.5029
  997MOL0     H31571   0.686   3.381   2.430 -0.7898  2.9856  0.9587
  997MOL0     H31572   0.490   3.440   2.586 -0.5415  0.0845 -1.6428
  997MOL0     H31573   0.479   3.273   2.633  0.2241 -0.0722  0.0411
  997MOL0     H31574   0.439   3.226   2.386  1.8603 -1.1591  2.0191
  997MOL0     H31575   0.472   3.393   2.352  0.6481 -0.1321 -0.2572
  997MOL0     H31576   0.256   3.296   2.535  1.6641 -0.6235 -1.6578
  997MOL0     H31577   0.288   3.468   2.506  0.0679  0.7335  0.5208
  997MOL0     H31578   0.173   3.240   2.341  0.4456  0.8370 -4.2947
  997MOL0     H31579   0.249   3.373   2.252  0.0529 -0.1915 -0.3805
  997MOL0     H31580   0.066   3.502   2.281 -1.2741 -0.1029 -0.9784
  997MOL0     H31581   0.064   3.471   2.454 -1.3307 -2.4857  0.5014
  997MOL0     H31582  -0.062   3.305   2.234 -2.4267 -0.2964  0.7024
  997MOL0     H31583  -0.057   3.261   2.402 -0.1242 -1.7795 -2.5171
  997MOL0     H31584  -0.257   3.387   2.299 -1.0974  2.7595 -0.2271
  997MOL0     H31585  -0.166   3.527   2.300 -0.6185 -0.7814 -1.8056
  997MOL0     H31586   0.907   3.195   2.497  4.0706 -2.2285 -0.0970
  997MOL0     H31587   1.133   3.169   2.548  0.0970  1.1286 -2.1062
  997MOL0     H31588   1.604   3.466   2.542  1.9330  0.5614 -0.3174
  997MOL0     H31589   1.823   3.443   2.630 -0.3569 -1.6718  0.0462
  997MOL0     H31590   3.559   3.457   2.592  0.7337 -0.2462 -0.1358
  997MOL0     H31591   3.806   3.474   2.616  0.6073  1.2530  0.1559
  997MOL0     H31592   4.236   3.933   2.613 -1.0290  0.9505 -1.2875
  997MOL0     H31593   4.469   3.918   2.572 -2.7464  1.2058  2.5978
  997MOL0     H31594   4.658   3.542   2.362  3.4986 -1.0539  0.2611
  997MOL0     H31595   4.655   3.554   2.551  2.4271 -0.5451 -0.0153
  997MOL0     H31596   4.872   3.562   2.436  0.9693 -0.5935 -1.0262
  997MOL0     H31597   4.810   3.713   2.354 -2.6281 -2.0854 -1.5836
  997MOL0     H31598   4.871   3.651   2.646  0.4207 -0.5198 -0.8134
  997MOL0     H31599   4.816   3.815   2.590 -0.8947 -0.2279 -0.1171
  997MOL0     H31600   5.076   3.696   2.479  0.2927  1.4201 -1.3327
  997MOL0     H31601   5.014   3.860   2.458  1.3724 -0.0668 -0.2503
  997MOL0     H31602   5.184   3.918   2.821  1.4271  0.3463 -1.0904
  997MOL0     H31603   4.423   3.550   2.368  0.1013  1.1467 -1.6613
  997MOL0     H31604   4.182   3.581   2.354 -0.1127  0.0483  0.6892
  998MOL0     O31605  10.595   9.752   4.025  0.6342  0.3719 -0.3788
  998MOL0     C31606  10.665   9.790   4.111  0.4835  0.0065  0.0230
  998MOL0     O31607  10.621   9.813   4.240 -0.9648 -0.7511  0.8969
  998MOL0     C31608  10.484   9.819   4.260  0.3768  0.4077 -0.3328
  998MOL0     C31609  10.406   9.917   4.201  1.0730  1.2952  0.3321
  998MOL0     C31610  10.271   9.926   4.233 -1.0817 -0.4645 -0.6304
  998MOL0     C31611  10.213   9.835   4.326 -0.0155 -0.9732  0.1810
  998MOL0     O31612  10.079   9.846   4.346 -0.6714  0.6925  0.2028
  998MOL0     C31613  10.011   9.756   4.432 -0.3704  0.8199  0.0443
  998MOL0     C31614   9.860   9.768   4.443  0.1897 -0.0754 -0.0182
  998MOL0     C31615   9.801   9.736   4.306  0.4220  0.6426 -0.3212
  998MOL0     C31616   9.655   9.774   4.299  0.0767 -0.5729  0.2405
  998MOL0     C31617   9.590   9.738   4.159 -0.1522  0.1325  0.0696
  998MOL0     C31618   9.469   9.832   4.133  0.1728  0.3402  0.5828
  998MOL0     C31619   9.338   9.804   4.211  0.6290  0.4888  0.0391
  998MOL0     C31620   9.206   9.849   4.137  0.2324  0.3489 -0.1795
  998MOL0     N31621   9.146   9.762   4.026  0.0269  0.7314 -0.3933
  998MOL0     C31622   9.213   9.680   3.939  0.2568  0.4528 -0.5892
  998MOL0     C31623   9.127   9.622   3.850  0.2180  0.7847 -0.8056
  998MOL0     C31624   9.144   9.512   3.751 -0.0252  0.0311  0.0947
  998MOL0     C31625   9.069   9.562   3.624 -0.1142  0.4034  0.9906
  998MOL0     C31626   9.123   9.499   3.494 -0.5483  0.6462  0.0054
  998MOL0     C31627   9.246   9.568   3.453  0.1642  0.0645 -0.1265
  998MOL0     O31628   9.312   9.501   3.342 -0.2385  0.3474 -0.3497
  998MOL0     C31629   9.438   9.542   3.304  0.9593  0.4808  0.4554
  998MOL0     C31630   9.506   9.650   3.348 -0.3357 -0.0943 -0.6037
  998MOL0     C31631   9.624   9.690   3.295 -0.2560  0.1594 -0.0312
  998MOL0     C31632   9.679   9.624   3.185  0.5459  0.1137  0.0866
  998MOL0     C31633   9.804   9.676   3.130  0.4581  0.9533  1.0982
  998MOL0     O31634   9.824   9.618   3.013 -0.8980  0.3764  0.1435
  998MOL0     C31635   9.945   9.654   2.944  1.0882  0.7044 -0.3439
  998MOL0     C31636  10.071   9.596   2.982 -0.3055 -0.1182  0.3501
  998MOL0     C31637  10.189   9.632   2.920 -0.2000 -0.2949 -0.5920
  998MOL0     C31638  10.193   9.728   2.816 -0.2900  0.2181  0.3960
  998MOL0     O31639  10.316   9.764   2.769  0.4392  0.1402 -0.0100
  998MOL0     C31640  10.336   9.787   2.631 -0.3453  0.0375 -0.5923
  998MOL0     C31641  10.480   9.757   2.600 -0.3616 -0.1064 -0.2007
  998MOL0     C31642  10.512   9.607   2.573 -0.1271  0.1121  0.5444
  998MOL0     C31643  10.653   9.597   2.516  0.0856  0.6536 -0.2010
  998MOL0     C31644  10.685   9.453   2.480  1.0004  0.1261  0.0249
  998MOL0     C31645  10.837   9.442   2.463 -0.4889 -0.7734  0.3826
  998MOL0     C31646  10.882   9.305   2.425  0.4537 -0.1178 -0.0247
  998MOL0     C31647  11.044   9.296   2.452  0.3775 -0.3324 -0.5216
  998MOL0    Cl31648  11.110   9.167   2.367 -0.0219  0.2647  0.0568
  998MOL0     C31649  10.070   9.781   2.776  0.1377 -0.5807 -0.0440
  998MOL0     C31650   9.944   9.740   2.828  0.8475  0.9080 -0.1935
  998MOL0     O31651   9.869   9.765   3.181  0.0491  0.0628  0.9724
  998MOL0     C31652   9.618   9.510   3.143  0.0020  0.7737  0.1372
  998MOL0     C31653   9.500   9.471   3.201  1.0834  0.4501 -0.1122
  998MOL0     N31654   9.011   9.690   3.877  0.3931  0.2920 -0.6223
  998MOL0     N31655   9.017   9.774   3.974 -0.3715 -1.2819  0.1428
  998MOL0     C31656  10.291   9.728   4.368  0.3118  0.5644 -0.2506
  998MOL0     C31657  10.422   9.726   4.347  1.5520  0.3654 -0.3767
  998MOL0     C31658  10.804   9.820   4.076 -0.6398  0.7477 -0.7141
  998MOL0     C31659  10.858   9.944   4.119 -0.3226 -0.0292 -0.7719
  998MOL0     C31660  10.995   9.974   4.094 -0.5195  0.6123  0.3438
  998MOL0     C31661  11.077   9.872   4.024  0.1055 -0.7214  0.6061
  998MOL0     O31662  11.206   9.898   3.978  0.3723  0.1255  0.3072
  998MOL0     C31663  11.297   9.942   4.084  0.9953  0.1493 -0.5683
  998MOL0     C31664  11.441   9.916   4.040  1.5034 -0.4531 -0.4855
  998MOL0     C31665  11.471   9.764   4.014 -0.6579  0.1175 -0.8922
  998MOL0     C31666  11.626   9.744   4.011 -0.0953  0.3911  0.9815
  998MOL0     C31667  11.662   9.598   4.008 -0.0524 -0.7664 -0.1231
  998MOL0     C31668  11.665   9.481   3.998  0.1234  1.4976  1.2199
  998MOL0     C31669  11.022   9.749   3.999  0.1052 -0.9327 -0.3136
  998MOL0     C31670  10.887   9.723   4.025 -0.1505  0.4110 -1.1341
  998MOL0     H31671  10.446   9.980   4.122  0.3315  2.1808  0.6408
  998MOL0     H31672  10.213  10.005   4.186 -1.4223  1.3361  2.5218
  998MOL0     H31673  10.045   9.763   4.536 -1.0778 -1.4974  0.4914
  998MOL0     H31674  10.033   9.657   4.389  4.8409  2.0547 -0.9120
  998MOL0     H31675   9.839   9.872   4.471  1.7227 -0.1592  1.5699
  998MOL0     H31676   9.823   9.707   4.526  0.8535  1.5510  1.5512
  998MOL0     H31677   9.801   9.629   4.282 -0.9645  0.7482 -0.8976
  998MOL0     H31678   9.854   9.780   4.221 -2.1684 -0.5489 -2.7467
  998MOL0     H31679   9.600   9.712   4.370 -1.8953 -0.5251 -1.1646
  998MOL0     H31680   9.638   9.881   4.317 -2.0736 -0.5181 -1.6216
  998MOL0     H31681   9.558   9.635   4.141 -0.7898  0.0913  1.3220
  998MOL0     H31682   9.672   9.765   4.092  3.4130 -1.8557  3.2237
  998MOL0     H31683   9.450   9.828   4.025 -0.6902  1.5828  0.6601
  998MOL0     H31684   9.497   9.936   4.153 -0.1674  0.3219  1.1887
  998MOL0     H31685   9.333   9.697   4.233  0.5124  0.1997 -1.2771
  998MOL0     H31686   9.346   9.858   4.305  3.2618  1.3573 -0.6003
  998MOL0     H31687   9.232   9.947   4.097  3.5541 -0.5439 -0.4778
  998MOL0     H31688   9.125   9.857   4.210 -0.6792  3.0566 -1.3555
  998MOL0     H31689   9.310   9.633   3.953  0.3647  1.0153  0.6537
  998MOL0     H31690   9.099   9.427   3.802 -0.1508 -0.2155 -0.4305
  998MOL0     H31691   9.250   9.491   3.729  0.2152 -0.6961  1.7671
  998MOL0     H31692   9.061   9.670   3.616 -1.3973  0.1805 -1.9855
  998MOL0     H31693   8.967   9.521   3.631 -0.3869 -0.0304 -3.0541
  998MOL0     H31694   9.152   9.395   3.509 -0.7722  0.5598 -0.1590
  998MOL0     H31695   9.036   9.520   3.431 -0.0874  1.2350 -0.4442
  998MOL0     H31696   9.309   9.582   3.541 -0.9169  2.3261  0.3565
  998MOL0     H31697   9.211   9.670   3.433 -1.5039  0.1868  2.8150
  998MOL0     H31698   9.466   9.710   3.429  0.6464 -0.1456 -0.0669
  998MOL0     H31699   9.683   9.769   3.339  1.6173 -1.1162 -0.1404
  998MOL0     H31700  10.070   9.528   3.067  1.5673 -1.5060 -0.6803
  998MOL0     H31701  10.284   9.603   2.963  0.8262  0.6894 -2.1098
  998MOL0     H31702  10.310   9.892   2.613  0.1543  0.3241  0.3113
  998MOL0     H31703  10.271   9.725   2.569  1.9977 -0.8407 -2.3237
  998MOL0     H31704  10.546   9.787   2.682  0.4280 -0.7135 -0.6086
  998MOL0     H31705  10.510   9.813   2.511  1.5455  1.4211  1.3134
  998MOL0     H31706  10.431   9.573   2.508 -2.4561  5.1745  0.2911
  998MOL0     H31707  10.494   9.562   2.671 -0.5770  0.0450  0.4363
  998MOL0     H31708  10.659   9.669   2.433 -3.1595  1.4930  0.1661
  998MOL0     H31709  10.720   9.625   2.597 -0.8237  0.0388  0.7752
  998MOL0     H31710  10.637   9.415   2.389 -1.2791 -0.4255  1.3704
  998MOL0     H31711  10.653   9.392   2.565  0.0498  0.2646 -0.2195
  998MOL0     H31712  10.885   9.475   2.556 -0.7147 -2.4413  1.1407
  998MOL0     H31713  10.867   9.501   2.376 -3.7190 -3.7211 -3.0790
  998MOL0     H31714  10.829   9.222   2.474  1.8922 -1.0911 -0.0609
  998MOL0     H31715  10.866   9.292   2.318 -2.1089  0.1861  0.2530
  998MOL0     H31716  11.063   9.293   2.560 -1.8960 -4.3440 -0.0562
  998MOL0     H31717  11.087   9.381   2.398 -0.6035 -0.4762 -1.5639
  998MOL0     H31718  10.063   9.858   2.699  3.0869 -1.3326 -1.1922
  998MOL0     H31719   9.849   9.776   2.791  0.4399  0.6867  0.6139
  998MOL0     H31720   9.662   9.438   3.076 -0.7726  0.5796 -0.1733
  998MOL0     H31721   9.451   9.380   3.166 -1.0631  0.1430  3.2203
  998MOL0     H31722  10.233   9.647   4.410 -0.0885 -1.5681 -4.3660
  998MOL0     H31723  10.489   9.655   4.395 -0.8673 -1.1001  0.9866
  998MOL0     H31724  10.798  10.015   4.175 -0.2457 -0.9554  0.5444
  998MOL0     H31725  11.032  10.070   4.128 -0.3237  0.2860  1.0654
  998MOL0     H31726  11.276   9.885   4.175 -3.3808  1.1085 -0.7508
  998MOL0     H31727  11.280  10.045   4.117  1.4825 -0.1367  0.6220
  998MOL0     H31728  11.460   9.986   3.958 -1.3766  3.0448  1.5289
  998MOL0     H31729  11.508   9.957   4.116  0.1027  0.5655  0.2291
  998MOL0     H31730  11.421   9.719   3.928 -1.3816  0.2222 -0.5333
  998MOL0     H31731  11.431   9.694   4.089  0.6662 -0.5739 -0.7929
  998MOL0     H31732  11.667   9.794   3.922  0.6105 -3.8631 -1.3639
  998MOL0     H31733  11.672   9.802   4.091  0.0499  3.4199 -1.1401
  998MOL0     H31734  11.648   9.376   3.985  0.9660  1.3763  1.0707
  998MOL0     H31735  11.084   9.675   3.949 -0.5294 -0.5994 -1.6545
  998MOL0     H31736  10.837   9.630   4.001 -1.5918  1.5256 -2.6803
  999MOL0     O31737   1.482   3.065   2.156  0.5587  0.4212  0.9175
  999MOL0     C31738   1.533   3.174   2.194  0.4494 -0.7679  0.6855
  999MOL0     O31739   1.464   3.290   2.218  0.3425 -0.2863 -0.0932
  999MOL0     C31740   1.333   3.292   2.178 -0.2365  0.4750  0.4765
  999MOL0     C31741   1.236   3.348   2.267 -0.4144 -0.8380 -0.1164
  999MOL0     C31742   1.102   3.335   2.227  0.4771  0.1714  0.7226
  999MOL0     C31743   1.061   3.285   2.104 -0.2660 -0.1232 -0.3495
  999MOL0     O31744   0.924   3.275   2.093  0.5941  0.1415  0.5148
  999MOL0     C31745   0.863   3.265   1.957  0.7429 -0.2712 -0.4979
  999MOL0     C31746   0.716   3.220   1.983 -0.1667 -1.0548  0.6520
  999MOL0     C31747   0.611   3.313   1.921 -0.0608 -0.6920  0.8258
  999MOL0     C31748   0.478   3.231   1.931 -0.3220 -0.1367 -0.4901
  999MOL0     C31749   0.363   3.325   1.893 -0.4265 -0.1776  0.2059
  999MOL0     C31750   0.240   3.235   1.892 -0.7661  0.4478 -0.4767
  999MOL0     C31751   0.116   3.315   1.868 -0.7471 -0.1418 -0.2751
  999MOL0     C31752  -0.000   3.215   1.890  0.4220  0.4923 -0.6774
  999MOL0     N31753  -0.130   3.280   1.906 -0.2862  0.4220 -0.3693
  999MOL0     C31754  -0.168   3.383   1.995  0.2777 -0.7702 -0.0657
  999MOL0     C31755  -0.298   3.415   1.962  0.2049 -0.0221  0.1873
  999MOL0     C31756  -0.378   3.507   2.038  0.3337 -0.9214 -0.7842
  999MOL0     C31757  -0.509   3.558   1.970  0.6920 -0.4478  0.0992
  999MOL0     C31758  -0.469   3.640   1.845  1.2149 -0.2425  0.6998
  999MOL0     C31759  -0.590   3.646   1.742 -0.0536  0.1150  0.5113
  999MOL0     O31760  -0.705   3.701   1.798 -0.0267  0.2369  0.2730
  999MOL0     C31761  -0.826   3.714   1.736 -0.0819 -0.1417  0.8694
  999MOL0     C31762  -0.924   3.742   1.825  0.7322  1.0419 -0.8633
  999MOL0     C31763  -1.053   3.766   1.778  0.5875  0.1737 -0.5655
  999MOL0     C31764  -1.081   3.742   1.640  0.2090 -0.3182 -0.8261
  999MOL0     C31765  -1.213   3.770   1.584  0.2550  0.2694  0.6842
  999MOL0     O31766  -1.321   3.798   1.663 -0.3164  0.3702  0.7803
  999MOL0     C31767  -1.446   3.815   1.605  0.8478  0.2901  0.5157
  999MOL0     C31768  -1.505   3.745   1.493 -0.9322 -0.1481 -0.7071
  999MOL0     C31769  -1.636   3.765   1.447  0.1066 -1.2154  0.2313
  999MOL0     C31770  -1.712   3.867   1.508  0.1132 -0.5556  0.4429
  999MOL0     O31771  -1.843   3.905   1.479  0.1800  0.0276  0.0598
  999MOL0     C31772  -1.919   3.800   1.417  0.0336  0.1781  0.9633
  999MOL0     C31773  -2.065   3.822   1.443 -0.0261 -0.7263 -0.5076
  999MOL0     C31774  -2.154   3.748   1.342 -0.2544  0.6280  0.1603
  999MOL0     C31775  -2.292   3.763   1.395  0.3553 -0.3973  0.6462
  999MOL0     C31776  -2.393   3.711   1.297  0.6880  0.1776  0.4189
  999MOL0     C31777  -2.536   3.772   1.314 -0.2872 -0.4005  0.3143
  999MOL0     C31778  -2.632   3.697   1.222 -0.6446 -0.1772 -0.7166
  999MOL0     C31779  -2.622   3.748   1.079 -0.4461 -0.0185 -0.3610
  999MOL0    Cl31780  -2.737   3.656   0.986 -0.6662 -0.1980 -0.1644
  999MOL0     C31781  -1.654   3.951   1.609 -0.4580 -0.0302 -0.5998
  999MOL0     C31782  -1.523   3.921   1.656 -0.4352 -0.2346 -0.7256
  999MOL0     O31783  -1.216   3.772   1.460  0.7037 -0.1829 -0.0980
  999MOL0     C31784  -0.971   3.709   1.547  0.1118  0.9394 -0.7131
  999MOL0     C31785  -0.848   3.692   1.595  0.0753  1.2998 -0.5323
  999MOL0     N31786  -0.335   3.332   1.855  0.6533  0.1279 -0.2695
  999MOL0     N31787  -0.231   3.258   1.823 -0.3811 -0.4782  0.0411
  999MOL0     C31788   1.159   3.248   2.014 -0.5439 -0.3780 -0.8554
  999MOL0     C31789   1.301   3.257   2.049  0.5510 -0.3864  0.7701
  999MOL0     C31790   1.679   3.171   2.224  0.3216  0.3257  0.7692
  999MOL0     C31791   1.727   3.256   2.319  0.0387  1.3882 -0.1110
  999MOL0     C31792   1.856   3.262   2.350 -1.3119 -1.6912  0.3431
  999MOL0     C31793   1.940   3.163   2.307 -0.5116  0.0558  0.3232
  999MOL0     O31794   2.069   3.143   2.343 -0.2904 -0.0258 -0.6787
  999MOL0     C31795   2.128   3.244   2.431  0.6112  0.2113  0.5298
  999MOL0     C31796   2.269   3.219   2.476 -0.9763  0.5046 -0.3993
  999MOL0     C31797   2.375   3.151   2.368  0.7981 -0.6850  0.6385
  999MOL0     C31798   2.494   3.083   2.443  1.2046 -1.0006 -0.1982
  999MOL0     C31799   2.572   3.195   2.495 -0.2578  0.0586 -0.1786
  999MOL0     C31800   2.645   3.285   2.541  0.4585 -0.6905  1.0894
  999MOL0     C31801   1.893   3.060   2.221 -0.3013  0.4862 -0.5222
  999MOL0     C31802   1.766   3.069   2.171  0.2314  0.9637  0.1330
  999MOL0     H31803   1.266   3.392   2.362 -0.5713  2.0290 -1.2933
  999MOL0     H31804   1.015   3.349   2.291 -1.9906 -3.3002 -1.5033
  999MOL0     H31805   0.916   3.186   1.903 -1.0853 -1.5870 -0.4690
  999MOL0     H31806   0.864   3.353   1.893  0.6319 -0.7591 -1.1807
  999MOL0     H31807   0.697   3.189   2.086  2.5054 -1.0190  1.2175
  999MOL0     H31808   0.715   3.123   1.932  0.1474 -1.1109  0.7540
  999MOL0     H31809   0.636   3.346   1.821 -0.4738 -2.6853  0.0028
  999MOL0     H31810   0.602   3.407   1.975  1.5901  1.6529 -2.6786
  999MOL0     H31811   0.484   3.152   1.855 -2.3052 -0.6633 -0.1350
  999MOL0     H31812   0.459   3.189   2.030 -1.4615  2.2204  0.3637
  999MOL0     H31813   0.364   3.382   1.800 -3.6464 -2.5164 -1.4494
  999MOL0     H31814   0.354   3.394   1.977  0.1316 -2.2842  2.0846
  999MOL0     H31815   0.227   3.188   1.990  1.1603 -0.8050 -0.7656
  999MOL0     H31816   0.251   3.159   1.813  1.1935 -0.6568  0.7629
  999MOL0     H31817   0.098   3.391   1.944 -0.3214 -1.0543  0.7690
  999MOL0     H31818   0.122   3.366   1.772 -0.4326  1.6282  0.6485
  999MOL0     H31819   0.016   3.151   1.977 -2.1505 -1.8890 -1.7828
  999MOL0     H31820  -0.009   3.144   1.807  0.4570 -0.2609 -0.0480
  999MOL0     H31821  -0.104   3.433   2.066  1.5332 -0.9792 -1.0005
  999MOL0     H31822  -0.310   3.586   2.069  0.0082 -0.4719 -1.2060
  999MOL0     H31823  -0.404   3.457   2.132  2.3510 -0.0479  0.2955
  999MOL0     H31824  -0.559   3.624   2.042  0.6121 -2.8792  2.4308
  999MOL0     H31825  -0.580   3.482   1.937  2.2672 -1.6314 -0.6577
  999MOL0     H31826  -0.422   3.735   1.873  2.1745 -0.0588 -1.3487
  999MOL0     H31827  -0.388   3.587   1.794  0.7767 -0.4978  0.2593
  999MOL0     H31828  -0.619   3.543   1.724 -1.8782  1.0818 -2.9058
  999MOL0     H31829  -0.557   3.693   1.649 -1.9555 -2.5048 -1.5917
  999MOL0     H31830  -0.911   3.766   1.930  2.6896  0.0404 -0.8313
  999MOL0     H31831  -1.134   3.788   1.847  0.4110  1.0777 -1.0513
  999MOL0     H31832  -1.445   3.667   1.446 -0.3877 -0.5760  0.6631
  999MOL0     H31833  -1.680   3.711   1.364  0.7003 -3.5321  1.3256
  999MOL0     H31834  -1.906   3.700   1.457 -4.9826 -1.9594 -1.8302
  999MOL0     H31835  -1.902   3.790   1.309 -0.4831 -1.3951  1.0064
  999MOL0     H31836  -2.092   3.928   1.438 -2.2415 -1.2779 -1.5966
  999MOL0     H31837  -2.080   3.789   1.546  0.3553 -2.1031 -0.8774
  999MOL0     H31838  -2.119   3.644   1.346 -2.2009 -0.0297  1.7209
  999MOL0     H31839  -2.141   3.778   1.237 -1.1486  0.0629 -0.1207
  999MOL0     H31840  -2.296   3.713   1.493 -1.0563  1.5536  1.6558
  999MOL0     H31841  -2.315   3.869   1.409 -0.2942  0.5719 -5.2807
  999MOL0     H31842  -2.405   3.603   1.290 -2.9036  0.4166  1.2916
  999MOL0     H31843  -2.373   3.737   1.192  1.6505  1.7458  0.9613
  999MOL0     H31844  -2.536   3.881   1.306 -2.0494 -0.5214 -2.4041
  999MOL0     H31845  -2.565   3.755   1.418 -2.1609 -0.1397 -0.1335
  999MOL0     H31846  -2.612   3.590   1.237  0.2204  0.2660  1.5685
  999MOL0     H31847  -2.732   3.710   1.264  0.6930  1.5144  2.2110
  999MOL0     H31848  -2.523   3.735   1.034 -0.1363 -0.1978  0.3453
  999MOL0     H31849  -2.657   3.851   1.089 -2.6350 -0.8448  1.4280
  999MOL0     H31850  -1.713   4.028   1.659  0.2470 -0.2416  0.5959
  999MOL0     H31851  -1.495   3.969   1.749  3.2713 -1.9769 -0.7540
  999MOL0     H31852  -0.998   3.705   1.442  0.1389  1.9201 -0.7647
  999MOL0     H31853  -0.773   3.664   1.521 -0.6528  0.2720 -0.9130
  999MOL0     H31854   1.133   3.217   1.913  0.8138  1.4669 -1.8236
  999MOL0     H31855   1.382   3.226   1.984  0.5347  1.0362  0.0292
  999MOL0     H31856   1.660   3.329   2.365 -2.6752 -1.0913  0.1415
  999MOL0     H31857   1.893   3.351   2.400  2.5339 -1.4314 -2.5797
  999MOL0     H31858   2.069   3.264   2.520 -0.8914  0.6877 -0.5293
  999MOL0     H31859   2.125   3.344   2.387  0.6166  0.4338  1.0356
  999MOL0     H31860   2.301   3.322   2.495 -2.4848  1.5691 -3.1235
  999MOL0     H31861   2.276   3.172   2.575  0.6927  2.2354  0.3658
  999MOL0     H31862   2.406   3.214   2.285 -1.6466 -5.4037 -4.4763
  999MOL0     H31863   2.317   3.071   2.321 -2.6594  0.0326  3.2589
  999MOL0     H31864   2.452   3.029   2.529  1.3534  0.0154  0.5242
  999MOL0     H31865   2.541   3.011   2.375 -0.0916 -1.4854 -0.6117
  999MOL0     H31866   2.696   3.373   2.573 -0.7217 -0.2658  1.9042
  999MOL0     H31867   1.953   2.975   2.191  1.3105  0.2165  2.9019
  999MOL0     H31868   1.736   2.996   2.097  0.4093  0.9955  0.0278
 1000MOL0     O31869   8.746   4.590   3.949  0.3303 -0.5735  0.6255
 1000MOL0     C31870   8.727   4.674   4.037 -0.4611  1.2739 -0.0413
 1000MOL0     O31871   8.603   4.727   4.072 -0.0426 -0.3934 -0.0324
 1000MOL0     C31872   8.486   4.709   3.995 -0.4753  0.2875 -0.4319
 1000MOL0     C31873   8.456   4.597   3.926 -0.4823  0.1385  1.0917
 1000MOL0     C31874   8.346   4.576   3.847 -0.8141 -0.1841 -0.1910
 1000MOL0     C31875   8.252   4.677   3.841 -0.3898  0.1241  0.2282
 1000MOL0     O31876   8.132   4.664   3.775 -0.1724  0.1172  0.0940
 1000MOL0     C31877   8.115   4.563   3.675  0.3421 -0.0806  0.3538
 1000MOL0     C31878   7.975   4.572   3.615  1.0247  0.3870  0.9339
 1000MOL0     C31879   7.866   4.509   3.716 -0.5681 -0.1935  0.9464
 1000MOL0     C31880   7.730   4.557   3.677 -0.4243  0.4144 -0.0719
 1000MOL0     C31881   7.667   4.468   3.567 -0.4095 -0.1947 -0.0451
 1000MOL0     C31882   7.544   4.525   3.519 -0.2202 -0.6541 -0.5496
 1000MOL0     C31883   7.488   4.438   3.411 -0.1744 -0.4586  0.0369
 1000MOL0     C31884   7.546   4.459   3.269  0.5224  0.4616  0.8017
 1000MOL0     N31885   7.495   4.578   3.207  0.2334 -0.0421  0.7735
 1000MOL0     C31886   7.379   4.582   3.126 -0.6955 -0.8307 -0.6730
 1000MOL0     C31887   7.374   4.707   3.079 -0.6498 -0.0636 -0.0140
 1000MOL0     C31888   7.290   4.748   2.970  1.5393 -0.3873  0.0937
 1000MOL0     C31889   7.339   4.720   2.830 -1.0333  0.2140  0.3228
 1000MOL0     C31890   7.315   4.828   2.720  0.1056 -0.4842  0.0627
 1000MOL0     C31891   7.164   4.863   2.704 -0.4743  0.2371  0.5690
 1000MOL0     O31892   7.079   4.757   2.661 -0.0087 -0.1242 -0.5781
 1000MOL0     C31893   6.952   4.796   2.618 -0.0605 -0.0070  0.8512
 1000MOL0     C31894   6.892   4.722   2.519 -0.7652  0.1677  0.0096
 1000MOL0     C31895   6.757   4.735   2.477  0.0479  0.5917  0.6071
 1000MOL0     C31896   6.680   4.835   2.543 -0.3398  0.2657  0.7156
 1000MOL0     C31897   6.535   4.853   2.522 -0.1582  0.2321  0.2758
 1000MOL0     O31898   6.473   4.748   2.476  0.6223  0.1528  0.0848
 1000MOL0     C31899   6.341   4.739   2.488  0.1932 -0.3078  0.1576
 1000MOL0     C31900   6.260   4.731   2.375  0.0542  0.4666 -0.8043
 1000MOL0     C31901   6.124   4.701   2.371 -0.5148 -0.2357  0.2591
 1000MOL0     C31902   6.053   4.683   2.486  0.6047 -0.4412 -0.4714
 1000MOL0     O31903   5.918   4.659   2.503 -0.4363 -0.0719  0.5021
 1000MOL0     C31904   5.836   4.607   2.402 -0.3036  0.0740  0.2550
 1000MOL0     C31905   5.864   4.459   2.393 -0.8443  0.7121 -0.5832
 1000MOL0     C31906   5.766   4.390   2.298 -0.6662  2.0550 -0.1542
 1000MOL0     C31907   5.806   4.247   2.278 -0.0359 -0.7984  0.0989
 1000MOL0     C31908   5.682   4.164   2.237 -0.3060  0.1741  0.0489
 1000MOL0     C31909   5.728   4.033   2.180  0.0287 -0.4919 -0.4158
 1000MOL0     C31910   5.594   3.947   2.152 -0.4428 -0.0190  0.0905
 1000MOL0     C31911   5.573   3.929   2.003 -0.0991 -0.4182  1.1611
 1000MOL0    Cl31912   5.502   4.087   1.933  0.2576  0.0250 -0.0880
 1000MOL0     C31913   6.129   4.687   2.607  0.0874 -0.0581  0.0311
 1000MOL0     C31914   6.267   4.713   2.611  0.0663 -0.7835  0.8949
 1000MOL0     O31915   6.491   4.956   2.558 -0.1129 -0.1756 -0.0153
 1000MOL0     C31916   6.744   4.914   2.639 -0.3880 -1.0911  0.2462
 1000MOL0     C31917   6.881   4.897   2.678  0.4985  0.1868 -0.2461
 1000MOL0     N31918   7.490   4.772   3.129  0.3523  0.2002 -0.3634
 1000MOL0     N31919   7.562   4.696   3.200  1.0483  0.2726 -0.2203
 1000MOL0     C31920   8.266   4.785   3.927  0.3322  1.2476  0.3846
 1000MOL0     C31921   8.382   4.797   4.008  0.4636  0.5407  0.8119
 1000MOL0     C31922   8.845   4.718   4.103 -0.0554  0.8899 -0.3966
 1000MOL0     C31923   8.961   4.631   4.125 -0.7134  0.2299  0.0323
 1000MOL0     C31924   9.079   4.686   4.192  0.4894 -0.0685  0.8251
 1000MOL0     C31925   9.075   4.821   4.226  0.9812 -0.4168  0.2575
 1000MOL0     O31926   9.188   4.866   4.290 -0.8973 -0.4903 -0.2552
 1000MOL0     C31927   9.192   5.009   4.318  0.7624 -0.8404  0.2233
 1000MOL0     C31928   9.329   5.044   4.367 -0.6871  0.7207 -0.1146
 1000MOL0     C31929   9.338   5.209   4.370 -0.1088  0.8169  0.8095
 1000MOL0     C31930   9.481   5.271   4.401  0.6556 -0.1676  0.3698
 1000MOL0     C31931   9.464   5.419   4.415  0.3409 -0.0432  0.0015
 1000MOL0     C31932   9.448   5.541   4.423  0.6738  0.1752 -0.3763
 1000MOL0     C31933   8.961   4.895   4.214 -0.3934  0.5872  0.1210
 1000MOL0     C31934   8.852   4.850   4.148  0.0877 -0.1763  1.1790
 1000MOL0     H31935   8.527   4.516   3.911 -0.2459  0.8600 -2.5274
 1000MOL0     H31936   8.348   4.487   3.785 -5.2505 -1.7810  1.5692
 1000MOL0     H31937   8.130   4.466   3.723  0.9676 -1.1212 -1.8201
 1000MOL0     H31938   8.186   4.569   3.592 -2.2589  0.9826 -1.9643
 1000MOL0     H31939   7.973   4.521   3.518 -0.8273 -0.2283  1.2661
 1000MOL0     H31940   7.949   4.672   3.581  1.4927  0.4083  0.6277
 1000MOL0     H31941   7.880   4.526   3.823  2.1740  0.8372  0.4961
 1000MOL0     H31942   7.867   4.400   3.710 -4.0644 -0.3005  0.2643
 1000MOL0     H31943   7.670   4.544   3.767  0.9018 -2.8483  0.4516
 1000MOL0     H31944   7.726   4.661   3.643 -0.0604  0.5212  0.2039
 1000MOL0     H31945   7.657   4.376   3.624 -0.0318 -0.0817  0.2067
 1000MOL0     H31946   7.741   4.452   3.488 -0.6409  2.2738 -0.8650
 1000MOL0     H31947   7.552   4.623   3.473 -0.3447 -0.8442 -0.9790
 1000MOL0     H31948   7.472   4.543   3.599  0.5681  0.5231 -0.0678
 1000MOL0     H31949   7.512   4.334   3.434  2.8032 -0.8986 -4.0486
 1000MOL0     H31950   7.382   4.460   3.400 -0.1192 -0.7502 -1.1829
 1000MOL0     H31951   7.527   4.376   3.200  0.8041  2.8294 -2.3512
 1000MOL0     H31952   7.655   4.464   3.273  0.6084 -1.0773  1.0595
 1000MOL0     H31953   7.311   4.499   3.111 -0.6610 -0.4872 -3.1653
 1000MOL0     H31954   7.284   4.856   2.989 -0.3480 -0.4064 -0.2045
 1000MOL0     H31955   7.186   4.717   2.964  1.4319  0.0548 -0.4956
 1000MOL0     H31956   7.295   4.627   2.793 -1.7238  1.0899 -1.1769
 1000MOL0     H31957   7.448   4.711   2.826 -1.0153  0.6335 -0.2013
 1000MOL0     H31958   7.370   4.918   2.747 -1.0364 -0.0663  1.1198
 1000MOL0     H31959   7.356   4.780   2.631 -0.8636 -1.2958  0.0253
 1000MOL0     H31960   7.161   4.943   2.629 -1.0791 -1.7129 -1.6115
 1000MOL0     H31961   7.127   4.905   2.798 -1.0952 -1.7239  1.2504
 1000MOL0     H31962   6.955   4.641   2.481 -0.9104 -1.8310  3.6052
 1000MOL0     H31963   6.726   4.672   2.394 -1.8936  2.4251 -0.1649
 1000MOL0     H31964   6.288   4.751   2.272  1.7500  0.6165 -0.3372
 1000MOL0     H31965   6.078   4.701   2.272 -0.4542  1.0765  0.2132
 1000MOL0     H31966   5.848   4.651   2.302 -0.8087 -2.6949 -1.1357
 1000MOL0     H31967   5.731   4.610   2.432 -0.7340 -2.0327 -0.8718
 1000MOL0     H31968   5.866   4.420   2.495 -0.0075 -2.1024 -1.5960
 1000MOL0     H31969   5.964   4.445   2.351 -0.2842 -1.5892  1.2871
 1000MOL0     H31970   5.756   4.446   2.204  1.5745  0.4078 -1.4706
 1000MOL0     H31971   5.672   4.390   2.354 -0.9712  1.5233 -0.6525
 1000MOL0     H31972   5.892   4.233   2.212 -1.4334 -1.2022 -1.6985
 1000MOL0     H31973   5.838   4.217   2.378  2.7043  0.5380 -0.2792
 1000MOL0     H31974   5.622   4.219   2.165  2.3434  2.8936 -0.2993
 1000MOL0     H31975   5.619   4.154   2.326 -1.9694  1.9242 -0.8483
 1000MOL0     H31976   5.808   3.992   2.241  1.2088 -0.1183 -1.6620
 1000MOL0     H31977   5.772   4.065   2.085 -1.5905 -0.4868 -1.2032
 1000MOL0     H31978   5.611   3.850   2.199  1.3701  0.0834 -0.2903
 1000MOL0     H31979   5.499   3.982   2.195 -2.5821 -2.7496 -2.0261
 1000MOL0     H31980   5.503   3.846   1.988  0.4518 -0.9773  1.6314
 1000MOL0     H31981   5.669   3.905   1.957  0.4405 -2.3748  3.1040
 1000MOL0     H31982   6.074   4.677   2.700  1.2935  0.3178  0.8058
 1000MOL0     H31983   6.316   4.705   2.708  0.0927 -1.2441  0.8431
 1000MOL0     H31984   6.683   4.989   2.689  2.0911  0.5219  1.0659
 1000MOL0     H31985   6.925   4.956   2.757 -0.3304 -0.2519  0.5723
 1000MOL0     H31986   8.197   4.869   3.928  1.3943  2.1561 -0.3989
 1000MOL0     H31987   8.396   4.887   4.066  1.7250  1.4332 -0.8143
 1000MOL0     H31988   8.974   4.543   4.063  1.2265 -1.5668  2.7414
 1000MOL0     H31989   9.174   4.634   4.194  1.2694  1.2539  0.1357
 1000MOL0     H31990   9.118   5.033   4.394  2.4546 -0.2172  1.7514
 1000MOL0     H31991   9.164   5.071   4.232 -1.8507 -2.7227 -0.3888
 1000MOL0     H31992   9.348   4.993   4.462 -0.8257  0.3805 -0.2695
 1000MOL0     H31993   9.407   5.006   4.300 -0.9316  2.7034 -1.6125
 1000MOL0     H31994   9.262   5.246   4.439  0.2801  1.2414  1.0090
 1000MOL0     H31995   9.312   5.250   4.272  2.1050  0.0251 -0.1720
 1000MOL0     H31996   9.514   5.221   4.492  1.0449 -0.6905 -0.0553
 1000MOL0     H31997   9.551   5.243   4.322 -1.5170 -0.9758 -1.3800
 1000MOL0     H31998   9.423   5.645   4.420 -1.4539 -0.2141  1.4844
 1000MOL0     H31999   8.960   4.992   4.264  0.9271  0.0215  1.3077
 1000MOL0     H32000   8.778   4.923   4.119  0.3743  0.7298  2.5947
 1001MOL0     O32001   7.909   7.922   0.950 -0.1703 -0.3674 -0.3085
 1001MOL0     C32002   7.966   7.999   0.868 -0.3667 -0.6103 -0.3997
 1001MOL0     O32003   7.917   8.127   0.844  0.2751 -0.3714  0.3788
 1001MOL0     C32004   7.804   8.165   0.907 -0.2205 -0.0406  0.2067
 1001MOL0     C32005   7.803   8.206   1.041 -0.1274  0.6183  0.1512
 1001MOL0     C32006   7.685   8.259   1.087  0.6689  0.2703  0.3595
 1001MOL0     C32007   7.568   8.255   1.024  0.0810  0.1918  0.0508
 1001MOL0     O32008   7.453   8.311   1.082  0.2780 -0.2548  0.0401
 1001MOL0     C32009   7.448   8.456   1.046 -0.1470  0.5106  0.7864
 1001MOL0     C32010   7.314   8.515   1.105  0.1775 -0.4601 -0.2645
 1001MOL0     C32011   7.206   8.463   1.018  0.2442 -0.8691 -0.9663
 1001MOL0     C32012   7.083   8.558   1.005  0.8943  0.3146 -0.4327
 1001MOL0     C32013   6.984   8.481   0.917  0.4987  0.0656  0.1387
 1001MOL0     C32014   6.875   8.569   0.872 -0.4019  1.4260  0.3602
 1001MOL0     C32015   6.798   8.482   0.769  0.8014  0.2233  0.3916
 1001MOL0     C32016   6.699   8.574   0.699  0.1051 -0.1635 -0.4424
 1001MOL0     N32017   6.575   8.599   0.786  0.0158 -0.0997 -0.2829
 1001MOL0     C32018   6.527   8.530   0.900  0.1140 -0.1667 -0.3382
 1001MOL0     C32019   6.405   8.584   0.922 -0.3251 -0.1781 -0.8036
 1001MOL0     C32020   6.294   8.537   1.019  0.6037 -0.6749  0.3568
 1001MOL0     C32021   6.335   8.407   1.110 -0.7262 -0.1174  0.1939
 1001MOL0     C32022   6.245   8.380   1.230 -0.0987 -0.2607 -0.1093
 1001MOL0     C32023   6.108   8.326   1.202  0.0315  0.2645  0.4804
 1001MOL0     O32024   6.008   8.433   1.188 -0.1645 -0.8886  0.1555
 1001MOL0     C32025   5.878   8.406   1.223  0.1969  0.9107 -0.6715
 1001MOL0     C32026   5.778   8.484   1.155 -0.7176  1.0080  0.8116
 1001MOL0     C32027   5.644   8.445   1.171 -0.0381  1.0799 -0.2237
 1001MOL0     C32028   5.608   8.330   1.246  0.0064  0.8541 -0.0072
 1001MOL0     C32029   5.466   8.284   1.247 -0.0969 -0.2212 -0.2856
 1001MOL0     O32030   5.431   8.190   1.339  0.4623 -0.1412  0.3413
 1001MOL0     C32031   5.314   8.124   1.316 -0.1740  0.1063  1.2297
 1001MOL0     C32032   5.209   8.133   1.401  0.7339 -0.7840  0.2693
 1001MOL0     C32033   5.091   8.059   1.382 -0.4277 -0.1862  0.1045
 1001MOL0     C32034   5.077   7.969   1.280  0.0203 -0.7499  0.0671
 1001MOL0     O32035   4.965   7.897   1.256  0.7896 -0.2877 -1.1778
 1001MOL0     C32036   4.852   7.914   1.346 -0.7985  0.5347  0.4841
 1001MOL0     C32037   4.726   7.869   1.269 -0.3573 -0.5102  0.4085
 1001MOL0     C32038   4.613   7.800   1.354  0.3761 -0.5258 -0.3112
 1001MOL0     C32039   4.502   7.747   1.269  0.1421 -0.0491  0.2159
 1001MOL0     C32040   4.396   7.663   1.337  0.4268 -0.4092 -0.4714
 1001MOL0     C32041   4.289   7.632   1.233  0.1807  0.3460  0.3383
 1001MOL0     C32042   4.176   7.558   1.301  0.3764  0.3456  0.1798
 1001MOL0     C32043   4.088   7.505   1.188 -0.4916 -0.2313  0.1011
 1001MOL0    Cl32044   3.950   7.417   1.254  0.2645 -0.3318 -0.3381
 1001MOL0     C32045   5.182   7.961   1.192  0.4186  0.3199  0.3594
 1001MOL0     C32046   5.295   8.040   1.201 -0.3014  0.6717  0.8181
 1001MOL0     O32047   5.399   8.323   1.152  0.0156  0.4075 -0.6545
 1001MOL0     C32048   5.711   8.268   1.326 -1.0255 -0.0304  1.0692
 1001MOL0     C32049   5.843   8.311   1.317  0.7190 -0.3157 -0.8108
 1001MOL0     N32050   6.383   8.692   0.836  0.1470  0.2872  0.6874
 1001MOL0     N32051   6.484   8.709   0.761 -0.2376  0.0701 -0.2154
 1001MOL0     C32052   7.557   8.194   0.900  0.2702  0.7495  0.1403
 1001MOL0     C32053   7.679   8.153   0.836 -0.7524  0.0955 -0.6107
 1001MOL0     C32054   8.055   7.938   0.767 -0.7351 -0.0041  0.3723
 1001MOL0     C32055   8.111   8.017   0.662 -0.2612 -0.6363  0.4706
 1001MOL0     C32056   8.198   7.945   0.576  0.3746  0.1930  0.7466
 1001MOL0     C32057   8.224   7.806   0.594 -0.4765  0.2862  0.1654
 1001MOL0     O32058   8.312   7.760   0.503 -0.4268  0.6723  0.0708
 1001MOL0     C32059   8.375   7.633   0.537 -0.2807  0.1886  0.8401
 1001MOL0     C32060   8.463   7.591   0.422 -0.0365  0.8469 -0.2940
 1001MOL0     C32061   8.498   7.436   0.430 -0.3855  0.3028  0.4951
 1001MOL0     C32062   8.468   7.359   0.297 -0.3141 -0.5512  0.3050
 1001MOL0     C32063   8.326   7.323   0.289 -0.5807  0.8747  1.4265
 1001MOL0     C32064   8.209   7.328   0.278  0.0524 -0.5801 -0.4082
 1001MOL0     C32065   8.162   7.732   0.697 -0.5942 -0.2496  0.2435
 1001MOL0     C32066   8.084   7.807   0.781  0.2398  0.2191  0.7143
 1001MOL0     H32067   7.887   8.203   1.110 -0.7956 -0.9412  0.9515
 1001MOL0     H32068   7.679   8.306   1.185 -0.5618  1.0317 -0.0484
 1001MOL0     H32069   7.458   8.450   0.938  0.0349  1.5202  0.7418
 1001MOL0     H32070   7.534   8.509   1.087  0.6144 -0.2704  0.2329
 1001MOL0     H32071   7.327   8.623   1.112 -0.6983 -0.3192 -0.7090
 1001MOL0     H32072   7.290   8.484   1.207  1.1439 -0.3352  0.0138
 1001MOL0     H32073   7.176   8.367   1.062 -1.9522 -0.5306 -1.6178
 1001MOL0     H32074   7.242   8.452   0.915  0.2158  2.3341 -1.4278
 1001MOL0     H32075   7.029   8.569   1.100 -1.7267 -1.3272 -1.5824
 1001MOL0     H32076   7.131   8.646   0.963 -1.0298  1.7931  0.3008
 1001MOL0     H32077   6.932   8.402   0.972  1.5643 -1.5174 -1.0384
 1001MOL0     H32078   7.038   8.439   0.832  0.9510 -1.5279  1.1710
 1001MOL0     H32079   6.905   8.663   0.823 -1.5060  1.1846 -0.8600
 1001MOL0     H32080   6.804   8.599   0.950 -1.0853 -0.0520  0.3235
 1001MOL0     H32081   6.870   8.447   0.695  2.2921  2.6407  0.5762
 1001MOL0     H32082   6.738   8.400   0.810  3.0129 -1.7868 -0.1393
 1001MOL0     H32083   6.662   8.520   0.611 -0.7964 -0.2791 -0.0054
 1001MOL0     H32084   6.749   8.661   0.657 -1.1810 -0.5192 -2.8763
 1001MOL0     H32085   6.570   8.448   0.957 -1.5478 -1.2853 -0.6429
 1001MOL0     H32086   6.201   8.516   0.966  0.3979 -1.2856  0.9406
 1001MOL0     H32087   6.280   8.629   1.077 -0.8679 -1.5707  1.4956
 1001MOL0     H32088   6.430   8.443   1.150 -1.5155  0.8897  1.2496
 1001MOL0     H32089   6.352   8.311   1.061 -1.6908 -0.3256  0.2370
 1001MOL0     H32090   6.302   8.302   1.282  1.7395  0.1987 -1.3458
 1001MOL0     H32091   6.237   8.465   1.298  0.5576 -0.3460  0.0912
 1001MOL0     H32092   6.091   8.257   1.286  2.8233 -2.0653 -0.7022
 1001MOL0     H32093   6.120   8.276   1.106  1.0475 -0.2243  0.8488
 1001MOL0     H32094   5.798   8.559   1.079 -1.6188 -0.5801 -1.1020
 1001MOL0     H32095   5.571   8.493   1.107  2.8647  1.5069 -3.5514
 1001MOL0     H32096   5.220   8.213   1.472  2.9256 -0.1393 -0.6989
 1001MOL0     H32097   5.020   8.049   1.463 -1.4499 -2.7268 -1.0024
 1001MOL0     H32098   4.835   8.016   1.382  0.7260  1.4154 -1.1224
 1001MOL0     H32099   4.881   7.844   1.425  3.0221  1.9052  0.5251
 1001MOL0     H32100   4.762   7.795   1.198 -1.2840  1.6399 -2.4879
 1001MOL0     H32101   4.679   7.949   1.212  1.0483 -1.2714 -1.9308
 1001MOL0     H32102   4.571   7.865   1.431  1.0314  1.2353 -1.3633
 1001MOL0     H32103   4.663   7.718   1.406  2.1488 -0.8972 -2.4476
 1001MOL0     H32104   4.457   7.839   1.229 -0.1889  0.6910  2.1815
 1001MOL0     H32105   4.549   7.684   1.193  2.2655  0.8473  0.7255
 1001MOL0     H32106   4.359   7.714   1.426 -1.7636  0.8919 -2.0453
 1001MOL0     H32107   4.427   7.565   1.375 -0.5983 -0.7224 -0.4077
 1001MOL0     H32108   4.327   7.575   1.148 -0.7340  2.8660 -1.9059
 1001MOL0     H32109   4.246   7.726   1.196  1.0061  0.0026 -1.5608
 1001MOL0     H32110   4.215   7.469   1.352  3.0196  1.6644  0.6426
 1001MOL0     H32111   4.122   7.624   1.369  0.5361 -0.2901  0.9438
 1001MOL0     H32112   4.148   7.439   1.124 -0.2628  1.1326 -1.1427
 1001MOL0     H32113   4.076   7.594   1.125 -0.7706 -0.1952  0.2007
 1001MOL0     H32114   5.168   7.891   1.110  2.8661  2.7087 -2.3042
 1001MOL0     H32115   5.368   8.023   1.122  0.1383 -1.7784  1.6617
 1001MOL0     H32116   5.690   8.193   1.403  1.1589  0.1971  1.9633
 1001MOL0     H32117   5.925   8.279   1.381  0.2931  0.6712  0.2643
 1001MOL0     H32118   7.460   8.205   0.853  1.0164  2.0427 -1.1719
 1001MOL0     H32119   7.680   8.111   0.736 -2.0940  2.5559 -1.7595
 1001MOL0     H32120   8.081   8.120   0.647  0.5125 -0.5938 -0.9570
 1001MOL0     H32121   8.246   8.006   0.500 -0.9116 -2.8284 -2.7604
 1001MOL0     H32122   8.299   7.555   0.545 -1.7578  0.8508 -3.9058
 1001MOL0     H32123   8.423   7.646   0.635  2.0136 -0.4877 -0.1222
 1001MOL0     H32124   8.413   7.612   0.327  1.5882 -2.2331 -1.9561
 1001MOL0     H32125   8.557   7.646   0.432  1.4580 -1.9235  2.6767
 1001MOL0     H32126   8.445   7.391   0.514 -0.3848 -1.7664 -0.5482
 1001MOL0     H32127   8.607   7.431   0.444  0.7349 -0.2207 -5.6670
 1001MOL0     H32128   8.513   7.418   0.217 -1.7844  3.2674  2.0610
 1001MOL0     H32129   8.512   7.259   0.303 -0.5638 -0.6945 -0.1546
 1001MOL0     H32130   8.103   7.323   0.260  0.3848  1.0188 -3.2928
 1001MOL0     H32131   8.179   7.625   0.705 -2.5098 -0.6066 -0.0203
 1001MOL0     H32132   8.042   7.763   0.871 -0.4680  2.4793  1.5573
 1002MOL0     O32133   6.597   8.420   2.810 -0.7668 -0.9070 -0.3584
 1002MOL0     C32134   6.595   8.371   2.921  0.7565  0.5494  0.5605
 1002MOL0     O32135   6.475   8.338   2.987  0.3512 -0.1114  0.4952
 1002MOL0     C32136   6.354   8.386   2.950  0.3310  1.0240 -0.1346
 1002MOL0     C32137   6.337   8.511   2.891  0.2905  0.1758 -0.8906
 1002MOL0     C32138   6.203   8.550   2.848 -0.6563  0.3218 -0.3806
 1002MOL0     C32139   6.094   8.486   2.901 -0.8394  1.0522 -0.9692
 1002MOL0     O32140   5.973   8.541   2.888  0.3043  0.2572  0.7017
 1002MOL0     C32141   5.870   8.440   2.856  0.7052  0.5849  0.1065
 1002MOL0     C32142   5.773   8.493   2.747 -0.2940 -0.4844  0.3041
 1002MOL0     C32143   5.684   8.598   2.810  0.4768  0.5997  0.0017
 1002MOL0     C32144   5.606   8.555   2.945 -0.2836 -0.3011  0.3811
 1002MOL0     C32145   5.516   8.663   3.004 -0.6569 -0.1275  0.1177
 1002MOL0     C32146   5.415   8.616   3.114 -0.2192 -0.3357 -0.1932
 1002MOL0     C32147   5.279   8.566   3.070  1.4151 -0.1159 -1.1420
 1002MOL0     C32148   5.265   8.418   3.096  0.5097 -0.2799 -0.1253
 1002MOL0     N32149   5.118   8.377   3.111  0.0242 -0.5530  0.1835
 1002MOL0     C32150   5.035   8.400   3.221 -0.1324  0.6711  0.5923
 1002MOL0     C32151   4.914   8.365   3.187 -0.5020 -0.0113  0.3322
 1002MOL0     C32152   4.783   8.358   3.273  0.5681  0.0466 -0.6007
 1002MOL0     C32153   4.649   8.428   3.225 -0.1462  0.1951 -0.1940
 1002MOL0     C32154   4.546   8.409   3.336  0.0220 -0.1661 -0.4450
 1002MOL0     C32155   4.437   8.519   3.349 -0.0743 -0.0297  0.9578
 1002MOL0     O32156   4.346   8.481   3.246  0.7721  0.1654 -0.4150
 1002MOL0     C32157   4.224   8.467   3.299  0.0091 -0.2331  0.0715
 1002MOL0     C32158   4.132   8.573   3.269 -0.5538  0.1711  0.3382
 1002MOL0     C32159   4.001   8.560   3.325 -0.1102  0.1375  0.8833
 1002MOL0     C32160   3.969   8.460   3.414  0.4009 -0.3662  1.0409
 1002MOL0     C32161   3.838   8.448   3.476  0.9547 -0.5764  0.2704
 1002MOL0     O32162   3.749   8.547   3.442  0.0795 -0.0970  0.0853
 1002MOL0     C32163   3.629   8.577   3.499  0.5048 -0.4458  0.3022
 1002MOL0     C32164   3.546   8.486   3.566  0.0015  1.3916 -0.2606
 1002MOL0     C32165   3.415   8.510   3.597  0.3069 -0.3437 -0.9816
 1002MOL0     C32166   3.353   8.631   3.561 -0.6825  0.6481 -0.7862
 1002MOL0     O32167   3.220   8.632   3.591  0.2273  0.2590  0.2692
 1002MOL0     C32168   3.156   8.757   3.609  0.2633  0.6439  0.1455
 1002MOL0     C32169   3.012   8.732   3.653 -0.4201  0.3265  0.6405
 1002MOL0     C32170   2.922   8.849   3.677 -0.7243  0.0407  0.6060
 1002MOL0     C32171   2.779   8.790   3.715 -0.1046 -0.3242 -0.2365
 1002MOL0     C32172   2.690   8.918   3.723 -0.0042 -0.2179  0.1668
 1002MOL0     C32173   2.544   8.875   3.721 -0.1420  0.7106  0.1815
 1002MOL0     C32174   2.452   8.962   3.810  0.3128  0.2417 -0.4714
 1002MOL0     C32175   2.440   8.919   3.955 -0.5829 -0.6031 -0.6053
 1002MOL0    Cl32176   2.307   9.021   4.027 -0.2480  0.0216 -0.5110
 1002MOL0     C32177   3.437   8.728   3.514 -0.6686  0.1530  0.6398
 1002MOL0     C32178   3.571   8.703   3.478 -0.9732  0.0228 -0.0797
 1002MOL0     O32179   3.821   8.367   3.561  0.1384 -0.0961  0.4779
 1002MOL0     C32180   4.065   8.355   3.441  0.6982 -1.2439  0.1759
 1002MOL0     C32181   4.192   8.356   3.384 -0.6344 -0.0653  0.6592
 1002MOL0     N32182   4.925   8.312   3.057  0.5816  0.0199  0.0067
 1002MOL0     N32183   5.044   8.320   3.010 -0.0384  0.4882  0.1841
 1002MOL0     C32184   6.117   8.373   2.986  0.1452  0.5898  0.6868
 1002MOL0     C32185   6.240   8.314   3.008 -0.6797 -0.1649  0.0947
 1002MOL0     C32186   6.710   8.367   3.001 -0.8847 -0.0442  0.5842
 1002MOL0     C32187   6.705   8.347   3.140 -0.5126  1.3429 -0.6291
 1002MOL0     C32188   6.817   8.314   3.217  0.9072 -0.3459  0.1530
 1002MOL0     C32189   6.939   8.316   3.170 -0.2442  0.4285 -0.8718
 1002MOL0     O32190   7.039   8.295   3.257 -0.8593 -0.1186  0.1170
 1002MOL0     C32191   7.168   8.236   3.206 -0.1597 -0.8184 -0.4469
 1002MOL0     C32192   7.258   8.352   3.171 -0.3730 -0.3547  0.0233
 1002MOL0     C32193   7.385   8.308   3.116  0.2427 -0.5655 -0.0517
 1002MOL0     C32194   7.450   8.398   3.010  0.3916 -0.5200 -0.1293
 1002MOL0     C32195   7.577   8.351   2.959  1.7152 -0.3833  0.8115
 1002MOL0     C32196   7.684   8.312   2.910  0.9527 -0.1701  0.2056
 1002MOL0     C32197   6.947   8.338   3.030  0.4611  0.0092  0.2456
 1002MOL0     C32198   6.838   8.365   2.944 -0.5303  0.4085  0.2952
 1002MOL0     H32199   6.416   8.579   2.862  0.3411  1.2825  1.5156
 1002MOL0     H32200   6.186   8.648   2.803  1.1284  2.0118  2.3777
 1002MOL0     H32201   5.809   8.390   2.931  0.4612  1.9176  0.8396
 1002MOL0     H32202   5.923   8.359   2.805 -1.2258  0.2354 -1.4614
 1002MOL0     H32203   5.712   8.407   2.716 -0.6130 -1.3902  3.1071
 1002MOL0     H32204   5.819   8.541   2.660 -0.2283  0.8160  1.0328
 1002MOL0     H32205   5.612   8.631   2.735  1.1085  3.7413  0.6301
 1002MOL0     H32206   5.754   8.681   2.826 -1.0812  1.7047  1.4568
 1002MOL0     H32207   5.540   8.471   2.922 -3.6605  3.0920 -4.1922
 1002MOL0     H32208   5.684   8.531   3.017  0.9476  0.9833 -0.4676
 1002MOL0     H32209   5.458   8.727   2.936  2.3781  2.4948 -0.2254
 1002MOL0     H32210   5.588   8.726   3.056  0.2810 -2.2257  1.5071
 1002MOL0     H32211   5.391   8.704   3.175  1.6753 -1.0113  1.6508
 1002MOL0     H32212   5.455   8.543   3.185 -1.5031 -1.2180 -0.3360
 1002MOL0     H32213   5.210   8.603   3.146  2.4811 -0.0879 -0.1551
 1002MOL0     H32214   5.249   8.595   2.969  1.2893 -2.7785 -1.9359
 1002MOL0     H32215   5.303   8.386   3.194 -1.1076 -2.7235 -0.1938
 1002MOL0     H32216   5.311   8.362   3.014  0.5995 -0.8275  0.2861
 1002MOL0     H32217   5.072   8.438   3.316  3.5528  1.9020 -1.1392
 1002MOL0     H32218   4.814   8.405   3.366  1.1655  2.2636 -1.8494
 1002MOL0     H32219   4.755   8.256   3.302  2.3176 -0.0758  0.7738
 1002MOL0     H32220   4.615   8.391   3.128 -0.2934  0.8564 -0.4001
 1002MOL0     H32221   4.662   8.535   3.206 -2.4130  0.6403  0.3700
 1002MOL0     H32222   4.494   8.312   3.330  1.9824 -1.3449  0.5872
 1002MOL0     H32223   4.598   8.404   3.432  1.3830 -2.0324 -1.2014
 1002MOL0     H32224   4.472   8.622   3.335  1.2329 -0.5978 -0.2826
 1002MOL0     H32225   4.382   8.511   3.442 -3.2628 -0.5507 -0.8233
 1002MOL0     H32226   4.157   8.651   3.198  0.2806 -0.8067 -0.4775
 1002MOL0     H32227   3.928   8.635   3.297  0.7422  0.5072 -0.4244
 1002MOL0     H32228   3.577   8.384   3.586 -3.4042 -0.2299 -2.3340
 1002MOL0     H32229   3.350   8.445   3.653 -0.7215  2.4655  1.3533
 1002MOL0     H32230   3.165   8.812   3.515  0.8873  0.9000  0.3481
 1002MOL0     H32231   3.209   8.822   3.679  0.0198 -1.8710  2.9165
 1002MOL0     H32232   3.019   8.669   3.742 -1.1512 -1.4496 -0.5081
 1002MOL0     H32233   2.980   8.666   3.572  2.9915 -0.5081 -0.1891
 1002MOL0     H32234   2.914   8.904   3.582 -2.3725  2.0209  1.8223
 1002MOL0     H32235   2.959   8.923   3.749 -0.5952  0.1024  0.4784
 1002MOL0     H32236   2.743   8.720   3.639 -1.1094  0.6297 -0.6749
 1002MOL0     H32237   2.777   8.735   3.809 -1.7526  0.7280  0.3837
 1002MOL0     H32238   2.704   8.989   3.641 -0.8062  1.7334  1.6348
 1002MOL0     H32239   2.709   8.976   3.814 -0.8574 -1.4097  1.1323
 1002MOL0     H32240   2.543   8.773   3.761 -1.0735 -0.0129 -1.6017
 1002MOL0     H32241   2.502   8.872   3.620  0.5760  0.9619 -0.1298
 1002MOL0     H32242   2.497   9.061   3.817 -2.1868  1.3481  2.0058
 1002MOL0     H32243   2.357   8.979   3.758  0.7999  0.1456 -1.4227
 1002MOL0     H32244   2.536   8.917   4.008  0.0343 -4.0830 -1.6222
 1002MOL0     H32245   2.405   8.815   3.962 -0.0907 -0.6705  2.6869
 1002MOL0     H32246   3.387   8.819   3.482 -2.0207  0.0936  2.4483
 1002MOL0     H32247   3.632   8.778   3.428 -0.9650  1.4393  1.9098
 1002MOL0     H32248   4.038   8.277   3.512  1.1613 -2.7325 -1.2116
 1002MOL0     H32249   4.274   8.285   3.394  1.4581  2.4696  3.4348
 1002MOL0     H32250   6.034   8.323   3.035  0.0654  1.1467  1.1258
 1002MOL0     H32251   6.260   8.221   3.061  0.2355 -1.9556 -3.1202
 1002MOL0     H32252   6.612   8.335   3.194 -1.3011 -0.2500 -2.2492
 1002MOL0     H32253   6.814   8.290   3.323  1.6041  0.4092  0.3553
 1002MOL0     H32254   7.146   8.175   3.118 -2.3284 -2.1948  0.9314
 1002MOL0     H32255   7.226   8.177   3.277 -2.3743 -1.3000  1.0871
 1002MOL0     H32256   7.212   8.415   3.093 -0.1787  1.4051  1.2831
 1002MOL0     H32257   7.287   8.410   3.258 -0.9585  0.5258 -0.3513
 1002MOL0     H32258   7.369   8.205   3.083 -3.7970 -0.3570  0.6744
 1002MOL0     H32259   7.449   8.313   3.204  0.1012 -2.5183  0.2159
 1002MOL0     H32260   7.385   8.426   2.927  1.0287  0.3050 -0.3574
 1002MOL0     H32261   7.465   8.493   3.061  2.0649 -0.9080  0.1892
 1002MOL0     H32262   7.776   8.276   2.869  2.2421  1.1497  1.7765
 1002MOL0     H32263   7.041   8.343   2.977 -0.2025  0.4450 -0.9234
 1002MOL0     H32264   6.853   8.371   2.836 -0.5363  1.4450  0.3469
 1003MOL0     O32265   5.337   5.878   9.988 -0.2787  0.2631 -0.3083
 1003MOL0     C32266   5.431   5.804  10.026 -0.1117  0.5564 -0.2265
 1003MOL0     O32267   5.418   5.671  10.065 -0.2845  0.0020 -0.2287
 1003MOL0     C32268   5.287   5.625  10.082  0.7468  0.6888  0.1031
 1003MOL0     C32269   5.185   5.700  10.151 -0.5995  0.1209 -0.5660
 1003MOL0     C32270   5.064   5.637  10.165 -0.6193 -0.0078  0.1319
 1003MOL0     C32271   5.041   5.499  10.137 -0.4685  0.4465 -0.7249
 1003MOL0     O32272   4.923   5.443  10.150  0.1860 -0.1628  1.1589
 1003MOL0     C32273   4.820   5.498  10.231  0.2259  0.9723 -0.4253
 1003MOL0     C32274   4.843   5.451  10.367 -0.2092 -0.8721 -0.4822
 1003MOL0     C32275   4.734   5.492  10.468 -0.9228  0.9080  0.3733
 1003MOL0     C32276   4.791   5.442  10.608 -0.2710 -0.4418 -0.1088
 1003MOL0     C32277   4.692   5.446  10.730 -0.9236 -1.3074 -0.1398
 1003MOL0     C32278   4.602   5.329  10.743 -0.0959 -0.4268 -0.2169
 1003MOL0     C32279   4.506   5.337  10.866 -0.3088  0.1255  0.5158
 1003MOL0     C32280   4.419   5.212  10.881  0.9910 -0.3545 -0.2156
 1003MOL0     N32281   4.318   5.248  10.983 -0.0424  0.3464  0.0478
 1003MOL0     C32282   4.198   5.300  10.963  0.1446  0.0931  0.9072
 1003MOL0     C32283   4.138   5.290  11.085  0.6233  0.6239  0.5839
 1003MOL0     C32284   3.993   5.311  11.123 -0.5568 -0.1455 -0.1875
 1003MOL0     C32285   3.928   5.227  11.244 -0.2242 -1.1770  0.0993
 1003MOL0     C32286   3.779   5.212  11.218 -0.5296 -0.0622  0.8308
 1003MOL0     C32287   3.694   5.257  11.323 -0.6025 -0.1202  0.3261
 1003MOL0     O32288   3.717   5.394  11.352 -0.7925  0.0846 -0.3480
 1003MOL0     C32289   3.624   5.491  11.313  0.0250 -0.1309 -0.6440
 1003MOL0     C32290   3.639   5.613  11.376 -0.8343  0.2444 -0.1952
 1003MOL0     C32291   3.542   5.710  11.384 -0.9723 -0.1878  0.2331
 1003MOL0     C32292   3.425   5.700  11.304  0.1266  0.3605  0.4627
 1003MOL0     C32293   3.330   5.813  11.296 -0.3146  0.7804  0.9524
 1003MOL0     O32294   3.213   5.785  11.237 -0.6238  0.3004 -0.1491
 1003MOL0     C32295   3.127   5.887  11.220  0.4337 -0.2338  0.2548
 1003MOL0     C32296   3.082   5.930  11.096 -0.3481  0.5016 -0.6142
 1003MOL0     C32297   2.972   5.993  11.071  0.0284 -0.3680  0.1427
 1003MOL0     C32298   2.903   6.051  11.182  0.5238  1.2859  0.3707
 1003MOL0     O32299   2.788   6.113  11.143  0.2547 -0.5399  0.6641
 1003MOL0     C32300   2.684   6.131  11.248 -0.9018  0.3052  0.6175
 1003MOL0     C32301   2.581   6.216  11.193 -0.8873  0.1181 -0.5151
 1003MOL0     C32302   2.638   6.334  11.119 -0.5102 -0.4940 -0.0633
 1003MOL0     C32303   2.532   6.429  11.077 -0.3621 -0.1208 -0.8462
 1003MOL0     C32304   2.598   6.533  10.984  1.5520 -0.1925 -0.5259
 1003MOL0     C32305   2.506   6.645  10.936  0.2317  0.0731  0.3907
 1003MOL0     C32306   2.598   6.733  10.851  0.4652  0.1838 -0.6765
 1003MOL0     C32307   2.531   6.840  10.771  0.1085 -0.0200  0.8057
 1003MOL0    Cl32308   2.495   6.978  10.865  0.0776  0.6109  0.0794
 1003MOL0     C32309   2.945   6.019  11.315  0.8770 -0.2874 -0.1425
 1003MOL0     C32310   3.061   5.939  11.333 -0.3436  0.9868  0.4343
 1003MOL0     O32311   3.370   5.923  11.336  0.0269 -0.0365 -0.2260
 1003MOL0     C32312   3.415   5.580  11.221  0.4566  0.0955 -0.3865
 1003MOL0     C32313   3.510   5.476  11.227 -0.8436 -0.3509  0.8651
 1003MOL0     N32314   4.226   5.237  11.182  0.3845  0.3857  0.5338
 1003MOL0     N32315   4.334   5.225  11.118  0.0854  0.3957  0.5041
 1003MOL0     C32316   5.139   5.433  10.070  0.7510 -0.2882 -1.3941
 1003MOL0     C32317   5.255   5.500  10.040 -0.9651  0.6158 -0.0195
 1003MOL0     C32318   5.570   5.867  10.008 -0.4085 -0.4240 -0.1078
 1003MOL0     C32319   5.682   5.788   9.980 -0.3387  0.0222 -0.5416
 1003MOL0     C32320   5.811   5.852   9.979  0.3159 -0.0933  0.4747
 1003MOL0     C32321   5.818   5.988   9.999 -0.4264  0.4268 -0.1133
 1003MOL0     O32322   5.939   6.047  10.022 -0.2027  0.1646  0.2875
 1003MOL0     C32323   6.052   5.964  10.064  0.0726 -0.3067 -0.0410
 1003MOL0     C32324   6.051   5.956  10.222  0.0657  0.1859 -0.1113
 1003MOL0     C32325   6.181   5.894  10.287 -0.8223  0.1003  0.0302
 1003MOL0     C32326   6.221   5.760  10.220  0.7300 -0.4622  0.0023
 1003MOL0     C32327   6.333   5.715  10.304 -0.7233  0.5450  0.3520
 1003MOL0     C32328   6.437   5.701  10.362 -0.0959 -0.1997  0.1517
 1003MOL0     C32329   5.709   6.067  10.017 -0.4221  0.7064  0.0325
 1003MOL0     C32330   5.583   6.009  10.014  0.4221  0.4963 -0.3565
 1003MOL0     H32331   5.193   5.802  10.188  0.0739 -0.4946  1.1107
 1003MOL0     H32332   4.985   5.701  10.203 -1.1359 -0.5106 -0.0798
 1003MOL0     H32333   4.727   5.450  10.198 -0.4878  0.0547  2.5817
 1003MOL0     H32334   4.817   5.607  10.215  2.4811  1.0202 -0.8654
 1003MOL0     H32335   4.940   5.488  10.399 -1.1727 -0.6212  2.4212
 1003MOL0     H32336   4.858   5.342  10.371  0.5738 -0.7640 -0.2556
 1003MOL0     H32337   4.639   5.442  10.449 -0.4284  0.2708 -0.4548
 1003MOL0     H32338   4.729   5.601  10.465 -0.0747  0.9672  0.7068
 1003MOL0     H32339   4.827   5.339  10.602 -0.7721 -0.5560 -1.3011
 1003MOL0     H32340   4.879   5.506  10.624 -0.3069 -0.4037 -0.0621
 1003MOL0     H32341   4.628   5.534  10.718 -1.5610 -1.2489  2.8998
 1003MOL0     H32342   4.761   5.460  10.814  1.7309 -3.1394 -1.8612
 1003MOL0     H32343   4.658   5.236  10.748 -1.5661 -1.2945  1.1582
 1003MOL0     H32344   4.537   5.339  10.655  1.9150  1.8046 -1.5760
 1003MOL0     H32345   4.554   5.348  10.963  1.6907 -3.6825  0.1634
 1003MOL0     H32346   4.441   5.422  10.843  0.3475  0.3767 -0.5183
 1003MOL0     H32347   4.471   5.133  10.937  0.4803  0.7475  1.9572
 1003MOL0     H32348   4.378   5.174  10.787  0.7157  0.6873 -0.5280
 1003MOL0     H32349   4.156   5.334  10.868  0.0277  1.6034  1.4730
 1003MOL0     H32350   3.932   5.275  11.040  1.0587 -0.2326 -1.3838
 1003MOL0     H32351   3.981   5.419  11.131 -3.3262 -0.3912  0.0477
 1003MOL0     H32352   3.942   5.288  11.333  2.1731  1.5759 -1.9562
 1003MOL0     H32353   3.973   5.128  11.243 -1.8555 -1.9674  1.0234
 1003MOL0     H32354   3.748   5.275  11.134  1.4320  2.2726  1.7593
 1003MOL0     H32355   3.767   5.108  11.184 -1.1050  0.9187 -2.2497
 1003MOL0     H32356   3.720   5.200  11.413  0.3433  1.3546  1.0387
 1003MOL0     H32357   3.589   5.231  11.310 -1.2970  1.0272  2.8939
 1003MOL0     H32358   3.726   5.616  11.441  0.4398  3.6604 -1.8412
 1003MOL0     H32359   3.545   5.783  11.464  1.7949  0.0845 -0.0488
 1003MOL0     H32360   3.138   5.886  11.013  1.1347  0.4671  0.3505
 1003MOL0     H32361   2.948   6.026  10.970  1.5051 -3.9264 -1.5606
 1003MOL0     H32362   2.730   6.175  11.336 -0.5135  0.0250  0.5572
 1003MOL0     H32363   2.645   6.034  11.279 -0.1353 -0.0516  0.4975
 1003MOL0     H32364   2.524   6.252  11.280  1.5029 -0.3761  1.3772
 1003MOL0     H32365   2.526   6.151  11.124 -1.6335  2.4578 -2.2420
 1003MOL0     H32366   2.681   6.304  11.023  0.1010 -0.9456  0.3439
 1003MOL0     H32367   2.714   6.385  11.179  0.7939 -2.2435 -0.1429
 1003MOL0     H32368   2.454   6.369  11.029 -1.4525 -1.6243  2.4896
 1003MOL0     H32369   2.492   6.478  11.167 -0.4538 -0.3599 -0.7567
 1003MOL0     H32370   2.622   6.485  10.889  3.2258  0.9664 -0.7271
 1003MOL0     H32371   2.681   6.573  11.043 -1.6704  1.6386  3.2460
 1003MOL0     H32372   2.454   6.695  11.019 -2.6099  1.8182 -2.2211
 1003MOL0     H32373   2.430   6.606  10.867  1.6585 -1.2138 -0.5125
 1003MOL0     H32374   2.680   6.774  10.911  0.5467  1.2265 -1.4707
 1003MOL0     H32375   2.639   6.657  10.784 -0.5870 -2.3365  1.3649
 1003MOL0     H32376   2.438   6.808  10.724 -0.8692  1.3753  1.7163
 1003MOL0     H32377   2.599   6.876  10.693  0.9309 -0.9712  1.0535
 1003MOL0     H32378   2.895   6.065  11.400 -0.3810  1.5099 -1.7781
 1003MOL0     H32379   3.102   5.923  11.432 -0.6405  0.2823  0.4460
 1003MOL0     H32380   3.336   5.537  11.160  0.5609 -2.2167  1.0221
 1003MOL0     H32381   3.509   5.384  11.170 -0.9172 -0.9030  1.7402
 1003MOL0     H32382   5.131   5.330  10.037  1.1828 -0.8944  0.2722
 1003MOL0     H32383   5.343   5.452   9.998 -0.0387  1.6741  0.6487
 1003MOL0     H32384   5.672   5.680   9.978  0.2432 -0.1176  1.5115
 1003MOL0     H32385   5.895   5.784   9.985 -0.5282 -1.4981 -2.0167
 1003MOL0     H32386   6.143   6.018  10.038  0.3011 -0.0331  1.2610
 1003MOL0     H32387   6.062   5.864  10.020  1.6736 -1.1062  1.9878
 1003MOL0     H32388   6.042   6.056  10.266  2.8105  1.9929 -3.1457
 1003MOL0     H32389   5.962   5.904  10.258  1.2462 -1.1609  0.9757
 1003MOL0     H32390   6.159   5.880  10.393 -0.6449 -0.6121 -0.0243
 1003MOL0     H32391   6.269   5.959  10.290  0.4358 -1.3874 -2.0776
 1003MOL0     H32392   6.144   5.682  10.221 -0.4846  0.7036  0.3054
 1003MOL0     H32393   6.241   5.773  10.113 -1.0871 -3.1647 -0.7949
 1003MOL0     H32394   6.517   5.709  10.433 -0.7801 -1.2698  1.0709
 1003MOL0     H32395   5.712   6.171  10.046  0.1942  0.1960  1.9761
 1003MOL0     H32396   5.501   6.077  10.032  1.4368  1.3638  1.1682
 1004MOL0     O32397   3.827   2.131   0.909  0.5843  0.1645  0.2807
 1004MOL0     C32398   3.831   2.182   0.802 -0.3650  0.1908  1.3678
 1004MOL0     O32399   3.938   2.167   0.721  0.4760  0.6998 -0.2746
 1004MOL0     C32400   4.048   2.085   0.763  0.0100  0.2032 -0.2206
 1004MOL0     C32401   4.036   1.949   0.772  0.3530  0.2542 -0.4744
 1004MOL0     C32402   4.142   1.871   0.802  0.4824  0.2598 -0.1783
 1004MOL0     C32403   4.266   1.927   0.844  0.6380 -0.3445  0.1177
 1004MOL0     O32404   4.374   1.831   0.873  0.1147 -0.7591  0.2719
 1004MOL0     C32405   4.493   1.881   0.920 -0.3440  0.2799 -1.0098
 1004MOL0     C32406   4.592   1.766   0.926 -0.0888  0.0699 -0.6763
 1004MOL0     C32407   4.739   1.820   0.940  1.3281 -0.8695 -0.3980
 1004MOL0     C32408   4.847   1.706   0.963 -0.1688 -0.5439  0.0779
 1004MOL0     C32409   4.977   1.769   0.929 -0.1450  0.9786  0.2752
 1004MOL0     C32410   5.102   1.692   0.983  0.8457 -0.0867  0.1202
 1004MOL0     C32411   5.244   1.731   0.914  1.3984  0.0840 -0.0906
 1004MOL0     C32412   5.343   1.651   0.989 -0.4293  0.5744 -0.1089
 1004MOL0     N32413   5.477   1.662   0.935 -0.0251  0.4509  0.0202
 1004MOL0     C32414   5.535   1.589   0.835 -0.3107  0.2578  0.3173
 1004MOL0     C32415   5.669   1.623   0.835 -0.6615 -0.1390  0.4888
 1004MOL0     C32416   5.767   1.571   0.729  0.2752 -0.2623 -0.5129
 1004MOL0     C32417   5.751   1.593   0.574  0.3382 -0.1922 -1.5841
 1004MOL0     C32418   5.641   1.499   0.519 -0.4798  0.2988 -0.0657
 1004MOL0     C32419   5.534   1.571   0.434  0.3722 -0.9702 -1.0387
 1004MOL0     O32420   5.475   1.677   0.511  1.1785  0.0026  0.0439
 1004MOL0     C32421   5.353   1.729   0.476  0.2829  0.8323 -0.3088
 1004MOL0     C32422   5.301   1.819   0.558  0.0914  0.0222 -0.5831
 1004MOL0     C32423   5.177   1.876   0.530 -0.2553 -0.7919 -0.2023
 1004MOL0     C32424   5.101   1.844   0.412 -0.1404  0.0665  1.0557
 1004MOL0     C32425   4.969   1.903   0.387  0.2841 -0.5551 -0.2040
 1004MOL0     O32426   4.913   1.961   0.502  0.9291  0.4702  0.1561
 1004MOL0     C32427   4.786   2.014   0.495 -0.1749  0.1196  0.1813
 1004MOL0     C32428   4.782   2.143   0.445  0.1045 -1.0181  0.0191
 1004MOL0     C32429   4.660   2.207   0.446  0.5269  0.9787  0.6350
 1004MOL0     C32430   4.540   2.134   0.490 -0.5061 -0.4182 -0.2994
 1004MOL0     O32431   4.423   2.206   0.482  0.4264 -0.8891  0.1303
 1004MOL0     C32432   4.297   2.141   0.455 -0.0362  0.1928  0.0512
 1004MOL0     C32433   4.172   2.228   0.448 -0.4212  0.6195  0.4167
 1004MOL0     C32434   4.187   2.322   0.329 -0.5228 -0.5621 -0.3030
 1004MOL0     C32435   4.046   2.374   0.290  1.0376 -0.0917  0.9517
 1004MOL0     C32436   4.042   2.481   0.181 -0.3607  0.6380  0.6009
 1004MOL0     C32437   3.896   2.536   0.162  0.0566  1.2000 -0.4343
 1004MOL0     C32438   3.888   2.658   0.067  0.6717 -0.9697  0.5071
 1004MOL0     C32439   3.752   2.702   0.016 -0.1832 -0.1701  0.0481
 1004MOL0    Cl32440   3.758   2.857  -0.062  0.6193 -0.6677  0.2705
 1004MOL0     C32441   4.548   2.007   0.526 -0.0657  0.4152 -0.4177
 1004MOL0     C32442   4.669   1.947   0.536  0.0077  0.6904  0.2192
 1004MOL0     O32443   4.913   1.896   0.273 -0.0727  0.4295  0.5090
 1004MOL0     C32444   5.152   1.752   0.323  0.0009  0.5069  0.4687
 1004MOL0     C32445   5.281   1.696   0.365  0.7854  0.1616  0.6265
 1004MOL0     N32446   5.691   1.723   0.934 -0.0281  0.5316  0.6024
 1004MOL0     N32447   5.577   1.732   0.992  0.4224 -1.3939 -0.8440
 1004MOL0     C32448   4.280   2.064   0.828 -0.0295 -0.0907 -0.1318
 1004MOL0     C32449   4.169   2.141   0.784  0.3238 -0.1591 -0.9470
 1004MOL0     C32450   3.718   2.265   0.745 -0.2209 -0.7828  0.5487
 1004MOL0     C32451   3.592   2.259   0.801 -0.1487 -0.4010  0.2545
 1004MOL0     C32452   3.483   2.323   0.755  0.3139 -0.1772 -0.6605
 1004MOL0     C32453   3.494   2.406   0.640  0.5082  0.2725 -0.4594
 1004MOL0     O32454   3.378   2.468   0.594  0.0378 -0.5256 -0.1818
 1004MOL0     C32455   3.356   2.460   0.452 -1.1656 -0.2383  0.4122
 1004MOL0     C32456   3.220   2.419   0.409 -0.6534 -0.3863  0.0895
 1004MOL0     C32457   3.117   2.536   0.421 -0.1667  0.7499 -0.0688
 1004MOL0     C32458   3.078   2.597   0.556  0.1647  0.1626  0.2427
 1004MOL0     C32459   2.980   2.705   0.529 -0.2207 -0.6821 -0.0188
 1004MOL0     C32460   2.906   2.797   0.502  0.8660  0.9010 -0.5039
 1004MOL0     C32461   3.624   2.423   0.588 -0.2889 -0.3219  0.6372
 1004MOL0     C32462   3.732   2.362   0.641  0.4513  0.8621 -0.2075
 1004MOL0     H32463   3.940   1.903   0.750  1.4442 -2.0461 -0.7376
 1004MOL0     H32464   4.137   1.763   0.810  1.8835 -0.0359 -2.5381
 1004MOL0     H32465   4.491   1.931   1.017 -1.2396  0.7086 -1.2389
 1004MOL0     H32466   4.527   1.962   0.855 -1.5968 -1.6472 -4.3450
 1004MOL0     H32467   4.569   1.705   0.838 -1.0067 -0.6783  0.0547
 1004MOL0     H32468   4.559   1.704   1.010 -0.6692  1.8771  0.4886
 1004MOL0     H32469   4.732   1.892   1.022 -3.1949 -1.9176  0.4197
 1004MOL0     H32470   4.765   1.880   0.852 -1.4765  0.6446 -0.3166
 1004MOL0     H32471   4.852   1.661   1.063 -0.9918 -2.9127 -0.8564
 1004MOL0     H32472   4.832   1.617   0.900 -1.9546 -0.6331  0.5790
 1004MOL0     H32473   4.984   1.867   0.977  1.8692  1.4541 -0.8785
 1004MOL0     H32474   4.982   1.790   0.822  0.0493  1.1790  0.3220
 1004MOL0     H32475   5.082   1.585   0.973  0.2602  0.2298 -3.6281
 1004MOL0     H32476   5.103   1.713   1.090 -0.9814 -1.0186  0.3735
 1004MOL0     H32477   5.248   1.712   0.806  1.8683 -0.4441  0.0161
 1004MOL0     H32478   5.267   1.836   0.935  0.4586  0.4069 -0.6345
 1004MOL0     H32479   5.321   1.544   0.990  2.7893 -0.2032 -0.8968
 1004MOL0     H32480   5.355   1.670   1.096  0.2201  1.2342 -0.2912
 1004MOL0     H32481   5.503   1.526   0.752  2.6435 -1.1030  0.0501
 1004MOL0     H32482   5.782   1.465   0.753  0.6381  0.0383  0.6689
 1004MOL0     H32483   5.862   1.618   0.756 -0.8349  0.2081  3.1414
 1004MOL0     H32484   5.843   1.569   0.519  1.1095 -1.6898  0.2684
 1004MOL0     H32485   5.725   1.699   0.577 -0.2839 -0.2127  4.3227
 1004MOL0     H32486   5.686   1.428   0.449  0.1507  1.3604 -0.7590
 1004MOL0     H32487   5.601   1.436   0.599  2.2024 -4.1039 -1.8093
 1004MOL0     H32488   5.455   1.498   0.414  2.1777 -3.5722  0.7375
 1004MOL0     H32489   5.579   1.606   0.340  1.7674 -0.9350 -0.3878
 1004MOL0     H32490   5.364   1.858   0.637  2.1300  1.4662 -2.7882
 1004MOL0     H32491   5.146   1.951   0.602 -1.0502 -2.8312  1.7351
 1004MOL0     H32492   4.871   2.193   0.408 -0.1511  0.8093  1.6703
 1004MOL0     H32493   4.645   2.309   0.413  0.1918  0.8750  0.4654
 1004MOL0     H32494   4.280   2.064   0.530  0.3449  1.1215  1.1209
 1004MOL0     H32495   4.307   2.088   0.360 -4.4874 -0.0528 -0.5106
 1004MOL0     H32496   4.158   2.297   0.532 -0.3614  0.5114  0.5159
 1004MOL0     H32497   4.091   2.156   0.432 -1.3704  1.6841  0.3016
 1004MOL0     H32498   4.240   2.266   0.252  1.2358  0.5696  0.0180
 1004MOL0     H32499   4.254   2.402   0.364 -0.6508 -0.0096 -1.2901
 1004MOL0     H32500   3.978   2.298   0.248  2.0678 -0.0388 -0.9421
 1004MOL0     H32501   4.010   2.428   0.378 -2.7652  0.6437 -0.8297
 1004MOL0     H32502   4.078   2.447   0.083  0.9723 -2.1448  1.9586
 1004MOL0     H32503   4.106   2.564   0.212  0.3183 -0.0104  0.9591
 1004MOL0     H32504   3.843   2.548   0.257 -0.3696  1.6941 -0.7333
 1004MOL0     H32505   3.843   2.452   0.116 -2.2582 -0.3572  4.4087
 1004MOL0     H32506   3.944   2.740   0.112 -1.5140  1.5839 -1.1472
 1004MOL0     H32507   3.940   2.615  -0.020 -0.6337 -3.9772  1.0860
 1004MOL0     H32508   3.674   2.697   0.092 -1.8358  1.1359 -1.4842
 1004MOL0     H32509   3.718   2.625  -0.053 -1.1505  0.8178 -0.6094
 1004MOL0     H32510   4.456   1.955   0.555 -0.6399  2.8391  2.5812
 1004MOL0     H32511   4.677   1.845   0.571  1.5450 -0.3242 -2.7827
 1004MOL0     H32512   5.100   1.739   0.228 -0.8149  1.0635  0.8231
 1004MOL0     H32513   5.324   1.619   0.301 -1.2266 -0.9537  0.5050
 1004MOL0     H32514   4.369   2.114   0.864 -0.7624  2.7059 -1.8781
 1004MOL0     H32515   4.190   2.248   0.777  0.6316 -0.0772  0.7475
 1004MOL0     H32516   3.586   2.206   0.895 -1.2646 -1.1203 -0.2062
 1004MOL0     H32517   3.385   2.300   0.797 -0.7685  0.6843 -2.5933
 1004MOL0     H32518   3.430   2.388   0.415 -2.8485 -2.3013  0.9078
 1004MOL0     H32519   3.383   2.556   0.407  1.1558 -1.3822 -0.8684
 1004MOL0     H32520   3.239   2.383   0.308  1.8262 -2.5315  1.2141
 1004MOL0     H32521   3.182   2.330   0.459  3.3052 -2.5095 -0.2781
 1004MOL0     H32522   3.028   2.490   0.377  0.1664  0.2174 -0.1961
 1004MOL0     H32523   3.153   2.613   0.352 -0.6368  0.7669 -0.3010
 1004MOL0     H32524   3.037   2.514   0.616 -0.2287 -0.6491 -1.1128
 1004MOL0     H32525   3.170   2.633   0.603  1.1931 -1.0701 -0.7426
 1004MOL0     H32526   2.836   2.879   0.505 -1.5418 -1.0513 -0.5860
 1004MOL0     H32527   3.643   2.490   0.505 -1.6610 -0.5095  0.1431
 1004MOL0     H32528   3.837   2.365   0.615  1.0125 -0.3833  1.6903
 1005MOL0     O32529   8.171   2.896  11.197  0.1208  0.7393 -0.2719
 1005MOL0     C32530   8.123   2.926  11.309 -0.9861 -0.0734  0.0126
 1005MOL0     O32531   8.205   2.968  11.415 -0.1790  0.6904  0.2854
 1005MOL0     C32532   8.336   2.989  11.389  0.2494 -0.0018 -0.1304
 1005MOL0     C32533   8.439   2.908  11.434 -0.4125  0.3729 -0.0437
 1005MOL0     C32534   8.576   2.949  11.414 -0.8928  0.3640 -0.2784
 1005MOL0     C32535   8.603   3.065  11.338  0.1748  0.4809 -0.4683
 1005MOL0     O32536   8.733   3.108  11.315  0.0839 -0.4906 -0.2966
 1005MOL0     C32537   8.818   3.029  11.230  0.5370 -0.5969 -0.0694
 1005MOL0     C32538   8.920   3.117  11.153 -0.1177 -0.8159  1.1814
 1005MOL0     C32539   8.871   3.264  11.117 -0.3305 -0.6544  0.7708
 1005MOL0     C32540   8.748   3.252  11.023  0.1678 -0.4254 -0.3313
 1005MOL0     C32541   8.709   3.376  10.946  0.5210  0.5127 -0.1157
 1005MOL0     C32542   8.584   3.356  10.858 -0.5995 -1.3477 -0.4000
 1005MOL0     C32543   8.472   3.316  10.957 -0.2308  0.1873  0.2670
 1005MOL0     C32544   8.340   3.343  10.881  0.8282 -0.1837  0.0015
 1005MOL0     N32545   8.224   3.335  10.970 -0.4788 -0.1621 -0.2568
 1005MOL0     C32546   8.174   3.223  11.030  0.0133 -0.5208 -0.0992
 1005MOL0     C32547   8.045   3.255  11.042  0.9707 -0.0297 -0.6883
 1005MOL0     C32548   7.946   3.170  11.114  0.3049 -0.0997  0.6678
 1005MOL0     C32549   7.803   3.173  11.044  0.0760  0.3447  0.2916
 1005MOL0     C32550   7.717   3.061  11.099 -0.7200  0.0712  0.1256
 1005MOL0     C32551   7.577   3.056  11.037 -0.8598  1.0052  0.2191
 1005MOL0     O32552   7.586   3.038  10.891  0.0203 -0.3868  0.9669
 1005MOL0     C32553   7.462   3.028  10.824  0.2502  0.8648 -0.1720
 1005MOL0     C32554   7.461   3.019  10.683  0.4411  0.5788  0.2192
 1005MOL0     C32555   7.338   3.016  10.610  0.0029 -1.0584  0.9409
 1005MOL0     C32556   7.215   3.032  10.677  0.6256 -0.0503 -0.8726
 1005MOL0     C32557   7.082   3.039  10.604  0.0142  0.1709  0.1773
 1005MOL0     O32558   7.083   2.978  10.479  1.0523 -0.2054 -0.2595
 1005MOL0     C32559   6.982   3.028  10.401  0.1177 -0.5295 -0.2916
 1005MOL0     C32560   6.881   2.950  10.364  0.6469 -0.4560  0.3050
 1005MOL0     C32561   6.773   2.997  10.288  0.3529 -0.2636  0.2323
 1005MOL0     C32562   6.779   3.140  10.242 -0.3060  0.5659 -0.2009
 1005MOL0     O32563   6.689   3.204  10.161 -0.1304  0.5971  0.1884
 1005MOL0     C32564   6.556   3.155  10.181  0.3323 -1.0353  0.1796
 1005MOL0     C32565   6.503   3.087  10.055 -0.4995 -1.0868 -0.2832
 1005MOL0     C32566   6.352   3.063  10.081  0.2735 -0.8099 -0.6535
 1005MOL0     C32567   6.281   2.998   9.959  0.6528 -0.1887  0.2320
 1005MOL0     C32568   6.126   3.000   9.977 -0.5051  0.3515  0.3278
 1005MOL0     C32569   6.052   3.139   9.973  0.0725  0.5804 -0.2878
 1005MOL0     C32570   5.916   3.141   9.906 -0.5260 -0.1287  0.5975
 1005MOL0     C32571   5.848   3.280   9.905 -0.4132  0.2043  0.5401
 1005MOL0    Cl32572   5.725   3.274   9.785 -0.1160  0.1634 -0.1364
 1005MOL0     C32573   6.893   3.214  10.268  0.5457 -0.0892  0.7874
 1005MOL0     C32574   6.991   3.162  10.355 -0.6647 -0.9536  0.3825
 1005MOL0     O32575   6.994   3.089  10.658  0.7137 -0.6388 -0.6253
 1005MOL0     C32576   7.218   3.058  10.817  0.1411  0.1067 -0.0088
 1005MOL0     C32577   7.338   3.039  10.888  0.2053 -0.2632 -0.2455
 1005MOL0     N32578   8.028   3.387  11.013  0.7567 -0.6397  0.0320
 1005MOL0     N32579   8.134   3.439  10.973  0.9096  0.3929 -0.2873
 1005MOL0     C32580   8.498   3.140  11.288  0.6427  0.6680  0.1172
 1005MOL0     C32581   8.370   3.100  11.311  0.4261 -0.6507 -0.7464
 1005MOL0     C32582   7.979   2.893  11.349 -0.4019 -0.6484 -0.1924
 1005MOL0     C32583   7.929   2.964  11.466  1.0957  0.5773 -0.1240
 1005MOL0     C32584   7.806   2.938  11.520  0.6442 -0.4816 -0.0045
 1005MOL0     C32585   7.730   2.841  11.457 -0.9516  0.1726  0.3291
 1005MOL0     O32586   7.611   2.812  11.529 -0.0336 -0.1354 -0.4871
 1005MOL0     C32587   7.549   2.679  11.511 -0.8794 -1.1074  0.0005
 1005MOL0     C32588   7.455   2.646  11.625 -0.7175  0.1325 -0.5665
 1005MOL0     C32589   7.390   2.519  11.586 -0.3091 -0.4747  0.8493
 1005MOL0     C32590   7.340   2.452  11.715 -0.2677 -0.5636  0.8318
 1005MOL0     C32591   7.239   2.526  11.788  1.0558 -1.2801 -0.4916
 1005MOL0     C32592   7.145   2.591  11.835  0.0363 -0.3900 -0.2129
 1005MOL0     C32593   7.786   2.765  11.345  0.7356 -0.6842 -0.0498
 1005MOL0     C32594   7.911   2.791  11.290  0.2676  0.1236 -0.8093
 1005MOL0     H32595   8.412   2.823  11.496 -1.3055  1.6144  1.3459
 1005MOL0     H32596   8.656   2.896  11.463 -0.8490  0.3924 -0.3180
 1005MOL0     H32597   8.766   2.973  11.151 -0.1605  0.0382 -0.0675
 1005MOL0     H32598   8.865   2.946  11.284  0.7775  0.0863  0.7835
 1005MOL0     H32599   8.959   3.073  11.061 -1.2640 -3.2147  1.7633
 1005MOL0     H32600   9.008   3.132  11.216  0.4132 -0.1528  0.3020
 1005MOL0     H32601   8.945   3.324  11.064 -0.8220  0.7954  1.6574
 1005MOL0     H32602   8.850   3.305  11.216  0.7985 -0.9597  1.1498
 1005MOL0     H32603   8.784   3.182  10.947 -0.6652 -1.0006 -0.1959
 1005MOL0     H32604   8.671   3.213  11.090  3.0382 -3.7110  1.3601
 1005MOL0     H32605   8.793   3.414  10.887 -0.0474 -0.6636 -1.7619
 1005MOL0     H32606   8.685   3.439  11.032  0.9238 -0.6234  0.8618
 1005MOL0     H32607   8.591   3.270  10.791  0.4474 -2.6352  1.2742
 1005MOL0     H32608   8.559   3.451  10.810  0.5977 -0.9541 -0.2775
 1005MOL0     H32609   8.476   3.212  10.992  2.3479 -0.3148 -1.2048
 1005MOL0     H32610   8.476   3.380  11.045 -0.0184  1.4252 -0.6170
 1005MOL0     H32611   8.331   3.274  10.796 -2.6872  0.5802 -0.3718
 1005MOL0     H32612   8.346   3.447  10.848  1.2783  0.6916  2.6434
 1005MOL0     H32613   8.228   3.130  11.046  1.0423 -0.2252 -1.6384
 1005MOL0     H32614   7.943   3.198  11.219 -0.3555  1.0820  0.3475
 1005MOL0     H32615   7.982   3.067  11.105  1.7573  0.4331 -0.1381
 1005MOL0     H32616   7.809   3.155  10.937 -0.5823  0.5791  0.2124
 1005MOL0     H32617   7.756   3.271  11.055 -0.6804  0.6414 -4.0635
 1005MOL0     H32618   7.751   2.957  11.089 -1.2499 -0.1765  0.7811
 1005MOL0     H32619   7.714   3.084  11.206  1.6180  1.3157 -0.0154
 1005MOL0     H32620   7.520   3.146  11.062 -0.0933  1.3274  0.8378
 1005MOL0     H32621   7.524   2.967  11.073 -1.0788  1.1341  0.2155
 1005MOL0     H32622   7.558   3.009  10.636  0.9969  0.1636  1.4243
 1005MOL0     H32623   7.352   3.003  10.503  0.1605  1.9016  0.4962
 1005MOL0     H32624   6.883   2.845  10.393  1.2089 -0.0175  1.9978
 1005MOL0     H32625   6.697   2.923  10.264 -0.9716  0.7412  1.2215
 1005MOL0     H32626   6.493   3.243  10.197  0.3222 -1.0955  0.4701
 1005MOL0     H32627   6.539   3.101  10.274  1.0151 -3.6299 -1.1057
 1005MOL0     H32628   6.554   2.990  10.045 -0.0319 -0.7806 -0.9205
 1005MOL0     H32629   6.520   3.155   9.971  0.7057  1.6643  2.0094
 1005MOL0     H32630   6.292   3.154  10.087 -4.1535 -3.5753  1.7671
 1005MOL0     H32631   6.334   3.001  10.169 -0.4192  0.5083  0.1694
 1005MOL0     H32632   6.313   3.053   9.870 -1.5525  0.7191 -0.0575
 1005MOL0     H32633   6.301   2.890   9.955 -1.3277 -0.5732 -0.1910
 1005MOL0     H32634   6.094   2.945  10.066  2.4536 -1.3994  0.4515
 1005MOL0     H32635   6.093   2.940   9.892  1.9215 -2.8372  1.4448
 1005MOL0     H32636   6.116   3.213   9.924 -2.7167  2.6128 -1.0869
 1005MOL0     H32637   6.044   3.171  10.077  0.9413  0.8328 -0.2909
 1005MOL0     H32638   5.929   3.114   9.801 -3.5595 -1.7728  0.5353
 1005MOL0     H32639   5.852   3.066   9.954 -1.9194 -0.7307 -2.0031
 1005MOL0     H32640   5.921   3.350   9.865  0.8851 -0.9784  0.7682
 1005MOL0     H32641   5.819   3.317  10.004 -1.6960  2.3058 -0.5572
 1005MOL0     H32642   6.892   3.315  10.229 -0.7516 -0.0715  0.8396
 1005MOL0     H32643   7.078   3.217  10.389  0.5712 -2.0695 -0.8863
 1005MOL0     H32644   7.129   3.061  10.878 -0.8719 -1.8421 -1.2983
 1005MOL0     H32645   7.335   3.035  10.996 -0.5299 -0.6573 -0.2750
 1005MOL0     H32646   8.500   3.239  11.244  1.0700  0.8008  0.4233
 1005MOL0     H32647   8.293   3.161  11.265 -0.4092  0.0702  1.4664
 1005MOL0     H32648   7.993   3.042  11.506  0.5901  1.5680 -1.1882
 1005MOL0     H32649   7.770   2.992  11.607 -1.5274 -2.6803  0.6002
 1005MOL0     H32650   7.624   2.600  11.505  1.9355  1.4564 -0.8740
 1005MOL0     H32651   7.490   2.685  11.419 -0.8599 -0.0277  0.0419
 1005MOL0     H32652   7.506   2.647  11.722 -3.2727 -0.6115  0.8582
 1005MOL0     H32653   7.379   2.724  11.616 -0.9464 -0.1665 -1.3381
 1005MOL0     H32654   7.466   2.452  11.544  1.0814  1.6891 -0.2663
 1005MOL0     H32655   7.310   2.543  11.516 -0.0505 -1.6502  0.1036
 1005MOL0     H32656   7.294   2.360  11.677 -1.2980 -0.0124  0.7243
 1005MOL0     H32657   7.423   2.423  11.780 -2.9181 -3.3219  3.3022
 1005MOL0     H32658   7.076   2.660  11.881 -1.0007 -1.4534 -0.1251
 1005MOL0     H32659   7.721   2.698  11.289 -0.7232  0.5229  0.1405
 1005MOL0     H32660   7.946   2.747  11.197  0.2889 -2.4211  0.3162
 1006MOL0     O32661  10.011   6.928   4.538  0.3078  0.2363  0.3223
 1006MOL0     C32662   9.998   6.940   4.658  0.2746 -0.5420  1.2535
 1006MOL0     O32663   9.875   6.923   4.721 -0.4515  0.5587 -0.0367
 1006MOL0     C32664   9.781   6.849   4.657 -0.3965 -0.4231 -0.0632
 1006MOL0     C32665   9.808   6.729   4.600 -0.3643  0.2157  0.5155
 1006MOL0     C32666   9.721   6.666   4.522 -0.3392 -0.7436 -0.5270
 1006MOL0     C32667   9.589   6.711   4.517  0.2784  0.8991  0.2696
 1006MOL0     O32668   9.486   6.655   4.440  0.0429  1.0337  0.3838
 1006MOL0     C32669   9.509   6.528   4.379  0.1863 -0.1726 -0.5303
 1006MOL0     C32670   9.384   6.459   4.368  0.2000 -0.0123  0.5227
 1006MOL0     C32671   9.407   6.329   4.294 -0.3515 -0.9614 -0.2239
 1006MOL0     C32672   9.281   6.253   4.256  0.0645 -0.3358  0.2663
 1006MOL0     C32673   9.311   6.133   4.169 -0.1250 -0.1195 -0.0514
 1006MOL0     C32674   9.178   6.063   4.134  0.1319  0.3703  0.4833
 1006MOL0     C32675   9.186   5.940   4.029 -0.5589 -0.5603  0.4174
 1006MOL0     C32676   9.058   5.858   4.002  0.4139 -0.0335  0.6504
 1006MOL0     N32677   8.990   5.816   4.122  0.2148 -0.2929  0.4257
 1006MOL0     C32678   9.054   5.778   4.235 -0.2192 -0.1175 -0.2987
 1006MOL0     C32679   8.963   5.712   4.316 -0.1482 -0.3790  0.8215
 1006MOL0     C32680   8.991   5.624   4.441 -0.2026 -0.0916 -0.3643
 1006MOL0     C32681   9.076   5.502   4.406  1.2716  0.5728 -0.2321
 1006MOL0     C32682   9.011   5.405   4.303 -0.1032 -0.2854  0.4853
 1006MOL0     C32683   8.918   5.313   4.380 -0.9660 -0.7277 -1.4479
 1006MOL0     O32684   8.837   5.232   4.291 -0.5304 -0.6567 -0.2579
 1006MOL0     C32685   8.727   5.166   4.339 -0.5508  0.7215  0.3209
 1006MOL0     C32686   8.733   5.087   4.452 -1.1781  0.0560 -0.2228
 1006MOL0     C32687   8.639   4.998   4.492  0.1762 -0.0381  0.6127
 1006MOL0     C32688   8.516   5.001   4.415  0.0815 -0.4115 -0.7706
 1006MOL0     C32689   8.413   4.900   4.448  0.0766 -0.8452 -0.4784
 1006MOL0     O32690   8.302   4.911   4.377 -0.2309 -0.0746 -0.0155
 1006MOL0     C32691   8.196   4.833   4.419  0.4652 -0.2471 -0.4111
 1006MOL0     C32692   8.130   4.865   4.539 -0.0249 -0.0533 -0.0441
 1006MOL0     C32693   8.033   4.777   4.590  0.0708 -0.2040 -0.0729
 1006MOL0     C32694   7.978   4.676   4.515 -0.2725  0.3232  1.6285
 1006MOL0     O32695   7.867   4.605   4.550  0.1614 -0.0339  0.2111
 1006MOL0     C32696   7.791   4.635   4.666 -0.0991 -0.5191  0.5690
 1006MOL0     C32697   7.659   4.557   4.655  0.0489 -0.3899  0.4530
 1006MOL0     C32698   7.554   4.638   4.576  0.5706  0.0095  1.1266
 1006MOL0     C32699   7.432   4.544   4.577  0.5525 -0.5793 -0.5855
 1006MOL0     C32700   7.328   4.593   4.468  0.4756  0.2339  0.0415
 1006MOL0     C32701   7.221   4.484   4.444 -0.3328  0.4440  0.0398
 1006MOL0     C32702   7.122   4.539   4.337  0.0621  0.0709  0.0644
 1006MOL0     C32703   7.007   4.451   4.325  0.0587  0.4265 -0.0945
 1006MOL0    Cl32704   6.885   4.485   4.450 -0.4830  0.1397  0.0244
 1006MOL0     C32705   8.039   4.650   4.391  0.1033 -0.0927  0.3648
 1006MOL0     C32706   8.151   4.729   4.346  0.2208 -0.4393  0.1994
 1006MOL0     O32707   8.431   4.828   4.547  0.2557 -0.0428  0.2227
 1006MOL0     C32708   8.505   5.081   4.295  0.2053 -0.3710  0.5976
 1006MOL0     C32709   8.613   5.160   4.256  0.7644 -0.0704  0.0027
 1006MOL0     N32710   8.843   5.731   4.251  0.1076  0.3198  0.7194
 1006MOL0     N32711   8.853   5.799   4.137 -0.3490  0.5792  0.6294
 1006MOL0     C32712   9.552   6.822   4.595  0.5522 -0.4258  0.2987
 1006MOL0     C32713   9.652   6.901   4.664  0.3246  1.2306  0.2020
 1006MOL0     C32714  10.103   6.998   4.734  0.3702 -0.2326  0.4571
 1006MOL0     C32715  10.213   7.044   4.669 -0.0657 -0.2725  0.1369
 1006MOL0     C32716  10.315   7.101   4.746 -1.1263  0.5504 -0.1912
 1006MOL0     C32717  10.317   7.104   4.892 -0.0580 -0.0367  0.1904
 1006MOL0     O32718  10.418   7.151   4.975  0.0645  0.0754  0.4326
 1006MOL0     C32719  10.540   7.203   4.928  0.4528  0.1210 -0.4255
 1006MOL0     C32720  10.629   7.237   5.042  0.5224  0.8055  0.0169
 1006MOL0     C32721  10.667   7.124   5.142  0.2177 -0.1384 -0.5469
 1006MOL0     C32722  10.798   7.066   5.099  0.4157  0.5366 -0.7806
 1006MOL0     C32723  10.907   7.164   5.104 -0.3758  0.2310  0.5519
 1006MOL0     C32724  10.995   7.244   5.129  0.5469 -0.4634 -0.6836
 1006MOL0     C32725  10.203   7.049   4.949  0.6209  0.1320 -0.1230
 1006MOL0     C32726  10.086   7.009   4.868 -0.4285  0.1897  0.4833
 1006MOL0     H32727   9.913   6.704   4.611 -0.6407 -0.0203  3.6359
 1006MOL0     H32728   9.749   6.582   4.459  0.9475 -0.1799 -0.7365
 1006MOL0     H32729   9.571   6.466   4.444 -0.5929 -0.2828  0.1270
 1006MOL0     H32730   9.561   6.538   4.283  1.1438 -0.6293 -0.0776
 1006MOL0     H32731   9.318   6.522   4.307  0.7698  0.8361  0.7734
 1006MOL0     H32732   9.327   6.453   4.461 -2.6921  1.5462 -0.9736
 1006MOL0     H32733   9.461   6.263   4.362 -0.8309 -1.1743 -0.0458
 1006MOL0     H32734   9.467   6.355   4.206 -0.0730  1.5716  0.6324
 1006MOL0     H32735   9.224   6.215   4.341 -4.2880  0.2769 -2.1206
 1006MOL0     H32736   9.208   6.312   4.200 -1.5586 -2.1817  0.3426
 1006MOL0     H32737   9.388   6.071   4.216 -0.1723  0.0292  0.2249
 1006MOL0     H32738   9.349   6.168   4.073 -0.8765 -0.0959 -0.3447
 1006MOL0     H32739   9.103   6.139   4.110 -1.2234 -0.3467  2.2320
 1006MOL0     H32740   9.138   6.023   4.227  1.5722 -0.9859  0.5579
 1006MOL0     H32741   9.223   5.974   3.931 -1.4828 -0.8699 -0.0466
 1006MOL0     H32742   9.264   5.875   4.070 -0.4958  0.1771  1.4979
 1006MOL0     H32743   9.059   5.781   3.924 -3.3313  1.2135 -0.8428
 1006MOL0     H32744   8.992   5.925   3.946  0.9590 -0.5664 -0.6662
 1006MOL0     H32745   9.161   5.762   4.244 -0.5181 -1.2073  2.2894
 1006MOL0     H32746   8.900   5.599   4.497  0.6281  0.6756  1.4303
 1006MOL0     H32747   9.042   5.700   4.502  1.5017 -1.8476  0.5092
 1006MOL0     H32748   9.112   5.446   4.493  1.1817  2.0829  0.8284
 1006MOL0     H32749   9.164   5.540   4.353  0.8507 -0.1175 -1.4726
 1006MOL0     H32750   8.968   5.460   4.219  1.8477  0.2680 -0.1999
 1006MOL0     H32751   9.082   5.337   4.256  0.7932 -0.5541  2.1270
 1006MOL0     H32752   8.847   5.371   4.439 -1.1399 -1.0702 -1.3188
 1006MOL0     H32753   8.981   5.253   4.446 -0.5261  0.5305 -0.6956
 1006MOL0     H32754   8.823   5.092   4.513 -0.6145  1.2985 -1.1163
 1006MOL0     H32755   8.650   4.942   4.584 -1.6220  1.1683  1.6128
 1006MOL0     H32756   8.169   4.935   4.612  0.7307 -2.4281  1.9773
 1006MOL0     H32757   8.000   4.781   4.693 -0.8460 -0.8039 -0.3372
 1006MOL0     H32758   7.785   4.743   4.682  2.1601 -0.0855 -1.0970
 1006MOL0     H32759   7.842   4.595   4.754 -2.2353  0.1575  2.2016
 1006MOL0     H32760   7.620   4.539   4.756 -0.7887  3.0147  0.8373
 1006MOL0     H32761   7.687   4.462   4.608 -2.4531  0.5631 -3.3918
 1006MOL0     H32762   7.589   4.664   4.476  0.8627  0.2165  1.2818
 1006MOL0     H32763   7.533   4.734   4.625  0.1915  1.5295 -1.7742
 1006MOL0     H32764   7.453   4.443   4.542 -0.8875 -0.4683 -1.8725
 1006MOL0     H32765   7.385   4.530   4.675  0.1152  3.2291 -0.0806
 1006MOL0     H32766   7.376   4.622   4.373 -2.6153  1.0880 -1.3826
 1006MOL0     H32767   7.275   4.686   4.491 -1.6553 -0.8161 -0.4215
 1006MOL0     H32768   7.170   4.449   4.534  0.3785 -1.6132 -0.3081
 1006MOL0     H32769   7.266   4.388   4.417  0.0503  1.4557 -3.3556
 1006MOL0     H32770   7.094   4.644   4.352  1.9419  0.7816 -1.1067
 1006MOL0     H32771   7.179   4.529   4.244  0.2808  1.2518  0.0588
 1006MOL0     H32772   7.021   4.343   4.327 -2.3149  0.0298 -1.3442
 1006MOL0     H32773   6.959   4.464   4.228  0.2680 -1.8594 -0.5658
 1006MOL0     H32774   8.001   4.580   4.318  1.0317 -0.8176  0.5619
 1006MOL0     H32775   8.194   4.705   4.250 -2.7625  1.0134 -1.6633
 1006MOL0     H32776   8.416   5.080   4.233 -1.7731 -1.8313  3.2401
 1006MOL0     H32777   8.606   5.228   4.172  2.1287 -1.3695 -1.2268
 1006MOL0     H32778   9.447   6.845   4.601  0.8582  0.7624  1.4872
 1006MOL0     H32779   9.623   6.994   4.712 -0.0521 -0.3031  3.2268
 1006MOL0     H32780  10.224   7.045   4.561  2.1175 -1.2013  0.3024
 1006MOL0     H32781  10.399   7.147   4.694 -0.8116  0.3860  0.1682
 1006MOL0     H32782  10.527   7.293   4.867 -0.3498  0.6407  0.4860
 1006MOL0     H32783  10.575   7.133   4.851 -6.0536  0.8248 -4.8736
 1006MOL0     H32784  10.719   7.275   4.993  2.1504 -0.6112  1.7546
 1006MOL0     H32785  10.595   7.322   5.102  1.9388  0.3091  1.6163
 1006MOL0     H32786  10.592   7.043   5.145 -0.5954  0.6288  0.5848
 1006MOL0     H32787  10.685   7.167   5.241  2.8788  1.0048 -1.4489
 1006MOL0     H32788  10.827   6.979   5.158  1.9207  1.1840 -0.4924
 1006MOL0     H32789  10.786   7.025   4.999  0.8101 -1.6557  0.0156
 1006MOL0     H32790  11.065   7.323   5.149  0.6343 -0.8767  0.7828
 1006MOL0     H32791  10.207   7.049   5.057  1.3843  2.7438 -0.0962
 1006MOL0     H32792   9.998   6.984   4.927 -0.1749  2.0759  1.7634
 1007MOL0     O32793  11.031   9.481   0.144 -0.4542  0.2993 -0.1094
 1007MOL0     C32794  11.062   9.601   0.147  0.6502  0.2311 -0.5369
 1007MOL0     O32795  10.973   9.697   0.178  0.3178 -0.1643 -0.5117
 1007MOL0     C32796  10.839   9.660   0.217 -0.0743 -0.5181  0.5041
 1007MOL0     C32797  10.775   9.710   0.333  0.5442  0.0302 -1.2257
 1007MOL0     C32798  10.651   9.664   0.373 -0.4890  0.1717 -0.3004
 1007MOL0     C32799  10.573   9.583   0.287 -0.9785  0.2452 -0.1889
 1007MOL0     O32800  10.456   9.529   0.330  0.6249  1.4996  0.2660
 1007MOL0     C32801  10.347   9.623   0.350  0.8613  0.4318 -1.0255
 1007MOL0     C32802  10.214   9.543   0.360 -0.4320 -0.1475  0.5160
 1007MOL0     C32803  10.175   9.468   0.236 -0.3002  0.7161 -0.3388
 1007MOL0     C32804  10.059   9.373   0.259 -0.3487 -0.7456  0.1933
 1007MOL0     C32805   9.934   9.439   0.312 -0.4210  0.2769  0.6424
 1007MOL0     C32806   9.812   9.370   0.259 -0.1536 -0.8612  0.7208
 1007MOL0     C32807   9.684   9.376   0.349  0.1257 -0.2522  0.1669
 1007MOL0     C32808   9.692   9.319   0.492 -0.2169  0.6403 -0.5220
 1007MOL0     N32809   9.555   9.318   0.544 -1.0116  1.1723  0.9684
 1007MOL0     C32810   9.470   9.415   0.587  0.0679  0.4660 -0.2214
 1007MOL0     C32811   9.349   9.356   0.597  0.7295 -0.4903 -0.5867
 1007MOL0     C32812   9.218   9.415   0.646 -0.2205  0.1119 -0.1306
 1007MOL0     C32813   9.100   9.396   0.550  0.3172 -0.2436 -0.3425
 1007MOL0     C32814   8.968   9.419   0.629  1.4417 -0.7237  0.1879
 1007MOL0     C32815   8.921   9.303   0.708 -0.3451 -0.5904 -0.7393
 1007MOL0     O32816   8.795   9.339   0.766 -0.3742 -0.0628 -0.0300
 1007MOL0     C32817   8.678   9.301   0.704  0.2215 -0.7526  0.2843
 1007MOL0     C32818   8.651   9.206   0.599  0.3842  0.5365 -1.1293
 1007MOL0     C32819   8.523   9.187   0.551  0.4367  0.5736  0.0044
 1007MOL0     C32820   8.419   9.273   0.592 -0.1858  0.2978  1.1157
 1007MOL0     C32821   8.282   9.244   0.541  0.5804 -0.0853  0.2366
 1007MOL0     O32822   8.190   9.233   0.634  0.2531 -0.2879  0.3398
 1007MOL0     C32823   8.055   9.203   0.594  0.1463  1.0024  0.0060
 1007MOL0     C32824   7.972   9.139   0.689 -0.4009  0.1168  0.1356
 1007MOL0     C32825   7.834   9.122   0.671 -0.5876  0.2397  0.8015
 1007MOL0     C32826   7.769   9.172   0.564  0.0772  0.6815  0.2048
 1007MOL0     O32827   7.636   9.178   0.562 -0.3528 -0.4029  0.5140
 1007MOL0     C32828   7.566   9.053   0.551 -0.0318 -0.4159 -0.0160
 1007MOL0     C32829   7.441   9.067   0.632  0.6161  0.1210 -0.5731
 1007MOL0     C32830   7.357   8.942   0.648 -0.1394  0.1626 -0.9642
 1007MOL0     C32831   7.266   8.931   0.525 -0.4155  0.3046 -0.3675
 1007MOL0     C32832   7.171   8.808   0.516  0.6456 -0.0719 -1.0912
 1007MOL0     C32833   7.228   8.672   0.472 -0.5405 -0.0038  0.3316
 1007MOL0     C32834   7.131   8.552   0.492  0.2682  0.6590  0.1874
 1007MOL0     C32835   7.206   8.415   0.486  0.1523  0.7050  0.9738
 1007MOL0    Cl32836   7.290   8.383   0.642  0.0369  0.1337 -0.2320
 1007MOL0     C32837   7.856   9.242   0.472  0.0655  0.1027  1.4927
 1007MOL0     C32838   7.994   9.247   0.485  0.0682 -0.5239 -0.2281
 1007MOL0     O32839   8.267   9.216   0.422 -0.2264  0.1399  0.1286
 1007MOL0     C32840   8.445   9.380   0.672 -0.1204 -0.2849  0.0872
 1007MOL0     C32841   8.570   9.391   0.729  1.0530 -0.5124 -0.5306
 1007MOL0     N32842   9.364   9.227   0.558 -0.1486  0.0364  0.0050
 1007MOL0     N32843   9.488   9.207   0.528  0.2237  0.7668  0.0532
 1007MOL0     C32844  10.628   9.541   0.167 -0.0982 -0.5493 -0.4259
 1007MOL0     C32845  10.754   9.582   0.136 -1.0067 -0.0535 -0.0479
 1007MOL0     C32846  11.205   9.652   0.118  0.3842  0.1502  0.4467
 1007MOL0     C32847  11.299   9.570   0.052  0.5190  0.6415 -0.0864
 1007MOL0     C32848  11.418   9.632   0.011 -0.0418 -0.7266 -0.7583
 1007MOL0     C32849  11.455   9.763   0.048 -0.4623  0.5643  0.7224
 1007MOL0     O32850  11.569   9.821  -0.006 -0.2324  0.1056 -0.5694
 1007MOL0     C32851  11.638   9.930   0.070 -0.2011 -0.1208  1.0505
 1007MOL0     C32852  11.751   9.981  -0.022  0.1735  0.8792 -0.8618
 1007MOL0     C32853  11.806  10.103   0.053  0.4172  0.1517  0.4817
 1007MOL0     C32854  11.918  10.178  -0.018 -0.3984  0.2761  0.1335
 1007MOL0     C32855  12.044  10.103  -0.019  0.1593  0.0684  0.7740
 1007MOL0     C32856  12.149  10.034  -0.021 -0.0351 -0.5200  0.3981
 1007MOL0     C32857  11.352   9.839   0.104  0.0549 -0.4782 -0.0727
 1007MOL0     C32858  11.231   9.789   0.140  0.3181  0.0989  0.0437
 1007MOL0     H32859  10.835   9.766   0.404 -1.3369 -0.0416  0.5129
 1007MOL0     H32860  10.611   9.700   0.467 -1.3239 -0.6688 -0.3197
 1007MOL0     H32861  10.340   9.679   0.256 -0.4990  0.8961 -0.6629
 1007MOL0     H32862  10.360   9.677   0.444 -2.1811 -2.1561  1.0750
 1007MOL0     H32863  10.140   9.621   0.379  0.4124  0.6206  0.7039
 1007MOL0     H32864  10.226   9.480   0.449  3.6961  0.9145  0.9246
 1007MOL0     H32865  10.266   9.414   0.208  0.8886  1.5039  1.7152
 1007MOL0     H32866  10.145   9.538   0.158 -1.2687  0.9143  0.1899
 1007MOL0     H32867  10.048   9.327   0.160  0.8112 -3.3908  1.1766
 1007MOL0     H32868  10.087   9.290   0.324  1.1685 -0.1318  0.3695
 1007MOL0     H32869   9.931   9.547   0.298 -0.2615  0.2482  0.3823
 1007MOL0     H32870   9.923   9.425   0.420 -2.8647 -0.4568  0.3780
 1007MOL0     H32871   9.822   9.262   0.243 -1.6469 -0.7187 -1.6621
 1007MOL0     H32872   9.803   9.407   0.157 -1.6508 -0.3505  1.0268
 1007MOL0     H32873   9.634   9.473   0.348 -2.2878 -1.3686 -2.4429
 1007MOL0     H32874   9.605   9.319   0.300 -1.6311 -0.1426  2.6610
 1007MOL0     H32875   9.757   9.381   0.554  1.7228 -0.4246 -1.4217
 1007MOL0     H32876   9.734   9.218   0.492 -0.0454  0.6803 -2.5241
 1007MOL0     H32877   9.498   9.515   0.618 -2.0135  0.3188  2.5036
 1007MOL0     H32878   9.236   9.523   0.655 -0.5743  0.4255 -2.4472
 1007MOL0     H32879   9.179   9.376   0.740 -1.1311  0.5939 -0.2909
 1007MOL0     H32880   9.114   9.296   0.508  0.3526  1.0492 -3.7073
 1007MOL0     H32881   9.094   9.471   0.471  1.6014 -1.6018 -1.7873
 1007MOL0     H32882   8.987   9.501   0.699  0.2315  0.4587 -0.8169
 1007MOL0     H32883   8.885   9.457   0.569  2.5519  0.7423 -0.4823
 1007MOL0     H32884   8.993   9.280   0.787  0.3389 -1.4428 -1.5874
 1007MOL0     H32885   8.932   9.209   0.653  2.7317 -1.1667  0.6673
 1007MOL0     H32886   8.731   9.143   0.564  2.1717  1.8184  0.4200
 1007MOL0     H32887   8.495   9.115   0.475  2.8424  0.7310 -1.1072
 1007MOL0     H32888   8.002   9.096   0.784 -3.9433 -1.4313  0.6991
 1007MOL0     H32889   7.776   9.079   0.753 -0.6608  0.2874  0.7756
 1007MOL0     H32890   7.620   8.964   0.584  0.3153  0.2300  1.2406
 1007MOL0     H32891   7.535   9.040   0.447 -1.2279  4.4423 -0.5212
 1007MOL0     H32892   7.386   9.157   0.602  0.5647  1.1703  2.2884
 1007MOL0     H32893   7.477   9.088   0.734  0.6912 -0.2102 -0.5313
 1007MOL0     H32894   7.300   8.948   0.741  0.6057  1.3919 -0.5686
 1007MOL0     H32895   7.409   8.847   0.664 -1.6116 -0.0341  5.2871
 1007MOL0     H32896   7.203   9.019   0.513  2.1109  2.5015  1.3338
 1007MOL0     H32897   7.337   8.924   0.441  0.7445  1.7182  0.4610
 1007MOL0     H32898   7.079   8.832   0.462  0.2325 -0.4307 -0.5603
 1007MOL0     H32899   7.130   8.784   0.615 -0.6857  0.1181 -1.5720
 1007MOL0     H32900   7.319   8.660   0.532 -1.1830  0.5613  1.4365
 1007MOL0     H32901   7.270   8.683   0.371 -1.8310  0.1738 -0.2054
 1007MOL0     H32902   7.089   8.562   0.593 -0.3020  0.5896 -0.0380
 1007MOL0     H32903   7.050   8.553   0.418 -0.0406  1.9513  0.5054
 1007MOL0     H32904   7.274   8.420   0.400  2.7598  3.8056  2.9909
 1007MOL0     H32905   7.127   8.341   0.470 -0.2437  1.0095  1.4774
 1007MOL0     H32906   7.822   9.288   0.380  4.7364  3.4901  1.1347
 1007MOL0     H32907   8.038   9.315   0.413 -2.9782  1.0970 -0.7019
 1007MOL0     H32908   8.360   9.441   0.702 -4.4533 -3.5703 -3.9074
 1007MOL0     H32909   8.604   9.477   0.785  0.0061  1.0195 -2.1330
 1007MOL0     H32910  10.576   9.480   0.094 -3.3448 -0.0635  1.2796
 1007MOL0     H32911  10.785   9.533   0.044 -1.0773  2.1578 -1.3211
 1007MOL0     H32912  11.289   9.464   0.030 -3.2651  0.7430  0.4358
 1007MOL0     H32913  11.506   9.579  -0.023  1.9605  3.3033 -2.4366
 1007MOL0     H32914  11.678   9.881   0.159  0.3849 -1.9514 -0.1613
 1007MOL0     H32915  11.576  10.014   0.100  0.0814  1.0104 -1.3322
 1007MOL0     H32916  11.820   9.898  -0.041 -2.9239 -1.8810 -1.0589
 1007MOL0     H32917  11.705  10.011  -0.117 -2.0438  2.4733  0.6141
 1007MOL0     H32918  11.841  10.070   0.151  0.4024 -1.4994 -0.0394
 1007MOL0     H32919  11.726  10.178   0.064  1.0458  1.3542 -2.3090
 1007MOL0     H32920  11.880  10.198  -0.119 -2.3435 -0.6669  0.6188
 1007MOL0     H32921  11.929  10.275   0.030 -2.6595  1.2607 -1.1867
 1007MOL0     H32922  12.220   9.956  -0.037  1.0424  0.9401 -2.6825
 1007MOL0     H32923  11.364   9.945   0.123 -0.2221 -0.4892  0.1825
 1007MOL0     H32924  11.152   9.857   0.170  0.5323  0.8683 -1.0829
 1008MOL0     O32925   1.086  11.049   9.297  0.2663 -0.4817  1.1871
 1008MOL0     C32926   1.066  11.014   9.182  1.1247  0.1006 -0.3348
 1008MOL0     O32927   0.943  11.001   9.116 -0.6012  0.2075 -0.6150
 1008MOL0     C32928   0.829  11.047   9.170  0.7728 -0.5988 -0.5415
 1008MOL0     C32929   0.815  11.169   9.246  0.6423  0.3733 -0.2031
 1008MOL0     C32930   0.692  11.202   9.306 -0.5310  0.2926 -0.2415
 1008MOL0     C32931   0.572  11.135   9.276 -0.0082 -0.4732 -1.0660
 1008MOL0     O32932   0.447  11.167   9.323  0.9462 -0.3068  0.2866
 1008MOL0     C32933   0.403  11.305   9.315 -0.1846  0.3589 -0.3035
 1008MOL0     C32934   0.253  11.322   9.357  0.0965  0.3768 -0.2132
 1008MOL0     C32935   0.229  11.474   9.374 -0.2411  0.5890 -0.0738
 1008MOL0     C32936   0.101  11.528   9.418  0.5139  0.6006  0.0267
 1008MOL0     C32937   0.005  11.539   9.296  0.2313 -0.2469 -0.9174
 1008MOL0     C32938  -0.135  11.575   9.329 -0.3710  0.4289 -0.1532
 1008MOL0     C32939  -0.228  11.549   9.213 -0.1564  0.5172  0.5860
 1008MOL0     C32940  -0.369  11.549   9.250  0.4354 -0.6919 -0.6022
 1008MOL0     N32941  -0.461  11.570   9.135  0.9845  0.3293  0.4911
 1008MOL0     C32942  -0.484  11.695   9.072  0.7798  0.6072  0.0642
 1008MOL0     C32943  -0.601  11.683   9.002  0.8514  0.4058 -1.2805
 1008MOL0     C32944  -0.665  11.785   8.901  0.4553  0.2602  0.6444
 1008MOL0     C32945  -0.763  11.712   8.798 -1.2094  0.1066 -0.4003
 1008MOL0     C32946  -0.895  11.677   8.872 -0.2413 -0.6199  0.5597
 1008MOL0     C32947  -0.983  11.603   8.771 -0.2021  0.3356 -0.0936
 1008MOL0     O32948  -1.002  11.680   8.653 -0.5027 -0.0401 -0.0771
 1008MOL0     C32949  -1.098  11.644   8.566 -0.1457  0.0908 -0.5277
 1008MOL0     C32950  -1.082  11.711   8.443  0.4684 -0.6523 -0.2539
 1008MOL0     C32951  -1.171  11.687   8.342  1.6442  0.4665 -0.6915
 1008MOL0     C32952  -1.283  11.608   8.366  0.0126  0.8025 -0.0753
 1008MOL0     C32953  -1.378  11.582   8.251  0.8992  0.4871  0.0698
 1008MOL0     O32954  -1.343  11.604   8.128 -0.1189 -0.2987  0.0877
 1008MOL0     C32955  -1.420  11.567   8.019 -0.2871 -0.2556 -0.0050
 1008MOL0     C32956  -1.558  11.575   8.002 -0.2404  0.4489 -0.0580
 1008MOL0     C32957  -1.623  11.557   7.879 -0.6348  0.1931  0.0787
 1008MOL0     C32958  -1.552  11.513   7.769 -0.2646  0.3405 -0.1984
 1008MOL0     O32959  -1.635  11.482   7.656 -0.6986  0.7413  0.1349
 1008MOL0     C32960  -1.566  11.402   7.553  0.1805  0.3915 -0.1426
 1008MOL0     C32961  -1.667  11.377   7.444  0.0634  0.0159 -0.6633
 1008MOL0     C32962  -1.652  11.481   7.330  0.2481 -0.4650  0.2848
 1008MOL0     C32963  -1.731  11.455   7.207 -0.1544  0.8051  0.0447
 1008MOL0     C32964  -1.742  11.562   7.099  1.0231  0.2779 -0.9610
 1008MOL0     C32965  -1.820  11.677   7.157 -1.0612 -0.1276  0.0559
 1008MOL0     C32966  -1.835  11.786   7.054  0.1654 -0.7668  0.3715
 1008MOL0     C32967  -1.941  11.889   7.101  0.7212 -0.6960 -1.1052
 1008MOL0    Cl32968  -2.109  11.846   7.092  0.0381 -0.4226  0.4149
 1008MOL0     C32969  -1.416  11.482   7.789 -0.0878 -1.3224  0.9214
 1008MOL0     C32970  -1.353  11.506   7.913  0.4482  0.1572  0.1657
 1008MOL0     O32971  -1.488  11.547   8.288  0.2201 -0.1983 -0.0135
 1008MOL0     C32972  -1.296  11.531   8.484 -0.2167  0.0269 -0.5137
 1008MOL0     C32973  -1.202  11.559   8.589  0.4789 -0.4651  0.1787
 1008MOL0     N32974  -0.637  11.554   9.023  0.5337 -0.6428 -0.1451
 1008MOL0     N32975  -0.559  11.487   9.099  0.3414  0.4060  0.0601
 1008MOL0     C32976   0.588  11.024   9.197  0.6457 -0.4527  0.4290
 1008MOL0     C32977   0.707  10.978   9.149  0.0719  0.2300 -0.0381
 1008MOL0     C32978   1.194  10.994   9.106 -0.2638  0.6204  0.9912
 1008MOL0     C32979   1.189  10.976   8.963 -0.0732 -0.4970  0.5741
 1008MOL0     C32980   1.302  10.965   8.884 -0.1487  0.2110  0.1977
 1008MOL0     C32981   1.422  10.949   8.945 -0.2397 -0.2663 -0.7124
 1008MOL0     O32982   1.530  10.937   8.854 -0.1905 -0.6571  0.2059
 1008MOL0     C32983   1.650  10.873   8.885 -1.2335 -0.5480 -0.5539
 1008MOL0     C32984   1.677  10.761   8.785 -0.5688  0.0488  0.4946
 1008MOL0     C32985   1.823  10.696   8.792 -0.1488 -0.5288  0.6052
 1008MOL0     C32986   1.853  10.626   8.927 -0.0818  0.3123  0.2568
 1008MOL0     C32987   1.920  10.500   8.892 -1.1559  0.7434 -0.5435
 1008MOL0     C32988   1.979  10.400   8.848 -0.7612 -0.0133  0.3783
 1008MOL0     C32989   1.433  10.961   9.080  0.6125  0.0863  0.2380
 1008MOL0     C32990   1.321  10.981   9.163  0.5023  0.5880 -0.1884
 1008MOL0     H32991   0.900  11.232   9.269 -1.3128  3.0640  0.1998
 1008MOL0     H32992   0.687  11.295   9.364 -1.6617  2.2334 -3.2111
 1008MOL0     H32993   0.400  11.346   9.214 -1.2441  0.2844 -0.3099
 1008MOL0     H32994   0.461  11.370   9.382  0.0518 -0.4724  0.3157
 1008MOL0     H32995   0.233  11.266   9.449 -2.1663  1.6600  0.1507
 1008MOL0     H32996   0.192  11.277   9.277  1.8083 -0.2507 -1.2204
 1008MOL0     H32997   0.251  11.525   9.280 -2.6201  3.2694  0.6948
 1008MOL0     H32998   0.294  11.506   9.455 -1.5414 -1.2242  1.7920
 1008MOL0     H32999   0.048  11.471   9.494 -0.6956  0.2129 -1.0669
 1008MOL0     H33000   0.134  11.621   9.465  5.3879 -0.3689 -0.9005
 1008MOL0     H33001   0.016  11.443   9.245 -0.1895 -0.2691 -0.9618
 1008MOL0     H33002   0.047  11.613   9.226  0.6292 -1.2471 -1.7623
 1008MOL0     H33003  -0.142  11.681   9.358  0.1477  0.5145 -0.3291
 1008MOL0     H33004  -0.167  11.506   9.407  0.5204  0.3339  0.1455
 1008MOL0     H33005  -0.207  11.620   9.132 -0.2118  1.4943  1.3969
 1008MOL0     H33006  -0.212  11.448   9.175  0.6170  1.5078 -1.9575
 1008MOL0     H33007  -0.399  11.629   9.319 -1.2521 -0.7806 -1.1979
 1008MOL0     H33008  -0.392  11.457   9.304 -1.0479  0.8076  1.4839
 1008MOL0     H33009  -0.419  11.781   9.085  0.1598  0.8974  1.4233
 1008MOL0     H33010  -0.592  11.842   8.843  0.5393  1.5126  1.9382
 1008MOL0     H33011  -0.723  11.858   8.958  2.5908  1.4536  1.3941
 1008MOL0     H33012  -0.709  11.626   8.755  0.1898  1.3961 -1.3147
 1008MOL0     H33013  -0.791  11.783   8.720 -4.8556 -0.4951  0.1649
 1008MOL0     H33014  -0.874  11.615   8.959  1.9788 -0.0574  0.4652
 1008MOL0     H33015  -0.939  11.771   8.905  3.6976  1.5509  0.2397
 1008MOL0     H33016  -1.081  11.581   8.814 -1.2421 -0.1256 -2.5549
 1008MOL0     H33017  -0.938  11.505   8.754 -0.8379  0.4031 -2.5038
 1008MOL0     H33018  -0.983  11.756   8.433 -0.6534  2.1463  0.1938
 1008MOL0     H33019  -1.158  11.717   8.238  0.9207  0.4489 -0.7886
 1008MOL0     H33020  -1.614  11.613   8.087  0.1688  0.5171  0.1856
 1008MOL0     H33021  -1.731  11.569   7.875 -0.4857  1.8495  0.3973
 1008MOL0     H33022  -1.518  11.313   7.593 -0.4249 -1.9544 -4.1286
 1008MOL0     H33023  -1.489  11.474   7.521  0.3242  0.5803  0.5991
 1008MOL0     H33024  -1.769  11.390   7.479  0.8288 -2.5453  3.1228
 1008MOL0     H33025  -1.646  11.271   7.426 -0.2235  0.1262 -1.7079
 1008MOL0     H33026  -1.549  11.496   7.296  0.1896 -1.4552 -0.3670
 1008MOL0     H33027  -1.686  11.576   7.371 -0.2746 -0.0404 -1.0868
 1008MOL0     H33028  -1.673  11.375   7.160  1.3483  0.8072  1.7745
 1008MOL0     H33029  -1.831  11.420   7.235  0.4290  0.9993  2.6439
 1008MOL0     H33030  -1.788  11.514   7.012 -2.7746  0.8546  0.5697
 1008MOL0     H33031  -1.646  11.599   7.061  0.9622  2.4098  0.7418
 1008MOL0     H33032  -1.765  11.715   7.243 -3.4175  4.4192 -0.1322
 1008MOL0     H33033  -1.920  11.638   7.176 -1.6673  0.9089 -0.8425
 1008MOL0     H33034  -1.735  11.829   7.042  0.3373 -0.6150  2.1079
 1008MOL0     H33035  -1.867  11.742   6.959 -0.1872 -1.6021  0.8617
 1008MOL0     H33036  -1.921  11.983   7.049  3.0912  0.1409  1.1172
 1008MOL0     H33037  -1.923  11.916   7.205  0.4596 -1.6518 -0.7957
 1008MOL0     H33038  -1.359  11.424   7.718  0.1339  1.9904 -1.9087
 1008MOL0     H33039  -1.252  11.467   7.918  1.0908  1.5920 -1.0057
 1008MOL0     H33040  -1.384  11.475   8.513 -1.5204  2.3581  0.3050
 1008MOL0     H33041  -1.219  11.514   8.686  1.3161 -4.0689 -1.1922
 1008MOL0     H33042   0.499  10.972   9.163 -0.6606  0.8275  1.6971
 1008MOL0     H33043   0.713  10.884   9.094  3.1299  0.5708 -0.4388
 1008MOL0     H33044   1.095  10.989   8.910 -0.0478 -2.8051 -0.1593
 1008MOL0     H33045   1.308  10.966   8.776  3.2776 -1.8584  0.2022
 1008MOL0     H33046   1.657  10.823   8.982  0.9983 -2.4527 -1.5775
 1008MOL0     H33047   1.729  10.948   8.879  1.1286 -2.6297  1.6777
 1008MOL0     H33048   1.604  10.683   8.805 -0.7787 -0.0895 -0.7511
 1008MOL0     H33049   1.658  10.793   8.682  3.2068 -1.1602 -0.7320
 1008MOL0     H33050   1.896  10.777   8.790 -0.5314 -0.1828 -1.4590
 1008MOL0     H33051   1.838  10.631   8.705  0.6538  0.0323  0.3130
 1008MOL0     H33052   1.922  10.683   8.991  1.4830  0.2167 -1.2618
 1008MOL0     H33053   1.757  10.595   8.969 -0.4356  2.7637  1.4487
 1008MOL0     H33054   2.036  10.311   8.830  1.1607  1.3561 -0.8215
 1008MOL0     H33055   1.527  10.966   9.134 -0.9322 -2.1901  3.5101
 1008MOL0     H33056   1.332  10.987   9.271 -2.7424 -4.0048  0.7237
 1009MOL0     O33057  10.420   1.406   3.339 -0.3354 -0.8379 -0.3172
 1009MOL0     C33058  10.338   1.409   3.251 -0.6711 -0.1789  0.1703
 1009MOL0     O33059  10.205   1.452   3.262  0.0955  0.8336 -0.0574
 1009MOL0     C33060  10.148   1.482   3.388  0.9773  0.0265  0.0314
 1009MOL0     C33061  10.052   1.592   3.402  0.1503  0.2442  0.0382
 1009MOL0     C33062   9.965   1.606   3.515  0.3136  0.6442  0.3726
 1009MOL0     C33063   9.978   1.509   3.618 -0.7745 -0.6775  0.1770
 1009MOL0     O33064   9.896   1.492   3.730  0.2966 -0.3603  0.3488
 1009MOL0     C33065   9.860   1.616   3.794 -0.5160 -1.4149 -0.4579
 1009MOL0     C33066   9.836   1.591   3.950 -0.0870  0.9337  0.1998
 1009MOL0     C33067   9.797   1.705   4.040 -0.9721 -0.3117  0.7084
 1009MOL0     C33068   9.659   1.758   4.004  0.8637  0.5458 -0.5697
 1009MOL0     C33069   9.622   1.879   4.088  0.3087 -0.5750  0.0004
 1009MOL0     C33070   9.471   1.925   4.061 -0.0822 -0.0197 -0.0194
 1009MOL0     C33071   9.430   2.041   4.156  0.1037 -0.5186  0.5474
 1009MOL0     C33072   9.288   2.084   4.106 -0.0597 -0.2782 -0.2479
 1009MOL0     N33073   9.211   2.164   4.198  0.8607 -0.5165 -0.4221
 1009MOL0     C33074   9.124   2.119   4.296  0.0870 -0.0280 -0.6027
 1009MOL0     C33075   9.053   2.221   4.350 -0.1833 -0.1998 -0.9318
 1009MOL0     C33076   8.951   2.215   4.453 -0.2428 -0.6936 -0.5472
 1009MOL0     C33077   8.818   2.247   4.386 -0.2291  0.5245  0.9996
 1009MOL0     C33078   8.706   2.239   4.492 -0.3750  0.0572  0.9143
 1009MOL0     C33079   8.564   2.281   4.439  0.4495 -0.3577  0.2862
 1009MOL0     O33080   8.494   2.192   4.348  0.7766  0.4688  0.5457
 1009MOL0     C33081   8.360   2.211   4.338 -0.3839  0.1272  0.3786
 1009MOL0     C33082   8.312   2.325   4.272 -0.2045  0.1900 -0.1222
 1009MOL0     C33083   8.176   2.359   4.265  0.4931  0.1294 -0.5549
 1009MOL0     C33084   8.080   2.284   4.327 -0.3063 -0.2254  0.4263
 1009MOL0     C33085   7.945   2.331   4.328 -0.2490  0.2545  0.3584
 1009MOL0     O33086   7.888   2.394   4.219  0.5122  0.3633 -0.0297
 1009MOL0     C33087   7.773   2.459   4.227 -0.6787  1.1752 -0.5123
 1009MOL0     C33088   7.777   2.596   4.239  0.2339 -0.3188  0.1759
 1009MOL0     C33089   7.651   2.654   4.268  0.6041  0.6692  0.0139
 1009MOL0     C33090   7.527   2.583   4.245 -0.0397  0.2336  0.1477
 1009MOL0     O33091   7.416   2.657   4.244  0.0486 -0.2353 -0.0492
 1009MOL0     C33092   7.289   2.583   4.229  0.2794 -0.0167 -0.8044
 1009MOL0     C33093   7.171   2.680   4.214  0.3493  0.1810 -0.0276
 1009MOL0     C33094   7.036   2.602   4.208 -0.1646  0.2845  0.0006
 1009MOL0     C33095   7.011   2.511   4.315 -0.2622 -0.5141 -0.3188
 1009MOL0     C33096   6.867   2.466   4.300  0.3703  0.3007  0.1801
 1009MOL0     C33097   6.859   2.325   4.360 -0.4907 -1.1010 -0.4177
 1009MOL0     C33098   6.728   2.258   4.335  0.3498  0.2693  0.2780
 1009MOL0     C33099   6.729   2.119   4.395 -0.2528  0.4223  0.0936
 1009MOL0    Cl33100   6.759   2.117   4.575 -0.2460  0.1221 -0.0211
 1009MOL0     C33101   7.532   2.448   4.215 -0.5706 -0.0682  0.4740
 1009MOL0     C33102   7.653   2.388   4.209  0.2718  0.5559 -0.3784
 1009MOL0     O33103   7.883   2.303   4.432 -0.2778 -0.6334  0.1023
 1009MOL0     C33104   8.121   2.165   4.389 -0.0249  0.2454  0.2553
 1009MOL0     C33105   8.256   2.139   4.398 -0.2794  0.7580  0.8110
 1009MOL0     N33106   9.108   2.338   4.294 -0.1139 -0.2505 -0.3450
 1009MOL0     N33107   9.177   2.297   4.189  0.1285  0.1928 -0.1166
 1009MOL0     C33108  10.067   1.407   3.601  0.3472  0.1367  0.0482
 1009MOL0     C33109  10.143   1.386   3.488 -0.1679 -0.8412  0.0085
 1009MOL0     C33110  10.380   1.350   3.122 -0.1736 -0.5997 -0.2149
 1009MOL0     C33111  10.285   1.304   3.023  1.2836  0.1934 -0.1207
 1009MOL0     C33112  10.316   1.262   2.905  0.4895  0.2726  0.7988
 1009MOL0     C33113  10.443   1.278   2.860 -0.3308  0.5177 -0.3224
 1009MOL0     O33114  10.449   1.278   2.725 -0.2762  0.3435 -0.1987
 1009MOL0     C33115  10.582   1.273   2.663 -0.3415  0.0239 -1.1270
 1009MOL0     C33116  10.563   1.279   2.513 -0.2606 -0.0974 -0.8197
 1009MOL0     C33117  10.516   1.146   2.462  0.7364  0.0654 -0.3771
 1009MOL0     C33118  10.473   1.167   2.313 -0.1425  0.0593 -0.7556
 1009MOL0     C33119  10.402   1.052   2.261 -0.5678  0.1891  0.2967
 1009MOL0     C33120  10.334   0.964   2.218 -0.1636  0.7561 -0.1450
 1009MOL0     C33121  10.547   1.298   2.958  0.2211  0.2472 -0.3848
 1009MOL0     C33122  10.516   1.337   3.085  0.0845  0.7112 -0.2621
 1009MOL0     H33123  10.033   1.658   3.318 -1.7863 -0.9763 -0.5495
 1009MOL0     H33124   9.889   1.684   3.513  0.2244  0.5465 -0.2482
 1009MOL0     H33125   9.786   1.672   3.737 -0.7617 -0.0858  1.0817
 1009MOL0     H33126   9.945   1.685   3.790 -1.9789  0.4345 -0.5379
 1009MOL0     H33127   9.924   1.542   3.993 -0.1505  1.0444  0.4526
 1009MOL0     H33128   9.760   1.513   3.951  2.0526 -1.3442 -1.3925
 1009MOL0     H33129   9.873   1.783   4.035 -0.2050 -0.9837  1.7646
 1009MOL0     H33130   9.779   1.676   4.143 -0.1222  1.4052  1.3717
 1009MOL0     H33131   9.657   1.791   3.900 -1.3075 -1.8995 -1.4282
 1009MOL0     H33132   9.584   1.681   4.024  1.3335  0.0891 -0.5274
 1009MOL0     H33133   9.683   1.968   4.069 -0.8481  0.1251 -0.5402
 1009MOL0     H33134   9.643   1.861   4.193  0.2033 -1.9639 -0.1985
 1009MOL0     H33135   9.406   1.837   4.059 -0.2337  0.0866 -1.6087
 1009MOL0     H33136   9.463   1.973   3.962 -2.5263  2.4275  1.2126
 1009MOL0     H33137   9.425   2.018   4.263  3.0313  1.9239  1.3495
 1009MOL0     H33138   9.503   2.122   4.147 -1.2900  0.5393 -3.0120
 1009MOL0     H33139   9.230   1.997   4.075  0.3091 -0.4125 -0.5641
 1009MOL0     H33140   9.306   2.137   4.012 -0.9191 -0.9428 -0.7981
 1009MOL0     H33141   9.118   2.019   4.338 -0.6271  0.7064  1.1310
 1009MOL0     H33142   8.973   2.299   4.519 -0.3008 -1.3222  0.2882
 1009MOL0     H33143   8.964   2.117   4.499  2.9057  0.0960  0.4678
 1009MOL0     H33144   8.793   2.178   4.305 -0.1226  1.9638 -0.3169
 1009MOL0     H33145   8.820   2.346   4.338 -1.3502  1.4775  2.8024
 1009MOL0     H33146   8.700   2.133   4.517 -1.9530 -0.2779 -0.6614
 1009MOL0     H33147   8.735   2.291   4.584  2.9745  1.0607 -0.5447
 1009MOL0     H33148   8.563   2.385   4.404  0.1693 -0.3964  0.1744
 1009MOL0     H33149   8.498   2.281   4.527 -0.1323  3.9221  0.0587
 1009MOL0     H33150   8.386   2.378   4.213  1.3410 -2.5669 -0.8135
 1009MOL0     H33151   8.151   2.444   4.202  4.2553  2.2058  0.4710
 1009MOL0     H33152   7.864   2.658   4.256 -0.1976 -0.4795  3.7498
 1009MOL0     H33153   7.656   2.762   4.279  1.6158  0.8461 -1.8115
 1009MOL0     H33154   7.267   2.509   4.306  2.1060  0.6090  0.3751
 1009MOL0     H33155   7.292   2.522   4.138  2.7098 -2.5854  0.8566
 1009MOL0     H33156   7.185   2.747   4.129  1.5043  0.0287  0.0253
 1009MOL0     H33157   7.171   2.736   4.309 -2.9597  0.2486  0.0379
 1009MOL0     H33158   7.036   2.559   4.108  2.2827  2.3708 -1.0051
 1009MOL0     H33159   6.963   2.680   4.231  0.6526  0.7500  1.1405
 1009MOL0     H33160   7.074   2.422   4.320 -0.5443 -0.8255 -1.7302
 1009MOL0     H33161   7.013   2.573   4.405  1.5440 -1.5389  0.3936
 1009MOL0     H33162   6.833   2.471   4.196  0.5249  1.5718  0.1769
 1009MOL0     H33163   6.794   2.522   4.358 -1.4117 -0.7688 -0.9241
 1009MOL0     H33164   6.879   2.343   4.466 -0.2485  1.1521 -0.7875
 1009MOL0     H33165   6.930   2.256   4.316  1.4469  0.4561  0.1161
 1009MOL0     H33166   6.649   2.318   4.381 -0.2685  0.2606 -0.7410
 1009MOL0     H33167   6.709   2.260   4.227  3.6293  2.4824 -0.4197
 1009MOL0     H33168   6.800   2.047   4.353 -2.1446 -3.2117  2.6177
 1009MOL0     H33169   6.633   2.077   4.366 -0.0087  0.9634 -1.5999
 1009MOL0     H33170   7.439   2.409   4.177 -1.3974  0.6921  1.6707
 1009MOL0     H33171   7.668   2.281   4.200  5.0871  0.9622  0.1654
 1009MOL0     H33172   8.056   2.086   4.427 -0.0893  1.1971  2.2390
 1009MOL0     H33173   8.290   2.048   4.445  1.3466 -0.7256 -2.8167
 1009MOL0     H33174  10.078   1.327   3.674  0.1357 -0.7328 -0.8453
 1009MOL0     H33175  10.203   1.296   3.484  1.6570  0.1878  2.0825
 1009MOL0     H33176  10.178   1.295   3.041  1.1663  1.3559 -0.1064
 1009MOL0     H33177  10.248   1.226   2.828  1.3551  1.0508 -0.3556
 1009MOL0     H33178  10.629   1.182   2.700  0.8994  1.0063 -0.1890
 1009MOL0     H33179  10.643   1.357   2.698 -1.1573 -0.8365  2.8258
 1009MOL0     H33180  10.486   1.352   2.486 -2.2758 -1.4840  0.8971
 1009MOL0     H33181  10.653   1.299   2.452  0.6341 -0.3523  0.3850
 1009MOL0     H33182  10.417   1.124   2.505 -0.5089  1.6576 -2.2620
 1009MOL0     H33183  10.575   1.056   2.479 -0.8729 -1.1732 -1.0042
 1009MOL0     H33184  10.408   1.254   2.299 -1.1235 -0.6445 -0.7184
 1009MOL0     H33185  10.562   1.185   2.252 -1.4359  0.4826 -2.6223
 1009MOL0     H33186  10.263   0.888   2.191  1.8971 -0.5533 -2.2676
 1009MOL0     H33187  10.642   1.294   2.906 -0.0120 -0.0623 -0.7984
 1009MOL0     H33188  10.590   1.371   3.157 -0.8641 -2.5554  2.5221
 1010MOL0     O33189   9.146   1.270   5.512  0.4923 -0.8204 -0.0846
 1010MOL0     C33190   9.180   1.369   5.573 -0.8359  0.6650 -0.1165
 1010MOL0     O33191   9.117   1.412   5.686 -0.7140 -0.7048  0.0873
 1010MOL0     C33192   9.006   1.351   5.728  0.2631 -0.4837  0.5018
 1010MOL0     C33193   9.023   1.279   5.846 -0.7751  0.7176 -0.9135
 1010MOL0     C33194   8.919   1.212   5.906 -0.3363 -0.1081  0.5338
 1010MOL0     C33195   8.795   1.203   5.829 -0.3378 -0.9078  0.5319
 1010MOL0     O33196   8.690   1.134   5.886  0.0169  0.0750  0.6460
 1010MOL0     C33197   8.560   1.160   5.826  0.2240  0.2211  0.4939
 1010MOL0     C33198   8.462   1.088   5.911 -0.3535  0.7656  0.1513
 1010MOL0     C33199   8.319   1.126   5.863  0.0716 -1.4978 -0.2013
 1010MOL0     C33200   8.218   1.033   5.927 -0.2190  0.0585  0.8906
 1010MOL0     C33201   8.076   1.076   5.885  0.0980  0.9687  0.9308
 1010MOL0     C33202   7.985   1.014   5.996 -0.0722  0.1696 -0.8984
 1010MOL0     C33203   7.839   1.043   5.960 -0.9209  0.1782 -0.0529
 1010MOL0     C33204   7.737   0.977   6.057  0.0179 -0.5753  0.0505
 1010MOL0     N33205   7.609   1.044   6.032  0.0998 -0.5917 -0.5382
 1010MOL0     C33206   7.515   0.999   5.944 -0.5886  0.3752 -0.3358
 1010MOL0     C33207   7.414   1.083   5.945  0.4828 -0.3425  0.2627
 1010MOL0     C33208   7.281   1.043   5.870  0.0481 -0.1890 -0.4031
 1010MOL0     C33209   7.178   1.002   5.981  0.1204 -1.1384  0.3554
 1010MOL0     C33210   7.059   0.926   5.922 -0.2666  1.5254 -0.1715
 1010MOL0     C33211   7.107   0.805   5.849 -0.1766 -0.0816 -0.0029
 1010MOL0     O33212   7.014   0.698   5.836 -0.5149  0.6226  0.5387
 1010MOL0     C33213   6.910   0.712   5.750 -0.9422 -0.9790 -0.0179
 1010MOL0     C33214   6.778   0.699   5.796 -0.6307  0.4465 -0.2996
 1010MOL0     C33215   6.671   0.720   5.712  0.5897  0.5865 -0.9326
 1010MOL0     C33216   6.687   0.731   5.574  0.7013  0.0046  0.5978
 1010MOL0     C33217   6.570   0.735   5.477  0.3472  0.1046 -0.0076
 1010MOL0     O33218   6.455   0.716   5.540  0.0408 -0.2959 -0.0016
 1010MOL0     C33219   6.337   0.715   5.478  0.6859  0.2060  0.1087
 1010MOL0     C33220   6.308   0.671   5.345  0.6096  0.6267 -0.1124
 1010MOL0     C33221   6.182   0.679   5.295 -0.0552 -0.2555 -0.1371
 1010MOL0     C33222   6.078   0.703   5.382 -0.3997  0.0171  0.1717
 1010MOL0     O33223   5.948   0.713   5.337  1.1500  0.0158  0.2616
 1010MOL0     C33224   5.835   0.676   5.426 -0.0037 -0.3023  0.4613
 1010MOL0     C33225   5.704   0.663   5.339 -0.4939  1.5510  0.3387
 1010MOL0     C33226   5.583   0.713   5.417 -0.0627  0.3195 -0.1951
 1010MOL0     C33227   5.450   0.677   5.349 -0.3715 -0.1790  0.2011
 1010MOL0     C33228   5.341   0.775   5.395  0.3004  0.2325  0.5908
 1010MOL0     C33229   5.196   0.710   5.372 -0.2225 -0.1301  0.7015
 1010MOL0     C33230   5.087   0.801   5.412 -0.0909  0.5302  0.2770
 1010MOL0     C33231   4.955   0.727   5.445 -0.6206 -1.0835  0.2315
 1010MOL0    Cl33232   4.920   0.635   5.300  0.0185  0.4158  0.2442
 1010MOL0     C33233   6.108   0.729   5.518  0.2058 -1.0079 -0.3695
 1010MOL0     C33234   6.238   0.725   5.573  0.0092 -0.4603 -0.3772
 1010MOL0     O33235   6.576   0.766   5.359  0.0122 -0.5196 -0.1736
 1010MOL0     C33236   6.819   0.746   5.530  0.0758  0.2461  0.2785
 1010MOL0     C33237   6.929   0.740   5.615  0.6518  0.9072  0.4308
 1010MOL0     N33238   7.435   1.176   6.053  0.2016  0.5953  0.6765
 1010MOL0     N33239   7.558   1.153   6.101 -0.0298 -0.7160  0.4618
 1010MOL0     C33240   8.780   1.268   5.708 -0.3687  0.1074 -0.0871
 1010MOL0     C33241   8.887   1.337   5.647  0.3326 -1.1472 -0.4964
 1010MOL0     C33242   9.306   1.433   5.523  0.8371  0.0276 -0.1041
 1010MOL0     C33243   9.372   1.520   5.615  0.0245 -0.1944  0.0301
 1010MOL0     C33244   9.505   1.568   5.571 -0.1528 -0.4186  0.4279
 1010MOL0     C33245   9.572   1.521   5.457 -0.2039  0.2568 -0.3418
 1010MOL0     O33246   9.696   1.576   5.418  0.2970 -0.1117 -0.0045
 1010MOL0     C33247   9.790   1.627   5.513  0.9289 -0.4940  0.0818
 1010MOL0     C33248   9.907   1.692   5.441  0.3343  0.4189 -0.0203
 1010MOL0     C33249   9.914   1.846   5.435  0.3561  0.2385 -0.3050
 1010MOL0     C33250  10.058   1.897   5.415  0.1232  0.3676  0.0511
 1010MOL0     C33251  10.118   1.828   5.297 -0.5829  0.8666  0.2950
 1010MOL0     C33252  10.160   1.752   5.216 -1.2595 -0.1167  0.2519
 1010MOL0     C33253   9.505   1.427   5.380  0.3994 -0.3729 -1.2009
 1010MOL0     C33254   9.381   1.382   5.415  0.1806  0.2749  0.2419
 1010MOL0     H33255   9.113   1.302   5.902 -2.2522  2.3065  0.9752
 1010MOL0     H33256   8.910   1.171   6.006 -0.7863  1.0443  0.9728
 1010MOL0     H33257   8.546   1.125   5.724  3.2683  3.5473 -1.3208
 1010MOL0     H33258   8.533   1.266   5.829 -1.7288 -0.2476  0.5053
 1010MOL0     H33259   8.481   1.102   6.017  0.1739  1.1690  0.0080
 1010MOL0     H33260   8.482   0.982   5.891 -0.4429  0.4632  1.6017
 1010MOL0     H33261   8.308   1.120   5.755  1.9500  3.4579 -0.9437
 1010MOL0     H33262   8.308   1.234   5.881 -2.0318 -1.7456  0.1846
 1010MOL0     H33263   8.239   0.932   5.892 -0.4897  1.1676 -2.8838
 1010MOL0     H33264   8.223   1.033   6.037 -0.0658 -2.0157  0.9060
 1010MOL0     H33265   8.046   1.042   5.785 -2.0296 -0.6227  2.0268
 1010MOL0     H33266   8.062   1.184   5.877 -2.8810  0.6188  0.1922
 1010MOL0     H33267   8.014   1.067   6.087  0.5530 -0.1535 -0.9075
 1010MOL0     H33268   8.011   0.908   6.007 -0.6183 -0.1873 -2.6814
 1010MOL0     H33269   7.835   1.153   5.963 -0.7926  0.1952 -0.4194
 1010MOL0     H33270   7.825   1.019   5.854  0.0124  0.5089 -0.2681
 1010MOL0     H33271   7.770   0.969   6.162 -1.2218  2.0851  0.7247
 1010MOL0     H33272   7.719   0.873   6.028  1.3864 -0.6811 -0.4834
 1010MOL0     H33273   7.525   0.908   5.886  0.0121  0.4208 -0.3137
 1010MOL0     H33274   7.306   0.962   5.800  0.7102  2.0333 -2.9025
 1010MOL0     H33275   7.237   1.119   5.804 -2.2351 -2.9080 -2.2449
 1010MOL0     H33276   7.137   1.085   6.039 -1.7829 -1.2531 -0.7683
 1010MOL0     H33277   7.226   0.933   6.051  1.5348 -0.9903 -0.4255
 1010MOL0     H33278   7.004   0.887   6.007  0.5893  3.5120  1.3647
 1010MOL0     H33279   6.998   0.985   5.853  0.5455  0.9581 -1.4347
 1010MOL0     H33280   7.195   0.761   5.898  0.2118  0.6517 -0.0333
 1010MOL0     H33281   7.142   0.841   5.752  1.1198  0.7346  0.7440
 1010MOL0     H33282   6.777   0.681   5.903  1.3720  1.2292 -0.1009
 1010MOL0     H33283   6.572   0.717   5.755 -0.2908 -0.8023 -2.8989
 1010MOL0     H33284   6.388   0.639   5.279  0.0063 -0.1935 -0.4715
 1010MOL0     H33285   6.154   0.653   5.193 -0.2817 -2.3038  0.3958
 1010MOL0     H33286   5.825   0.758   5.497 -1.2958  0.2294 -0.3109
 1010MOL0     H33287   5.855   0.582   5.479  2.2408 -0.2120 -0.1015
 1010MOL0     H33288   5.697   0.559   5.307 -3.7454  1.8835 -0.3240
 1010MOL0     H33289   5.709   0.724   5.249 -0.5608  1.4392  0.2596
 1010MOL0     H33290   5.597   0.821   5.426 -2.0559  0.6179 -0.1013
 1010MOL0     H33291   5.582   0.671   5.518 -1.4320 -3.2380 -1.5253
 1010MOL0     H33292   5.464   0.687   5.241  0.7778  1.9599  0.5071
 1010MOL0     H33293   5.418   0.577   5.382 -1.2224 -0.0493 -0.2095
 1010MOL0     H33294   5.335   0.864   5.332  2.0293  0.0989  0.1960
 1010MOL0     H33295   5.355   0.805   5.499 -0.6626  0.8600  0.5559
 1010MOL0     H33296   5.191   0.613   5.423 -3.4178  0.8489  2.5462
 1010MOL0     H33297   5.193   0.689   5.265  0.0042 -3.0903  1.1843
 1010MOL0     H33298   5.114   0.836   5.513  3.2345  0.0388 -0.3478
 1010MOL0     H33299   5.083   0.884   5.341 -0.9023  2.1933  2.1354
 1010MOL0     H33300   4.872   0.792   5.474 -1.0105 -3.3303  4.9965
 1010MOL0     H33301   4.966   0.664   5.533  0.9614 -0.2822  0.6552
 1010MOL0     H33302   6.022   0.749   5.581 -0.3482 -1.7232 -0.8795
 1010MOL0     H33303   6.258   0.746   5.678 -1.2626 -0.9465 -0.0213
 1010MOL0     H33304   6.837   0.768   5.425  2.9747 -0.1500  0.5977
 1010MOL0     H33305   7.032   0.761   5.587  0.5306  1.8682  0.6812
 1010MOL0     H33306   8.690   1.271   5.648  0.7647 -0.2117 -1.8686
 1010MOL0     H33307   8.883   1.381   5.548  1.3454 -0.5618 -0.2904
 1010MOL0     H33308   9.334   1.538   5.715  0.1740 -0.4217  0.1307
 1010MOL0     H33309   9.564   1.630   5.638  1.0810  0.3856 -1.3375
 1010MOL0     H33310   9.826   1.559   5.591 -1.8392 -0.5049  1.4668
 1010MOL0     H33311   9.735   1.699   5.575  0.8557  1.5749 -2.2411
 1010MOL0     H33312   9.991   1.647   5.495 -2.2062 -0.8929  3.2102
 1010MOL0     H33313   9.914   1.650   5.340 -0.9809  0.7912 -0.2894
 1010MOL0     H33314   9.870   1.888   5.526  1.4150 -0.6868  0.6606
 1010MOL0     H33315   9.861   1.876   5.344  1.6458 -1.8097 -1.8081
 1010MOL0     H33316  10.047   2.006   5.406  0.8933  0.3167 -1.8798
 1010MOL0     H33317  10.131   1.874   5.494  1.4006 -0.0755 -1.2146
 1010MOL0     H33318  10.206   1.689   5.142  0.8315  2.1502 -0.5195
 1010MOL0     H33319   9.557   1.373   5.302 -0.1751 -1.6082 -0.7570
 1010MOL0     H33320   9.349   1.302   5.350  1.8445 -0.6212  0.4694
 1011MOL0     O33321   7.036   9.213   2.653  0.0464 -0.5390 -0.7364
 1011MOL0     C33322   7.108   9.145   2.591  0.1074  0.4815 -0.4585
 1011MOL0     O33323   7.074   9.087   2.478  0.0297  0.2943  0.5042
 1011MOL0     C33324   6.946   9.107   2.420 -0.6071  0.0724  0.6232
 1011MOL0     C33325   6.911   9.215   2.342 -0.1913  0.5927 -0.7044
 1011MOL0     C33326   6.786   9.233   2.283  0.1260 -0.3254  0.3645
 1011MOL0     C33327   6.691   9.132   2.290  0.6674  0.6850  0.2907
 1011MOL0     O33328   6.571   9.141   2.220  0.0466  0.4680 -0.7335
 1011MOL0     C33329   6.546   9.241   2.124  0.0731 -0.0373 -0.1833
 1011MOL0     C33330   6.436   9.195   2.038 -0.1046 -0.1411 -0.5589
 1011MOL0     C33331   6.379   9.307   1.937  0.3268  0.5813  0.0762
 1011MOL0     C33332   6.480   9.340   1.826 -1.0497 -0.3994 -0.5029
 1011MOL0     C33333   6.414   9.410   1.712 -0.1163 -0.9545  0.0417
 1011MOL0     C33334   6.380   9.554   1.759 -0.5244 -0.6914  0.4699
 1011MOL0     C33335   6.323   9.634   1.640  1.1394 -0.0538  0.4799
 1011MOL0     C33336   6.253   9.764   1.678  0.4194 -0.0032 -0.3005
 1011MOL0     N33337   6.355   9.855   1.735  0.2544  0.6251 -0.2300
 1011MOL0     C33338   6.384   9.876   1.870 -0.1500  0.1361  1.3142
 1011MOL0     C33339   6.494   9.957   1.869 -0.4946  0.5932  0.1006
 1011MOL0     C33340   6.573  10.013   1.980 -0.0233 -0.0802  0.5987
 1011MOL0     C33341   6.585  10.161   1.955 -0.7350  0.5182  0.2029
 1011MOL0     C33342   6.662  10.237   2.069  0.1733  0.5065 -0.8443
 1011MOL0     C33343   6.640  10.399   2.071  0.6335  0.4798 -1.1648
 1011MOL0     O33344   6.718  10.467   2.157 -0.2512  0.7239 -1.2539
 1011MOL0     C33345   6.850  10.490   2.118  0.4063  0.7826 -0.1545
 1011MOL0     C33346   6.905  10.451   1.994 -0.0266 -0.6177 -0.1604
 1011MOL0     C33347   7.035  10.490   1.960  0.0335 -1.0968 -0.3117
 1011MOL0     C33348   7.125  10.549   2.056  0.0776 -0.5293  0.1606
 1011MOL0     C33349   7.267  10.566   2.040 -0.5626 -0.0709  0.4967
 1011MOL0     O33350   7.326  10.668   2.109  0.6242 -0.7004 -0.1831
 1011MOL0     C33351   7.462  10.675   2.103  0.5941 -0.5186  0.4880
 1011MOL0     C33352   7.530  10.731   1.988 -0.4013  1.0250 -0.2371
 1011MOL0     C33353   7.672  10.713   1.991  0.4296  0.3546  0.2589
 1011MOL0     C33354   7.738  10.669   2.107  0.0455 -0.1266 -0.0251
 1011MOL0     O33355   7.871  10.651   2.083  0.3534  0.2530  0.3231
 1011MOL0     C33356   7.972  10.608   2.178  0.7627  0.4707  0.0902
 1011MOL0     C33357   8.023  10.733   2.240  0.1973 -0.0868 -0.0589
 1011MOL0     C33358   8.050  10.847   2.144  0.4516 -0.0566  0.5884
 1011MOL0     C33359   8.093  10.976   2.228  0.0841 -0.1603  0.3865
 1011MOL0     C33360   8.119  11.104   2.140  0.1597  0.4836 -0.6570
 1011MOL0     C33361   7.993  11.173   2.093  0.1084 -0.4711 -1.4021
 1011MOL0     C33362   7.907  11.221   2.216 -0.0919  1.1134  0.5536
 1011MOL0     C33363   7.984  11.290   2.321 -0.4812 -0.7341 -0.0942
 1011MOL0    Cl33364   7.877  11.343   2.458 -0.0300 -0.2538  0.1097
 1011MOL0     C33365   7.670  10.638   2.220  0.4624 -0.6798 -0.0347
 1011MOL0     C33366   7.530  10.639   2.221 -0.1967  0.1320  0.6687
 1011MOL0     O33367   7.324  10.495   1.955  0.0980 -0.7816  0.2406
 1011MOL0     C33368   7.073  10.573   2.190 -0.0562  0.5349  0.6074
 1011MOL0     C33369   6.938  10.546   2.206  0.0211  0.1056 -0.4842
 1011MOL0     N33370   6.540   9.974   1.739  0.5203  0.0422  0.7430
 1011MOL0     N33371   6.454   9.910   1.663 -0.3558  0.0153  0.0749
 1011MOL0     C33372   6.723   9.019   2.372 -0.1411 -0.2843  0.4006
 1011MOL0     C33373   6.845   9.005   2.427  0.0850 -0.0340  0.8079
 1011MOL0     C33374   7.244   9.133   2.637  0.8782 -0.5020 -0.3074
 1011MOL0     C33375   7.293   9.203   2.743  0.5310 -0.7367 -1.0464
 1011MOL0     C33376   7.429   9.209   2.771  0.7093  0.3094 -0.2008
 1011MOL0     C33377   7.522   9.140   2.690  1.0049  0.3433 -0.7984
 1011MOL0     O33378   7.656   9.146   2.728 -0.2235  0.1556  0.0024
 1011MOL0     C33379   7.763   9.100   2.642  0.7807 -0.1476  0.4235
 1011MOL0     C33380   7.890   9.189   2.664  0.4984 -0.5686 -0.9561
 1011MOL0     C33381   7.981   9.131   2.773 -0.4857 -0.6986 -0.5789
 1011MOL0     C33382   7.962   9.213   2.905  0.6136  0.8183 -0.7506
 1011MOL0     C33383   8.063   9.167   3.001 -0.0338  0.2265 -0.2374
 1011MOL0     C33384   8.157   9.128   3.069 -0.9309 -0.6973  0.7222
 1011MOL0     C33385   7.471   9.059   2.587 -0.1009 -0.7986  0.4299
 1011MOL0     C33386   7.337   9.059   2.565  0.3801 -0.2288 -0.3298
 1011MOL0     H33387   6.985   9.294   2.347  3.3002 -2.4625  2.7088
 1011MOL0     H33388   6.789   9.328   2.231  1.4995  0.7079  2.1981
 1011MOL0     H33389   6.627   9.254   2.051 -0.3623 -1.5583 -0.9735
 1011MOL0     H33390   6.524   9.336   2.173 -0.5736 -0.2667 -0.0233
 1011MOL0     H33391   6.357   9.151   2.099 -0.8464 -1.1188 -2.1388
 1011MOL0     H33392   6.458   9.108   1.976 -3.3469 -1.3037 -0.2942
 1011MOL0     H33393   6.348   9.402   1.982  0.9491  1.3079 -0.9934
 1011MOL0     H33394   6.289   9.263   1.892 -0.3264  1.9288  0.0175
 1011MOL0     H33395   6.557   9.399   1.879 -2.2229 -0.9479  1.9506
 1011MOL0     H33396   6.521   9.246   1.789  0.3078 -0.1875  0.3839
 1011MOL0     H33397   6.321   9.360   1.684 -1.3927 -0.0593  2.4168
 1011MOL0     H33398   6.483   9.414   1.627 -1.3753 -3.4423 -1.2271
 1011MOL0     H33399   6.471   9.597   1.801 -2.3328  0.4732  3.4656
 1011MOL0     H33400   6.297   9.554   1.830 -2.3299 -0.3076 -1.5348
 1011MOL0     H33401   6.406   9.671   1.578  0.2782  3.0966  1.0566
 1011MOL0     H33402   6.261   9.569   1.579  1.4684  0.7275 -0.7314
 1011MOL0     H33403   6.168   9.752   1.746  1.0700  0.8732  0.6922
 1011MOL0     H33404   6.209   9.803   1.586 -0.6413 -3.7108 -1.5452
 1011MOL0     H33405   6.319   9.840   1.949 -1.2585  1.4648  1.0453
 1011MOL0     H33406   6.671   9.966   1.989 -0.7738 -2.1335 -1.0907
 1011MOL0     H33407   6.522  10.001   2.077 -1.0415  1.2783  0.2574
 1011MOL0     H33408   6.493  10.220   1.954 -1.2384 -0.2438  0.5755
 1011MOL0     H33409   6.640  10.179   1.863 -0.2828 -0.6708  0.2256
 1011MOL0     H33410   6.640  10.195   2.167 -2.0005  1.5478 -0.8221
 1011MOL0     H33411   6.770  10.228   2.051  0.2631 -1.4914  0.4277
 1011MOL0     H33412   6.545  10.424   2.118  1.6477  1.2959  0.5152
 1011MOL0     H33413   6.640  10.445   1.971  1.8517  1.1483 -0.8673
 1011MOL0     H33414   6.838  10.405   1.923 -0.4926  0.2979 -0.3235
 1011MOL0     H33415   7.070  10.466   1.860 -2.3936 -3.4678 -0.6941
 1011MOL0     H33416   7.476  10.779   1.907  0.3916  0.9761 -0.8036
 1011MOL0     H33417   7.727  10.754   1.907  1.1129  3.1377  1.9691
 1011MOL0     H33418   8.049  10.553   2.124  0.6074  1.9157 -1.7009
 1011MOL0     H33419   7.940  10.545   2.262  2.9410 -0.7169  0.0793
 1011MOL0     H33420   8.115  10.696   2.286  0.0220 -1.0097 -0.4303
 1011MOL0     H33421   7.961  10.774   2.320  2.8261  2.4816  0.8269
 1011MOL0     H33422   7.957  10.871   2.091 -0.0410 -2.0101  0.4905
 1011MOL0     H33423   8.124  10.819   2.069  0.8972 -1.1693  1.4194
 1011MOL0     H33424   8.021  10.994   2.308  1.3164 -2.8795  2.2870
 1011MOL0     H33425   8.181  10.942   2.284  0.0291  0.4198  0.8330
 1011MOL0     H33426   8.181  11.086   2.051 -0.5608 -0.3810 -1.0022
 1011MOL0     H33427   8.179  11.178   2.193  0.3851  1.1769 -1.8397
 1011MOL0     H33428   7.937  11.100   2.033  1.3915 -2.7983  0.0873
 1011MOL0     H33429   8.033  11.250   2.026  1.7828 -0.0911 -0.0331
 1011MOL0     H33430   7.830  11.279   2.165  1.8191 -0.2060 -4.4708
 1011MOL0     H33431   7.855  11.136   2.261  0.7264 -0.0293 -0.5546
 1011MOL0     H33432   8.036  11.380   2.286  3.1330 -2.9356 -0.8803
 1011MOL0     H33433   8.067  11.232   2.362  0.2637 -0.2261 -0.8403
 1011MOL0     H33434   7.717  10.594   2.307 -0.0665 -0.7469  0.2249
 1011MOL0     H33435   7.475  10.601   2.307  0.0155 -0.1824  0.6657
 1011MOL0     H33436   7.124  10.618   2.275 -1.7752 -1.6269  2.9160
 1011MOL0     H33437   6.908  10.571   2.308 -0.5676 -0.6830 -0.4457
 1011MOL0     H33438   6.654   8.936   2.384  0.1193 -0.6611 -0.6108
 1011MOL0     H33439   6.881   8.928   2.494 -1.2641 -2.5416 -1.1643
 1011MOL0     H33440   7.225   9.265   2.801 -0.8481 -2.4213 -0.7752
 1011MOL0     H33441   7.448   9.278   2.853  3.2218 -0.5624  0.0618
 1011MOL0     H33442   7.729   9.113   2.539 -0.1770 -1.5463  0.5280
 1011MOL0     H33443   7.787   8.994   2.654 -2.8903 -1.3858 -1.4388
 1011MOL0     H33444   7.949   9.172   2.573  1.1146 -0.8757 -0.4972
 1011MOL0     H33445   7.879   9.298   2.668 -0.0423 -0.5031 -2.8607
 1011MOL0     H33446   8.088   9.135   2.753 -0.1085 -2.1049  0.9750
 1011MOL0     H33447   7.961   9.025   2.790  0.4299 -0.6493  1.0184
 1011MOL0     H33448   7.975   9.320   2.883  0.1598  0.6893 -1.7003
 1011MOL0     H33449   7.864   9.196   2.950  1.8605 -2.2939  1.1350
 1011MOL0     H33450   8.242   9.110   3.132  1.0137  0.7042 -1.3748
 1011MOL0     H33451   7.531   8.993   2.526  0.6253  1.9720 -2.0988
 1011MOL0     H33452   7.299   9.006   2.477 -2.2650  0.2186  0.4447
 1012MOL0     O33453   3.638   4.541   0.130  0.4864  0.5975 -0.0328
 1012MOL0     C33454   3.655   4.426   0.170  0.0924 -0.0615 -0.8204
 1012MOL0     O33455   3.560   4.329   0.171  0.1160  0.7981  0.5001
 1012MOL0     C33456   3.432   4.366   0.139  0.3494 -0.4835  0.3835
 1012MOL0     C33457   3.386   4.358   0.007  0.1487  0.2134 -1.2173
 1012MOL0     C33458   3.252   4.379  -0.020  0.6268  0.2431 -0.1162
 1012MOL0     C33459   3.165   4.389   0.086  0.7260 -0.4383  0.8852
 1012MOL0     O33460   3.028   4.404   0.077  0.1773  0.4862  0.8381
 1012MOL0     C33461   2.961   4.397  -0.053  1.0239 -0.1300 -0.4679
 1012MOL0     C33462   2.807   4.416  -0.052  0.0806  0.3034  0.1653
 1012MOL0     C33463   2.734   4.311   0.031 -0.8367  0.7904 -0.6132
 1012MOL0     C33464   2.576   4.332   0.038  0.1001  0.4795 -0.6665
 1012MOL0     C33465   2.496   4.220  -0.023  0.1509  0.4345 -0.2578
 1012MOL0     C33466   2.349   4.221  -0.021  1.0994 -0.3109 -0.3712
 1012MOL0     C33467   2.283   4.226   0.122 -0.4946 -0.2351  0.3277
 1012MOL0     C33468   2.142   4.174   0.125  0.5607  0.2580  0.5064
 1012MOL0     N33469   2.072   4.239   0.020 -0.4374  0.5462 -0.4101
 1012MOL0     C33470   2.026   4.367   0.034  0.2527 -0.1490 -0.8625
 1012MOL0     C33471   1.968   4.396  -0.082  0.4959 -0.3206  0.0720
 1012MOL0     C33472   1.912   4.522  -0.120 -0.1632  0.5701 -1.1840
 1012MOL0     C33473   1.768   4.538  -0.058  0.2460 -0.4806 -0.5732
 1012MOL0     C33474   1.712   4.674  -0.111 -0.3730  0.1720  0.6910
 1012MOL0     C33475   1.565   4.697  -0.066  0.7344 -0.1425 -1.0179
 1012MOL0     O33476   1.568   4.776   0.052 -0.2100 -0.0582  0.0256
 1012MOL0     C33477   1.451   4.838   0.103 -0.8398  0.1708  0.1118
 1012MOL0     C33478   1.461   4.905   0.235  0.1265  0.6597  0.5981
 1012MOL0     C33479   1.349   4.970   0.298 -0.1096 -0.9675 -0.1991
 1012MOL0     C33480   1.233   4.974   0.227  0.9357 -0.5618  0.9692
 1012MOL0     C33481   1.110   5.030   0.298 -0.7334  0.1603 -0.1726
 1012MOL0     O33482   0.991   5.002   0.241  0.7102 -0.5126  0.0894
 1012MOL0     C33483   0.877   5.064   0.282  0.4048 -1.0586 -0.1494
 1012MOL0     C33484   0.808   5.006   0.387  0.3156 -0.1271 -0.9139
 1012MOL0     C33485   0.676   5.053   0.428 -0.0297 -0.3388 -0.3861
 1012MOL0     C33486   0.620   5.156   0.343  0.2081 -0.0943  0.3980
 1012MOL0     O33487   0.493   5.199   0.378  0.1380 -0.9270  0.0810
 1012MOL0     C33488   0.413   5.131   0.485 -0.4241 -0.5772 -0.6034
 1012MOL0     C33489   0.269   5.130   0.458  0.1197  0.2185  0.8476
 1012MOL0     C33490   0.183   5.082   0.574  0.1742  0.2447 -0.4106
 1012MOL0     C33491   0.036   5.076   0.536 -1.2145 -0.3934  0.3057
 1012MOL0     C33492  -0.045   5.038   0.660  0.6503  0.2254  0.8055
 1012MOL0     C33493  -0.197   5.044   0.641  0.3935  0.4089 -0.3123
 1012MOL0     C33494  -0.234   5.189   0.629 -0.0633 -0.2342 -0.4047
 1012MOL0     C33495  -0.386   5.208   0.633  0.9606 -1.2100 -0.6775
 1012MOL0    Cl33496  -0.473   5.138   0.493 -0.1250 -0.2033 -0.1306
 1012MOL0     C33497   0.693   5.219   0.243  0.1189 -1.0868 -0.3697
 1012MOL0     C33498   0.827   5.178   0.210  0.0384 -0.3861  0.3708
 1012MOL0     O33499   1.121   5.108   0.392 -0.2957  0.5410  0.6625
 1012MOL0     C33500   1.218   4.920   0.094  0.1947  0.2112  0.1794
 1012MOL0     C33501   1.322   4.851   0.032 -0.5351  0.1148  0.7338
 1012MOL0     N33502   1.987   4.286  -0.166 -0.1453  0.4761 -0.0607
 1012MOL0     N33503   2.049   4.196  -0.101  0.1643 -0.4642 -0.0564
 1012MOL0     C33504   3.208   4.409   0.213 -0.0197 -0.1975 -0.1326
 1012MOL0     C33505   3.339   4.393   0.240  0.4315  0.1597  0.3519
 1012MOL0     C33506   3.794   4.394   0.218 -0.0769  0.2920 -0.1275
 1012MOL0     C33507   3.900   4.469   0.182 -0.1462  0.3354  0.6226
 1012MOL0     C33508   4.030   4.427   0.231  0.4575 -0.3563 -0.0998
 1012MOL0     C33509   4.040   4.337   0.331  0.2454  0.9591 -0.0915
 1012MOL0     O33510   4.157   4.323   0.403 -0.7660  0.1871 -0.0054
 1012MOL0     C33511   4.157   4.393   0.528  0.7996 -0.5338 -0.0020
 1012MOL0     C33512   4.269   4.492   0.542 -0.4275  1.1152  0.1928
 1012MOL0     C33513   4.407   4.440   0.511 -0.6228 -1.2570  0.5350
 1012MOL0     C33514   4.443   4.314   0.576 -0.3076  0.3613  0.0466
 1012MOL0     C33515   4.412   4.308   0.717 -0.1048 -0.3912 -0.3636
 1012MOL0     C33516   4.405   4.270   0.829 -0.0009  0.0205  0.4167
 1012MOL0     C33517   3.930   4.263   0.367  0.4313  0.6563  0.4833
 1012MOL0     C33518   3.810   4.284   0.303 -0.2533  0.9058 -0.5744
 1012MOL0     H33519   3.457   4.341  -0.074  0.7979 -0.4257 -0.5324
 1012MOL0     H33520   3.219   4.375  -0.124  0.3119  2.3682 -0.1259
 1012MOL0     H33521   2.984   4.296  -0.089  0.6170 -0.5501  0.4034
 1012MOL0     H33522   2.994   4.479  -0.116  0.0309  1.2702  0.7548
 1012MOL0     H33523   2.775   4.408  -0.156 -0.2953 -2.4588  0.4204
 1012MOL0     H33524   2.777   4.517  -0.020 -1.5113 -0.7158  2.1472
 1012MOL0     H33525   2.773   4.310   0.133  1.0530  4.2460 -1.1560
 1012MOL0     H33526   2.747   4.209  -0.008 -0.1997  0.5048  0.3065
 1012MOL0     H33527   2.546   4.345   0.142  0.6316  0.4206 -0.5058
 1012MOL0     H33528   2.553   4.423  -0.019  0.9861  2.0843  1.4050
 1012MOL0     H33529   2.513   4.134   0.043 -3.1215  0.7000  1.1585
 1012MOL0     H33530   2.534   4.194  -0.122 -1.2225  0.4888 -0.8279
 1012MOL0     H33531   2.308   4.132  -0.071 -0.5795  1.0508 -1.5245
 1012MOL0     H33532   2.311   4.306  -0.078 -1.3484  0.2339  1.9090
 1012MOL0     H33533   2.348   4.174   0.193  0.3836 -0.1341 -0.3896
 1012MOL0     H33534   2.287   4.331   0.152 -0.0370  0.2903 -1.5030
 1012MOL0     H33535   2.093   4.215   0.214  1.5637  2.5638  0.0848
 1012MOL0     H33536   2.144   4.065   0.126  3.0417  0.2283 -0.5837
 1012MOL0     H33537   2.023   4.425   0.126 -0.6261 -0.1195 -0.8954
 1012MOL0     H33538   1.907   4.530  -0.229  2.3721  2.7112 -1.2470
 1012MOL0     H33539   1.977   4.604  -0.087  0.3348  0.3651 -1.6449
 1012MOL0     H33540   1.767   4.546   0.051  0.3437  0.8478 -0.6636
 1012MOL0     H33541   1.702   4.457  -0.092  2.2162 -2.6778  0.5032
 1012MOL0     H33542   1.776   4.753  -0.070  1.2554 -0.2795 -0.8616
 1012MOL0     H33543   1.724   4.682  -0.220 -1.4244  3.5745  0.7211
 1012MOL0     H33544   1.499   4.612  -0.047  2.4941 -0.9659  2.1789
 1012MOL0     H33545   1.531   4.756  -0.152  2.1341 -2.4754 -3.3329
 1012MOL0     H33546   1.557   4.900   0.285  0.3523 -0.0670  0.1066
 1012MOL0     H33547   1.375   5.015   0.393  3.3597 -1.6996 -0.6631
 1012MOL0     H33548   0.858   4.935   0.452  1.3764  1.2363 -0.1725
 1012MOL0     H33549   0.633   5.012   0.518 -3.2097  0.5856 -1.3401
 1012MOL0     H33550   0.427   5.185   0.578 -1.4248 -0.4796 -0.5054
 1012MOL0     H33551   0.440   5.026   0.504  1.5809  0.0010  0.0196
 1012MOL0     H33552   0.252   5.062   0.374 -2.5142  1.0516  0.6220
 1012MOL0     H33553   0.240   5.232   0.431 -2.1568 -0.1943  1.5541
 1012MOL0     H33554   0.194   5.143   0.664  0.0157 -0.8242  0.3524
 1012MOL0     H33555   0.203   4.979   0.605 -1.8556  0.4297  1.8331
 1012MOL0     H33556   0.017   5.179   0.507  0.6466 -0.0423  0.2045
 1012MOL0     H33557   0.016   5.013   0.449 -3.0924  0.9606 -0.3133
 1012MOL0     H33558  -0.022   5.101   0.747 -4.2635  1.2054  1.6694
 1012MOL0     H33559  -0.012   4.936   0.683  1.3903  0.2385 -0.1291
 1012MOL0     H33560  -0.244   5.000   0.729  0.1853  1.8968  0.3603
 1012MOL0     H33561  -0.232   4.997   0.548 -0.9559  2.5128 -0.9521
 1012MOL0     H33562  -0.198   5.241   0.719 -2.5393 -0.8272  1.0227
 1012MOL0     H33563  -0.196   5.237   0.539 -0.7586  0.2249 -0.4598
 1012MOL0     H33564  -0.403   5.316   0.632 -1.1018 -1.5055 -1.5939
 1012MOL0     H33565  -0.436   5.170   0.722  0.0944 -1.6207 -1.3313
 1012MOL0     H33566   0.645   5.300   0.190  3.7606 -0.0224 -2.4134
 1012MOL0     H33567   0.876   5.227   0.127 -0.6075 -1.2815 -0.5636
 1012MOL0     H33568   1.121   4.918   0.044  0.3115 -0.2184 -0.0319
 1012MOL0     H33569   1.315   4.803  -0.065 -0.4214  0.4076  0.5824
 1012MOL0     H33570   3.147   4.430   0.301 -0.9277 -0.4038 -0.7018
 1012MOL0     H33571   3.372   4.380   0.343  1.4010  1.2375  0.1968
 1012MOL0     H33572   3.886   4.544   0.105 -2.5999 -0.1417  0.5022
 1012MOL0     H33573   4.113   4.491   0.203  1.1626 -1.5523 -0.8290
 1012MOL0     H33574   4.167   4.324   0.611 -1.0034  0.9107  1.5152
 1012MOL0     H33575   4.063   4.446   0.548  2.7902  1.8354  4.4027
 1012MOL0     H33576   4.251   4.582   0.483  1.8550  1.5100  0.0350
 1012MOL0     H33577   4.268   4.520   0.648  0.0939  0.2688  0.4317
 1012MOL0     H33578   4.489   4.509   0.532  0.4687 -2.4005  0.0735
 1012MOL0     H33579   4.422   4.421   0.404  0.5323 -0.4910  0.5399
 1012MOL0     H33580   4.380   4.233   0.536  0.1277  0.1060 -0.1325
 1012MOL0     H33581   4.549   4.294   0.558 -0.4974 -1.4194  0.6388
 1012MOL0     H33582   4.404   4.240   0.932  2.4643 -1.6653  0.0316
 1012MOL0     H33583   3.955   4.179   0.431 -0.6412  0.0925  0.1918
 1012MOL0     H33584   3.729   4.217   0.330  0.1943  0.0669 -1.2775
 1013MOL0     O33585   1.856  10.358   6.091 -0.1619 -0.4440 -0.8621
 1013MOL0     C33586   1.867  10.315   6.205  0.2313 -0.2165 -0.2330
 1013MOL0     O33587   1.983  10.271   6.260  0.6592 -0.0748  0.4632
 1013MOL0     C33588   2.099  10.302   6.209 -0.1744 -0.0601  0.3271
 1013MOL0     C33589   2.196  10.196   6.203  0.1035 -0.2607 -0.1988
 1013MOL0     C33590   2.323  10.222   6.165 -0.1940  0.1167  0.4784
 1013MOL0     C33591   2.365  10.348   6.144  0.0636 -0.4646  0.7288
 1013MOL0     O33592   2.494  10.374   6.135  0.0621  0.1212  0.7249
 1013MOL0     C33593   2.535  10.375   5.995 -0.9334 -0.6935  0.1103
 1013MOL0     C33594   2.624  10.261   5.947 -0.5676  0.2767 -0.0520
 1013MOL0     C33595   2.714  10.303   5.831  0.3433  0.9094 -1.1580
 1013MOL0     C33596   2.827  10.206   5.797  0.0772  0.7181 -0.7927
 1013MOL0     C33597   2.951  10.271   5.707 -0.2694  0.6327  0.1519
 1013MOL0     C33598   2.911  10.312   5.565  0.0410  0.8899 -0.3573
 1013MOL0     C33599   2.993  10.425   5.507 -0.4027 -0.6513  0.2412
 1013MOL0     C33600   2.922  10.499   5.386  0.0277  0.1808  0.1295
 1013MOL0     N33601   2.804  10.571   5.441 -0.1633 -0.1608  0.4967
 1013MOL0     C33602   2.673  10.569   5.405  0.7979 -0.7142 -0.2980
 1013MOL0     C33603   2.612  10.654   5.486 -0.4552 -0.5088  0.3495
 1013MOL0     C33604   2.463  10.670   5.492 -0.3954  0.0372 -0.2904
 1013MOL0     C33605   2.391  10.656   5.626  0.0254 -0.1217  1.1653
 1013MOL0     C33606   2.239  10.683   5.630 -0.9827 -0.0732 -1.1147
 1013MOL0     C33607   2.185  10.643   5.769  0.2738  0.0487 -0.1334
 1013MOL0     O33608   2.186  10.755   5.851  0.0525  0.0528  0.9797
 1013MOL0     C33609   2.071  10.778   5.927 -1.2446  0.4159  1.0148
 1013MOL0     C33610   1.971  10.683   5.960  0.0812  0.4360 -0.8286
 1013MOL0     C33611   1.853  10.721   6.026 -0.5853  0.7423  0.1166
 1013MOL0     C33612   1.829  10.858   6.054 -0.5214  0.1693  0.7589
 1013MOL0     C33613   1.712  10.907   6.126  0.2220  0.8777  0.0294
 1013MOL0     O33614   1.703  11.042   6.163 -0.8110  0.7080  0.0178
 1013MOL0     C33615   1.580  11.093   6.193 -0.4030  0.5062 -0.1087
 1013MOL0     C33616   1.533  11.096   6.323  0.0526 -1.7609 -0.0976
 1013MOL0     C33617   1.401  11.150   6.339  0.0242  1.0002 -0.5615
 1013MOL0     C33618   1.320  11.180   6.230  0.0360  0.4367  0.8184
 1013MOL0     O33619   1.195  11.233   6.247  0.0270  0.2135 -0.1651
 1013MOL0     C33620   1.111  11.177   6.348  0.6592 -0.5093 -0.3057
 1013MOL0     C33621   0.965  11.207   6.338 -0.0019  0.4313 -0.2225
 1013MOL0     C33622   0.889  11.164   6.465  0.3751 -0.1670 -0.1817
 1013MOL0     C33623   0.734  11.170   6.449  0.5583 -1.4865  0.6075
 1013MOL0     C33624   0.651  11.129   6.569  0.1592 -0.3099  0.0728
 1013MOL0     C33625   0.500  11.108   6.532 -0.3241 -0.0039 -0.7038
 1013MOL0     C33626   0.436  11.250   6.504 -1.1063  0.3046 -0.0787
 1013MOL0     C33627   0.290  11.248   6.473 -0.0133 -0.3058  0.6110
 1013MOL0    Cl33628   0.185  11.210   6.623 -0.4102  0.2745  0.1891
 1013MOL0     C33629   1.370  11.174   6.107 -0.0199 -0.0924 -0.4473
 1013MOL0     C33630   1.496  11.128   6.087 -0.2570  0.5050  0.2657
 1013MOL0     O33631   1.613  10.825   6.127 -0.5576 -0.2937  0.1031
 1013MOL0     C33632   1.925  10.954   6.002 -0.4076  0.4667  0.5430
 1013MOL0     C33633   2.044  10.915   5.947 -0.1487  0.6205 -0.9821
 1013MOL0     N33634   2.709  10.717   5.562 -0.0129  0.3150  0.5889
 1013MOL0     N33635   2.828  10.667   5.539  0.4590 -0.2555  0.5710
 1013MOL0     C33636   2.274  10.463   6.143  0.6649  0.1465 -0.6174
 1013MOL0     C33637   2.141  10.435   6.181 -0.6544 -0.3259 -0.3793
 1013MOL0     C33638   1.748  10.308   6.282  0.8695  0.4049  0.2597
 1013MOL0     C33639   1.746  10.249   6.411 -0.5143 -0.0188 -0.3126
 1013MOL0     C33640   1.634  10.235   6.484  0.2735  0.0279  0.3444
 1013MOL0     C33641   1.511  10.279   6.441  0.1823 -0.7383  0.7262
 1013MOL0     O33642   1.385  10.275   6.505 -0.2089  0.2876  0.1701
 1013MOL0     C33643   1.386  10.263   6.644  1.0953  0.5009 -0.7481
 1013MOL0     C33644   1.245  10.262   6.713 -1.0611 -0.4082  0.4648
 1013MOL0     C33645   1.186  10.402   6.725 -0.8177  1.1981 -0.3151
 1013MOL0     C33646   1.121  10.456   6.601  0.3575 -0.2066 -0.1249
 1013MOL0     C33647   1.033  10.568   6.630  0.1843  0.6588 -0.3907
 1013MOL0     C33648   0.955  10.653   6.672 -0.8604 -0.4487  0.6581
 1013MOL0     C33649   1.498  10.340   6.312  0.7365 -0.2529  1.2735
 1013MOL0     C33650   1.618  10.354   6.232  0.6622  0.5735 -0.9242
 1013MOL0     H33651   2.150  10.103   6.236  0.8128  0.4006  2.9121
 1013MOL0     H33652   2.384  10.132   6.164 -0.2049  0.1095  0.3331
 1013MOL0     H33653   2.604  10.459   5.989  0.1259 -1.5339  0.1479
 1013MOL0     H33654   2.446  10.393   5.935 -1.2835  1.0786  1.1136
 1013MOL0     H33655   2.558  10.179   5.916 -0.1003  0.4808 -1.6531
 1013MOL0     H33656   2.692  10.235   6.029 -1.1331  2.5473  1.2265
 1013MOL0     H33657   2.771  10.394   5.852  2.6754 -0.7887  0.3474
 1013MOL0     H33658   2.655  10.324   5.742  1.7192  0.0388 -2.3255
 1013MOL0     H33659   2.886  10.182   5.886 -0.5885  0.9391 -0.2864
 1013MOL0     H33660   2.788  10.109   5.763  1.2607 -0.5553  1.2406
 1013MOL0     H33661   3.029  10.194   5.701 -1.7039 -1.2731  3.2781
 1013MOL0     H33662   2.999  10.354   5.760  0.2600  0.0863  0.5450
 1013MOL0     H33663   2.803  10.328   5.562 -0.1718 -0.4052 -0.2724
 1013MOL0     H33664   2.931  10.218   5.514 -0.7425 -1.5142  3.3398
 1013MOL0     H33665   3.021  10.501   5.580  1.0036 -0.2567 -0.6431
 1013MOL0     H33666   3.091  10.387   5.474 -0.5281 -2.3043  1.6209
 1013MOL0     H33667   2.887  10.433   5.306 -2.4887 -1.5802  2.4881
 1013MOL0     H33668   2.990  10.575   5.345 -0.7938  2.7319  3.1093
 1013MOL0     H33669   2.626  10.499   5.337  0.4809 -0.6207 -0.1764
 1013MOL0     H33670   2.427  10.591   5.426 -0.3138 -0.9833  0.8651
 1013MOL0     H33671   2.426  10.764   5.450 -1.4272  0.5940  1.7565
 1013MOL0     H33672   2.441  10.727   5.694 -1.4838  2.5417 -0.3330
 1013MOL0     H33673   2.434  10.562   5.663  0.4123 -0.7421 -0.7392
 1013MOL0     H33674   2.217  10.786   5.602 -0.6126 -0.8837 -4.9167
 1013MOL0     H33675   2.173  10.626   5.564 -2.5312 -1.1785  1.2211
 1013MOL0     H33676   2.252  10.566   5.809  1.7893  1.9045  1.0335
 1013MOL0     H33677   2.081  10.612   5.754 -0.4609  1.8197  1.0543
 1013MOL0     H33678   2.001  10.578   5.956  0.8286  0.5862  0.3602
 1013MOL0     H33679   1.788  10.641   6.061 -0.0676 -0.5412 -1.7063
 1013MOL0     H33680   1.593  11.064   6.407  1.0466 -2.1747 -0.9503
 1013MOL0     H33681   1.364  11.171   6.439 -1.0082 -1.2433 -0.4092
 1013MOL0     H33682   1.130  11.221   6.446  0.0668 -0.2946 -0.2801
 1013MOL0     H33683   1.128  11.069   6.347  2.0655 -0.3016 -0.2507
 1013MOL0     H33684   0.923  11.160   6.250 -2.1146 -1.1718  1.5266
 1013MOL0     H33685   0.948  11.313   6.318  1.4618  1.0572  1.5192
 1013MOL0     H33686   0.928  11.222   6.549 -0.4421  1.6807 -1.0128
 1013MOL0     H33687   0.924  11.063   6.484  0.4235 -0.2313 -0.6118
 1013MOL0     H33688   0.703  11.271   6.421  0.9136 -1.2472  1.0574
 1013MOL0     H33689   0.700  11.100   6.372 -0.3905 -2.5669  1.9470
 1013MOL0     H33690   0.667  11.208   6.643 -1.4105 -0.8225  0.9993
 1013MOL0     H33691   0.708  11.040   6.601  0.1344  0.2146  1.6319
 1013MOL0     H33692   0.452  11.067   6.622  2.9667 -3.9200 -0.4073
 1013MOL0     H33693   0.486  11.029   6.457 -0.8871 -1.5964  1.0034
 1013MOL0     H33694   0.458  11.315   6.589  3.9333  1.1097 -1.6716
 1013MOL0     H33695   0.483  11.288   6.413 -1.8249 -0.0303 -0.6064
 1013MOL0     H33696   0.271  11.169   6.400  0.4314  2.1788 -2.3984
 1013MOL0     H33697   0.261  11.341   6.422  0.4743 -0.4985 -0.0326
 1013MOL0     H33698   1.308  11.205   6.024 -2.5477  2.7913  2.2224
 1013MOL0     H33699   1.551  11.112   5.995  2.8417  0.6541  1.9404
 1013MOL0     H33700   1.924  11.063   5.998 -2.2739  0.4450 -1.3419
 1013MOL0     H33701   2.122  10.989   5.932  0.6330 -0.5651 -3.1423
 1013MOL0     H33702   2.318  10.559   6.121 -1.5733  0.7874 -2.6678
 1013MOL0     H33703   2.071  10.518   6.187  1.2127  1.2264  1.2617
 1013MOL0     H33704   1.834  10.207   6.459 -2.5881 -1.4316  2.5409
 1013MOL0     H33705   1.641  10.183   6.579  2.3754 -2.9340 -1.2830
 1013MOL0     H33706   1.445  10.346   6.684 -0.7718 -0.0407  3.6661
 1013MOL0     H33707   1.431  10.169   6.676 -1.2405 -0.5482 -0.3714
 1013MOL0     H33708   1.196  10.189   6.648  3.5934 -1.0963 -2.7857
 1013MOL0     H33709   1.266  10.236   6.817  1.2733  2.3322  0.8087
 1013MOL0     H33710   1.252  10.477   6.769 -1.6142  2.9612 -1.9625
 1013MOL0     H33711   1.101  10.381   6.790  0.6349 -0.3624  1.1869
 1013MOL0     H33712   1.189  10.483   6.519 -1.8751 -2.0166 -2.7598
 1013MOL0     H33713   1.057  10.375   6.566  0.1687 -0.6862  1.2666
 1013MOL0     H33714   0.893  10.739   6.692 -1.4140  0.3818 -3.6387
 1013MOL0     H33715   1.403  10.382   6.282  1.5913  0.5672 -0.4154
 1013MOL0     H33716   1.607  10.404   6.136  1.5823  3.2243  0.2455
 1014MOL0     O33717   1.147  11.243   2.131  0.3382 -0.0305  0.7837
 1014MOL0     C33718   1.270  11.262   2.114  0.7665  0.8713 -0.0987
 1014MOL0     O33719   1.329  11.357   2.039  0.1489 -0.0762 -0.9328
 1014MOL0     C33720   1.248  11.461   1.996  0.2326  0.2861  0.0999
 1014MOL0     C33721   1.193  11.454   1.865  0.5757 -0.5815  0.6847
 1014MOL0     C33722   1.130  11.563   1.814  0.2363 -0.5112 -0.0118
 1014MOL0     C33723   1.101  11.670   1.895 -0.8979  0.0906 -0.6998
 1014MOL0     O33724   1.017  11.771   1.845 -0.0113  0.4323  0.3816
 1014MOL0     C33725   0.956  11.869   1.930  0.6353  0.2725  0.0601
 1014MOL0     C33726   0.846  11.960   1.871  0.8487 -0.2320  0.5528
 1014MOL0     C33727   0.732  11.903   1.794 -0.5767  0.2009 -0.0884
 1014MOL0     C33728   0.619  12.003   1.776 -0.8222 -0.2832 -0.1848
 1014MOL0     C33729   0.517  11.952   1.672 -0.3098 -0.1038 -0.4953
 1014MOL0     C33730   0.416  12.074   1.650  0.6035  0.3087 -0.4186
 1014MOL0     C33731   0.291  12.034   1.563  0.3646 -0.6030 -0.7155
 1014MOL0     C33732   0.199  12.153   1.526 -0.0744 -0.5196  0.3387
 1014MOL0     N33733   0.148  12.225   1.631 -0.7058 -0.3386 -0.2274
 1014MOL0     C33734   0.038  12.190   1.709 -0.3617  0.0214 -0.3253
 1014MOL0     C33735   0.012  12.299   1.780  1.1162  0.5363  0.0287
 1014MOL0     C33736  -0.061  12.308   1.908  0.8922  0.9200  0.0144
 1014MOL0     C33737  -0.211  12.323   1.898  0.6706 -0.3281  0.9533
 1014MOL0     C33738  -0.257  12.464   1.855  0.2228  0.0477 -0.5353
 1014MOL0     C33739  -0.408  12.484   1.859  0.4837  0.7568  0.1201
 1014MOL0     O33740  -0.463  12.398   1.753  0.0579  0.1902 -0.2949
 1014MOL0     C33741  -0.591  12.363   1.756 -0.8935  0.5790 -0.3837
 1014MOL0     C33742  -0.678  12.405   1.857  0.5975  0.0238  0.0502
 1014MOL0     C33743  -0.812  12.375   1.844 -0.2648  0.0932 -0.0988
 1014MOL0     C33744  -0.861  12.301   1.741  0.2327  0.3001  0.9435
 1014MOL0     C33745  -1.003  12.264   1.739 -0.4457 -0.8201 -1.1350
 1014MOL0     O33746  -1.086  12.327   1.829 -0.4938  0.4722 -0.5486
 1014MOL0     C33747  -1.222  12.320   1.832  0.0412 -0.8254  0.9167
 1014MOL0     C33748  -1.272  12.373   1.941  0.9122 -0.0117 -0.2880
 1014MOL0     C33749  -1.415  12.382   1.961 -1.0471  1.2051  0.4387
 1014MOL0     C33750  -1.506  12.326   1.866 -0.5125  0.3365  0.5936
 1014MOL0     O33751  -1.642  12.337   1.869 -0.1250  0.4472  0.1400
 1014MOL0     C33752  -1.700  12.445   1.941  0.4703  0.3839 -0.1960
 1014MOL0     C33753  -1.843  12.449   1.913  0.4571 -0.1187 -0.8805
 1014MOL0     C33754  -1.914  12.334   1.972  0.1842 -0.6864  0.8315
 1014MOL0     C33755  -2.043  12.313   1.903 -0.2101 -0.1983  0.3836
 1014MOL0     C33756  -2.108  12.198   1.973  0.1662  0.1698  0.0261
 1014MOL0     C33757  -2.263  12.205   1.960 -0.2649 -0.0309  0.4903
 1014MOL0     C33758  -2.323  12.072   2.005  0.1380 -0.2892  0.1115
 1014MOL0     C33759  -2.476  12.086   1.977  1.4892  0.1404  0.3553
 1014MOL0    Cl33760  -2.553  12.179   2.111  0.0452  0.4836  0.3512
 1014MOL0     C33761  -1.446  12.267   1.754 -0.2338  0.1842  0.4568
 1014MOL0     C33762  -1.307  12.276   1.739  0.0944 -0.0751  0.5776
 1014MOL0     O33763  -1.036  12.186   1.652  0.0618  0.5325 -0.2639
 1014MOL0     C33764  -0.772  12.251   1.638  0.3434 -0.3794 -0.0692
 1014MOL0     C33765  -0.637  12.288   1.649  1.1072  0.3296  0.1735
 1014MOL0     N33766   0.095  12.404   1.743 -0.1967  0.3590 -0.0512
 1014MOL0     N33767   0.171  12.359   1.652 -0.2562  0.4183 -0.1601
 1014MOL0     C33768   1.153  11.675   2.026 -0.8139  0.2616 -0.2904
 1014MOL0     C33769   1.225  11.571   2.073 -0.7629  0.4953 -0.5760
 1014MOL0     C33770   1.359  11.152   2.148  0.8410  0.2807 -0.6769
 1014MOL0     C33771   1.309  11.023   2.188 -0.0122 -0.4441  0.4460
 1014MOL0     C33772   1.397  10.927   2.231 -0.3532 -0.5393  0.3486
 1014MOL0     C33773   1.535  10.948   2.231  0.8750  0.2258 -0.6061
 1014MOL0     O33774   1.612  10.832   2.261  0.1515 -0.4203 -0.1257
 1014MOL0     C33775   1.752  10.849   2.257 -0.3230 -0.7294 -0.2233
 1014MOL0     C33776   1.829  10.720   2.309 -0.4035  0.4792 -0.2835
 1014MOL0     C33777   1.964  10.730   2.255  0.0266  0.0086 -0.8926
 1014MOL0     C33778   2.062  10.626   2.308  0.9092  0.0827  0.5010
 1014MOL0     C33779   2.188  10.659   2.240 -0.1088  0.4578  0.2198
 1014MOL0     C33780   2.287  10.680   2.174  0.2323 -0.3800  0.5412
 1014MOL0     C33781   1.580  11.078   2.204 -0.3603 -0.0069  0.7365
 1014MOL0     C33782   1.495  11.172   2.156  0.0138 -0.6006  0.2642
 1014MOL0     H33783   1.223  11.379   1.793  0.1756  1.7258 -2.0631
 1014MOL0     H33784   1.099  11.552   1.710  2.0451 -2.5970 -0.3971
 1014MOL0     H33785   1.035  11.938   1.962  0.5154  1.2734 -1.6910
 1014MOL0     H33786   0.907  11.819   2.015  0.1881 -0.6827 -0.7472
 1014MOL0     H33787   0.906  12.030   1.813  0.4666  0.4596  0.9796
 1014MOL0     H33788   0.809  12.011   1.961 -1.4320 -2.1808  0.7971
 1014MOL0     H33789   0.704  11.808   1.840  3.0352 -0.5093  0.9485
 1014MOL0     H33790   0.767  11.867   1.696  1.5081 -2.8419  1.5917
 1014MOL0     H33791   0.582  12.034   1.874 -0.2998  3.1073 -0.9283
 1014MOL0     H33792   0.664  12.097   1.740  0.4466 -0.5846  0.5286
 1014MOL0     H33793   0.461  11.867   1.713 -2.3325 -0.4970 -3.7206
 1014MOL0     H33794   0.554  11.911   1.577  0.7536 -1.3614  0.4172
 1014MOL0     H33795   0.464  12.157   1.596  1.5970 -0.1422 -0.2564
 1014MOL0     H33796   0.381  12.107   1.748  0.9370 -2.5261  0.7603
 1014MOL0     H33797   0.317  11.969   1.479  1.1457 -0.6680 -0.4311
 1014MOL0     H33798   0.237  11.969   1.633 -1.5748  2.6721  1.0957
 1014MOL0     H33799   0.118  12.110   1.466 -0.6255  2.3415 -1.1454
 1014MOL0     H33800   0.257  12.216   1.458  2.1766 -2.9046 -0.1233
 1014MOL0     H33801   0.001  12.088   1.708  0.9385 -0.5224 -3.4073
 1014MOL0     H33802  -0.032  12.392   1.972  0.7162 -0.7967  2.4917
 1014MOL0     H33803  -0.047  12.222   1.975  2.0966  0.4263 -0.8410
 1014MOL0     H33804  -0.260  12.298   1.993 -1.5132 -0.2579 -0.0936
 1014MOL0     H33805  -0.241  12.258   1.815 -2.4988 -0.7891  2.3067
 1014MOL0     H33806  -0.217  12.542   1.920 -1.9264  0.4622  0.3873
 1014MOL0     H33807  -0.224  12.485   1.753 -3.5579  1.0575 -1.7419
 1014MOL0     H33808  -0.445  12.586   1.845  1.2943  1.1162  0.5108
 1014MOL0     H33809  -0.422  12.464   1.965 -0.6797  3.4103  0.5198
 1014MOL0     H33810  -0.648  12.475   1.933  2.1421  2.5780 -2.6949
 1014MOL0     H33811  -0.872  12.427   1.917 -2.9621 -0.7058 -1.6109
 1014MOL0     H33812  -1.209  12.409   2.022  0.6338 -0.2805  0.0532
 1014MOL0     H33813  -1.448  12.419   2.058 -2.6962 -2.0898  1.2990
 1014MOL0     H33814  -1.656  12.540   1.908  0.9699 -0.6369 -2.6990
 1014MOL0     H33815  -1.682  12.438   2.049  0.6931  0.0688 -0.2519
 1014MOL0     H33816  -1.842  12.447   1.803 -0.1326  0.2664 -0.8992
 1014MOL0     H33817  -1.891  12.541   1.948  0.7167  1.3867 -4.0791
 1014MOL0     H33818  -1.927  12.351   2.080  2.7474  0.8321  0.9794
 1014MOL0     H33819  -1.859  12.241   1.956  0.0098 -1.0196  2.0304
 1014MOL0     H33820  -2.109  12.401   1.904  1.3297  1.1878 -2.9326
 1014MOL0     H33821  -2.026  12.296   1.796  0.4961 -1.0699  0.6253
 1014MOL0     H33822  -2.084  12.177   2.078 -2.1019  0.8101  0.7430
 1014MOL0     H33823  -2.084  12.106   1.919 -0.5522  0.2767 -0.4968
 1014MOL0     H33824  -2.294  12.219   1.856  0.5152  1.7676  0.4781
 1014MOL0     H33825  -2.283  12.293   2.022  0.1057  1.0414 -0.8621
 1014MOL0     H33826  -2.286  11.985   1.949 -0.5335  0.9102 -2.3654
 1014MOL0     H33827  -2.309  12.056   2.112  1.6633 -1.9390 -0.2786
 1014MOL0     H33828  -2.511  11.982   1.984  2.3241 -0.0635  2.1960
 1014MOL0     H33829  -2.502  12.131   1.881  2.6877 -0.3039 -0.1961
 1014MOL0     H33830  -1.504  12.223   1.673  0.8112 -0.1692 -0.1253
 1014MOL0     H33831  -1.267  12.227   1.651 -3.1037 -0.8093 -0.6113
 1014MOL0     H33832  -0.810  12.188   1.558  0.4956  0.4259 -0.7899
 1014MOL0     H33833  -0.556  12.259   1.582  1.2052  0.9452  0.0193
 1014MOL0     H33834   1.148  11.768   2.083  0.5481  0.6347 -0.7285
 1014MOL0     H33835   1.256  11.576   2.177  1.3358  0.0911 -1.1359
 1014MOL0     H33836   1.205  10.993   2.187 -0.2335  0.1055  2.8151
 1014MOL0     H33837   1.364  10.832   2.272  1.4076 -1.4421 -0.2055
 1014MOL0     H33838   1.776  10.932   2.324 -1.0536  0.1191 -0.9794
 1014MOL0     H33839   1.777  10.881   2.155 -4.2575  2.2839 -0.4771
 1014MOL0     H33840   1.836  10.727   2.418 -4.0688  3.4449 -0.0419
 1014MOL0     H33841   1.782  10.631   2.266  0.8023  0.5735 -1.8697
 1014MOL0     H33842   2.008  10.828   2.278 -1.6018  0.4568  0.5103
 1014MOL0     H33843   1.941  10.715   2.149 -1.7597  0.0094 -0.5328
 1014MOL0     H33844   2.076  10.643   2.415  0.7047  0.5265  0.4598
 1014MOL0     H33845   2.035  10.523   2.282 -2.3010  0.6036  1.3638
 1014MOL0     H33846   2.362  10.671   2.097 -0.8055  2.4017 -0.9274
 1014MOL0     H33847   1.683  11.102   2.229 -0.4201  1.5791 -0.3923
 1014MOL0     H33848   1.524  11.271   2.123 -2.0887  0.5466  1.6648
 1015MOL0     O33849   7.347   5.756  10.757 -0.6525 -0.8180  0.1458
 1015MOL0     C33850   7.435   5.840  10.727  0.4070  0.4574  0.3201
 1015MOL0     O33851   7.435   5.964  10.759 -0.3521  0.0219 -0.9148
 1015MOL0     C33852   7.319   6.007  10.827 -0.1959 -0.3237  0.2648
 1015MOL0     C33853   7.210   6.068  10.764 -0.4741 -0.0432 -0.3738
 1015MOL0     C33854   7.096   6.110  10.840  0.4029 -0.1585  0.8930
 1015MOL0     C33855   7.081   6.081  10.972 -0.1714  0.0235  0.2289
 1015MOL0     O33856   6.970   6.097  11.048 -0.0281 -0.9128  0.5375
 1015MOL0     C33857   6.847   6.064  10.979 -0.4814 -0.8527  0.5626
 1015MOL0     C33858   6.732   6.030  11.078  0.0035 -0.3498  0.4433
 1015MOL0     C33859   6.597   6.094  11.034  0.9372 -0.4841 -0.3436
 1015MOL0     C33860   6.498   6.063  11.149  0.2984 -0.3828  0.1369
 1015MOL0     C33861   6.357   6.074  11.109 -0.1568 -0.1024 -0.6251
 1015MOL0     C33862   6.307   5.981  10.998 -0.0202 -0.0159 -0.9610
 1015MOL0     C33863   6.170   6.009  10.967  1.7610 -0.0267  0.0342
 1015MOL0     C33864   6.071   5.943  11.064  1.0054  0.6845 -0.1352
 1015MOL0     N33865   5.934   5.934  11.000  0.1906 -0.1634 -0.4191
 1015MOL0     C33866   5.852   6.037  11.003  0.1178 -0.2056 -0.4555
 1015MOL0     C33867   5.742   5.997  10.934  0.7734 -0.6656  0.2601
 1015MOL0     C33868   5.630   6.099  10.914  0.5391  0.0083 -0.2984
 1015MOL0     C33869   5.497   6.068  11.008 -0.2403  0.4065  0.1660
 1015MOL0     C33870   5.351   6.061  10.954 -0.1386  0.2406  0.2959
 1015MOL0     C33871   5.293   6.197  10.917 -0.3424 -0.0790 -0.1098
 1015MOL0     O33872   5.180   6.185  10.821  0.3655 -0.6630 -0.0894
 1015MOL0     C33873   5.057   6.150  10.866  0.0774 -0.3127  0.2711
 1015MOL0     C33874   5.010   6.164  10.994 -0.3708 -0.9497 -0.2887
 1015MOL0     C33875   4.888   6.110  11.035  0.9318  0.2616  0.0669
 1015MOL0     C33876   4.798   6.059  10.939  0.2468  1.2167 -0.5155
 1015MOL0     C33877   4.659   6.017  10.976 -0.3903  0.5798  0.1333
 1015MOL0     O33878   4.578   5.966  10.871 -0.0959 -0.5361  0.8747
 1015MOL0     C33879   4.447   5.934  10.904 -0.5349 -0.1314  0.2784
 1015MOL0     C33880   4.347   6.021  10.877 -0.2101 -0.3912  0.4193
 1015MOL0     C33881   4.217   5.980  10.905 -0.1958  0.5281 -0.3022
 1015MOL0     C33882   4.188   5.846  10.953  1.1053  0.0378 -0.2857
 1015MOL0     O33883   4.061   5.798  10.960 -0.1596 -0.8272  0.5203
 1015MOL0     C33884   4.034   5.666  10.999 -0.1495 -0.1343  0.5049
 1015MOL0     C33885   3.883   5.648  11.002  0.2167 -0.2390 -0.0959
 1015MOL0     C33886   3.823   5.673  10.863  0.4429  0.1983 -0.6838
 1015MOL0     C33887   3.687   5.724  10.909 -0.3477 -1.2451 -0.6406
 1015MOL0     C33888   3.588   5.709  10.793  0.0703 -0.3388  0.0956
 1015MOL0     C33889   3.452   5.740  10.856 -0.5323 -0.6503  0.5287
 1015MOL0     C33890   3.344   5.712  10.756  0.5699  0.3792 -0.3193
 1015MOL0     C33891   3.347   5.773  10.619 -0.3427 -1.2029  1.6076
 1015MOL0    Cl33892   3.322   5.953  10.633  0.2411 -0.6444  0.4679
 1015MOL0     C33893   4.297   5.764  10.978 -0.1237 -0.3976 -0.1273
 1015MOL0     C33894   4.424   5.816  10.968  0.2170  0.2244  0.9185
 1015MOL0     O33895   4.619   6.028  11.093 -0.0154  0.7024  0.2256
 1015MOL0     C33896   4.832   6.074  10.806  0.5806 -0.1484  0.3740
 1015MOL0     C33897   4.961   6.111  10.770  0.5401  0.1635  0.1932
 1015MOL0     N33898   5.757   5.867  10.900  0.9558  1.0584 -0.0748
 1015MOL0     N33899   5.880   5.827  10.938 -0.4188 -1.0622  0.5868
 1015MOL0     C33900   7.178   6.000  11.030  0.0417 -0.9238  0.1635
 1015MOL0     C33901   7.299   5.979  10.962 -0.0373  0.1913  0.0796
 1015MOL0     C33902   7.554   5.782  10.653  0.1403 -0.5511 -0.0842
 1015MOL0     C33903   7.585   5.640  10.674 -0.7090 -0.1449  0.4089
 1015MOL0     C33904   7.706   5.589  10.617  0.5022  0.4347  0.5665
 1015MOL0     C33905   7.787   5.679  10.539  0.2086  0.8397 -0.0400
 1015MOL0     O33906   7.900   5.618  10.495 -0.1551  0.2314 -0.5555
 1015MOL0     C33907   7.998   5.699  10.429  0.3187 -0.1837  0.1092
 1015MOL0     C33908   7.970   5.714  10.281  0.0729  0.2586 -0.4093
 1015MOL0     C33909   8.100   5.772  10.216  0.1951 -0.0323  0.3434
 1015MOL0     C33910   8.144   5.912  10.274 -0.0055 -0.2524  0.6540
 1015MOL0     C33911   8.023   6.001  10.267 -0.1085 -0.5223 -0.3387
 1015MOL0     C33912   7.928   6.078  10.272 -0.4391  0.4662 -0.4586
 1015MOL0     C33913   7.766   5.814  10.520  0.6797  0.8218 -0.6418
 1015MOL0     C33914   7.646   5.864  10.578 -0.4755  0.2722  0.2365
 1015MOL0     H33915   7.210   6.085  10.656  1.9379  1.4038 -0.2169
 1015MOL0     H33916   7.008   6.150  10.790  1.8459  1.1556 -0.6905
 1015MOL0     H33917   6.850   5.993  10.895 -0.6272 -1.3168  0.9440
 1015MOL0     H33918   6.826   6.162  10.935  0.2290 -0.8927  0.1153
 1015MOL0     H33919   6.750   6.072  11.178  1.1602 -3.3817  1.6282
 1015MOL0     H33920   6.709   5.924  11.093 -2.6679 -0.1853 -1.7142
 1015MOL0     H33921   6.556   6.044  10.946 -4.1954  3.7203 -0.8433
 1015MOL0     H33922   6.601   6.201  11.013  0.6776 -0.6342 -1.2180
 1015MOL0     H33923   6.511   5.959  11.181 -0.5474 -0.2775  0.8548
 1015MOL0     H33924   6.530   6.135  11.224  2.8275 -0.3140 -0.9046
 1015MOL0     H33925   6.339   6.180  11.089  2.0207  0.4909  0.3614
 1015MOL0     H33926   6.293   6.055  11.196 -0.9775  3.1523 -0.3773
 1015MOL0     H33927   6.322   5.876  11.027 -0.0062  1.0273  3.5879
 1015MOL0     H33928   6.364   6.016  10.911 -0.1080  3.6470  0.2993
 1015MOL0     H33929   6.140   6.114  10.963  0.0131 -0.5325 -2.5548
 1015MOL0     H33930   6.148   5.983  10.863  0.8156  1.2555 -0.1120
 1015MOL0     H33931   6.060   6.013  11.148  0.2157  1.6145 -0.9953
 1015MOL0     H33932   6.101   5.845  11.102 -0.0300 -0.5896 -2.4451
 1015MOL0     H33933   5.870   6.127  11.060 -1.0370 -0.3644  0.1834
 1015MOL0     H33934   5.610   6.090  10.807 -0.7505  1.6400 -0.2356
 1015MOL0     H33935   5.673   6.198  10.932 -0.3743  0.6222 -1.3972
 1015MOL0     H33936   5.500   6.145  11.086  1.7793  0.9299 -0.3537
 1015MOL0     H33937   5.518   5.976  11.062 -0.2980 -0.5006 -1.2934
 1015MOL0     H33938   5.341   5.996  10.866  0.6957 -3.4732  2.7126
 1015MOL0     H33939   5.289   6.015  11.032  0.8550 -1.1533  0.2966
 1015MOL0     H33940   5.359   6.259  10.856  0.4407  0.1954  0.9921
 1015MOL0     H33941   5.254   6.250  11.004 -1.1480 -2.1866  0.8863
 1015MOL0     H33942   5.065   6.206  11.078 -2.3785 -0.2150  0.7213
 1015MOL0     H33943   4.866   6.114  11.141 -0.5574  4.8187 -0.2029
 1015MOL0     H33944   4.374   6.119  10.839 -1.3915  0.0356  0.6441
 1015MOL0     H33945   4.139   6.054  10.898 -0.5312  0.2861  0.7256
 1015MOL0     H33946   4.087   5.642  11.092  2.8199 -0.3663 -1.1443
 1015MOL0     H33947   4.077   5.592  10.931  0.2086  2.2860 -2.0795
 1015MOL0     H33948   3.853   5.719  11.079 -1.7458  1.4717 -2.2856
 1015MOL0     H33949   3.859   5.549  11.042 -0.2180  0.8794  2.6578
 1015MOL0     H33950   3.816   5.579  10.807  2.4588 -0.5414  0.2149
 1015MOL0     H33951   3.872   5.749  10.802 -0.9041  1.7021  0.0379
 1015MOL0     H33952   3.646   5.671  10.995  1.5090  0.4207  1.3805
 1015MOL0     H33953   3.705   5.822  10.953  2.1392 -1.5162 -0.8958
 1015MOL0     H33954   3.586   5.608  10.752  2.5699 -0.1250 -0.7523
 1015MOL0     H33955   3.602   5.788  10.717  2.0752  1.1903  1.9202
 1015MOL0     H33956   3.446   5.845  10.886 -4.7555 -0.2743 -1.0261
 1015MOL0     H33957   3.434   5.679  10.945  0.8428  0.0018  1.2972
 1015MOL0     H33958   3.335   5.603  10.748 -4.2462  0.4449  1.2612
 1015MOL0     H33959   3.243   5.741  10.787 -0.3112 -1.3280 -1.4456
 1015MOL0     H33960   3.278   5.730  10.545  0.6865  2.0109 -1.5194
 1015MOL0     H33961   3.443   5.745  10.575 -0.9554 -0.3804 -0.3642
 1015MOL0     H33962   4.291   5.669  11.030 -0.6072  0.3422  1.2344
 1015MOL0     H33963   4.509   5.752  10.986 -1.3460 -2.1125  0.3924
 1015MOL0     H33964   4.753   6.055  10.733 -2.3318  0.8295  3.0562
 1015MOL0     H33965   4.991   6.123  10.666  2.4548  1.4157  0.8448
 1015MOL0     H33966   7.184   5.951  11.126  3.1760  0.1084  0.6063
 1015MOL0     H33967   7.375   5.912  11.002  2.1361  0.9141 -2.5465
 1015MOL0     H33968   7.520   5.573  10.729 -1.7549 -0.0208 -0.6393
 1015MOL0     H33969   7.732   5.487  10.644  0.1268  0.0328 -0.5469
 1015MOL0     H33970   8.090   5.640  10.434  0.0191 -0.9408 -2.1115
 1015MOL0     H33971   8.017   5.791  10.485 -1.5720 -0.2651  0.9736
 1015MOL0     H33972   7.960   5.614  10.240  1.4791  0.3212 -0.9544
 1015MOL0     H33973   7.875   5.769  10.271 -0.7304 -0.5074  2.1236
 1015MOL0     H33974   8.085   5.771  10.108 -1.6361  0.7460  0.5460
 1015MOL0     H33975   8.180   5.701  10.240  0.5457  0.0871 -0.4633
 1015MOL0     H33976   8.185   5.902  10.375 -0.0680  1.3491  0.8634
 1015MOL0     H33977   8.221   5.966  10.217  0.3793  0.5710  1.9280
 1015MOL0     H33978   7.835   6.131  10.283 -0.6756 -0.1240  0.5499
 1015MOL0     H33979   7.824   5.882  10.458 -2.1121  1.7768 -2.3618
 1015MOL0     H33980   7.630   5.971  10.568  2.3516  0.9714  2.0452
 1016MOL0     O33981   2.811   9.631   0.655  0.0069  0.7647  0.1402
 1016MOL0     C33982   2.713   9.560   0.642  0.0092 -0.1738 -0.4975
 1016MOL0     O33983   2.626   9.531   0.743  0.6913  0.4040  0.2139
 1016MOL0     C33984   2.646   9.575   0.872  0.0445 -0.0914  0.0960
 1016MOL0     C33985   2.693   9.707   0.898  0.6220 -0.3510 -0.0267
 1016MOL0     C33986   2.691   9.759   1.028  0.0751  0.8464 -0.8141
 1016MOL0     C33987   2.646   9.675   1.134  0.7941 -0.1235 -0.4949
 1016MOL0     O33988   2.618   9.719   1.267 -0.5160 -0.3992  0.1033
 1016MOL0     C33989   2.660   9.847   1.309  0.4014 -0.3993 -0.9470
 1016MOL0     C33990   2.661   9.848   1.463  0.6961 -0.5521 -0.4774
 1016MOL0     C33991   2.508   9.824   1.505  0.7503 -0.2651 -0.0808
 1016MOL0     C33992   2.486   9.841   1.650  0.8876 -0.0342  0.0307
 1016MOL0     C33993   2.350   9.796   1.698  0.4762  0.4431  0.2137
 1016MOL0     C33994   2.322   9.829   1.844 -0.3687  0.0797 -0.0815
 1016MOL0     C33995   2.173   9.783   1.894 -0.7469  0.0686 -0.2934
 1016MOL0     C33996   2.169   9.632   1.918 -0.1034  1.0994  0.3814
 1016MOL0     N33997   2.049   9.575   1.977 -0.5581 -0.0404  0.4838
 1016MOL0     C33998   2.043   9.512   2.093  0.3249 -0.1602  0.8849
 1016MOL0     C33999   1.918   9.465   2.107  0.6939  0.6868  0.3025
 1016MOL0     C34000   1.860   9.384   2.224  0.0437  0.9024 -0.0578
 1016MOL0     C34001   1.714   9.413   2.261 -0.5950  0.0367  0.7676
 1016MOL0     C34002   1.676   9.330   2.390  0.2802  0.0948  0.7689
 1016MOL0     C34003   1.574   9.379   2.485  0.7920 -0.6719  0.0195
 1016MOL0     O34004   1.446   9.379   2.424  0.1783 -0.3967 -0.4569
 1016MOL0     C34005   1.341   9.440   2.482  0.5287 -0.2233  0.1986
 1016MOL0     C34006   1.334   9.525   2.587 -0.3236 -0.7427 -0.5328
 1016MOL0     C34007   1.209   9.581   2.626 -0.8893 -0.5296 -0.2479
 1016MOL0     C34008   1.089   9.549   2.569  0.1139  0.1101  0.1731
 1016MOL0     C34009   0.955   9.598   2.611 -0.0578  0.3994 -0.0913
 1016MOL0     O34010   0.962   9.695   2.714  0.5782  0.5953  0.8855
 1016MOL0     C34011   0.839   9.749   2.731 -0.4744 -0.6762  0.7387
 1016MOL0     C34012   0.753   9.684   2.807  0.7692 -0.3440 -0.7316
 1016MOL0     C34013   0.623   9.733   2.829  0.0719 -0.9934 -0.5154
 1016MOL0     C34014   0.604   9.873   2.793 -0.9203  1.1253  0.5324
 1016MOL0     O34015   0.484   9.929   2.842 -0.6351 -0.3286 -0.4482
 1016MOL0     C34016   0.416  10.031   2.763 -0.0361  0.3358 -0.4356
 1016MOL0     C34017   0.295  10.095   2.839  0.0567 -0.4908 -0.4517
 1016MOL0     C34018   0.200   9.997   2.900 -0.0578 -0.3765 -0.1410
 1016MOL0     C34019   0.085  10.067   2.968  0.8304 -0.0022  0.2196
 1016MOL0     C34020  -0.008   9.962   3.017  0.2292 -0.2783 -0.0013
 1016MOL0     C34021  -0.088  10.023   3.133 -0.5420  0.4728  0.0136
 1016MOL0     C34022  -0.184   9.915   3.195 -0.2240 -0.2209 -0.5629
 1016MOL0     C34023  -0.232   9.975   3.329  0.6155 -0.4166  1.0526
 1016MOL0    Cl34024  -0.406   9.923   3.362 -0.3220 -0.4110  0.4250
 1016MOL0     C34025   0.702   9.949   2.720 -0.2763 -0.0711 -0.3669
 1016MOL0     C34026   0.824   9.877   2.677  0.0048 -0.3201  0.2243
 1016MOL0     O34027   0.854   9.563   2.556  0.0626  0.6444 -0.0942
 1016MOL0     C34028   1.093   9.449   2.469 -0.1996 -0.4634 -0.3089
 1016MOL0     C34029   1.221   9.397   2.436  0.2812 -0.6367 -0.8583
 1016MOL0     N34030   1.852   9.494   1.986  0.2097 -0.3560 -0.4821
 1016MOL0     N34031   1.929   9.569   1.920  0.2553  0.3925 -0.5099
 1016MOL0     C34032   2.603   9.543   1.111 -0.3415 -0.0062 -0.5060
 1016MOL0     C34033   2.604   9.491   0.978 -0.5471 -0.5070  0.1837
 1016MOL0     C34034   2.700   9.472   0.526  1.2577 -1.1542 -0.0631
 1016MOL0     C34035   2.805   9.457   0.438  0.0287  0.5345  0.5236
 1016MOL0     C34036   2.802   9.358   0.335 -0.0814  0.1508  0.3879
 1016MOL0     C34037   2.683   9.293   0.304 -0.9482 -0.5996 -0.3679
 1016MOL0     O34038   2.665   9.195   0.212  0.2183  0.2356 -0.2233
 1016MOL0     C34039   2.764   9.170   0.110 -0.1090 -0.1294  0.1891
 1016MOL0     C34040   2.695   9.095   0.000  0.2701  0.1888  0.0622
 1016MOL0     C34041   2.616   9.204  -0.081 -0.3053  0.9944 -0.6188
 1016MOL0     C34042   2.544   9.152  -0.201 -0.0340  0.5064  0.1302
 1016MOL0     C34043   2.565   9.240  -0.317 -0.5543  0.1942 -0.2486
 1016MOL0     C34044   2.572   9.313  -0.418  0.3894 -0.0507 -1.0556
 1016MOL0     C34045   2.575   9.313   0.391 -0.7622 -0.0788 -0.0325
 1016MOL0     C34046   2.585   9.397   0.503  1.0779 -1.2284  0.0019
 1016MOL0     H34047   2.714   9.775   0.816  1.8516  0.4344  0.9101
 1016MOL0     H34048   2.719   9.861   1.053 -0.3265  0.2323  2.6122
 1016MOL0     H34049   2.586   9.920   1.276  1.8059  0.4803 -2.2198
 1016MOL0     H34050   2.760   9.875   1.276  0.0402  2.8304  0.3827
 1016MOL0     H34051   2.706   9.940   1.500  1.0788  0.4148 -3.1100
 1016MOL0     H34052   2.721   9.766   1.503 -0.8928 -1.2536  0.5420
 1016MOL0     H34053   2.477   9.724   1.474 -1.5676  1.0031 -2.1742
 1016MOL0     H34054   2.446   9.897   1.452 -0.5847 -0.3226  1.3506
 1016MOL0     H34055   2.558   9.781   1.708  0.4656 -1.6713 -1.0827
 1016MOL0     H34056   2.491   9.946   1.682 -1.6826  0.8468 -2.1236
 1016MOL0     H34057   2.338   9.688   1.691  0.3829  0.5588 -2.3255
 1016MOL0     H34058   2.274   9.839   1.633  1.2955 -0.8250 -1.6807
 1016MOL0     H34059   2.328   9.938   1.851 -2.4499  0.2561 -0.4407
 1016MOL0     H34060   2.398   9.785   1.910  0.4398 -0.3374 -1.2549
 1016MOL0     H34061   2.144   9.829   1.989  2.4513  0.8344  0.4208
 1016MOL0     H34062   2.106   9.822   1.816 -1.0036 -2.0698 -1.2133
 1016MOL0     H34063   2.248   9.601   1.988 -1.2260 -1.5157  0.6249
 1016MOL0     H34064   2.198   9.577   1.828 -0.1164 -1.1058  1.6337
 1016MOL0     H34065   2.117   9.510   2.172 -1.0798  0.4202  2.2630
 1016MOL0     H34066   1.922   9.405   2.312  1.4949  1.5229 -1.1950
 1016MOL0     H34067   1.869   9.283   2.183  0.8491  0.3921  1.3006
 1016MOL0     H34068   1.654   9.398   2.171  0.0887 -1.7492  0.5725
 1016MOL0     H34069   1.702   9.518   2.290 -0.7809  0.2529 -0.0573
 1016MOL0     H34070   1.638   9.233   2.354 -2.1584  1.6344 -1.1411
 1016MOL0     H34071   1.766   9.308   2.448 -0.7751  0.2383  2.5518
 1016MOL0     H34072   1.608   9.483   2.495  1.6019 -0.9591  0.3081
 1016MOL0     H34073   1.579   9.342   2.587  1.4532  1.7829  0.9687
 1016MOL0     H34074   1.419   9.571   2.637  1.8030 -3.9542 -0.8415
 1016MOL0     H34075   1.197   9.653   2.705 -0.9384  0.8453 -1.4631
 1016MOL0     H34076   0.760   9.579   2.834 -2.1366 -0.2044  1.0843
 1016MOL0     H34077   0.556   9.678   2.894 -0.6476  1.2630  0.7809
 1016MOL0     H34078   0.369   9.991   2.673 -0.0087  0.9434 -0.7284
 1016MOL0     H34079   0.481  10.112   2.727 -2.6999  1.6761 -2.6184
 1016MOL0     H34080   0.239  10.169   2.782 -2.1178 -0.8985  1.0183
 1016MOL0     H34081   0.337  10.159   2.916 -2.5217  1.3180 -0.4222
 1016MOL0     H34082   0.249   9.932   2.972  2.1328  0.6696 -0.5758
 1016MOL0     H34083   0.171   9.931   2.817  2.8323  0.0656 -1.6470
 1016MOL0     H34084   0.113  10.126   3.056  1.4713 -2.0899  1.4913
 1016MOL0     H34085   0.031  10.136   2.903 -0.8974  0.3717  1.9722
 1016MOL0     H34086   0.051   9.880   3.060 -0.1519  0.1055  1.3077
 1016MOL0     H34087  -0.085   9.935   2.944  1.7346  1.5984 -2.4465
 1016MOL0     H34088  -0.142  10.112   3.098 -0.3631  1.5431  2.2608
 1016MOL0     H34089  -0.026  10.061   3.215 -2.2214  1.2297  0.9823
 1016MOL0     H34090  -0.258   9.908   3.116  1.7445  2.3102 -2.8375
 1016MOL0     H34091  -0.140   9.819   3.223 -1.8275 -0.6505  0.6354
 1016MOL0     H34092  -0.223  10.084   3.320  0.4747 -0.4173  0.9097
 1016MOL0     H34093  -0.165   9.949   3.412 -0.4738 -1.7304  1.5408
 1016MOL0     H34094   0.691  10.055   2.695 -0.1838  0.3594  1.3343
 1016MOL0     H34095   0.912   9.918   2.628  0.0058  0.1926  0.6399
 1016MOL0     H34096   1.007   9.408   2.417  0.2321 -3.4017  1.1380
 1016MOL0     H34097   1.239   9.329   2.352  2.5009  2.5143 -3.1957
 1016MOL0     H34098   2.562   9.482   1.190 -1.4412 -0.7218 -1.6004
 1016MOL0     H34099   2.566   9.391   0.961  1.9554 -1.4588 -0.2480
 1016MOL0     H34100   2.894   9.519   0.441  1.1413 -0.9965  0.5110
 1016MOL0     H34101   2.890   9.341   0.273  0.3334  1.4043  0.5951
 1016MOL0     H34102   2.844   9.111   0.157 -0.7013 -1.8677 -0.8731
 1016MOL0     H34103   2.816   9.256   0.068  0.6119 -1.4669 -1.8073
 1016MOL0     H34104   2.771   9.045  -0.060  1.1853 -2.5405  3.2082
 1016MOL0     H34105   2.632   9.014   0.036  3.2262 -2.6678 -0.6902
 1016MOL0     H34106   2.685   9.286  -0.103  2.3926 -1.2292 -1.0934
 1016MOL0     H34107   2.539   9.242  -0.013 -0.7300 -1.1164  0.1593
 1016MOL0     H34108   2.563   9.050  -0.236  0.6915  0.2615  1.2041
 1016MOL0     H34109   2.437   9.157  -0.176 -0.8833 -1.4304 -2.6775
 1016MOL0     H34110   2.571   9.365  -0.512 -2.0614  1.1926 -0.4035
 1016MOL0     H34111   2.480   9.262   0.378 -1.3035  0.0294  2.8267
 1016MOL0     H34112   2.501   9.389   0.572  2.1213 -0.7228  1.3640
 1017MOL0     O34113   3.760   8.085   7.234  0.6077 -0.2876 -0.3390
 1017MOL0     C34114   3.835   7.993   7.262  0.4629 -0.2847 -0.9271
 1017MOL0     O34115   3.799   7.867   7.295 -0.3337 -0.0967  0.7037
 1017MOL0     C34116   3.671   7.824   7.259  0.6816 -0.8788  0.4559
 1017MOL0     C34117   3.558   7.865   7.333  0.3146 -0.3220 -0.2488
 1017MOL0     C34118   3.422   7.854   7.294  0.0815  0.0597  0.0230
 1017MOL0     C34119   3.402   7.776   7.174  0.0404  0.3865 -0.3587
 1017MOL0     O34120   3.269   7.757   7.126 -0.0782  0.7073  0.5080
 1017MOL0     C34121   3.188   7.646   7.179  0.9395 -0.8426  0.2619
 1017MOL0     C34122   3.038   7.674   7.192 -0.2290 -0.1868 -0.3956
 1017MOL0     C34123   2.967   7.685   7.058  0.2836 -0.4257 -0.1232
 1017MOL0     C34124   2.825   7.722   7.093  0.5685 -0.4340  0.6718
 1017MOL0     C34125   2.727   7.735   6.971 -0.6275  0.1071  0.5348
 1017MOL0     C34126   2.681   7.605   6.919 -0.5086  0.2652 -0.1196
 1017MOL0     C34127   2.603   7.622   6.788  0.8688  0.6484 -0.4315
 1017MOL0     C34128   2.529   7.498   6.752  0.5079  0.6008 -0.6103
 1017MOL0     N34129   2.387   7.502   6.806  0.0203  0.5016  0.8092
 1017MOL0     C34130   2.345   7.466   6.933  0.2675  0.3727  0.3227
 1017MOL0     C34131   2.208   7.470   6.929 -0.4252 -0.2301  0.6800
 1017MOL0     C34132   2.112   7.437   7.034  0.8998 -0.5814  0.0225
 1017MOL0     C34133   1.968   7.432   6.990 -0.1088 -0.3423 -0.2887
 1017MOL0     C34134   1.913   7.580   6.969 -0.5884 -0.5413 -0.5584
 1017MOL0     C34135   1.767   7.584   6.938  0.7695 -0.2960  0.0246
 1017MOL0     O34136   1.716   7.500   7.029  0.3086 -0.9461  0.2031
 1017MOL0     C34137   1.577   7.501   7.060 -0.1706 -0.1035  0.4429
 1017MOL0     C34138   1.537   7.418   7.162 -0.0487  0.3879 -0.1433
 1017MOL0     C34139   1.397   7.395   7.193 -0.6330 -1.6301  0.1548
 1017MOL0     C34140   1.303   7.477   7.130  1.3755  0.7165  0.7987
 1017MOL0     C34141   1.163   7.453   7.151 -1.8904 -0.4763 -0.4145
 1017MOL0     O34142   1.129   7.404   7.275  0.2346  0.2374 -0.0358
 1017MOL0     C34143   0.997   7.405   7.308 -0.0923 -0.6187 -0.4061
 1017MOL0     C34144   0.893   7.359   7.226 -0.0662 -0.5582  0.1407
 1017MOL0     C34145   0.758   7.395   7.257  0.2868  0.5394  0.0395
 1017MOL0     C34146   0.726   7.452   7.382  0.1999  0.5227 -0.5135
 1017MOL0     O34147   0.591   7.474   7.411 -0.4323 -0.1849  0.4152
 1017MOL0     C34148   0.566   7.598   7.471  0.8546  0.1531 -0.2648
 1017MOL0     C34149   0.414   7.614   7.484  0.1960  0.5042  0.3816
 1017MOL0     C34150   0.385   7.731   7.567  0.7725  0.2217 -1.1953
 1017MOL0     C34151   0.236   7.780   7.551 -0.5648  0.6832  0.0353
 1017MOL0     C34152   0.200   7.901   7.639  0.0940  0.0526  0.1130
 1017MOL0     C34153   0.062   7.967   7.606  0.0280 -0.2194  0.2391
 1017MOL0     C34154   0.014   8.026   7.736  0.2211  0.3632  0.4256
 1017MOL0     C34155  -0.054   8.163   7.702 -0.0079 -0.7192  0.4920
 1017MOL0    Cl34156  -0.073   8.257   7.856  0.0006 -0.3140  0.0010
 1017MOL0     C34157   0.833   7.481   7.474  1.2143  0.4961  0.3605
 1017MOL0     C34158   0.963   7.463   7.434 -0.0627 -0.0926 -0.2602
 1017MOL0     O34159   1.087   7.498   7.069  0.2801  0.8891  0.8379
 1017MOL0     C34160   1.346   7.575   7.045 -0.9181 -0.4449  1.0333
 1017MOL0     C34161   1.482   7.591   7.011 -0.0402 -0.2029 -0.5607
 1017MOL0     N34162   2.170   7.500   6.795  0.2965  0.0432 -0.1660
 1017MOL0     N34163   2.275   7.527   6.729  0.1669 -0.3730 -0.0786
 1017MOL0     C34164   3.513   7.725   7.109 -0.0420  1.1184  0.2142
 1017MOL0     C34165   3.646   7.746   7.148  1.2520 -0.2719 -0.0547
 1017MOL0     C34166   3.980   8.026   7.259  0.2029 -0.2847  0.3572
 1017MOL0     C34167   4.030   8.146   7.298 -0.3670 -0.2760 -1.1601
 1017MOL0     C34168   4.161   8.176   7.318 -0.2662  0.0006 -0.7356
 1017MOL0     C34169   4.255   8.077   7.284 -0.5388  1.1585 -0.7440
 1017MOL0     O34170   4.396   8.098   7.291 -0.3737 -0.4879 -0.5191
 1017MOL0     C34171   4.434   8.207   7.368 -0.2341 -0.3182  0.1326
 1017MOL0     C34172   4.423   8.172   7.513  0.0182 -0.6137 -0.1824
 1017MOL0     C34173   4.499   8.270   7.605 -0.1367  0.1097  0.0144
 1017MOL0     C34174   4.531   8.202   7.743 -0.1439  0.1500  0.1082
 1017MOL0     C34175   4.425   8.219   7.841  0.3935 -0.5063  0.7547
 1017MOL0     C34176   4.345   8.231   7.930  0.4185  0.0824  0.2993
 1017MOL0     C34177   4.210   7.950   7.230  0.5500 -0.3031  0.1545
 1017MOL0     C34178   4.074   7.919   7.232 -0.4328 -0.3066 -0.5587
 1017MOL0     H34179   3.565   7.927   7.422 -1.4722 -0.8737  0.3062
 1017MOL0     H34180   3.332   7.905   7.327 -0.1465  0.7472 -1.6022
 1017MOL0     H34181   3.217   7.625   7.283 -3.2743  1.0895  2.0718
 1017MOL0     H34182   3.195   7.559   7.113 -2.1556  0.7013 -2.3862
 1017MOL0     H34183   3.022   7.765   7.250 -1.2087 -0.3614 -0.3880
 1017MOL0     H34184   2.996   7.594   7.254  0.4670 -2.0231 -2.1719
 1017MOL0     H34185   2.972   7.587   7.010  1.2403  1.2347 -3.7651
 1017MOL0     H34186   3.008   7.770   7.003  0.5073  0.0702  0.7896
 1017MOL0     H34187   2.755   7.662   7.153 -1.8845  1.2473 -0.3167
 1017MOL0     H34188   2.842   7.819   7.141  1.1880  0.9670 -2.1357
 1017MOL0     H34189   2.780   7.790   6.893  1.0969 -2.8608 -0.5767
 1017MOL0     H34190   2.639   7.786   7.010 -3.0835 -1.8851 -2.0370
 1017MOL0     H34191   2.614   7.551   6.987  1.9481 -3.8036 -0.6114
 1017MOL0     H34192   2.766   7.542   6.892  0.0234  1.4160 -1.2178
 1017MOL0     H34193   2.528   7.700   6.804  0.0560 -0.5612  2.1447
 1017MOL0     H34194   2.664   7.654   6.702 -0.7262  0.5335 -1.6408
 1017MOL0     H34195   2.584   7.410   6.787 -2.1680 -0.0729  2.3174
 1017MOL0     H34196   2.521   7.487   6.643 -2.8719 -1.3906 -0.2859
 1017MOL0     H34197   2.411   7.436   7.014 -0.1602  1.7334  1.2007
 1017MOL0     H34198   2.129   7.503   7.121  0.0431  0.1381 -0.3430
 1017MOL0     H34199   2.114   7.335   7.072 -2.5743 -0.5362  0.6109
 1017MOL0     H34200   1.911   7.371   7.060  1.0306  1.1195  2.0753
 1017MOL0     H34201   1.953   7.381   6.895 -4.1423 -0.5804  0.3094
 1017MOL0     H34202   1.920   7.633   7.064 -1.1862  2.4133 -2.0310
 1017MOL0     H34203   1.962   7.643   6.895 -0.3797  0.1717  0.1793
 1017MOL0     H34204   1.740   7.548   6.838  0.4452  0.4838 -0.1736
 1017MOL0     H34205   1.729   7.686   6.945  0.9105 -0.3406  2.5462
 1017MOL0     H34206   1.613   7.357   7.209  0.1349  1.5252  1.0904
 1017MOL0     H34207   1.369   7.328   7.273 -0.6305 -0.9561  0.7321
 1017MOL0     H34208   0.918   7.299   7.139  1.3002  3.1576 -2.2880
 1017MOL0     H34209   0.674   7.367   7.195 -1.7218 -1.8882  3.4878
 1017MOL0     H34210   0.605   7.686   7.418 -0.9317  3.0396  2.8333
 1017MOL0     H34211   0.609   7.607   7.571  0.6458  3.1175 -0.3501
 1017MOL0     H34212   0.371   7.527   7.534 -2.3737 -0.3452 -2.9730
 1017MOL0     H34213   0.364   7.625   7.388  1.8201 -0.2432 -0.5980
 1017MOL0     H34214   0.456   7.810   7.539  2.2134 -0.3303  0.6945
 1017MOL0     H34215   0.387   7.704   7.673 -1.3428  1.9009 -0.6443
 1017MOL0     H34216   0.249   7.794   7.443  2.1321 -0.0243  0.1944
 1017MOL0     H34217   0.162   7.702   7.568  1.1163 -0.7561  1.0848
 1017MOL0     H34218   0.280   7.975   7.635 -0.2179  0.3456 -1.0589
 1017MOL0     H34219   0.200   7.857   7.740  1.0957  1.0006  0.5434
 1017MOL0     H34220  -0.007   7.891   7.568  1.5825 -1.8606  0.5486
 1017MOL0     H34221   0.091   8.035   7.525 -0.4296  0.7416  0.8676
 1017MOL0     H34222  -0.055   7.953   7.781 -1.9069  1.2124 -1.2597
 1017MOL0     H34223   0.096   8.053   7.803  1.9989  1.4285 -2.0447
 1017MOL0     H34224  -0.149   8.143   7.651 -1.6776  2.0658  2.2321
 1017MOL0     H34225   0.020   8.218   7.643  0.7183  0.0826  2.0981
 1017MOL0     H34226   0.809   7.516   7.575 -1.1564 -2.9373  1.1679
 1017MOL0     H34227   1.046   7.485   7.499 -1.3621 -1.4174  1.9616
 1017MOL0     H34228   1.275   7.644   7.002 -0.0293  0.2325  0.6235
 1017MOL0     H34229   1.500   7.667   6.935  0.1394 -1.4859 -1.8368
 1017MOL0     H34230   3.498   7.659   7.024  2.2050 -0.9790  1.3044
 1017MOL0     H34231   3.728   7.725   7.080  2.3407  2.1008  0.4188
 1017MOL0     H34232   3.964   8.228   7.324 -0.6676 -1.4704  2.3146
 1017MOL0     H34233   4.189   8.276   7.349 -2.1986  0.7131 -1.1397
 1017MOL0     H34234   4.392   8.307   7.349  0.3659 -0.2342 -0.8225
 1017MOL0     H34235   4.541   8.220   7.345 -0.3444 -0.5342 -0.5376
 1017MOL0     H34236   4.316   8.179   7.532  0.0823 -1.2532  0.4530
 1017MOL0     H34237   4.451   8.067   7.522  1.8540 -0.2743 -1.2696
 1017MOL0     H34238   4.437   8.356   7.629 -0.3668 -0.2221  0.6264
 1017MOL0     H34239   4.597   8.302   7.568 -0.7710  1.6246 -0.4167
 1017MOL0     H34240   4.556   8.098   7.724  0.3755  0.5290 -1.4350
 1017MOL0     H34241   4.623   8.248   7.780 -0.5089 -0.3397  1.6636
 1017MOL0     H34242   4.257   8.251   7.987  0.5434  1.4681  0.0498
 1017MOL0     H34243   4.285   7.878   7.196  0.5647  0.2239 -0.9828
 1017MOL0     H34244   4.045   7.824   7.187  1.7816  0.8641 -5.0683
 1018MOL0     O34245   9.168   1.387   1.026  0.9004 -0.5754  0.2510
 1018MOL0     C34246   9.272   1.389   1.087 -0.4421  0.2318 -1.4753
 1018MOL0     O34247   9.329   1.279   1.163  0.1130  0.7106 -0.1010
 1018MOL0     C34248   9.248   1.169   1.163  0.8230 -0.4907  0.1022
 1018MOL0     C34249   9.257   1.064   1.060 -0.8955 -1.0094 -0.4784
 1018MOL0     C34250   9.174   0.959   1.055  1.0859  0.2038  0.5197
 1018MOL0     C34251   9.058   0.957   1.130  1.2684  0.6095 -1.0003
 1018MOL0     O34252   8.956   0.864   1.126 -1.0004  0.6326  0.0117
 1018MOL0     C34253   8.993   0.733   1.086  0.5519 -0.1862 -0.2332
 1018MOL0     C34254   8.860   0.660   1.068 -0.1980  0.3997 -0.4844
 1018MOL0     C34255   8.803   0.639   1.201 -0.6381  0.1102  0.0969
 1018MOL0     C34256   8.656   0.590   1.189 -1.0263 -0.1567  0.1996
 1018MOL0     C34257   8.571   0.608   1.314 -0.0595 -0.2639 -0.1614
 1018MOL0     C34258   8.426   0.578   1.267  0.1188  0.1355 -0.8610
 1018MOL0     C34259   8.334   0.571   1.384  0.7269 -0.2269  1.0192
 1018MOL0     C34260   8.196   0.519   1.345  0.5446 -0.0107  0.2043
 1018MOL0     N34261   8.112   0.610   1.266  0.1541  0.0774 -0.1466
 1018MOL0     C34262   8.009   0.699   1.300 -0.5491  0.0703 -0.2134
 1018MOL0     C34263   7.976   0.763   1.181 -0.4439  0.7453  0.2968
 1018MOL0     C34264   7.881   0.876   1.175  0.4279  0.3206 -0.0975
 1018MOL0     C34265   7.732   0.829   1.188  0.5190  0.2345  0.1167
 1018MOL0     C34266   7.643   0.945   1.247 -0.5020  0.1630 -0.4224
 1018MOL0     C34267   7.515   0.896   1.300  0.0032  0.8724 -0.5119
 1018MOL0     O34268   7.473   0.975   1.410 -0.0010 -0.3778 -0.2963
 1018MOL0     C34269   7.336   0.981   1.426 -0.1626 -0.0331  0.1328
 1018MOL0     C34270   7.249   0.868   1.423 -0.4092  0.8923 -0.0291
 1018MOL0     C34271   7.118   0.876   1.457 -0.2585 -0.1830 -0.0272
 1018MOL0     C34272   7.062   1.007   1.489  0.1403 -0.7359 -0.5095
 1018MOL0     C34273   6.916   1.021   1.513  0.5202  0.6441  0.2882
 1018MOL0     O34274   6.844   0.910   1.539 -0.3350 -0.1261 -0.2255
 1018MOL0     C34275   6.708   0.906   1.540 -0.1051  0.2718  0.2982
 1018MOL0     C34276   6.620   0.989   1.473 -0.2745 -0.5869 -0.0227
 1018MOL0     C34277   6.486   0.975   1.491  0.7350  0.4209  1.1700
 1018MOL0     C34278   6.427   0.878   1.568  0.2969  0.5627  0.0684
 1018MOL0     O34279   6.288   0.879   1.568  0.5227  0.5211  0.3133
 1018MOL0     C34280   6.217   0.793   1.663  0.5357 -0.0986 -0.3255
 1018MOL0     C34281   6.197   0.844   1.807 -0.0476 -0.5699  0.1404
 1018MOL0     C34282   6.090   0.950   1.800  0.7014 -0.4980  0.6775
 1018MOL0     C34283   5.946   0.886   1.815  0.1796  0.4594 -0.0665
 1018MOL0     C34284   5.824   0.967   1.770 -0.3573 -0.3284 -0.0280
 1018MOL0     C34285   5.681   0.901   1.784 -0.1755 -0.0521 -0.1272
 1018MOL0     C34286   5.575   0.979   1.702 -0.2456 -0.1407  0.0848
 1018MOL0     C34287   5.452   0.886   1.695 -0.0941 -0.7676  0.2382
 1018MOL0    Cl34288   5.333   0.992   1.607  0.0845  0.2692  0.1202
 1018MOL0     C34289   6.509   0.789   1.638  0.1675  0.3155  0.1968
 1018MOL0     C34290   6.646   0.800   1.614 -0.2474 -0.4366 -0.4313
 1018MOL0     O34291   6.863   1.134   1.503 -0.4211  0.1371  0.1637
 1018MOL0     C34292   7.144   1.117   1.486  0.2591 -0.0370 -1.1209
 1018MOL0     C34293   7.285   1.103   1.465  0.4776  0.0161 -0.8482
 1018MOL0     N34294   8.054   0.713   1.080  0.5987  0.1962 -0.6298
 1018MOL0     N34295   8.130   0.616   1.128 -0.5702  0.2058  0.1972
 1018MOL0     C34296   9.052   1.056   1.240 -0.1368  0.5967  0.4033
 1018MOL0     C34297   9.140   1.158   1.254  0.6320  0.1732 -0.1430
 1018MOL0     C34298   9.375   1.483   1.053  0.2470  0.0513 -1.3144
 1018MOL0     C34299   9.503   1.454   1.080  0.5983 -0.2550  0.0457
 1018MOL0     C34300   9.601   1.546   1.034 -0.5009  0.6870 -0.9509
 1018MOL0     C34301   9.563   1.673   0.986 -0.4895  0.3073  0.3850
 1018MOL0     O34302   9.652   1.771   0.946 -0.5655 -0.6895  0.6550
 1018MOL0     C34303   9.788   1.754   0.979  0.3800 -0.0382  0.4633
 1018MOL0     C34304   9.869   1.853   0.895  0.2319  0.7988 -0.5031
 1018MOL0     C34305   9.861   1.812   0.745  0.9614 -1.2190 -0.5174
 1018MOL0     C34306   9.979   1.883   0.671 -0.2881  0.2516 -0.0699
 1018MOL0     C34307   9.935   2.022   0.657 -0.7090 -0.1057 -1.1421
 1018MOL0     C34308   9.910   2.147   0.642 -0.0203 -0.2178 -0.8161
 1018MOL0     C34309   9.429   1.703   0.960 -0.1445 -0.0924 -1.5147
 1018MOL0     C34310   9.338   1.605   0.994  1.4610 -0.3470  0.1389
 1018MOL0     H34311   9.330   1.077   0.980 -3.2489  1.3247 -2.4338
 1018MOL0     H34312   9.185   0.880   0.981 -1.2736 -1.1254  1.4698
 1018MOL0     H34313   9.066   0.690   1.154  0.2895 -0.6084 -0.2098
 1018MOL0     H34314   9.034   0.725   0.985 -0.7034  0.9998 -0.8771
 1018MOL0     H34315   8.882   0.558   1.035  0.2493 -0.0055  0.9706
 1018MOL0     H34316   8.797   0.711   0.995  0.7935 -1.9921 -3.1958
 1018MOL0     H34317   8.822   0.729   1.260  2.6793 -0.9947  0.9064
 1018MOL0     H34318   8.865   0.568   1.256 -2.5596  0.0754  2.3834
 1018MOL0     H34319   8.610   0.643   1.106 -0.7907 -0.8335 -0.3670
 1018MOL0     H34320   8.659   0.487   1.152  2.4549 -0.4160  0.8350
 1018MOL0     H34321   8.570   0.711   1.350 -1.9454 -0.8067  1.5190
 1018MOL0     H34322   8.594   0.532   1.390 -0.6536 -3.0865 -2.6069
 1018MOL0     H34323   8.424   0.477   1.224 -4.0110 -0.9343  1.3593
 1018MOL0     H34324   8.392   0.656   1.198 -0.8947  1.5974  1.1953
 1018MOL0     H34325   8.381   0.505   1.458  2.2646  1.1479  1.3286
 1018MOL0     H34326   8.308   0.669   1.425 -4.0846 -0.9244  0.2517
 1018MOL0     H34327   8.144   0.513   1.442  2.2196  2.7582  1.4058
 1018MOL0     H34328   8.198   0.419   1.302 -0.2983  0.3104 -0.6202
 1018MOL0     H34329   7.955   0.711   1.393 -0.8895  0.0827 -0.4095
 1018MOL0     H34330   7.885   0.932   1.081 -1.0071  1.7640  0.6536
 1018MOL0     H34331   7.905   0.944   1.257 -0.8602 -0.1478  0.7070
 1018MOL0     H34332   7.723   0.728   1.229 -0.0808 -0.8338 -2.4390
 1018MOL0     H34333   7.682   0.809   1.092  1.1124  0.2442 -0.1967
 1018MOL0     H34334   7.708   0.990   1.323 -0.2908 -0.0196 -0.4944
 1018MOL0     H34335   7.625   1.020   1.170 -0.1363  2.9137  1.9844
 1018MOL0     H34336   7.528   0.795   1.340 -1.5309 -0.2281 -2.6425
 1018MOL0     H34337   7.449   0.878   1.216  0.2131 -0.6314 -0.3933
 1018MOL0     H34338   7.288   0.770   1.397 -1.9334 -0.3683  2.0558
 1018MOL0     H34339   7.050   0.792   1.461 -0.4331  0.0058  3.7267
 1018MOL0     H34340   6.656   1.067   1.406  1.2167 -1.8808 -0.7847
 1018MOL0     H34341   6.420   1.039   1.433  0.0854  0.0497  1.4886
 1018MOL0     H34342   6.272   0.700   1.676  0.2014 -0.4697 -1.4560
 1018MOL0     H34343   6.114   0.772   1.632 -0.6298  4.3590 -0.2704
 1018MOL0     H34344   6.289   0.892   1.841  1.5483 -2.5679 -1.0937
 1018MOL0     H34345   6.160   0.764   1.873 -2.1687 -1.2019 -1.6735
 1018MOL0     H34346   6.095   1.006   1.706 -1.3725 -1.5668 -0.1389
 1018MOL0     H34347   6.115   1.032   1.867  0.4946  0.6945 -0.6641
 1018MOL0     H34348   5.936   0.792   1.759  0.7209  0.6305 -0.4550
 1018MOL0     H34349   5.927   0.869   1.922 -0.9554 -1.9259 -0.5705
 1018MOL0     H34350   5.840   1.001   1.668 -4.3881  1.6098 -0.2223
 1018MOL0     H34351   5.834   1.057   1.832  2.5544 -2.4145  2.9071
 1018MOL0     H34352   5.656   0.902   1.891  0.5009  0.8402  0.0372
 1018MOL0     H34353   5.698   0.798   1.752  2.9553 -0.1410  1.3973
 1018MOL0     H34354   5.556   1.076   1.748 -0.7490 -1.2364  2.3878
 1018MOL0     H34355   5.610   0.987   1.599 -1.0471 -4.5297 -0.7384
 1018MOL0     H34356   5.416   0.851   1.792 -2.8688  1.7424  0.2684
 1018MOL0     H34357   5.466   0.793   1.640 -0.4289 -0.1169 -1.0021
 1018MOL0     H34358   6.468   0.703   1.690 -1.1988  0.8003 -0.0344
 1018MOL0     H34359   6.715   0.723   1.647  0.4365 -0.4260 -1.7707
 1018MOL0     H34360   7.112   1.219   1.503  3.0340  0.8065 -0.3749
 1018MOL0     H34361   7.355   1.185   1.470 -0.3356  0.6659  1.5449
 1018MOL0     H34362   8.966   1.037   1.303  0.0079  0.2510  0.5025
 1018MOL0     H34363   9.116   1.239   1.321 -3.6144 -0.3911 -0.6583
 1018MOL0     H34364   9.537   1.363   1.131 -2.4669 -0.6622  1.5908
 1018MOL0     H34365   9.697   1.505   1.063 -1.3898 -0.5184  0.3973
 1018MOL0     H34366   9.816   1.651   0.954 -2.6079 -0.7308 -0.4678
 1018MOL0     H34367   9.786   1.785   1.084  3.0133  0.9715  0.3009
 1018MOL0     H34368   9.840   1.957   0.912  2.4774  1.0263  2.7434
 1018MOL0     H34369   9.972   1.839   0.929 -1.1342 -2.2627  3.1471
 1018MOL0     H34370   9.766   1.849   0.707  0.4942  0.2988  1.8980
 1018MOL0     H34371   9.877   1.705   0.729  0.8274 -1.2684 -0.3254
 1018MOL0     H34372  10.073   1.875   0.725 -1.4038 -3.7501  1.6733
 1018MOL0     H34373   9.984   1.850   0.567 -0.9849  0.5266 -0.1992
 1018MOL0     H34374   9.890   2.252   0.635 -0.3705 -0.1793  0.5030
 1018MOL0     H34375   9.387   1.792   0.915 -3.1653 -1.0549 -0.8031
 1018MOL0     H34376   9.232   1.621   0.976  0.9079 -1.9519  1.7233
 1019MOL0     O34377   3.265  10.799   1.200  0.9639 -0.3288 -0.5917
 1019MOL0     C34378   3.292  10.867   1.310  0.4327  0.5678  0.5104
 1019MOL0     O34379   3.194  10.930   1.387 -0.0829 -0.3574 -0.7317
 1019MOL0     C34380   3.065  10.921   1.346  0.6188  0.0881  0.5229
 1019MOL0     C34381   3.006  10.931   1.217  0.6929  0.0589 -0.0196
 1019MOL0     C34382   2.863  10.957   1.211 -0.5535  0.5069  0.5736
 1019MOL0     C34383   2.779  10.955   1.321 -0.3650  0.1409  0.2855
 1019MOL0     O34384   2.642  10.970   1.316 -0.9169 -0.1066  0.0458
 1019MOL0     C34385   2.592  11.007   1.184 -0.4675 -0.8592 -0.2871
 1019MOL0     C34386   2.442  11.028   1.194  0.2011  1.0480 -0.2653
 1019MOL0     C34387   2.372  10.913   1.124 -0.0136  0.3952 -0.2194
 1019MOL0     C34388   2.219  10.933   1.152 -0.0311  0.0117 -0.0928
 1019MOL0     C34389   2.125  10.831   1.091  0.1667 -0.1774  0.5254
 1019MOL0     C34390   2.123  10.858   0.936  0.2613 -0.2852  0.8930
 1019MOL0     C34391   1.984  10.820   0.891  0.7224 -0.6250  0.2438
 1019MOL0     C34392   1.965  10.835   0.742  0.0555  0.7270  0.7315
 1019MOL0     N34393   2.064  10.755   0.671 -0.1847  0.1676 -0.0639
 1019MOL0     C34394   2.095  10.619   0.688  0.6446 -0.3372 -0.9729
 1019MOL0     C34395   2.146  10.571   0.575 -0.3469  0.5532 -0.5547
 1019MOL0     C34396   2.195  10.430   0.555 -0.4010 -0.5544  0.2255
 1019MOL0     C34397   2.084  10.322   0.533  0.1856 -0.4504  0.2775
 1019MOL0     C34398   2.006  10.322   0.402 -0.6253 -0.1602 -1.1110
 1019MOL0     C34399   1.894  10.217   0.432  0.2393 -0.2579 -1.1509
 1019MOL0     O34400   1.776  10.221   0.341 -0.1021 -0.2141 -0.2289
 1019MOL0     C34401   1.658  10.175   0.383  0.4445 -0.6455  0.0072
 1019MOL0     C34402   1.645  10.108   0.500 -0.1512 -0.1120 -0.5964
 1019MOL0     C34403   1.518  10.064   0.532  0.0771 -0.7446 -1.2008
 1019MOL0     C34404   1.405  10.080   0.451 -0.7218  0.2202 -0.1448
 1019MOL0     C34405   1.272  10.022   0.491  0.3208 -0.2170  0.2775
 1019MOL0     O34406   1.168  10.034   0.400  0.3568 -0.1643  0.3439
 1019MOL0     C34407   1.039   9.984   0.435 -0.6375 -0.3184  0.0297
 1019MOL0     C34408   0.944  10.047   0.512 -0.7534  0.5045 -1.1146
 1019MOL0     C34409   0.819   9.990   0.539 -0.5418 -0.7442  0.2246
 1019MOL0     C34410   0.787   9.864   0.495 -0.4944  0.6550 -0.2803
 1019MOL0     O34411   0.663   9.820   0.537 -0.8106  0.0006  0.0371
 1019MOL0     C34412   0.618   9.679   0.527  0.4483 -0.3823  0.7857
 1019MOL0     C34413   0.463   9.684   0.552  0.1845 -0.3580  0.4676
 1019MOL0     C34414   0.432   9.758   0.679  0.4178 -0.4363 -0.1508
 1019MOL0     C34415   0.275   9.781   0.705 -0.1442 -0.3053 -0.2925
 1019MOL0     C34416   0.241   9.828   0.847 -0.0871 -0.9287  0.0124
 1019MOL0     C34417   0.088   9.851   0.863  0.5772 -1.4130 -0.1448
 1019MOL0     C34418   0.054   9.913   0.991 -0.1638  0.0630  0.1023
 1019MOL0     C34419  -0.073   9.869   1.047  0.0375 -0.7013  0.1952
 1019MOL0    Cl34420  -0.043   9.741   1.152  0.0192  0.2464 -0.5012
 1019MOL0     C34421   0.883   9.793   0.421  0.3158 -0.2274 -0.3851
 1019MOL0     C34422   1.005   9.856   0.396  0.2377  0.0307  0.2021
 1019MOL0     O34423   1.262   9.990   0.607 -0.3749 -0.8591  0.1309
 1019MOL0     C34424   1.420  10.134   0.330  0.1133  0.1002  0.1472
 1019MOL0     C34425   1.544  10.186   0.290  0.1614 -1.0225 -0.7168
 1019MOL0     N34426   2.155  10.680   0.494  0.3039 -0.0411  0.3650
 1019MOL0     N34427   2.105  10.791   0.546  0.4965  0.2054 -0.1287
 1019MOL0     C34428   2.841  10.931   1.449  0.7102  0.8201 -0.3154
 1019MOL0     C34429   2.975  10.920   1.456  0.2554 -0.0388  0.0481
 1019MOL0     C34430   3.433  10.860   1.358  0.1096  0.6727  0.4744
 1019MOL0     C34431   3.548  10.842   1.276 -0.1948  0.1920  0.3642
 1019MOL0     C34432   3.679  10.827   1.334  0.0047  0.1891 -0.1033
 1019MOL0     C34433   3.698  10.835   1.472 -0.0731 -0.5412  0.4888
 1019MOL0     O34434   3.817  10.808   1.536 -0.0119  0.2576 -0.1403
 1019MOL0     C34435   3.929  10.766   1.454  0.3157 -0.0702  0.7137
 1019MOL0     C34436   4.045  10.712   1.544  0.4263 -0.2919  0.2387
 1019MOL0     C34437   4.176  10.681   1.479 -0.5018 -0.1238  0.1045
 1019MOL0     C34438   4.199  10.528   1.476 -0.2706  0.5396 -0.3927
 1019MOL0     C34439   4.334  10.505   1.433 -0.4913  1.0256 -0.0928
 1019MOL0     C34440   4.455  10.492   1.405  0.1290  0.4056 -0.2496
 1019MOL0     C34441   3.582  10.847   1.550 -0.4336 -0.0861  0.5207
 1019MOL0     C34442   3.456  10.862   1.496  0.4976 -0.2960 -0.3209
 1019MOL0     H34443   3.064  10.925   1.125  0.0505  0.4134 -0.4590
 1019MOL0     H34444   2.832  10.973   1.109 -1.4910 -0.7450  0.6397
 1019MOL0     H34445   2.621  10.930   1.111  0.9033 -0.4252 -0.2181
 1019MOL0     H34446   2.634  11.098   1.141 -0.3455 -1.5670 -1.7355
 1019MOL0     H34447   2.411  11.120   1.143  0.0101  0.6802 -0.8062
 1019MOL0     H34448   2.395  11.030   1.293  0.1441  0.4704 -0.2773
 1019MOL0     H34449   2.402  10.816   1.165  1.8990  1.8282  2.0218
 1019MOL0     H34450   2.394  10.912   1.017 -2.0636 -2.3185 -0.7404
 1019MOL0     H34451   2.197  10.933   1.259 -2.9504  0.8314 -0.5977
 1019MOL0     H34452   2.188  11.034   1.124  0.0047 -0.0451 -0.3452
 1019MOL0     H34453   2.028  10.848   1.138  0.2521 -0.7851  0.9267
 1019MOL0     H34454   2.142  10.725   1.111  1.0528  0.4815  3.9582
 1019MOL0     H34455   2.202  10.800   0.886 -1.6466 -0.4017 -2.2882
 1019MOL0     H34456   2.137  10.965   0.917  2.0727 -0.9122 -2.1442
 1019MOL0     H34457   1.956  10.721   0.929  0.5958 -0.5517  0.3424
 1019MOL0     H34458   1.909  10.886   0.936 -0.8612 -1.8047 -0.5608
 1019MOL0     H34459   1.988  10.934   0.703 -3.3184 -0.0567 -4.2205
 1019MOL0     H34460   1.866  10.810   0.701  1.1008 -1.2322 -0.7666
 1019MOL0     H34461   2.072  10.557   0.774 -3.0354 -2.2678 -3.0935
 1019MOL0     H34462   2.254  10.406   0.643 -0.4543  2.0556  1.0551
 1019MOL0     H34463   2.268  10.426   0.473 -0.4711 -2.6838  0.2145
 1019MOL0     H34464   2.012  10.337   0.614  0.8700 -2.7128  1.4208
 1019MOL0     H34465   2.124  10.220   0.536 -0.8750 -0.8632  2.2436
 1019MOL0     H34466   1.955  10.418   0.390 -2.0956 -0.7989 -0.2536
 1019MOL0     H34467   2.047  10.306   0.302 -1.0088  2.2487 -1.7188
 1019MOL0     H34468   1.857  10.241   0.532 -2.4073 -0.2683 -2.0722
 1019MOL0     H34469   1.953  10.125   0.436  3.1260  1.4826  0.4634
 1019MOL0     H34470   1.721  10.073   0.569 -1.3718 -0.2718  0.7286
 1019MOL0     H34471   1.517  10.013   0.627  0.0098  3.5332  1.3678
 1019MOL0     H34472   0.963  10.140   0.565  0.5022 -1.1185  1.5336
 1019MOL0     H34473   0.754  10.044   0.607 -1.3401 -1.6836  0.2312
 1019MOL0     H34474   0.667   9.623   0.607  2.6132 -1.5679 -1.2552
 1019MOL0     H34475   0.638   9.631   0.431  0.9955  1.4074 -0.0548
 1019MOL0     H34476   0.417   9.586   0.566 -4.9390  1.5842 -0.3402
 1019MOL0     H34477   0.414   9.728   0.464 -1.7885 -2.1434  0.5797
 1019MOL0     H34478   0.495   9.845   0.699  3.0413 -2.7719  2.6777
 1019MOL0     H34479   0.462   9.703   0.769  1.5269  2.5073  1.4003
 1019MOL0     H34480   0.244   9.851   0.627  2.5633 -0.5000 -1.6652
 1019MOL0     H34481   0.222   9.687   0.682  0.2586 -0.5135 -0.3743
 1019MOL0     H34482   0.285   9.927   0.865 -1.5306  0.0709 -1.6004
 1019MOL0     H34483   0.276   9.763   0.927 -1.4626  0.8306  2.1619
 1019MOL0     H34484   0.028   9.760   0.853 -1.8619 -0.1641  1.9844
 1019MOL0     H34485   0.063   9.922   0.784  1.1968  0.2916  1.1205
 1019MOL0     H34486   0.129   9.896   1.068 -0.4785 -0.2876  0.3313
 1019MOL0     H34487   0.065  10.021   0.972 -1.3017  0.0783 -0.5966
 1019MOL0     H34488  -0.153   9.857   0.974  0.1322  1.8735 -0.4072
 1019MOL0     H34489  -0.104   9.949   1.114  1.5786 -0.9333  1.2450
 1019MOL0     H34490   0.857   9.692   0.392 -1.8195  0.4053 -0.8698
 1019MOL0     H34491   1.078   9.804   0.335 -0.2966 -1.4879  0.8241
 1019MOL0     H34492   1.331  10.152   0.272  0.9406  1.4029 -0.7804
 1019MOL0     H34493   1.556  10.242   0.198  2.9062 -0.0557  0.1278
 1019MOL0     H34494   2.795  10.905   1.544  2.8681 -2.0896  0.0444
 1019MOL0     H34495   3.024  10.899   1.550 -0.5286 -1.7863  0.0968
 1019MOL0     H34496   3.553  10.847   1.168  2.1294  3.4300  0.4699
 1019MOL0     H34497   3.756  10.806   1.262 -0.0584  1.5681 -0.5882
 1019MOL0     H34498   3.970  10.843   1.388  1.4914 -3.4543 -2.8592
 1019MOL0     H34499   3.901  10.682   1.391 -3.4184  0.5399  1.3340
 1019MOL0     H34500   4.057  10.783   1.627  1.3795  0.1821 -0.2880
 1019MOL0     H34501   3.995  10.623   1.583 -0.9248  0.3076 -0.0771
 1019MOL0     H34502   4.256  10.735   1.530  0.5592 -2.6177  1.2920
 1019MOL0     H34503   4.161  10.724   1.380 -3.0840  2.4135  1.4542
 1019MOL0     H34504   4.190  10.480   1.573  2.2387  0.1393 -0.2890
 1019MOL0     H34505   4.127  10.481   1.408 -2.5381  2.7170  0.3449
 1019MOL0     H34506   4.560  10.470   1.396 -0.4473 -4.4336  1.5053
 1019MOL0     H34507   3.599  10.832   1.657 -0.2398 -1.0512  0.3675
 1019MOL0     H34508   3.375  10.865   1.568  1.0472 -2.2397  0.4433
 1020MOL0     O34509   5.070   3.795   7.636 -0.7887 -0.0382  0.0030
 1020MOL0     C34510   5.078   3.745   7.747  0.7287 -0.4683  0.1243
 1020MOL0     O34511   4.969   3.728   7.835 -0.5952  0.1926  0.2336
 1020MOL0     C34512   4.841   3.780   7.810 -0.4506  0.5506  0.0587
 1020MOL0     C34513   4.747   3.737   7.902 -0.6455  0.1704  0.5472
 1020MOL0     C34514   4.613   3.760   7.889 -0.1000  0.5053 -0.5917
 1020MOL0     C34515   4.564   3.836   7.783 -1.0973 -0.1069  0.3476
 1020MOL0     O34516   4.436   3.870   7.764 -0.1281  0.1221  0.0955
 1020MOL0     C34517   4.336   3.776   7.819  0.3595 -0.6594 -0.5374
 1020MOL0     C34518   4.203   3.788   7.744  0.5516 -0.1783 -0.1802
 1020MOL0     C34519   4.158   3.932   7.746  0.2434 -0.5159 -0.1385
 1020MOL0     C34520   4.013   3.938   7.674 -1.4500  0.1527 -0.0289
 1020MOL0     C34521   3.909   3.928   7.785 -0.2168 -0.0777  0.2754
 1020MOL0     C34522   3.768   3.948   7.737  0.4033 -0.2431 -0.4390
 1020MOL0     C34523   3.660   3.928   7.846  0.1748  0.6045 -0.0660
 1020MOL0     C34524   3.630   3.778   7.864 -0.8570  0.3247  0.2204
 1020MOL0     N34525   3.504   3.749   7.925  0.3118 -0.3047 -0.4185
 1020MOL0     C34526   3.479   3.768   8.057  0.3071  0.3593  0.5492
 1020MOL0     C34527   3.354   3.724   8.078 -0.0047  0.6974  0.5429
 1020MOL0     C34528   3.252   3.734   8.195  0.2404 -0.4623  0.5425
 1020MOL0     C34529   3.187   3.875   8.178  1.0286  0.1531 -0.6071
 1020MOL0     C34530   3.061   3.887   8.272  0.3863  0.0151  0.8165
 1020MOL0     C34531   2.999   4.022   8.264  0.6422 -0.4233  0.1778
 1020MOL0     O34532   2.981   4.052   8.400  0.0707 -0.0970  0.0377
 1020MOL0     C34533   2.867   4.123   8.428  0.1943  0.4653 -0.5534
 1020MOL0     C34534   2.787   4.194   8.336 -0.4557 -1.1296 -0.7798
 1020MOL0     C34535   2.670   4.252   8.380  0.0587  0.3282  0.0897
 1020MOL0     C34536   2.629   4.244   8.517  0.1194  0.3637 -0.3202
 1020MOL0     C34537   2.491   4.292   8.572 -0.2818 -0.8373  1.6574
 1020MOL0     O34538   2.428   4.228   8.679  0.1120  0.4404 -0.0115
 1020MOL0     C34539   2.310   4.270   8.742  0.1445  0.5183  0.1401
 1020MOL0     C34540   2.245   4.393   8.716  0.3986 -0.2181  0.8974
 1020MOL0     C34541   2.149   4.440   8.807  0.7320  0.4071  0.6642
 1020MOL0     C34542   2.108   4.361   8.912 -0.2042 -0.5844 -0.5580
 1020MOL0     O34543   2.018   4.414   8.996  0.4312 -0.1420  0.3315
 1020MOL0     C34544   1.903   4.335   9.040  0.1230  0.6608  0.4500
 1020MOL0     C34545   1.820   4.420   9.133  0.9396  0.1576 -0.5956
 1020MOL0     C34546   1.759   4.536   9.059 -0.3473  0.7846 -0.0679
 1020MOL0     C34547   1.665   4.605   9.160 -0.5107 -0.7693  0.3580
 1020MOL0     C34548   1.545   4.515   9.191 -1.3004 -0.2025 -0.5610
 1020MOL0     C34549   1.424   4.604   9.231  0.5130  0.1377  0.9148
 1020MOL0     C34550   1.436   4.660   9.363  0.4470 -0.1701 -1.0698
 1020MOL0     C34551   1.297   4.698   9.429 -0.4972  0.3192  0.2485
 1020MOL0    Cl34552   1.247   4.839   9.344  0.2529  0.3947  0.1502
 1020MOL0     C34553   2.175   4.244   8.938 -0.9784 -0.0469 -0.5326
 1020MOL0     C34554   2.271   4.200   8.851 -0.0927 -0.6238 -0.4062
 1020MOL0     O34555   2.438   4.376   8.498  0.5654  0.3311 -0.3622
 1020MOL0     C34556   2.715   4.199   8.617 -0.8103  0.3374  0.0999
 1020MOL0     C34557   2.830   4.135   8.569  0.4901  0.2149 -0.4771
 1020MOL0     N34558   3.304   3.684   7.953  0.8857  1.0876  0.1300
 1020MOL0     N34559   3.391   3.705   7.859  0.5290 -0.2421  0.3823
 1020MOL0     C34560   4.659   3.889   7.695  0.1116  0.6759 -0.2552
 1020MOL0     C34561   4.793   3.854   7.707 -0.1427  0.1387 -0.4946
 1020MOL0     C34562   5.203   3.691   7.793  0.1636 -0.3576 -0.4561
 1020MOL0     C34563   5.317   3.701   7.709 -0.3268 -0.1810  0.0722
 1020MOL0     C34564   5.437   3.632   7.743 -0.7753  0.3459  0.7352
 1020MOL0     C34565   5.446   3.559   7.855 -0.0624 -0.1726 -0.7041
 1020MOL0     O34566   5.561   3.497   7.889  0.0058  0.8669  0.4538
 1020MOL0     C34567   5.626   3.549   8.007  0.6446  0.1484 -0.1098
 1020MOL0     C34568   5.773   3.497   8.008 -0.4966  0.5240  0.3114
 1020MOL0     C34569   5.857   3.556   7.890 -0.4100 -0.2851  0.5985
 1020MOL0     C34570   6.005   3.532   7.903  0.3706 -0.0935 -0.2157
 1020MOL0     C34571   6.034   3.391   7.898 -0.5180  1.5549  0.4164
 1020MOL0     C34572   6.086   3.278   7.895 -0.5617 -0.4756 -0.5410
 1020MOL0     C34573   5.333   3.547   7.934  0.4900 -0.2982  0.3965
 1020MOL0     C34574   5.218   3.616   7.908  0.1252  0.4629  0.3052
 1020MOL0     H34575   4.789   3.684   7.986  0.9348  1.3357  0.5419
 1020MOL0     H34576   4.546   3.714   7.962 -0.9374  0.8902 -1.1088
 1020MOL0     H34577   4.314   3.777   7.926 -1.4649  1.2451 -0.8819
 1020MOL0     H34578   4.369   3.673   7.800 -1.6101 -0.8101 -3.9147
 1020MOL0     H34579   4.129   3.734   7.804  1.2280  1.3138  2.1521
 1020MOL0     H34580   4.208   3.753   7.641 -2.9806 -0.6984 -0.2984
 1020MOL0     H34581   4.223   4.000   7.690 -1.4876  1.1081 -0.2580
 1020MOL0     H34582   4.151   3.969   7.848  0.6040  2.1052 -0.9845
 1020MOL0     H34583   4.000   4.031   7.617  0.3717  0.0038 -0.7418
 1020MOL0     H34584   4.011   3.852   7.607  4.0212 -0.4346  0.1523
 1020MOL0     H34585   3.925   4.006   7.860  0.0389  1.7866 -1.6657
 1020MOL0     H34586   3.917   3.832   7.837 -0.0775  0.4542  1.2643
 1020MOL0     H34587   3.747   3.890   7.647  1.1635  0.4622 -1.0948
 1020MOL0     H34588   3.757   4.053   7.709  0.3487 -0.4157 -1.0908
 1020MOL0     H34589   3.703   3.963   7.940 -1.0036 -2.9392  1.9715
 1020MOL0     H34590   3.566   3.978   7.822  0.3899  0.4631 -1.3015
 1020MOL0     H34591   3.704   3.731   7.930 -0.6750  2.1832  1.3896
 1020MOL0     H34592   3.636   3.731   7.765  1.3012 -2.0483  1.3578
 1020MOL0     H34593   3.534   3.818   8.136  0.7894  1.8725 -0.6885
 1020MOL0     H34594   3.297   3.710   8.292  1.1253 -1.6139 -0.1316
 1020MOL0     H34595   3.173   3.659   8.183 -1.0562  1.0480 -0.8826
 1020MOL0     H34596   3.153   3.876   8.074  1.4842 -0.3713 -0.7649
 1020MOL0     H34597   3.261   3.952   8.198  1.3207  0.0744 -1.3567
 1020MOL0     H34598   2.978   3.817   8.257 -0.9941  1.4756  1.2540
 1020MOL0     H34599   3.092   3.871   8.375 -0.4753  0.2041  1.1172
 1020MOL0     H34600   2.898   4.011   8.223 -0.2338  1.7519  1.5885
 1020MOL0     H34601   3.066   4.086   8.207  0.4852 -1.8184 -1.6346
 1020MOL0     H34602   2.816   4.203   8.232 -0.5413 -2.2420 -0.9187
 1020MOL0     H34603   2.598   4.280   8.304  0.0024  0.6748  0.2704
 1020MOL0     H34604   2.285   4.471   8.653 -0.2727 -0.2135  0.4717
 1020MOL0     H34605   2.083   4.526   8.802  0.7863  0.4482  0.6477
 1020MOL0     H34606   1.948   4.248   9.087 -0.3991 -0.7276 -1.4853
 1020MOL0     H34607   1.843   4.304   8.954 -0.7710 -0.7802  1.5580
 1020MOL0     H34608   1.874   4.457   9.221  1.6547  0.6877 -1.2396
 1020MOL0     H34609   1.747   4.342   9.159 -0.1730  1.0157 -1.0389
 1020MOL0     H34610   1.721   4.509   8.960  1.3775 -1.3849 -0.1923
 1020MOL0     H34611   1.843   4.603   9.039 -0.6668  1.0915 -0.4111
 1020MOL0     H34612   1.718   4.644   9.247 -0.6226 -3.7376  1.8726
 1020MOL0     H34613   1.624   4.696   9.113  1.9206 -0.9213 -2.3552
 1020MOL0     H34614   1.573   4.446   9.270  1.0856 -0.4618 -1.5563
 1020MOL0     H34615   1.527   4.447   9.107 -0.1504 -3.6903  1.8087
 1020MOL0     H34616   1.335   4.540   9.220  1.2404 -0.9212  1.0566
 1020MOL0     H34617   1.412   4.685   9.158 -2.9841 -0.5833  0.4844
 1020MOL0     H34618   1.464   4.577   9.429  0.3180  0.2509 -0.4732
 1020MOL0     H34619   1.507   4.741   9.343  1.1534  0.2426  2.4582
 1020MOL0     H34620   1.307   4.722   9.535  3.6348 -0.9947  0.3181
 1020MOL0     H34621   1.231   4.612   9.417 -0.4146  0.2852  0.0427
 1020MOL0     H34622   2.156   4.181   9.024  1.8295  0.2062  0.3683
 1020MOL0     H34623   2.335   4.120   8.887  2.5617  1.6800  0.3749
 1020MOL0     H34624   2.695   4.185   8.722  2.9853 -3.1268  0.6330
 1020MOL0     H34625   2.895   4.088   8.642  0.0965  1.4365  0.6970
 1020MOL0     H34626   4.622   3.953   7.616  0.5834  0.2935 -0.7928
 1020MOL0     H34627   4.862   3.893   7.634  0.1983  0.2777 -0.1054
 1020MOL0     H34628   5.318   3.752   7.613 -0.6950 -0.5679 -0.1447
 1020MOL0     H34629   5.528   3.638   7.686 -1.5159 -0.0567 -0.5182
 1020MOL0     H34630   5.565   3.516   8.092 -1.0017 -0.3579 -1.4522
 1020MOL0     H34631   5.625   3.658   8.001 -1.3386  0.0971 -1.8690
 1020MOL0     H34632   5.828   3.521   8.100  1.7055  1.1118 -1.0911
 1020MOL0     H34633   5.773   3.388   8.001 -0.5732  0.3975  1.8656
 1020MOL0     H34634   5.833   3.663   7.894 -0.1418 -0.0507 -2.1572
 1020MOL0     H34635   5.812   3.518   7.797 -0.4918  0.2445  0.4155
 1020MOL0     H34636   6.064   3.572   7.820 -0.6282 -0.8629 -1.3422
 1020MOL0     H34637   6.046   3.584   7.990 -4.7794  3.2025  0.6858
 1020MOL0     H34638   6.139   3.185   7.905  1.4961  0.5982 -0.9170
 1020MOL0     H34639   5.346   3.497   8.029 -1.5442 -2.0974 -0.1734
 1020MOL0     H34640   5.138   3.612   7.981 -0.4872  2.4275 -0.2149
 1021MOL0     O34641   6.397   1.186   1.034  0.2125 -0.1587 -0.4457
 1021MOL0     C34642   6.346   1.243   0.936 -1.0954  0.4412  0.7504
 1021MOL0     O34643   6.415   1.314   0.839 -0.5085 -0.8768 -0.2237
 1021MOL0     C34644   6.550   1.341   0.843  0.0169 -0.3499  0.7061
 1021MOL0     C34645   6.649   1.304   0.937  0.2642 -0.0975 -0.1256
 1021MOL0     C34646   6.776   1.354   0.920 -0.5188 -0.2965 -0.0721
 1021MOL0     C34647   6.813   1.429   0.807 -0.3834  0.1575  0.2747
 1021MOL0     O34648   6.939   1.478   0.774  0.8157  0.1503 -0.7165
 1021MOL0     C34649   7.050   1.404   0.832 -0.4406  0.3640  0.3677
 1021MOL0     C34650   7.179   1.430   0.760  0.1662  0.3640  0.4700
 1021MOL0     C34651   7.161   1.421   0.607  0.0162  1.1529  0.9266
 1021MOL0     C34652   7.124   1.276   0.566  0.6850  0.0775  0.2046
 1021MOL0     C34653   7.226   1.180   0.621 -0.3128  0.9579  0.0911
 1021MOL0     C34654   7.215   1.050   0.547 -0.1854 -0.2213  0.1101
 1021MOL0     C34655   7.316   0.941   0.611 -0.2408  0.7245 -0.2804
 1021MOL0     C34656   7.291   0.795   0.546 -0.1007 -0.8301  0.3478
 1021MOL0     N34657   7.155   0.754   0.566  0.4818 -0.0600  0.9449
 1021MOL0     C34658   7.086   0.698   0.466 -0.3773 -0.2287  0.0857
 1021MOL0     C34659   6.977   0.643   0.523 -0.2339 -0.1361 -0.0987
 1021MOL0     C34660   6.874   0.562   0.443  0.2109 -0.0088 -0.8184
 1021MOL0     C34661   6.905   0.413   0.439  0.9363 -0.7836 -0.7315
 1021MOL0     C34662   6.908   0.344   0.573  0.2672  0.2673  0.6059
 1021MOL0     C34663   6.771   0.330   0.650  1.0218 -0.1213 -0.3631
 1021MOL0     O34664   6.693   0.241   0.566 -0.3005 -0.6445 -0.3917
 1021MOL0     C34665   6.569   0.210   0.604  0.6798 -0.1223 -0.4021
 1021MOL0     C34666   6.509   0.236   0.734  0.7857  0.9568 -0.3018
 1021MOL0     C34667   6.383   0.187   0.765  0.6198  0.6039  0.7626
 1021MOL0     C34668   6.304   0.126   0.658  0.3688 -0.5775  0.0795
 1021MOL0     C34669   6.162   0.091   0.680  0.5593  0.6674 -1.1183
 1021MOL0     O34670   6.098   0.145   0.791  0.5973  0.4438 -0.4892
 1021MOL0     C34671   5.966   0.114   0.821 -0.2115  0.5608  0.6396
 1021MOL0     C34672   5.932   0.074   0.958  0.5728 -0.1211  0.3320
 1021MOL0     C34673   5.801   0.054   0.993  1.0159  0.2816  0.3931
 1021MOL0     C34674   5.699   0.058   0.902  0.0628 -0.8008 -0.6230
 1021MOL0     O34675   5.572   0.040   0.954 -0.6789 -0.1634  0.4227
 1021MOL0     C34676   5.461   0.046   0.860  0.8200 -0.3978 -0.3000
 1021MOL0     C34677   5.334  -0.004   0.929 -0.2669  0.4458 -0.2842
 1021MOL0     C34678   5.213   0.035   0.842 -0.2461 -0.1119  0.2115
 1021MOL0     C34679   5.085  -0.039   0.883  1.0182  0.3844 -0.0442
 1021MOL0     C34680   4.969   0.026   0.811 -0.2807  1.4187 -0.5824
 1021MOL0     C34681   4.825  -0.020   0.842 -0.5645 -0.1967 -0.5584
 1021MOL0     C34682   4.719   0.046   0.758 -0.7162  0.2516  0.4511
 1021MOL0     C34683   4.578   0.023   0.807  0.7234 -0.6380  0.3484
 1021MOL0    Cl34684   4.547   0.096   0.965 -0.2012 -0.1814 -0.4607
 1021MOL0     C34685   5.730   0.108   0.768 -0.1209 -0.0822  0.3454
 1021MOL0     C34686   5.861   0.129   0.727 -0.0095  0.0469  0.1898
 1021MOL0     O34687   6.116   0.005   0.607  0.0162  0.0033  0.6479
 1021MOL0     C34688   6.363   0.098   0.536  0.1935 -0.1932  0.2064
 1021MOL0     C34689   6.492   0.140   0.513 -0.3928  0.3145 -0.7024
 1021MOL0     N34690   6.981   0.667   0.660  0.1697 -0.5378 -0.1660
 1021MOL0     N34691   7.093   0.733   0.687 -0.3844 -0.5764  0.4087
 1021MOL0     C34692   6.720   1.459   0.708 -0.0468 -0.1903  0.0434
 1021MOL0     C34693   6.585   1.419   0.733  1.0961  0.1739 -0.4405
 1021MOL0     C34694   6.203   1.243   0.913 -0.3624 -0.4133 -0.6912
 1021MOL0     C34695   6.120   1.207   1.013 -0.5595 -0.2087 -0.0262
 1021MOL0     C34696   5.983   1.197   0.992 -0.6794  0.7236 -0.5217
 1021MOL0     C34697   5.933   1.225   0.865 -0.1053  0.2218 -0.4441
 1021MOL0     O34698   5.803   1.222   0.828  0.3984 -0.6563  0.9192
 1021MOL0     C34699   5.715   1.181   0.927  0.5579 -0.3517  0.2183
 1021MOL0     C34700   5.574   1.203   0.893 -0.0454 -0.4604 -0.4866
 1021MOL0     C34701   5.527   1.118   0.778  0.6582 -0.2531 -0.2768
 1021MOL0     C34702   5.511   0.965   0.830  0.2559 -0.0376 -0.1417
 1021MOL0     C34703   5.371   0.913   0.825 -0.6309 -0.3136  0.0826
 1021MOL0     C34704   5.261   0.876   0.824 -0.1612 -0.4291  0.1985
 1021MOL0     C34705   6.019   1.261   0.763  0.7358 -0.6526  0.1449
 1021MOL0     C34706   6.159   1.268   0.787  0.3395 -0.8741  1.1722
 1021MOL0     H34707   6.639   1.233   1.018  3.7498 -1.4680 -0.7400
 1021MOL0     H34708   6.838   1.313   0.999  1.2487 -2.1399 -2.2827
 1021MOL0     H34709   7.036   1.296   0.824 -0.1267  0.2098  1.6404
 1021MOL0     H34710   7.064   1.437   0.935 -3.3822  0.2014  0.8837
 1021MOL0     H34711   7.263   1.376   0.804 -0.8647 -2.1207 -0.4651
 1021MOL0     H34712   7.188   1.537   0.780  0.2945  0.5581 -0.5631
 1021MOL0     H34713   7.259   1.453   0.571  1.7196 -0.3695  3.8258
 1021MOL0     H34714   7.085   1.487   0.564  0.1276  2.1337  2.1676
 1021MOL0     H34715   7.025   1.251   0.606  0.6075 -1.0574 -0.6432
 1021MOL0     H34716   7.105   1.260   0.459  2.3386 -1.4518  0.0935
 1021MOL0     H34717   7.210   1.167   0.729  1.3686 -2.0972  0.0859
 1021MOL0     H34718   7.327   1.221   0.627 -0.1223  0.4520  0.4148
 1021MOL0     H34719   7.248   1.062   0.444 -2.3913 -1.5966 -0.8256
 1021MOL0     H34720   7.115   1.006   0.535  0.8322 -1.9630 -3.1004
 1021MOL0     H34721   7.421   0.971   0.600 -0.7345  3.4091  1.3916
 1021MOL0     H34722   7.303   0.930   0.719  0.7269 -0.5025 -0.2550
 1021MOL0     H34723   7.349   0.719   0.598  1.1216  0.2012  0.5454
 1021MOL0     H34724   7.317   0.782   0.441  3.4377  1.1072  0.8190
 1021MOL0     H34725   7.120   0.705   0.363  1.7199  2.5571  0.8409
 1021MOL0     H34726   6.863   0.610   0.346  0.1166 -1.2963 -1.4587
 1021MOL0     H34727   6.775   0.573   0.489 -0.0912  0.7568 -1.6275
 1021MOL0     H34728   6.998   0.392   0.385  1.8256 -1.3319  0.9339
 1021MOL0     H34729   6.819   0.374   0.383 -1.1210  1.5338  0.6511
 1021MOL0     H34730   6.938   0.243   0.544  0.3050  0.8027 -1.3585
 1021MOL0     H34731   6.985   0.389   0.637  0.3323  0.4439  0.4040
 1021MOL0     H34732   6.715   0.424   0.662  1.8876  0.0275  3.5914
 1021MOL0     H34733   6.774   0.293   0.753 -4.6796 -0.3442  0.0695
 1021MOL0     H34734   6.568   0.281   0.813  2.0935 -1.7504  0.4046
 1021MOL0     H34735   6.339   0.208   0.863 -1.1286  2.2074 -0.3020
 1021MOL0     H34736   6.005   0.086   1.038 -0.9630  0.3840  1.7016
 1021MOL0     H34737   5.765   0.023   1.091 -0.4193  0.5014 -0.0498
 1021MOL0     H34738   5.481  -0.014   0.771  1.6899 -1.6148  0.6860
 1021MOL0     H34739   5.445   0.145   0.816 -0.8496 -0.5088 -0.0257
 1021MOL0     H34740   5.318   0.043   1.027  0.2649 -2.5930  1.3800
 1021MOL0     H34741   5.335  -0.111   0.950  0.6008  0.9446  2.6906
 1021MOL0     H34742   5.246   0.022   0.739 -0.7262  0.1579  0.0212
 1021MOL0     H34743   5.189   0.141   0.849 -4.3210 -0.3423 -4.2386
 1021MOL0     H34744   5.078  -0.144   0.855  1.8483 -0.0924  1.4383
 1021MOL0     H34745   5.068  -0.020   0.989 -0.6916  0.9889 -0.3964
 1021MOL0     H34746   4.982   0.016   0.703  2.5303  1.1169 -0.2831
 1021MOL0     H34747   4.961   0.132   0.836  0.0604  1.4783 -0.7288
 1021MOL0     H34748   4.800  -0.015   0.948 -1.8219  0.5485 -0.8635
 1021MOL0     H34749   4.814  -0.128   0.826 -1.2115 -0.0912 -0.8791
 1021MOL0     H34750   4.733   0.153   0.746 -1.3624  0.3131  0.2176
 1021MOL0     H34751   4.735   0.004   0.658 -1.6152 -1.1130  0.8451
 1021MOL0     H34752   4.558  -0.084   0.817 -2.3167 -0.6784 -3.6938
 1021MOL0     H34753   4.508   0.061   0.732 -0.5596 -1.0322  1.3149
 1021MOL0     H34754   5.653   0.135   0.695 -0.6252 -2.0255  0.0977
 1021MOL0     H34755   5.880   0.164   0.627 -3.5841 -3.5361 -2.0572
 1021MOL0     H34756   6.311   0.043   0.458  1.3620 -0.1343 -0.6338
 1021MOL0     H34757   6.526   0.105   0.416  1.5743  0.4925 -0.1328
 1021MOL0     H34758   6.747   1.524   0.626 -1.1679  3.0908  2.0892
 1021MOL0     H34759   6.514   1.456   0.658  3.3191  4.3239 -0.8163
 1021MOL0     H34760   6.161   1.181   1.110 -2.2397 -0.0179  0.7787
 1021MOL0     H34761   5.920   1.175   1.078 -0.2977  0.5469 -0.2833
 1021MOL0     H34762   5.725   1.237   1.020  2.7255 -1.9034  1.0105
 1021MOL0     H34763   5.735   1.081   0.966 -0.1021 -1.7445 -2.7742
 1021MOL0     H34764   5.517   1.191   0.986  0.6639  1.6367  0.2846
 1021MOL0     H34765   5.569   1.309   0.868  1.3811  0.1349  1.5259
 1021MOL0     H34766   5.606   1.133   0.704 -1.1348  0.7003 -2.0604
 1021MOL0     H34767   5.437   1.155   0.730  1.7456  1.1630 -1.3177
 1021MOL0     H34768   5.590   0.905   0.785  1.1507 -0.1910  1.5419
 1021MOL0     H34769   5.538   0.969   0.936 -1.1114  3.7733  0.2109
 1021MOL0     H34770   5.164   0.830   0.829 -0.1438 -0.4975 -0.1062
 1021MOL0     H34771   5.976   1.280   0.665  1.3181 -5.0551 -1.2226
 1021MOL0     H34772   6.228   1.294   0.707  0.1127 -0.2660  1.1703
 1022MOL0     O34773  11.262  10.046   1.593  0.7639  0.1747  0.2735
 1022MOL0     C34774  11.263  10.096   1.702  0.3665 -0.3927  0.9154
 1022MOL0     O34775  11.154  10.171   1.737  0.1201  0.0532 -0.3888
 1022MOL0     C34776  11.057  10.206   1.649  0.0925 -0.0391 -0.4505
 1022MOL0     C34777  10.932  10.197   1.695 -0.2909 -0.3170 -1.0671
 1022MOL0     C34778  10.823  10.234   1.610  0.0304  0.2639 -0.4681
 1022MOL0     C34779  10.839  10.271   1.475 -0.1474  0.0116 -0.0171
 1022MOL0     O34780  10.746  10.288   1.377  0.8748 -0.3243 -0.4675
 1022MOL0     C34781  10.608  10.311   1.419  0.5400 -0.1946  0.0164
 1022MOL0     C34782  10.536  10.177   1.407  0.4665  1.0258  0.1047
 1022MOL0     C34783  10.380  10.188   1.398 -0.2687  0.2739 -0.1247
 1022MOL0     C34784  10.321  10.047   1.392 -0.2270  0.0064  0.1644
 1022MOL0     C34785  10.168  10.055   1.405 -0.7256 -0.2804 -0.3467
 1022MOL0     C34786  10.104   9.920   1.414 -0.1186 -0.1537 -0.4733
 1022MOL0     C34787   9.974   9.927   1.496 -0.4038 -0.0443 -0.0595
 1022MOL0     C34788   9.908   9.784   1.522  0.3990  1.5465 -0.0149
 1022MOL0     N34789   9.799   9.807   1.621 -0.2589 -0.1121 -0.5208
 1022MOL0     C34790   9.798   9.741   1.749 -0.3558 -0.0440  0.0539
 1022MOL0     C34791   9.683   9.792   1.807 -0.4734  0.4331  0.6832
 1022MOL0     C34792   9.615   9.737   1.921 -0.3998 -0.2366  0.2434
 1022MOL0     C34793   9.462   9.754   1.900 -0.0194  0.2338 -0.2627
 1022MOL0     C34794   9.372   9.719   2.025  0.1779  0.0092  0.0932
 1022MOL0     C34795   9.221   9.736   2.008  0.0738  0.5942  0.1854
 1022MOL0     O34796   9.161   9.621   1.948 -0.4935  0.0481  0.2881
 1022MOL0     C34797   9.025   9.594   1.959  0.2098  0.1516 -0.6619
 1022MOL0     C34798   8.932   9.685   2.015 -0.5602  0.6563  0.1335
 1022MOL0     C34799   8.796   9.639   2.025 -0.2260  0.3189 -0.4706
 1022MOL0     C34800   8.750   9.503   1.987 -0.1841  0.2306 -0.0118
 1022MOL0     C34801   8.611   9.449   2.001 -0.2824  0.0431 -0.9628
 1022MOL0     O34802   8.578   9.319   1.968 -0.1678  0.1926  0.1344
 1022MOL0     C34803   8.453   9.273   1.958  0.7425  0.2035 -0.3692
 1022MOL0     C34804   8.341   9.344   1.916  0.7758 -0.1523  0.7250
 1022MOL0     C34805   8.210   9.291   1.896 -0.7864 -0.8044  0.4765
 1022MOL0     C34806   8.191   9.154   1.903 -0.8084  0.3618 -0.5682
 1022MOL0     O34807   8.066   9.088   1.890 -0.6442  0.1527  0.1040
 1022MOL0     C34808   7.970   9.139   1.792  0.4110 -0.4148  0.5817
 1022MOL0     C34809   7.853   9.034   1.783  0.3989  0.7490  0.9640
 1022MOL0     C34810   7.741   9.101   1.691  0.1677 -0.8432  0.2066
 1022MOL0     C34811   7.622   9.001   1.689 -0.3154 -1.1388 -0.5326
 1022MOL0     C34812   7.501   9.085   1.631 -0.3276  0.2991  1.1200
 1022MOL0     C34813   7.396   8.990   1.563 -0.4814  0.5610 -0.3956
 1022MOL0     C34814   7.270   9.076   1.528 -0.1355  1.0651  0.4051
 1022MOL0     C34815   7.152   8.992   1.502 -0.4835 -0.2737  0.2006
 1022MOL0    Cl34816   7.018   9.092   1.449  0.2607  0.1303  0.2974
 1022MOL0     C34817   8.303   9.076   1.945  0.0316  0.5233 -0.3194
 1022MOL0     C34818   8.429   9.136   1.971  0.2007  0.1694 -0.2108
 1022MOL0     O34819   8.535   9.524   2.060  0.0333 -0.3314 -0.7690
 1022MOL0     C34820   8.844   9.424   1.936 -0.3414  0.2400 -0.9344
 1022MOL0     C34821   8.975   9.472   1.915 -0.8239 -0.3397 -0.3961
 1022MOL0     N34822   9.622   9.880   1.716  0.5568  1.0665 -0.9613
 1022MOL0     N34823   9.688   9.889   1.612 -0.3362 -0.4720  1.3598
 1022MOL0     C34824  10.971  10.292   1.438  0.5973 -0.3762 -0.1249
 1022MOL0     C34825  11.077  10.256   1.523  0.0165 -1.0312  0.6951
 1022MOL0     C34826  11.382  10.078   1.791 -0.0998 -0.1038 -0.4874
 1022MOL0     C34827  11.475   9.976   1.782  0.3896  0.4092 -0.1945
 1022MOL0     C34828  11.575   9.959   1.868 -0.1716  0.8023 -1.2758
 1022MOL0     C34829  11.589  10.039   1.983  0.2761 -0.5257 -0.5793
 1022MOL0     O34830  11.675  10.032   2.094  0.6401 -0.2256 -0.4729
 1022MOL0     C34831  11.785   9.942   2.085 -0.1702 -0.6911 -0.4448
 1022MOL0     C34832  11.842   9.914   2.220  0.2501 -1.1466  0.1243
 1022MOL0     C34833  11.740   9.832   2.302  0.5770 -0.1025 -0.6364
 1022MOL0     C34834  11.783   9.818   2.450 -0.0567 -0.3465  0.4171
 1022MOL0     C34835  11.668   9.756   2.516 -0.2482 -0.2949 -0.3131
 1022MOL0     C34836  11.586   9.714   2.588 -0.1512  0.9938  0.6055
 1022MOL0     C34837  11.499  10.146   1.994 -0.2210 -0.1807 -0.1067
 1022MOL0     C34838  11.394  10.165   1.900  0.0393 -0.4660  0.4505
 1022MOL0     H34839  10.914  10.159   1.795  3.9055 -1.4494 -0.5303
 1022MOL0     H34840  10.722  10.204   1.636  0.5689 -2.9783 -1.7356
 1022MOL0     H34841  10.566  10.384   1.349  0.0248  1.4588  1.9758
 1022MOL0     H34842  10.599  10.338   1.524  3.6145 -5.4707  2.0823
 1022MOL0     H34843  10.556  10.119   1.498 -1.8893  0.2307  0.1796
 1022MOL0     H34844  10.561  10.121   1.317 -1.9099  0.5720 -0.3530
 1022MOL0     H34845  10.350  10.250   1.313 -1.4357 -1.2553 -0.8830
 1022MOL0     H34846  10.347  10.245   1.485 -1.2135  0.7606 -0.7844
 1022MOL0     H34847  10.340   9.999   1.296 -2.7709 -0.1053 -0.3719
 1022MOL0     H34848  10.369   9.980   1.464 -0.3354 -1.6008 -1.1884
 1022MOL0     H34849  10.123  10.111   1.322 -2.2033  1.7685  1.6940
 1022MOL0     H34850  10.156  10.112   1.497  0.6634 -2.6758  1.4430
 1022MOL0     H34851  10.178   9.854   1.459 -0.1484 -0.3480 -0.7083
 1022MOL0     H34852  10.081   9.885   1.313  2.0432  0.8078 -1.3628
 1022MOL0     H34853   9.988   9.976   1.593  1.7834 -0.9357  0.1293
 1022MOL0     H34854   9.902   9.985   1.436 -2.1293 -1.3944  0.6112
 1022MOL0     H34855   9.976   9.705   1.555 -0.3839  0.7265 -0.3012
 1022MOL0     H34856   9.863   9.754   1.426  0.3867  1.8239 -0.0959
 1022MOL0     H34857   9.854   9.662   1.797 -1.0996  0.5760  2.0817
 1022MOL0     H34858   9.644   9.794   2.010 -1.1638  2.2139 -0.9965
 1022MOL0     H34859   9.637   9.631   1.938 -0.0210 -0.2690 -0.4176
 1022MOL0     H34860   9.443   9.693   1.812  0.3734  1.4476 -1.2121
 1022MOL0     H34861   9.435   9.859   1.882 -0.3930  1.5337  5.6827
 1022MOL0     H34862   9.388   9.615   2.057 -1.5334 -0.0124  0.9961
 1022MOL0     H34863   9.406   9.790   2.101  1.0943 -0.3267  0.0153
 1022MOL0     H34864   9.210   9.821   1.939 -2.8966  1.6777  1.8011
 1022MOL0     H34865   9.171   9.766   2.100 -0.7214 -1.6161  0.5258
 1022MOL0     H34866   8.968   9.786   2.031  1.3635 -0.3076  2.5498
 1022MOL0     H34867   8.721   9.711   2.054 -0.1340 -0.5169  2.1335
 1022MOL0     H34868   8.367   9.447   1.893  0.3294 -0.1914  0.0053
 1022MOL0     H34869   8.137   9.362   1.857  0.3581 -0.9881 -2.2043
 1022MOL0     H34870   8.014   9.155   1.693 -0.9148 -0.4944 -0.0387
 1022MOL0     H34871   7.927   9.233   1.827  0.7290 -0.9084  2.4056
 1022MOL0     H34872   7.812   9.019   1.883 -0.1241  0.0740  0.6578
 1022MOL0     H34873   7.891   8.941   1.740  2.0073  1.9502 -0.3662
 1022MOL0     H34874   7.783   9.115   1.591  4.6758  0.0296  1.9776
 1022MOL0     H34875   7.707   9.195   1.736 -1.0200 -0.4634 -1.4155
 1022MOL0     H34876   7.649   8.917   1.625 -0.0296  0.3768 -2.5111
 1022MOL0     H34877   7.606   8.962   1.790 -0.2528 -3.9052 -1.5306
 1022MOL0     H34878   7.532   9.167   1.565 -0.9304  0.0990  0.5710
 1022MOL0     H34879   7.464   9.127   1.725  2.2542 -1.1095  2.8960
 1022MOL0     H34880   7.370   8.915   1.638  0.0916  1.0711  0.3172
 1022MOL0     H34881   7.428   8.937   1.473 -0.6086 -2.1794  1.0774
 1022MOL0     H34882   7.246   9.150   1.605 -0.0232  0.5129  0.9786
 1022MOL0     H34883   7.297   9.129   1.436 -1.5221  0.5227 -0.3362
 1022MOL0     H34884   7.122   8.944   1.596  0.1428  1.5471  1.3771
 1022MOL0     H34885   7.162   8.912   1.428 -0.4706  0.3144 -0.4373
 1022MOL0     H34886   8.306   8.968   1.935  5.2973  0.4798 -0.7483
 1022MOL0     H34887   8.511   9.070   1.997  0.9239  0.4397 -1.6987
 1022MOL0     H34888   8.836   9.324   1.895  0.4430 -0.0030 -0.5275
 1022MOL0     H34889   9.041   9.407   1.859 -0.3751  0.4223 -0.7663
 1022MOL0     H34890  10.988  10.319   1.334 -2.7477 -1.6650 -1.1305
 1022MOL0     H34891  11.177  10.255   1.480  0.2306 -1.6440  1.1965
 1022MOL0     H34892  11.471   9.907   1.698  0.9722  0.0754  0.0429
 1022MOL0     H34893  11.651   9.883   1.858  0.0460  0.5441  1.6864
 1022MOL0     H34894  11.858   9.973   2.009  2.4092  0.9770  2.4952
 1022MOL0     H34895  11.742   9.847   2.052 -1.7054 -0.9259  1.9915
 1022MOL0     H34896  11.929   9.850   2.206  0.2939 -1.1486  0.4050
 1022MOL0     H34897  11.880  10.006   2.266  2.7056 -0.3186 -3.2243
 1022MOL0     H34898  11.738   9.728   2.268 -0.7355 -1.7898  3.8955
 1022MOL0     H34899  11.640   9.874   2.286  0.3917 -0.0677  0.5804
 1022MOL0     H34900  11.866   9.749   2.465  1.5305  1.7141  1.6430
 1022MOL0     H34901  11.809   9.911   2.502  0.2246 -0.2432  0.0923
 1022MOL0     H34902  11.503   9.685   2.649 -0.5138 -1.0908 -0.7542
 1022MOL0     H34903  11.520  10.211   2.079  3.3817 -1.2097 -0.0276
 1022MOL0     H34904  11.313  10.238   1.899  0.4248 -0.0457  0.0183
 1023MOL0     O34905   4.899   7.848   4.273  0.2671 -0.0026 -0.0771
 1023MOL0     C34906   4.963   7.908   4.187 -0.1162  0.7701 -0.1726
 1023MOL0     O34907   4.909   7.972   4.085 -0.4961 -0.5642 -0.3395
 1023MOL0     C34908   4.775   7.944   4.053 -0.3008 -0.5143 -1.4142
 1023MOL0     C34909   4.663   7.983   4.131  0.5646 -0.5493 -0.7444
 1023MOL0     C34910   4.538   7.915   4.114  0.0152 -0.9725 -0.0141
 1023MOL0     C34911   4.507   7.827   4.007 -0.1891  0.1601 -0.5260
 1023MOL0     O34912   4.389   7.767   3.983  0.0491  0.0664 -0.1658
 1023MOL0     C34913   4.271   7.841   4.012 -0.5838 -0.6505  0.0559
 1023MOL0     C34914   4.161   7.785   3.921  1.1082  0.4196 -0.4506
 1023MOL0     C34915   4.084   7.665   3.993  0.0143 -0.7469 -0.2765
 1023MOL0     C34916   3.955   7.621   3.929  0.5713 -0.6051 -0.8926
 1023MOL0     C34917   3.837   7.715   3.950  0.3268  0.6831  0.1500
 1023MOL0     C34918   3.760   7.727   4.085 -0.4946  0.0556  0.0520
 1023MOL0     C34919   3.716   7.873   4.096 -0.2402  0.5942 -0.9569
 1023MOL0     C34920   3.641   7.887   4.228 -0.1137 -0.7829  0.4750
 1023MOL0     N34921   3.508   7.830   4.212  0.5361 -0.1746 -0.4711
 1023MOL0     C34922   3.403   7.862   4.126  0.5382 -0.2616  0.5024
 1023MOL0     C34923   3.298   7.779   4.165  0.1205 -0.9661  0.4575
 1023MOL0     C34924   3.170   7.784   4.084 -0.1871  0.4695 -0.3864
 1023MOL0     C34925   3.144   7.647   4.026 -0.7245 -0.9609  0.9674
 1023MOL0     C34926   3.013   7.667   3.938  0.0613  0.9360 -0.3147
 1023MOL0     C34927   2.966   7.522   3.897  0.2153 -0.7555  0.3557
 1023MOL0     O34928   2.847   7.535   3.818  0.1196 -0.5280  0.5169
 1023MOL0     C34929   2.727   7.541   3.885 -0.2664  0.7277 -0.2415
 1023MOL0     C34930   2.617   7.548   3.809 -0.6331 -0.2007  0.1095
 1023MOL0     C34931   2.489   7.575   3.864 -0.1671 -0.5603 -0.1916
 1023MOL0     C34932   2.462   7.579   4.001  0.4640  0.4343 -0.2004
 1023MOL0     C34933   2.328   7.597   4.054  0.6735  0.2082  0.0730
 1023MOL0     O34934   2.235   7.630   3.961  0.4044 -0.3586  0.6463
 1023MOL0     C34935   2.108   7.682   3.995  0.0295  0.3605  0.5203
 1023MOL0     C34936   2.081   7.751   4.111  0.0070 -0.2706 -0.6142
 1023MOL0     C34937   1.954   7.806   4.131  0.3704 -0.4868  0.4369
 1023MOL0     C34938   1.853   7.778   4.045  0.5082  0.3044 -0.3383
 1023MOL0     O34939   1.734   7.845   4.053 -0.1471  0.2241 -0.5396
 1023MOL0     C34940   1.630   7.765   4.107 -0.5594 -0.5501 -0.1563
 1023MOL0     C34941   1.493   7.827   4.094  0.6307 -0.2469 -0.0457
 1023MOL0     C34942   1.451   7.881   3.960  0.5514  0.1610 -0.3747
 1023MOL0     C34943   1.311   7.948   3.974  1.3265 -0.2452  0.2628
 1023MOL0     C34944   1.276   8.038   3.850 -0.0173 -0.5748  0.3151
 1023MOL0     C34945   1.162   8.126   3.901  0.7248 -0.1557 -0.5564
 1023MOL0     C34946   1.112   8.238   3.815 -0.7689  0.0402 -0.0285
 1023MOL0     C34947   0.999   8.311   3.885 -0.1436 -0.4389 -0.3566
 1023MOL0    Cl34948   1.054   8.371   4.056 -0.0612  0.1184 -0.0985
 1023MOL0     C34949   1.874   7.710   3.923 -0.5417 -0.2987 -0.7024
 1023MOL0     C34950   2.000   7.662   3.894  0.0624 -0.5009 -0.1282
 1023MOL0     O34951   2.323   7.600   4.175 -0.4582  0.1049 -0.3018
 1023MOL0     C34952   2.572   7.554   4.086  0.1702  0.0790  0.5510
 1023MOL0     C34953   2.703   7.549   4.027 -0.5855 -0.2417  0.0423
 1023MOL0     N34954   3.346   7.699   4.267  0.1079  0.2205 -0.5434
 1023MOL0     N34955   3.469   7.727   4.296 -0.0637 -1.0811 -0.1239
 1023MOL0     C34956   4.619   7.800   3.931  0.4063  0.4357 -0.6242
 1023MOL0     C34957   4.744   7.861   3.952 -0.4249  0.4622 -0.6741
 1023MOL0     C34958   5.110   7.910   4.212  1.1044  0.0993  1.1122
 1023MOL0     C34959   5.191   7.968   4.114 -0.4328  0.5914 -0.4284
 1023MOL0     C34960   5.331   7.980   4.134  0.4670  0.0212 -0.4528
 1023MOL0     C34961   5.388   7.936   4.251  1.2178  1.0331  0.2367
 1023MOL0     O34962   5.518   7.962   4.274  0.3602 -0.3946 -0.4852
 1023MOL0     C34963   5.596   7.859   4.307 -0.1733  0.2554  0.5199
 1023MOL0     C34964   5.662   7.801   4.184 -0.1581  0.3739  0.8098
 1023MOL0     C34965   5.735   7.904   4.088 -0.1741  0.6600  0.3037
 1023MOL0     C34966   5.844   7.984   4.158  0.0035  0.2893 -0.1314
 1023MOL0     C34967   5.962   7.913   4.203 -0.0560  1.2307  0.1935
 1023MOL0     C34968   6.051   7.839   4.243 -0.0752  0.0569  0.3434
 1023MOL0     C34969   5.297   7.889   4.349 -0.3162  0.7067  0.0429
 1023MOL0     C34970   5.159   7.874   4.337 -0.2662  0.2518  0.6228
 1023MOL0     H34971   4.673   8.061   4.206 -1.0141 -2.4543  1.6195
 1023MOL0     H34972   4.457   7.933   4.184 -2.0451 -1.3124 -2.1988
 1023MOL0     H34973   4.289   7.946   3.991  0.7548 -0.3625  2.2526
 1023MOL0     H34974   4.241   7.833   4.117 -2.1130  0.8061 -0.2205
 1023MOL0     H34975   4.196   7.755   3.822 -3.7748  0.4913 -2.5181
 1023MOL0     H34976   4.084   7.862   3.907  0.4744 -0.0165  0.5736
 1023MOL0     H34977   4.061   7.691   4.097 -0.3422  1.4107 -0.8589
 1023MOL0     H34978   4.144   7.573   3.995  0.9019 -0.2475 -2.0451
 1023MOL0     H34979   3.981   7.599   3.825 -0.9332 -2.4290 -0.9340
 1023MOL0     H34980   3.915   7.531   3.975 -1.2854  1.9245  3.0342
 1023MOL0     H34981   3.765   7.697   3.869 -1.6428 -1.3491  2.2150
 1023MOL0     H34982   3.880   7.813   3.927  0.3711 -0.0344 -3.4049
 1023MOL0     H34983   3.832   7.709   4.165  0.9594  0.7219 -1.0368
 1023MOL0     H34984   3.681   7.652   4.087 -0.8758  0.4074 -1.1139
 1023MOL0     H34985   3.798   7.944   4.108 -1.5139  1.7623  1.5597
 1023MOL0     H34986   3.655   7.914   4.015 -2.4723  1.0061  0.8307
 1023MOL0     H34987   3.641   7.994   4.253  1.3937 -1.5153  4.2099
 1023MOL0     H34988   3.692   7.835   4.309 -0.6424 -2.4449 -0.2300
 1023MOL0     H34989   3.417   7.927   4.041 -0.3726 -2.4812 -1.4642
 1023MOL0     H34990   3.178   7.860   4.005  2.3691  0.4420 -0.2366
 1023MOL0     H34991   3.085   7.804   4.150  0.2237  0.5506  0.1215
 1023MOL0     H34992   3.131   7.568   4.101 -0.2928 -0.8846  1.1226
 1023MOL0     H34993   3.225   7.626   3.956  0.5897 -0.6010  2.3338
 1023MOL0     H34994   2.938   7.716   4.000  1.7018  3.2141 -0.0060
 1023MOL0     H34995   3.039   7.720   3.846 -0.8778  0.9400 -0.5854
 1023MOL0     H34996   2.949   7.450   3.977 -0.4507 -3.2166 -1.8619
 1023MOL0     H34997   3.046   7.472   3.840 -0.6756 -1.2457 -0.4922
 1023MOL0     H34998   2.624   7.562   3.702  1.5722  1.5120  0.4005
 1023MOL0     H34999   2.402   7.603   3.805 -0.2141  0.9484  0.5550
 1023MOL0     H35000   2.161   7.780   4.178  0.7819 -3.5504  0.0474
 1023MOL0     H35001   1.944   7.887   4.203  1.1591 -0.4892  0.5520
 1023MOL0     H35002   1.646   7.743   4.213  2.3654 -2.3614 -0.8736
 1023MOL0     H35003   1.638   7.667   4.061  0.4510 -0.1736 -0.8090
 1023MOL0     H35004   1.481   7.907   4.167  0.4891  1.1168 -1.5193
 1023MOL0     H35005   1.422   7.749   4.124 -1.5597  2.1888  1.5883
 1023MOL0     H35006   1.434   7.802   3.886 -4.5845  0.7399 -0.1733
 1023MOL0     H35007   1.523   7.955   3.924 -0.6965  1.3975 -0.4567
 1023MOL0     H35008   1.234   7.874   3.999 -0.0889  1.9424  2.9936
 1023MOL0     H35009   1.313   8.020   4.057 -1.2163  1.0155 -0.6346
 1023MOL0     H35010   1.251   7.979   3.762  3.1039 -2.1901  0.3685
 1023MOL0     H35011   1.362   8.102   3.826 -1.3829  1.6201  0.8947
 1023MOL0     H35012   1.191   8.159   4.001 -4.1410 -1.4057  1.5845
 1023MOL0     H35013   1.072   8.066   3.922  0.4778  1.1610  2.5854
 1023MOL0     H35014   1.190   8.315   3.801  0.6812 -1.1863  1.0031
 1023MOL0     H35015   1.071   8.198   3.722 -0.7545 -3.9545  1.5057
 1023MOL0     H35016   0.920   8.237   3.900 -0.5758  0.5090  2.8199
 1023MOL0     H35017   0.953   8.387   3.822  0.9773 -0.6113 -1.4091
 1023MOL0     H35018   1.794   7.693   3.851 -0.4592 -1.3382 -0.5672
 1023MOL0     H35019   2.003   7.609   3.800 -0.6278 -0.4521 -0.1848
 1023MOL0     H35020   2.551   7.538   4.191 -3.7444 -0.7182 -0.2163
 1023MOL0     H35021   2.792   7.520   4.081  1.3358 -0.0233 -2.7634
 1023MOL0     H35022   4.610   7.720   3.858  0.0905 -0.0504 -0.0636
 1023MOL0     H35023   4.819   7.820   3.886 -0.2434 -0.6583  0.2039
 1023MOL0     H35024   5.143   8.009   4.025  0.1372  1.2646 -0.4304
 1023MOL0     H35025   5.398   8.028   4.064 -0.4607  0.0955 -1.3228
 1023MOL0     H35026   5.542   7.773   4.348  1.1911 -1.2353 -0.6783
 1023MOL0     H35027   5.679   7.891   4.371  1.3225  0.1108 -1.2588
 1023MOL0     H35028   5.734   7.725   4.214 -0.9915 -0.1173  1.6069
 1023MOL0     H35029   5.585   7.746   4.129  0.0084 -0.1415  1.0852
 1023MOL0     H35030   5.653   7.963   4.044 -1.5039 -0.8667  0.6542
 1023MOL0     H35031   5.776   7.851   4.002  0.0708 -1.3258  1.5888
 1023MOL0     H35032   5.884   8.055   4.084 -0.8623 -0.6637 -1.5604
 1023MOL0     H35033   5.798   8.044   4.236  2.6600  0.0860  1.7376
 1023MOL0     H35034   6.123   7.775   4.291 -0.0927 -0.3954 -0.2304
 1023MOL0     H35035   5.338   7.862   4.446 -1.2959  0.8264  0.5009
 1023MOL0     H35036   5.108   7.818   4.415  0.3873 -4.3475 -1.9008
 1024MOL0     O35037   3.270  10.923   0.417  0.8846 -0.1198 -0.4172
 1024MOL0     C35038   3.240  10.808   0.460 -0.1325 -0.4697 -0.3170
 1024MOL0     O35039   3.323  10.728   0.539 -0.2118 -0.0345  0.3524
 1024MOL0     C35040   3.455  10.767   0.559  0.5805  0.4484 -0.0783
 1024MOL0     C35041   3.508  10.748   0.687  1.2055 -0.2280  0.2882
 1024MOL0     C35042   3.650  10.768   0.702  0.6617 -0.0667  0.7532
 1024MOL0     C35043   3.731  10.815   0.594 -0.4003 -1.2478 -0.7331
 1024MOL0     O35044   3.865  10.839   0.628  0.0467  0.2193  0.2550
 1024MOL0     C35045   3.942  10.921   0.535 -0.7710  0.3570  0.0688
 1024MOL0     C35046   4.066  10.968   0.609  0.1814  0.0058  0.3835
 1024MOL0     C35047   4.179  10.861   0.609 -0.7150 -0.4003 -0.0283
 1024MOL0     C35048   4.303  10.892   0.702 -0.6112 -0.6653  0.0347
 1024MOL0     C35049   4.383  11.016   0.654 -0.0017 -0.6584  0.0938
 1024MOL0     C35050   4.441  11.003   0.506 -0.5163 -0.3836 -0.2597
 1024MOL0     C35051   4.512  11.127   0.470 -0.2489 -0.1787  0.1233
 1024MOL0     C35052   4.586  11.136   0.330 -0.8317  0.1490 -1.0792
 1024MOL0     N35053   4.496  11.121   0.209 -0.2624 -0.0080 -0.2840
 1024MOL0     C35054   4.417  11.220   0.165 -0.5901 -1.0315 -0.2606
 1024MOL0     C35055   4.368  11.160   0.051 -0.0521  0.1425 -0.0719
 1024MOL0     C35056   4.258  11.234  -0.029  0.0954  0.2535 -0.0159
 1024MOL0     C35057   4.132  11.271   0.048  0.0186 -0.3204  0.2330
 1024MOL0     C35058   4.041  11.350  -0.052 -0.4015 -0.0931  0.4512
 1024MOL0     C35059   3.896  11.298  -0.029  0.5521 -0.4374  0.1239
 1024MOL0     O35060   3.822  11.379  -0.118 -0.2725  0.9243 -0.6233
 1024MOL0     C35061   3.685  11.393  -0.108 -0.4940 -0.1305 -0.5110
 1024MOL0     C35062   3.605  11.328  -0.010 -0.8814  0.5884  0.4496
 1024MOL0     C35063   3.466  11.349  -0.006 -0.5186 -0.0432 -0.7964
 1024MOL0     C35064   3.400  11.432  -0.096 -0.4807 -0.1633  0.8266
 1024MOL0     C35065   3.261  11.469  -0.080  0.5195 -0.1006  0.5781
 1024MOL0     O35066   3.177  11.400   0.001 -0.8293  0.0618  0.1641
 1024MOL0     C35067   3.046  11.407  -0.020  0.1359  0.0009 -0.2847
 1024MOL0     C35068   2.995  11.357  -0.139 -0.1968  1.0080  0.7787
 1024MOL0     C35069   2.861  11.361  -0.164 -0.3268 -0.1875  0.4019
 1024MOL0     C35070   2.769  11.405  -0.071 -0.5917  0.4444  0.1512
 1024MOL0     O35071   2.635  11.409  -0.118 -0.1441  0.3421  0.1574
 1024MOL0     C35072   2.540  11.497  -0.061  0.7758  0.3180 -0.0208
 1024MOL0     C35073   2.414  11.489  -0.148 -0.4651 -0.0476 -0.4479
 1024MOL0     C35074   2.366  11.353  -0.179  0.0206 -0.8400  0.4875
 1024MOL0     C35075   2.241  11.374  -0.270 -0.2075 -0.5484 -0.2241
 1024MOL0     C35076   2.190  11.242  -0.329  0.2896 -0.4031  0.1191
 1024MOL0     C35077   2.131  11.135  -0.240 -0.0027  0.0412  0.2234
 1024MOL0     C35078   1.990  11.176  -0.198 -0.3028  0.7787  0.1791
 1024MOL0     C35079   1.927  11.056  -0.127 -0.1811 -0.4221 -0.1560
 1024MOL0    Cl35080   1.789  11.144  -0.059 -0.3015 -0.4007 -0.6732
 1024MOL0     C35081   2.816  11.461   0.046  1.2289 -0.1669  0.4578
 1024MOL0     C35082   2.953  11.463   0.075  0.0253 -0.3067 -0.6033
 1024MOL0     O35083   3.228  11.559  -0.156 -0.0409 -0.1233 -0.1881
 1024MOL0     C35084   3.488  11.502  -0.191  0.6165  0.2995  0.2744
 1024MOL0     C35085   3.623  11.489  -0.194  0.6353  0.1537  0.3645
 1024MOL0     N35086   4.407  11.035   0.031  0.6622  0.0015 -0.7582
 1024MOL0     N35087   4.483  11.014   0.127  0.2152 -0.1704 -0.1484
 1024MOL0     C35088   3.674  10.828   0.467 -0.6557 -1.4773  0.5902
 1024MOL0     C35089   3.541  10.807   0.453 -0.0486  0.3717  0.1806
 1024MOL0     C35090   3.100  10.769   0.447  0.3481 -0.4447 -0.7775
 1024MOL0     C35091   3.002  10.851   0.393  1.2841  0.4952  0.8182
 1024MOL0     C35092   2.862  10.828   0.402  0.0527 -0.1259 -0.5614
 1024MOL0     C35093   2.819  10.707   0.465  0.2372  0.0099 -0.3921
 1024MOL0     O35094   2.692  10.663   0.471 -0.3550  0.2483 -0.4414
 1024MOL0     C35095   2.574  10.754   0.449 -0.8265  0.4887  0.5385
 1024MOL0     C35096   2.574  10.865   0.564  0.0675 -0.4466  1.3513
 1024MOL0     C35097   2.608  10.823   0.710  0.1718  0.1560  0.5741
 1024MOL0     C35098   2.520  10.710   0.749 -0.7788  0.0464 -0.2700
 1024MOL0     C35099   2.541  10.688   0.893  0.6876 -0.2438  0.6450
 1024MOL0     C35100   2.576  10.663   1.001 -0.0282 -0.4216 -0.3181
 1024MOL0     C35101   2.916  10.618   0.508 -0.6832 -1.0254 -0.1554
 1024MOL0     C35102   3.055  10.649   0.497 -0.0418  0.1209 -0.3199
 1024MOL0     H35103   3.442  10.720   0.769 -2.0992  2.9535 -0.9992
 1024MOL0     H35104   3.695  10.733   0.794 -0.6663  0.9202  1.8160
 1024MOL0     H35105   3.887  11.011   0.506  0.4447  1.3911  0.8091
 1024MOL0     H35106   3.956  10.858   0.447 -1.8039 -2.7223  1.9382
 1024MOL0     H35107   4.044  11.001   0.711  2.0605 -0.1705  0.8924
 1024MOL0     H35108   4.099  11.049   0.544  1.8439 -0.9165  0.0206
 1024MOL0     H35109   4.205  10.838   0.506 -1.4400 -0.6334 -0.1633
 1024MOL0     H35110   4.147  10.766   0.652 -2.9208 -0.1085 -0.9186
 1024MOL0     H35111   4.270  10.904   0.806 -0.4108  3.6484 -0.2341
 1024MOL0     H35112   4.374  10.809   0.690  1.5024  1.0946 -0.2577
 1024MOL0     H35113   4.476  11.027   0.711  2.0416 -1.7255 -2.8049
 1024MOL0     H35114   4.308  11.095   0.672  0.0409 -0.8456  1.1275
 1024MOL0     H35115   4.359  10.991   0.435 -0.8090  1.6273 -0.3103
 1024MOL0     H35116   4.504  10.914   0.496 -0.9769 -0.7898  0.3607
 1024MOL0     H35117   4.443  11.212   0.471  1.1345  1.0284 -1.2040
 1024MOL0     H35118   4.597  11.128   0.540 -0.0661 -2.3104 -0.0061
 1024MOL0     H35119   4.659  11.056   0.324 -1.2292 -0.1048 -4.1602
 1024MOL0     H35120   4.644  11.228   0.324  1.3108 -0.9419  1.3609
 1024MOL0     H35121   4.400  11.319   0.206 -2.0941 -1.0697 -0.7240
 1024MOL0     H35122   4.239  11.180  -0.122  1.6694  1.8345 -1.3316
 1024MOL0     H35123   4.301  11.327  -0.067  0.7422 -0.4383 -1.0190
 1024MOL0     H35124   4.162  11.326   0.137 -2.9625  0.5172  0.8428
 1024MOL0     H35125   4.089  11.175   0.078 -0.9231  0.3607  1.1072
 1024MOL0     H35126   4.041  11.457  -0.033 -1.8508 -0.2000  1.3113
 1024MOL0     H35127   4.079  11.338  -0.153  1.7213  2.5640  0.8430
 1024MOL0     H35128   3.869  11.326   0.073  0.5431  1.3140 -0.3359
 1024MOL0     H35129   3.885  11.191  -0.049 -1.5608 -0.6718  2.0960
 1024MOL0     H35130   3.659  11.257   0.052 -2.0808  0.0744  0.9311
 1024MOL0     H35131   3.406  11.316   0.078  1.8091  1.5316  1.6563
 1024MOL0     H35132   3.056  11.304  -0.211 -0.1940  1.5057  0.4039
 1024MOL0     H35133   2.823  11.327  -0.260  0.5087  0.1201 -0.0437
 1024MOL0     H35134   2.577  11.600  -0.061 -0.6849  0.9221 -2.5837
 1024MOL0     H35135   2.499  11.467   0.036 -0.8594  1.4732 -0.3194
 1024MOL0     H35136   2.436  11.546  -0.238  0.2738  1.8478  0.8703
 1024MOL0     H35137   2.338  11.549  -0.098 -2.3439 -0.0182 -3.1433
 1024MOL0     H35138   2.356  11.295  -0.087  1.5902  1.8722  2.5013
 1024MOL0     H35139   2.432  11.301  -0.248 -1.8137  1.2115 -3.0953
 1024MOL0     H35140   2.163  11.433  -0.221  0.1241  0.7704 -1.2289
 1024MOL0     H35141   2.273  11.436  -0.354 -1.0816 -0.3671 -0.4309
 1024MOL0     H35142   2.267  11.196  -0.392  1.3869 -0.3362  1.3580
 1024MOL0     H35143   2.116  11.272  -0.404  0.2191  2.9496  1.3706
 1024MOL0     H35144   2.197  11.112  -0.156 -1.1019 -4.5213  0.0896
 1024MOL0     H35145   2.124  11.038  -0.292  1.6357 -0.1389  0.2829
 1024MOL0     H35146   2.006  11.256  -0.126  1.9510  1.3752 -0.8725
 1024MOL0     H35147   1.924  11.205  -0.280 -2.0511  1.1661  1.6673
 1024MOL0     H35148   1.992  11.030  -0.043 -1.8713 -0.7276  1.1248
 1024MOL0     H35149   1.907  10.967  -0.188  3.4699 -0.0292 -2.2146
 1024MOL0     H35150   2.738  11.490   0.116  1.1011  0.4008  0.0821
 1024MOL0     H35151   2.986  11.494   0.174 -2.4970 -1.7598  0.8190
 1024MOL0     H35152   3.446  11.572  -0.263 -1.4560 -3.1067 -2.1659
 1024MOL0     H35153   3.675  11.553  -0.264  0.1690  1.0194  0.7919
 1024MOL0     H35154   3.735  10.858   0.383 -1.7315 -1.5984 -0.2504
 1024MOL0     H35155   3.488  10.802   0.359  0.2924 -2.8396  0.0696
 1024MOL0     H35156   3.041  10.944   0.352 -2.5725  1.5806 -0.8189
 1024MOL0     H35157   2.797  10.901   0.356 -1.1424 -2.0835 -2.1825
 1024MOL0     H35158   2.486  10.689   0.450 -0.3178 -0.2342  2.2643
 1024MOL0     H35159   2.589  10.808   0.355  2.3797  1.5718  1.5214
 1024MOL0     H35160   2.636  10.950   0.533  0.8257 -0.3905  2.9315
 1024MOL0     H35161   2.470  10.900   0.571  0.4138  0.7205  0.8606
 1024MOL0     H35162   2.592  10.912   0.771  0.9462 -0.5593  1.8531
 1024MOL0     H35163   2.711  10.788   0.714 -0.3911 -1.5673  0.7105
 1024MOL0     H35164   2.418  10.734   0.718 -0.5956 -0.1553 -1.0665
 1024MOL0     H35165   2.556  10.616   0.706  2.6041  1.2066 -0.2744
 1024MOL0     H35166   2.610  10.648   1.101 -1.1013 -0.7420  0.0167
 1024MOL0     H35167   2.890  10.521   0.550 -0.7440 -2.8381 -3.8930
 1024MOL0     H35168   3.124  10.575   0.536  3.2588  0.8675 -4.0729
  11.29995  11.29995  11.29995
